Title
42785
    1SAPS     N    1   3.923   4.388   7.007  0.0465 -0.3663 -0.0196
    1SAPS   HN1    2   4.002   4.324   6.984  1.4783  1.1028  0.5448
    1SAPS   HN2    3   3.930   4.461   6.933  1.0249 -1.0314 -0.6049
    1SAPS   HN3    4   3.967   4.427   7.093 -0.4942 -0.8684  0.4898
    1SAPS   C12    5   3.792   4.321   7.014 -0.2188  0.0907 -0.5687
    1SAPS  H12A    6   3.791   4.248   7.093  0.1522  2.0504  1.3209
    1SAPS   C13    7   3.668   4.406   7.044 -0.6357 -0.1697  0.6234
    1SAPS  O13A    8   3.672   4.529   7.031  0.4341 -0.2680  0.0662
    1SAPS  O13B    9   3.570   4.356   7.111  0.6995  0.0318  0.2685
    1SAPS   C11   10   3.767   4.255   6.873 -0.4208  0.1504  0.4376
    1SAPS  H11A   11   3.757   4.325   6.787 -0.6327 -0.8156 -0.3390
    1SAPS  H11B   12   3.670   4.203   6.889  0.1759 -1.2699 -0.3829
    1SAPS     P   13   3.879   4.017   6.882  0.5147  0.1180 -0.1576
    1SAPS   O13   14   4.011   3.968   6.841  0.7487  0.1933 -0.4465
    1SAPS   O14   15   3.841   4.002   7.023  0.1707 -0.1530 -0.0782
    1SAPS   O12   16   3.876   4.168   6.840  0.2805 -0.1244 -0.3666
    1SAPS   O11   17   3.777   3.940   6.780 -0.3036 -0.1881 -0.0209
    1SAPS    C1   18   3.779   3.973   6.646  1.0613  0.1144  0.0499
    1SAPS    HA   19   3.874   4.022   6.613  0.0329  2.2377  0.0909
    1SAPS    HB   20   3.762   3.880   6.588 -1.8178 -0.1575  1.2047
    1SAPS    C2   21   3.665   4.071   6.601 -0.5208  0.1184 -0.0930
    1SAPS    HS   22   3.699   4.169   6.640 -1.8928  0.1089  1.2059
    1SAPS   O21   23   3.540   4.028   6.653  0.9415 -0.5792  0.6040
    1SAPS   C21   24   3.432   4.102   6.622  0.5723 -0.1592  0.0058
    1SAPS   O22   25   3.435   4.224   6.593 -0.1791 -0.0716 -0.0440
    1SAPS   C22   26   3.305   4.016   6.620 -0.0710  0.4269 -0.1674
    1SAPS   H2R   27   3.334   3.908   6.621  2.9513  1.1256 -0.4185
    1SAPS   H2S   28   3.246   4.043   6.710  2.2243  1.9728  0.9798
    1SAPS    C3   29   3.668   4.093   6.451  0.0019  0.1635  0.0102
    1SAPS    HX   30   3.770   4.121   6.416 -1.0518  0.2472 -3.3219
    1SAPS    HY   31   3.613   4.185   6.425  0.8191 -0.2266 -3.7046
    1SAPS   O31   32   3.623   3.975   6.379  0.1359  0.2451  0.2536
    1SAPS   C31   33   3.636   3.987   6.246  0.0177 -0.3458  0.2328
    1SAPS   O32   34   3.680   4.078   6.181 -0.1093  0.3034 -0.0121
    1SAPS   C32   35   3.583   3.864   6.171  0.0757 -0.1965  0.2999
    1SAPS   H2X   36   3.516   3.810   6.241 -0.3377  1.4121  1.1798
    1SAPS   H2Y   37   3.670   3.796   6.158  0.4400  0.2069  0.6471
    1SAPS   C23   38   3.233   4.041   6.490 -0.5222  0.2072  0.4275
    1SAPS   H3R   39   3.228   4.149   6.464 -2.8352  0.4917  1.7251
    1SAPS   H3S   40   3.125   4.013   6.497 -0.7381  0.8425 -0.1845
    1SAPS   C24   41   3.275   3.949   6.366  0.1216 -0.2435  0.1160
    1SAPS   H4R   42   3.380   3.981   6.348 -0.1541  2.8361  2.8502
    1SAPS   H4S   43   3.220   3.996   6.282 -0.4689 -0.4640  0.3743
    1SAPS   C25   44   3.246   3.808   6.353 -0.8166 -0.0710  0.1545
    1SAPS   H5R   45   3.302   3.745   6.424 -0.7564  0.3232  0.4619
    1SAPS   C26   46   3.147   3.758   6.275 -0.2990  0.5474  0.3209
    1SAPS   H6R   47   3.139   3.648   6.280 -0.7258  0.6103  1.2495
    1SAPS   C27   48   3.063   3.831   6.168  0.2672 -0.5870  0.0795
    1SAPS   H7R   49   3.112   3.923   6.130 -0.5556  0.2904  1.0663
    1SAPS   H7S   50   2.969   3.870   6.213  1.7735  0.2273  2.7374
    1SAPS   C28   51   3.014   3.746   6.055 -0.3652  0.3329  0.4445
    1SAPS   H8R   52   2.936   3.672   6.081 -1.5360  1.6080  0.6943
    1SAPS   C29   53   3.053   3.749   5.929 -0.4335  0.1832 -0.7760
    1SAPS   H9R   54   3.004   3.689   5.851 -3.3731  0.1272  0.9821
    1SAPS  C210   55   3.148   3.858   5.880  0.8595 -0.2709 -0.1456
    1SAPS  H10R   56   3.211   3.814   5.800  0.5980 -0.3493 -0.3110
    1SAPS  H10S   57   3.210   3.883   5.968 -0.9366 -1.7276  1.6338
    1SAPS  C211   58   3.086   3.980   5.818  0.0877 -0.7804  0.2002
    1SAPS  H11R   59   3.081   4.066   5.887 -1.4798 -1.1128  0.5459
    1SAPS  C212   60   3.045   4.000   5.690 -0.1598 -0.7456 -0.7260
    1SAPS  H12R   61   3.016   4.103   5.663  0.5134  0.0232  1.2261
    1SAPS  C213   62   3.059   3.906   5.570  0.2387 -0.3768 -0.5448
    1SAPS  H13R   63   3.159   3.857   5.572 -0.2918 -1.5114  1.5508
    1SAPS  H13S   64   3.054   3.979   5.487  0.9630  1.3878  0.8992
    1SAPS  C214   65   2.950   3.799   5.574 -0.7611 -0.3022  0.5893
    1SAPS  H14R   66   2.912   3.753   5.666  0.6704 -2.8348 -0.0117
    1SAPS  C215   67   2.885   3.751   5.467 -0.1035 -0.5289  0.0916
    1SAPS  H15R   68   2.800   3.682   5.483  0.6677 -1.5812 -0.2570
    1SAPS  C216   69   2.898   3.788   5.326  0.2301 -0.5102 -0.0428
    1SAPS  H16R   70   2.908   3.696   5.266 -0.1774 -0.7419  0.2352
    1SAPS  H16S   71   3.000   3.821   5.296 -1.2744  1.7457 -3.1885
    1SAPS  C217   72   2.790   3.881   5.271 -0.1473 -0.3530  0.1428
    1SAPS  H17R   73   2.833   3.938   5.185 -0.3007 -0.4297  0.0147
    1SAPS  H17S   74   2.761   3.960   5.344 -0.2056 -0.7883  0.5907
    1SAPS  C218   75   2.667   3.802   5.229 -0.1149  0.3334  0.0410
    1SAPS  H18R   76   2.614   3.766   5.319  2.4901  0.4801  1.7558
    1SAPS  H18S   77   2.697   3.708   5.177 -0.7498 -0.1176  0.4788
    1SAPS  C219   78   2.569   3.887   5.152 -0.9131  0.1074 -0.1245
    1SAPS  H19R   79   2.476   3.831   5.129 -1.9521  1.4371  0.6603
    1SAPS  H19S   80   2.620   3.914   5.057 -0.2388  0.1842  0.2549
    1SAPS  C220   81   2.539   4.016   5.228 -0.2261  0.5822  0.3741
    1SAPS  H20R   82   2.525   4.004   5.338  2.1617 -0.9757  0.5907
    1SAPS  H20S   83   2.447   4.049   5.177  1.2980  3.1203 -0.9595
    1SAPS  H20T   84   2.621   4.089   5.212  1.4200 -0.9562  1.3586
    1SAPS   C33   85   3.524   3.877   6.020  0.1921  0.8282 -0.0673
    1SAPS   H3X   86   3.599   3.926   5.955  1.5523 -1.3912 -0.2796
    1SAPS   H3Y   87   3.429   3.934   6.021 -0.4400 -0.1570  1.8339
    1SAPS   C34   88   3.503   3.737   5.962 -0.2365  0.2269 -0.3426
    1SAPS   H4X   89   3.435   3.741   5.874  0.6087  1.6245 -0.9606
    1SAPS   H4Y   90   3.454   3.681   6.045 -0.2377 -0.0339 -0.5200
    1SAPS   C35   91   3.636   3.663   5.909 -0.0437  0.1219 -0.7210
    1SAPS   H5X   92   3.592   3.562   5.895 -1.6730  0.0647  3.2744
    1SAPS   H5Y   93   3.705   3.654   5.996 -0.1980  1.1833 -0.4760
    1SAPS   C36   94   3.706   3.714   5.778 -0.0190 -0.5675  0.4682
    1SAPS   H6X   95   3.718   3.824   5.781  1.2056 -0.4725 -3.1902
    1SAPS   H6Y   96   3.649   3.685   5.687  2.1664 -4.1455  0.0184
    1SAPS   C37   97   3.839   3.645   5.763 -0.3147 -0.4756 -0.0117
    1SAPS   H7X   98   3.823   3.535   5.767  0.0244 -0.4843  2.8984
    1SAPS   H7Y   99   3.901   3.669   5.852 -0.2563  2.9263 -0.8165
    1SAPS   C38  100   3.921   3.673   5.637 -0.3927 -0.8381  0.7798
    1SAPS   H8X  101   4.015   3.618   5.658  0.5966  0.7007  0.5197
    1SAPS   H8Y  102   3.963   3.776   5.630 -0.4954 -0.9000 -2.6774
    1SAPS   C39  103   3.848   3.647   5.506 -0.2011  0.1230 -0.6846
    1SAPS   H9X  104   3.778   3.731   5.486  0.1601  0.3898 -0.8348
    1SAPS   H9Y  105   3.788   3.554   5.504 -3.0406  1.8528 -1.3324
    1SAPS  C310  106   3.944   3.640   5.388 -0.2081  0.1141  0.2502
    1SAPS  H10X  107   4.011   3.552   5.402  0.8873  1.0477  1.0168
    1SAPS  H10Y  108   4.007   3.730   5.400  2.3501 -1.5957  0.4596
    1SAPS  C311  109   3.876   3.653   5.248  0.3275 -0.8603 -0.4500
    1SAPS  H11X  110   3.847   3.760   5.244  0.2338 -0.6510  2.8018
    1SAPS  H11Y  111   3.790   3.582   5.245 -1.5163  1.2767 -1.1091
    1SAPS  C312  112   3.989   3.620   5.148 -0.2299  0.5043  0.1912
    1SAPS  H12X  113   4.018   3.517   5.180  0.9167  1.3012  1.9028
    1SAPS  H12Y  114   4.084   3.676   5.152 -0.3699  0.6763  1.9689
    1SAPS  C313  115   3.946   3.624   5.006 -0.0020  0.1327  0.3460
    1SAPS  H13X  116   3.945   3.731   4.979  0.1589  0.1113  0.2543
    1SAPS  H13Y  117   3.843   3.580   5.004  0.9362 -2.2477  0.8039
    1SAPS  C314  118   4.029   3.523   4.928 -0.9366 -0.0362 -0.1941
    1SAPS  H14X  119   4.027   3.423   4.977 -0.0701 -0.9276 -1.9112
    1SAPS  H14Y  120   4.136   3.554   4.932 -1.0519  0.2629  1.4304
    1SAPS  C315  121   3.979   3.490   4.791  0.3297 -0.0658 -0.8969
    1SAPS  H15X  122   4.061   3.442   4.734  0.4966  0.0515 -0.7604
    1SAPS  H15Y  123   3.951   3.584   4.739 -0.2326 -0.0190 -0.5156
    1SAPS  C316  124   3.859   3.397   4.785 -0.0799  0.2325  0.1783
    1SAPS  H16X  125   3.765   3.455   4.793 -1.6861 -2.2039 -0.0638
    1SAPS  H16Y  126   3.854   3.326   4.870  1.1487  0.4912  0.4908
    1SAPS  C317  127   3.859   3.333   4.643 -0.3719 -0.5206 -0.1169
    1SAPS  H17X  128   3.925   3.243   4.640  0.1134 -0.1595 -0.6416
    1SAPS  H17Y  129   3.891   3.399   4.559 -0.5874  0.0103  0.2130
    1SAPS  C318  130   3.720   3.286   4.609 -0.0816  0.0179  0.1609
    1SAPS  H18X  131   3.675   3.218   4.685 -2.6148 -1.2254 -2.3046
    1SAPS  H18Y  132   3.712   3.236   4.510  2.4204  1.5548 -0.8998
    1SAPS  H18Z  133   3.646   3.368   4.625  0.1771  0.3189 -0.1681
    2SAPS     N  134   4.361   5.918   6.717  0.3645 -0.4497 -0.6212
    2SAPS   HN1  135   4.277   5.967   6.682  0.5789  1.5192  1.4056
    2SAPS   HN2  136   4.427   5.992   6.750  0.7003 -0.1303 -1.9213
    2SAPS   HN3  137   4.405   5.862   6.640  3.1618 -0.5700  0.9135
    2SAPS   C12  138   4.321   5.825   6.828 -1.0776 -0.4894  0.2433
    2SAPS  H12A  139   4.410   5.769   6.856 -0.5306  0.5798  0.7249
    2SAPS   C13  140   4.271   5.894   6.961  0.3036 -0.0393  0.2372
    2SAPS  O13A  141   4.247   6.019   6.953  0.2065  0.0984 -0.2320
    2SAPS  O13B  142   4.262   5.830   7.069 -0.2187 -0.6355 -0.3934
    2SAPS   C11  143   4.217   5.726   6.776  0.2479 -0.6195 -0.3796
    2SAPS  H11A  144   4.132   5.786   6.737 -1.1109  0.2827  3.4851
    2SAPS  H11B  145   4.183   5.671   6.867  1.9716 -2.2992 -0.6761
    2SAPS     P  146   4.193   5.515   6.637 -0.3183  0.0545  0.1291
    2SAPS   O13  147   4.268   5.394   6.668 -0.5502  0.1054  0.5710
    2SAPS   O14  148   4.051   5.517   6.672 -0.5307  0.0437 -0.2251
    2SAPS   O12  149   4.268   5.637   6.686  0.0136 -0.5490 -0.0457
    2SAPS   O11  150   4.201   5.552   6.481 -0.0919  0.2456  0.5635
    2SAPS    C1  151   4.092   5.572   6.389 -0.4198  0.1918  0.4032
    2SAPS    HA  152   4.002   5.606   6.443  0.4129  2.8819  0.2635
    2SAPS    HB  153   4.124   5.655   6.322 -0.5333  0.9219  1.2366
    2SAPS    C2  154   4.056   5.450   6.311  0.1342  0.4564 -0.2514
    2SAPS    HS  155   4.049   5.369   6.387  2.3061  0.1118 -0.3513
    2SAPS   O21  156   4.166   5.426   6.225 -0.4783  0.0214  0.7552
    2SAPS   C21  157   4.150   5.326   6.136  0.2302 -0.2732  0.3991
    2SAPS   O22  158   4.073   5.234   6.152 -0.1832 -0.0016 -0.1767
    2SAPS   C22  159   4.237   5.374   6.020  0.2305  0.7387  0.4367
    2SAPS   H2R  160   4.191   5.470   5.989 -4.2896 -1.0064  0.9529
    2SAPS   H2S  161   4.345   5.384   6.047  0.4714  1.3845 -0.7015
    2SAPS    C3  162   3.919   5.465   6.233  0.2059  0.5390 -0.3687
    2SAPS    HX  163   3.847   5.497   6.311  0.8057 -1.0642  0.8988
    2SAPS    HY  164   3.884   5.367   6.195  1.4213 -0.0912  0.0747
    2SAPS   O31  165   3.934   5.559   6.123 -0.1697  0.0426  0.1191
    2SAPS   C31  166   3.872   5.673   6.137  0.5133  0.0196 -0.4301
    2SAPS   O32  167   3.798   5.708   6.229 -0.0543  0.0677 -0.4661
    2SAPS   C32  168   3.917   5.767   6.021  0.3108 -0.1477 -0.1924
    2SAPS   H2X  169   4.022   5.744   5.992  1.3843  4.0250 -0.3571
    2SAPS   H2Y  170   3.923   5.872   6.057 -0.9442 -1.0604  2.9508
    2SAPS   C23  171   4.213   5.274   5.897 -0.0221 -0.3773 -0.6820
    2SAPS   H3R  172   4.114   5.226   5.886 -1.5055  2.8704 -2.6591
    2SAPS   H3S  173   4.275   5.185   5.923  0.4998 -0.0983 -0.9425
    2SAPS   C24  174   4.259   5.327   5.768  1.0386 -0.2123  0.0646
    2SAPS   H4R  175   4.216   5.424   5.735  2.0579  0.0092 -0.6552
    2SAPS   H4S  176   4.219   5.254   5.695 -0.2286 -1.6079  2.0638
    2SAPS   C25  177   4.414   5.337   5.773  0.6999  0.1031 -0.0080
    2SAPS   H5R  178   4.460   5.381   5.862 -0.2131  1.4371 -0.1671
    2SAPS   C26  179   4.502   5.290   5.679  0.2185  0.1148 -0.0189
    2SAPS   H6R  180   4.608   5.299   5.706 -0.0654  0.9003  0.8926
    2SAPS   C27  181   4.474   5.229   5.549 -0.2913  0.6778  0.4307
    2SAPS   H7R  182   4.423   5.131   5.558  0.3933  0.1889 -0.7434
    2SAPS   H7S  183   4.576   5.204   5.513 -0.2305  0.4304  0.7636
    2SAPS   C28  184   4.401   5.324   5.460  0.5016  0.3313  0.0077
    2SAPS   H8R  185   4.427   5.429   5.478  0.8254 -0.0232  1.7698
    2SAPS   C29  186   4.305   5.290   5.370  0.5076 -0.1754  0.1135
    2SAPS   H9R  187   4.252   5.370   5.316 -1.0707 -1.5085 -0.3968
    2SAPS  C210  188   4.278   5.146   5.334  0.4485  0.0345 -0.7161
    2SAPS  H10R  189   4.262   5.090   5.428 -2.2522  2.3841  0.3772
    2SAPS  H10S  190   4.368   5.103   5.285  2.5469  2.6240  0.6058
    2SAPS  C211  191   4.158   5.128   5.240  0.1843 -0.2794  0.3460
    2SAPS  H11R  192   4.085   5.064   5.292  0.1411 -1.4763 -1.1212
    2SAPS  C212  193   4.147   5.164   5.107  0.8823  0.4560 -0.8207
    2SAPS  H12R  194   4.054   5.147   5.051  0.4875 -0.8690  0.1927
    2SAPS  C213  195   4.261   5.214   5.028 -0.0268 -0.2697  0.2559
    2SAPS  H13R  196   4.240   5.185   4.923 -1.9665 -2.0203  1.0549
    2SAPS  H13S  197   4.355   5.170   5.067  0.5769  2.0765  1.6998
    2SAPS  C214  198   4.284   5.363   5.026  0.1273  0.1651 -0.2650
    2SAPS  H14R  199   4.203   5.429   5.061 -1.8016 -1.9158 -0.6031
    2SAPS  C215  200   4.395   5.436   4.997  0.0860  0.7901  0.1958
    2SAPS  H15R  201   4.379   5.545   4.990  0.0142  0.7044 -1.1113
    2SAPS  C216  202   4.530   5.386   4.947  0.6113 -1.1577 -0.3025
    2SAPS  H16R  203   4.547   5.427   4.845  1.0328 -2.1428 -0.6363
    2SAPS  H16S  204   4.530   5.278   4.924 -0.1753 -0.8212 -2.0116
    2SAPS  C217  205   4.644   5.405   5.039  0.0752  0.8395  0.1979
    2SAPS  H17R  206   4.652   5.510   5.073 -0.4698  0.6076  1.0901
    2SAPS  H17S  207   4.743   5.372   4.999 -0.0859 -0.4645  0.8012
    2SAPS  C218  208   4.636   5.312   5.166 -0.1039  0.1991  0.7034
    2SAPS  H18R  209   4.656   5.208   5.133  0.1794  0.7001 -0.8132
    2SAPS  H18S  210   4.535   5.322   5.210 -0.0781 -2.7962  1.6338
    2SAPS  C219  211   4.736   5.351   5.275  0.4450 -0.4036  0.0555
    2SAPS  H19R  212   4.697   5.308   5.369  1.9313  2.1053  1.9587
    2SAPS  H19S  213   4.736   5.461   5.289 -2.6885 -0.5685  2.3323
    2SAPS  C220  214   4.878   5.300   5.247  0.8537 -0.2764 -0.4934
    2SAPS  H20R  215   4.901   5.319   5.140  0.4413 -2.6067 -1.0383
    2SAPS  H20S  216   4.891   5.190   5.257  3.2354 -0.0842 -0.8023
    2SAPS  H20T  217   4.961   5.345   5.306  3.0891 -2.5876 -1.6770
    2SAPS   C33  218   3.826   5.765   5.894 -0.3882  0.5411  0.1911
    2SAPS   H3X  219   3.773   5.862   5.901 -0.7658  0.3074  0.6068
    2SAPS   H3Y  220   3.741   5.693   5.897 -1.8501  2.2107  0.3217
    2SAPS   C34  221   3.893   5.756   5.753 -0.1061 -0.0557 -0.9214
    2SAPS   H4X  222   3.813   5.742   5.677 -2.1682  1.3780  0.8390
    2SAPS   H4Y  223   3.968   5.674   5.752 -0.7571 -0.6599 -1.1734
    2SAPS   C35  224   3.972   5.882   5.723  0.8695 -0.0112 -0.0625
    2SAPS   H5X  225   4.046   5.894   5.805 -1.3151 -0.9544  2.1700
    2SAPS   H5Y  226   3.905   5.971   5.724  0.8440 -0.0149  1.6492
    2SAPS   C36  227   4.041   5.885   5.582 -0.4477  0.1312 -0.2912
    2SAPS   H6X  228   4.118   5.806   5.580 -0.1087  0.3250  2.0998
    2SAPS   H6Y  229   4.089   5.985   5.577  0.5934 -0.3017  0.6253
    2SAPS   C37  230   3.943   5.859   5.465 -0.4023  0.1298  0.0369
    2SAPS   H7X  231   3.867   5.940   5.468  0.2030  0.7007  0.2756
    2SAPS   H7Y  232   3.887   5.764   5.477 -0.4992  0.5202  4.9810
    2SAPS   C38  233   4.001   5.872   5.325  0.2351 -0.1006  0.1230
    2SAPS   H8X  234   4.072   5.957   5.322  1.5915 -1.2070 -1.8798
    2SAPS   H8Y  235   3.923   5.903   5.252  0.0333  0.1420  0.4403
    2SAPS   C39  236   4.083   5.749   5.273  1.0981  0.2574  0.0492
    2SAPS   H9X  237   4.008   5.667   5.263  1.8751 -0.8539  2.5137
    2SAPS   H9Y  238   4.156   5.721   5.353  0.9730  2.1704  0.8982
    2SAPS  C310  239   4.153   5.779   5.140  0.1410 -0.4528  0.1971
    2SAPS  H10X  240   4.244   5.716   5.132  0.7599  0.5083 -0.5978
    2SAPS  H10Y  241   4.187   5.884   5.152  0.2558 -0.5586  0.8299
    2SAPS  C311  242   4.058   5.752   5.021 -0.1106 -0.7976 -0.4275
    2SAPS  H11X  243   3.978   5.829   5.024  0.8504  0.2062  2.7383
    2SAPS  H11Y  244   4.020   5.647   5.022 -0.7303 -0.5800  0.0454
    2SAPS  C312  245   4.122   5.760   4.888 -0.1396 -0.1616  0.1836
    2SAPS  H12X  246   4.220   5.709   4.901 -0.4380 -0.6492  0.5627
    2SAPS  H12Y  247   4.138   5.865   4.855 -0.6417 -0.1312  0.0390
    2SAPS  C313  248   4.035   5.677   4.788 -0.4281 -0.1924  0.0719
    2SAPS  H13X  249   3.925   5.694   4.790 -0.6065 -1.1831 -0.5413
    2SAPS  H13Y  250   4.054   5.568   4.797  1.0866 -0.0016 -0.4148
    2SAPS  C314  251   4.086   5.686   4.639 -0.7521  0.2895  0.2054
    2SAPS  H14X  252   4.194   5.661   4.639 -0.8103 -0.0237  1.2997
    2SAPS  H14Y  253   4.077   5.796   4.626  0.2715  0.7492  2.7350
    2SAPS  C315  254   4.009   5.599   4.544 -0.9609 -0.2865 -0.0887
    2SAPS  H15X  255   3.898   5.608   4.544 -0.9379  0.5800 -2.1309
    2SAPS  H15Y  256   4.041   5.493   4.554  0.9405  0.2208 -0.5368
    2SAPS  C316  257   4.048   5.635   4.397 -0.4852 -0.3107 -0.1101
    2SAPS  H16X  258   4.159   5.633   4.392 -0.4730 -1.9186  0.5178
    2SAPS  H16Y  259   4.012   5.738   4.375  1.4244 -0.1496 -3.0201
    2SAPS  C317  260   3.988   5.540   4.285  0.2781  0.2199  0.1652
    2SAPS  H17X  261   3.878   5.533   4.296  0.3361 -3.8648 -0.4664
    2SAPS  H17Y  262   4.022   5.434   4.288  0.2387  0.2183  0.4865
    2SAPS  C318  263   4.029   5.577   4.138 -0.4005 -1.2520 -0.8439
    2SAPS  H18X  264   4.138   5.599   4.125  0.0060 -3.1865 -1.0867
    2SAPS  H18Y  265   3.994   5.675   4.099  3.0647 -0.1161 -1.5165
    2SAPS  H18Z  266   4.001   5.504   4.059  4.6221 -1.3411 -2.9551
    3SAPS     N  267   4.021   4.911   6.684 -0.1648 -0.3442 -0.4767
    3SAPS   HN1  268   4.125   4.910   6.683 -0.0367 -2.4278  2.5879
    3SAPS   HN2  269   3.980   4.979   6.617  1.9681  2.0477  0.4882
    3SAPS   HN3  270   4.007   4.957   6.776  0.4910  0.3286 -0.6994
    3SAPS   C12  271   3.958   4.772   6.685  0.1385 -0.0147  0.0934
    3SAPS  H12A  272   3.984   4.712   6.599  1.0601  0.8711 -0.2674
    3SAPS   C13  273   4.011   4.681   6.804 -0.6369 -0.2438  1.0661
    3SAPS  O13A  274   4.082   4.739   6.894  0.7188 -0.0181 -0.0828
    3SAPS  O13B  275   3.976   4.565   6.824  0.3104  0.2555 -0.1591
    3SAPS   C11  276   3.805   4.782   6.711 -0.4631 -0.1447  0.0848
    3SAPS  H11A  277   3.789   4.821   6.814  0.8589  0.0364  0.2427
    3SAPS  H11B  278   3.764   4.680   6.703 -0.5848  0.0602 -3.1828
    3SAPS     P  279   3.646   4.807   6.516  0.1509 -0.1593  0.5231
    3SAPS   O13  280   3.535   4.733   6.580  0.1688  0.5243 -0.1325
    3SAPS   O14  281   3.599   4.917   6.425 -0.0141 -0.7518 -0.2772
    3SAPS   O12  282   3.750   4.876   6.619 -0.2974  0.0824  0.6752
    3SAPS   O11  283   3.736   4.711   6.439  0.2676 -0.2213 -0.0385
    3SAPS    C1  284   3.831   4.750   6.338  0.0790  0.0830  0.3446
    3SAPS    HA  285   3.866   4.855   6.335 -1.1169  0.4780 -1.5190
    3SAPS    HB  286   3.924   4.689   6.338 -0.4890 -0.8044  0.4852
    3SAPS    C2  287   3.758   4.735   6.199  0.9245  0.1271  0.1943
    3SAPS    HS  288   3.664   4.795   6.203 -0.1866 -1.5423  0.2656
    3SAPS   O21  289   3.731   4.593   6.177 -0.8802 -0.2600  0.2055
    3SAPS   C21  290   3.619   4.572   6.105 -0.4926  0.3907 -0.1496
    3SAPS   O22  291   3.537   4.651   6.070 -0.3392 -0.2139  0.2812
    3SAPS   C22  292   3.619   4.424   6.069 -0.3699  0.2539  0.6151
    3SAPS   H2R  293   3.707   4.406   6.002 -1.1183  0.0146 -0.3188
    3SAPS   H2S  294   3.629   4.364   6.162 -2.3988 -0.9662  0.1069
    3SAPS    C3  295   3.841   4.802   6.082  0.2080 -0.5293 -0.2560
    3SAPS    HX  296   3.927   4.735   6.062  0.9432  0.5061 -0.6811
    3SAPS    HY  297   3.881   4.903   6.107  1.1660 -0.2607 -2.6156
    3SAPS   O31  298   3.778   4.810   5.962  0.0262  0.1160 -0.3319
    3SAPS   C31  299   3.686   4.911   5.951 -0.3565  0.1198 -0.1023
    3SAPS   O32  300   3.657   4.983   6.046  0.0804  0.3161  0.4242
    3SAPS   C32  301   3.620   4.916   5.808 -0.6403 -0.0099  0.0644
    3SAPS   H2X  302   3.570   4.817   5.797 -1.0454  0.1738  0.2432
    3SAPS   H2Y  303   3.701   4.934   5.735 -1.0591 -1.2049 -0.7264
    3SAPS   C23  304   3.484   4.389   5.998 -0.3232  0.1826  0.4497
    3SAPS   H3R  305   3.467   4.461   5.914 -0.6340  0.1406  0.4752
    3SAPS   H3S  306   3.413   4.418   6.079  0.1413  1.3484  0.4611
    3SAPS   C24  307   3.457   4.243   5.964 -0.8151 -0.1151 -0.0039
    3SAPS   H4R  308   3.370   4.235   5.895 -0.6576 -0.6059 -0.1558
    3SAPS   H4S  309   3.449   4.174   6.051  1.0355 -0.5635 -0.1518
    3SAPS   C25  310   3.586   4.199   5.895 -0.2016 -0.5757  0.1064
    3SAPS   H5R  311   3.670   4.194   5.967  0.8188 -1.4128 -1.1004
    3SAPS   C26  312   3.612   4.157   5.772 -0.4927  0.8097  0.3856
    3SAPS   H6R  313   3.713   4.129   5.740 -1.1807  0.5762 -1.7275
    3SAPS   C27  314   3.505   4.126   5.669  0.4029  0.4382  0.5639
    3SAPS   H7R  315   3.513   4.200   5.586 -1.5634 -2.2578 -2.2793
    3SAPS   H7S  316   3.405   4.142   5.714 -0.3267  0.6465 -1.0441
    3SAPS   C28  317   3.499   3.982   5.605  0.0282  0.5611  0.7754
    3SAPS   H8R  318   3.467   3.905   5.676  1.8659  1.6921  2.9456
    3SAPS   C29  319   3.565   3.949   5.488  0.6800 -0.3054 -0.2708
    3SAPS   H9R  320   3.562   3.844   5.454 -0.5078 -0.5453  0.4873
    3SAPS  C210  321   3.629   4.054   5.394  0.0933 -0.3695 -0.2061
    3SAPS  H10R  322   3.728   4.012   5.365 -0.5521 -1.3298 -1.0972
    3SAPS  H10S  323   3.643   4.154   5.440 -0.8351  0.4923 -1.7245
    3SAPS  C211  324   3.549   4.067   5.264 -1.0286 -0.2940 -0.0942
    3SAPS  H11R  325   3.487   3.980   5.236 -1.1306 -0.3396  0.2692
    3SAPS  C212  326   3.543   4.168   5.178 -0.6027 -0.0670  0.1451
    3SAPS  H12R  327   3.477   4.167   5.091  0.5188 -2.1629 -0.7679
    3SAPS  C213  328   3.624   4.297   5.201 -0.0293 -0.4162  0.7955
    3SAPS  H13R  329   3.717   4.299   5.141 -1.3427  0.3329 -1.3008
    3SAPS  H13S  330   3.660   4.320   5.304 -0.2559  0.0372  0.7780
    3SAPS  C214  331   3.544   4.420   5.182 -0.1211  0.4525 -0.6777
    3SAPS  H14R  332   3.472   4.442   5.262  1.5504  0.4587  0.8890
    3SAPS  C215  333   3.556   4.523   5.100 -0.0934  0.1418 -0.3584
    3SAPS  H15R  334   3.486   4.607   5.110 -1.1285 -0.7146 -0.1668
    3SAPS  C216  335   3.664   4.543   4.988 -0.3023  0.1665 -0.0669
    3SAPS  H16R  336   3.735   4.458   4.998 -0.3877  0.2383  1.3302
    3SAPS  H16S  337   3.715   4.641   4.999 -1.6835  1.2152 -2.1749
    3SAPS  C217  338   3.606   4.543   4.844  0.8475  0.3899 -0.4089
    3SAPS  H17R  339   3.500   4.508   4.838  1.0261 -0.1265 -0.5832
    3SAPS  H17S  340   3.670   4.473   4.785 -1.1967 -1.3761 -0.6762
    3SAPS  C218  341   3.598   4.691   4.789 -0.4444  0.1231  0.2442
    3SAPS  H18R  342   3.554   4.695   4.686  0.0617 -0.3281  0.0067
    3SAPS  H18S  343   3.699   4.736   4.778 -0.8998  1.1115 -0.0616
    3SAPS  C219  344   3.500   4.782   4.871 -0.4846 -0.0382  0.5712
    3SAPS  H19R  345   3.418   4.725   4.919 -0.5838  0.1741  0.6579
    3SAPS  H19S  346   3.557   4.819   4.959  3.7109 -1.1540 -1.4287
    3SAPS  C220  347   3.441   4.908   4.798  0.2998  0.2652 -0.2600
    3SAPS  H20R  348   3.509   4.951   4.721  5.0672 -4.2531  0.8539
    3SAPS  H20S  349   3.405   4.988   4.866  1.6388  0.5888  0.0977
    3SAPS  H20T  350   3.355   4.878   4.734 -1.2001  0.9413  1.3529
    3SAPS   C33  351   3.524   5.029   5.790  0.6276  0.5435  0.4370
    3SAPS   H3X  352   3.508   5.063   5.685 -0.9356 -2.9989 -0.6138
    3SAPS   H3Y  353   3.578   5.116   5.833 -0.2665  0.3171  2.0762
    3SAPS   C34  354   3.394   4.996   5.862 -0.2645 -0.0774  0.1441
    3SAPS   H4X  355   3.353   5.094   5.895  2.0831  0.9926  0.0863
    3SAPS   H4Y  356   3.416   4.938   5.955 -1.0177 -0.1990  0.2549
    3SAPS   C35  357   3.297   4.910   5.782  0.0591  0.3425  0.4444
    3SAPS   H5X  358   3.347   4.816   5.752 -0.1388 -0.6753  3.0149
    3SAPS   H5Y  359   3.206   4.887   5.842  0.0250  2.2590  1.2136
    3SAPS   C36  360   3.244   4.992   5.662 -0.1164  0.5680  0.3901
    3SAPS   H6X  361   3.318   5.062   5.619  0.9439  0.3141  1.7253
    3SAPS   H6Y  362   3.171   5.066   5.700  0.3124  1.8725 -1.2338
    3SAPS   C37  363   3.196   4.897   5.552  0.1238 -0.4881  0.0742
    3SAPS   H7X  364   3.124   4.830   5.603  0.2197 -1.4493 -1.0169
    3SAPS   H7Y  365   3.287   4.839   5.524 -0.0952  0.2801 -2.5871
    3SAPS   C38  366   3.137   4.966   5.431 -0.2389 -0.9450  0.0605
    3SAPS   H8X  367   3.201   5.047   5.390 -2.1333  2.1398  2.7255
    3SAPS   H8Y  368   3.045   5.021   5.458 -0.7397 -0.2482 -2.7897
    3SAPS   C39  369   3.121   4.865   5.314 -0.1944 -0.1942 -0.2768
    3SAPS   H9X  370   3.063   4.774   5.341  1.4674 -0.9542  0.9293
    3SAPS   H9Y  371   3.221   4.825   5.289 -0.6140  0.0766 -2.6859
    3SAPS  C310  372   3.049   4.943   5.199  0.1792 -0.3898  0.3676
    3SAPS  H10X  373   3.090   5.044   5.182  0.1300 -0.7539 -2.4169
    3SAPS  H10Y  374   2.938   4.943   5.213 -0.3363 -0.0330 -2.9611
    3SAPS  C311  375   3.064   4.871   5.055 -1.2575  0.4122 -0.3239
    3SAPS  H11X  376   2.992   4.786   5.055 -1.1310  0.3019 -0.5833
    3SAPS  H11Y  377   3.164   4.825   5.035 -1.3018  1.3494 -3.2983
    3SAPS  C312  378   3.024   4.957   4.931  0.3243 -0.5528  0.5155
    3SAPS  H12X  379   3.093   5.042   4.910 -0.7718 -0.0518 -1.2301
    3SAPS  H12Y  380   2.920   4.993   4.945 -0.1434 -1.3722 -0.7770
    3SAPS  C313  381   3.010   4.871   4.809  0.5961  0.0516  0.7656
    3SAPS  H13X  382   2.916   4.812   4.811  1.0924 -0.8619 -0.9270
    3SAPS  H13Y  383   3.101   4.808   4.799  0.0676 -0.7374  0.8076
    3SAPS  C314  384   3.009   4.952   4.676 -0.3105 -0.0365 -0.0203
    3SAPS  H14X  385   3.017   4.887   4.587  0.8589  1.4185 -1.0112
    3SAPS  H14Y  386   3.094   5.023   4.666 -1.0908  0.6049 -3.1692
    3SAPS  C315  387   2.879   5.033   4.663 -0.1647  0.1382  0.5549
    3SAPS  H15X  388   2.873   5.107   4.746  1.2233  2.2915 -1.1750
    3SAPS  H15Y  389   2.790   4.966   4.665  0.0670 -0.3422 -1.8829
    3SAPS  C316  390   2.873   5.107   4.530 -0.0518 -0.3904 -0.2361
    3SAPS  H16X  391   2.880   5.037   4.444 -1.4028 -0.0779 -0.6331
    3SAPS  H16Y  392   2.958   5.176   4.511  0.0461 -0.7565 -1.2058
    3SAPS  C317  393   2.739   5.183   4.504  0.1103  0.4721 -0.2258
    3SAPS  H17X  394   2.742   5.277   4.562 -1.0655  1.2179 -1.3212
    3SAPS  H17Y  395   2.652   5.114   4.515 -0.6278  1.4685  0.3222
    3SAPS  C318  396   2.740   5.234   4.356  0.4384 -0.1789 -0.8427
    3SAPS  H18X  397   2.817   5.312   4.337  4.1469 -3.6294 -1.1657
    3SAPS  H18Y  398   2.639   5.274   4.331 -0.0520 -1.0896 -0.3725
    3SAPS  H18Z  399   2.754   5.153   4.283  2.5381  0.0944 -0.8051
    4SAPS     N  400   1.061   2.642   6.931 -0.3662  0.3165  0.4951
    4SAPS   HN1  401   1.069   2.742   6.903 -2.9359  0.8131  1.2646
    4SAPS   HN2  402   1.093   2.636   7.030  0.3899  0.1202  0.2499
    4SAPS   HN3  403   1.121   2.582   6.870  1.8989  2.2860  0.6062
    4SAPS   C12  404   0.920   2.612   6.905  0.1384 -0.1934 -0.1286
    4SAPS  H12A  405   0.894   2.511   6.934 -2.5563  0.8530  1.5211
    4SAPS   C13  406   0.817   2.699   6.984 -0.1703 -0.5716  0.1254
    4SAPS  O13A  407   0.852   2.793   7.059 -0.9480 -0.1132  0.6806
    4SAPS  O13B  408   0.699   2.663   6.969 -0.5518 -0.2350 -0.5867
    4SAPS   C11  409   0.890   2.639   6.759  0.1091  0.3138  0.0147
    4SAPS  H11A  410   0.899   2.744   6.724 -0.0245 -0.1921 -1.6415
    4SAPS  H11B  411   0.781   2.619   6.747  0.1580  1.0393 -2.2766
    4SAPS     P  412   0.944   2.411   6.636 -0.3294  0.2623  0.0874
    4SAPS   O13  413   1.073   2.338   6.639  0.6998  0.0717  0.0407
    4SAPS   O14  414   0.839   2.362   6.726  0.4458 -0.4293 -0.5517
    4SAPS   O12  415   0.976   2.560   6.677 -0.1855 -0.1543  0.1357
    4SAPS   O11  416   0.891   2.424   6.486 -0.6541  0.6469  0.3628
    4SAPS    C1  417   0.757   2.434   6.455 -0.2319 -0.0111  0.2684
    4SAPS    HA  418   0.697   2.492   6.529 -2.2516 -2.0802  0.3848
    4SAPS    HB  419   0.731   2.476   6.356 -2.2486 -2.2046 -0.2407
    4SAPS    C2  420   0.688   2.299   6.466  0.4120  0.4110  0.3708
    4SAPS    HS  421   0.706   2.246   6.562  3.2716 -1.6105 -1.1260
    4SAPS   O21  422   0.741   2.216   6.358  0.0411 -0.0606  0.2801
    4SAPS   C21  423   0.725   2.089   6.384 -0.2617 -0.1439  0.5998
    4SAPS   O22  424   0.686   2.040   6.483  0.6863  0.2102 -0.4026
    4SAPS   C22  425   0.775   2.009   6.269 -0.7986  0.6611 -0.5723
    4SAPS   H2R  426   0.771   1.904   6.304  0.5207  1.5470  2.5466
    4SAPS   H2S  427   0.730   2.043   6.173 -1.2927  1.1005 -0.1836
    4SAPS    C3  428   0.535   2.323   6.434 -1.0856 -0.5246 -0.0988
    4SAPS    HX  429   0.497   2.395   6.510 -0.3725 -0.5768  0.3192
    4SAPS    HY  430   0.488   2.223   6.441 -1.8228 -0.2751 -1.2349
    4SAPS   O31  431   0.516   2.383   6.306 -0.1979  0.0049  0.6144
    4SAPS   C31  432   0.393   2.362   6.265  0.2540 -0.4180  0.0154
    4SAPS   O32  433   0.302   2.317   6.332 -0.0307  0.0977  0.1438
    4SAPS   C32  434   0.377   2.415   6.125  0.1671 -0.4493  0.4366
    4SAPS   H2X  435   0.470   2.459   6.083 -0.1018 -2.1804 -2.2477
    4SAPS   H2Y  436   0.311   2.503   6.137  0.0291 -0.6075  0.8480
    4SAPS   C23  437   0.931   2.026   6.241  0.2565  0.3289  0.4190
    4SAPS   H3R  438   0.980   1.984   6.332  0.4645  1.5158  0.8760
    4SAPS   H3S  439   0.960   2.133   6.234 -0.1667  0.3775 -0.7208
    4SAPS   C24  440   0.970   1.954   6.114  0.5215 -0.0283 -0.5437
    4SAPS   H4R  441   0.901   1.993   6.036 -1.3152  0.7282  1.3675
    4SAPS   H4S  442   0.938   1.850   6.133 -1.6776  0.8230  0.8420
    4SAPS   C25  443   1.117   1.962   6.092  0.1307 -0.0550 -0.0527
    4SAPS   H5R  444   1.183   1.964   6.180  4.0885 -0.4186 -2.7266
    4SAPS   C26  445   1.183   1.960   5.966 -0.0428  0.1677  0.3585
    4SAPS   H6R  446   1.289   1.991   5.957 -0.5676  1.7256 -0.9185
    4SAPS   C27  447   1.119   1.939   5.827 -0.7683  0.1052 -0.0132
    4SAPS   H7R  448   1.196   1.971   5.754 -1.1296  0.8099 -0.0955
    4SAPS   H7S  449   1.043   2.019   5.813  1.0518  1.5086 -2.6971
    4SAPS   C28  450   1.060   1.801   5.802 -0.6086 -1.1574  0.0986
    4SAPS   H8R  451   1.098   1.718   5.864 -1.0117 -1.1454  0.3614
    4SAPS   C29  452   0.964   1.774   5.707 -0.1622  0.3785 -0.0448
    4SAPS   H9R  453   0.919   1.673   5.711  0.1630  0.1862 -1.0521
    4SAPS  C210  454   0.908   1.883   5.611  0.1861  0.5829 -0.1168
    4SAPS  H10R  455   0.990   1.951   5.578  0.7133 -0.0718 -0.1901
    4SAPS  H10S  456   0.832   1.939   5.669  0.7775  1.1154  0.1477
    4SAPS  C211  457   0.829   1.809   5.498  0.1758  0.5233 -1.2744
    4SAPS  H11R  458   0.766   1.731   5.542 -0.4137  0.3120 -2.4525
    4SAPS  C212  459   0.839   1.821   5.364 -0.1743 -0.7806  0.1662
    4SAPS  H12R  460   0.763   1.769   5.304  0.1537  0.6713 -1.5922
    4SAPS  C213  461   0.927   1.912   5.278  0.1253  0.1028 -0.2580
    4SAPS  H13R  462   1.018   1.858   5.244  0.2096 -0.3964  0.7225
    4SAPS  H13S  463   0.968   1.999   5.334 -3.4515  0.9021  1.3769
    4SAPS  C214  464   0.848   1.953   5.159  0.0776 -0.5791  0.4446
    4SAPS  H14R  465   0.801   2.052   5.154  1.8081  0.2069 -1.5119
    4SAPS  C215  466   0.861   1.890   5.039  0.6306 -0.1697  0.1615
    4SAPS  H15R  467   0.786   1.914   4.962  2.5021  0.4481 -1.5625
    4SAPS  C216  468   0.933   1.757   5.019  0.4546  0.2636  0.1997
    4SAPS  H16R  469   0.873   1.690   4.953  0.4083  1.6692 -1.2488
    4SAPS  H16S  470   0.937   1.704   5.116 -1.2157  1.5958  1.0337
    4SAPS  C217  471   1.076   1.786   4.960 -0.0653  0.0436 -0.0441
    4SAPS  H17R  472   1.137   1.694   4.975 -0.3907 -0.1718 -0.0445
    4SAPS  H17S  473   1.126   1.861   5.024  2.2037  0.4385 -2.0965
    4SAPS  C218  474   1.083   1.827   4.813 -0.1661  1.1662  0.4315
    4SAPS  H18R  475   1.187   1.835   4.775  0.1745  0.8891  1.2686
    4SAPS  H18S  476   1.041   1.929   4.801  0.6996  1.3172 -1.7543
    4SAPS  C219  477   1.010   1.731   4.718 -0.6745 -0.0603  0.1399
    4SAPS  H19R  478   0.907   1.711   4.755 -0.4841 -1.1602  0.0933
    4SAPS  H19S  479   1.063   1.634   4.711 -0.7327  0.0212 -1.9147
    4SAPS  C220  480   1.000   1.785   4.577 -0.1462 -0.4370 -0.2856
    4SAPS  H20R  481   0.942   1.879   4.590 -0.2858 -0.8542  2.9249
    4SAPS  H20S  482   0.951   1.723   4.500  1.2797  0.0643 -1.6406
    4SAPS  H20T  483   1.105   1.799   4.545  0.7289 -3.8759  0.6621
    4SAPS   C33  484   0.323   2.313   6.022 -0.7695  0.1145  0.2275
    4SAPS   H3X  485   0.220   2.279   6.044 -0.9275  0.3873 -0.0805
    4SAPS   H3Y  486   0.378   2.216   6.018  1.0817  1.1601 -1.8236
    4SAPS   C34  487   0.330   2.376   5.878  0.4364  0.0997 -0.6679
    4SAPS   H4X  488   0.429   2.355   5.831  0.5804 -1.0361  0.1065
    4SAPS   H4Y  489   0.320   2.486   5.893  2.7880  0.5376 -1.7088
    4SAPS   C35  490   0.221   2.325   5.784  0.3319 -0.1479 -0.0287
    4SAPS   H5X  491   0.125   2.352   5.833  0.5541  1.0566 -0.2356
    4SAPS   H5Y  492   0.222   2.214   5.771 -0.3810  0.1669 -3.7903
    4SAPS   C36  493   0.232   2.389   5.647  0.0203 -0.1392  0.2150
    4SAPS   H6X  494   0.336   2.389   5.607 -0.4398  0.5367 -1.0495
    4SAPS   H6Y  495   0.214   2.498   5.664  0.8652  0.1344 -0.5594
    4SAPS   C37  496   0.139   2.316   5.548 -0.4238 -0.7417 -0.6819
    4SAPS   H7X  497   0.035   2.346   5.573 -0.5440 -2.9797  1.9948
    4SAPS   H7Y  498   0.155   2.206   5.553  1.3295 -0.5038 -0.2902
    4SAPS   C38  499   0.173   2.361   5.403  0.0475 -0.1889 -0.0297
    4SAPS   H8X  500   0.277   2.328   5.387 -0.7439 -2.3870 -1.0919
    4SAPS   H8Y  501   0.179   2.471   5.398  1.1437 -0.2963 -2.0687
    4SAPS   C39  502   0.083   2.294   5.301 -0.1939 -0.2936  0.0111
    4SAPS   H9X  503  -0.014   2.348   5.297 -0.8053 -1.4009 -0.4068
    4SAPS   H9Y  504   0.059   2.195   5.345  0.3959 -0.1971  0.5693
    4SAPS  C310  505   0.149   2.292   5.164  0.3830 -0.4546 -0.4775
    4SAPS  H10X  506   0.106   2.222   5.089  1.8184 -0.0990 -1.6830
    4SAPS  H10Y  507   0.252   2.251   5.178  1.1333  1.6864  0.7683
    4SAPS  C311  508   0.167   2.427   5.099 -0.3388 -0.2932 -0.2301
    4SAPS  H11X  509   0.238   2.431   5.013  1.6272 -0.8845  1.3027
    4SAPS  H11Y  510   0.212   2.495   5.174 -0.0540  1.4700 -1.9052
    4SAPS  C312  511   0.035   2.494   5.057  0.1257 -0.3690 -0.2726
    4SAPS  H12X  512  -0.037   2.499   5.142 -0.0082  1.9427 -0.4532
    4SAPS  H12Y  513  -0.016   2.442   4.973  2.0560 -1.5125 -0.7804
    4SAPS  C313  514   0.067   2.638   5.007 -0.2403 -0.1423 -0.1902
    4SAPS  H13X  515   0.090   2.708   5.090 -2.9781 -0.3025  0.7866
    4SAPS  H13Y  516  -0.030   2.674   4.967 -0.3105 -0.2934 -0.1546
    4SAPS  C314  517   0.174   2.653   4.893  0.2817 -0.5743  0.4566
    4SAPS  H14X  518   0.282   2.641   4.917  0.8169 -1.2939 -2.0039
    4SAPS  H14Y  519   0.168   2.758   4.856 -0.2060  0.0026  2.0832
    4SAPS  C315  520   0.136   2.575   4.766 -0.2466  0.4777 -0.5877
    4SAPS  H15X  521   0.032   2.601   4.741 -0.3002 -0.4198 -1.3741
    4SAPS  H15Y  522   0.149   2.467   4.789 -2.3038 -0.1212 -1.9993
    4SAPS  C316  523   0.225   2.594   4.640  0.5673 -0.6230  0.0272
    4SAPS  H16X  524   0.215   2.700   4.609  0.3121 -1.0488 -1.4128
    4SAPS  H16Y  525   0.181   2.532   4.560  1.5149 -1.2359 -0.0342
    4SAPS  C317  526   0.372   2.563   4.651 -0.0527 -0.0702  0.1455
    4SAPS  H17X  527   0.382   2.457   4.682  0.4140 -0.3707 -0.9877
    4SAPS  H17Y  528   0.428   2.630   4.720 -0.3844  1.2528 -0.8346
    4SAPS  C318  529   0.434   2.577   4.515 -0.0324  0.1489  0.3984
    4SAPS  H18X  530   0.449   2.686   4.499  1.3577 -0.1831 -0.7485
    4SAPS  H18Y  531   0.367   2.535   4.436 -1.0854  0.2591  1.2097
    4SAPS  H18Z  532   0.530   2.522   4.510  0.8228  1.6093  0.1660
    5SAPS     N  533   4.186   4.140   6.695 -0.2919 -0.3149  0.3474
    5SAPS   HN1  534   4.125   4.224   6.683  1.0936  0.5772 -0.7793
    5SAPS   HN2  535   4.208   4.108   6.599  0.0024 -1.3736  0.7602
    5SAPS   HN3  536   4.131   4.061   6.733  0.2523 -2.0185 -2.1594
    5SAPS   C12  537   4.305   4.154   6.782 -0.6270  0.9411 -0.4265
    5SAPS  H12A  538   4.369   4.227   6.734 -1.7982  0.8804 -2.1816
    5SAPS   C13  539   4.269   4.214   6.923  0.8997 -0.5090  0.5799
    5SAPS  O13A  540   4.160   4.283   6.936  0.2348  0.5062  0.1826
    5SAPS  O13B  541   4.368   4.234   7.002 -0.3111 -0.0858  0.4203
    5SAPS   C11  542   4.364   4.011   6.791  0.0267  0.0595 -0.3383
    5SAPS  H11A  543   4.281   3.956   6.841  0.2383  0.3533  0.3511
    5SAPS  H11B  544   4.453   3.997   6.857  0.7812 -0.1113 -1.3676
    5SAPS     P  545   4.491   3.848   6.626 -0.0311 -0.2511  0.2172
    5SAPS   O13  546   4.625   3.893   6.669  0.1529 -0.0435 -0.0262
    5SAPS   O14  547   4.443   3.720   6.681 -0.2291 -0.2117  0.5989
    5SAPS   O12  548   4.396   3.966   6.658 -0.6344  0.1446  0.0392
    5SAPS   O11  549   4.489   3.832   6.467  0.5026 -0.2539 -0.0378
    5SAPS    C1  550   4.361   3.812   6.402  0.0485 -0.3715  0.0044
    5SAPS    HA  551   4.338   3.704   6.412  1.5036 -0.8013 -1.1091
    5SAPS    HB  552   4.282   3.880   6.443  0.7691 -1.1347  2.9144
    5SAPS    C2  553   4.371   3.836   6.249  0.1335 -1.2134 -0.5814
    5SAPS    HS  554   4.451   3.770   6.211  0.3751 -2.3315  1.7101
    5SAPS   O21  555   4.397   3.974   6.239  0.2956 -0.1483 -0.0423
    5SAPS   C21  556   4.482   4.006   6.139  0.3864  0.7101  0.6061
    5SAPS   O22  557   4.534   3.923   6.070 -0.1073  0.0845 -0.0505
    5SAPS   C22  558   4.471   4.160   6.121 -0.6404 -0.3090  0.1859
    5SAPS   H2R  559   4.375   4.187   6.072 -0.9640 -0.0915  0.9331
    5SAPS   H2S  560   4.473   4.206   6.222 -2.1492 -0.4537  0.3081
    5SAPS    C3  561   4.229   3.814   6.179  0.3104 -0.1708 -0.1661
    5SAPS    HX  562   4.155   3.881   6.227  0.7739  0.5576 -0.4516
    5SAPS    HY  563   4.194   3.712   6.203  2.3360 -0.4849  1.8223
    5SAPS   O31  564   4.222   3.835   6.040  0.4395 -0.2656  1.1338
    5SAPS   C31  565   4.259   3.731   5.960 -0.4051 -0.6255  0.0558
    5SAPS   O32  566   4.291   3.622   6.006  0.0577  0.2925 -0.2436
    5SAPS   C32  567   4.271   3.768   5.811 -0.1034  0.6357  0.5433
    5SAPS   H2X  568   4.363   3.830   5.809  0.3592  0.0042  1.6572
    5SAPS   H2Y  569   4.178   3.821   5.781 -0.3882 -0.8491 -1.4097
    5SAPS   C23  570   4.595   4.205   6.033  0.2508 -0.3052  0.5695
    5SAPS   H3R  571   4.590   4.166   5.929 -1.9042 -2.8059  1.5108
    5SAPS   H3S  572   4.694   4.190   6.081  1.0999  1.1244 -0.6380
    5SAPS   C24  573   4.575   4.357   6.019 -1.0864  0.0736  0.1541
    5SAPS   H4R  574   4.566   4.398   6.122  1.6191 -1.0416  0.9369
    5SAPS   H4S  575   4.474   4.376   5.979 -0.5185  2.0556 -0.4303
    5SAPS   C25  576   4.703   4.417   5.957 -0.0359  0.5783 -0.3704
    5SAPS   H5R  577   4.782   4.434   6.032  0.8021  0.8245 -1.2828
    5SAPS   C26  578   4.724   4.453   5.826 -0.7146 -0.0351 -0.0438
    5SAPS   H6R  579   4.819   4.500   5.795 -0.9615  0.6831  0.2735
    5SAPS   C27  580   4.628   4.420   5.708  0.3336  0.3605 -0.2046
    5SAPS   H7R  581   4.532   4.476   5.717  0.0434 -0.3467  1.4822
    5SAPS   H7S  582   4.599   4.314   5.722 -0.1520  0.5704  0.4478
    5SAPS   C28  583   4.678   4.418   5.573  0.1378 -0.2817 -0.0448
    5SAPS   H8R  584   4.752   4.496   5.550  0.7650 -1.3832 -1.9434
    5SAPS   C29  585   4.660   4.327   5.480 -0.0753  0.0111 -0.2783
    5SAPS   H9R  586   4.692   4.349   5.377  0.4365  0.2347 -0.0753
    5SAPS  C210  587   4.565   4.209   5.484  0.4946  0.1684  0.1266
    5SAPS  H10R  588   4.536   4.192   5.378 -3.0289 -1.3303  1.1811
    5SAPS  H10S  589   4.468   4.239   5.530  0.5493  2.1120 -0.9280
    5SAPS  C211  590   4.607   4.085   5.554 -1.0150 -0.0240 -0.4892
    5SAPS  H11R  591   4.520   4.031   5.593 -1.9582 -2.0915 -4.8011
    5SAPS  C212  592   4.724   4.020   5.573  0.0469  0.0301  0.8146
    5SAPS  H12R  593   4.727   3.935   5.643 -1.8810 -1.8446 -1.1504
    5SAPS  C213  594   4.861   4.041   5.503 -0.2991 -0.2799  0.4189
    5SAPS  H13R  595   4.937   4.026   5.583 -0.6403  1.2456  1.0661
    5SAPS  H13S  596   4.877   4.149   5.481  0.2750  0.0137  2.1232
    5SAPS  C214  597   4.901   3.954   5.389 -0.5018  0.4606 -0.1737
    5SAPS  H14R  598   4.935   3.854   5.418 -1.7586 -0.2154 -0.9602
    5SAPS  C215  599   4.904   3.993   5.261 -0.2116  0.1626  0.6968
    5SAPS  H15R  600   4.919   3.910   5.191 -0.1857  0.2346  0.6170
    5SAPS  C216  601   4.855   4.119   5.201  0.5972 -0.2024 -0.0793
    5SAPS  H16R  602   4.920   4.158   5.121  1.9121 -0.0363  1.0369
    5SAPS  H16S  603   4.851   4.202   5.275  0.8716  0.1907 -0.5012
    5SAPS  C217  604   4.704   4.097   5.165  0.3139 -0.0186  1.1022
    5SAPS  H17R  605   4.646   4.060   5.252  1.2378 -0.9582  1.3393
    5SAPS  H17S  606   4.706   4.015   5.089 -0.1698 -0.5379  1.6406
    5SAPS  C218  607   4.641   4.223   5.104  0.0617 -0.2393 -0.1335
    5SAPS  H18R  608   4.702   4.257   5.018  1.8042 -1.7664  0.4215
    5SAPS  H18S  609   4.645   4.306   5.178 -0.7693 -1.8023  1.7696
    5SAPS  C219  610   4.498   4.203   5.061  0.5086 -0.7849 -0.0915
    5SAPS  H19R  611   4.456   4.302   5.033 -3.7205 -1.8390  1.5933
    5SAPS  H19S  612   4.439   4.169   5.149 -2.0973 -0.0320 -1.4443
    5SAPS  C220  613   4.482   4.107   4.948 -1.4795 -0.5104 -0.1462
    5SAPS  H20R  614   4.533   4.011   4.968  1.2400  0.5042 -1.6556
    5SAPS  H20S  615   4.531   4.158   4.862 -1.4161 -0.7897 -0.2750
    5SAPS  H20T  616   4.378   4.102   4.909 -0.9029  0.2408 -1.9321
    5SAPS   C33  617   4.306   3.653   5.711 -0.2528 -0.0378  0.5560
    5SAPS   H3X  618   4.244   3.560   5.711 -0.2334 -0.0573 -0.1438
    5SAPS   H3Y  619   4.401   3.605   5.745 -0.1924 -1.0519 -0.9000
    5SAPS   C34  620   4.317   3.698   5.559 -0.5941  0.6292  0.2946
    5SAPS   H4X  621   4.374   3.793   5.570 -0.7810  0.6505  1.1613
    5SAPS   H4Y  622   4.215   3.728   5.527 -0.2021  1.3538 -0.3083
    5SAPS   C35  623   4.376   3.587   5.471 -0.2037 -0.4880  0.4611
    5SAPS   H5X  624   4.308   3.499   5.478 -3.1105  1.6893  2.1422
    5SAPS   H5Y  625   4.476   3.549   5.501 -0.1050 -1.6071 -1.1609
    5SAPS   C36  626   4.382   3.626   5.324 -1.0095  0.7577  0.7475
    5SAPS   H6X  627   4.277   3.651   5.299 -0.6177  1.4734 -0.2702
    5SAPS   H6Y  628   4.396   3.527   5.276 -1.2612  0.7686  0.6555
    5SAPS   C37  629   4.486   3.730   5.284 -0.6330 -0.0158  0.0533
    5SAPS   H7X  630   4.569   3.712   5.355 -1.3047  2.0836  1.4927
    5SAPS   H7Y  631   4.459   3.837   5.297 -0.2331 -0.0234  1.0318
    5SAPS   C38  632   4.516   3.729   5.137 -0.4243 -0.2557  0.7761
    5SAPS   H8X  633   4.566   3.634   5.110 -1.7209 -1.6957  3.0964
    5SAPS   H8Y  634   4.583   3.816   5.122 -3.5733  2.4791  1.3373
    5SAPS   C39  635   4.404   3.750   5.033  1.0693 -0.0844 -0.1252
    5SAPS   H9X  636   4.366   3.854   5.039 -0.2303 -0.3610 -2.4113
    5SAPS   H9Y  637   4.318   3.683   5.054  1.1225  0.5081  2.3876
    5SAPS  C310  638   4.441   3.723   4.886  0.1030 -0.4623  0.3659
    5SAPS  H10X  639   4.472   3.617   4.871  3.5598  0.2661  1.3707
    5SAPS  H10Y  640   4.530   3.783   4.860 -0.4073  0.8476  1.5412
    5SAPS  C311  641   4.327   3.773   4.791  0.3671 -0.2176 -0.4981
    5SAPS  H11X  642   4.328   3.884   4.787  1.9550 -0.0762  1.9853
    5SAPS  H11Y  643   4.232   3.758   4.848  2.1160 -0.6127  2.4974
    5SAPS  C312  644   4.324   3.708   4.657 -0.7964  0.2712 -0.1215
    5SAPS  H12X  645   4.301   3.599   4.659 -0.2539  0.1307 -0.8530
    5SAPS  H12Y  646   4.425   3.717   4.611 -0.0595  0.4721  1.4935
    5SAPS  C313  647   4.232   3.776   4.560 -0.1384 -0.2342  0.1814
    5SAPS  H13X  648   4.217   3.882   4.591  0.6091 -0.0034 -0.2092
    5SAPS  H13Y  649   4.133   3.728   4.575 -0.4634 -0.7974 -3.0575
    5SAPS  C314  650   4.267   3.757   4.419 -0.1164  0.2676  0.1554
    5SAPS  H14X  651   4.278   3.647   4.408 -4.0702 -0.4934  1.8337
    5SAPS  H14Y  652   4.367   3.799   4.397  0.1435  0.7625  2.0868
    5SAPS  C315  653   4.172   3.818   4.316  0.3804  0.6247 -0.7669
    5SAPS  H15X  654   4.074   3.769   4.334 -0.6885  3.1172  0.7345
    5SAPS  H15Y  655   4.204   3.787   4.215  0.0511 -1.6152 -0.2436
    5SAPS  C316  656   4.136   3.965   4.321  0.0768 -0.6222 -0.1181
    5SAPS  H16X  657   4.221   4.036   4.324 -0.5469  0.1692 -0.8424
    5SAPS  H16Y  658   4.078   3.980   4.415  1.5048  1.5189  0.4880
    5SAPS  C317  659   4.046   4.002   4.202 -0.1493  0.1123 -0.1556
    5SAPS  H17X  660   3.943   3.961   4.212  0.3092 -0.6322  2.3360
    5SAPS  H17Y  661   4.079   3.959   4.105 -1.7469  0.8188 -1.0448
    5SAPS  C318  662   4.031   4.152   4.191 -0.4707  0.4056  0.2278
    5SAPS  H18X  663   4.124   4.206   4.221 -0.9635  1.9912 -1.0157
    5SAPS  H18Y  664   3.968   4.180   4.278 -0.9695  0.4879 -0.1618
    5SAPS  H18Z  665   3.982   4.196   4.102 -1.4282 -1.3433 -0.1489
    6SAPS     N  666   1.625   3.163   6.653 -0.1719  0.2808 -0.6553
    6SAPS   HN1  667   1.567   3.111   6.585  3.4153 -1.7655 -2.4391
    6SAPS   HN2  668   1.661   3.253   6.617 -3.2963  2.5802  1.4746
    6SAPS   HN3  669   1.700   3.093   6.671  0.9180  1.0091 -2.1648
    6SAPS   C12  670   1.552   3.207   6.775 -0.0929  0.2403  0.0951
    6SAPS  H12A  671   1.544   3.111   6.824  4.2978 -0.7430 -0.7326
    6SAPS   C13  672   1.641   3.297   6.860  0.3138  0.1569 -0.0686
    6SAPS  O13A  673   1.761   3.323   6.826  0.5046 -0.0624 -0.2529
    6SAPS  O13B  674   1.605   3.330   6.976  0.9772 -0.3355  0.0342
    6SAPS   C11  675   1.420   3.269   6.742  0.6194  0.0757 -0.0082
    6SAPS  H11A  676   1.444   3.353   6.673 -0.9582  1.2374  0.7987
    6SAPS  H11B  677   1.370   3.306   6.834  3.2177  1.1181  1.0806
    6SAPS     P  678   1.211   3.241   6.603 -0.0712  0.6341  0.3566
    6SAPS   O13  679   1.120   3.129   6.573  0.0431  0.1457 -0.0167
    6SAPS   O14  680   1.145   3.335   6.694  0.3601 -0.2412 -0.3516
    6SAPS   O12  681   1.334   3.175   6.675 -0.0686 -0.2785  0.0385
    6SAPS   O11  682   1.250   3.300   6.462  0.0047  0.0650  0.2020
    6SAPS    C1  683   1.345   3.237   6.380  0.5190  0.4694  0.2801
    6SAPS    HA  684   1.449   3.274   6.396  0.2015  1.1106  0.9181
    6SAPS    HB  685   1.326   3.128   6.385 -1.7913  0.8659  2.5120
    6SAPS    C2  686   1.336   3.277   6.226  0.8211 -0.0513  0.5389
    6SAPS    HS  687   1.353   3.386   6.214 -1.5127  0.3043  0.0636
    6SAPS   O21  688   1.203   3.237   6.180 -0.4875  0.5567 -0.0709
    6SAPS   C21  689   1.108   3.327   6.194 -0.4341 -0.1313 -0.0296
    6SAPS   O22  690   1.125   3.443   6.237 -0.2154 -0.0525 -0.4124
    6SAPS   C22  691   0.973   3.266   6.169  0.5033 -0.3858  0.0797
    6SAPS   H2R  692   1.002   3.159   6.157  3.0699  0.4295 -1.7902
    6SAPS   H2S  693   0.911   3.289   6.258  1.1742 -0.7214  0.6362
    6SAPS    C3  694   1.440   3.206   6.134  0.3787 -0.1861 -0.1788
    6SAPS    HX  695   1.421   3.097   6.144 -1.2031  0.1301  0.5336
    6SAPS    HY  696   1.544   3.234   6.164  0.5227 -0.6759 -0.2121
    6SAPS   O31  697   1.438   3.248   5.992 -0.1686  0.6501 -0.7173
    6SAPS   C31  698   1.537   3.202   5.920  0.2459 -0.0998  0.6157
    6SAPS   O32  699   1.634   3.141   5.962 -0.4135  0.2215  0.6047
    6SAPS   C32  700   1.501   3.226   5.771 -0.2080  0.0067  0.0398
    6SAPS   H2X  701   1.479   3.331   5.744  0.8594 -0.2914 -2.2553
    6SAPS   H2Y  702   1.417   3.154   5.757 -0.8779  0.7675  0.0835
    6SAPS   C23  703   0.904   3.327   6.041  0.6550 -0.2734  1.0445
    6SAPS   H3R  704   0.932   3.432   6.017  2.6562 -0.8090  0.8115
    6SAPS   H3S  705   0.794   3.318   6.043  0.5190  0.9237  0.2081
    6SAPS   C24  706   0.938   3.241   5.914  0.1951 -0.1244  0.3488
    6SAPS   H4R  707   0.864   3.261   5.833 -1.9630  0.4684  2.3441
    6SAPS   H4S  708   0.919   3.135   5.941  1.1970 -1.0901 -2.4270
    6SAPS   C25  709   1.080   3.248   5.858 -0.4442 -0.2905 -0.5368
    6SAPS   H5R  710   1.149   3.201   5.930 -0.2079 -0.8614 -1.1315
    6SAPS   C26  711   1.125   3.314   5.749  0.0872 -0.1029 -0.2830
    6SAPS   H6R  712   1.228   3.285   5.724  0.6355  0.7664  0.8120
    6SAPS   C27  713   1.048   3.406   5.658  0.0971  0.2035  0.1181
    6SAPS   H7R  714   1.029   3.501   5.713 -3.6211 -0.7567  0.7799
    6SAPS   H7S  715   0.946   3.366   5.640  0.0931 -1.2766  2.8606
    6SAPS   C28  716   1.121   3.428   5.521  0.4927 -0.6925  0.0850
    6SAPS   H8R  717   1.231   3.433   5.530  0.2948  0.9841  2.7767
    6SAPS   C29  718   1.061   3.411   5.402 -0.2303 -0.1534  0.5831
    6SAPS   H9R  719   1.140   3.407   5.326 -0.4159  0.3572  0.3624
    6SAPS  C210  720   0.923   3.382   5.367  0.5737  0.3357 -0.1679
    6SAPS  H10R  721   0.889   3.468   5.306  0.9275 -0.8372 -2.0863
    6SAPS  H10S  722   0.851   3.383   5.451  0.6833 -1.6321 -0.0197
    6SAPS  C211  723   0.904   3.261   5.282  0.4246  0.1322  0.1497
    6SAPS  H11R  724   0.867   3.172   5.336  2.8533 -0.2926  1.2320
    6SAPS  C212  725   0.914   3.263   5.144  0.1780 -0.5614 -0.0624
    6SAPS  H12R  726   0.887   3.171   5.090 -2.7980 -0.5248  1.1641
    6SAPS  C213  727   0.938   3.371   5.040 -0.1421 -0.4129 -0.1068
    6SAPS  H13R  728   0.902   3.467   5.083  1.4763  1.0048 -1.7529
    6SAPS  H13S  729   0.874   3.358   4.950 -0.8435 -0.4808  0.3906
    6SAPS  C214  730   1.076   3.402   4.988 -0.1020 -0.8380 -0.2969
    6SAPS  H14R  731   1.107   3.507   4.995 -0.2651 -0.8045 -0.0333
    6SAPS  C215  732   1.151   3.315   4.919  0.3416 -0.7266 -0.2650
    6SAPS  H15R  733   1.244   3.360   4.882  0.2922 -0.8259 -0.5098
    6SAPS  C216  734   1.125   3.175   4.867  0.1894 -0.4605 -0.3411
    6SAPS  H16R  735   1.024   3.145   4.901 -0.0802  2.2747  1.5859
    6SAPS  H16S  736   1.195   3.092   4.889  0.5984 -0.6767 -2.2307
    6SAPS  C217  737   1.102   3.168   4.716 -0.5907  0.0163  0.5142
    6SAPS  H17R  738   1.079   3.061   4.697 -1.9091  0.5321 -0.9157
    6SAPS  H17S  739   1.195   3.200   4.665 -1.3054  1.0737 -0.1346
    6SAPS  C218  740   0.992   3.246   4.647  0.3425  0.1571 -0.1366
    6SAPS  H18R  741   0.988   3.350   4.685  0.9642  0.1204  0.0437
    6SAPS  H18S  742   0.895   3.198   4.676  1.9991 -1.8762  2.5747
    6SAPS  C219  743   1.015   3.248   4.492  0.0524  0.4790  0.3789
    6SAPS  H19R  744   1.038   3.146   4.454 -1.7886 -0.3808  1.4120
    6SAPS  H19S  745   1.103   3.314   4.480  0.5285 -0.2597 -0.3367
    6SAPS  C220  746   0.896   3.303   4.415 -0.0013  0.7119 -0.4863
    6SAPS  H20R  747   0.927   3.336   4.313  0.5243  1.5851 -0.0474
    6SAPS  H20S  748   0.862   3.398   4.461  1.2629  1.9034 -1.9395
    6SAPS  H20T  749   0.813   3.229   4.421 -0.9721  1.8188  0.2528
    6SAPS   C33  750   1.620   3.190   5.677  0.0942 -0.7858 -0.5816
    6SAPS   H3X  751   1.638   3.080   5.675 -2.8968 -1.4092  1.0195
    6SAPS   H3Y  752   1.713   3.239   5.714 -0.4502  0.9656 -1.4284
    6SAPS   C34  753   1.601   3.241   5.529 -1.0506  0.2975 -0.6879
    6SAPS   H4X  754   1.680   3.196   5.466 -1.4273  1.2715 -1.9147
    6SAPS   H4Y  755   1.612   3.351   5.520 -4.2448  0.7302 -0.6865
    6SAPS   C35  756   1.468   3.202   5.483  0.0640  0.2384 -0.1013
    6SAPS   H5X  757   1.394   3.267   5.534  1.5577  1.3210  0.7504
    6SAPS   H5Y  758   1.449   3.094   5.504 -1.5684  0.4568 -0.2853
    6SAPS   C36  759   1.451   3.236   5.337  0.3100 -0.6879 -0.1582
    6SAPS   H6X  760   1.464   3.345   5.321 -0.5042 -0.1882  2.2574
    6SAPS   H6Y  761   1.341   3.219   5.324 -0.0751 -0.4486  2.3800
    6SAPS   C37  762   1.527   3.163   5.231  0.3968 -0.3164 -0.1751
    6SAPS   H7X  763   1.534   3.054   5.250  0.7678  0.0745  2.3114
    6SAPS   H7Y  764   1.631   3.202   5.235  0.1418  0.4189 -0.4870
    6SAPS   C38  765   1.470   3.193   5.097 -0.0415 -0.4163 -0.1762
    6SAPS   H8X  766   1.460   3.304   5.089  1.0285 -0.3148 -0.3810
    6SAPS   H8Y  767   1.365   3.160   5.085 -0.3050 -0.5242  1.9380
    6SAPS   C39  768   1.552   3.146   4.980 -0.9383 -0.2054  0.4651
    6SAPS   H9X  769   1.569   3.036   4.982 -0.4633 -0.2229 -1.8326
    6SAPS   H9Y  770   1.649   3.201   4.988  0.2962 -2.5005  3.1961
    6SAPS  C310  771   1.489   3.170   4.847  0.6532  0.0921 -0.7934
    6SAPS  H10X  772   1.480   3.279   4.827  0.2856  0.1221 -0.4624
    6SAPS  H10Y  773   1.392   3.116   4.845  1.3442 -1.8060  3.9957
    6SAPS  C311  774   1.577   3.113   4.733  0.2637 -0.2231  0.1621
    6SAPS  H11X  775   1.558   3.004   4.728 -2.5112  0.1733  0.5025
    6SAPS  H11Y  776   1.682   3.138   4.758  0.8754 -1.9292 -0.5360
    6SAPS  C312  777   1.527   3.167   4.596  0.4962 -1.0443  1.1248
    6SAPS  H12X  778   1.496   3.274   4.605 -1.7596 -1.5327  0.0717
    6SAPS  H12Y  779   1.438   3.113   4.557  1.0115 -0.1339 -1.5185
    6SAPS  C313  780   1.629   3.165   4.484  0.0068 -0.4500 -0.0988
    6SAPS  H13X  781   1.708   3.241   4.502  0.4074 -0.7608 -0.5334
    6SAPS  H13Y  782   1.573   3.197   4.393  0.0440  0.7365  0.2731
    6SAPS  C314  783   1.693   3.035   4.452 -0.4479 -0.0360  0.8970
    6SAPS  H14X  784   1.631   2.946   4.477  0.4799 -1.4093 -1.3570
    6SAPS  H14Y  785   1.786   3.007   4.507 -0.3039 -1.5867 -0.0759
    6SAPS  C315  786   1.748   3.035   4.306  0.2005  0.4931 -0.3689
    6SAPS  H15X  787   1.654   3.034   4.247 -1.4290 -0.4456  2.0488
    6SAPS  H15Y  788   1.786   2.931   4.293 -2.0821 -0.3912 -0.4050
    6SAPS  C316  789   1.854   3.137   4.264  0.5856  0.3736  0.3703
    6SAPS  H16X  790   1.943   3.094   4.315 -0.3174 -2.6250 -0.3800
    6SAPS  H16Y  791   1.822   3.234   4.307  0.2853  0.3885  0.1113
    6SAPS  C317  792   1.862   3.143   4.111 -0.5091  0.0122 -0.3084
    6SAPS  H17X  793   1.764   3.137   4.060  0.1480 -0.5896 -1.5326
    6SAPS  H17Y  794   1.911   3.049   4.078 -0.8827 -0.5112  0.5910
    6SAPS  C318  795   1.946   3.251   4.056 -0.2847 -0.0771 -0.1620
    6SAPS  H18X  796   1.912   3.353   4.084  2.9125  1.0479 -0.0209
    6SAPS  H18Y  797   1.947   3.252   3.945 -0.1835 -1.2233 -0.1793
    6SAPS  H18Z  798   2.052   3.247   4.088 -0.3106  2.4186  0.4867
    7SAPS     N  799   2.878   6.171   6.772 -0.3220 -0.0221 -0.5780
    7SAPS   HN1  800   2.899   6.152   6.672  1.5340  1.5518 -0.5381
    7SAPS   HN2  801   2.954   6.123   6.825  0.7121 -1.5821 -3.2550
    7SAPS   HN3  802   2.781   6.141   6.795 -0.6969  1.5140 -0.0837
    7SAPS   C12  803   2.892   6.318   6.804  0.5094  0.5042 -0.1019
    7SAPS  H12A  804   2.864   6.332   6.907  0.3895 -0.7489  0.0499
    7SAPS   C13  805   3.031   6.380   6.790 -0.8999 -0.5335 -0.1640
    7SAPS  O13A  806   3.128   6.315   6.746 -0.3547  0.0561 -0.1103
    7SAPS  O13B  807   3.055   6.495   6.836 -0.3015  0.3257 -0.1848
    7SAPS   C11  808   2.790   6.405   6.730  0.1156  0.2104  0.5267
    7SAPS  H11A  809   2.816   6.409   6.622  2.2509  0.5874  1.0097
    7SAPS  H11B  810   2.787   6.513   6.756  2.2209  0.5376 -0.4138
    7SAPS     P  811   2.530   6.427   6.797 -0.2617  0.0485 -0.1393
    7SAPS   O13  812   2.437   6.320   6.834  0.2489  0.1390  0.0133
    7SAPS   O14  813   2.565   6.522   6.905 -0.3674 -0.7105 -0.1949
    7SAPS   O12  814   2.657   6.347   6.735 -0.3356  0.2430 -0.8349
    7SAPS   O11  815   2.471   6.495   6.678  0.8914  0.0511  0.1859
    7SAPS    C1  816   2.537   6.526   6.555 -0.1714 -0.0596  0.9232
    7SAPS    HA  817   2.639   6.564   6.574 -0.8966  1.2320  2.5648
    7SAPS    HB  818   2.532   6.453   6.471 -1.5736  1.2981 -0.2407
    7SAPS    C2  819   2.461   6.648   6.489 -0.2505  0.0216  0.2765
    7SAPS    HS  820   2.418   6.707   6.573 -1.9836  0.2932 -0.7624
    7SAPS   O21  821   2.366   6.597   6.398  0.0922 -0.2548  0.1062
    7SAPS   C21  822   2.279   6.687   6.354  0.1938  0.6150  0.1607
    7SAPS   O22  823   2.266   6.796   6.404  0.0032  0.4702  0.0020
    7SAPS   C22  824   2.211   6.633   6.227  0.2384  0.0491  0.8314
    7SAPS   H2R  825   2.138   6.708   6.189  3.3130  1.8566 -2.0165
    7SAPS   H2S  826   2.294   6.628   6.153 -1.2058  1.3826 -0.9749
    7SAPS    C3  827   2.564   6.747   6.426 -0.3126  0.1369 -0.7568
    7SAPS    HX  828   2.627   6.797   6.502  0.9392  0.0982 -1.7413
    7SAPS    HY  829   2.501   6.831   6.391  1.4385  1.0096 -1.9397
    7SAPS   O31  830   2.643   6.690   6.321  0.0484  0.0439  0.5078
    7SAPS   C31  831   2.611   6.737   6.195 -0.5098 -0.5005 -0.2637
    7SAPS   O32  832   2.516   6.808   6.173  0.2882  0.3325 -0.2009
    7SAPS   C32  833   2.701   6.656   6.096  0.1529  0.2510 -1.1877
    7SAPS   H2X  834   2.716   6.552   6.131  2.1089  0.8175 -0.2211
    7SAPS   H2Y  835   2.797   6.711   6.110  0.5937 -1.0598  1.4001
    7SAPS   C23  836   2.140   6.496   6.233  0.2989 -0.6706  0.0549
    7SAPS   H3R  837   2.032   6.509   6.254  0.1893 -0.3584 -0.6758
    7SAPS   H3S  838   2.176   6.426   6.312  0.9271 -1.9966 -1.3564
    7SAPS   C24  839   2.167   6.408   6.102  0.1700 -0.5099 -0.2134
    7SAPS   H4R  840   2.151   6.303   6.137  2.7590 -0.0607  2.8538
    7SAPS   H4S  841   2.276   6.415   6.083  0.4485 -0.9458  1.0816
    7SAPS   C25  842   2.091   6.457   5.991 -0.1615  0.2831  0.0211
    7SAPS   H5R  843   1.983   6.443   6.007 -0.2684  1.8943  0.8731
    7SAPS   C26  844   2.134   6.519   5.883 -0.5776 -0.1035  0.5078
    7SAPS   H6R  845   2.062   6.534   5.801  1.7970 -1.1562 -1.9427
    7SAPS   C27  846   2.278   6.558   5.850 -0.7709 -0.1315  0.4084
    7SAPS   H7R  847   2.311   6.506   5.758  2.0600 -1.8902  2.2705
    7SAPS   H7S  848   2.350   6.534   5.931  0.8944  1.7291 -0.4099
    7SAPS   C28  849   2.293   6.706   5.832 -0.3102  0.4827 -0.0183
    7SAPS   H8R  850   2.317   6.761   5.924  0.5688  0.8309 -0.4492
    7SAPS   C29  851   2.306   6.770   5.709  0.1300  0.6308  0.5144
    7SAPS   H9R  852   2.329   6.878   5.710  2.3926  0.2003 -0.2629
    7SAPS  C210  853   2.289   6.704   5.572  0.3034 -0.1098  0.5271
    7SAPS  H10R  854   2.360   6.621   5.554 -1.5290 -1.1650 -2.5921
    7SAPS  H10S  855   2.336   6.776   5.502 -0.3702  1.0537  1.2341
    7SAPS  C211  856   2.145   6.685   5.519 -0.1964 -0.0152  0.1485
    7SAPS  H11R  857   2.082   6.774   5.528  2.5596  1.9621  1.5845
    7SAPS  C212  858   2.094   6.587   5.456 -0.0779  0.2436 -0.7252
    7SAPS  H12R  859   1.986   6.596   5.439 -0.1867  0.1058 -0.1173
    7SAPS  C213  860   2.164   6.458   5.408 -0.0799 -0.0442  0.2199
    7SAPS  H13R  861   2.219   6.409   5.491  0.3490  1.5133  0.8724
    7SAPS  H13S  862   2.233   6.492   5.329  0.5146  0.8567  1.1124
    7SAPS  C214  863   2.056   6.361   5.356 -0.3805  0.3339 -0.8762
    7SAPS  H14R  864   1.974   6.334   5.425  0.7982  2.1246  1.3396
    7SAPS  C215  865   2.057   6.305   5.233  0.3014 -0.5524 -0.9651
    7SAPS  H15R  866   1.988   6.221   5.222  0.0760 -0.3837 -0.8497
    7SAPS  C216  867   2.163   6.311   5.134 -0.3394 -0.1120 -0.0495
    7SAPS  H16R  868   2.258   6.309   5.191 -0.9644 -0.8942  1.0022
    7SAPS  H16S  869   2.168   6.402   5.071  2.2393  0.7204  1.2191
    7SAPS  C217  870   2.166   6.192   5.037 -0.6264  0.0162  0.3905
    7SAPS  H17R  871   2.185   6.092   5.081 -3.0401 -0.1021  1.3211
    7SAPS  H17S  872   2.253   6.201   4.969 -0.9163 -5.3160 -1.1072
    7SAPS  C218  873   2.042   6.200   4.941  0.1207  0.5632 -0.0355
    7SAPS  H18R  874   2.064   6.281   4.869 -0.4946 -0.1058 -1.0058
    7SAPS  H18S  875   1.951   6.227   4.999 -1.2250 -3.5454  0.0914
    7SAPS  C219  876   2.004   6.067   4.865  0.7525 -0.2151 -0.7430
    7SAPS  H19R  877   1.962   5.987   4.930  0.3483  0.0239 -0.7117
    7SAPS  H19S  878   2.090   6.014   4.820  2.7585  1.7800  0.5257
    7SAPS  C220  879   1.909   6.098   4.744  0.1946  0.8386  0.1943
    7SAPS  H20R  880   1.826   6.025   4.733  1.4464 -0.7770  0.9444
    7SAPS  H20S  881   1.963   6.115   4.649 -1.4656  0.0707 -0.9442
    7SAPS  H20T  882   1.864   6.197   4.763 -0.8202  0.3644  0.3309
    7SAPS   C33  883   2.650   6.645   5.952  0.3806  0.0606  0.0348
    7SAPS   H3X  884   2.619   6.746   5.915  2.4288  0.2413 -1.3538
    7SAPS   H3Y  885   2.562   6.579   5.965  1.0643 -0.6541  1.0999
    7SAPS   C34  886   2.760   6.595   5.854 -0.0584 -0.5601 -0.1940
    7SAPS   H4X  887   2.759   6.486   5.830  0.8087 -0.1946 -2.1711
    7SAPS   H4Y  888   2.845   6.600   5.925 -0.4653 -2.0277  0.4406
    7SAPS   C35  889   2.797   6.691   5.738 -0.0514  0.2082 -0.1900
    7SAPS   H5X  890   2.842   6.784   5.781 -1.0999  0.2283  0.9411
    7SAPS   H5Y  891   2.710   6.716   5.674  0.8787  1.8606 -0.8852
    7SAPS   C36  892   2.906   6.647   5.642  0.1553  0.1133  0.6361
    7SAPS   H6X  893   2.868   6.551   5.601 -1.6052 -0.3843  3.1916
    7SAPS   H6Y  894   2.997   6.628   5.704  0.0369 -1.4721  0.3677
    7SAPS   C37  895   2.935   6.745   5.524  0.0908  0.0402 -0.7384
    7SAPS   H7X  896   2.957   6.848   5.558  1.8353  1.0542 -4.3808
    7SAPS   H7Y  897   2.841   6.757   5.465 -1.1560  0.2977  1.2158
    7SAPS   C38  898   3.046   6.708   5.428  0.3792  0.0114  0.7016
    7SAPS   H8X  899   3.026   6.613   5.375  2.5892  0.4616 -1.1163
    7SAPS   H8Y  900   3.146   6.706   5.477  1.0769  0.1495 -0.6646
    7SAPS   C39  901   3.055   6.818   5.313 -0.4957  0.6381 -0.2600
    7SAPS   H9X  902   3.084   6.919   5.350  1.9968 -0.1440  0.0716
    7SAPS   H9Y  903   2.955   6.835   5.267 -1.3139 -0.1703  1.1321
    7SAPS  C310  904   3.154   6.792   5.199 -0.1448  0.6647  0.1358
    7SAPS  H10X  905   3.258   6.776   5.235  0.8091  1.8941 -1.9107
    7SAPS  H10Y  906   3.167   6.863   5.115  0.7506 -1.1937 -1.3684
    7SAPS  C311  907   3.111   6.662   5.121 -0.1871  0.0808  0.5031
    7SAPS  H11X  908   3.092   6.575   5.187 -0.4038 -0.2773 -0.0279
    7SAPS  H11Y  909   3.196   6.631   5.056 -0.9654  1.7642 -1.4369
    7SAPS  C312  910   2.987   6.689   5.039  0.3487  0.2865 -0.2571
    7SAPS  H12X  911   2.964   6.789   4.997  0.6661  0.0555 -0.9943
    7SAPS  H12Y  912   2.906   6.689   5.116 -1.3459 -0.4209 -1.9483
    7SAPS  C313  913   2.946   6.589   4.930 -0.2119 -0.3319 -0.3346
    7SAPS  H13X  914   3.028   6.599   4.855 -1.3259  2.3138 -1.3443
    7SAPS  H13Y  915   2.846   6.618   4.891  0.5607  1.9851 -0.7619
    7SAPS  C314  916   2.927   6.439   4.979 -0.1264  0.4049 -0.1076
    7SAPS  H14X  917   2.838   6.446   5.045 -0.1378  1.3408 -0.2194
    7SAPS  H14Y  918   3.011   6.406   5.045 -2.2185 -1.1745  1.9318
    7SAPS  C315  919   2.906   6.351   4.853  0.3538  0.1864 -0.1817
    7SAPS  H15X  920   2.876   6.250   4.890  1.8950 -0.7740 -1.4018
    7SAPS  H15Y  921   3.004   6.341   4.801  0.0528 -1.7733 -0.4575
    7SAPS  C316  922   2.793   6.396   4.756 -0.1631  0.5626 -0.0509
    7SAPS  H16X  923   2.806   6.502   4.725  0.7799 -0.0001 -1.7233
    7SAPS  H16Y  924   2.691   6.385   4.800 -2.0007  3.6392 -2.9891
    7SAPS  C317  925   2.800   6.322   4.621  0.2665  0.5399 -0.4321
    7SAPS  H17X  926   2.894   6.347   4.568  0.7478 -0.6761 -0.1991
    7SAPS  H17Y  927   2.722   6.365   4.556  2.1076  0.1211 -3.0733
    7SAPS  C318  928   2.802   6.172   4.625 -1.1194  0.6312  0.3571
    7SAPS  H18X  929   2.719   6.116   4.673 -0.2550 -0.4233  0.6549
    7SAPS  H18Y  930   2.891   6.136   4.681 -0.1173  1.4834 -0.6349
    7SAPS  H18Z  931   2.820   6.140   4.520  2.4240  1.7525  0.5037
    8SAPS     N  932   2.775   0.728   6.562  0.4898 -0.0478 -0.6351
    8SAPS   HN1  933   2.784   0.781   6.473 -0.6100  0.6956 -0.3141
    8SAPS   HN2  934   2.839   0.647   6.545  0.5871  0.1186 -1.0711
    8SAPS   HN3  935   2.676   0.699   6.577  0.2414  0.8437 -0.5228
    8SAPS   C12  936   2.847   0.790   6.677  0.4630  0.6198  0.6961
    8SAPS  H12A  937   2.810   0.891   6.686  0.3613  0.7096 -0.5399
    8SAPS   C13  938   2.806   0.718   6.813  0.1822  0.0837 -0.0434
    8SAPS  O13A  939   2.735   0.611   6.824 -0.3586  0.3543 -0.1972
    8SAPS  O13B  940   2.854   0.768   6.914  0.5124 -0.0315 -0.3154
    8SAPS   C11  941   2.997   0.783   6.652 -0.0567 -1.0297  0.4373
    8SAPS  H11A  942   3.029   0.678   6.669  0.9241 -0.9879 -0.9900
    8SAPS  H11B  943   3.032   0.862   6.722 -0.5337  0.3397 -0.8031
    8SAPS     P  944   3.168   0.900   6.497 -0.4474 -0.0985  0.2078
    8SAPS   O13  945   3.144   1.042   6.513 -0.3006 -0.8354 -0.0597
    8SAPS   O14  946   3.274   0.837   6.579  0.3394  0.0187  0.0921
    8SAPS   O12  947   3.033   0.823   6.520 -0.0784 -0.1227  0.3236
    8SAPS   O11  948   3.198   0.878   6.343 -0.0869  0.0252  0.4665
    8SAPS    C1  949   3.101   0.930   6.242  0.8331  0.6401 -0.1413
    8SAPS    HA  950   3.060   0.848   6.178 -0.8936 -0.2731  1.9855
    8SAPS    HB  951   3.009   0.968   6.292  0.4633 -0.4622  0.0480
    8SAPS    C2  952   3.148   1.053   6.169 -0.5108 -0.4756  0.2599
    8SAPS    HS  953   3.146   1.142   6.237 -1.9288  1.0055 -1.5941
    8SAPS   O21  954   3.062   1.065   6.064  0.6538 -0.6656 -0.1793
    8SAPS   C21  955   3.043   1.184   6.001  0.7539  0.0881 -0.3001
    8SAPS   O22  956   3.086   1.289   6.047 -0.0381  0.3580  0.6492
    8SAPS   C22  957   2.961   1.170   5.872  0.6670 -0.0159  0.8446
    8SAPS   H2R  958   3.030   1.218   5.800  1.4965 -1.4338  0.6498
    8SAPS   H2S  959   2.960   1.065   5.837 -0.7187 -0.4444  2.0821
    8SAPS    C3  960   3.294   1.048   6.105 -0.1774 -0.0441 -0.1257
    8SAPS    HX  961   3.361   1.008   6.184  1.9231  0.7704 -1.4299
    8SAPS    HY  962   3.316   1.154   6.078  1.1013 -0.8115 -2.3291
    8SAPS   O31  963   3.293   0.949   5.997 -0.0464  0.2381 -0.2119
    8SAPS   C31  964   3.413   0.921   5.968  0.1439 -0.8151 -0.3543
    8SAPS   O32  965   3.513   0.971   6.021 -0.1740 -0.4895  0.2254
    8SAPS   C32  966   3.417   0.817   5.859  0.9207  0.8147 -0.0477
    8SAPS   H2X  967   3.315   0.791   5.824 -0.2322  0.7245  3.0030
    8SAPS   H2Y  968   3.456   0.724   5.906  0.6020  0.8042  0.2052
    8SAPS   C23  969   2.822   1.236   5.870  0.2524 -0.3399 -0.2255
    8SAPS   H3R  970   2.823   1.332   5.926  0.0388  0.1611 -1.0510
    8SAPS   H3S  971   2.748   1.176   5.927 -0.0152  0.4333  0.2576
    8SAPS   C24  972   2.766   1.248   5.735  0.3902  0.1148 -0.1547
    8SAPS   H4R  973   2.834   1.317   5.681  0.7738  0.5144  0.8058
    8SAPS   H4S  974   2.667   1.299   5.742  0.7492  1.1966 -2.1765
    8SAPS   C25  975   2.747   1.112   5.663  0.0936  0.1266 -0.1256
    8SAPS   H5R  976   2.727   1.025   5.727  1.3361 -1.4702 -1.7925
    8SAPS   C26  977   2.748   1.094   5.532  0.6157 -0.2469  0.3873
    8SAPS   H6R  978   2.755   0.991   5.494 -0.0805 -0.3066  0.4079
    8SAPS   C27  979   2.743   1.195   5.419 -0.5726  0.4124  0.6310
    8SAPS   H7R  980   2.727   1.288   5.477 -0.2057  0.3649  0.8087
    8SAPS   H7S  981   2.661   1.177   5.345  1.0507 -0.0664 -1.1428
    8SAPS   C28  982   2.868   1.228   5.334 -0.4129 -0.0393  0.6371
    8SAPS   H8R  983   2.959   1.250   5.391 -0.2296 -0.3673  0.4722
    8SAPS   C29  984   2.873   1.232   5.195  0.1400 -0.2274  0.0460
    8SAPS   H9R  985   2.971   1.232   5.146  0.4444 -1.0008  0.6308
    8SAPS  C210  986   2.757   1.198   5.113  0.0555  0.1126  0.6576
    8SAPS  H10R  987   2.684   1.278   5.137 -0.3569 -0.4464  1.2932
    8SAPS  H10S  988   2.705   1.106   5.146  0.8643 -1.7226 -2.6536
    8SAPS  C211  989   2.799   1.181   4.965  0.5071 -0.0809  0.8312
    8SAPS  H11R  990   2.820   1.076   4.940  3.1362  0.8044 -1.2429
    8SAPS  C212  991   2.830   1.284   4.886 -0.5406  0.0606 -0.3235
    8SAPS  H12R  992   2.858   1.266   4.781  0.2550 -1.6963  0.1471
    8SAPS  C213  993   2.803   1.432   4.914 -0.1305  0.2586 -0.3688
    8SAPS  H13R  994   2.785   1.451   5.022 -0.6012  0.9893 -0.5683
    8SAPS  H13S  995   2.702   1.458   4.876 -1.1747 -2.1121  0.5595
    8SAPS  C214  996   2.914   1.516   4.859 -0.2715 -0.2704 -0.3862
    8SAPS  H14R  997   3.016   1.504   4.897 -0.9246 -2.2800  0.8883
    8SAPS  C215  998   2.898   1.628   4.781 -0.3520  0.5566 -0.1891
    8SAPS  H15R  999   2.990   1.680   4.750  0.7499 -1.3308 -0.2416
    8SAPS  C216 1000   2.776   1.663   4.701  0.1546 -1.2209  0.2218
    8SAPS  H16R 1001   2.751   1.772   4.701  1.7166 -0.8250  1.2934
    8SAPS  H16S 1002   2.683   1.631   4.751 -2.7341  4.0963 -0.9820
    8SAPS  C217 1003   2.768   1.608   4.549 -0.1388 -0.2799  0.0545
    8SAPS  H17R 1004   2.663   1.577   4.529  0.3890 -0.5471 -2.6367
    8SAPS  H17S 1005   2.819   1.511   4.529 -0.6261 -1.0570  2.2980
    8SAPS  C218 1006   2.806   1.719   4.448 -0.6248  0.0857 -0.4284
    8SAPS  H18R 1007   2.905   1.755   4.486 -1.4624  1.1910  0.8357
    8SAPS  H18S 1008   2.735   1.803   4.465 -1.8433 -1.2423  1.3248
    8SAPS  C219 1009   2.807   1.671   4.302  0.1846 -0.7149  0.1231
    8SAPS  H19R 1010   2.707   1.633   4.271  0.3250 -0.7676 -0.2628
    8SAPS  H19S 1011   2.867   1.578   4.290 -0.3992 -1.5948  3.1036
    8SAPS  C220 1012   2.862   1.776   4.209  0.3834 -0.3572  0.0682
    8SAPS  H20R 1013   2.968   1.793   4.238  0.5431 -0.9192 -0.1664
    8SAPS  H20S 1014   2.824   1.880   4.221  1.6164 -0.1826  3.5514
    8SAPS  H20T 1015   2.853   1.760   4.100 -1.1085  2.3552 -0.2893
    8SAPS   C33 1016   3.519   0.848   5.749 -0.0306 -0.1439 -0.0163
    8SAPS   H3X 1017   3.618   0.874   5.791  0.1193  1.9752 -1.5057
    8SAPS   H3Y 1018   3.481   0.941   5.702  3.1650  1.2501 -0.0594
    8SAPS   C34 1019   3.526   0.739   5.645  0.0288  0.4831 -0.0660
    8SAPS   H4X 1020   3.428   0.688   5.647  0.1332  0.1191 -2.0314
    8SAPS   H4Y 1021   3.604   0.667   5.680  0.9860  1.4019 -0.2476
    8SAPS   C35 1022   3.555   0.788   5.501 -0.0625  0.4643 -0.0908
    8SAPS   H5X 1023   3.665   0.775   5.493  0.2261  1.4278  1.8178
    8SAPS   H5Y 1024   3.543   0.898   5.489  1.6165  0.8834  1.5139
    8SAPS   C36 1025   3.479   0.723   5.385 -0.5866 -0.0626  0.6639
    8SAPS   H6X 1026   3.372   0.752   5.377 -0.8282 -1.3417 -2.0002
    8SAPS   H6Y 1027   3.482   0.614   5.405  2.4092 -0.3698 -0.7842
    8SAPS   C37 1028   3.546   0.750   5.248 -0.0923 -0.2237  0.2821
    8SAPS   H7X 1029   3.643   0.695   5.240  0.4478  0.5019  1.5254
    8SAPS   H7Y 1030   3.567   0.856   5.225  1.2651 -1.0077 -2.7699
    8SAPS   C38 1031   3.456   0.706   5.124 -0.0152 -0.0958 -0.6753
    8SAPS   H8X 1032   3.356   0.753   5.128  0.1511  0.2787 -0.8616
    8SAPS   H8Y 1033   3.438   0.596   5.129  1.0211 -0.3131 -1.2517
    8SAPS   C39 1034   3.524   0.740   4.991  0.0561 -0.1240 -0.9638
    8SAPS   H9X 1035   3.623   0.689   4.995 -0.1146 -0.4068  1.5977
    8SAPS   H9Y 1036   3.539   0.850   4.988 -0.7952 -0.0195 -1.4034
    8SAPS  C310 1037   3.445   0.709   4.858  0.1265  0.7908  0.1636
    8SAPS  H10X 1038   3.340   0.741   4.870  0.0588  0.2694  1.0036
    8SAPS  H10Y 1039   3.437   0.599   4.842 -1.2000  1.1125 -1.8248
    8SAPS  C311 1040   3.497   0.776   4.734  0.0535 -0.5894  0.8580
    8SAPS  H11X 1041   3.445   0.749   4.639 -0.3921  1.9981  0.2914
    8SAPS  H11Y 1042   3.602   0.744   4.716  0.3632  0.1315  1.2991
    8SAPS  C312 1043   3.487   0.925   4.738  0.1138 -0.2895 -0.0235
    8SAPS  H12X 1044   3.528   0.966   4.643 -0.3212  1.1631  0.3929
    8SAPS  H12Y 1045   3.548   0.975   4.815 -2.7308  2.1574  0.8091
    8SAPS  C313 1046   3.348   0.988   4.766 -0.0001  0.1838  0.2925
    8SAPS  H13X 1047   3.363   1.097   4.750 -0.4622  0.2209  0.1036
    8SAPS  H13Y 1048   3.310   0.960   4.866  1.5373 -0.0007  0.8597
    8SAPS  C314 1049   3.249   0.945   4.659  0.3512 -0.2136  0.0839
    8SAPS  H14X 1050   3.216   0.846   4.695  2.9593 -0.6278  1.6069
    8SAPS  H14Y 1051   3.291   0.943   4.556  3.1737 -3.1591  1.1507
    8SAPS  C315 1052   3.117   1.030   4.667  0.4099 -0.1362  0.0062
    8SAPS  H15X 1053   3.140   1.138   4.650 -0.8102 -0.1052 -1.7646
    8SAPS  H15Y 1054   3.080   1.027   4.771 -3.6338 -2.9357 -1.2840
    8SAPS  C316 1055   3.007   0.978   4.581 -0.5956 -0.2331  0.6406
    8SAPS  H16X 1056   2.969   0.898   4.648  2.8950 -2.2984  0.3915
    8SAPS  H16Y 1057   3.049   0.946   4.483  1.5209  2.4104  0.5619
    8SAPS  C317 1058   2.903   1.082   4.547  0.6258  0.2354 -0.2188
    8SAPS  H17X 1059   2.952   1.171   4.503 -0.3176  1.7596  1.6628
    8SAPS  H17Y 1060   2.848   1.107   4.640 -2.6830 -2.2140 -1.3249
    8SAPS  C318 1061   2.790   1.023   4.458 -0.0236  0.4977  0.0203
    8SAPS  H18X 1062   2.785   0.912   4.462  0.4404  0.4204 -1.0356
    8SAPS  H18Y 1063   2.820   1.041   4.352  0.1107  2.2206  0.3169
    8SAPS  H18Z 1064   2.693   1.071   4.483  0.1149  0.4268  0.7128
    9SAPS     N 1065   0.043   3.970   7.390 -0.1503  0.3288  0.0828
    9SAPS   HN1 1066  -0.050   3.924   7.398  0.9574 -1.7188  2.0887
    9SAPS   HN2 1067   0.076   3.998   7.484  0.2396 -2.1365  0.7282
    9SAPS   HN3 1068   0.036   4.058   7.335 -0.5909  1.9689  2.5908
    9SAPS   C12 1069   0.143   3.880   7.329  0.0799 -0.0983  0.6038
    9SAPS  H12A 1070   0.228   3.946   7.331 -1.3996  2.0084 -0.7879
    9SAPS   C13 1071   0.179   3.753   7.406  0.0398  0.5529 -0.0773
    9SAPS  O13A 1072   0.142   3.754   7.530  0.2180  0.4873  0.5867
    9SAPS  O13B 1073   0.278   3.687   7.361  0.2377  0.2851  0.6353
    9SAPS   C11 1074   0.117   3.847   7.180 -0.2069  0.3026  0.0868
    9SAPS  H11A 1075   0.042   3.767   7.163 -1.2172  0.9234  1.4222
    9SAPS  H11B 1076   0.212   3.803   7.141  0.0601  0.6160  0.3711
    9SAPS     P 1077   0.078   3.959   6.945 -0.2815  0.0357  0.3888
    9SAPS   O13 1078  -0.059   3.960   6.896  1.1689  0.2886 -0.0510
    9SAPS   O14 1079   0.146   4.078   6.897 -0.3592  0.0887  0.1420
    9SAPS   O12 1080   0.085   3.959   7.101  0.8054  0.2780 -0.0672
    9SAPS   O11 1081   0.155   3.826   6.903  0.0772 -0.2578  0.2645
    9SAPS    C1 1082   0.295   3.837   6.861  0.3402 -0.3716  0.2297
    9SAPS    HA 1083   0.341   3.936   6.879  0.8622 -0.2978 -1.3263
    9SAPS    HB 1084   0.347   3.758   6.919 -1.2160 -0.4303  1.5898
    9SAPS    C2 1085   0.313   3.800   6.710 -1.1744  0.2070 -0.0966
    9SAPS    HS 1086   0.422   3.790   6.690 -0.4548  3.0097  1.7653
    9SAPS   O21 1087   0.255   3.908   6.633  0.5056 -0.1860 -0.0988
    9SAPS   C21 1088   0.321   4.015   6.627  0.5691  0.1180  0.1169
    9SAPS   O22 1089   0.438   4.033   6.669  0.5067 -0.2483  0.6771
    9SAPS   C22 1090   0.229   4.126   6.567  0.8155  0.0010  0.5723
    9SAPS   H2R 1091   0.185   4.102   6.469 -2.4285  3.3680  0.9884
    9SAPS   H2S 1092   0.144   4.128   6.638 -0.6829 -0.7381 -1.1299
    9SAPS    C3 1093   0.240   3.673   6.669  0.3249 -0.1756  0.0980
    9SAPS    HX 1094   0.131   3.686   6.653  0.4710 -0.7503 -1.5930
    9SAPS    HY 1095   0.242   3.608   6.760 -1.2190  2.9402  2.5230
    9SAPS   O31 1096   0.316   3.598   6.568  0.6046 -0.1660  0.0600
    9SAPS   C31 1097   0.255   3.595   6.442 -0.0053 -0.8130 -0.3175
    9SAPS   O32 1098   0.159   3.659   6.410  0.5102  0.2447  0.0205
    9SAPS   C32 1099   0.335   3.510   6.338 -0.6618 -0.4968  0.2389
    9SAPS   H2X 1100   0.352   3.408   6.379  1.4104  0.1530  1.1282
    9SAPS   H2Y 1101   0.436   3.557   6.333 -0.6337 -0.5284  0.5349
    9SAPS   C23 1102   0.300   4.267   6.560  0.1882  0.6111 -0.3083
    9SAPS   H3R 1103   0.350   4.283   6.658  0.3513 -0.3257 -0.2294
    9SAPS   H3S 1104   0.225   4.348   6.552  0.5389  0.8832 -0.8760
    9SAPS   C24 1105   0.399   4.256   6.441 -0.4457 -0.0243  0.8614
    9SAPS   H4R 1106   0.345   4.225   6.350  0.8831 -0.0198  0.0500
    9SAPS   H4S 1107   0.472   4.175   6.458  1.0718  0.9357 -0.7756
    9SAPS   C25 1108   0.475   4.386   6.440 -0.7741 -0.0560 -0.9362
    9SAPS   H5R 1109   0.521   4.403   6.538 -1.2724 -2.2644 -0.2573
    9SAPS   C26 1110   0.471   4.485   6.353  0.3979  0.2824  0.6372
    9SAPS   H6R 1111   0.543   4.566   6.371  0.0279  0.6990  0.2635
    9SAPS   C27 1112   0.398   4.486   6.222 -0.3570  1.3524 -1.6286
    9SAPS   H7R 1113   0.336   4.395   6.209 -0.7605  1.2772  0.4478
    9SAPS   H7S 1114   0.468   4.494   6.136 -1.2853  1.4960 -2.3888
    9SAPS   C28 1115   0.300   4.599   6.222 -0.5214  0.1771 -0.3112
    9SAPS   H8R 1116   0.234   4.584   6.308 -0.4045 -1.7209 -0.5000
    9SAPS   C29 1117   0.277   4.680   6.115  0.2061  0.3847 -0.6094
    9SAPS   H9R 1118   0.184   4.740   6.116 -0.0059  0.0570  0.9206
    9SAPS  C210 1119   0.349   4.689   5.984 -0.2314  0.6550  0.6395
    9SAPS  H10R 1120   0.450   4.644   5.992 -0.3677  0.0845 -0.7149
    9SAPS  H10S 1121   0.362   4.796   5.958  2.2195  0.5497  1.1810
    9SAPS  C211 1122   0.272   4.609   5.884  0.3758  0.2018  0.0821
    9SAPS  H11R 1123   0.230   4.516   5.925  1.2108  0.1434  0.8237
    9SAPS  C212 1124   0.250   4.638   5.752  0.3782  0.0508  0.5114
    9SAPS  H12R 1125   0.194   4.569   5.686  1.4014  1.3673 -1.8340
    9SAPS  C213 1126   0.320   4.760   5.689 -0.0582 -0.2384  0.5977
    9SAPS  H13R 1127   0.404   4.798   5.751 -0.2175  1.7264 -0.3196
    9SAPS  H13S 1128   0.251   4.847   5.680 -0.3438 -0.0740  3.2817
    9SAPS  C214 1129   0.385   4.741   5.552  0.0454 -0.0729  0.1157
    9SAPS  H14R 1130   0.494   4.729   5.558 -0.2401 -2.8946  1.8171
    9SAPS  C215 1131   0.324   4.737   5.429 -0.6843 -0.1454 -0.4001
    9SAPS  H15R 1132   0.382   4.712   5.339 -1.7386 -0.3020 -1.0433
    9SAPS  C216 1133   0.181   4.744   5.399  0.0483 -0.2455  0.3962
    9SAPS  H16R 1134   0.135   4.691   5.485 -1.3461 -1.9377 -1.2936
    9SAPS  H16S 1135   0.164   4.676   5.312 -0.4511  0.1653  0.1644
    9SAPS  C217 1136   0.123   4.886   5.376 -0.7399  0.2929  0.3101
    9SAPS  H17R 1137   0.142   4.956   5.461 -2.7411 -1.5683  2.4399
    9SAPS  H17S 1138   0.012   4.883   5.385 -0.6871 -2.8000  0.9866
    9SAPS  C218 1139   0.165   4.957   5.243 -0.4447  0.0143 -0.1230
    9SAPS  H18R 1140   0.275   4.950   5.229 -0.4995 -1.1550 -0.0467
    9SAPS  H18S 1141   0.123   5.060   5.250 -1.4192 -0.1442 -2.5134
    9SAPS  C219 1142   0.103   4.896   5.116 -0.0992  0.3365  0.3698
    9SAPS  H19R 1143   0.006   4.847   5.137 -1.3243  1.3551 -2.4329
    9SAPS  H19S 1144   0.177   4.824   5.077  0.8802  1.6944 -0.3388
    9SAPS  C220 1145   0.081   4.998   5.011 -0.0305 -0.5385  0.7588
    9SAPS  H20R 1146   0.175   5.057   4.998  0.0622 -0.1447  2.8986
    9SAPS  H20S 1147   0.000   5.067   5.043  1.8205  1.5023  1.3031
    9SAPS  H20T 1148   0.076   4.956   4.909  0.8985  2.0551 -0.4628
    9SAPS   C33 1149   0.274   3.516   6.196  0.0272  0.2324  0.0448
    9SAPS   H3X 1150   0.271   3.623   6.168 -2.0477 -0.0227 -0.8775
    9SAPS   H3Y 1151   0.172   3.472   6.194  0.0819  0.1245 -0.4809
    9SAPS   C34 1152   0.363   3.447   6.084 -0.7845  0.0378  0.5692
    9SAPS   H4X 1153   0.304   3.450   5.990 -1.5423  1.8482  1.0486
    9SAPS   H4Y 1154   0.408   3.349   6.108 -1.4915 -0.6460 -0.7891
    9SAPS   C35 1155   0.488   3.534   6.049 -0.0472 -0.3507 -0.0916
    9SAPS   H5X 1156   0.557   3.525   6.136  2.1192 -0.9532 -1.7660
    9SAPS   H5Y 1157   0.458   3.639   6.030  2.1192  0.3197 -0.0986
    9SAPS   C36 1158   0.571   3.493   5.922  0.3915  0.0591  0.0568
    9SAPS   H6X 1159   0.580   3.384   5.944 -3.6235 -0.0107  2.2443
    9SAPS   H6Y 1160   0.670   3.544   5.922  0.7849 -0.5380  2.5121
    9SAPS   C37 1161   0.495   3.516   5.793 -0.3400 -0.8498 -0.6833
    9SAPS   H7X 1162   0.498   3.623   5.764 -0.4153 -1.2901 -2.4734
    9SAPS   H7Y 1163   0.390   3.480   5.791  0.0172 -1.9508 -0.3387
    9SAPS   C38 1164   0.561   3.448   5.673  0.5312  0.1646  1.1401
    9SAPS   H8X 1165   0.552   3.338   5.686 -0.4809  0.2465  1.2749
    9SAPS   H8Y 1166   0.670   3.465   5.668  0.6783 -1.0312 -1.4265
    9SAPS   C39 1167   0.498   3.495   5.539 -0.0793 -0.5654 -0.3203
    9SAPS   H9X 1168   0.491   3.606   5.537  1.0253 -0.4806 -0.2323
    9SAPS   H9Y 1169   0.395   3.456   5.521 -0.5684  1.4551 -2.5200
    9SAPS  C310 1170   0.576   3.460   5.415 -0.4619 -0.1642 -0.3339
    9SAPS  H10X 1171   0.603   3.352   5.414 -1.6561 -0.4803  0.3263
    9SAPS  H10Y 1172   0.667   3.524   5.419 -1.4968  1.2900  2.0800
    9SAPS  C311 1173   0.484   3.476   5.289  0.4566  0.3754  0.3415
    9SAPS  H11X 1174   0.430   3.573   5.294 -2.6508 -1.0069 -2.7023
    9SAPS  H11Y 1175   0.404   3.400   5.304 -0.5153  1.0665 -1.0537
    9SAPS  C312 1176   0.553   3.460   5.160 -0.5373 -0.2680  0.8130
    9SAPS  H12X 1177   0.591   3.356   5.159 -1.6944 -0.7041 -0.0765
    9SAPS  H12Y 1178   0.641   3.529   5.166 -0.2765 -0.6755  1.8819
    9SAPS  C313 1179   0.459   3.479   5.045 -0.0552  0.1418 -0.5370
    9SAPS  H13X 1180   0.407   3.576   5.058 -1.5129 -0.8990  2.1718
    9SAPS  H13Y 1181   0.377   3.404   5.041 -1.7139  1.8155  0.3770
    9SAPS  C314 1182   0.540   3.489   4.914  0.5217 -0.1533  0.5586
    9SAPS  H14X 1183   0.592   3.391   4.906 -0.2913 -0.5465 -0.0492
    9SAPS  H14Y 1184   0.617   3.566   4.933  1.3310 -0.9162  0.4236
    9SAPS  C315 1185   0.449   3.508   4.788  0.3259  0.1088  0.0545
    9SAPS  H15X 1186   0.438   3.617   4.769  2.0893 -0.1178 -2.9822
    9SAPS  H15Y 1187   0.352   3.455   4.796  0.4682 -0.1220  0.2419
    9SAPS  C316 1188   0.509   3.446   4.666  0.5417 -0.5683  0.2142
    9SAPS  H16X 1189   0.545   3.344   4.689 -0.2603 -0.8958  0.0461
    9SAPS  H16Y 1190   0.591   3.511   4.628 -1.2787  1.1911 -0.9440
    9SAPS  C317 1191   0.411   3.440   4.546 -0.0885 -1.0930  0.0513
    9SAPS  H17X 1192   0.369   3.541   4.525  1.6589  0.0033  1.5428
    9SAPS  H17Y 1193   0.330   3.367   4.571 -1.5675  0.3719 -0.2616
    9SAPS  C318 1194   0.465   3.397   4.406  0.7097  0.4896 -0.2067
    9SAPS  H18X 1195   0.512   3.480   4.350  0.6462  0.7682  0.1482
    9SAPS  H18Y 1196   0.374   3.372   4.347 -0.4940  2.9853  0.4420
    9SAPS  H18Z 1197   0.534   3.310   4.409  1.1471  0.8406 -0.0893
   10SAPS     N 1198   2.095   2.798   6.592  0.3817 -0.9929 -0.1813
   10SAPS   HN1 1199   2.131   2.884   6.546 -2.1448  1.3670  1.9007
   10SAPS   HN2 1200   2.122   2.812   6.691  0.4885  4.0232 -0.6612
   10SAPS   HN3 1201   2.138   2.713   6.550  0.0683 -1.1575 -0.1710
   10SAPS   C12 1202   1.946   2.818   6.588 -0.3270  0.7890  0.4112
   10SAPS  H12A 1203   1.909   2.726   6.630  1.3720 -0.3970 -0.5605
   10SAPS   C13 1204   1.897   2.921   6.690  0.3235  0.1630  0.9187
   10SAPS  O13A 1205   1.977   3.002   6.743 -0.5803 -0.1766  0.5419
   10SAPS  O13B 1206   1.776   2.943   6.700 -0.3214 -0.0508 -0.1482
   10SAPS   C11 1207   1.891   2.849   6.440 -0.7242  0.6592 -0.2903
   10SAPS  H11A 1208   1.940   2.777   6.371 -0.9068 -1.9806  2.1591
   10SAPS  H11B 1209   1.920   2.951   6.408 -0.5793  1.1506  1.2926
   10SAPS     P 1210   1.658   2.925   6.356  0.1682  0.1386  0.2733
   10SAPS   O13 1211   1.520   2.883   6.381  0.1951  0.5217  0.1840
   10SAPS   O14 1212   1.697   3.065   6.390  0.5554 -0.0164  0.2053
   10SAPS   O12 1213   1.753   2.829   6.437  0.1279  0.5352  0.5214
   10SAPS   O11 1214   1.708   2.881   6.216 -0.4411 -0.2759 -0.6247
   10SAPS    C1 1215   1.704   2.744   6.165  0.1438  0.1479  0.4134
   10SAPS    HA 1216   1.803   2.698   6.146  0.3371  1.9541 -4.3120
   10SAPS    HB 1217   1.635   2.692   6.234 -1.4301  3.2148  1.3390
   10SAPS    C2 1218   1.630   2.730   6.026  0.5244 -0.4990 -0.6744
   10SAPS    HS 1219   1.605   2.626   5.997  1.6076 -0.1217 -3.1530
   10SAPS   O21 1220   1.700   2.792   5.916  0.3362 -0.2044 -0.4095
   10SAPS   C21 1221   1.802   2.737   5.869 -0.2901 -0.3284 -0.0670
   10SAPS   O22 1222   1.860   2.642   5.922 -0.7505 -0.3721  0.2536
   10SAPS   C22 1223   1.852   2.810   5.746 -0.6492 -0.6204  0.6241
   10SAPS   H2R 1224   1.807   2.909   5.723  1.4215  0.4559  0.9548
   10SAPS   H2S 1225   1.963   2.813   5.754 -0.6538  1.2611  0.4048
   10SAPS    C3 1226   1.485   2.788   6.027 -0.7066 -0.8278  0.1473
   10SAPS    HX 1227   1.492   2.891   6.067 -1.4550 -0.2941 -1.0637
   10SAPS    HY 1228   1.415   2.737   6.097 -0.4827 -3.1655 -1.2190
   10SAPS   O31 1229   1.416   2.775   5.898 -0.0865 -0.3770 -0.0624
   10SAPS   C31 1230   1.312   2.862   5.892 -0.0857 -0.3646  0.5526
   10SAPS   O32 1231   1.270   2.935   5.979 -0.2063  0.2912 -0.3818
   10SAPS   C32 1232   1.255   2.864   5.748 -0.4785 -0.2886 -0.0230
   10SAPS   H2X 1233   1.240   2.758   5.719 -1.5212 -0.0238 -0.4884
   10SAPS   H2Y 1234   1.337   2.911   5.690 -0.3669 -0.8702 -0.3357
   10SAPS   C23 1235   1.836   2.717   5.616  0.1196 -0.0251  0.5541
   10SAPS   H3R 1236   1.863   2.622   5.665  1.8694  0.6980  1.0696
   10SAPS   H3S 1237   1.904   2.755   5.537 -1.1956  0.7121 -0.2769
   10SAPS   C24 1238   1.691   2.705   5.569  0.0301 -0.4046 -0.2979
   10SAPS   H4R 1239   1.673   2.814   5.555  0.9201  0.0607  1.7841
   10SAPS   H4S 1240   1.633   2.656   5.650  1.7089 -1.1636  0.4845
   10SAPS   C25 1241   1.685   2.624   5.438  0.1738  0.1714 -0.3235
   10SAPS   H5R 1242   1.693   2.516   5.457  1.2864  0.6547  2.4086
   10SAPS   C26 1243   1.669   2.662   5.310 -0.3152  0.1428 -0.5918
   10SAPS   H6R 1244   1.676   2.592   5.225  2.0916  0.6879 -0.9126
   10SAPS   C27 1245   1.665   2.805   5.267 -0.3325  0.5720  0.3861
   10SAPS   H7R 1246   1.664   2.867   5.359 -0.3474 -0.7966  1.3408
   10SAPS   H7S 1247   1.566   2.833   5.226 -0.9307 -3.5201 -1.4837
   10SAPS   C28 1248   1.777   2.851   5.172 -0.5461 -0.0866 -0.2550
   10SAPS   H8R 1249   1.858   2.911   5.217 -0.0808 -0.2430 -0.8547
   10SAPS   C29 1250   1.793   2.802   5.045  0.3272 -0.1073 -0.6737
   10SAPS   H9R 1251   1.885   2.832   4.993 -0.0210  1.0037 -0.6827
   10SAPS  C210 1252   1.695   2.717   4.969 -0.1652  0.6572 -0.7090
   10SAPS  H10R 1253   1.680   2.762   4.868  1.6741  1.6482 -0.5825
   10SAPS  H10S 1254   1.595   2.711   5.017  0.1677 -0.2951 -0.1013
   10SAPS  C211 1255   1.745   2.576   4.951  0.6675  0.7806  0.1408
   10SAPS  H11R 1256   1.796   2.532   5.038 -2.1578 -0.3445  1.3498
   10SAPS  C212 1257   1.730   2.515   4.827 -0.7937  0.6171  0.0919
   10SAPS  H12R 1258   1.767   2.414   4.808 -0.5298  0.8248 -0.5215
   10SAPS  C213 1259   1.644   2.560   4.711 -0.4509 -0.2126 -0.5155
   10SAPS  H13R 1260   1.559   2.621   4.748 -0.8343 -1.2342  0.3435
   10SAPS  H13S 1261   1.599   2.468   4.668 -0.5721 -0.9977  1.2098
   10SAPS  C214 1262   1.725   2.633   4.606 -0.0108  0.8000  0.3905
   10SAPS  H14R 1263   1.829   2.657   4.634  0.8718 -2.0812 -0.0472
   10SAPS  C215 1264   1.678   2.673   4.488 -0.5248  0.4078  0.3088
   10SAPS  H15R 1265   1.749   2.728   4.423 -0.7058  1.1657  0.7376
   10SAPS  C216 1266   1.539   2.646   4.437  0.1432  0.2230  0.0550
   10SAPS  H16R 1267   1.485   2.742   4.426 -0.5998 -0.0561  1.1092
   10SAPS  H16S 1268   1.475   2.592   4.510 -1.0703 -0.3158 -1.3640
   10SAPS  C217 1269   1.527   2.552   4.312  0.0229  0.5369  0.2544
   10SAPS  H17R 1270   1.418   2.543   4.293 -0.3225  2.1373  1.2631
   10SAPS  H17S 1271   1.566   2.454   4.345 -0.3357  1.0896  2.5220
   10SAPS  C218 1272   1.604   2.605   4.185 -0.7223 -0.2419 -1.1221
   10SAPS  H18R 1273   1.589   2.536   4.099  1.5499 -1.2091 -0.8133
   10SAPS  H18S 1274   1.712   2.620   4.206 -0.6821 -1.0663 -0.6970
   10SAPS  C219 1275   1.557   2.738   4.143 -0.8802  0.2930  0.1013
   10SAPS  H19R 1276   1.525   2.805   4.226 -5.1500  1.3545 -2.0968
   10SAPS  H19S 1277   1.466   2.718   4.083 -0.5650 -1.3594  0.1267
   10SAPS  C220 1278   1.646   2.816   4.051 -0.8559  0.0397  0.9043
   10SAPS  H20R 1279   1.734   2.855   4.107 -0.3404  0.3225 -0.0760
   10SAPS  H20S 1280   1.599   2.908   4.009 -1.3609 -0.6117  0.0224
   10SAPS  H20T 1281   1.673   2.748   3.968 -0.4940  2.1745 -0.8008
   10SAPS   C33 1282   1.111   2.926   5.722 -0.3906  0.0146  0.5113
   10SAPS   H3X 1283   1.109   2.999   5.806  1.3412 -0.0640  0.6600
   10SAPS   H3Y 1284   1.032   2.853   5.748 -1.9345  1.9788  1.5877
   10SAPS   C34 1285   1.066   2.996   5.589 -0.6996 -0.1756  0.1068
   10SAPS   H4X 1286   1.124   3.089   5.571  0.8620 -0.8689  1.3192
   10SAPS   H4Y 1287   0.961   3.027   5.603 -0.9355 -0.9323  0.0537
   10SAPS   C35 1288   1.090   2.897   5.473  0.2254 -0.2513  0.3033
   10SAPS   H5X 1289   1.034   2.802   5.482  0.9720 -0.9928 -2.0056
   10SAPS   H5Y 1290   1.199   2.876   5.486  0.3139  0.0935  0.1472
   10SAPS   C36 1291   1.067   2.969   5.334  0.2375  0.3826  0.8313
   10SAPS   H6X 1292   1.122   3.064   5.317 -0.0031  0.1682 -1.5113
   10SAPS   H6Y 1293   0.963   3.005   5.340  0.0239  0.4266 -1.8856
   10SAPS   C37 1294   1.087   2.882   5.213 -0.6892  0.0566  0.0194
   10SAPS   H7X 1295   1.033   2.913   5.121 -3.1197 -0.6709  1.1270
   10SAPS   H7Y 1296   1.052   2.778   5.229 -2.9431  0.6027 -0.9537
   10SAPS   C38 1297   1.239   2.865   5.168  0.7063  0.1571 -0.0738
   10SAPS   H8X 1298   1.304   2.882   5.256  0.7770  3.7551 -0.6530
   10SAPS   H8Y 1299   1.260   2.950   5.098 -2.8600 -0.1498 -1.7271
   10SAPS   C39 1300   1.256   2.733   5.099 -0.2217 -0.8147 -0.3130
   10SAPS   H9X 1301   1.207   2.655   5.161 -1.2800 -0.4146 -0.6364
   10SAPS   H9Y 1302   1.367   2.731   5.095 -0.0284  2.2051  1.0257
   10SAPS  C310 1303   1.208   2.741   4.946 -0.6709 -0.1651  0.0290
   10SAPS  H10X 1304   1.243   2.840   4.912 -0.4150  0.0004  0.7419
   10SAPS  H10Y 1305   1.097   2.740   4.946 -0.6844 -0.2232 -1.3559
   10SAPS  C311 1306   1.261   2.633   4.855  0.3715  0.0863 -0.0297
   10SAPS  H11X 1307   1.237   2.533   4.896  1.2594 -0.6246 -1.1682
   10SAPS  H11Y 1308   1.372   2.642   4.846  0.2913  1.1932 -0.0695
   10SAPS  C312 1309   1.209   2.634   4.713  0.6842  0.6593  0.2949
   10SAPS  H12X 1310   1.102   2.605   4.710  0.5379  0.9749  1.6788
   10SAPS  H12Y 1311   1.263   2.566   4.644 -2.3138 -0.4547 -1.1568
   10SAPS  C313 1312   1.226   2.766   4.637 -0.1760 -0.4696 -0.0624
   10SAPS  H13X 1313   1.329   2.800   4.659 -0.8304  1.4105  0.2503
   10SAPS  H13Y 1314   1.159   2.840   4.686 -0.0393  0.2282 -0.9208
   10SAPS  C314 1315   1.205   2.752   4.489  0.6505 -0.0381  0.2725
   10SAPS  H14X 1316   1.111   2.695   4.477  0.6882 -0.0684  0.1265
   10SAPS  H14Y 1317   1.285   2.692   4.442  0.9038 -0.4317  1.1725
   10SAPS  C315 1318   1.188   2.894   4.416  0.2214  0.4108  0.1891
   10SAPS  H15X 1319   1.289   2.939   4.420  0.5289 -0.2551  0.0737
   10SAPS  H15Y 1320   1.113   2.954   4.471 -1.7275 -1.2334 -0.5608
   10SAPS  C316 1321   1.154   2.885   4.267 -0.4666  0.3309  0.1396
   10SAPS  H16X 1322   1.065   2.821   4.249  1.0947 -1.4931 -1.6079
   10SAPS  H16Y 1323   1.236   2.834   4.212  0.0332  0.2302  0.9546
   10SAPS  C317 1324   1.132   3.017   4.186  0.1818  0.4698 -0.2708
   10SAPS  H17X 1325   1.218   3.085   4.205 -0.1472  0.7559  0.2163
   10SAPS  H17Y 1326   1.036   3.040   4.237 -0.1794 -1.1586 -0.1774
   10SAPS  C318 1327   1.110   2.978   4.039 -0.0870 -0.0764 -0.6885
   10SAPS  H18X 1328   1.069   3.065   3.984  2.5381  1.6929 -0.0606
   10SAPS  H18Y 1329   1.031   2.901   4.028 -0.7554  0.1490  1.9387
   10SAPS  H18Z 1330   1.204   2.950   3.986 -0.6633  2.0260 -2.9539
   11SAPS     N 1331   2.787   2.495   1.815 -0.0058  0.1650 -0.2717
   11SAPS   HN1 1332   2.847   2.416   1.849 -0.9890 -1.7193 -2.6504
   11SAPS   HN2 1333   2.733   2.540   1.892 -0.8499  0.9185 -1.2718
   11SAPS   HN3 1334   2.730   2.467   1.733  1.5477  1.3763 -1.8446
   11SAPS   C12 1335   2.889   2.589   1.752  0.9058 -0.7833  0.3248
   11SAPS  H12A 1336   2.939   2.533   1.675 -0.7721 -0.9771 -0.6644
   11SAPS   C13 1337   2.833   2.721   1.693  0.0715  0.6296 -0.7504
   11SAPS  O13A 1338   2.710   2.751   1.703 -0.1750  0.2669 -0.3037
   11SAPS  O13B 1339   2.910   2.769   1.598 -0.3395 -0.6040 -0.5621
   11SAPS   C11 1340   2.995   2.632   1.861  0.4991 -0.5202 -0.4096
   11SAPS  H11A 1341   2.933   2.680   1.940 -1.4198 -0.8475 -1.6635
   11SAPS  H11B 1342   3.067   2.699   1.809 -0.5179  0.8456 -0.1070
   11SAPS     P 1343   3.206   2.515   1.964 -0.1493 -0.0790 -0.3210
   11SAPS   O13 1344   3.253   2.383   2.016 -0.5826 -0.3380 -0.8082
   11SAPS   O14 1345   3.285   2.568   1.848  0.1567 -0.0719 -0.4901
   11SAPS   O12 1346   3.051   2.516   1.928 -0.0413 -0.0566  0.1146
   11SAPS   O11 1347   3.211   2.635   2.076 -0.3890 -0.2200  0.2698
   11SAPS    C1 1348   3.212   2.604   2.212 -0.0058  0.1904 -0.0373
   11SAPS    HA 1349   3.268   2.512   2.239  2.0390  1.9684  2.2706
   11SAPS    HB 1350   3.261   2.691   2.260  0.2753 -0.4233  0.7982
   11SAPS    C2 1351   3.074   2.589   2.285 -0.1512 -1.0352  0.4664
   11SAPS    HS 1352   3.021   2.497   2.251 -0.4856 -0.3171 -1.0647
   11SAPS   O21 1353   2.990   2.710   2.248 -0.2479 -0.1954  0.1494
   11SAPS   C21 1354   2.872   2.704   2.305  0.5401 -0.2177 -0.2407
   11SAPS   O22 1355   2.823   2.621   2.378 -0.0066  0.6824  0.1403
   11SAPS   C22 1356   2.802   2.832   2.265  0.1881 -0.2297 -0.4589
   11SAPS   H2R 1357   2.857   2.925   2.289 -1.1474  0.7554 -1.1304
   11SAPS   H2S 1358   2.806   2.825   2.154  0.8752  2.5569 -0.6714
   11SAPS    C3 1359   3.096   2.567   2.434  0.2344 -0.0685  0.0156
   11SAPS    HX 1360   3.153   2.472   2.441 -1.2017 -0.9553 -0.1061
   11SAPS    HY 1361   3.004   2.543   2.491  0.0471 -0.4051 -0.4212
   11SAPS   O31 1362   3.175   2.685   2.489 -0.3261 -0.3394 -0.0137
   11SAPS   C31 1363   3.243   2.656   2.602  0.0553  0.3761  0.0207
   11SAPS   O32 1364   3.226   2.552   2.669 -0.0190 -1.4025  0.3685
   11SAPS   C32 1365   3.333   2.779   2.645 -0.3485 -0.1315 -0.4755
   11SAPS   H2X 1366   3.302   2.870   2.590  1.5719  0.9423  0.1357
   11SAPS   H2Y 1367   3.438   2.755   2.620 -0.1804 -1.0621  1.0043
   11SAPS   C23 1368   2.662   2.856   2.320 -0.4621  0.8018  0.6851
   11SAPS   H3R 1369   2.653   2.815   2.423  0.1987 -2.9840 -0.6213
   11SAPS   H3S 1370   2.602   2.786   2.258  0.5665  0.3129  0.1995
   11SAPS   C24 1371   2.609   2.998   2.302  0.1932 -0.1229  0.6913
   11SAPS   H4R 1372   2.502   2.979   2.328 -0.0685 -4.6150 -2.5879
   11SAPS   H4S 1373   2.618   3.021   2.193 -0.5360 -0.6241  0.5199
   11SAPS   C25 1374   2.680   3.100   2.392  0.2861 -0.0056 -0.2735
   11SAPS   H5R 1375   2.765   3.137   2.333 -0.0686  0.0469 -0.7588
   11SAPS   C26 1376   2.652   3.153   2.519  0.6302  0.1203  0.1060
   11SAPS   H6R 1377   2.716   3.238   2.547 -0.1523  1.1440 -1.1234
   11SAPS   C27 1378   2.532   3.108   2.607 -0.3961 -0.7372  0.2781
   11SAPS   H7R 1379   2.456   3.072   2.534  0.3118 -1.1307 -0.2834
   11SAPS   H7S 1380   2.488   3.196   2.658  1.4843  0.5856 -0.2679
   11SAPS   C28 1381   2.568   2.997   2.706  0.1930  0.2681 -0.0632
   11SAPS   H8R 1382   2.572   2.899   2.657 -3.4540  0.0944 -0.3276
   11SAPS   C29 1383   2.577   3.006   2.835  0.1633 -0.3912 -0.2701
   11SAPS   H9R 1384   2.599   2.913   2.890 -0.7957 -1.8408 -2.2231
   11SAPS  C210 1385   2.567   3.133   2.915 -0.9542 -0.7237 -0.0398
   11SAPS  H10R 1386   2.460   3.157   2.926 -1.0471 -1.1143 -0.0694
   11SAPS  H10S 1387   2.594   3.217   2.847 -3.7431  0.9736  0.8020
   11SAPS  C211 1388   2.643   3.137   3.050  1.0881 -0.4379 -0.1489
   11SAPS  H11R 1389   2.748   3.168   3.046  1.7091 -2.3750  0.2849
   11SAPS  C212 1390   2.596   3.105   3.177 -0.3565 -0.1800  0.4542
   11SAPS  H12R 1391   2.659   3.136   3.262  1.9210 -0.5607 -1.0059
   11SAPS  C213 1392   2.473   3.042   3.228 -0.5012 -0.5563  0.3431
   11SAPS  H13R 1393   2.392   3.047   3.152  0.4430  0.7970 -0.6288
   11SAPS  H13S 1394   2.443   3.097   3.320  0.8596  1.3753 -0.2973
   11SAPS  C214 1395   2.492   2.896   3.247  0.4824  0.1499 -0.7753
   11SAPS  H14R 1396   2.463   2.829   3.165  2.9097  0.2878 -1.8226
   11SAPS  C215 1397   2.541   2.841   3.358 -0.4296 -0.5703 -0.6243
   11SAPS  H15R 1398   2.563   2.734   3.366 -1.5992 -0.8663 -1.1171
   11SAPS  C216 1399   2.592   2.911   3.485  0.3921  0.1024  0.4108
   11SAPS  H16R 1400   2.569   3.020   3.485  0.1012  0.0553 -0.9465
   11SAPS  H16S 1401   2.703   2.900   3.486  0.4978  0.8107  2.6027
   11SAPS  C217 1402   2.548   2.850   3.619 -0.2385 -0.0990  0.3688
   11SAPS  H17R 1403   2.577   2.744   3.628  3.2350  0.7059  0.1460
   11SAPS  H17S 1404   2.439   2.866   3.634 -0.1915  1.0814 -0.3987
   11SAPS  C218 1405   2.617   2.916   3.745  1.0270 -0.1837  0.0966
   11SAPS  H18R 1406   2.571   3.016   3.737 -3.2352 -2.0216 -1.1123
   11SAPS  H18S 1407   2.728   2.918   3.732  0.8770  0.9216 -1.1285
   11SAPS  C219 1408   2.567   2.868   3.884 -0.1476  0.2849 -0.1637
   11SAPS  H19R 1409   2.581   2.759   3.898 -4.3158 -0.6115 -1.5136
   11SAPS  H19S 1410   2.456   2.872   3.886 -0.1701 -0.4206  0.2893
   11SAPS  C220 1411   2.622   2.953   4.000  0.0094  0.0845  0.1941
   11SAPS  H20R 1412   2.583   2.909   4.094  0.2929 -1.7095 -0.4786
   11SAPS  H20S 1413   2.592   3.058   3.979  0.7548  0.4901  1.0843
   11SAPS  H20T 1414   2.733   2.949   3.998 -0.0077 -0.6719  0.2048
   11SAPS   C33 1415   3.304   2.805   2.797 -0.3153 -0.4381  0.9177
   11SAPS   H3X 1416   3.347   2.721   2.854  1.1263 -0.4613 -0.1490
   11SAPS   H3Y 1417   3.193   2.801   2.803 -0.5833  0.6646 -1.6580
   11SAPS   C34 1418   3.340   2.934   2.857  0.0003  0.0535 -0.3462
   11SAPS   H4X 1419   3.292   3.014   2.797 -1.2485 -0.7931 -0.5037
   11SAPS   H4Y 1420   3.450   2.954   2.857  0.0439 -0.1931 -0.2017
   11SAPS   C35 1421   3.304   2.947   3.011  0.0471  0.2825  0.5439
   11SAPS   H5X 1422   3.352   2.859   3.060  1.0757 -0.7614 -2.1121
   11SAPS   H5Y 1423   3.193   2.940   3.017 -0.1941 -1.1313 -2.8804
   11SAPS   C36 1424   3.360   3.066   3.073 -0.0569 -0.3969 -0.5667
   11SAPS   H6X 1425   3.312   3.156   3.030  2.5687  2.0005  1.1175
   11SAPS   H6Y 1426   3.470   3.073   3.058  0.0854  1.0279  0.9112
   11SAPS   C37 1427   3.340   3.058   3.224  0.5096  0.1375  0.2481
   11SAPS   H7X 1428   3.398   2.969   3.257 -0.8286 -0.8215  0.0805
   11SAPS   H7Y 1429   3.231   3.055   3.242  0.7273 -0.9598  1.6064
   11SAPS   C38 1430   3.381   3.181   3.303 -0.8402  0.1033  0.6807
   11SAPS   H8X 1431   3.317   3.263   3.265  0.4021  0.9570  0.3581
   11SAPS   H8Y 1432   3.483   3.209   3.270 -0.7375  0.8131  1.5448
   11SAPS   C39 1433   3.380   3.173   3.457  0.4904  0.4165  0.4678
   11SAPS   H9X 1434   3.457   3.107   3.502 -1.3784 -0.6682  2.2400
   11SAPS   H9Y 1435   3.285   3.130   3.494 -0.2423  2.4437  1.1165
   11SAPS  C310 1436   3.399   3.310   3.527 -0.5116 -0.0225  0.5578
   11SAPS  H10X 1437   3.301   3.362   3.518 -1.3186 -1.8002 -2.1339
   11SAPS  H10Y 1438   3.482   3.369   3.485 -0.8215  0.7924  1.0707
   11SAPS  C311 1439   3.437   3.296   3.678  0.7811  0.6837 -0.2825
   11SAPS  H11X 1440   3.457   3.396   3.722 -3.1422  1.9144 -0.9225
   11SAPS  H11Y 1441   3.528   3.233   3.671 -0.0015 -0.3060 -2.4127
   11SAPS  C312 1442   3.322   3.226   3.761 -0.0128  0.9038  0.3819
   11SAPS  H12X 1443   3.262   3.169   3.687 -1.2337  1.3813  0.9735
   11SAPS  H12Y 1444   3.251   3.302   3.802  0.4274  1.3960  0.2374
   11SAPS  C313 1445   3.391   3.125   3.858  0.2731 -0.0173 -0.0253
   11SAPS  H13X 1446   3.474   3.179   3.909 -0.0955 -0.9597  1.6621
   11SAPS  H13Y 1447   3.438   3.043   3.800 -1.0101 -0.9591  0.2181
   11SAPS  C314 1448   3.294   3.055   3.946  0.4410 -0.2210 -0.3039
   11SAPS  H14X 1449   3.229   2.995   3.879  1.8104 -1.0074 -0.9718
   11SAPS  H14Y 1450   3.224   3.125   3.999  1.1791  0.9597 -0.8466
   11SAPS  C315 1451   3.348   2.948   4.046  0.2809  0.1050 -0.3084
   11SAPS  H15X 1452   3.265   2.909   4.109  1.5180 -0.7316  0.8747
   11SAPS  H15Y 1453   3.421   2.993   4.117  0.6392  0.6325 -1.0099
   11SAPS  C316 1454   3.421   2.827   3.983 -0.4879 -0.2303  0.3646
   11SAPS  H16X 1455   3.523   2.849   3.945  0.0106  0.0436  1.8184
   11SAPS  H16Y 1456   3.356   2.799   3.897  0.5261 -1.3518 -0.0711
   11SAPS  C317 1457   3.443   2.715   4.081  0.1401  0.1209  0.0401
   11SAPS  H17X 1458   3.338   2.686   4.105  0.2823 -1.3180 -0.9888
   11SAPS  H17Y 1459   3.482   2.763   4.173  0.1479  1.7764 -0.7838
   11SAPS  C318 1460   3.533   2.601   4.026 -0.2580  0.3101 -0.0675
   11SAPS  H18X 1461   3.623   2.649   3.980 -0.4946  0.2830 -0.5655
   11SAPS  H18Y 1462   3.478   2.544   3.949 -2.1221 -2.3189  2.9774
   11SAPS  H18Z 1463   3.558   2.527   4.105  1.9208 -1.3680 -2.1776
   12SAPS     N 1464   2.195   2.789   1.928 -0.0631  0.0987 -0.8329
   12SAPS   HN1 1465   2.140   2.866   1.886 -0.7098  0.3748  0.4827
   12SAPS   HN2 1466   2.292   2.802   1.891  0.3638  2.1920  0.8102
   12SAPS   HN3 1467   2.151   2.706   1.884 -0.5816  0.1530 -0.4267
   12SAPS   C12 1468   2.176   2.787   2.076 -0.1527  0.6892  0.3263
   12SAPS  H12A 1469   2.256   2.844   2.121  0.8625  0.0122 -0.5578
   12SAPS   C13 1470   2.039   2.852   2.126  0.2255 -0.2533 -0.6885
   12SAPS  O13A 1471   1.970   2.911   2.039 -0.4641  0.3531 -0.2029
   12SAPS  O13B 1472   1.993   2.834   2.243 -0.6116 -0.1057  0.1815
   12SAPS   C11 1473   2.197   2.635   2.133  0.9275 -0.0288  0.0743
   12SAPS  H11A 1474   2.142   2.570   2.062 -0.4913  0.0290  1.0849
   12SAPS  H11B 1475   2.155   2.628   2.235  1.4993  0.5449  0.3589
   12SAPS     P 1476   2.359   2.432   2.179 -0.4713  0.3443 -0.5897
   12SAPS   O13 1477   2.259   2.328   2.132  0.1136 -0.9282  0.5296
   12SAPS   O14 1478   2.501   2.393   2.150 -0.6257 -0.4306  0.0447
   12SAPS   O12 1479   2.336   2.586   2.134 -0.3822 -0.4755 -0.4878
   12SAPS   O11 1480   2.345   2.432   2.340 -0.0757 -0.2287  0.0189
   12SAPS    C1 1481   2.431   2.512   2.425 -0.3780 -0.5781  0.3586
   12SAPS    HA 1482   2.514   2.561   2.370 -0.4633 -1.5943 -0.7100
   12SAPS    HB 1483   2.372   2.592   2.474  1.2138 -0.2889  1.8927
   12SAPS    C2 1484   2.511   2.438   2.542  0.6814 -0.6705  0.0796
   12SAPS    HS 1485   2.587   2.376   2.488  0.6707 -2.3248  1.8345
   12SAPS   O21 1486   2.418   2.351   2.614 -0.2688 -0.7542 -0.2287
   12SAPS   C21 1487   2.449   2.221   2.611 -1.2064  0.0290 -0.4507
   12SAPS   O22 1488   2.558   2.178   2.565  0.0136 -0.1182 -0.2348
   12SAPS   C22 1489   2.348   2.149   2.699 -0.2726 -0.7497 -0.2454
   12SAPS   H2R 1490   2.346   2.204   2.795  1.7822 -0.0708 -0.5539
   12SAPS   H2S 1491   2.252   2.154   2.643 -2.1716  0.4762  2.8842
   12SAPS    C3 1492   2.586   2.538   2.632  0.8276  0.2546  0.5810
   12SAPS    HX 1493   2.513   2.617   2.662 -1.2820 -0.2318 -2.8467
   12SAPS    HY 1494   2.660   2.583   2.562 -0.1210  0.3820 -0.3510
   12SAPS   O31 1495   2.645   2.472   2.741  0.5787 -0.1195  0.1149
   12SAPS   C31 1496   2.750   2.397   2.723  0.0173 -0.3084 -0.1434
   12SAPS   O32 1497   2.823   2.399   2.625  0.4392 -0.2512 -0.2017
   12SAPS   C32 1498   2.783   2.310   2.852 -0.2903 -0.6992  0.5911
   12SAPS   H2X 1499   2.890   2.328   2.873 -0.5644  1.2212  0.5064
   12SAPS   H2Y 1500   2.776   2.202   2.827 -0.7282 -1.2997  3.0126
   12SAPS   C23 1501   2.392   2.008   2.721 -0.2676  0.4746  0.3001
   12SAPS   H3R 1502   2.328   1.968   2.802 -1.6919  1.1683 -0.4371
   12SAPS   H3S 1503   2.494   2.005   2.766 -0.2612  0.5875  0.2952
   12SAPS   C24 1504   2.382   1.912   2.601  0.6733  0.0134  0.1426
   12SAPS   H4R 1505   2.425   1.812   2.623 -0.0427 -0.0184  1.5028
   12SAPS   H4S 1506   2.435   1.967   2.521 -1.2295  3.0701  0.7988
   12SAPS   C25 1507   2.236   1.900   2.560  0.1844 -0.0622  0.2024
   12SAPS   H5R 1508   2.204   1.970   2.481  1.0168  0.1734  0.0578
   12SAPS   C26 1509   2.137   1.833   2.626  0.1783 -0.4073 -0.5761
   12SAPS   H6R 1510   2.034   1.831   2.588 -0.2866  0.5141  0.5916
   12SAPS   C27 1511   2.156   1.738   2.740 -0.1340  0.2159  0.7786
   12SAPS   H7R 1512   2.265   1.715   2.733  0.0233  0.8864  0.8995
   12SAPS   H7S 1513   2.095   1.648   2.716 -0.7553  1.2649 -1.9321
   12SAPS   C28 1514   2.109   1.787   2.874  0.2806 -0.4133  0.2608
   12SAPS   H8R 1515   2.036   1.870   2.872  0.9157  0.1450  0.0321
   12SAPS   C29 1516   2.141   1.724   2.989  0.4249  0.0618  0.1552
   12SAPS   H9R 1517   2.090   1.755   3.081  1.8354  0.9891  0.6661
   12SAPS  C210 1518   2.229   1.609   3.010  1.3096 -0.2441  0.6974
   12SAPS  H10R 1519   2.312   1.660   3.064  0.0991  2.7701 -0.0664
   12SAPS  H10S 1520   2.271   1.570   2.915  2.6980 -0.0270  1.1931
   12SAPS  C211 1521   2.164   1.495   3.085  0.2099 -0.2061 -0.2620
   12SAPS  H11R 1522   2.077   1.448   3.038 -0.6544  1.2041 -0.1402
   12SAPS  C212 1523   2.214   1.438   3.196  0.4079  0.2531 -0.1233
   12SAPS  H12R 1524   2.157   1.349   3.227  1.2954 -0.8463 -1.4802
   12SAPS  C213 1525   2.339   1.475   3.278  0.6630  0.0742  0.2263
   12SAPS  H13R 1526   2.406   1.541   3.218 -1.0351  0.2806 -1.5599
   12SAPS  H13S 1527   2.392   1.377   3.283 -2.2464 -1.6617 -0.0821
   12SAPS  C214 1528   2.312   1.540   3.413 -0.3547  0.0597  0.0209
   12SAPS  H14R 1529   2.236   1.620   3.409  1.3645  1.7493 -0.6330
   12SAPS  C215 1530   2.374   1.513   3.527  0.1060  0.7714 -0.1477
   12SAPS  H15R 1531   2.344   1.570   3.616 -0.9889  1.3130 -0.8415
   12SAPS  C216 1532   2.479   1.407   3.551 -0.3935  0.3623  0.0780
   12SAPS  H16R 1533   2.571   1.460   3.584 -0.0979  0.9629 -1.5966
   12SAPS  H16S 1534   2.517   1.365   3.455  1.2030  2.6940 -0.3998
   12SAPS  C217 1535   2.441   1.292   3.651 -0.1308 -0.3630 -0.2915
   12SAPS  H17R 1536   2.353   1.240   3.608 -0.0866 -1.1656  0.5669
   12SAPS  H17S 1537   2.409   1.337   3.748 -2.8286  1.9511 -2.0759
   12SAPS  C218 1538   2.550   1.184   3.667 -0.1097 -0.1500  0.0047
   12SAPS  H18R 1539   2.642   1.237   3.700 -0.1464 -1.0538  1.6707
   12SAPS  H18S 1540   2.585   1.141   3.571  1.3395  0.3966  0.2587
   12SAPS  C219 1541   2.517   1.081   3.767 -0.2754  0.4154 -0.5158
   12SAPS  H19R 1542   2.438   1.021   3.716 -0.4508  0.0655  0.1593
   12SAPS  H19S 1543   2.462   1.122   3.854  0.3002 -0.9576  0.5282
   12SAPS  C220 1544   2.625   0.979   3.812 -0.4299 -0.2086 -0.2083
   12SAPS  H20R 1545   2.661   0.933   3.717  0.8013  1.9040 -0.8231
   12SAPS  H20S 1546   2.584   0.897   3.874 -1.7352 -0.1647 -0.9534
   12SAPS  H20T 1547   2.709   1.029   3.864 -0.0978 -0.5959 -0.3687
   12SAPS   C33 1548   2.692   2.351   2.976 -0.0510  0.3402  0.2175
   12SAPS   H3X 1549   2.584   2.326   2.968  0.5202 -2.1536 -0.6102
   12SAPS   H3Y 1550   2.681   2.461   2.992 -2.5809  0.3204 -0.8182
   12SAPS   C34 1551   2.747   2.291   3.111 -0.1390  0.8400  0.0437
   12SAPS   H4X 1552   2.858   2.298   3.116 -0.2116  1.3176  1.2997
   12SAPS   H4Y 1553   2.722   2.183   3.124  4.2174 -0.3712 -0.0973
   12SAPS   C35 1554   2.687   2.362   3.227 -0.8593 -1.0275  0.9438
   12SAPS   H5X 1555   2.579   2.376   3.203 -0.0834  2.0176 -1.3804
   12SAPS   H5Y 1556   2.725   2.466   3.233 -1.1248 -0.8666 -0.0136
   12SAPS   C36 1557   2.694   2.293   3.361 -0.0397  0.3822  0.3098
   12SAPS   H6X 1558   2.798   2.281   3.397  0.1142  1.3028  0.1963
   12SAPS   H6Y 1559   2.643   2.197   3.340 -0.2491  0.2319  1.4780
   12SAPS   C37 1560   2.615   2.362   3.463 -0.0045  0.3587  0.2534
   12SAPS   H7X 1561   2.511   2.388   3.431 -0.7860 -1.6506  0.9825
   12SAPS   H7Y 1562   2.660   2.458   3.495  1.0765 -0.9991  3.0525
   12SAPS   C38 1563   2.592   2.270   3.586 -0.1053  0.1782  0.3391
   12SAPS   H8X 1564   2.698   2.247   3.610 -0.4775 -0.3686  1.5419
   12SAPS   H8Y 1565   2.538   2.181   3.550  0.6947  0.1713 -0.8941
   12SAPS   C39 1566   2.515   2.340   3.691 -0.3374  0.1750  0.3321
   12SAPS   H9X 1567   2.414   2.363   3.652 -0.5909  1.3081  1.5657
   12SAPS   H9Y 1568   2.563   2.440   3.699 -1.8068  0.8010  1.8713
   12SAPS  C310 1569   2.504   2.272   3.827  0.0675 -0.1648  0.1653
   12SAPS  H10X 1570   2.603   2.244   3.870  0.0010  0.9321  1.0600
   12SAPS  H10Y 1571   2.444   2.178   3.818 -0.4707  0.1669  0.2789
   12SAPS  C311 1572   2.423   2.366   3.921  0.0458 -0.4195 -0.0021
   12SAPS  H11X 1573   2.339   2.402   3.859  0.4487  0.2659 -0.1587
   12SAPS  H11Y 1574   2.485   2.457   3.939 -1.8820  0.9684 -0.0482
   12SAPS  C312 1575   2.363   2.310   4.053 -0.9060  0.0335  0.1083
   12SAPS  H12X 1576   2.281   2.239   4.027 -0.6073 -0.5404  0.7052
   12SAPS  H12Y 1577   2.315   2.395   4.105  1.4173  1.4185  0.0825
   12SAPS  C313 1578   2.469   2.237   4.141 -0.3302 -0.4182  0.0159
   12SAPS  H13X 1579   2.554   2.307   4.152 -1.4029  0.9152  0.1584
   12SAPS  H13Y 1580   2.501   2.144   4.088 -2.4166 -1.2607  0.1358
   12SAPS  C314 1581   2.415   2.212   4.281  0.3761 -0.7042  0.8029
   12SAPS  H14X 1582   2.335   2.135   4.283 -0.5475  0.2541  1.6237
   12SAPS  H14Y 1583   2.378   2.308   4.321  0.5676  0.7355 -2.1707
   12SAPS  C315 1584   2.531   2.174   4.376 -0.5533 -0.0583 -0.3246
   12SAPS  H15X 1585   2.598   2.262   4.384 -0.5936  0.3692 -3.6774
   12SAPS  H15Y 1586   2.586   2.091   4.328  0.8153  0.4064  0.3774
   12SAPS  C316 1587   2.492   2.140   4.519  0.9688 -0.4837 -0.3625
   12SAPS  H16X 1588   2.576   2.076   4.554  3.4022  2.1183 -1.0004
   12SAPS  H16Y 1589   2.395   2.087   4.524  0.2834  0.8398  1.2191
   12SAPS  C317 1590   2.482   2.258   4.616  0.1034 -0.4010 -0.1028
   12SAPS  H17X 1591   2.585   2.298   4.625  0.1629 -0.7678  0.9210
   12SAPS  H17Y 1592   2.448   2.225   4.716  1.3656 -1.2385  0.0684
   12SAPS  C318 1593   2.395   2.388   4.578 -0.9100  0.1860 -0.1492
   12SAPS  H18X 1594   2.408   2.452   4.668  1.2913  0.1981 -0.4072
   12SAPS  H18Y 1595   2.294   2.347   4.560 -0.0714 -1.2178 -2.0180
   12SAPS  H18Z 1596   2.421   2.432   4.480  0.8193 -1.2852 -0.4276
   13SAPS     N 1597   5.039   2.723   1.506 -0.0157  0.2462 -0.1535
   13SAPS   HN1 1598   4.977   2.796   1.466  0.2273  0.6836  0.2637
   13SAPS   HN2 1599   4.991   2.684   1.589 -0.8254  0.3353 -0.5721
   13SAPS   HN3 1600   5.122   2.780   1.535  0.9562 -0.4736 -1.3931
   13SAPS   C12 1601   5.076   2.621   1.404  0.2172  0.1210 -0.2432
   13SAPS  H12A 1602   5.007   2.540   1.423  1.7183 -1.6116 -1.7313
   13SAPS   C13 1603   5.064   2.663   1.258  0.6463  0.8390  0.0223
   13SAPS  O13A 1604   5.020   2.779   1.232 -0.0027  0.3792  0.4503
   13SAPS  O13B 1605   5.102   2.581   1.165  0.6428  0.4369  0.3455
   13SAPS   C11 1606   5.219   2.584   1.436 -0.2187  0.4003 -0.6152
   13SAPS  H11A 1607   5.291   2.662   1.403  2.2074 -0.4837  2.1124
   13SAPS  H11B 1608   5.239   2.495   1.372 -0.4279  0.1343 -0.3163
   13SAPS     P 1609   5.253   2.409   1.626  0.4390 -0.1617 -0.0923
   13SAPS   O13 1610   5.159   2.315   1.572 -0.0907  0.3737 -0.2594
   13SAPS   O14 1611   5.394   2.372   1.611  0.2461  0.1818 -0.2274
   13SAPS   O12 1612   5.233   2.556   1.577  0.0080  0.1272  0.0682
   13SAPS   O11 1613   5.206   2.418   1.783  0.2723 -0.2706 -0.6043
   13SAPS    C1 1614   5.273   2.489   1.881  0.3614  0.1454 -0.5655
   13SAPS    HA 1615   5.379   2.456   1.883 -0.0762 -1.2986 -0.1184
   13SAPS    HB 1616   5.264   2.598   1.861 -1.5888  0.4184  1.3862
   13SAPS    C2 1617   5.207   2.475   2.019 -0.0763  0.7188 -0.2464
   13SAPS    HS 1618   5.264   2.540   2.088 -0.1297 -1.2453  1.7873
   13SAPS   O21 1619   5.207   2.338   2.057 -0.7111  0.3396  0.5767
   13SAPS   C21 1620   5.209   2.305   2.187 -0.2047 -0.1490  1.0986
   13SAPS   O22 1621   5.224   2.378   2.281 -0.0366  0.0498  0.2037
   13SAPS   C22 1622   5.171   2.158   2.198 -0.3128 -0.0095 -0.4989
   13SAPS   H2R 1623   5.061   2.147   2.199 -0.3077 -0.0535 -0.3562
   13SAPS   H2S 1624   5.216   2.099   2.115  0.8744 -0.4813  0.4527
   13SAPS    C3 1625   5.066   2.522   2.003  0.3088  0.1246  0.4256
   13SAPS    HX 1626   5.016   2.461   1.926  0.3503  1.5946 -0.7956
   13SAPS    HY 1627   5.068   2.625   1.961 -3.4800  0.0038 -0.3459
   13SAPS   O31 1628   4.997   2.522   2.130  0.4432 -0.7946 -0.0051
   13SAPS   C31 1629   5.008   2.622   2.217 -0.0825 -0.0226 -0.7483
   13SAPS   O32 1630   5.086   2.720   2.205 -0.5143  0.5320  0.1836
   13SAPS   C32 1631   4.925   2.597   2.341  0.4046  0.7116  0.3546
   13SAPS   H2X 1632   4.972   2.513   2.397  0.1487  1.3145  1.5034
   13SAPS   H2Y 1633   4.823   2.560   2.315  0.5319 -1.2318  2.3049
   13SAPS   C23 1634   5.220   2.091   2.327 -0.3303  0.0473  0.1168
   13SAPS   H3R 1635   5.155   2.003   2.347 -3.1680  1.5180 -1.8148
   13SAPS   H3S 1636   5.194   2.161   2.409  0.0495 -0.0341  0.3087
   13SAPS   C24 1637   5.368   2.050   2.322  0.3707 -1.0869 -0.1718
   13SAPS   H4R 1638   5.395   2.016   2.219  2.0359  0.7891 -0.4145
   13SAPS   H4S 1639   5.388   1.956   2.377  0.4424 -0.4767  0.8672
   13SAPS   C25 1640   5.460   2.164   2.361 -0.0678  0.0028 -0.0246
   13SAPS   H5R 1641   5.493   2.252   2.303 -0.3697  0.0630 -0.1063
   13SAPS   C26 1642   5.519   2.154   2.484 -0.4318  0.2397  0.6279
   13SAPS   H6R 1643   5.590   2.235   2.507 -1.9076  1.1961  2.0374
   13SAPS   C27 1644   5.498   2.052   2.593  0.6479  0.1136 -0.5968
   13SAPS   H7R 1645   5.598   2.033   2.638  2.2870  1.7075 -3.2953
   13SAPS   H7S 1646   5.456   1.959   2.550 -1.2609  1.0787 -0.9616
   13SAPS   C28 1647   5.412   2.099   2.707  0.5664 -0.0383  0.1699
   13SAPS   H8R 1648   5.356   2.192   2.691 -0.9807 -0.8383  0.7737
   13SAPS   C29 1649   5.396   2.044   2.824  0.2005 -0.3037 -0.3272
   13SAPS   H9R 1650   5.340   2.094   2.905 -1.1778 -1.5524 -0.4623
   13SAPS  C210 1651   5.469   1.920   2.866  0.1621  0.0181  0.1730
   13SAPS  H10R 1652   5.550   1.891   2.796  0.8297 -0.3620  1.0897
   13SAPS  H10S 1653   5.402   1.835   2.841 -0.4451  0.4958  0.1208
   13SAPS  C211 1654   5.526   1.929   3.009  0.1725 -0.2278 -0.3598
   13SAPS  H11R 1655   5.630   1.965   3.008  0.1355 -0.0493  1.0439
   13SAPS  C212 1656   5.472   1.905   3.129 -0.4828 -0.2102  0.5100
   13SAPS  H12R 1657   5.535   1.925   3.216 -0.1211  0.9508 -0.0066
   13SAPS  C213 1658   5.326   1.872   3.148  0.0195  0.3723 -0.1134
   13SAPS  H13R 1659   5.266   1.881   3.054  1.8120 -0.8203 -1.4216
   13SAPS  H13S 1660   5.286   1.953   3.213  0.2229  2.5748 -2.5515
   13SAPS  C214 1661   5.309   1.727   3.208  0.1182  0.0474 -0.4948
   13SAPS  H14R 1662   5.369   1.646   3.165 -0.4390 -0.6198 -0.0467
   13SAPS  C215 1663   5.233   1.704   3.316  0.1005  0.4135  0.0102
   13SAPS  H15R 1664   5.218   1.599   3.347 -2.1749  0.1125 -1.8389
   13SAPS  C216 1665   5.151   1.803   3.395  0.0974 -0.1097  0.0698
   13SAPS  H16R 1666   5.123   1.886   3.328  0.1166  0.7494  1.0887
   13SAPS  H16S 1667   5.222   1.852   3.465 -0.6916  1.9710 -0.5233
   13SAPS  C217 1668   5.021   1.745   3.461  0.2383 -0.2619  0.2077
   13SAPS  H17R 1669   4.995   1.808   3.548 -0.1937 -1.4596  0.9640
   13SAPS  H17S 1670   5.041   1.641   3.495  3.5432 -0.0687 -0.7214
   13SAPS  C218 1671   4.900   1.750   3.357  0.1232 -0.2795  0.0083
   13SAPS  H18R 1672   4.919   1.685   3.269  1.2066 -1.8473  1.3523
   13SAPS  H18S 1673   4.896   1.851   3.310 -0.4369  0.4282  1.5160
   13SAPS  C219 1674   4.768   1.701   3.413 -0.4066 -0.8089 -0.1140
   13SAPS  H19R 1675   4.786   1.605   3.465 -0.0369 -0.6330  0.0863
   13SAPS  H19S 1676   4.705   1.671   3.326 -1.0608  1.0510 -0.3434
   13SAPS  C220 1677   4.704   1.807   3.509 -0.2311 -0.1539 -0.0365
   13SAPS  H20R 1678   4.772   1.833   3.593 -1.4578  0.4608  0.7971
   13SAPS  H20S 1679   4.604   1.781   3.551 -0.0548 -0.1518  0.3915
   13SAPS  H20T 1680   4.681   1.900   3.454 -0.7581  0.6996  1.5839
   13SAPS   C33 1681   4.914   2.715   2.438  0.3289  0.0710  0.2469
   13SAPS   H3X 1682   4.876   2.806   2.386  1.7446 -0.0602 -1.0697
   13SAPS   H3Y 1683   5.016   2.753   2.458  0.2771  0.8116 -0.8415
   13SAPS   C34 1684   4.830   2.687   2.563  0.5826 -0.8235 -0.6374
   13SAPS   H4X 1685   4.806   2.580   2.579 -1.4797 -0.2297  0.7588
   13SAPS   H4Y 1686   4.729   2.730   2.546  1.2396  0.5189 -1.3264
   13SAPS   C35 1687   4.882   2.738   2.700 -0.5419  0.0762  0.7584
   13SAPS   H5X 1688   4.878   2.849   2.704  0.0240  0.1760 -0.7630
   13SAPS   H5Y 1689   4.987   2.701   2.694 -1.1889 -1.5738 -1.9088
   13SAPS   C36 1690   4.806   2.675   2.815 -0.9798 -0.4045  0.9175
   13SAPS   H6X 1691   4.843   2.574   2.842  2.3117 -0.0777 -1.7153
   13SAPS   H6Y 1692   4.696   2.684   2.798 -0.4952 -0.0759 -3.0334
   13SAPS   C37 1693   4.834   2.764   2.947  0.0947 -0.1203  0.2171
   13SAPS   H7X 1694   4.804   2.869   2.924  0.1907 -0.3584 -1.1107
   13SAPS   H7Y 1695   4.944   2.773   2.953  0.2165 -0.3001 -1.2923
   13SAPS   C38 1696   4.758   2.717   3.066  0.0326 -0.8703 -0.0728
   13SAPS   H8X 1697   4.781   2.611   3.088 -0.6425 -0.4686  3.1181
   13SAPS   H8Y 1698   4.648   2.720   3.050 -0.0611 -1.2563  0.4845
   13SAPS   C39 1699   4.807   2.791   3.191 -0.2039  0.2868 -0.2234
   13SAPS   H9X 1700   4.760   2.887   3.223 -2.5786 -1.1412  0.9202
   13SAPS   H9Y 1701   4.918   2.791   3.194 -0.1586 -2.1642 -0.3508
   13SAPS  C310 1702   4.768   2.708   3.312  0.4159 -0.0797  0.7381
   13SAPS  H10X 1703   4.802   2.605   3.292  2.5363  0.4999  1.0677
   13SAPS  H10Y 1704   4.660   2.703   3.338 -0.1631  0.9800 -1.2558
   13SAPS  C311 1705   4.844   2.747   3.443 -0.5259 -0.3179 -0.1481
   13SAPS  H11X 1706   4.788   2.831   3.490  0.3230  0.0266  0.2668
   13SAPS  H11Y 1707   4.947   2.776   3.414 -0.3301 -0.7134  0.1429
   13SAPS  C312 1708   4.834   2.636   3.551 -0.6572 -0.0617 -0.3243
   13SAPS  H12X 1709   4.886   2.540   3.533  0.7451  0.8651 -1.4252
   13SAPS  H12Y 1710   4.727   2.614   3.567 -0.8414  0.7571 -0.3732
   13SAPS  C313 1711   4.895   2.685   3.681  0.4206 -0.9335 -0.1802
   13SAPS  H13X 1712   4.843   2.777   3.714  1.2571  0.2260 -1.9063
   13SAPS  H13Y 1713   4.997   2.714   3.647  0.0546 -0.9318 -1.3506
   13SAPS  C314 1714   4.891   2.591   3.794  0.2509  0.0744 -0.0879
   13SAPS  H14X 1715   4.878   2.484   3.770 -2.0484 -0.0630  1.5128
   13SAPS  H14Y 1716   4.799   2.616   3.850  0.5669  0.4509  0.2732
   13SAPS  C315 1717   5.010   2.610   3.893 -0.1926 -0.7643  0.0313
   13SAPS  H15X 1718   5.101   2.572   3.841 -0.6822 -2.1432  0.1470
   13SAPS  H15Y 1719   4.982   2.565   3.990 -1.3080  2.1105  1.1552
   13SAPS  C316 1720   5.044   2.758   3.943  0.5460  0.5825 -0.4957
   13SAPS  H16X 1721   5.071   2.820   3.855  1.8652  2.1284  0.9254
   13SAPS  H16Y 1722   5.136   2.767   4.005  0.1755  1.8354 -0.0917
   13SAPS  C317 1723   4.931   2.819   4.033  0.5577  0.5215 -0.4053
   13SAPS  H17X 1724   4.901   2.736   4.101  3.1301  0.1526  0.3960
   13SAPS  H17Y 1725   4.841   2.841   3.971  0.2952  0.0935 -0.1812
   13SAPS  C318 1726   4.977   2.928   4.123 -0.0563  0.5767  0.2532
   13SAPS  H18X 1727   4.890   2.969   4.178 -0.3392  1.2421 -0.6776
   13SAPS  H18Y 1728   5.002   3.015   4.058 -1.1826 -0.2352 -1.3444
   13SAPS  H18Z 1729   5.058   2.914   4.198  0.6880  1.7413 -0.3031
   14SAPS     N 1730   4.732   3.711   2.127  0.5716 -0.3266  0.3522
   14SAPS   HN1 1731   4.777   3.625   2.165 -0.2084 -0.6696  0.5144
   14SAPS   HN2 1732   4.635   3.717   2.163  0.5507  0.0853  0.2335
   14SAPS   HN3 1733   4.734   3.707   2.023  0.7422 -0.5058  0.3621
   14SAPS   C12 1734   4.819   3.826   2.163  0.1438  0.0335  0.1099
   14SAPS  H12A 1735   4.831   3.833   2.270 -0.3661  2.1163  0.0690
   14SAPS   C13 1736   4.957   3.810   2.095  0.3511  0.3358 -0.0132
   14SAPS  O13A 1737   4.976   3.753   1.987  0.1740 -0.6444  0.0657
   14SAPS  O13B 1738   5.045   3.890   2.137 -0.2782  0.7217 -0.0271
   14SAPS   C11 1739   4.752   3.951   2.105  0.7308 -0.7380  0.4342
   14SAPS  H11A 1740   4.719   3.933   2.001 -0.3548 -1.5833  0.9010
   14SAPS  H11B 1741   4.823   4.036   2.115 -1.2933  1.0452  0.6063
   14SAPS     P 1742   4.592   4.122   2.216  0.1293 -0.0269  0.0359
   14SAPS   O13 1743   4.614   4.200   2.086 -0.1841 -0.0845  0.3249
   14SAPS   O14 1744   4.458   4.129   2.285 -0.0787  0.2907  0.2628
   14SAPS   O12 1745   4.629   3.975   2.173 -0.0107 -0.0009  0.0783
   14SAPS   O11 1746   4.708   4.157   2.311  0.1076  0.0827  0.0741
   14SAPS    C1 1747   4.767   4.076   2.412  0.6426  0.9823 -0.5575
   14SAPS    HA 1748   4.756   3.968   2.390 -3.5348  0.3262  3.2904
   14SAPS    HB 1749   4.877   4.093   2.411  0.5336  1.7110 -0.9961
   14SAPS    C2 1750   4.715   4.120   2.554  0.1860  0.0317  0.7109
   14SAPS    HS 1751   4.765   4.057   2.631 -0.7145 -1.3205  0.2449
   14SAPS   O21 1752   4.572   4.109   2.567 -0.3523 -0.6163  0.1061
   14SAPS   C21 1753   4.525   3.989   2.581  0.3791 -0.0745  0.2370
   14SAPS   O22 1754   4.592   3.889   2.593 -0.0491  0.1086 -0.6420
   14SAPS   C22 1755   4.371   3.992   2.600  0.9898  0.4706 -0.3866
   14SAPS   H2R 1756   4.335   4.046   2.510 -1.7155 -0.6550 -0.0766
   14SAPS   H2S 1757   4.322   3.893   2.606 -0.4246  1.0630 -1.5830
   14SAPS    C3 1758   4.754   4.269   2.589 -0.4229  0.2512 -0.3567
   14SAPS    HX 1759   4.725   4.335   2.505  2.2188 -0.2077 -1.7277
   14SAPS    HY 1760   4.865   4.270   2.591 -0.3628 -0.2772  2.8292
   14SAPS   O31 1761   4.699   4.305   2.718  0.3839 -0.0110 -0.3979
   14SAPS   C31 1762   4.592   4.373   2.736  0.1580 -0.3887  0.2990
   14SAPS   O32 1763   4.523   4.415   2.645 -0.0259 -0.2572  0.0315
   14SAPS   C32 1764   4.575   4.398   2.889 -0.2351 -1.0542  0.3583
   14SAPS   H2X 1765   4.662   4.345   2.933  0.9461  0.3317 -0.2278
   14SAPS   H2Y 1766   4.475   4.360   2.919 -0.6243  1.7289  3.0304
   14SAPS   C23 1767   4.323   4.071   2.723 -0.0347  0.7781 -0.1243
   14SAPS   H3R 1768   4.241   4.143   2.700 -0.5603  0.2737  0.1595
   14SAPS   H3S 1769   4.405   4.139   2.752  0.8578  0.0242 -0.8328
   14SAPS   C24 1770   4.292   3.984   2.844  0.5252  0.9802 -0.8919
   14SAPS   H4R 1771   4.233   3.897   2.809  0.9222  0.0080  0.7030
   14SAPS   H4S 1772   4.226   4.047   2.907  1.9501  0.6714  1.0232
   14SAPS   C25 1773   4.411   3.931   2.922 -0.5639 -0.4958 -0.1282
   14SAPS   H5R 1774   4.477   3.854   2.880  0.4010 -0.5937  1.5094
   14SAPS   C26 1775   4.434   3.985   3.047 -1.3008 -0.3562 -0.1678
   14SAPS   H6R 1776   4.522   3.946   3.101 -0.6532  0.0727 -0.8930
   14SAPS   C27 1777   4.359   4.101   3.107  0.4652  0.9524  0.4684
   14SAPS   H7R 1778   4.257   4.067   3.131 -0.3816  0.4007 -3.3942
   14SAPS   H7S 1779   4.355   4.183   3.032 -0.4307 -0.0543 -0.6175
   14SAPS   C28 1780   4.429   4.164   3.216 -0.3177 -0.2635 -0.8995
   14SAPS   H8R 1781   4.500   4.244   3.190  1.3271 -1.5496 -0.4864
   14SAPS   C29 1782   4.414   4.132   3.346 -0.1897  0.2120 -0.0805
   14SAPS   H9R 1783   4.476   4.180   3.424 -0.4055 -0.1875  0.3409
   14SAPS  C210 1784   4.333   4.023   3.407 -0.3087 -0.0165  0.1544
   14SAPS  H10R 1785   4.404   3.950   3.452  0.0531  1.5014  2.2362
   14SAPS  H10S 1786   4.277   3.964   3.332 -2.1140  0.0792  1.3645
   14SAPS  C211 1787   4.231   4.056   3.511 -0.2484 -0.4052  0.1107
   14SAPS  H11R 1788   4.142   4.089   3.455  0.7346  0.7062 -0.8351
   14SAPS  C212 1789   4.243   4.058   3.646  0.2579 -0.3219 -0.7634
   14SAPS  H12R 1790   4.160   4.096   3.708  0.1141  0.5410 -1.4757
   14SAPS  C213 1791   4.363   4.021   3.726  0.7470  0.2044  0.2764
   14SAPS  H13R 1792   4.440   3.976   3.661  1.7818  1.6808  0.4165
   14SAPS  H13S 1793   4.333   3.953   3.809 -2.0717  1.3821  0.3270
   14SAPS  C214 1794   4.417   4.153   3.777  0.5316 -0.0698  0.2187
   14SAPS  H14R 1795   4.447   4.223   3.698 -0.5950 -1.5922 -1.6197
   14SAPS  C215 1796   4.413   4.198   3.901 -0.1508  0.2773  0.5578
   14SAPS  H15R 1797   4.462   4.293   3.928  0.1704  0.1598  0.3855
   14SAPS  C216 1798   4.349   4.133   4.019  0.1076  0.4009 -0.4696
   14SAPS  H16R 1799   4.272   4.061   3.985 -0.8699  0.9360  0.5282
   14SAPS  H16S 1800   4.287   4.212   4.068 -0.1838  0.9057 -1.6194
   14SAPS  C217 1801   4.452   4.063   4.107  0.2462  0.4663  0.8115
   14SAPS  H17R 1802   4.538   4.039   4.041 -0.0196  1.3811  0.1150
   14SAPS  H17S 1803   4.401   3.967   4.131 -1.4639  0.4020 -2.5260
   14SAPS  C218 1804   4.483   4.144   4.236  0.7018  0.0633  0.2246
   14SAPS  H18R 1805   4.389   4.167   4.291  0.0358 -0.0859 -0.8099
   14SAPS  H18S 1806   4.512   4.240   4.187 -1.8878  0.7120 -0.1999
   14SAPS  C219 1807   4.589   4.073   4.320  0.0253  0.4924 -0.0371
   14SAPS  H19R 1808   4.677   4.051   4.257  0.8430  0.0383  1.2239
   14SAPS  H19S 1809   4.544   3.977   4.353 -0.4314  1.4576  2.3261
   14SAPS  C220 1810   4.631   4.145   4.448 -0.6736 -0.1699  0.5645
   14SAPS  H20R 1811   4.543   4.196   4.493 -0.5920  1.3774 -0.9368
   14SAPS  H20S 1812   4.698   4.230   4.423 -1.9022  0.1755 -1.9207
   14SAPS  H20T 1813   4.686   4.077   4.516 -0.4646 -0.2620  0.3044
   14SAPS   C33 1814   4.574   4.551   2.927  0.4986 -0.5028 -0.7836
   14SAPS   H3X 1815   4.520   4.604   2.845 -0.8898  1.1928  1.1397
   14SAPS   H3Y 1816   4.668   4.603   2.955 -0.1833 -0.8917  2.6493
   14SAPS   C34 1817   4.507   4.564   3.065  0.3230 -0.0034  0.3732
   14SAPS   H4X 1818   4.408   4.513   3.059 -0.6730  1.9843 -1.5205
   14SAPS   H4Y 1819   4.481   4.669   3.093  1.4014  1.0131 -2.1711
   14SAPS   C35 1820   4.587   4.515   3.183  0.4097 -0.3163  0.1939
   14SAPS   H5X 1821   4.673   4.585   3.191 -0.4219  0.7780 -0.1986
   14SAPS   H5Y 1822   4.638   4.418   3.164 -1.4476 -1.5184  0.9938
   14SAPS   C36 1823   4.504   4.517   3.315  0.3595 -0.2766  0.3680
   14SAPS   H6X 1824   4.420   4.447   3.295 -0.1400  0.7244 -1.2110
   14SAPS   H6Y 1825   4.452   4.614   3.325 -1.3091 -1.0177 -0.7659
   14SAPS   C37 1826   4.594   4.497   3.433  0.6882  0.0072 -0.1783
   14SAPS   H7X 1827   4.655   4.590   3.439  0.9673  0.0450 -2.6780
   14SAPS   H7Y 1828   4.660   4.415   3.397 -0.8256 -1.6138  0.5452
   14SAPS   C38 1829   4.514   4.459   3.569 -0.2348  0.3702  0.1884
   14SAPS   H8X 1830   4.586   4.434   3.650  0.7704  2.1598 -0.1058
   14SAPS   H8Y 1831   4.443   4.374   3.561 -1.9297  1.4583  2.4172
   14SAPS   C39 1832   4.421   4.576   3.623 -0.5018  0.2034 -0.0585
   14SAPS   H9X 1833   4.364   4.618   3.537 -0.0457 -0.2453 -0.5923
   14SAPS   H9Y 1834   4.490   4.653   3.665  1.9381 -2.8532  1.9559
   14SAPS  C310 1835   4.318   4.531   3.735  0.2325  0.3211 -0.7617
   14SAPS  H10X 1836   4.384   4.472   3.802 -0.9167 -1.6831 -1.3338
   14SAPS  H10Y 1837   4.246   4.465   3.683  2.3924 -2.3569 -0.5964
   14SAPS  C311 1838   4.252   4.652   3.797 -0.0936  0.4050 -0.3463
   14SAPS  H11X 1839   4.190   4.705   3.722  1.3349 -1.2541 -2.8404
   14SAPS  H11Y 1840   4.328   4.724   3.833 -1.5516  0.9908  1.7284
   14SAPS  C312 1841   4.165   4.607   3.916  0.3333  0.0472 -0.2799
   14SAPS  H12X 1842   4.086   4.534   3.888  1.6312 -1.7348  0.5119
   14SAPS  H12Y 1843   4.112   4.693   3.962  1.5450  0.6687 -0.0211
   14SAPS  C313 1844   4.250   4.558   4.033  0.4970  0.6492 -0.7482
   14SAPS  H13X 1845   4.320   4.641   4.056  1.1464 -0.4814  1.8077
   14SAPS  H13Y 1846   4.308   4.465   4.013  0.5322  0.3988  0.4411
   14SAPS  C314 1847   4.176   4.523   4.164  0.0886 -0.4560 -0.1928
   14SAPS  H14X 1848   4.099   4.444   4.148 -0.7102  0.3205 -0.3373
   14SAPS  H14Y 1849   4.110   4.609   4.190  2.0265  1.2739 -0.7106
   14SAPS  C315 1850   4.280   4.488   4.271 -0.5488  1.0089 -0.5382
   14SAPS  H15X 1851   4.347   4.575   4.280  0.6667  0.0774 -0.3656
   14SAPS  H15Y 1852   4.342   4.400   4.243 -1.2895 -0.1180  1.2123
   14SAPS  C316 1853   4.204   4.459   4.404  0.0345 -0.6508  0.3621
   14SAPS  H16X 1854   4.141   4.368   4.394  0.7251 -1.0090 -0.9459
   14SAPS  H16Y 1855   4.148   4.550   4.435  1.4637  0.3319  0.1433
   14SAPS  C317 1856   4.308   4.448   4.513 -0.2008  0.0066 -0.8241
   14SAPS  H17X 1857   4.385   4.528   4.516  1.6428 -1.6653  2.5274
   14SAPS  H17Y 1858   4.362   4.360   4.473 -0.2616 -0.2708 -0.3026
   14SAPS  C318 1859   4.239   4.438   4.650  0.6835 -0.1393 -0.3200
   14SAPS  H18X 1860   4.303   4.390   4.727  0.5648  0.2190  0.0043
   14SAPS  H18Y 1861   4.153   4.368   4.637  2.7387 -2.5544 -1.9213
   14SAPS  H18Z 1862   4.214   4.535   4.697  2.7935  0.4239 -0.2781
   15SAPS     N 1863   3.318   3.314   1.784  0.4605 -0.6341 -0.6229
   15SAPS   HN1 1864   3.414   3.279   1.764  0.2136 -0.7845 -1.5845
   15SAPS   HN2 1865   3.264   3.247   1.843  1.0137 -0.2410  0.3624
   15SAPS   HN3 1866   3.269   3.328   1.694  1.1867  2.3560 -0.6792
   15SAPS   C12 1867   3.329   3.443   1.847  0.2857 -0.5643 -0.1658
   15SAPS  H12A 1868   3.385   3.418   1.936 -1.4446 -2.0281  0.5672
   15SAPS   C13 1869   3.401   3.560   1.775  0.1520 -0.5500  0.1382
   15SAPS  O13A 1870   3.437   3.536   1.661 -0.2118  0.6745  1.1893
   15SAPS  O13B 1871   3.453   3.648   1.841 -0.4728 -0.2650 -0.2968
   15SAPS   C11 1872   3.184   3.489   1.906 -0.3537 -0.0117 -0.0064
   15SAPS  H11A 1873   3.127   3.519   1.815  0.8883  0.9877 -0.4904
   15SAPS  H11B 1874   3.200   3.584   1.962 -0.0268 -0.2861  0.3724
   15SAPS     P 1875   2.989   3.429   2.049  0.2432 -0.2099 -0.0468
   15SAPS   O13 1876   2.929   3.537   1.974  0.4066 -0.4489 -0.6967
   15SAPS   O14 1877   2.908   3.302   2.058 -0.4916  0.0059 -0.7698
   15SAPS   O12 1878   3.133   3.390   1.999 -0.2470  0.2069  0.2955
   15SAPS   O11 1879   3.015   3.492   2.190 -0.5165  0.1112 -0.0200
   15SAPS    C1 1880   3.148   3.501   2.250 -0.1754 -0.2867  0.5998
   15SAPS    HA 1881   3.228   3.523   2.175 -0.6594 -1.9097 -0.4317
   15SAPS    HB 1882   3.166   3.569   2.336  0.7504 -1.0255  1.0095
   15SAPS    C2 1883   3.195   3.361   2.298 -0.4513  0.3820 -0.1720
   15SAPS    HS 1884   3.176   3.296   2.211  0.6303 -1.0901  0.6489
   15SAPS   O21 1885   3.109   3.327   2.413 -0.7158 -0.1491  0.0076
   15SAPS   C21 1886   3.095   3.196   2.427  0.4123 -0.2340 -0.1337
   15SAPS   O22 1887   3.129   3.110   2.347 -0.3078  0.1106  0.5042
   15SAPS   C22 1888   3.019   3.165   2.554  0.3600  0.1702  0.4293
   15SAPS   H2R 1889   3.042   3.236   2.636 -2.8863 -0.6239  2.2083
   15SAPS   H2S 1890   2.912   3.194   2.541  1.1254  4.0057  1.5537
   15SAPS    C3 1891   3.341   3.345   2.352  0.2792  0.1681  0.5778
   15SAPS    HX 1892   3.407   3.370   2.266 -1.1319 -2.7273 -1.4921
   15SAPS    HY 1893   3.359   3.239   2.378 -1.6392  0.3145  2.8400
   15SAPS   O31 1894   3.375   3.430   2.464 -0.2199  0.4099  0.4160
   15SAPS   C31 1895   3.353   3.383   2.581 -0.3185 -0.2283 -0.1275
   15SAPS   O32 1896   3.329   3.273   2.615  0.2966  0.6057 -0.0384
   15SAPS   C32 1897   3.381   3.502   2.681  0.1519 -0.1624  0.1527
   15SAPS   H2X 1898   3.345   3.596   2.635  0.7297  0.2479  0.5164
   15SAPS   H2Y 1899   3.492   3.498   2.680  0.1282 -2.8384  0.8780
   15SAPS   C23 1900   3.023   3.011   2.601 -0.5216 -0.0055  0.6573
   15SAPS   H3R 1901   3.123   2.971   2.627 -1.3130 -1.4830  1.5583
   15SAPS   H3S 1902   2.992   2.948   2.514  2.8318 -0.0298 -0.6942
   15SAPS   C24 1903   2.925   2.980   2.719 -0.7378 -0.4826  0.5787
   15SAPS   H4R 1904   2.840   3.047   2.695  1.1006  1.2322 -1.7560
   15SAPS   H4S 1905   2.977   3.019   2.809  0.1301  0.8658 -0.4518
   15SAPS   C25 1906   2.892   2.836   2.727  0.1038  0.0598 -0.8523
   15SAPS   H5R 1907   2.875   2.782   2.633 -0.7499 -2.0686  0.4396
   15SAPS   C26 1908   2.870   2.772   2.844  0.3063 -0.7194  0.2883
   15SAPS   H6R 1909   2.869   2.664   2.824  0.8475 -0.3156 -2.3003
   15SAPS   C27 1910   2.885   2.822   2.987  0.2436  0.6427 -0.1212
   15SAPS   H7R 1911   2.849   2.927   2.988  1.2859  1.0910 -2.9490
   15SAPS   H7S 1912   2.993   2.834   3.008  0.2838 -2.2452  2.0902
   15SAPS   C28 1913   2.835   2.734   3.110 -0.1313 -0.9251  1.0178
   15SAPS   H8R 1914   2.755   2.664   3.084 -0.3647 -0.0234 -0.8691
   15SAPS   C29 1915   2.886   2.728   3.237  0.0166 -0.5621  0.2535
   15SAPS   H9R 1916   2.832   2.679   3.319  0.0610  1.5478  1.6357
   15SAPS  C210 1917   3.003   2.814   3.282  0.4197 -0.2937 -0.1085
   15SAPS  H10R 1918   3.050   2.874   3.201 -2.2205  0.7989 -0.9285
   15SAPS  H10S 1919   3.070   2.732   3.317  0.5405  0.7026  2.1918
   15SAPS  C211 1920   2.966   2.911   3.397  0.2180  0.0783 -0.1707
   15SAPS  H11R 1921   2.915   3.001   3.357  1.9975  0.6092 -1.3565
   15SAPS  C212 1922   2.995   2.912   3.529 -0.7733  0.5581  0.2666
   15SAPS  H12R 1923   2.954   2.995   3.588  0.0647  1.1496  0.0355
   15SAPS  C213 1924   3.060   2.799   3.613  0.1191 -0.4737  0.6019
   15SAPS  H13R 1925   3.168   2.822   3.620  0.6840 -2.7691  0.3890
   15SAPS  H13S 1926   3.057   2.701   3.561  0.8872  1.4696 -3.5180
   15SAPS  C214 1927   3.000   2.799   3.756  0.1734  0.4666  0.7029
   15SAPS  H14R 1928   3.035   2.890   3.807  0.2436 -0.0369  1.5765
   15SAPS  C215 1929   2.910   2.710   3.812 -0.2036  0.3021 -0.7296
   15SAPS  H15R 1930   2.883   2.721   3.918  1.8167  1.4224 -0.2703
   15SAPS  C216 1931   2.848   2.590   3.741  0.1665  0.1848  0.8973
   15SAPS  H16R 1932   2.918   2.549   3.665  1.0658  2.0140  0.6823
   15SAPS  H16S 1933   2.754   2.626   3.695  1.4196  0.4855 -1.5494
   15SAPS  C217 1934   2.815   2.464   3.829 -0.4259 -0.4664  0.0595
   15SAPS  H17R 1935   2.774   2.380   3.771 -2.6650 -1.3121  2.6466
   15SAPS  H17S 1936   2.730   2.506   3.887 -0.6097  2.4878 -2.1396
   15SAPS  C218 1937   2.925   2.417   3.926  0.4078  0.0530  0.1210
   15SAPS  H18R 1938   2.950   2.511   3.980  0.1935  0.9125 -1.2339
   15SAPS  H18S 1939   3.007   2.385   3.858 -0.9592 -0.6917 -1.2586
   15SAPS  C219 1940   2.869   2.302   4.015 -0.3520 -0.2528  0.1329
   15SAPS  H19R 1941   2.768   2.331   4.050 -0.6779  0.3093 -1.2035
   15SAPS  H19S 1942   2.925   2.292   4.111 -1.6906 -1.4323  0.8228
   15SAPS  C220 1943   2.857   2.162   3.959  0.7072 -0.5384 -0.0226
   15SAPS  H20R 1944   2.839   2.163   3.849  1.2230  0.2475 -0.1056
   15SAPS  H20S 1945   2.776   2.106   4.010  0.7092  0.0587  0.6461
   15SAPS  H20T 1946   2.955   2.114   3.980  2.0602  2.5106  1.3316
   15SAPS   C33 1947   3.344   3.472   2.825 -0.7393  0.5247 -0.4402
   15SAPS   H3X 1948   3.393   3.376   2.850  0.9145  1.4902  0.1820
   15SAPS   H3Y 1949   3.236   3.454   2.844 -0.3229 -0.1303  1.6159
   15SAPS   C34 1950   3.410   3.556   2.934 -0.0700  0.9247  0.0630
   15SAPS   H4X 1951   3.381   3.657   2.898  0.2044  1.1830  0.5537
   15SAPS   H4Y 1952   3.521   3.551   2.920 -0.2574 -0.8328 -1.1768
   15SAPS   C35 1953   3.365   3.523   3.074 -0.5905 -0.7586  0.0412
   15SAPS   H5X 1954   3.402   3.424   3.109 -0.5431 -0.6184  0.3916
   15SAPS   H5Y 1955   3.254   3.517   3.073 -0.6209 -0.3815  0.8340
   15SAPS   C36 1956   3.405   3.630   3.174 -0.0454  0.1915 -0.6071
   15SAPS   H6X 1957   3.389   3.729   3.126 -2.5843 -0.6567 -1.6998
   15SAPS   H6Y 1958   3.512   3.621   3.199 -0.2241 -3.6462 -0.6656
   15SAPS   C37 1959   3.331   3.613   3.309 -0.4286 -0.2695 -0.4378
   15SAPS   H7X 1960   3.325   3.509   3.347 -2.1276  0.4687  1.5411
   15SAPS   H7Y 1961   3.226   3.644   3.290 -0.0940  1.1797 -0.0305
   15SAPS   C38 1962   3.393   3.703   3.414  0.7002 -0.1869 -0.8009
   15SAPS   H8X 1963   3.382   3.810   3.385  0.5895 -0.5068 -1.9718
   15SAPS   H8Y 1964   3.498   3.668   3.424  1.0049  1.1085  1.1221
   15SAPS   C39 1965   3.303   3.682   3.542 -0.0780  0.0541  0.2823
   15SAPS   H9X 1966   3.314   3.576   3.573  3.7998  0.7102  1.7293
   15SAPS   H9Y 1967   3.195   3.699   3.519 -0.4213 -1.6556  0.4959
   15SAPS  C310 1968   3.341   3.775   3.660 -0.4123  0.7778 -0.4972
   15SAPS  H10X 1969   3.268   3.764   3.743  0.7187 -2.1692  0.2304
   15SAPS  H10Y 1970   3.337   3.880   3.625 -0.7918  0.5920 -1.0389
   15SAPS  C311 1971   3.478   3.735   3.714 -0.6532 -0.0263  0.6832
   15SAPS  H11X 1972   3.556   3.738   3.634  0.0541  2.1459  1.3683
   15SAPS  H11Y 1973   3.472   3.631   3.751 -0.8318 -0.1566  0.2900
   15SAPS  C312 1974   3.524   3.816   3.825 -0.1783  0.3647 -0.0376
   15SAPS  H12X 1975   3.511   3.922   3.796  1.6685  0.7777  0.5761
   15SAPS  H12Y 1976   3.632   3.796   3.842 -0.1927  1.3304  1.3769
   15SAPS  C313 1977   3.461   3.778   3.961 -0.0821  0.4143 -0.6275
   15SAPS  H13X 1978   3.464   3.668   3.979 -1.8781  0.5835  0.9426
   15SAPS  H13Y 1979   3.355   3.811   3.956 -0.2936 -0.3298 -1.3171
   15SAPS  C314 1980   3.530   3.839   4.081 -0.6485  0.4431 -0.5375
   15SAPS  H14X 1981   3.444   3.839   4.152 -1.4664 -1.3201 -1.4576
   15SAPS  H14Y 1982   3.559   3.941   4.048 -0.2449  0.5912  0.2574
   15SAPS  C315 1983   3.644   3.751   4.146 -0.0737  0.2216  0.9482
   15SAPS  H15X 1984   3.736   3.766   4.086 -0.8436  0.2227 -0.2754
   15SAPS  H15Y 1985   3.619   3.643   4.134 -0.1220  0.2026  1.2128
   15SAPS  C316 1986   3.670   3.795   4.289  0.2823 -0.7533 -0.2523
   15SAPS  H16X 1987   3.572   3.791   4.342 -0.0927  1.1554 -0.7315
   15SAPS  H16Y 1988   3.705   3.900   4.299  1.4299 -1.1478  0.0625
   15SAPS  C317 1989   3.760   3.704   4.359 -0.6143 -0.3445  0.1155
   15SAPS  H17X 1990   3.844   3.685   4.290 -1.1885  1.4039 -1.1676
   15SAPS  H17Y 1991   3.719   3.601   4.359  2.4503 -1.6493  1.2696
   15SAPS  C318 1992   3.805   3.739   4.504 -0.2352  0.6977  0.3626
   15SAPS  H18X 1993   3.807   3.849   4.519 -0.9196  0.5969  1.2962
   15SAPS  H18Y 1994   3.908   3.700   4.513  0.3647  1.7120 -1.6165
   15SAPS  H18Z 1995   3.728   3.700   4.575 -0.7481  0.4289 -0.3268
   16SAPS     N 1996   0.049   3.178   2.222  1.1087 -0.0159  0.5067
   16SAPS   HN1 1997   0.048   3.253   2.294  2.1443 -1.1492  1.7454
   16SAPS   HN2 1998  -0.046   3.166   2.181  1.3811  0.1835 -0.1942
   16SAPS   HN3 1999   0.084   3.090   2.264  1.3708 -1.1224 -1.8782
   16SAPS   C12 2000   0.148   3.228   2.126  0.3364 -0.2825  0.4390
   16SAPS  H12A 2001   0.146   3.156   2.046 -0.7446 -0.8417  0.9396
   16SAPS   C13 2002   0.108   3.359   2.053 -0.3326  0.1436  0.0249
   16SAPS  O13A 2003   0.005   3.430   2.081  0.1007 -0.5375  0.0764
   16SAPS  O13B 2004   0.189   3.394   1.960  0.2107 -0.2459 -0.1590
   16SAPS   C11 2005   0.290   3.252   2.173 -0.3388  0.3185  0.3007
   16SAPS  H11A 2006   0.288   3.332   2.249 -1.3617  0.3000  0.2995
   16SAPS  H11B 2007   0.356   3.287   2.091 -2.2820  4.6337  0.3014
   16SAPS     P 2008   0.476   3.143   2.316  0.1406 -0.1618  0.4419
   16SAPS   O13 2009   0.596   3.132   2.235 -0.2557  0.2465  0.1586
   16SAPS   O14 2010   0.457   3.263   2.403 -0.2216  0.6303  0.2766
   16SAPS   O12 2011   0.340   3.129   2.232 -0.5420  0.1835 -0.0900
   16SAPS   O11 2012   0.471   3.019   2.402 -0.0381  0.0815 -0.1686
   16SAPS    C1 2013   0.411   2.894   2.366  0.5435  0.3902 -0.3735
   16SAPS    HA 2014   0.426   2.880   2.257 -1.2282 -3.9083 -0.2647
   16SAPS    HB 2015   0.460   2.808   2.417 -0.9399 -1.4804 -1.9535
   16SAPS    C2 2016   0.263   2.900   2.413 -0.3538  0.6856 -0.0329
   16SAPS    HS 2017   0.213   2.965   2.338 -0.8596  1.0420  0.6079
   16SAPS   O21 2018   0.239   2.952   2.545  0.4099 -0.0913 -0.1776
   16SAPS   C21 2019   0.114   3.003   2.568  0.8514 -0.1037  0.0956
   16SAPS   O22 2020   0.022   3.016   2.492  0.6062  0.0402 -0.0618
   16SAPS   C22 2021   0.118   3.044   2.719 -0.1240 -0.2708  0.2703
   16SAPS   H2R 2022   0.208   3.004   2.770  1.0326  0.5058 -1.0984
   16SAPS   H2S 2023   0.139   3.152   2.725  1.0593 -0.3961 -1.0059
   16SAPS    C3 2024   0.208   2.757   2.396 -0.6251  0.3384  0.9151
   16SAPS    HX 2025   0.231   2.721   2.293 -1.2750  1.1691  0.4720
   16SAPS    HY 2026   0.097   2.760   2.396 -0.6624 -0.1150 -0.5107
   16SAPS   O31 2027   0.253   2.663   2.497  0.2056 -0.1211 -0.6258
   16SAPS   C31 2028   0.179   2.661   2.618 -0.2392  0.0834  0.1505
   16SAPS   O32 2029   0.078   2.720   2.635 -0.0433  0.2805 -0.1504
   16SAPS   C32 2030   0.230   2.557   2.707 -0.2456  0.0694  0.0928
   16SAPS   H2X 2031   0.236   2.471   2.636 -1.4549  0.8885 -1.0543
   16SAPS   H2Y 2032   0.155   2.529   2.784 -1.1698 -1.3513 -1.2578
   16SAPS   C23 2033  -0.002   3.006   2.805  0.0344  0.3850  0.3777
   16SAPS   H3R 2034  -0.052   2.919   2.757  1.1356  0.2755 -0.6193
   16SAPS   H3S 2035  -0.078   3.085   2.826 -1.8974 -1.4665  0.7056
   16SAPS   C24 2036   0.046   2.952   2.943  0.3114  0.3046  0.1527
   16SAPS   H4R 2037   0.100   2.856   2.929 -0.6869  0.0845 -2.8199
   16SAPS   H4S 2038  -0.041   2.930   3.009  1.8148 -1.4716  1.6765
   16SAPS   C25 2039   0.128   3.068   3.009 -1.0981  0.1674 -0.5896
   16SAPS   H5R 2040   0.228   3.077   2.963 -0.7864 -1.3872 -0.2748
   16SAPS   C26 2041   0.093   3.156   3.107  0.4789  0.7684 -0.2188
   16SAPS   H6R 2042   0.162   3.240   3.126 -1.3444  2.9712 -2.6397
   16SAPS   C27 2043  -0.041   3.140   3.178  0.1931 -0.0858 -0.0819
   16SAPS   H7R 2044  -0.032   3.061   3.256 -1.1476 -1.5479 -1.3506
   16SAPS   H7S 2045  -0.124   3.102   3.116  0.3896 -2.4323  1.0099
   16SAPS   C28 2046  -0.059   3.276   3.234  0.1121  0.3211 -0.9729
   16SAPS   H8R 2047  -0.073   3.357   3.160 -1.0530 -0.3537 -1.5210
   16SAPS   C29 2048  -0.075   3.308   3.371  0.5386  0.2420  0.7376
   16SAPS   H9R 2049  -0.089   3.415   3.393  3.0312  1.1828 -1.5833
   16SAPS  C210 2050  -0.069   3.221   3.490  0.0571  0.2858 -0.3656
   16SAPS  H10R 2051   0.038   3.204   3.514  0.1959 -1.4905 -1.9838
   16SAPS  H10S 2052  -0.118   3.121   3.481  0.9874 -0.2987  0.7212
   16SAPS  C211 2053  -0.140   3.296   3.605  0.2164 -0.0464  0.5666
   16SAPS  H11R 2054  -0.213   3.374   3.577 -0.2492  0.3970  2.8116
   16SAPS  C212 2055  -0.113   3.292   3.732  0.4181 -0.6432 -0.4833
   16SAPS  H12R 2056  -0.178   3.359   3.791  0.8274  2.5760 -3.3763
   16SAPS  C213 2057  -0.001   3.220   3.807  0.3263 -0.1736  0.0726
   16SAPS  H13R 2058   0.047   3.288   3.881  1.1461 -0.8275  0.1519
   16SAPS  H13S 2059   0.069   3.197   3.724 -2.3987 -0.1234 -2.3951
   16SAPS  C214 2060  -0.059   3.088   3.859  0.0857  0.2397 -0.4189
   16SAPS  H14R 2061  -0.051   3.008   3.784 -0.4548  0.5040 -0.7626
   16SAPS  C215 2062  -0.091   3.067   3.989 -0.3940  0.1935  0.1140
   16SAPS  H15R 2063  -0.140   2.973   4.021 -0.3997  0.9172  2.3624
   16SAPS  C216 2064  -0.085   3.167   4.105 -0.0852  0.0290  0.0144
   16SAPS  H16R 2065  -0.043   3.265   4.075 -1.5249  0.3175 -1.1460
   16SAPS  H16S 2066  -0.025   3.133   4.192  0.8833  0.4605 -0.4671
   16SAPS  C217 2067  -0.223   3.188   4.158 -0.4762  0.3712  0.1673
   16SAPS  H17R 2068  -0.296   3.192   4.075 -0.5823 -1.7917  0.1004
   16SAPS  H17S 2069  -0.233   3.292   4.197 -2.1460 -0.3031  1.7050
   16SAPS  C218 2070  -0.256   3.077   4.258 -0.0626 -0.0226  0.0716
   16SAPS  H18R 2071  -0.170   3.044   4.320 -2.2513 -1.5895  2.4849
   16SAPS  H18S 2072  -0.296   2.988   4.205  0.5987 -0.2147 -0.1097
   16SAPS  C219 2073  -0.358   3.124   4.368 -0.0965  0.7689  0.3759
   16SAPS  H19R 2074  -0.411   3.034   4.406 -2.9974  2.0073 -0.4723
   16SAPS  H19S 2075  -0.431   3.185   4.311  0.3413  0.0076 -1.0276
   16SAPS  C220 2076  -0.292   3.205   4.481  0.0636  0.5147  0.0582
   16SAPS  H20R 2077  -0.219   3.138   4.533  0.3311 -0.3135 -1.3293
   16SAPS  H20S 2078  -0.373   3.238   4.549  0.0919  0.2997  0.1970
   16SAPS  H20T 2079  -0.245   3.290   4.427 -0.0582 -0.6522 -1.9760
   16SAPS   C33 2080   0.362   2.591   2.768 -0.0502 -0.0183  0.3597
   16SAPS   H3X 2081   0.441   2.626   2.699 -1.9787  0.4996 -1.6816
   16SAPS   H3Y 2082   0.392   2.491   2.807  1.8884  1.1853  2.1880
   16SAPS   C34 2083   0.350   2.683   2.886 -0.1368 -0.2169 -0.7958
   16SAPS   H4X 2084   0.313   2.783   2.858 -2.6816 -0.6009  0.9075
   16SAPS   H4Y 2085   0.455   2.705   2.918 -0.9129  3.7759 -0.4798
   16SAPS   C35 2086   0.273   2.624   3.005  0.3139  0.1574  0.1429
   16SAPS   H5X 2087   0.306   2.521   3.031 -0.4475  0.4826  2.7151
   16SAPS   H5Y 2088   0.166   2.612   2.978  0.9643 -2.5949 -1.6574
   16SAPS   C36 2089   0.277   2.711   3.126  0.3298  0.4509  0.4215
   16SAPS   H6X 2090   0.256   2.810   3.081 -1.6888 -0.1511 -0.0774
   16SAPS   H6Y 2091   0.378   2.720   3.172  0.0922  1.4646  0.7924
   16SAPS   C37 2092   0.160   2.688   3.229 -0.2487  0.1932 -0.1605
   16SAPS   H7X 2093   0.183   2.600   3.293 -3.2709 -1.5250 -1.2105
   16SAPS   H7Y 2094   0.069   2.671   3.168  0.6614 -0.1811 -1.4668
   16SAPS   C38 2095   0.149   2.807   3.326  1.0441 -0.2209 -0.0856
   16SAPS   H8X 2096   0.128   2.900   3.269  2.2235  1.4377  2.0415
   16SAPS   H8Y 2097   0.245   2.837   3.372  1.6567 -2.9493  0.5601
   16SAPS   C39 2098   0.053   2.781   3.437 -0.5486 -0.6985 -0.1727
   16SAPS   H9X 2099  -0.015   2.702   3.398  0.5244 -1.7279 -0.0184
   16SAPS   H9Y 2100  -0.008   2.867   3.472  0.7871  0.3092 -0.2301
   16SAPS  C310 2101   0.138   2.738   3.553 -0.2144  0.3120 -0.3727
   16SAPS  H10X 2102   0.221   2.805   3.585  0.5698 -0.4937 -0.6767
   16SAPS  H10Y 2103   0.180   2.636   3.535 -0.7595 -0.0290  0.2372
   16SAPS  C311 2104   0.071   2.713   3.687 -0.1524  0.5532 -0.3120
   16SAPS  H11X 2105  -0.006   2.637   3.663 -1.3345  1.5407  0.1987
   16SAPS  H11Y 2106   0.006   2.795   3.725 -1.0602  0.6561 -2.0011
   16SAPS  C312 2107   0.174   2.658   3.788 -0.2950  0.2299  0.0620
   16SAPS  H12X 2108   0.251   2.734   3.813  2.1375 -2.6044  1.8291
   16SAPS  H12Y 2109   0.222   2.566   3.749  1.6385  0.1947  2.2958
   16SAPS  C313 2110   0.097   2.595   3.913 -1.0832 -0.1084  0.1697
   16SAPS  H13X 2111   0.165   2.525   3.966 -1.2048  1.9041  3.2510
   16SAPS  H13Y 2112   0.015   2.536   3.866 -1.9291 -0.8322  2.3955
   16SAPS  C314 2113   0.026   2.680   4.014 -0.7407 -0.1101 -0.2284
   16SAPS  H14X 2114  -0.067   2.718   3.966 -0.7958 -0.4468 -0.3905
   16SAPS  H14Y 2115   0.091   2.767   4.037 -1.2045  0.0975  0.3564
   16SAPS  C315 2116  -0.014   2.618   4.149 -0.8948  0.3573  0.9160
   16SAPS  H15X 2117   0.074   2.597   4.213 -0.7936  0.1337  0.7041
   16SAPS  H15Y 2118  -0.056   2.516   4.132 -0.1082  0.2804 -0.7244
   16SAPS  C316 2119  -0.121   2.698   4.233 -0.0799  0.4575 -0.6937
   16SAPS  H16X 2120  -0.211   2.706   4.168  0.9953  0.8815 -2.1792
   16SAPS  H16Y 2121  -0.087   2.803   4.235  0.2763  0.3411  1.6585
   16SAPS  C317 2122  -0.156   2.625   4.361  0.2974  0.3188  0.1855
   16SAPS  H17X 2123  -0.066   2.608   4.423  0.8708 -2.0964 -1.1654
   16SAPS  H17Y 2124  -0.202   2.527   4.334  0.3326  1.0338 -2.7748
   16SAPS  C318 2125  -0.260   2.702   4.433  0.8531  0.1372  1.0473
   16SAPS  H18X 2126  -0.335   2.726   4.355  0.8300 -2.2855  0.2306
   16SAPS  H18Y 2127  -0.218   2.800   4.463  2.2617  0.2733 -1.1341
   16SAPS  H18Z 2128  -0.302   2.648   4.520  2.8113  0.2448  2.1182
   17SAPS     N 2129   0.868   2.264   1.718  0.8076  0.3268  0.4356
   17SAPS   HN1 2130   0.897   2.166   1.740 -2.6914 -1.0452 -0.4444
   17SAPS   HN2 2131   0.788   2.267   1.652 -0.3796 -0.1614  1.7766
   17SAPS   HN3 2132   0.944   2.320   1.675 -0.0346  0.6368 -0.6911
   17SAPS   C12 2133   0.820   2.314   1.845 -0.1414  1.0389 -0.4361
   17SAPS  H12A 2134   0.906   2.319   1.910  1.5362  0.4422 -2.4982
   17SAPS   C13 2135   0.732   2.444   1.839 -0.2652  1.0065  0.5011
   17SAPS  O13A 2136   0.715   2.496   1.724 -0.2692  0.6850 -0.1250
   17SAPS  O13B 2137   0.712   2.500   1.944  0.1892  0.0782 -0.9714
   17SAPS   C11 2138   0.729   2.204   1.898 -0.0447 -0.2860  0.1760
   17SAPS  H11A 2139   0.636   2.194   1.838 -0.0987  0.3217  0.1503
   17SAPS  H11B 2140   0.705   2.242   1.999 -0.6765  0.4169 -0.2270
   17SAPS     P 2141   0.740   1.960   1.984 -0.1037 -0.4831 -0.2662
   17SAPS   O13 2142   0.593   1.967   1.967 -0.9151  0.7542  0.8531
   17SAPS   O14 2143   0.806   1.834   1.943 -1.3403  0.0977  0.2002
   17SAPS   O12 2144   0.795   2.078   1.893 -0.3743  0.5188 -0.5953
   17SAPS   O11 2145   0.780   2.003   2.130  0.1511 -0.4318  0.4085
   17SAPS    C1 2146   0.916   2.002   2.162 -0.4198 -0.0168  0.7116
   17SAPS    HA 2147   0.950   1.898   2.147 -0.1471 -0.2351  2.5805
   17SAPS    HB 2148   0.973   2.069   2.094 -1.3051  2.1011  1.9609
   17SAPS    C2 2149   0.938   2.032   2.309  0.6809 -0.5027  0.1511
   17SAPS    HS 2150   1.039   1.991   2.331  0.8704 -0.1704 -0.0829
   17SAPS   O21 2151   0.847   1.973   2.392  0.8278 -0.2571 -0.2478
   17SAPS   C21 2152   0.860   1.842   2.404  0.3700  0.0466  0.3810
   17SAPS   O22 2153   0.947   1.768   2.358  0.5114 -0.4733  0.4141
   17SAPS   C22 2154   0.748   1.789   2.499 -0.6854 -0.2989 -0.3741
   17SAPS   H2R 2155   0.656   1.776   2.439  0.1791  0.5591 -1.9563
   17SAPS   H2S 2156   0.782   1.687   2.527  0.2087  0.3933  1.2022
   17SAPS    C3 2157   0.945   2.181   2.336  0.0037  0.0837 -0.2364
   17SAPS    HX 2158   0.848   2.221   2.300 -1.3879  0.0517  3.0916
   17SAPS    HY 2159   1.026   2.225   2.275  0.7052  0.4224  0.8941
   17SAPS   O31 2160   0.974   2.213   2.477 -0.1148 -0.1380  0.1957
   17SAPS   C31 2161   0.866   2.257   2.548 -0.4233 -0.0552 -0.7491
   17SAPS   O32 2162   0.751   2.266   2.501 -0.2774  0.0263 -0.1543
   17SAPS   C32 2163   0.923   2.298   2.687  0.7481  0.1863  1.2382
   17SAPS   H2X 2164   1.027   2.334   2.676  0.1737  1.4892 -0.3770
   17SAPS   H2Y 2165   0.904   2.217   2.760 -1.4466  0.9292  1.5589
   17SAPS   C23 2166   0.735   1.865   2.626  0.5625 -0.9992  0.3287
   17SAPS   H3R 2167   0.727   1.973   2.600  3.5626 -0.1279  2.5575
   17SAPS   H3S 2168   0.822   1.860   2.695 -0.3113  0.8724  1.6776
   17SAPS   C24 2169   0.599   1.823   2.696  0.0762 -0.4409  0.1604
   17SAPS   H4R 2170   0.518   1.867   2.634  0.4358 -0.3211 -0.2253
   17SAPS   H4S 2171   0.605   1.883   2.789  0.5689 -0.6790  0.2895
   17SAPS   C25 2172   0.567   1.680   2.717  0.6610 -0.1108 -0.3258
   17SAPS   H5R 2173   0.552   1.628   2.621 -0.0563 -2.5794  1.0662
   17SAPS   C26 2174   0.524   1.619   2.830  0.5731 -0.0192 -0.1336
   17SAPS   H6R 2175   0.511   1.510   2.822  0.3529 -0.1025  1.2579
   17SAPS   C27 2176   0.513   1.684   2.969 -0.7845 -0.1273  1.4227
   17SAPS   H7R 2177   0.405   1.695   2.994 -1.7105 -0.0007 -2.1562
   17SAPS   H7S 2178   0.556   1.786   2.976 -1.4870  0.3169 -0.2236
   17SAPS   C28 2179   0.583   1.581   3.063 -0.0144 -1.4729  0.3428
   17SAPS   H8R 2180   0.661   1.527   3.008 -1.1697  0.0043 -3.0048
   17SAPS   C29 2181   0.546   1.564   3.191 -0.2402  0.3396 -0.9386
   17SAPS   H9R 2182   0.606   1.503   3.260 -0.7975  2.1565  1.2803
   17SAPS  C210 2183   0.443   1.635   3.276 -0.5543  0.4039  0.7387
   17SAPS  H10R 2184   0.361   1.560   3.288  0.3391 -0.7057  0.0850
   17SAPS  H10S 2185   0.388   1.718   3.227 -0.3996  1.2311  1.9071
   17SAPS  C211 2186   0.508   1.676   3.409  0.5582  0.1579 -0.7320
   17SAPS  H11R 2187   0.613   1.708   3.404 -0.0630  3.0093  1.8386
   17SAPS  C212 2188   0.451   1.672   3.535 -0.8036  0.7095 -0.0147
   17SAPS  H12R 2189   0.511   1.703   3.621  0.0235  0.7563 -0.5970
   17SAPS  C213 2190   0.310   1.637   3.569  0.0091  0.5638  0.3456
   17SAPS  H13R 2191   0.289   1.529   3.590 -0.5763 -0.0026 -2.6556
   17SAPS  H13S 2192   0.240   1.636   3.483 -1.2543 -1.4606  1.3002
   17SAPS  C214 2193   0.239   1.717   3.677 -0.5108  1.2852  0.7128
   17SAPS  H14R 2194   0.164   1.784   3.634 -1.0990 -0.8965 -1.9914
   17SAPS  C215 2195   0.244   1.710   3.808 -0.0480 -0.5369 -0.0744
   17SAPS  H15R 2196   0.173   1.775   3.862  1.5470 -0.3234  1.9397
   17SAPS  C216 2197   0.321   1.616   3.897  0.5334  0.2727  0.3935
   17SAPS  H16R 2198   0.421   1.651   3.931 -0.2856  0.8248  2.3778
   17SAPS  H16S 2199   0.348   1.527   3.836  0.9393  0.9822 -0.4743
   17SAPS  C217 2200   0.231   1.568   4.010  0.4137  0.4592  0.5654
   17SAPS  H17R 2201   0.255   1.470   4.057  0.1706 -0.9863 -2.1064
   17SAPS  H17S 2202   0.129   1.549   3.971  0.2393  2.1665  0.1257
   17SAPS  C218 2203   0.214   1.673   4.117  0.2250 -0.0324  0.1030
   17SAPS  H18R 2204   0.169   1.763   4.071  1.1206  1.3279  1.7926
   17SAPS  H18S 2205   0.312   1.697   4.164  1.2037 -2.7060 -0.3239
   17SAPS  C219 2206   0.114   1.617   4.220  0.8910  0.4201 -0.3494
   17SAPS  H19R 2207   0.031   1.557   4.176  1.9921 -1.2986 -0.1788
   17SAPS  H19S 2208   0.071   1.694   4.288  1.2890  0.0887  0.2865
   17SAPS  C220 2209   0.175   1.524   4.329 -0.2084  0.1569  0.3679
   17SAPS  H20R 2210   0.201   1.419   4.302 -2.4632 -0.0454 -1.2976
   17SAPS  H20S 2211   0.099   1.515   4.409 -0.0579 -0.4007  0.4508
   17SAPS  H20T 2212   0.264   1.577   4.371  1.1556  0.5977 -2.7940
   17SAPS   C33 2213   0.843   2.413   2.748 -0.0691 -0.2462  0.7757
   17SAPS   H3X 2214   0.733   2.407   2.734 -0.0413  0.1900  0.3689
   17SAPS   H3Y 2215   0.885   2.504   2.700  0.4065 -0.8865 -0.0556
   17SAPS   C34 2216   0.874   2.428   2.896  0.8373  0.0014  0.1754
   17SAPS   H4X 2217   0.983   2.446   2.913  0.9684  0.0853 -0.7217
   17SAPS   H4Y 2218   0.855   2.333   2.951  2.2353 -1.4282 -1.6647
   17SAPS   C35 2219   0.785   2.533   2.974  0.7044 -0.1347  0.8541
   17SAPS   H5X 2220   0.683   2.490   2.975  1.0274 -0.9366  0.1975
   17SAPS   H5Y 2221   0.774   2.623   2.910 -3.3057 -2.7154 -2.6759
   17SAPS   C36 2222   0.814   2.540   3.121 -0.5386  0.0015  0.3513
   17SAPS   H6X 2223   0.862   2.638   3.142 -1.9187  0.9134 -0.5947
   17SAPS   H6Y 2224   0.876   2.453   3.151 -0.3893 -0.0693 -0.1698
   17SAPS   C37 2225   0.686   2.524   3.211 -0.8683  0.1777  0.0673
   17SAPS   H7X 2226   0.639   2.426   3.190 -0.0132 -0.2569  0.1671
   17SAPS   H7Y 2227   0.609   2.599   3.180 -2.8221 -2.4337 -1.8181
   17SAPS   C38 2228   0.710   2.557   3.359  0.0641  0.1814 -0.0979
   17SAPS   H8X 2229   0.717   2.667   3.370 -0.3915  0.1227  0.8430
   17SAPS   H8Y 2230   0.808   2.516   3.392 -0.3168 -0.5083  0.1879
   17SAPS   C39 2231   0.597   2.509   3.443  0.5700  0.2812 -0.2149
   17SAPS   H9X 2232   0.573   2.402   3.424 -1.2719  0.4765  0.7609
   17SAPS   H9Y 2233   0.498   2.555   3.421 -0.3345 -0.6088  1.7413
   17SAPS  C310 2234   0.615   2.515   3.598  0.5645 -0.4866 -0.4795
   17SAPS  H10X 2235   0.614   2.617   3.641  4.1856 -0.2796 -0.6108
   17SAPS  H10Y 2236   0.701   2.463   3.646  0.3859 -0.8913 -0.5911
   17SAPS  C311 2237   0.489   2.458   3.668  0.2734  0.7534 -0.7770
   17SAPS  H11X 2238   0.457   2.373   3.604 -1.7421  2.3060 -1.9764
   17SAPS  H11Y 2239   0.407   2.531   3.650 -0.6419  0.6364  2.3029
   17SAPS  C312 2240   0.518   2.429   3.823  0.1187 -0.2598 -0.2507
   17SAPS  H12X 2241   0.597   2.353   3.840 -0.3638 -1.1191 -1.6776
   17SAPS  H12Y 2242   0.419   2.393   3.860 -0.2006  1.2960  0.4973
   17SAPS  C313 2243   0.536   2.555   3.900 -0.1572 -1.0601 -0.3352
   17SAPS  H13X 2244   0.487   2.643   3.855  0.4955 -0.6155 -0.2016
   17SAPS  H13Y 2245   0.641   2.591   3.903 -1.2350  2.4775 -0.8100
   17SAPS  C314 2246   0.491   2.548   4.044  0.3032  0.3586  0.0750
   17SAPS  H14X 2247   0.566   2.482   4.091  0.0102 -2.1359 -2.6423
   17SAPS  H14Y 2248   0.396   2.490   4.043  0.7541 -0.4101 -1.1327
   17SAPS  C315 2249   0.479   2.679   4.128  0.9537 -0.7081  0.2772
   17SAPS  H15X 2250   0.426   2.676   4.226  0.2983  0.8645  0.0017
   17SAPS  H15Y 2251   0.401   2.734   4.071  2.1156 -0.7772 -1.4504
   17SAPS  C316 2252   0.601   2.765   4.143  0.1255  0.4010  0.2809
   17SAPS  H16X 2253   0.643   2.784   4.042 -2.7006 -1.0035 -1.2682
   17SAPS  H16Y 2254   0.673   2.708   4.206 -0.7819  0.1226  1.0810
   17SAPS  C317 2255   0.571   2.897   4.214 -0.1766  0.3313  0.1078
   17SAPS  H17X 2256   0.541   2.873   4.319  0.1539 -0.9803 -0.0872
   17SAPS  H17Y 2257   0.486   2.961   4.181 -1.6134 -1.7415 -0.4498
   17SAPS  C318 2258   0.701   2.967   4.234 -0.2759 -0.2003  0.1867
   17SAPS  H18X 2259   0.682   3.067   4.280  0.0247 -0.3272  0.5965
   17SAPS  H18Y 2260   0.752   2.982   4.137 -2.1118  0.1569 -0.7686
   17SAPS  H18Z 2261   0.760   2.896   4.295 -2.6892 -3.4692 -1.0186
   18SAPS     N 2262   4.695   2.095   1.723  0.0761 -0.4372 -0.7202
   18SAPS   HN1 2263   4.750   2.069   1.807 -1.7026  0.8048  0.9170
   18SAPS   HN2 2264   4.775   2.145   1.680  1.1795 -0.1357  1.5794
   18SAPS   HN3 2265   4.618   2.155   1.758  0.4519  0.3789 -1.2495
   18SAPS   C12 2266   4.645   1.979   1.642 -0.2692 -0.0980  0.6269
   18SAPS  H12A 2267   4.565   1.936   1.700  0.6161 -2.8235 -0.0305
   18SAPS   C13 2268   4.583   2.015   1.503  0.6492 -0.1703  0.0857
   18SAPS  O13A 2269   4.606   2.124   1.446 -0.3678  0.4495  0.0075
   18SAPS  O13B 2270   4.540   1.922   1.432  0.0014 -0.4424 -0.0007
   18SAPS   C11 2271   4.761   1.885   1.618  0.7330 -0.3621 -0.1028
   18SAPS  H11A 2272   4.849   1.942   1.581  0.3658  1.6051  1.8643
   18SAPS  H11B 2273   4.743   1.811   1.536  0.5492  0.7731 -1.1159
   18SAPS     P 2274   4.773   1.674   1.771  0.0614  0.1743  0.0381
   18SAPS   O13 2275   4.644   1.628   1.711  0.4568  0.0098  0.6619
   18SAPS   O14 2276   4.894   1.602   1.722 -0.2947  0.3012  0.1504
   18SAPS   O12 2277   4.804   1.825   1.744  1.1178 -0.5276  0.5941
   18SAPS   O11 2278   4.754   1.666   1.929 -0.1750 -0.0015  0.9470
   18SAPS    C1 2279   4.661   1.745   2.004 -0.4001  0.4296 -0.2197
   18SAPS    HA 2280   4.596   1.815   1.947 -0.3467  0.6377 -0.0247
   18SAPS    HB 2281   4.579   1.680   2.042  0.2253  0.6350  1.5504
   18SAPS    C2 2282   4.728   1.815   2.119 -0.8193 -0.1523  0.3169
   18SAPS    HS 2283   4.818   1.862   2.075 -0.3078  0.9733  2.3978
   18SAPS   O21 2284   4.758   1.720   2.222  0.1451  0.3755  0.2563
   18SAPS   C21 2285   4.870   1.741   2.288  0.4468  0.7865 -0.3481
   18SAPS   O22 2286   4.949   1.833   2.259 -0.0354  0.4228 -0.5832
   18SAPS   C22 2287   4.880   1.640   2.396  0.3313  0.2785  0.5616
   18SAPS   H2R 2288   4.791   1.641   2.464 -0.8049 -1.4493 -0.8136
   18SAPS   H2S 2289   4.877   1.540   2.347 -1.6023  0.8462 -0.5805
   18SAPS    C3 2290   4.638   1.935   2.175  0.3868 -1.1093 -0.5446
   18SAPS    HX 2291   4.544   1.880   2.195  1.3932 -2.9850 -0.7888
   18SAPS    HY 2292   4.613   2.008   2.095 -1.2981 -2.8408 -1.6737
   18SAPS   O31 2293   4.686   1.995   2.301 -0.6296 -0.0465  0.1358
   18SAPS   C31 2294   4.759   2.097   2.284 -0.1207  0.5684 -0.3093
   18SAPS   O32 2295   4.773   2.162   2.178 -0.0389  0.1009 -1.1270
   18SAPS   C32 2296   4.820   2.125   2.422 -0.5034 -0.0179 -0.1892
   18SAPS   H2X 2297   4.906   2.054   2.420 -2.3153 -2.3238 -0.1583
   18SAPS   H2Y 2298   4.747   2.102   2.502  2.5143 -0.9562  2.4933
   18SAPS   C23 2299   5.002   1.658   2.486 -0.5815  0.1488 -0.1116
   18SAPS   H3R 2300   5.089   1.682   2.421  0.2158  0.4219  1.0077
   18SAPS   H3S 2301   5.026   1.559   2.531  1.8359  0.6096 -0.2381
   18SAPS   C24 2302   4.973   1.762   2.600  0.3187 -0.4748 -0.0804
   18SAPS   H4R 2303   4.886   1.725   2.658 -0.0844  1.5392  0.7027
   18SAPS   H4S 2304   4.929   1.856   2.561 -3.0971 -1.6181  0.6968
   18SAPS   C25 2305   5.097   1.783   2.681  0.0520 -0.1398  0.0291
   18SAPS   H5R 2306   5.184   1.822   2.624  1.2137 -0.5168  1.4932
   18SAPS   C26 2307   5.108   1.755   2.810 -0.2597 -0.0618 -0.1027
   18SAPS   H6R 2308   5.202   1.777   2.864 -1.0993  0.5362  1.1906
   18SAPS   C27 2309   4.986   1.723   2.890 -0.7054  0.3304 -0.0715
   18SAPS   H7R 2310   5.026   1.692   2.988  1.1229  0.5508 -0.6938
   18SAPS   H7S 2311   4.946   1.628   2.851  1.3961 -0.1080 -1.3411
   18SAPS   C28 2312   4.884   1.826   2.918  0.0171 -0.3057  0.6298
   18SAPS   H8R 2313   4.923   1.928   2.903  2.0051 -1.2141 -0.8002
   18SAPS   C29 2314   4.757   1.800   2.962 -0.9238 -0.4229 -0.3616
   18SAPS   H9R 2315   4.697   1.889   2.985  0.1299 -0.2100  1.7717
   18SAPS  C210 2316   4.701   1.667   3.000  0.3628 -0.5383 -0.1151
   18SAPS  H10R 2317   4.617   1.687   3.070  0.7970  0.7375  0.0687
   18SAPS  H10S 2318   4.780   1.610   3.053  1.8305  0.7308 -0.8234
   18SAPS  C211 2319   4.637   1.594   2.886  0.3677  0.1241 -0.6270
   18SAPS  H11R 2320   4.662   1.638   2.789  0.3089  1.8966  0.1260
   18SAPS  C212 2321   4.576   1.474   2.883 -0.8332  0.2442  0.6968
   18SAPS  H12R 2322   4.553   1.421   2.789  2.6993 -0.1994 -0.0702
   18SAPS  C213 2323   4.565   1.389   3.006 -0.4323 -0.7217 -0.2646
   18SAPS  H13R 2324   4.658   1.405   3.064 -1.4158 -1.0885  1.4950
   18SAPS  H13S 2325   4.570   1.285   2.969 -1.9931 -0.3464 -1.6308
   18SAPS  C214 2326   4.442   1.413   3.083  0.3045  0.4235  0.5219
   18SAPS  H14R 2327   4.384   1.486   3.024  2.1308  0.3764 -1.4430
   18SAPS  C215 2328   4.405   1.360   3.201  0.4564 -0.0819  0.5625
   18SAPS  H15R 2329   4.306   1.388   3.239  1.3202  2.2020  1.3337
   18SAPS  C216 2330   4.471   1.267   3.285 -1.0764  0.3459  0.2371
   18SAPS  H16R 2331   4.557   1.221   3.232 -1.9000 -0.3258 -0.5460
   18SAPS  H16S 2332   4.401   1.192   3.328 -1.8298  0.7939 -0.1860
   18SAPS  C217 2333   4.544   1.338   3.402 -0.7107  0.3922  0.2646
   18SAPS  H17R 2334   4.594   1.428   3.361 -0.8705  1.3282  2.0087
   18SAPS  H17S 2335   4.625   1.274   3.443 -0.3128  1.2594  0.8587
   18SAPS  C218 2336   4.441   1.372   3.516  0.4089 -0.2907  0.6488
   18SAPS  H18R 2337   4.399   1.273   3.544  1.8557 -0.7989  1.1274
   18SAPS  H18S 2338   4.361   1.434   3.470 -3.1162 -3.7839  1.5126
   18SAPS  C219 2339   4.497   1.449   3.630  0.3187  0.6147  0.3456
   18SAPS  H19R 2340   4.420   1.468   3.708  0.3308 -0.2897  0.5834
   18SAPS  H19S 2341   4.522   1.551   3.594  0.9433  0.5013  0.4550
   18SAPS  C220 2342   4.621   1.373   3.682  0.3521  0.5232 -0.0537
   18SAPS  H20R 2343   4.636   1.399   3.789 -0.8381  1.8607 -0.1787
   18SAPS  H20S 2344   4.713   1.395   3.623  0.6650  3.9389  1.4539
   18SAPS  H20T 2345   4.602   1.264   3.679 -0.3688  0.6494 -0.1110
   18SAPS   C33 2346   4.870   2.275   2.432  0.1772  0.8652  0.1329
   18SAPS   H3X 2347   4.782   2.343   2.433 -0.2184  0.3915  2.2526
   18SAPS   H3Y 2348   4.937   2.298   2.347 -1.6133  4.1977 -0.5436
   18SAPS   C34 2349   4.937   2.292   2.570  0.1949 -0.5794  0.0077
   18SAPS   H4X 2350   4.960   2.400   2.578  1.5791 -0.7762 -1.0711
   18SAPS   H4Y 2351   5.031   2.233   2.580  0.8690  0.7447  2.2042
   18SAPS   C35 2352   4.844   2.258   2.689  0.0311  0.3013 -0.2787
   18SAPS   H5X 2353   4.810   2.152   2.695  0.0134  0.1783 -2.0522
   18SAPS   H5Y 2354   4.752   2.319   2.673 -1.8221 -2.5689 -1.3557
   18SAPS   C36 2355   4.901   2.288   2.833  0.2419 -0.2121 -0.1644
   18SAPS   H6X 2356   4.915   2.397   2.853 -1.4338  0.2489 -1.2356
   18SAPS   H6Y 2357   4.996   2.231   2.840  0.6453  0.2503 -1.4664
   18SAPS   C37 2358   4.798   2.242   2.939 -0.0122  0.7702  0.1475
   18SAPS   H7X 2359   4.753   2.144   2.914 -0.0865  1.0594 -0.8972
   18SAPS   H7Y 2360   4.716   2.316   2.927  0.4382  1.3868  0.8090
   18SAPS   C38 2361   4.860   2.238   3.081 -0.6922 -0.2179 -0.0876
   18SAPS   H8X 2362   4.911   2.336   3.095  1.6667 -1.4336  0.3805
   18SAPS   H8Y 2363   4.940   2.161   3.086  0.5444  0.9956 -0.3959
   18SAPS   C39 2364   4.752   2.200   3.184 -0.5592  0.1044 -0.6064
   18SAPS   H9X 2365   4.702   2.111   3.140  3.1778 -1.9825 -0.9829
   18SAPS   H9Y 2366   4.669   2.274   3.174 -1.0120 -0.4675 -1.1468
   18SAPS  C310 2367   4.790   2.170   3.326  0.2940  0.2014 -0.2471
   18SAPS  H10X 2368   4.847   2.075   3.325 -1.3187 -0.7990 -0.2455
   18SAPS  H10Y 2369   4.696   2.157   3.383 -0.2960 -1.3112 -1.4889
   18SAPS  C311 2370   4.885   2.281   3.383 -0.0525 -0.1859 -0.1237
   18SAPS  H11X 2371   4.824   2.371   3.408  1.4145  1.3086 -1.6086
   18SAPS  H11Y 2372   4.959   2.311   3.306 -1.4564 -1.0427 -1.8723
   18SAPS  C312 2373   4.966   2.233   3.502 -0.3716  0.0663 -0.0165
   18SAPS  H12X 2374   5.050   2.305   3.515  2.6798 -3.0199 -0.8743
   18SAPS  H12Y 2375   5.020   2.141   3.469  0.7906  1.6175 -2.7860
   18SAPS  C313 2376   4.886   2.207   3.629 -0.6094  0.5900 -0.0755
   18SAPS  H13X 2377   4.837   2.107   3.626 -0.4817  0.4261  2.1113
   18SAPS  H13Y 2378   4.805   2.282   3.638 -1.9103 -0.5674 -1.5279
   18SAPS  C314 2379   4.976   2.219   3.752  0.2156 -0.0289  0.6935
   18SAPS  H14X 2380   5.020   2.321   3.751 -1.4395  0.7490 -1.6248
   18SAPS  H14Y 2381   5.058   2.147   3.733 -2.3037 -3.1463  0.8699
   18SAPS  C315 2382   4.898   2.173   3.880  0.1836 -0.2584  0.1430
   18SAPS  H15X 2383   4.865   2.069   3.857  0.4917 -0.1173 -1.0276
   18SAPS  H15Y 2384   4.809   2.238   3.895  2.3020  2.4669  1.8357
   18SAPS  C316 2385   4.986   2.166   4.010 -0.0070  0.4753  0.1885
   18SAPS  H16X 2386   5.061   2.243   3.979  0.3298  0.2844  0.5273
   18SAPS  H16Y 2387   5.051   2.076   4.018  0.2072  0.7982  2.7831
   18SAPS  C317 2388   4.917   2.194   4.147 -0.5154 -0.7751  0.5791
   18SAPS  H17X 2389   4.970   2.145   4.231 -0.3994 -1.8184 -0.0842
   18SAPS  H17Y 2390   4.816   2.149   4.137 -1.2795  1.2741 -2.3381
   18SAPS  C318 2391   4.906   2.343   4.182 -0.3843 -0.3450 -0.4140
   18SAPS  H18X 2392   5.006   2.376   4.217 -0.4693  1.2051 -1.5260
   18SAPS  H18Y 2393   4.838   2.368   4.266  0.5210 -3.5273  1.4527
   18SAPS  H18Z 2394   4.882   2.398   4.089 -0.9397 -0.2525 -0.2182
   19SAPS     N 2395   4.366   5.057   1.720 -0.1664  0.2766 -0.3334
   19SAPS   HN1 2396   4.323   4.989   1.655  1.7532 -0.0342 -1.3412
   19SAPS   HN2 2397   4.469   5.070   1.709  0.3994  0.2480  3.4287
   19SAPS   HN3 2398   4.346   5.017   1.814  0.2459 -0.9734 -0.7565
   19SAPS   C12 2399   4.303   5.190   1.694 -0.1536 -0.0691  0.6260
   19SAPS  H12A 2400   4.316   5.255   1.779 -0.6036  1.8184 -0.6698
   19SAPS   C13 2401   4.369   5.266   1.576 -0.1948  0.4962 -0.2630
   19SAPS  O13A 2402   4.483   5.218   1.538  0.3417 -0.2194  0.2069
   19SAPS  O13B 2403   4.336   5.387   1.564  0.3800  0.4745 -0.1768
   19SAPS   C11 2404   4.153   5.168   1.663 -0.0821 -0.0908  0.5327
   19SAPS  H11A 2405   4.149   5.101   1.573 -1.7058 -1.5021  1.5888
   19SAPS  H11B 2406   4.101   5.260   1.629 -0.4017  0.5287  2.5655
   19SAPS     P 2407   4.047   5.170   1.909 -0.0915 -0.0312  0.3979
   19SAPS   O13 2408   4.160   5.142   1.996 -0.4005 -0.1492 -1.0136
   19SAPS   O14 2409   4.020   5.313   1.869  0.0107 -0.7308 -0.4408
   19SAPS   O12 2410   4.077   5.105   1.768 -0.0437  0.2636  0.5234
   19SAPS   O11 2411   3.923   5.082   1.943  0.2956 -0.1863 -0.0517
   19SAPS    C1 2412   3.825   5.119   2.049 -0.4552 -0.1370 -0.3296
   19SAPS    HA 2413   3.755   5.200   2.021 -2.2960 -1.8085 -0.8477
   19SAPS    HB 2414   3.741   5.045   2.050 -2.0463  1.5894  1.1883
   19SAPS    C2 2415   3.869   5.134   2.193  0.1832  0.4388  0.5890
   19SAPS    HS 2416   3.782   5.152   2.260  0.3804 -1.2346  1.3477
   19SAPS   O21 2417   3.952   5.251   2.205  0.0690 -0.1277  0.3170
   19SAPS   C21 2418   3.890   5.366   2.214  0.4712  0.5127  0.1093
   19SAPS   O22 2419   3.771   5.384   2.209  0.0350 -0.4770 -0.3809
   19SAPS   C22 2420   3.997   5.473   2.236 -0.1673  0.6596  0.0122
   19SAPS   H2R 2421   4.090   5.432   2.280  0.8420  3.5031  0.7464
   19SAPS   H2S 2422   4.011   5.516   2.135  1.1361 -0.4713 -0.3064
   19SAPS    C3 2423   3.948   5.015   2.252 -0.0183  0.0356  0.3937
   19SAPS    HX 2424   4.047   5.010   2.202  1.1466 -3.0747  2.6758
   19SAPS    HY 2425   3.897   4.920   2.224  0.2275  0.6391 -2.3879
   19SAPS   O31 2426   3.962   5.024   2.393 -0.4238 -0.3618 -0.4730
   19SAPS   C31 2427   4.070   5.076   2.441 -0.6480 -0.1631 -0.3023
   19SAPS   O32 2428   4.163   5.117   2.376 -0.4113  0.5899  0.4826
   19SAPS   C32 2429   4.062   5.090   2.594  0.4236 -0.1961  0.1671
   19SAPS   H2X 2430   4.163   5.109   2.636 -0.5002  1.4349  1.7737
   19SAPS   H2Y 2431   4.011   5.000   2.635 -1.2498 -0.5843 -2.4826
   19SAPS   C23 2432   3.939   5.586   2.333 -0.0926  0.1890 -0.5411
   19SAPS   H3R 2433   3.834   5.610   2.308  0.2340  4.2555  1.2404
   19SAPS   H3S 2434   4.001   5.676   2.312  1.5720 -0.5254  1.0405
   19SAPS   C24 2435   3.965   5.572   2.493 -0.0232 -0.5851  0.1004
   19SAPS   H4R 2436   4.056   5.512   2.516  0.1597 -1.3168 -2.2484
   19SAPS   H4S 2437   3.872   5.517   2.518  0.2579 -0.5237  1.3689
   19SAPS   C25 2438   3.986   5.702   2.567 -0.2820 -0.0142 -0.7574
   19SAPS   H5R 2439   4.089   5.738   2.563  0.0276 -0.5157  1.5018
   19SAPS   C26 2440   3.898   5.770   2.642 -0.1563 -0.7644  0.4374
   19SAPS   H6R 2441   3.938   5.860   2.691 -1.0277 -0.1968  0.1383
   19SAPS   C27 2442   3.753   5.728   2.673 -0.1783  0.2772 -0.0251
   19SAPS   H7R 2443   3.743   5.617   2.680 -1.2537  0.2755 -1.1743
   19SAPS   H7S 2444   3.680   5.766   2.599 -1.0756  0.4032  0.9081
   19SAPS   C28 2445   3.700   5.792   2.804  0.7634 -0.0271 -0.1422
   19SAPS   H8R 2446   3.662   5.895   2.791  1.1580 -0.0998 -2.2828
   19SAPS   C29 2447   3.716   5.743   2.929  0.1807 -0.1223  0.0352
   19SAPS   H9R 2448   3.670   5.806   3.007 -3.3832  1.4442 -3.0123
   19SAPS  C210 2449   3.785   5.614   2.966 -0.1308  0.9469 -0.0175
   19SAPS  H10R 2450   3.864   5.647   3.037 -1.5027  3.5651  0.4016
   19SAPS  H10S 2451   3.830   5.564   2.878 -1.3270 -1.1908  0.5261
   19SAPS  C211 2452   3.683   5.513   3.019 -0.5806  0.2055 -0.2698
   19SAPS  H11R 2453   3.622   5.452   2.949 -3.3031  1.6928  0.6705
   19SAPS  C212 2454   3.687   5.478   3.150  0.4926 -0.1463 -0.3439
   19SAPS  H12R 2455   3.617   5.405   3.192  0.2194  0.0875 -0.3914
   19SAPS  C213 2456   3.774   5.539   3.260  0.0136  0.2357 -0.5481
   19SAPS  H13R 2457   3.723   5.628   3.303  1.0467 -0.1838  1.6845
   19SAPS  H13S 2458   3.872   5.574   3.221 -0.8298  0.3148 -2.7294
   19SAPS  C214 2459   3.803   5.431   3.372 -0.5271  0.2473 -0.8902
   19SAPS  H14R 2460   3.808   5.326   3.341  1.9081 -0.6660  1.9840
   19SAPS  C215 2461   3.825   5.444   3.505 -0.2306  0.2561  0.3531
   19SAPS  H15R 2462   3.855   5.355   3.561  0.3268  0.4158  0.3103
   19SAPS  C216 2463   3.823   5.578   3.579  0.4120 -0.0263 -0.0148
   19SAPS  H16R 2464   3.807   5.666   3.513  1.0388  3.5101  4.0959
   19SAPS  H16S 2465   3.923   5.596   3.624  0.5329 -0.0838 -0.2634
   19SAPS  C217 2466   3.702   5.577   3.684 -0.1685  0.6479 -0.1375
   19SAPS  H17R 2467   3.719   5.491   3.751  1.2046  1.1695  0.2126
   19SAPS  H17S 2468   3.603   5.566   3.635 -0.5807  0.0534  0.8053
   19SAPS  C218 2469   3.702   5.701   3.775  1.2086 -0.1122  0.4151
   19SAPS  H18R 2470   3.798   5.714   3.829  1.5358 -0.1842 -0.1457
   19SAPS  H18S 2471   3.618   5.706   3.848  0.0077  0.5388 -0.9632
   19SAPS  C219 2472   3.678   5.829   3.691  0.2040  0.1303  0.4942
   19SAPS  H19R 2473   3.590   5.804   3.627 -2.3241  0.3482  3.6211
   19SAPS  H19S 2474   3.758   5.848   3.616  0.7374  1.1615  1.3036
   19SAPS  C220 2475   3.662   5.953   3.766  0.6767  0.0773 -0.3017
   19SAPS  H20R 2476   3.630   6.038   3.701 -0.7961  0.6819  1.1491
   19SAPS  H20S 2477   3.746   5.980   3.834 -0.3619  0.6158  0.8011
   19SAPS  H20T 2478   3.577   5.925   3.831 -0.4260  0.5776 -1.4634
   19SAPS   C33 2479   3.979   5.214   2.632  0.3752  0.0693  0.2545
   19SAPS   H3X 2480   3.875   5.190   2.664  0.7708  2.0984  3.5800
   19SAPS   H3Y 2481   3.969   5.280   2.544 -3.7813 -2.9702 -1.9312
   19SAPS   C34 2482   4.051   5.299   2.744  0.4561  0.5976 -0.5544
   19SAPS   H4X 2483   3.999   5.396   2.730 -1.1846  0.0169  1.1438
   19SAPS   H4Y 2484   4.159   5.315   2.721  0.8624  1.1645  1.5430
   19SAPS   C35 2485   4.023   5.248   2.887  0.5990 -0.0684 -0.0081
   19SAPS   H5X 2486   4.076   5.151   2.897 -0.1384 -0.4167  0.5705
   19SAPS   H5Y 2487   3.913   5.241   2.887  0.6761 -3.8162 -1.6567
   19SAPS   C36 2488   4.076   5.354   2.979  0.7420  0.3914  0.3230
   19SAPS   H6X 2489   4.015   5.446   2.974 -0.3259 -0.1559  2.1707
   19SAPS   H6Y 2490   4.182   5.375   2.953  0.9278  2.7263  2.5713
   19SAPS   C37 2491   4.065   5.309   3.120  0.0777 -0.5151  0.0007
   19SAPS   H7X 2492   4.093   5.201   3.126 -2.2950 -1.1670  0.0403
   19SAPS   H7Y 2493   3.959   5.321   3.150  0.8350  1.1030  2.2949
   19SAPS   C38 2494   4.154   5.388   3.216 -0.3271  1.0195  0.3038
   19SAPS   H8X 2495   4.150   5.341   3.316 -2.5881  1.1428  0.3070
   19SAPS   H8Y 2496   4.107   5.487   3.229  0.0550  1.5596 -1.9248
   19SAPS   C39 2497   4.295   5.378   3.181  0.0351 -0.1936 -0.3539
   19SAPS   H9X 2498   4.319   5.407   3.076  1.1093 -3.2684 -1.0600
   19SAPS   H9Y 2499   4.329   5.273   3.191  0.6181  0.1872  2.8086
   19SAPS  C310 2500   4.381   5.469   3.268  0.4377  0.3398  0.7562
   19SAPS  H10X 2501   4.347   5.452   3.372  1.1605  1.0724  1.1307
   19SAPS  H10Y 2502   4.358   5.576   3.247  1.5855  0.8261  1.8206
   19SAPS  C311 2503   4.536   5.459   3.257  0.4879 -0.1667  0.3155
   19SAPS  H11X 2504   4.584   5.552   3.294 -0.0677  0.2016  0.1242
   19SAPS  H11Y 2505   4.561   5.448   3.149  0.0826 -0.3452  0.2368
   19SAPS  C312 2506   4.601   5.345   3.330 -0.2680  0.7449 -0.1895
   19SAPS  H12X 2507   4.711   5.340   3.316 -0.2444  0.1341  0.1740
   19SAPS  H12Y 2508   4.549   5.255   3.291 -1.2789  1.2826 -0.1068
   19SAPS  C313 2509   4.582   5.354   3.477 -0.0870 -0.1355  0.2723
   19SAPS  H13X 2510   4.474   5.352   3.500  0.2136  0.7171  1.9461
   19SAPS  H13Y 2511   4.619   5.456   3.503 -0.2376 -0.6238  2.5524
   19SAPS  C314 2512   4.667   5.244   3.557  0.0214 -0.0810  0.2168
   19SAPS  H14X 2513   4.767   5.227   3.511  0.3701  0.5061  0.7407
   19SAPS  H14Y 2514   4.614   5.147   3.544 -1.3337  0.7358 -0.6706
   19SAPS  C315 2515   4.688   5.284   3.704  0.1397 -0.1635  0.3822
   19SAPS  H15X 2516   4.588   5.300   3.750 -0.2777 -0.6911 -0.3068
   19SAPS  H15Y 2517   4.732   5.386   3.714 -1.4155  0.4309  1.5913
   19SAPS  C316 2518   4.760   5.177   3.785 -0.4187 -0.0647  1.0278
   19SAPS  H16X 2519   4.867   5.168   3.758 -0.4642 -3.5560  1.5846
   19SAPS  H16Y 2520   4.710   5.084   3.752  0.1406 -0.1691  0.4629
   19SAPS  C317 2521   4.750   5.217   3.929  0.6011 -0.5123 -0.1777
   19SAPS  H17X 2522   4.646   5.197   3.962  1.6032 -3.0418  1.7829
   19SAPS  H17Y 2523   4.770   5.325   3.947  0.2826 -1.0037  4.1954
   19SAPS  C318 2524   4.841   5.133   4.021  0.2349  0.0168  0.8401
   19SAPS  H18X 2525   4.805   5.031   4.047 -1.1812  0.4724  0.7701
   19SAPS  H18Y 2526   4.850   5.182   4.120  1.8536 -1.2504  1.3589
   19SAPS  H18Z 2527   4.943   5.114   3.982 -1.0132  0.0126 -2.7415
   20SAPS     N 2528   4.700   6.116   1.928  0.0364  0.3998 -0.0882
   20SAPS   HN1 2529   4.650   6.048   1.989  1.6609  0.2688  1.1670
   20SAPS   HN2 2530   4.749   6.060   1.854  1.6013  0.0658  1.1474
   20SAPS   HN3 2531   4.768   6.170   1.984  1.6090 -2.3774  0.9000
   20SAPS   C12 2532   4.597   6.215   1.880  0.1152 -0.4507 -0.7514
   20SAPS  H12A 2533   4.550   6.253   1.969  3.3932 -1.4223  1.6083
   20SAPS   C13 2534   4.651   6.343   1.797  0.3936  0.0839 -0.1046
   20SAPS  O13A 2535   4.770   6.357   1.767 -0.5154 -0.8120 -0.1954
   20SAPS  O13B 2536   4.561   6.419   1.749  0.1396  0.0963  0.1754
   20SAPS   C11 2537   4.499   6.149   1.792  0.1057 -0.8895  0.1251
   20SAPS  H11A 2538   4.538   6.112   1.694 -0.8629  0.2201 -0.7129
   20SAPS  H11B 2539   4.407   6.209   1.777  0.1070 -0.8475  0.2880
   20SAPS     P 2540   4.306   5.982   1.845  0.1034 -0.7651  0.4050
   20SAPS   O13 2541   4.241   6.038   1.727  0.0447  0.5529  0.6749
   20SAPS   O14 2542   4.309   5.835   1.859 -0.5353 -0.2348  0.0547
   20SAPS   O12 2543   4.449   6.032   1.858 -0.0140  0.1001  0.2232
   20SAPS   O11 2544   4.242   6.052   1.974 -0.0187  0.0170 -0.2787
   20SAPS    C1 2545   4.302   6.000   2.097 -0.0208 -0.4784  0.1581
   20SAPS    HA 2546   4.285   5.891   2.105 -0.8009 -0.3868 -0.1465
   20SAPS    HB 2547   4.413   6.009   2.096  0.0839 -1.6768 -1.1201
   20SAPS    C2 2548   4.234   6.053   2.222 -0.3971 -0.3078 -0.8867
   20SAPS    HS 2549   4.277   6.008   2.314 -0.4065 -2.6415 -1.9608
   20SAPS   O21 2550   4.093   6.030   2.215  0.9896 -0.0721  0.3222
   20SAPS   C21 2551   4.031   6.014   2.331 -0.2744 -0.3333  0.9887
   20SAPS   O22 2552   4.084   5.993   2.441  0.4567 -0.3719  0.0910
   20SAPS   C22 2553   3.877   6.044   2.313  0.5946  0.1456 -0.1581
   20SAPS   H2R 2554   3.871   6.153   2.328 -2.1001  0.0519 -0.1817
   20SAPS   H2S 2555   3.833   6.016   2.215  0.0524 -0.2079  0.1825
   20SAPS    C3 2556   4.276   6.202   2.223  0.8507 -0.0039 -0.5400
   20SAPS    HX 2557   4.217   6.239   2.136  0.2932  0.7277  0.1332
   20SAPS    HY 2558   4.384   6.220   2.204  0.0962  1.4857 -4.3215
   20SAPS   O31 2559   4.227   6.282   2.339  0.0556  0.0522  0.4622
   20SAPS   C31 2560   4.310   6.288   2.438 -0.5355  0.3865  1.0154
   20SAPS   O32 2561   4.422   6.237   2.446  0.7565  0.2356  0.2245
   20SAPS   C32 2562   4.248   6.373   2.551 -0.4771  0.6931  0.0697
   20SAPS   H2X 2563   4.143   6.340   2.569 -0.1577 -0.5111 -0.1992
   20SAPS   H2Y 2564   4.243   6.477   2.510  0.6247  0.2203 -1.3080
   20SAPS   C23 2565   3.789   5.975   2.427 -0.0858 -0.4651  0.3162
   20SAPS   H3R 2566   3.819   6.009   2.528 -1.1185 -1.5628  1.0167
   20SAPS   H3S 2567   3.811   5.866   2.419  1.7902 -0.0234 -1.6013
   20SAPS   C24 2568   3.640   5.997   2.397 -0.2837  0.1456  0.1067
   20SAPS   H4R 2569   3.584   5.916   2.448  1.4273 -0.0234  1.8702
   20SAPS   H4S 2570   3.614   5.981   2.290  2.5136 -2.0749 -0.3740
   20SAPS   C25 2571   3.594   6.139   2.425 -0.3174 -0.0145  0.0251
   20SAPS   H5R 2572   3.628   6.216   2.355  0.7204  1.3851  1.9590
   20SAPS   C26 2573   3.521   6.178   2.533  0.8543  0.2445  0.2285
   20SAPS   H6R 2574   3.496   6.283   2.551 -1.1779 -0.1216 -0.2377
   20SAPS   C27 2575   3.479   6.079   2.639 -0.7954 -0.1990  0.5548
   20SAPS   H7R 2576   3.549   6.056   2.722 -2.6093 -0.8959  1.9554
   20SAPS   H7S 2577   3.464   5.978   2.595  1.2545 -0.4432  0.3348
   20SAPS   C28 2578   3.349   6.118   2.704  0.0333  0.2045 -0.3167
   20SAPS   H8R 2579   3.264   6.147   2.641  0.8135  0.4899 -1.2505
   20SAPS   C29 2580   3.321   6.107   2.837  0.0281 -0.2549 -0.0074
   20SAPS   H9R 2581   3.231   6.165   2.859 -0.6117 -0.2018 -2.4562
   20SAPS  C210 2582   3.415   6.063   2.939 -0.8588 -1.2294  0.0451
   20SAPS  H10R 2583   3.463   5.976   2.889  0.3127 -0.3707 -0.3841
   20SAPS  H10S 2584   3.357   6.038   3.030 -0.8914  0.5399  0.5554
   20SAPS  C211 2585   3.526   6.165   2.965 -0.3295 -1.0464  0.1215
   20SAPS  H11R 2586   3.518   6.270   2.932  0.4041 -0.8979  0.4014
   20SAPS  C212 2587   3.610   6.147   3.066 -0.7306 -0.1869  0.6693
   20SAPS  H12R 2588   3.691   6.221   3.072  0.1012 -0.8670 -1.2424
   20SAPS  C213 2589   3.621   6.023   3.148 -0.2235 -0.2182 -1.4639
   20SAPS  H13R 2590   3.726   5.992   3.129  1.1595  1.0971  2.8762
   20SAPS  H13S 2591   3.561   5.939   3.105 -0.0547 -1.2262  0.1644
   20SAPS  C214 2592   3.601   6.019   3.299 -0.2041 -0.1971 -0.2162
   20SAPS  H14R 2593   3.501   5.982   3.328  0.6855  0.1740  4.0157
   20SAPS  C215 2594   3.691   6.044   3.403  0.5733 -0.1329  0.6421
   20SAPS  H15R 2595   3.644   6.033   3.502 -0.4594 -1.4737  0.0395
   20SAPS  C216 2596   3.838   6.073   3.395  0.3257  0.1632 -0.6399
   20SAPS  H16R 2597   3.863   6.145   3.476  1.3975  0.6830 -1.4161
   20SAPS  H16S 2598   3.874   6.111   3.297 -1.4960  1.5912 -0.8187
   20SAPS  C217 2599   3.934   5.954   3.436 -0.0507 -0.0375  0.8979
   20SAPS  H17R 2600   3.902   5.868   3.374  2.0657 -0.6811  0.6227
   20SAPS  H17S 2601   3.913   5.916   3.538  0.2615 -0.5190  0.7866
   20SAPS  C218 2602   4.079   5.978   3.429 -0.3382 -0.0991  0.6631
   20SAPS  H18R 2603   4.114   6.072   3.477  0.4558  0.1587 -0.3698
   20SAPS  H18S 2604   4.106   5.988   3.322 -0.2247  0.5094  0.7465
   20SAPS  C219 2605   4.169   5.862   3.486 -0.3690 -0.3786  0.0131
   20SAPS  H19R 2606   4.155   5.837   3.593 -0.3467 -0.8908 -0.1008
   20SAPS  H19S 2607   4.271   5.907   3.489  0.3127 -1.6521 -2.0201
   20SAPS  C220 2608   4.167   5.735   3.408 -0.7842 -0.0286  0.7974
   20SAPS  H20R 2609   4.249   5.673   3.451  1.0564  0.6237 -1.5102
   20SAPS  H20S 2610   4.203   5.750   3.304 -0.6766 -2.0155  0.5063
   20SAPS  H20T 2611   4.070   5.681   3.407 -0.0547 -1.3770  0.1789
   20SAPS   C33 2612   4.329   6.366   2.679 -0.4169  0.3156  0.3763
   20SAPS   H3X 2613   4.432   6.400   2.655 -1.5939  3.1667 -1.1260
   20SAPS   H3Y 2614   4.330   6.265   2.725  0.8203  0.9671  1.8780
   20SAPS   C34 2615   4.269   6.465   2.773  0.6866  0.3483 -0.2741
   20SAPS   H4X 2616   4.170   6.434   2.815 -0.7448  0.3558 -3.3818
   20SAPS   H4Y 2617   4.253   6.562   2.723 -2.0796  1.1390  1.8792
   20SAPS   C35 2618   4.349   6.521   2.888 -0.0326 -0.4222  0.3098
   20SAPS   H5X 2619   4.306   6.616   2.925 -2.2953 -2.0087  2.1213
   20SAPS   H5Y 2620   4.454   6.532   2.854 -0.5400  2.6119 -0.5673
   20SAPS   C36 2621   4.355   6.420   2.997 -0.3275 -0.0220  0.1637
   20SAPS   H6X 2622   4.453   6.441   3.046  0.0514  1.3468 -1.0878
   20SAPS   H6Y 2623   4.356   6.314   2.965 -0.4415 -0.0077  0.1152
   20SAPS   C37 2624   4.244   6.451   3.095 -0.2136 -0.6669  1.5098
   20SAPS   H7X 2625   4.141   6.427   3.061  0.1381 -0.9902  0.6587
   20SAPS   H7Y 2626   4.250   6.559   3.123  0.6857  0.1082 -1.3817
   20SAPS   C38 2627   4.253   6.370   3.227  0.0749  0.0298  0.8251
   20SAPS   H8X 2628   4.358   6.387   3.257  1.3435 -2.5599 -1.7025
   20SAPS   H8Y 2629   4.244   6.262   3.203 -1.0064 -0.3502  2.6804
   20SAPS   C39 2630   4.154   6.414   3.329  0.1772 -0.3578  0.5940
   20SAPS   H9X 2631   4.055   6.388   3.286 -2.2052  3.4678  3.1569
   20SAPS   H9Y 2632   4.152   6.525   3.326 -0.9855 -0.3562  1.1425
   20SAPS  C310 2633   4.169   6.345   3.461  0.0232  0.4223  0.3256
   20SAPS  H10X 2634   4.223   6.249   3.448 -1.6191 -0.4634 -0.2428
   20SAPS  H10Y 2635   4.067   6.323   3.499  0.2886 -1.3690  0.1218
   20SAPS  C311 2636   4.246   6.437   3.555 -0.4381  0.8342 -0.0034
   20SAPS  H11X 2637   4.183   6.523   3.589 -0.1722  1.4312 -0.9773
   20SAPS  H11Y 2638   4.335   6.467   3.496 -0.0763  3.0277  1.5128
   20SAPS  C312 2639   4.292   6.352   3.678 -0.5211  0.0698 -0.7954
   20SAPS  H12X 2640   4.353   6.415   3.746 -2.2105  1.1506 -0.2245
   20SAPS  H12Y 2641   4.352   6.267   3.639 -0.9418 -0.0232 -1.2553
   20SAPS  C313 2642   4.183   6.300   3.765 -0.5037 -0.2222 -0.2126
   20SAPS  H13X 2643   4.129   6.229   3.699  1.8211 -1.1107 -1.2531
   20SAPS  H13Y 2644   4.116   6.380   3.805  0.9161 -0.3488  2.6357
   20SAPS  C314 2645   4.244   6.208   3.869  0.6200 -0.2662 -0.2477
   20SAPS  H14X 2646   4.333   6.253   3.918 -0.3346  0.9667  0.4424
   20SAPS  H14Y 2647   4.300   6.122   3.827  1.2169 -0.3694  0.7130
   20SAPS  C315 2648   4.142   6.166   3.974 -0.6793  0.7435 -0.3044
   20SAPS  H15X 2649   4.117   6.257   4.033 -0.6656  0.5508  0.0035
   20SAPS  H15Y 2650   4.194   6.082   4.025 -0.6686 -1.1773 -3.2228
   20SAPS  C316 2651   4.021   6.090   3.914  0.2686 -0.6522  0.1803
   20SAPS  H16X 2652   4.055   6.037   3.823  1.1176  0.9511 -0.4772
   20SAPS  H16Y 2653   3.952   6.169   3.879  0.2637 -0.0072  1.5753
   20SAPS  C317 2654   3.958   5.991   4.011  0.3782  0.4770 -1.1668
   20SAPS  H17X 2655   4.032   5.914   4.040 -0.7431 -1.1157 -2.3380
   20SAPS  H17Y 2656   3.889   5.928   3.950  1.6295 -2.5968  0.3745
   20SAPS  C318 2657   3.874   6.044   4.126  0.5053  0.1682 -0.2099
   20SAPS  H18X 2658   3.825   6.137   4.090 -1.6179 -0.0502  1.8944
   20SAPS  H18Y 2659   3.918   6.075   4.223 -1.6783  0.9410  0.5987
   20SAPS  H18Z 2660   3.794   5.969   4.146  0.7990  0.2639  1.4762
   21CHL1    C3 2661   1.363   1.574   5.607 -0.3560  0.0410  0.7738
   21CHL1    H3 2662   1.278   1.527   5.553  0.5930 -0.9265  0.0748
   21CHL1    O3 2663   1.342   1.552   5.744  0.1271  0.2790  0.2885
   21CHL1   H3' 2664   1.411   1.602   5.788  0.6079 -0.3040  0.2110
   21CHL1    C4 2665   1.505   1.521   5.569  0.3411  0.3776  0.0725
   21CHL1   H4A 2666   1.590   1.568   5.621  1.3553 -1.0214 -0.2674
   21CHL1   H4B 2667   1.507   1.415   5.602  0.1363  0.0218 -1.0098
   21CHL1    C5 2668   1.519   1.536   5.419  0.1145 -0.6588  0.4935
   21CHL1    C6 2669   1.540   1.432   5.340 -0.0619  0.7675 -0.1283
   21CHL1    H6 2670   1.555   1.331   5.382 -0.0852  0.8676  0.1247
   21CHL1    C7 2671   1.557   1.432   5.189  0.2210 -0.4513  0.3297
   21CHL1   H7A 2672   1.633   1.359   5.155  1.0275  0.1778  0.7593
   21CHL1   H7B 2673   1.463   1.394   5.145 -0.7489  0.0658  1.8488
   21CHL1    C8 2674   1.591   1.577   5.148  0.1981  0.6212  0.1322
   21CHL1    H8 2675   1.695   1.603   5.177  0.2652  0.4639  0.0397
   21CHL1   C14 2676   1.563   1.584   4.999  0.4121 -0.1638 -1.2545
   21CHL1   H14 2677   1.453   1.570   4.991 -0.0743  1.4775  1.3633
   21CHL1   C15 2678   1.620   1.471   4.909 -0.3484 -0.4869 -0.3729
   21CHL1  H15A 2679   1.727   1.462   4.938 -0.4553  2.8985  1.5993
   21CHL1  H15B 2680   1.559   1.380   4.925 -1.6459  0.7012  1.9491
   21CHL1   C16 2681   1.600   1.523   4.766  0.4435 -0.0406 -0.2111
   21CHL1  H16A 2682   1.687   1.504   4.700  0.2487  0.9978 -0.7936
   21CHL1  H16B 2683   1.513   1.485   4.708  0.4663  0.5583 -0.6471
   21CHL1   C17 2684   1.565   1.674   4.776  0.5164  0.0971  0.2493
   21CHL1   H17 2685   1.458   1.695   4.751  1.0661  1.1477 -1.3960
   21CHL1   C13 2686   1.589   1.716   4.931 -0.2310  0.3949  0.7782
   21CHL1   C18 2687   1.739   1.745   4.951 -0.4123  0.2229  0.1038
   21CHL1  H18A 2688   1.801   1.673   4.895 -2.4987 -0.7418 -1.1089
   21CHL1  H18B 2689   1.759   1.843   4.903  2.8143 -0.7371 -0.7016
   21CHL1  H18C 2690   1.771   1.763   5.056  1.3011 -0.6943 -0.2412
   21CHL1   C12 2691   1.495   1.820   5.002  1.0180 -1.2016  0.3099
   21CHL1  H12A 2692   1.523   1.918   4.956  1.5937 -2.0929 -1.3242
   21CHL1  H12B 2693   1.386   1.800   4.992  0.8374 -0.3270  0.4303
   21CHL1   C11 2694   1.512   1.827   5.156  0.1809 -0.1628 -0.3843
   21CHL1  H11A 2695   1.606   1.869   5.199 -0.4060 -3.2219  4.7251
   21CHL1  H11B 2696   1.432   1.896   5.191 -0.5307 -0.5903 -1.1342
   21CHL1    C9 2697   1.498   1.683   5.209 -0.4874  0.0105 -0.0022
   21CHL1    H9 2698   1.394   1.650   5.188  0.3022 -2.5263 -0.2324
   21CHL1   C10 2699   1.500   1.681   5.365  0.8944 -0.8957  0.7662
   21CHL1   C19 2700   1.620   1.754   5.414  0.0413 -0.2683 -0.0107
   21CHL1  H19A 2701   1.716   1.721   5.370 -0.0584  0.4737 -0.7991
   21CHL1  H19B 2702   1.614   1.864   5.401  1.9435 -0.0513  0.5847
   21CHL1  H19C 2703   1.634   1.746   5.524  0.1678 -4.1489 -0.1571
   21CHL1    C1 2704   1.370   1.748   5.426 -0.2785 -0.3566 -0.3834
   21CHL1   H1A 2705   1.373   1.859   5.414 -2.0316 -0.2302  0.0121
   21CHL1   H1B 2706   1.283   1.704   5.373 -0.5626  0.5946 -0.7216
   21CHL1    C2 2707   1.357   1.729   5.577 -0.3261  0.6533 -0.2459
   21CHL1   H2A 2708   1.260   1.767   5.616 -0.2652  1.0111 -0.4368
   21CHL1   H2B 2709   1.426   1.787   5.642 -1.0532  0.0036  1.1683
   21CHL1   C20 2710   1.637   1.763   4.668  0.1323 -0.5140 -0.4330
   21CHL1   H20 2711   1.744   1.767   4.699 -0.1073  0.9879  0.2975
   21CHL1   C21 2712   1.578   1.912   4.678  0.2031 -0.1005 -0.4818
   21CHL1  H21A 2713   1.468   1.910   4.690  0.1984 -0.0217 -0.5082
   21CHL1  H21B 2714   1.609   1.969   4.588 -0.9920  1.9073  0.3191
   21CHL1  H21C 2715   1.620   1.966   4.766 -1.0111  0.1265 -0.0281
   21CHL1   C22 2716   1.628   1.723   4.526  0.0833  0.1356 -0.2330
   21CHL1  H22A 2717   1.682   1.804   4.471  0.6688 -0.9406 -1.2853
   21CHL1  H22B 2718   1.691   1.632   4.517  1.0411  0.7430  0.2244
   21CHL1   C23 2719   1.485   1.721   4.463  0.0929  0.3145 -0.9715
   21CHL1  H23A 2720   1.419   1.682   4.542 -1.5214 -0.8041 -2.7941
   21CHL1  H23B 2721   1.453   1.825   4.439 -2.6248  0.1206  1.3083
   21CHL1   C24 2722   1.474   1.615   4.352 -0.0817  0.1572  1.0530
   21CHL1  H24A 2723   1.542   1.641   4.268  0.9055  0.9279  2.0519
   21CHL1  H24B 2724   1.520   1.518   4.382  2.5635  0.8328 -0.5226
   21CHL1   C25 2725   1.328   1.582   4.306 -0.3248  0.2673  0.1815
   21CHL1   H25 2726   1.274   1.666   4.258 -0.3057  0.2319  0.0988
   21CHL1   C26 2727   1.330   1.478   4.186  0.1461 -0.0524 -0.5188
   21CHL1  H26A 2728   1.227   1.436   4.182  0.0402  0.0216  0.9266
   21CHL1  H26B 2729   1.358   1.525   4.089  1.9916 -2.0694 -1.0364
   21CHL1  H26C 2730   1.412   1.403   4.192  1.9736  1.8422 -0.7209
   21CHL1   C27 2731   1.242   1.506   4.416 -0.1420  0.1096  0.6644
   21CHL1  H27A 2732   1.242   1.568   4.509 -0.7077 -0.8640  1.3261
   21CHL1  H27B 2733   1.142   1.482   4.374  0.2777 -1.9766  0.7683
   21CHL1  H27C 2734   1.289   1.412   4.453 -0.0574 -0.5960 -1.1607
   22CHL1    C3 2735   2.425   1.673   5.939  0.8227  0.3456 -0.3478
   22CHL1    H3 2736   2.323   1.628   5.932  0.8500 -0.5077  3.2124
   22CHL1    O3 2737   2.477   1.668   6.070 -0.2500  0.7415  0.0521
   22CHL1   H3' 2738   2.556   1.722   6.075  0.8989 -0.5562 -2.3955
   22CHL1    C4 2739   2.531   1.595   5.850  0.1394 -0.0538 -0.6081
   22CHL1   H4A 2740   2.634   1.632   5.868  0.6567 -1.3631 -0.7528
   22CHL1   H4B 2741   2.533   1.488   5.878  1.6264 -0.2769 -1.4573
   22CHL1    C5 2742   2.509   1.611   5.705  0.3986  0.6830  0.2027
   22CHL1    C6 2743   2.499   1.507   5.620  0.5502 -0.1922  0.1425
   22CHL1    H6 2744   2.514   1.401   5.645 -1.9155 -0.2839  1.6155
   22CHL1    C7 2745   2.486   1.525   5.475  0.1756  0.5164  0.1252
   22CHL1   H7A 2746   2.536   1.441   5.422 -0.7640 -0.2144  0.3925
   22CHL1   H7B 2747   2.379   1.514   5.448  0.6532  1.6173 -2.4836
   22CHL1    C8 2748   2.539   1.660   5.429  0.1437  0.1699 -0.4472
   22CHL1    H8 2749   2.647   1.678   5.450  0.1158 -1.5515  1.4253
   22CHL1   C14 2750   2.495   1.679   5.287 -0.2012 -0.1350  0.1563
   22CHL1   H14 2751   2.384   1.677   5.284 -0.2920  1.4183  1.1453
   22CHL1   C15 2752   2.531   1.577   5.182 -0.2702 -0.4812 -0.3994
   22CHL1  H15A 2753   2.637   1.547   5.200 -0.7863 -2.0322  0.2402
   22CHL1  H15B 2754   2.468   1.486   5.192  1.2445 -1.3040  3.5151
   22CHL1   C16 2755   2.511   1.649   5.048 -0.5332  0.1301  0.0355
   22CHL1  H16A 2756   2.594   1.652   4.974  0.3788 -1.7892  0.9090
   22CHL1  H16B 2757   2.431   1.589   4.999 -0.2635 -2.2079  2.2578
   22CHL1   C17 2758   2.480   1.798   5.076 -0.1677 -0.3746  0.2763
   22CHL1   H17 2759   2.370   1.800   5.089  0.0098  0.1517  2.1136
   22CHL1   C13 2760   2.522   1.818   5.220  0.2528 -0.5948 -0.3772
   22CHL1   C18 2761   2.676   1.839   5.223  0.0202 -0.8980  0.6426
   22CHL1  H18A 2762   2.727   1.759   5.166 -1.6863 -1.3888 -0.2665
   22CHL1  H18B 2763   2.700   1.932   5.168 -1.2170 -1.2444 -0.5244
   22CHL1  H18C 2764   2.725   1.846   5.323  0.5749 -0.8919  0.3754
   22CHL1   C12 2765   2.446   1.921   5.299  0.4351 -0.0144 -0.3265
   22CHL1  H12A 2766   2.472   2.025   5.269  1.8049  0.0474  0.9689
   22CHL1  H12B 2767   2.339   1.903   5.276  0.4538  1.4219 -1.7246
   22CHL1   C11 2768   2.468   1.908   5.452 -0.1382  0.0118 -0.2661
   22CHL1  H11A 2769   2.567   1.957   5.458 -1.3873  2.6073  0.8213
   22CHL1  H11B 2770   2.405   1.973   5.516 -0.6082 -1.2485  0.6014
   22CHL1    C9 2771   2.462   1.766   5.508 -0.2852  0.2596 -0.9635
   22CHL1    H9 2772   2.352   1.747   5.508 -0.0061 -1.4269 -1.0583
   22CHL1   C10 2773   2.492   1.755   5.660 -0.2173 -0.3322 -0.7130
   22CHL1   C19 2774   2.629   1.819   5.688  0.1254 -0.4477 -0.4238
   22CHL1  H19A 2775   2.645   1.836   5.797 -1.4861  2.5268 -0.5331
   22CHL1  H19B 2776   2.715   1.764   5.644  1.4152  0.6436  0.6639
   22CHL1  H19C 2777   2.632   1.920   5.644  0.2466 -0.1144  0.3387
   22CHL1    C1 2778   2.382   1.831   5.741  0.1782 -0.2779  0.9311
   22CHL1   H1A 2779   2.386   1.938   5.710 -2.0564 -0.5392 -0.4819
   22CHL1   H1B 2780   2.279   1.803   5.710 -1.3587  2.0951  3.4260
   22CHL1    C2 2781   2.412   1.811   5.889 -0.1488 -0.5858 -0.1325
   22CHL1   H2A 2782   2.333   1.865   5.944 -0.4068  1.5842 -2.4542
   22CHL1   H2B 2783   2.501   1.867   5.925 -0.7476  1.7813 -2.0381
   22CHL1   C20 2784   2.525   1.894   4.963  0.2657 -0.5971 -0.0998
   22CHL1   H20 2785   2.636   1.894   4.965  0.2969 -2.4401 -0.3459
   22CHL1   C21 2786   2.477   2.034   4.984  0.5944  0.4426  0.3073
   22CHL1  H21A 2787   2.366   2.039   4.973  0.5247 -0.5230  0.4389
   22CHL1  H21B 2788   2.513   2.110   4.912  0.3613  3.1820  2.8637
   22CHL1  H21C 2789   2.502   2.074   5.085 -0.6496 -1.9915  1.6752
   22CHL1   C22 2790   2.492   1.854   4.811  0.1984 -0.0821 -0.5322
   22CHL1  H22A 2791   2.554   1.922   4.748 -0.8106  0.0680 -1.3846
   22CHL1  H22B 2792   2.529   1.753   4.784  0.2161 -0.1602 -0.2225
   22CHL1   C23 2793   2.348   1.852   4.762 -0.2257 -0.7138 -0.0381
   22CHL1  H23A 2794   2.284   1.792   4.831 -1.0035 -0.9009 -0.9040
   22CHL1  H23B 2795   2.296   1.950   4.759 -0.2146 -0.5490  2.6837
   22CHL1   C24 2796   2.341   1.785   4.625 -0.1536 -0.3314 -0.2631
   22CHL1  H24A 2797   2.379   1.858   4.551 -1.1406  0.7823  0.2863
   22CHL1  H24B 2798   2.391   1.686   4.624  4.2907  1.5628  2.5098
   22CHL1   C25 2799   2.190   1.743   4.591 -1.1026  0.7156 -0.0654
   22CHL1   H25 2800   2.125   1.831   4.606 -1.3199  0.6927 -0.8149
   22CHL1   C26 2801   2.183   1.723   4.437  0.1319  0.4272 -0.4715
   22CHL1  H26A 2802   2.236   1.630   4.411  1.0484  1.1061 -1.1078
   22CHL1  H26B 2803   2.074   1.726   4.414 -0.0957 -1.3126  0.2517
   22CHL1  H26C 2804   2.226   1.817   4.394 -2.3603  1.5348 -0.7234
   22CHL1   C27 2805   2.143   1.625   4.667  0.0176 -0.1518 -0.1950
   22CHL1  H27A 2806   2.235   1.566   4.685 -1.0918 -1.3459  2.0535
   22CHL1  H27B 2807   2.098   1.650   4.766 -1.3401  3.0379 -1.4939
   22CHL1  H27C 2808   2.069   1.571   4.604  1.1981  0.3679 -2.0979
   23CHL1    C3 2809   0.995   2.544   6.135  0.8141  0.5737  0.6345
   23CHL1    H3 2810   0.917   2.624   6.135 -2.9141 -2.7108  1.4888
   23CHL1    O3 2811   1.034   2.522   6.269 -0.1983  0.1736 -0.2812
   23CHL1   H3' 2812   0.961   2.472   6.306  0.0412 -1.4194 -1.8257
   23CHL1    C4 2813   0.930   2.413   6.096  0.5120 -0.3902 -0.4897
   23CHL1   H4A 2814   1.001   2.328   6.106  0.6928 -0.0048  2.4019
   23CHL1   H4B 2815   0.849   2.389   6.169  0.4617  0.6786 -0.1748
   23CHL1    C5 2816   0.879   2.424   5.953 -0.5732 -0.0270  0.9442
   23CHL1    C6 2817   0.749   2.405   5.919 -0.7361 -0.6207 -0.1476
   23CHL1    H6 2818   0.680   2.378   6.000 -0.3807 -0.3997  0.2348
   23CHL1    C7 2819   0.689   2.407   5.784 -0.3327  0.0092 -0.3852
   23CHL1   H7A 2820   0.633   2.311   5.778  0.2714 -0.3724 -0.0341
   23CHL1   H7B 2821   0.633   2.500   5.759  0.9705  0.5281 -1.5326
   23CHL1    C8 2822   0.802   2.397   5.680  0.4822  0.3375  0.4348
   23CHL1    H8 2823   0.835   2.291   5.675  1.5209  0.7148 -2.4002
   23CHL1   C14 2824   0.749   2.428   5.541 -0.2694  0.3698 -0.1850
   23CHL1   H14 2825   0.706   2.529   5.552  0.4980  0.8996 -1.6811
   23CHL1   C15 2826   0.631   2.343   5.502 -0.0778  0.4846 -0.4666
   23CHL1  H15A 2827   0.648   2.239   5.537 -0.6013  0.4039 -0.4538
   23CHL1  H15B 2828   0.536   2.392   5.531 -1.0574 -2.1259  1.0602
   23CHL1   C16 2829   0.625   2.341   5.347 -0.9055 -1.0113  0.5594
   23CHL1  H16A 2830   0.638   2.237   5.310 -1.1134 -0.3966 -1.3685
   23CHL1  H16B 2831   0.527   2.371   5.306 -0.4089  0.7182  0.5461
   23CHL1   C17 2832   0.746   2.430   5.308 -0.0762  0.2924 -0.5423
   23CHL1   H17 2833   0.702   2.532   5.314 -1.4419 -0.3266  0.5613
   23CHL1   C13 2834   0.849   2.415   5.422  0.2114 -0.7359 -0.4216
   23CHL1   C18 2835   0.904   2.271   5.419 -0.5234 -0.6126  0.1944
   23CHL1  H18A 2836   0.969   2.249   5.506  1.5496 -2.8538 -1.7512
   23CHL1  H18B 2837   0.838   2.185   5.395 -0.1216 -1.0960  0.8035
   23CHL1  H18C 2838   0.969   2.263   5.329 -2.1626 -1.5455 -0.9645
   23CHL1   C12 2839   0.958   2.525   5.450 -0.0298  0.4936  0.0067
   23CHL1  H12A 2840   1.036   2.508   5.373 -0.2213 -0.9776  0.0999
   23CHL1  H12B 2841   0.912   2.623   5.428 -0.5019  0.0413 -1.0836
   23CHL1   C11 2842   1.022   2.504   5.591  0.4194 -0.0641  0.7239
   23CHL1  H11A 2843   1.083   2.411   5.584 -0.2934 -0.4248 -1.7316
   23CHL1  H11B 2844   1.081   2.596   5.613  1.8208 -0.2583 -1.8319
   23CHL1    C9 2845   0.923   2.485   5.711 -0.4637  0.2933  0.2110
   23CHL1    H9 2846   0.887   2.589   5.722 -0.8374  0.3470 -1.2307
   23CHL1   C10 2847   0.989   2.457   5.850  0.1024 -0.4240 -0.3225
   23CHL1   C19 2848   1.070   2.325   5.837 -0.0479 -0.5957  0.1333
   23CHL1  H19A 2849   1.108   2.288   5.935  2.5105  0.1309 -0.5178
   23CHL1  H19B 2850   1.005   2.244   5.798 -1.5197  0.9103 -0.7047
   23CHL1  H19C 2851   1.147   2.335   5.759 -0.4761  0.9899 -0.1163
   23CHL1    C1 2852   1.081   2.572   5.899  0.4762 -0.4859 -0.4082
   23CHL1   H1A 2853   1.169   2.571   5.831  0.5440  2.2702 -0.4642
   23CHL1   H1B 2854   1.032   2.669   5.878  0.4867 -0.2980  0.4059
   23CHL1    C2 2855   1.119   2.561   6.044 -0.0417  0.1018  0.0509
   23CHL1   H2A 2856   1.187   2.641   6.080  0.8496 -1.2563  1.5205
   23CHL1   H2B 2857   1.183   2.470   6.053  0.8894  0.6614 -0.6479
   23CHL1   C20 2858   0.787   2.399   5.159 -0.4730  0.2150 -0.1121
   23CHL1   H20 2859   0.828   2.296   5.151 -1.9462 -0.4648  0.7188
   23CHL1   C21 2860   0.891   2.507   5.121 -0.5492  0.0901 -0.2345
   23CHL1  H21A 2861   0.846   2.608   5.133  0.8151  1.2611 -3.5608
   23CHL1  H21B 2862   0.935   2.497   5.019 -0.4132  0.4729 -0.2158
   23CHL1  H21C 2863   0.977   2.504   5.190  1.7970 -2.4576 -3.0157
   23CHL1   C22 2864   0.666   2.411   5.064  0.2022  0.6216  0.7616
   23CHL1  H22A 2865   0.577   2.349   5.088  0.5533 -0.9531 -1.7155
   23CHL1  H22B 2866   0.623   2.514   5.071 -1.4272 -0.0542  1.1496
   23CHL1   C23 2867   0.688   2.392   4.913 -0.0640  0.1664 -0.0422
   23CHL1  H23A 2868   0.587   2.395   4.867  0.3638 -2.5744 -1.3593
   23CHL1  H23B 2869   0.749   2.476   4.874 -0.6002  0.8613  0.5841
   23CHL1   C24 2870   0.742   2.254   4.875 -0.6253  0.3052  0.9288
   23CHL1  H24A 2871   0.852   2.253   4.885 -0.7193 -1.4439  2.2335
   23CHL1  H24B 2872   0.713   2.181   4.953 -0.2074 -2.0932 -1.0564
   23CHL1   C25 2873   0.685   2.209   4.739  0.3437 -0.0256  0.0412
   23CHL1   H25 2874   0.575   2.202   4.748  0.3323 -3.0842 -1.3156
   23CHL1   C26 2875   0.718   2.304   4.629 -0.2816  0.5617 -0.3638
   23CHL1  H26A 2876   0.827   2.324   4.624  0.0383 -0.8810  0.2805
   23CHL1  H26B 2877   0.697   2.275   4.524 -0.6921  0.8158 -0.3567
   23CHL1  H26C 2878   0.660   2.398   4.647 -1.2951 -0.1613  0.2554
   23CHL1   C27 2879   0.743   2.073   4.702  0.2704 -0.8449 -0.3462
   23CHL1  H27A 2880   0.853   2.082   4.696  0.2322  0.4894  0.4072
   23CHL1  H27B 2881   0.706   1.991   4.767  0.6313 -1.1235 -0.4937
   23CHL1  H27C 2882   0.714   2.043   4.599  0.8793 -0.3939 -0.6552
   24CHL1    C3 2883   1.974   3.921   5.702  0.0964 -0.0316  0.5267
   24CHL1    H3 2884   1.863   3.926   5.696  0.1264 -0.3389 -0.4181
   24CHL1    O3 2885   2.005   3.881   5.837  0.6681 -0.4403  0.2546
   24CHL1   H3' 2886   1.987   3.953   5.899  1.0697 -0.5549  0.5057
   24CHL1    C4 2887   2.018   3.802   5.612 -0.3678  0.6241  0.4216
   24CHL1   H4A 2888   2.126   3.788   5.632  0.2127  0.8054 -2.2824
   24CHL1   H4B 2889   1.965   3.709   5.642  1.8816 -0.6960  0.4907
   24CHL1    C5 2890   1.986   3.832   5.465 -0.8700  0.1012 -0.1430
   24CHL1    C6 2891   1.920   3.748   5.388  0.6218  0.6521 -0.4868
   24CHL1    H6 2892   1.884   3.656   5.436 -0.4385  1.7727  0.9758
   24CHL1    C7 2893   1.907   3.770   5.235  0.3941  0.6678 -0.7066
   24CHL1   H7A 2894   1.941   3.679   5.181 -2.0483  0.2524 -1.6775
   24CHL1   H7B 2895   1.800   3.775   5.207  0.6589  0.9297 -1.7029
   24CHL1    C8 2896   1.987   3.891   5.177  0.4987  0.0110 -0.4001
   24CHL1    H8 2897   2.088   3.850   5.154 -0.0228 -1.3606 -0.2922
   24CHL1   C14 2898   1.921   3.937   5.047  0.5909  0.5570 -0.2033
   24CHL1   H14 2899   1.819   3.974   5.071  0.3526  0.5978 -1.2157
   24CHL1   C15 2900   1.898   3.833   4.937 -1.3291  0.7506  0.5214
   24CHL1  H15A 2901   1.991   3.774   4.920 -0.4735  2.5039 -1.2523
   24CHL1  H15B 2902   1.810   3.770   4.961 -1.3590 -0.1376 -1.6460
   24CHL1   C16 2903   1.878   3.919   4.809 -0.5438  0.4615 -0.6956
   24CHL1  H16A 2904   1.952   3.884   4.733  1.1760 -0.0823  1.1260
   24CHL1  H16B 2905   1.776   3.910   4.765 -0.2281  1.9417 -1.8085
   24CHL1   C17 2906   1.910   4.068   4.848  0.5736 -0.4181  0.3565
   24CHL1   H17 2907   1.806   4.101   4.867  0.4140 -2.1042  2.8999
   24CHL1   C13 2908   1.990   4.058   4.981 -0.1828  1.0190 -0.2040
   24CHL1   C18 2909   2.133   4.012   4.935  0.5048  0.0208 -0.7359
   24CHL1  H18A 2910   2.130   3.935   4.854  0.7188 -1.2156  0.4041
   24CHL1  H18B 2911   2.189   4.097   4.890 -0.1021 -0.0850 -1.7347
   24CHL1  H18C 2912   2.193   3.983   5.023  0.2776  0.8006 -0.3124
   24CHL1   C12 2913   1.985   4.175   5.088  0.1352  0.8118 -0.5111
   24CHL1  H12A 2914   2.023   4.268   5.042 -0.2847  1.2785  0.0657
   24CHL1  H12B 2915   1.877   4.193   5.108 -0.3628  0.8557 -2.9959
   24CHL1   C11 2916   2.061   4.141   5.214  0.0699 -0.3942  0.1109
   24CHL1  H11A 2917   2.163   4.114   5.177 -0.0892  0.7596 -1.2217
   24CHL1  H11B 2918   2.075   4.228   5.282 -0.1483  0.6834 -1.1882
   24CHL1    C9 2919   1.996   4.011   5.277  0.3742 -0.6517  0.1805
   24CHL1    H9 2920   1.892   4.046   5.298  0.3086 -0.1581 -0.9100
   24CHL1   C10 2921   2.046   3.966   5.418  1.3745 -0.4684 -0.6578
   24CHL1   C19 2922   2.196   3.965   5.408  0.4923  0.4348  0.2533
   24CHL1  H19A 2923   2.253   3.937   5.498  0.0467 -2.9640 -0.3826
   24CHL1  H19B 2924   2.221   3.890   5.330  1.1068  1.7746 -0.8833
   24CHL1  H19C 2925   2.227   4.066   5.374  2.3912 -0.5483 -1.0946
   24CHL1    C1 2926   2.007   4.080   5.523 -0.5620  0.3665 -0.2214
   24CHL1   H1A 2927   2.060   4.175   5.503  0.8253 -0.0584  1.2990
   24CHL1   H1B 2928   1.898   4.096   5.508 -0.6239  1.5746  1.2959
   24CHL1    C2 2929   2.025   4.059   5.668 -0.7643  0.2091 -0.9134
   24CHL1   H2A 2930   1.992   4.131   5.745 -0.5650  1.3848 -1.9014
   24CHL1   H2B 2931   2.134   4.049   5.686 -0.9319 -0.3766 -0.1139
   24CHL1   C20 2932   1.982   4.146   4.739  0.4114  0.5009 -0.0264
   24CHL1   H20 2933   2.072   4.086   4.713  1.2339  1.5954  0.2110
   24CHL1   C21 2934   2.024   4.293   4.774 -0.4528  0.0113  0.4071
   24CHL1  H21A 2935   2.108   4.299   4.847  0.2474 -0.8819 -0.2966
   24CHL1  H21B 2936   1.929   4.338   4.809 -0.8920  0.6166 -1.4332
   24CHL1  H21C 2937   2.065   4.343   4.684 -0.7302 -1.6464 -0.6835
   24CHL1   C22 2938   1.905   4.149   4.599 -0.3089  0.5685 -0.4578
   24CHL1  H22A 2939   1.982   4.162   4.520  2.0162 -3.0584  0.9515
   24CHL1  H22B 2940   1.862   4.049   4.577 -0.5290  0.2049  1.4384
   24CHL1   C23 2941   1.791   4.249   4.606  0.4577  0.0289 -0.0120
   24CHL1  H23A 2942   1.727   4.242   4.697  1.3174  1.0629  0.6918
   24CHL1  H23B 2943   1.830   4.352   4.595  0.6476 -0.2220 -2.0598
   24CHL1   C24 2944   1.697   4.222   4.483  0.5754 -0.2962 -0.0746
   24CHL1  H24A 2945   1.754   4.268   4.399  0.6144 -0.2581 -0.0276
   24CHL1  H24B 2946   1.669   4.119   4.454  0.0240  0.2239 -1.4692
   24CHL1   C25 2947   1.558   4.298   4.490 -0.1444 -0.3681  0.4267
   24CHL1   H25 2948   1.578   4.404   4.515  1.1689 -0.2768 -0.8668
   24CHL1   C26 2949   1.483   4.300   4.357  0.6192 -0.3182 -0.5311
   24CHL1  H26A 2950   1.445   4.199   4.331 -0.4936 -0.4097  1.2347
   24CHL1  H26B 2951   1.393   4.366   4.363 -0.3586 -1.4844 -1.7418
   24CHL1  H26C 2952   1.552   4.346   4.284 -0.0672  1.1021 -0.3253
   24CHL1   C27 2953   1.473   4.235   4.602 -1.0239  0.8032 -0.3029
   24CHL1  H27A 2954   1.372   4.280   4.613 -0.1417  2.5766  1.1795
   24CHL1  H27B 2955   1.452   4.128   4.582  2.5302 -0.0267 -0.3078
   24CHL1  H27C 2956   1.515   4.241   4.704 -2.3353  1.2782  0.2262
   25CHL1    C3 2957   5.006   5.565   5.990  0.4450  0.1741 -0.0832
   25CHL1    H3 2958   5.103   5.512   5.975 -0.5747 -1.5544 -0.8929
   25CHL1    O3 2959   4.975   5.537   6.127  0.3656 -0.6673 -0.2438
   25CHL1   H3' 2960   5.045   5.581   6.175  0.3186 -1.2148  0.3473
   25CHL1    C4 2961   5.018   5.710   5.965 -0.0921  0.2715 -0.2011
   25CHL1   H4A 2962   4.924   5.764   5.989  0.8377  1.6359  0.4857
   25CHL1   H4B 2963   5.097   5.740   6.036 -1.5515 -0.1359  1.6768
   25CHL1    C5 2964   5.046   5.727   5.814 -0.1320 -0.2557 -0.1756
   25CHL1    C6 2965   5.153   5.795   5.771 -0.2677  0.1426  0.2801
   25CHL1    H6 2966   5.218   5.847   5.843 -0.2709  2.6228 -1.3865
   25CHL1    C7 2967   5.190   5.824   5.628 -0.6832 -0.4519  1.0439
   25CHL1   H7A 2968   5.238   5.923   5.623  0.5565 -1.0592  0.5051
   25CHL1   H7B 2969   5.264   5.750   5.590 -2.4241  0.0492 -4.0310
   25CHL1    C8 2970   5.071   5.807   5.528  0.4009  0.4959 -0.2915
   25CHL1    H8 2971   4.996   5.884   5.557  2.3000  1.2749  3.1386
   25CHL1   C14 2972   5.124   5.808   5.383 -0.1561 -0.3699  0.5695
   25CHL1   H14 2973   5.191   5.719   5.377 -1.4393 -1.3471  0.2726
   25CHL1   C15 2974   5.191   5.940   5.339  0.3736 -0.6961 -0.7925
   25CHL1  H15A 2975   5.122   6.025   5.358  1.1283  0.7161 -3.7760
   25CHL1  H15B 2976   5.282   5.947   5.401 -0.4535  1.9877  0.2389
   25CHL1   C16 2977   5.208   5.917   5.189  0.3848 -0.0368 -0.6376
   25CHL1  H16A 2978   5.173   6.016   5.153  1.3240  0.8427  0.7477
   25CHL1  H16B 2979   5.309   5.904   5.144  2.1619  1.0441  2.6754
   25CHL1   C17 2980   5.107   5.800   5.154 -0.2463  0.5379 -0.5870
   25CHL1   H17 2981   5.166   5.706   5.149  2.7693  2.0319  2.6138
   25CHL1   C13 2982   5.020   5.772   5.278 -0.5757 -0.1639  0.1806
   25CHL1   C18 2983   4.900   5.879   5.284  0.3546  0.2478  0.1321
   25CHL1  H18A 2984   4.821   5.841   5.216 -2.6408  1.1740  2.8203
   25CHL1  H18B 2985   4.852   5.871   5.384  1.6161  3.6229  1.1144
   25CHL1  H18C 2986   4.917   5.988   5.272 -0.4532  0.7428  2.8388
   25CHL1   C12 2987   4.976   5.633   5.306 -0.0932  0.7159 -0.3794
   25CHL1  H12A 2988   4.917   5.591   5.223 -0.8064 -0.2055  0.5820
   25CHL1  H12B 2989   5.061   5.562   5.311  1.7011  2.6905 -1.1721
   25CHL1   C11 2990   4.917   5.620   5.454 -0.1368 -0.2233  0.7659
   25CHL1  H11A 2991   4.819   5.672   5.450 -0.0134 -0.0257  0.1494
   25CHL1  H11B 2992   4.896   5.513   5.475 -1.2604  0.0728  1.2304
   25CHL1    C9 2993   5.011   5.672   5.561 -0.0467 -1.1571 -1.2627
   25CHL1    H9 2994   5.091   5.595   5.557 -2.0810 -3.3944 -1.3183
   25CHL1   C10 2995   4.958   5.657   5.706  0.3998  0.6157  0.0792
   25CHL1   C19 2996   4.823   5.724   5.699  0.4999 -0.0878 -1.1002
   25CHL1  H19A 2997   4.753   5.651   5.652 -0.7607  0.8977 -0.8207
   25CHL1  H19B 2998   4.797   5.746   5.805  1.8982  1.2605 -1.0010
   25CHL1  H19C 2999   4.821   5.819   5.642 -0.9088  0.2850 -0.4785
   25CHL1    C1 3000   4.941   5.506   5.749 -0.1014  0.0113 -0.1257
   25CHL1   H1A 3001   4.875   5.455   5.676  0.4412  1.7858 -1.9620
   25CHL1   H1B 3002   5.043   5.463   5.740 -1.4708 -3.6835  0.5826
   25CHL1    C2 3003   4.902   5.499   5.903  0.9437  0.5587  0.5106
   25CHL1   H2A 3004   4.891   5.392   5.930  0.5011  0.2754 -0.7650
   25CHL1   H2B 3005   4.804   5.546   5.925 -0.3663 -1.3556 -0.9922
   25CHL1   C20 3006   5.039   5.813   5.014 -0.2702  0.4058  0.6282
   25CHL1   H20 3007   4.965   5.896   5.014 -2.7663 -1.6952  0.9063
   25CHL1   C21 3008   4.990   5.673   4.967  0.6347 -0.7103  0.6341
   25CHL1  H21A 3009   4.906   5.637   5.029  1.8476 -2.9260  1.0939
   25CHL1  H21B 3010   5.071   5.599   4.983  2.2858  1.3007  2.1327
   25CHL1  H21C 3011   4.954   5.664   4.862 -0.7327 -3.1141  1.2407
   25CHL1   C22 3012   5.150   5.843   4.911  0.0130 -0.0206  0.7875
   25CHL1  H22A 3013   5.230   5.915   4.940 -1.4267  2.3739 -0.7847
   25CHL1  H22B 3014   5.198   5.746   4.890 -0.5963 -0.2066  0.1926
   25CHL1   C23 3015   5.095   5.913   4.783  0.9791  0.2129  0.3956
   25CHL1  H23A 3016   5.020   5.843   4.742  2.4823 -1.0104 -0.3730
   25CHL1  H23B 3017   5.045   6.001   4.829 -0.2039 -1.1187  1.7330
   25CHL1   C24 3018   5.201   5.946   4.674 -0.0847  0.5509 -1.2698
   25CHL1  H24A 3019   5.295   5.990   4.714 -1.0923 -0.4346  2.6041
   25CHL1  H24B 3020   5.224   5.845   4.636 -2.8040 -1.1910  1.2150
   25CHL1   C25 3021   5.153   6.030   4.553  0.3397  1.0039 -0.1758
   25CHL1   H25 3022   5.086   6.114   4.583  0.8463  1.4701 -0.3447
   25CHL1   C26 3023   5.270   6.089   4.463  0.0709 -0.8935  0.5317
   25CHL1  H26A 3024   5.231   6.124   4.364 -0.6899 -0.8396  0.8435
   25CHL1  H26B 3025   5.308   6.174   4.523 -0.3813 -1.5011  1.7111
   25CHL1  H26C 3026   5.353   6.017   4.449  0.1728 -0.5273 -0.8939
   25CHL1   C27 3027   5.054   5.935   4.482  0.3430  0.4124  0.3817
   25CHL1  H27A 3028   5.111   5.845   4.450 -0.9547  0.0008 -0.9044
   25CHL1  H27B 3029   4.973   5.900   4.550  1.2593  0.1373  1.3636
   25CHL1  H27C 3030   5.010   5.980   4.390 -3.7131  1.6015  2.6523
   26CHL1    C3 3031   3.297   2.764   6.035  0.5979 -0.0873  0.4380
   26CHL1    H3 3032   3.361   2.855   6.042 -1.3522  1.4589 -0.9548
   26CHL1    O3 3033   3.266   2.711   6.168  0.0869  0.2413 -0.2360
   26CHL1   H3' 3034   3.314   2.631   6.191  1.2936  1.4497  1.7570
   26CHL1    C4 3035   3.170   2.802   5.957 -0.4212 -0.7372 -0.0203
   26CHL1   H4A 3036   3.099   2.717   5.967 -1.1123 -0.0815  0.7948
   26CHL1   H4B 3037   3.122   2.886   6.012  0.1209  1.7703 -3.0804
   26CHL1    C5 3038   3.194   2.832   5.811 -0.3039 -0.1197  0.4860
   26CHL1    C6 3039   3.150   2.944   5.759  0.3198 -0.2536 -0.1716
   26CHL1    H6 3040   3.087   3.003   5.827  0.1015  1.1374 -1.5376
   26CHL1    C7 3041   3.157   2.984   5.610 -0.0413 -0.3844 -0.3448
   26CHL1   H7A 3042   3.062   3.011   5.559 -0.1433 -0.0610  0.0143
   26CHL1   H7B 3043   3.226   3.070   5.603  2.0075 -2.0391 -1.7939
   26CHL1    C8 3044   3.212   2.870   5.523 -0.3857  0.2216  0.1742
   26CHL1    H8 3045   3.129   2.801   5.498  0.9907 -1.7829  0.7876
   26CHL1   C14 3046   3.261   2.923   5.390  0.3379 -0.2701 -0.2479
   26CHL1   H14 3047   3.344   2.992   5.415  0.5582 -0.3214 -0.8273
   26CHL1   C15 3048   3.160   3.018   5.313 -0.2777  0.2844 -0.0041
   26CHL1  H15A 3049   3.055   2.984   5.309  0.4785 -2.5913  1.6155
   26CHL1  H15B 3050   3.176   3.120   5.353 -0.4434  0.7086 -0.9956
   26CHL1   C16 3051   3.211   3.009   5.166 -0.0997  0.0253  0.6152
   26CHL1  H16A 3052   3.139   2.966   5.093 -0.4948  0.2949  0.8424
   26CHL1  H16B 3053   3.229   3.114   5.136  0.1202 -0.2105 -0.0965
   26CHL1   C17 3054   3.337   2.916   5.171  0.1193  0.0568 -0.4148
   26CHL1   H17 3055   3.426   2.976   5.198 -1.0130  1.6803 -0.1848
   26CHL1   C13 3056   3.311   2.822   5.291 -0.4379 -0.0042  0.1964
   26CHL1   C18 3057   3.206   2.717   5.257 -0.1964 -0.2710  0.5552
   26CHL1  H18A 3058   3.137   2.772   5.191  2.1930 -1.9394 -3.7424
   26CHL1  H18B 3059   3.255   2.636   5.198 -0.2260  0.1338 -0.0239
   26CHL1  H18C 3060   3.168   2.664   5.347  0.7084 -3.1874 -0.6502
   26CHL1   C12 3061   3.440   2.765   5.365  0.7950  0.7504 -0.6793
   26CHL1  H12A 3062   3.487   2.695   5.292  0.5196 -0.5577  0.3552
   26CHL1  H12B 3063   3.510   2.850   5.381  1.9810 -0.1628 -0.8818
   26CHL1   C11 3064   3.389   2.691   5.492 -0.6834  0.1499 -0.3825
   26CHL1  H11A 3065   3.343   2.597   5.456 -1.4349  0.8401 -1.2646
   26CHL1  H11B 3066   3.483   2.657   5.540 -0.3723  1.4605 -0.0188
   26CHL1    C9 3067   3.322   2.789   5.587  0.5911 -0.2737  0.5948
   26CHL1    H9 3068   3.405   2.858   5.611  0.6714 -0.6917  1.5834
   26CHL1   C10 3069   3.280   2.734   5.729  0.4008 -0.4106  0.4183
   26CHL1   C19 3070   3.200   2.609   5.697  0.4019  0.4504 -0.3499
   26CHL1  H19A 3071   3.148   2.569   5.786 -1.2404  2.9926 -0.0728
   26CHL1  H19B 3072   3.120   2.613   5.620  0.0290 -4.0084 -0.4116
   26CHL1  H19C 3073   3.264   2.526   5.661 -1.4070 -0.6755 -1.0656
   26CHL1    C1 3074   3.411   2.703   5.808 -0.0353  0.0808 -0.4490
   26CHL1   H1A 3075   3.453   2.608   5.769 -0.8060 -0.3348 -0.2758
   26CHL1   H1B 3076   3.477   2.792   5.797 -1.0722  1.1418  1.3646
   26CHL1    C2 3077   3.385   2.663   5.958  0.1205 -0.1845  0.3904
   26CHL1   H2A 3078   3.483   2.655   6.010 -0.8000 -0.2838  2.2124
   26CHL1   H2B 3079   3.342   2.561   5.957  2.2466 -1.1232 -1.3866
   26CHL1   C20 3080   3.372   2.858   5.030  0.6454  0.4898 -0.0262
   26CHL1   H20 3081   3.283   2.803   4.994 -0.0526  1.3839  0.2774
   26CHL1   C21 3082   3.495   2.771   5.028 -0.0356  0.5786 -0.0955
   26CHL1  H21A 3083   3.591   2.825   5.036  0.4573 -0.4531  1.2696
   26CHL1  H21B 3084   3.502   2.713   4.934  0.9809 -1.0557  0.9530
   26CHL1  H21C 3085   3.507   2.695   5.108 -2.1339 -0.3274 -0.5654
   26CHL1   C22 3086   3.394   2.963   4.917 -0.7292 -0.0259  0.3274
   26CHL1  H22A 3087   3.321   3.047   4.917 -1.2616 -0.4344 -1.7842
   26CHL1  H22B 3088   3.491   3.011   4.942 -0.3706 -0.4433 -0.2352
   26CHL1   C23 3089   3.389   2.911   4.766  0.4177 -0.0709  0.2452
   26CHL1  H23A 3090   3.453   2.821   4.759  1.3681  0.2755  3.0114
   26CHL1  H23B 3091   3.285   2.876   4.753  0.6439 -0.9207  0.6231
   26CHL1   C24 3092   3.419   3.021   4.663  0.2535 -0.1655  0.2587
   26CHL1  H24A 3093   3.351   3.109   4.668  3.1738  2.1909  1.5051
   26CHL1  H24B 3094   3.520   3.066   4.678  1.0162 -2.0432  1.1615
   26CHL1   C25 3095   3.402   2.966   4.516  0.6622  0.0682 -0.3972
   26CHL1   H25 3096   3.301   2.923   4.499  0.4881 -0.1019  0.9341
   26CHL1   C26 3097   3.408   3.079   4.414 -0.0045 -0.4286  0.1245
   26CHL1  H26A 3098   3.379   3.056   4.309 -2.0134  0.2911  0.4914
   26CHL1  H26B 3099   3.343   3.156   4.460  0.3703  0.9579 -1.5528
   26CHL1  H26C 3100   3.512   3.118   4.413  0.1938 -0.9242  0.9208
   26CHL1   C27 3101   3.506   2.862   4.483 -0.2822  0.3188 -0.0868
   26CHL1  H27A 3102   3.502   2.769   4.544  2.5842 -0.6897 -1.2220
   26CHL1  H27B 3103   3.497   2.835   4.376  0.0339  3.6590 -1.0733
   26CHL1  H27C 3104   3.609   2.905   4.489 -0.0783 -0.3830  2.8418
   27CHL1    C3 3105   5.866   1.308   5.757  0.1066  0.1525 -0.0549
   27CHL1    H3 3106   5.833   1.411   5.784 -1.1015 -0.2194 -0.0263
   27CHL1    O3 3107   5.883   1.222   5.872 -0.4474  0.0794 -0.5042
   27CHL1   H3' 3108   5.806   1.242   5.926 -0.6284 -2.4686  0.3410
   27CHL1    C4 3109   5.745   1.258   5.663  0.2701 -0.5287 -0.2814
   27CHL1   H4A 3110   5.772   1.150   5.662  0.1919 -0.5503 -0.1246
   27CHL1   H4B 3111   5.650   1.274   5.719  0.9585  2.0378  0.3080
   27CHL1    C5 3112   5.739   1.337   5.531 -0.1829 -0.3155 -0.4178
   27CHL1    C6 3113   5.625   1.399   5.493 -1.3642  0.3312 -0.2161
   27CHL1    H6 3114   5.535   1.399   5.556 -1.4207 -0.3584 -0.2927
   27CHL1    C7 3115   5.612   1.467   5.356 -0.2816  0.0000 -0.3016
   27CHL1   H7A 3116   5.515   1.449   5.307  1.0947  2.0105 -4.1627
   27CHL1   H7B 3117   5.618   1.578   5.367  0.5320 -0.1524  1.1864
   27CHL1    C8 3118   5.722   1.416   5.256  0.7775 -0.5205 -0.2010
   27CHL1    H8 3119   5.694   1.311   5.236  0.1919 -0.2735 -0.7352
   27CHL1   C14 3120   5.707   1.501   5.133  0.3051  0.0792  0.3007
   27CHL1   H14 3121   5.744   1.602   5.159  0.8142  0.1010 -0.4747
   27CHL1   C15 3122   5.574   1.519   5.056 -0.3044 -0.5525  0.0236
   27CHL1  H15A 3123   5.515   1.425   5.052  0.5344 -1.1683  1.4397
   27CHL1  H15B 3124   5.519   1.598   5.112  1.0033  1.2689 -1.1241
   27CHL1   C16 3125   5.609   1.557   4.913  0.2598 -0.8063 -0.1973
   27CHL1  H16A 3126   5.561   1.480   4.849 -2.9485  0.7500  0.1462
   27CHL1  H16B 3127   5.564   1.658   4.900  1.0971 -0.4587 -0.4505
   27CHL1   C17 3128   5.762   1.559   4.901 -0.4851 -0.4134 -0.1288
   27CHL1   H17 3129   5.795   1.665   4.914 -0.6522 -0.4544  0.6607
   27CHL1   C13 3130   5.815   1.467   5.022 -0.3245  0.4210 -0.2985
   27CHL1   C18 3131   5.800   1.318   4.967  0.1594 -0.3361  0.0274
   27CHL1  H18A 3132   5.800   1.252   5.056 -0.1399  1.6576  1.5975
   27CHL1  H18B 3133   5.702   1.301   4.919  1.2822  0.5896 -2.8190
   27CHL1  H18C 3134   5.879   1.284   4.897  2.5730  1.5875  1.6026
   27CHL1   C12 3135   5.951   1.495   5.089  0.4455 -0.0648  0.3170
   27CHL1  H12A 3136   6.031   1.470   5.016  0.6581  1.2275  0.0919
   27CHL1  H12B 3137   5.958   1.602   5.118  2.6515  0.4700 -1.8387
   27CHL1   C11 3138   5.972   1.402   5.216 -0.4889  0.2877  0.0819
   27CHL1  H11A 3139   5.972   1.296   5.181  0.8504 -0.0773  1.0946
   27CHL1  H11B 3140   6.075   1.422   5.250  0.5481  3.1239 -3.9045
   27CHL1    C9 3141   5.862   1.427   5.318 -0.1292  0.1276  0.1901
   27CHL1    H9 3142   5.868   1.534   5.348 -0.0323  0.2860 -0.3795
   27CHL1   C10 3143   5.876   1.337   5.449 -0.0377 -0.0238 -0.2942
   27CHL1   C19 3144   5.918   1.199   5.401  0.1730 -0.0233  0.4866
   27CHL1  H19A 3145   6.015   1.201   5.348  0.0310  0.5229  0.2432
   27CHL1  H19B 3146   5.910   1.110   5.468 -3.0086 -0.9332 -0.8802
   27CHL1  H19C 3147   5.848   1.175   5.318  1.1937 -0.7106 -0.1952
   27CHL1    C1 3148   5.992   1.388   5.547  0.6058  0.8457 -0.5501
   27CHL1   H1A 3149   6.091   1.398   5.497  0.4677 -0.2638 -1.0754
   27CHL1   H1B 3150   5.967   1.493   5.573  0.1584  0.8332 -0.9253
   27CHL1    C2 3151   5.998   1.314   5.679 -0.9851  0.3258  0.0775
   27CHL1   H2A 3152   6.060   1.365   5.756 -2.1447 -0.6431  1.7168
   27CHL1   H2B 3153   6.028   1.207   5.670  1.2003  0.5432  3.1115
   27CHL1   C20 3154   5.797   1.533   4.758  0.2754 -0.3577 -0.4896
   27CHL1   H20 3155   5.769   1.430   4.725  1.5325 -0.3442 -1.6771
   27CHL1   C21 3156   5.951   1.528   4.762 -0.5277  0.0607  0.0250
   27CHL1  H21A 3157   5.990   1.433   4.803 -1.1056 -0.1288  0.1424
   27CHL1  H21B 3158   6.001   1.606   4.823  1.7546 -2.7963  2.0587
   27CHL1  H21C 3159   5.999   1.528   4.662 -0.7722  0.1940 -0.0935
   27CHL1   C22 3160   5.743   1.642   4.663 -0.9113 -0.2753  0.1062
   27CHL1  H22A 3161   5.633   1.628   4.651 -1.3617  0.8645  2.3436
   27CHL1  H22B 3162   5.774   1.736   4.713  2.3391 -1.1523 -0.0201
   27CHL1   C23 3163   5.790   1.631   4.513  0.1247 -0.0386  0.2634
   27CHL1  H23A 3164   5.899   1.611   4.499  0.1852  0.1803  0.4307
   27CHL1  H23B 3165   5.742   1.536   4.479  1.1864 -1.2151  1.8670
   27CHL1   C24 3166   5.747   1.751   4.424  0.0148  0.1458 -0.3597
   27CHL1  H24A 3167   5.642   1.767   4.454  0.7544  0.1807  2.5047
   27CHL1  H24B 3168   5.806   1.839   4.459 -0.2358  1.1207 -2.2869
   27CHL1   C25 3169   5.768   1.724   4.269  0.2879  0.7612 -0.4671
   27CHL1   H25 3170   5.869   1.679   4.268 -0.4590 -1.0066  0.0407
   27CHL1   C26 3171   5.669   1.626   4.208  0.0632 -0.5612 -0.1916
   27CHL1  H26A 3172   5.699   1.605   4.103 -1.3182 -0.0561 -0.7066
   27CHL1  H26B 3173   5.676   1.533   4.269  0.1891  0.0113  0.6799
   27CHL1  H26C 3174   5.564   1.664   4.210 -0.2347 -1.2532 -1.5218
   27CHL1   C27 3175   5.752   1.865   4.189 -0.0161  0.0885 -0.6558
   27CHL1  H27A 3176   5.648   1.901   4.202 -0.3741 -0.4631 -1.8942
   27CHL1  H27B 3177   5.770   1.849   4.081  2.2113  0.8842 -0.4500
   27CHL1  H27C 3178   5.821   1.945   4.222 -2.0698  0.7991  2.3899
   28CHL1    C3 3179   6.365   1.974   6.118  0.7938  0.2638  0.2038
   28CHL1    H3 3180   6.360   1.879   6.062  3.2462 -1.1946  2.2655
   28CHL1    O3 3181   6.407   1.961   6.256 -0.0831 -0.0493 -0.4964
   28CHL1   H3' 3182   6.502   1.961   6.263 -0.1269 -0.1229  0.1650
   28CHL1    C4 3183   6.465   2.071   6.060  0.7144 -0.8846  0.8727
   28CHL1   H4A 3184   6.453   2.170   6.109  0.0325 -0.4859 -0.0668
   28CHL1   H4B 3185   6.571   2.044   6.077  1.2791  1.1015  0.7791
   28CHL1    C5 3186   6.437   2.096   5.913  0.2012  0.6987 -0.2181
   28CHL1    C6 3187   6.536   2.068   5.823  0.1942  0.6710 -0.1662
   28CHL1    H6 3188   6.628   2.018   5.857 -0.8160 -0.8078  0.4804
   28CHL1    C7 3189   6.518   2.085   5.677  0.1939 -0.3701 -0.0314
   28CHL1   H7A 3190   6.602   2.149   5.642  0.3241 -0.3046  0.4009
   28CHL1   H7B 3191   6.520   1.986   5.627 -0.0379 -0.5584  0.3265
   28CHL1    C8 3192   6.396   2.171   5.641  0.0909  0.1802 -0.5285
   28CHL1    H8 3193   6.415   2.277   5.668 -3.7623  0.5031  1.7187
   28CHL1   C14 3194   6.368   2.159   5.492  0.9785  0.5744  0.4258
   28CHL1   H14 3195   6.344   2.053   5.472 -1.9983  1.6557 -2.7882
   28CHL1   C15 3196   6.487   2.195   5.402  0.1732  0.8199  0.3383
   28CHL1  H15A 3197   6.555   2.272   5.445  1.0973  0.0144  0.3717
   28CHL1  H15B 3198   6.550   2.103   5.395 -0.4475  0.5085 -1.8551
   28CHL1   C16 3199   6.425   2.230   5.264 -0.1122  0.4627 -1.0285
   28CHL1  H16A 3200   6.456   2.333   5.239 -2.1974  0.4567 -4.1236
   28CHL1  H16B 3201   6.448   2.163   5.179 -0.0645 -1.7829  0.6353
   28CHL1   C17 3202   6.264   2.223   5.287  0.7175 -0.0651 -0.4203
   28CHL1   H17 3203   6.229   2.119   5.268  2.0881 -0.2307 -2.2614
   28CHL1   C13 3204   6.246   2.246   5.440 -0.6560  0.9468  0.0898
   28CHL1   C18 3205   6.271   2.395   5.471 -0.4654 -0.2389  0.8522
   28CHL1  H18A 3206   6.360   2.421   5.409 -1.2072  0.2864 -0.0220
   28CHL1  H18B 3207   6.191   2.457   5.424  0.9450  0.3476 -0.9127
   28CHL1  H18C 3208   6.287   2.419   5.578  1.8302  0.7238  0.3620
   28CHL1   C12 3209   6.118   2.191   5.509 -0.5380  0.3778 -0.2750
   28CHL1  H12A 3210   6.030   2.250   5.478 -0.3204  1.2853  0.7886
   28CHL1  H12B 3211   6.089   2.086   5.485 -0.2638  0.5870 -1.5847
   28CHL1   C11 3212   6.139   2.194   5.662  0.4204  0.7478  0.3616
   28CHL1  H11A 3213   6.147   2.303   5.684 -1.2950  1.4397 -2.1013
   28CHL1  H11B 3214   6.058   2.149   5.723  1.1860 -0.9655  0.1584
   28CHL1    C9 3215   6.270   2.127   5.726 -0.9460  0.0735 -0.7806
   28CHL1    H9 3216   6.271   2.018   5.704 -2.2428  0.1320 -1.1757
   28CHL1   C10 3217   6.285   2.139   5.878  0.0229 -0.1426  0.2727
   28CHL1   C19 3218   6.259   2.294   5.907 -0.5223  0.4550  0.1043
   28CHL1  H19A 3219   6.273   2.309   6.017 -4.6882  1.0335  0.7287
   28CHL1  H19B 3220   6.333   2.353   5.850  0.8199  0.3898  1.6900
   28CHL1  H19C 3221   6.156   2.333   5.892 -0.8539 -0.0423  0.9481
   28CHL1    C1 3222   6.187   2.060   5.961 -0.3239 -0.1302  0.6717
   28CHL1   H1A 3223   6.090   2.114   5.968  0.4437  1.2382  0.9780
   28CHL1   H1B 3224   6.158   1.960   5.921 -1.0821  0.4657 -0.2991
   28CHL1    C2 3225   6.230   2.044   6.108 -0.4959  0.4375 -0.2154
   28CHL1   H2A 3226   6.153   1.983   6.159  0.3225 -2.3743 -2.0994
   28CHL1   H2B 3227   6.239   2.143   6.158  0.4774 -0.2614  1.0706
   28CHL1   C20 3228   6.182   2.307   5.183  0.6975  0.5100 -0.8351
   28CHL1   H20 3229   6.198   2.414   5.207 -1.4822  0.7063 -0.0166
   28CHL1   C21 3230   6.024   2.285   5.190  0.3848 -0.0695  0.0585
   28CHL1  H21A 3231   5.964   2.350   5.123 -1.0452  2.3949  3.4038
   28CHL1  H21B 3232   5.979   2.302   5.291 -1.7770 -0.8746 -0.7055
   28CHL1  H21C 3233   6.004   2.178   5.171 -1.1527  0.3020 -0.5577
   28CHL1   C22 3234   6.224   2.291   5.036  0.6251  0.2844 -0.0705
   28CHL1  H22A 3235   6.154   2.352   4.975 -2.5839 -2.1943  0.8688
   28CHL1  H22B 3236   6.324   2.339   5.034  0.0876  1.5045  1.2703
   28CHL1   C23 3237   6.207   2.154   4.969 -0.6968  0.4790  0.9009
   28CHL1  H23A 3238   6.270   2.074   5.014 -0.8029 -1.0358 -1.4892
   28CHL1  H23B 3239   6.101   2.122   4.975 -0.7500  0.4158 -0.2398
   28CHL1   C24 3240   6.235   2.158   4.820 -0.4114  0.9487 -0.4184
   28CHL1  H24A 3241   6.152   2.209   4.767  0.1171  0.2142 -1.9997
   28CHL1  H24B 3242   6.325   2.223   4.824 -0.6181  1.2655 -0.8753
   28CHL1   C25 3243   6.264   2.026   4.762  0.6033  0.0606  0.2795
   28CHL1   H25 3244   6.347   1.976   4.818 -0.8561 -1.5130  1.1261
   28CHL1   C26 3245   6.154   1.916   4.781 -0.6984 -0.0862  0.3447
   28CHL1  H26A 3246   6.103   1.903   4.879  0.6548  0.5358  1.1577
   28CHL1  H26B 3247   6.075   1.937   4.705  2.0013  0.5144 -2.5055
   28CHL1  H26C 3248   6.193   1.814   4.762 -0.8788 -0.4743  1.9100
   28CHL1   C27 3249   6.287   2.037   4.614  0.0470 -0.4832  0.0341
   28CHL1  H27A 3250   6.324   1.945   4.564  2.3009  0.6744 -0.5469
   28CHL1  H27B 3251   6.190   2.061   4.566  0.7557 -0.8005 -1.6295
   28CHL1  H27C 3252   6.354   2.123   4.594 -0.4477 -0.4594 -1.6945
   29CHL1    C3 3253   1.687   2.231   5.898 -0.6929  0.1704 -0.7128
   29CHL1    H3 3254   1.732   2.133   5.873  1.2964  0.2226  2.1238
   29CHL1    O3 3255   1.730   2.261   6.031 -0.2383  0.0906  0.2869
   29CHL1   H3' 3256   1.701   2.195   6.095 -0.0771 -0.2830 -0.0232
   29CHL1    C4 3257   1.718   2.338   5.799  0.6946 -0.2018  0.3547
   29CHL1   H4A 3258   1.675   2.437   5.824  1.2922 -0.1737  1.3330
   29CHL1   H4B 3259   1.829   2.345   5.804  0.6561  0.0303  1.0200
   29CHL1    C5 3260   1.667   2.292   5.663 -0.2102  0.2496  0.3123
   29CHL1    C6 3261   1.754   2.268   5.563 -0.4324 -0.2103  0.8612
   29CHL1    H6 3262   1.861   2.289   5.576 -0.4368  0.4311 -0.0231
   29CHL1    C7 3263   1.713   2.227   5.426 -0.1802 -0.1074  0.4897
   29CHL1   H7A 3264   1.764   2.280   5.343 -0.1497  0.0959  0.6376
   29CHL1   H7B 3265   1.731   2.119   5.411  0.6067  0.1735 -0.7082
   29CHL1    C8 3266   1.561   2.257   5.401 -0.2391 -0.0475  0.3929
   29CHL1    H8 3267   1.552   2.368   5.409  0.7215 -0.0508  1.8881
   29CHL1   C14 3268   1.521   2.208   5.259  0.2713 -0.2150  0.5747
   29CHL1   H14 3269   1.550   2.102   5.248  0.0676 -0.3668  1.4674
   29CHL1   C15 3270   1.590   2.284   5.140 -0.6494 -0.1562 -0.4553
   29CHL1  H15A 3271   1.580   2.394   5.146  1.7350  0.0962 -0.2266
   29CHL1  H15B 3272   1.693   2.244   5.131 -1.3195 -1.9143 -0.7891
   29CHL1   C16 3273   1.505   2.241   5.020  0.4939  0.0378  0.6000
   29CHL1  H16A 3274   1.470   2.331   4.966 -0.4891 -0.1386  0.9133
   29CHL1  H16B 3275   1.555   2.171   4.950  0.6504  1.0185 -0.2904
   29CHL1   C17 3276   1.370   2.181   5.074  0.1032 -0.1956  1.2621
   29CHL1   H17 3277   1.377   2.071   5.080  2.2089 -0.1214  0.9335
   29CHL1   C13 3278   1.373   2.226   5.223  0.2503 -0.7017 -0.4279
   29CHL1   C18 3279   1.329   2.376   5.231  0.5932 -0.4360  0.8013
   29CHL1  H18A 3280   1.220   2.399   5.220  0.8339  0.4149  0.0748
   29CHL1  H18B 3281   1.356   2.429   5.326 -2.1230  2.0527  0.3435
   29CHL1  H18C 3282   1.372   2.425   5.142 -2.3238 -3.2431 -2.4337
   29CHL1   C12 3283   1.294   2.156   5.327  0.5418 -0.6688 -0.7096
   29CHL1  H12A 3284   1.187   2.184   5.320  0.4410 -1.1517 -1.0830
   29CHL1  H12B 3285   1.316   2.048   5.314  2.5636 -0.6154  1.4344
   29CHL1   C11 3286   1.322   2.203   5.477  0.2908  0.1326 -0.2310
   29CHL1  H11A 3287   1.282   2.306   5.486 -2.8077 -1.1339  3.7621
   29CHL1  H11B 3288   1.264   2.139   5.547  0.6281 -1.4728 -1.3533
   29CHL1    C9 3289   1.473   2.194   5.512  0.1053 -0.5412 -0.7174
   29CHL1    H9 3290   1.492   2.085   5.519  0.0555 -0.5866 -1.2388
   29CHL1   C10 3291   1.513   2.256   5.647 -0.7223  1.0647  0.8216
   29CHL1   C19 3292   1.440   2.400   5.669  0.0213  0.2474  0.5283
   29CHL1  H19A 3293   1.489   2.475   5.604  1.5291 -0.1351  1.1852
   29CHL1  H19B 3294   1.330   2.399   5.649  0.3396  0.3501 -1.4467
   29CHL1  H19C 3295   1.460   2.432   5.773 -0.1351 -0.3848  0.7628
   29CHL1    C1 3296   1.480   2.159   5.768 -0.1579  0.3527  0.2035
   29CHL1   H1A 3297   1.375   2.125   5.764  0.9635 -3.3195 -1.5950
   29CHL1   H1B 3298   1.535   2.064   5.751  0.7728  1.1774 -1.6067
   29CHL1    C2 3299   1.537   2.195   5.906 -0.7152 -0.2299 -0.4123
   29CHL1   H2A 3300   1.516   2.108   5.972 -1.3280  1.2882  1.4622
   29CHL1   H2B 3301   1.494   2.287   5.951  1.6307  0.3397  0.8277
   29CHL1   C20 3302   1.246   2.216   4.986 -0.5432 -0.2096 -0.3583
   29CHL1   H20 3303   1.243   2.327   4.991  0.0270 -0.2124  0.1198
   29CHL1   C21 3304   1.126   2.157   5.048  0.1778  0.3189 -0.3921
   29CHL1  H21A 3305   1.047   2.148   4.971  0.3714  0.9130 -0.6710
   29CHL1  H21B 3306   1.069   2.224   5.116  1.4437 -1.3695  2.5298
   29CHL1  H21C 3307   1.152   2.064   5.102  0.9634  0.9615  0.3596
   29CHL1   C22 3308   1.268   2.172   4.845  0.2834  0.0407 -0.5866
   29CHL1  H22A 3309   1.374   2.182   4.813  1.0593  0.7854  1.9692
   29CHL1  H22B 3310   1.251   2.063   4.853 -2.4760  0.4868  0.8325
   29CHL1   C23 3311   1.171   2.231   4.732 -0.3327  0.5776 -0.1594
   29CHL1  H23A 3312   1.068   2.238   4.772 -1.1932 -0.8653 -1.9600
   29CHL1  H23B 3313   1.209   2.331   4.701 -0.3597  0.7101  0.2282
   29CHL1   C24 3314   1.182   2.143   4.611  0.2645 -0.2126  0.3980
   29CHL1  H24A 3315   1.288   2.149   4.576 -0.0900  1.0631 -0.5397
   29CHL1  H24B 3316   1.162   2.037   4.637  1.5490 -0.8565 -1.0799
   29CHL1   C25 3317   1.073   2.173   4.499 -0.0727 -0.9384  0.1172
   29CHL1   H25 3318   0.977   2.170   4.554  0.9504 -1.6510  1.9421
   29CHL1   C26 3319   1.094   2.316   4.448 -0.6266 -0.2367  0.0313
   29CHL1  H26A 3320   1.190   2.318   4.392 -0.3577 -1.1065  0.4480
   29CHL1  H26B 3321   1.025   2.367   4.378 -0.5977 -1.0809 -0.6270
   29CHL1  H26C 3322   1.101   2.385   4.535  0.3352 -0.6264  0.2703
   29CHL1   C27 3323   1.089   2.073   4.390 -0.2461  0.2786 -0.1660
   29CHL1  H27A 3324   1.051   1.972   4.417  0.0843  0.3643  0.6419
   29CHL1  H27B 3325   1.047   2.094   4.289  1.3112  2.9035 -0.3594
   29CHL1  H27C 3326   1.197   2.054   4.367 -0.6591 -0.7727 -1.3366
   30CHL1    C3 3327   2.391   2.487   5.997  0.3548  0.1891  0.6147
   30CHL1    H3 3328   2.361   2.593   5.987 -0.9455 -0.1394  0.8868
   30CHL1    O3 3329   2.422   2.456   6.133  0.3726  0.3506  0.2635
   30CHL1   H3' 3330   2.463   2.370   6.122  0.0015  0.2827 -0.6398
   30CHL1    C4 3331   2.281   2.386   5.949  0.4575 -0.1250  0.5216
   30CHL1   H4A 3332   2.314   2.283   5.973  0.8232 -0.2044 -0.2977
   30CHL1   H4B 3333   2.187   2.388   6.009 -1.4960 -1.0763 -2.3037
   30CHL1    C5 3334   2.254   2.416   5.802  0.0927 -0.0643  0.5851
   30CHL1    C6 3335   2.127   2.443   5.759 -0.2521 -0.1243 -0.1228
   30CHL1    H6 3336   2.047   2.446   5.835  1.5906 -2.7109  2.1005
   30CHL1    C7 3337   2.092   2.469   5.620 -0.5803 -0.2687  1.2355
   30CHL1   H7A 3338   1.989   2.443   5.587  0.1391  0.5536 -2.1059
   30CHL1   H7B 3339   2.090   2.580   5.610 -4.2684 -0.1423  2.1480
   30CHL1    C8 3340   2.197   2.408   5.515 -0.1957 -0.6313 -0.3234
   30CHL1    H8 3341   2.192   2.297   5.518 -2.4719 -0.5606  0.7893
   30CHL1   C14 3342   2.168   2.454   5.377 -0.9322 -0.1270  0.7552
   30CHL1   H14 3343   2.163   2.565   5.380 -1.5631 -0.0976 -0.6644
   30CHL1   C15 3344   2.041   2.416   5.313  0.6451  0.4176  0.7676
   30CHL1  H15A 3345   2.017   2.308   5.326  0.9563  0.3120  0.4666
   30CHL1  H15B 3346   1.960   2.480   5.356  0.2061 -0.2238  0.9176
   30CHL1   C16 3347   2.056   2.437   5.163 -0.5075 -0.6285 -0.4855
   30CHL1  H16A 3348   2.008   2.357   5.102 -2.9813 -0.5843  1.2549
   30CHL1  H16B 3349   2.005   2.530   5.130 -0.2822 -1.1168 -2.3128
   30CHL1   C17 3350   2.208   2.466   5.145 -0.0388 -0.4219 -0.2285
   30CHL1   H17 3351   2.224   2.576   5.157 -0.8033 -0.4778  1.6822
   30CHL1   C13 3352   2.276   2.417   5.277 -0.7317  0.7480 -0.3296
   30CHL1   C18 3353   2.284   2.259   5.263 -0.3398  0.3593  0.3235
   30CHL1  H18A 3354   2.367   2.225   5.198 -0.0965 -2.0466  1.7640
   30CHL1  H18B 3355   2.294   2.208   5.362 -1.7076 -1.7952 -0.5710
   30CHL1  H18C 3356   2.194   2.231   5.205  0.7851  1.0072 -1.8249
   30CHL1   C12 3357   2.412   2.478   5.317  0.3853  0.0709 -0.0573
   30CHL1  H12A 3358   2.500   2.471   5.250 -0.2064  1.6244 -1.0587
   30CHL1  H12B 3359   2.387   2.585   5.333 -2.0642 -0.4320 -0.1306
   30CHL1   C11 3360   2.451   2.430   5.461 -0.2478  0.4735 -0.6523
   30CHL1  H11A 3361   2.469   2.322   5.447 -0.1931  0.4756 -0.6000
   30CHL1  H11B 3362   2.560   2.454   5.465 -0.2919  0.4984  1.3528
   30CHL1    C9 3363   2.342   2.449   5.568  0.1300 -0.0697 -0.6554
   30CHL1    H9 3364   2.340   2.560   5.580  2.3116  0.0172 -0.7379
   30CHL1   C10 3365   2.379   2.405   5.715  0.0426 -0.0504 -0.1862
   30CHL1   C19 3366   2.424   2.258   5.703 -0.2659  0.2584  0.6767
   30CHL1  H19A 3367   2.523   2.257   5.653 -1.4361  0.4749 -1.7474
   30CHL1  H19B 3368   2.437   2.209   5.802  0.7209  0.2782  0.5640
   30CHL1  H19C 3369   2.357   2.192   5.644 -1.7013 -1.0774  3.5936
   30CHL1    C1 3370   2.482   2.502   5.776  0.1085  0.4640  0.2513
   30CHL1   H1A 3371   2.565   2.502   5.702 -0.7312  1.5588 -0.7178
   30CHL1   H1B 3372   2.446   2.607   5.771  0.7202  0.6265 -1.3063
   30CHL1    C2 3373   2.522   2.472   5.916 -1.0253  0.3697 -0.4522
   30CHL1   H2A 3374   2.591   2.553   5.945  1.0292 -0.4669 -2.6726
   30CHL1   H2B 3375   2.564   2.370   5.931  0.1562  1.3502  4.6349
   30CHL1   C20 3376   2.255   2.430   5.002 -0.0325 -0.6807  0.0854
   30CHL1   H20 3377   2.239   2.320   4.994  0.7083 -0.8690  0.9533
   30CHL1   C21 3378   2.410   2.448   4.999  0.1889  0.2607 -0.4245
   30CHL1  H21A 3379   2.440   2.452   4.892  1.0923 -0.5804 -0.2163
   30CHL1  H21B 3380   2.458   2.359   5.045  0.2068 -0.1948 -1.3006
   30CHL1  H21C 3381   2.438   2.540   5.055 -0.4291  1.3041 -1.7811
   30CHL1   C22 3382   2.184   2.519   4.894  0.2689 -0.1963  0.6397
   30CHL1  H22A 3383   2.244   2.512   4.801 -0.5839  0.8969 -0.0076
   30CHL1  H22B 3384   2.088   2.471   4.865 -0.5767  1.8240 -0.0429
   30CHL1   C23 3385   2.170   2.671   4.908  0.1465 -0.1106 -0.0966
   30CHL1  H23A 3386   2.150   2.715   5.009  4.7909 -1.3350  1.6216
   30CHL1  H23B 3387   2.270   2.706   4.876 -1.0386  1.2330 -2.5882
   30CHL1   C24 3388   2.074   2.718   4.798  0.1389  0.0300 -0.3215
   30CHL1  H24A 3389   2.085   2.641   4.718 -0.1528 -1.8086  1.3333
   30CHL1  H24B 3390   1.970   2.706   4.837  0.7127  0.0026  1.2427
   30CHL1   C25 3391   2.118   2.860   4.752  0.4427 -0.3586 -0.2905
   30CHL1   H25 3392   2.229   2.858   4.759  0.4260 -2.1389 -0.1331
   30CHL1   C26 3393   2.084   2.894   4.605 -0.6125  0.1209  0.3727
   30CHL1  H26A 3394   2.134   2.812   4.550 -1.4517  0.5419 -1.0853
   30CHL1  H26B 3395   1.978   2.887   4.571 -0.5805 -2.4660  0.6646
   30CHL1  H26C 3396   2.138   2.988   4.578 -0.6916 -0.1031 -0.5785
   30CHL1   C27 3397   2.068   2.972   4.842 -0.6160  0.0256 -0.2501
   30CHL1  H27A 3398   1.957   2.973   4.841 -0.6370 -1.0810 -1.4247
   30CHL1  H27B 3399   2.098   2.941   4.944  1.4687 -0.8448 -1.0780
   30CHL1  H27C 3400   2.108   3.073   4.817 -1.4465  0.4127 -0.0450
   31CHL1    C3 3401   0.564   2.979   6.149  0.9632 -0.1541 -0.2693
   31CHL1    H3 3402   0.454   2.992   6.161  0.9646 -1.7690  2.1363
   31CHL1    O3 3403   0.612   2.989   6.283  0.2481 -0.4532  0.1494
   31CHL1   H3' 3404   0.705   2.967   6.285  0.8881  1.9796  1.2609
   31CHL1    C4 3405   0.586   2.841   6.089  0.6259 -0.1139 -0.8494
   31CHL1   H4A 3406   0.689   2.807   6.113  1.1957  2.2050  0.2102
   31CHL1   H4B 3407   0.524   2.768   6.146  0.5050 -0.1408 -1.0145
   31CHL1    C5 3408   0.552   2.825   5.947 -0.4252 -0.2574  0.3176
   31CHL1    C6 3409   0.465   2.736   5.892 -0.2496 -1.3930 -0.1844
   31CHL1    H6 3410   0.418   2.662   5.959 -2.1343  1.5559  1.9849
   31CHL1    C7 3411   0.442   2.730   5.743  0.2467  0.4873  0.1010
   31CHL1   H7A 3412   0.427   2.625   5.710 -0.3361  0.4338  0.5207
   31CHL1   H7B 3413   0.343   2.772   5.715 -0.2458 -1.5620 -1.4804
   31CHL1    C8 3414   0.544   2.804   5.653 -0.0108 -0.5993 -0.1097
   31CHL1    H8 3415   0.637   2.745   5.664 -0.4687 -1.0063  2.0029
   31CHL1   C14 3416   0.496   2.812   5.511  0.4004 -0.7355  0.6017
   31CHL1   H14 3417   0.409   2.880   5.524  0.8494  0.3712 -1.7056
   31CHL1   C15 3418   0.444   2.682   5.441 -0.1426 -0.1625  0.0996
   31CHL1  H15A 3419   0.510   2.597   5.467 -0.7088 -0.7087 -0.2196
   31CHL1  H15B 3420   0.340   2.673   5.479  0.4275 -0.4218  1.6823
   31CHL1   C16 3421   0.446   2.720   5.290 -0.1454 -0.6260 -0.2459
   31CHL1  H16A 3422   0.506   2.647   5.233  1.3257 -0.4145  0.9628
   31CHL1  H16B 3423   0.343   2.718   5.249 -0.3421  1.7022 -0.0077
   31CHL1   C17 3424   0.508   2.862   5.279 -0.0774 -0.8205  1.3692
   31CHL1   H17 3425   0.426   2.937   5.284  1.8021  1.2564  3.1140
   31CHL1   C13 3426   0.593   2.886   5.409  0.0797  0.0627  0.0265
   31CHL1   C18 3427   0.731   2.815   5.400 -0.4314  0.5635  1.0414
   31CHL1  H18A 3428   0.781   2.808   5.499 -0.7619  0.8638  1.2343
   31CHL1  H18B 3429   0.709   2.715   5.359 -0.9421  1.3801 -0.7947
   31CHL1  H18C 3430   0.799   2.873   5.335  0.6333 -0.5506  1.1420
   31CHL1   C12 3431   0.610   3.019   5.468 -0.6326  0.0007 -0.1615
   31CHL1  H12A 3432   0.695   3.069   5.417  0.5997 -1.2320  0.6201
   31CHL1  H12B 3433   0.524   3.088   5.456 -1.2166 -0.9020 -1.4416
   31CHL1   C11 3434   0.657   3.030   5.614  0.3116 -0.2478  0.0488
   31CHL1  H11A 3435   0.763   2.998   5.620  0.1046 -0.8640  0.5128
   31CHL1  H11B 3436   0.641   3.138   5.634  0.2864  0.2166 -2.2125
   31CHL1    C9 3437   0.571   2.942   5.709  0.6103 -0.2672  0.7110
   31CHL1    H9 3438   0.468   2.984   5.712  0.6862 -0.0745  0.6123
   31CHL1   C10 3439   0.626   2.925   5.858 -0.1668 -0.1394  0.3238
   31CHL1   C19 3440   0.778   2.876   5.854  0.4614 -0.7780  0.6608
   31CHL1  H19A 3441   0.840   2.943   5.791  0.1365 -1.2098 -0.1319
   31CHL1  H19B 3442   0.833   2.879   5.951 -0.6190  0.6062  1.2692
   31CHL1  H19C 3443   0.770   2.780   5.799  0.5777 -0.4667  0.0991
   31CHL1    C1 3444   0.611   3.071   5.923  0.1391  0.0890 -0.4033
   31CHL1   H1A 3445   0.678   3.140   5.867 -0.3284 -1.2276 -2.6840
   31CHL1   H1B 3446   0.505   3.095   5.902 -1.1082 -2.5923  2.0456
   31CHL1    C2 3447   0.640   3.085   6.068  0.4816  0.7032  0.4516
   31CHL1   H2A 3448   0.616   3.185   6.111 -1.8810 -0.3672  1.8416
   31CHL1   H2B 3449   0.748   3.067   6.084  0.5344  0.6852  0.0886
   31CHL1   C20 3450   0.579   2.889   5.141  0.3209 -0.6298  0.5529
   31CHL1   H20 3451   0.676   2.835   5.135  1.0054  0.5863  0.3292
   31CHL1   C21 3452   0.623   3.042   5.131 -0.0542 -0.0125  0.1831
   31CHL1  H21A 3453   0.684   3.067   5.220  0.5365 -1.0173  0.0740
   31CHL1  H21B 3454   0.522   3.089   5.137 -1.4654 -2.5396 -1.9161
   31CHL1  H21C 3455   0.671   3.064   5.033 -0.8430 -2.3552 -0.8035
   31CHL1   C22 3456   0.494   2.845   5.016  0.4580 -0.1883 -0.1069
   31CHL1  H22A 3457   0.482   2.735   5.001  0.0375  0.1333 -2.5285
   31CHL1  H22B 3458   0.392   2.889   5.025  0.4733 -0.3412  0.9136
   31CHL1   C23 3459   0.547   2.894   4.876 -0.1349  0.6928  0.2377
   31CHL1  H23A 3460   0.488   2.828   4.808 -1.0351 -1.6293  3.0670
   31CHL1  H23B 3461   0.531   3.003   4.860 -1.2084  0.6253  0.7457
   31CHL1   C24 3462   0.684   2.846   4.832  0.1315 -0.1138  0.3095
   31CHL1  H24A 3463   0.753   2.863   4.918 -1.2290 -0.5107  1.5171
   31CHL1  H24B 3464   0.684   2.736   4.813  2.0087  0.0781 -1.0680
   31CHL1   C25 3465   0.742   2.905   4.706  0.2467 -0.0877  0.6069
   31CHL1   H25 3466   0.748   3.015   4.713  2.3879  0.2160 -3.3157
   31CHL1   C26 3467   0.889   2.857   4.674 -0.2741  0.2122 -0.3665
   31CHL1  H26A 3468   0.946   2.914   4.597 -0.8873  1.0150 -0.2438
   31CHL1  H26B 3469   0.947   2.878   4.766 -0.0990  1.1163 -0.6648
   31CHL1  H26C 3470   0.900   2.751   4.643  0.0969 -0.2733  1.3524
   31CHL1   C27 3471   0.636   2.866   4.595 -0.0728 -0.1881  0.0640
   31CHL1  H27A 3472   0.536   2.909   4.617  0.6625  2.2207 -1.0081
   31CHL1  H27B 3473   0.666   2.915   4.500  2.5405 -0.3954  0.7107
   31CHL1  H27C 3474   0.636   2.756   4.578  1.5919 -0.4438  1.4451
   32CHL1    C3 3475   3.025   1.785   6.080 -0.6369  0.2455 -0.3761
   32CHL1    H3 3476   2.936   1.838   6.041  1.1506  1.2056 -3.5137
   32CHL1    O3 3477   3.015   1.765   6.222  0.2189  0.0847  0.4978
   32CHL1   H3' 3478   3.095   1.719   6.246  0.3479  0.1415  0.1724
   32CHL1    C4 3479   3.024   1.643   6.013 -0.4769  0.6295 -0.5405
   32CHL1   H4A 3480   3.112   1.585   6.049 -0.4287  0.7453 -0.4685
   32CHL1   H4B 3481   2.934   1.583   6.038  0.5845 -1.8210 -2.1667
   32CHL1    C5 3482   3.038   1.643   5.859  0.4929 -0.4902  0.5250
   32CHL1    C6 3483   2.954   1.586   5.766  0.5444  0.0688 -1.0398
   32CHL1    H6 3484   2.868   1.527   5.801  1.9039  0.5441  3.9664
   32CHL1    C7 3485   2.966   1.594   5.619 -0.1735 -0.6260 -0.8264
   32CHL1   H7A 3486   2.972   1.488   5.586 -0.2938 -0.7725 -0.3761
   32CHL1   H7B 3487   2.874   1.634   5.572 -0.9456 -0.7566  0.5387
   32CHL1    C8 3488   3.095   1.662   5.567  1.2578  0.4868 -0.2048
   32CHL1    H8 3489   3.173   1.584   5.583  2.4903  1.8492  0.6480
   32CHL1   C14 3490   3.071   1.713   5.423  0.0972  0.4273  0.3198
   32CHL1   H14 3491   2.998   1.797   5.432 -0.8008 -0.1435 -1.2773
   32CHL1   C15 3492   3.005   1.628   5.319  0.4789  0.1749 -0.5032
   32CHL1  H15A 3493   3.046   1.525   5.325  0.5575  0.2887  1.5682
   32CHL1  H15B 3494   2.894   1.621   5.322  0.5639 -0.9191  0.8665
   32CHL1   C16 3495   3.046   1.688   5.183 -0.2162  0.5937  0.6704
   32CHL1  H16A 3496   3.102   1.612   5.124  0.1558  1.0651  0.4124
   32CHL1  H16B 3497   2.962   1.737   5.129 -0.2382  0.9973  1.0675
   32CHL1   C17 3498   3.148   1.807   5.209  0.4070 -0.0351  0.0341
   32CHL1   H17 3499   3.089   1.901   5.215 -0.8659 -0.6144 -2.0819
   32CHL1   C13 3500   3.196   1.769   5.353 -0.3478 -0.0838  0.1416
   32CHL1   C18 3501   3.299   1.657   5.346 -0.5128 -0.8520  0.1001
   32CHL1  H18A 3502   3.248   1.566   5.307 -2.0478 -0.9424  2.1243
   32CHL1  H18B 3503   3.379   1.689   5.276 -0.3602  0.2323  0.7468
   32CHL1  H18C 3504   3.339   1.613   5.440  0.7636  0.8195  0.3816
   32CHL1   C12 3505   3.254   1.885   5.445  0.1838  0.4233 -0.4894
   32CHL1  H12A 3506   3.356   1.900   5.404  1.6708 -1.5382  2.1318
   32CHL1  H12B 3507   3.185   1.972   5.446 -1.1234 -0.5774  0.3758
   32CHL1   C11 3508   3.271   1.828   5.593 -0.1440 -0.7037 -0.5037
   32CHL1  H11A 3509   3.346   1.745   5.595 -1.3389 -1.8103  0.3843
   32CHL1  H11B 3510   3.321   1.912   5.645  1.3364 -1.9532  0.1878
   32CHL1    C9 3511   3.135   1.776   5.661 -0.6375  0.4592 -0.1931
   32CHL1    H9 3512   3.061   1.859   5.657  0.6427  1.5823 -2.8046
   32CHL1   C10 3513   3.151   1.734   5.809 -0.0820  0.7017 -0.1505
   32CHL1   C19 3514   3.284   1.655   5.819  0.0734  0.1279  0.9744
   32CHL1  H19A 3515   3.295   1.573   5.745  0.7897  0.5185  0.6423
   32CHL1  H19B 3516   3.370   1.724   5.808  0.6999 -0.9248 -1.4409
   32CHL1  H19C 3517   3.308   1.615   5.919  1.8769  0.1739  0.5895
   32CHL1    C1 3518   3.161   1.866   5.884  0.2707 -0.1907 -1.1754
   32CHL1   H1A 3519   3.252   1.924   5.857 -0.0599  0.5224 -0.8030
   32CHL1   H1B 3520   3.087   1.941   5.846 -0.4865 -1.6646 -2.7362
   32CHL1    C2 3521   3.151   1.856   6.040 -0.1782  0.0980 -0.0929
   32CHL1   H2A 3522   3.155   1.958   6.085 -1.0035  0.1996 -0.2437
   32CHL1   H2B 3523   3.235   1.806   6.092  1.1732  2.0492 -0.2798
   32CHL1   C20 3524   3.247   1.837   5.095  0.5592  0.2922  0.1773
   32CHL1   H20 3525   3.302   1.742   5.083 -0.3654 -0.2171 -0.0727
   32CHL1   C21 3526   3.350   1.942   5.139  0.1503 -0.0346  0.6607
   32CHL1  H21A 3527   3.386   1.995   5.048  0.5712 -0.5509  0.5233
   32CHL1  H21B 3528   3.435   1.906   5.200  1.0046 -1.9618 -1.5089
   32CHL1  H21C 3529   3.298   2.021   5.197 -1.9871 -1.0502  0.2374
   32CHL1   C22 3530   3.191   1.872   4.958  0.6924  0.2496 -0.7887
   32CHL1  H22A 3531   3.099   1.813   4.938 -0.7224  2.3653 -0.8479
   32CHL1  H22B 3532   3.161   1.979   4.969  0.6482  0.1656  0.0135
   32CHL1   C23 3533   3.293   1.853   4.852 -0.0150  0.0912 -0.0590
   32CHL1  H23A 3534   3.378   1.924   4.862 -1.4238  1.9867 -0.9816
   32CHL1  H23B 3535   3.339   1.752   4.842  0.1460  0.3451 -2.1665
   32CHL1   C24 3536   3.230   1.863   4.714  0.2405  0.1405  0.8445
   32CHL1  H24A 3537   3.152   1.784   4.722  1.1125 -0.7975  0.1550
   32CHL1  H24B 3538   3.182   1.963   4.710 -4.2430 -1.6582  2.6233
   32CHL1   C25 3539   3.326   1.826   4.602  0.0449  0.4219  0.0119
   32CHL1   H25 3540   3.390   1.742   4.636 -0.4093  0.8547  2.0508
   32CHL1   C26 3541   3.251   1.764   4.479 -0.3621  0.5682  0.5322
   32CHL1  H26A 3542   3.320   1.756   4.393  0.8693 -1.8896  1.6362
   32CHL1  H26B 3543   3.206   1.663   4.493  0.9842  0.0401  1.2288
   32CHL1  H26C 3544   3.171   1.832   4.443  0.2692  0.5971 -0.8749
   32CHL1   C27 3545   3.415   1.942   4.555 -1.0062  1.0108 -0.2899
   32CHL1  H27A 3546   3.348   2.007   4.494 -1.7265  1.2958  0.7739
   32CHL1  H27B 3547   3.470   1.988   4.640 -0.2260 -1.4154  0.5894
   32CHL1  H27C 3548   3.485   1.904   4.478 -0.4621  0.6413  0.3790
   33CHL1    C3 3549   0.998   1.310   5.664 -0.6386 -0.1956 -0.1764
   33CHL1    H3 3550   1.106   1.284   5.670 -0.5387  0.0328 -0.8134
   33CHL1    O3 3551   0.943   1.350   5.792 -0.1680 -0.2373  0.2842
   33CHL1   H3' 3552   1.004   1.410   5.835 -0.3352 -0.2664  0.5630
   33CHL1    C4 3553   0.980   1.419   5.556  0.4690 -0.1129 -0.2735
   33CHL1   H4A 3554   0.874   1.451   5.553  0.8311  1.2645  0.5280
   33CHL1   H4B 3555   1.043   1.505   5.585 -0.8029  0.9644 -0.6117
   33CHL1    C5 3556   1.009   1.375   5.418  0.0472  0.6247  1.0011
   33CHL1    C6 3557   1.089   1.454   5.343 -0.0806  0.5599  0.0801
   33CHL1    H6 3558   1.128   1.548   5.385  3.2010  0.8857 -3.1563
   33CHL1    C7 3559   1.122   1.432   5.195  0.1139 -0.0795  0.4090
   33CHL1   H7A 3560   1.095   1.524   5.139  1.6213  0.3691  0.3794
   33CHL1   H7B 3561   1.229   1.406   5.183 -0.3842 -1.9766 -0.2486
   33CHL1    C8 3562   1.038   1.311   5.140  0.1620  0.5056  0.4440
   33CHL1    H8 3563   0.936   1.354   5.128 -0.6036 -1.4285 -0.3691
   33CHL1   C14 3564   1.091   1.255   5.005  0.1559 -0.3533  0.0587
   33CHL1   H14 3565   1.193   1.216   5.025  0.1506  0.7149  2.5831
   33CHL1   C15 3566   1.122   1.362   4.892  0.1802 -0.1375 -0.0224
   33CHL1  H15A 3567   1.035   1.433   4.894 -0.3123 -0.7283  1.8271
   33CHL1  H15B 3568   1.218   1.414   4.910 -0.4124  0.7157  0.8111
   33CHL1   C16 3569   1.133   1.277   4.766 -0.3897 -0.0080 -0.0366
   33CHL1  H16A 3570   1.074   1.332   4.690  0.3338  0.9598  0.0776
   33CHL1  H16B 3571   1.238   1.265   4.731 -0.0802  2.3341 -0.0911
   33CHL1   C17 3572   1.084   1.134   4.801  0.1634  0.4086  0.0512
   33CHL1   H17 3573   1.179   1.082   4.825 -0.6399 -0.3742  1.7684
   33CHL1   C13 3574   1.008   1.147   4.935  0.0096  0.7121 -0.5762
   33CHL1   C18 3575   0.864   1.196   4.914 -1.0198  0.5424 -0.9764
   33CHL1  H18A 3576   0.816   1.236   5.006 -0.5157  1.4465 -1.0989
   33CHL1  H18B 3577   0.868   1.285   4.848  1.5643  1.8042  0.6708
   33CHL1  H18C 3578   0.795   1.119   4.874 -1.6953  0.8607 -0.4358
   33CHL1   C12 3579   1.026   1.023   5.027 -0.5798  0.9107  0.3036
   33CHL1  H12A 3580   0.972   0.930   5.000 -1.3910  0.5214  3.0556
   33CHL1  H12B 3581   1.134   1.001   5.038  0.0041  2.9199 -0.8130
   33CHL1   C11 3582   0.972   1.056   5.166 -0.8689 -0.9306  0.3948
   33CHL1  H11A 3583   0.863   1.065   5.148 -0.7378  0.3814  0.1683
   33CHL1  H11B 3584   0.996   0.980   5.244  1.3802  0.6378  1.3126
   33CHL1    C9 3585   1.027   1.196   5.237 -0.4077  0.6426 -0.1418
   33CHL1    H9 3586   1.132   1.179   5.268 -0.4593  0.1473 -0.2159
   33CHL1   C10 3587   0.945   1.243   5.366  0.0827  0.1001  0.5826
   33CHL1   C19 3588   0.787   1.267   5.329 -0.1867 -0.5940  0.2339
   33CHL1  H19A 3589   0.784   1.357   5.265 -0.8466  0.9007  2.2596
   33CHL1  H19B 3590   0.742   1.186   5.268 -0.1210  0.4637 -1.2652
   33CHL1  H19C 3591   0.723   1.279   5.419  1.1177  1.0349  1.0051
   33CHL1    C1 3592   0.952   1.136   5.476 -0.6024 -0.1567  0.3938
   33CHL1   H1A 3593   0.889   1.050   5.443 -0.1321 -0.2673 -0.2266
   33CHL1   H1B 3594   1.056   1.099   5.485 -0.0808  0.8529 -1.0839
   33CHL1    C2 3595   0.910   1.191   5.613 -0.0599 -0.0187 -0.3208
   33CHL1   H2A 3596   0.920   1.105   5.682  3.2703  0.0075 -0.5748
   33CHL1   H2B 3597   0.800   1.200   5.609 -0.2710 -1.3252  1.4506
   33CHL1   C20 3598   0.996   1.065   4.685  0.0916 -0.3346  0.2370
   33CHL1   H20 3599   0.900   1.120   4.678  0.1034 -0.4271 -0.7590
   33CHL1   C21 3600   0.977   0.915   4.710  0.2295 -0.0012 -0.0084
   33CHL1  H21A 3601   0.878   0.890   4.754  0.1169 -0.4416 -0.4949
   33CHL1  H21B 3602   1.052   0.879   4.784 -0.7421  0.1074  1.0590
   33CHL1  H21C 3603   0.980   0.851   4.619  2.7035 -0.2400  0.1449
   33CHL1   C22 3604   1.055   1.094   4.542  0.7202  0.1622 -0.2545
   33CHL1  H22A 3605   1.080   1.202   4.528 -1.3045  0.4902 -1.8236
   33CHL1  H22B 3606   1.144   1.029   4.528  0.5340 -0.3388  0.7792
   33CHL1   C23 3607   0.963   1.070   4.421  0.1392  0.1532 -0.1183
   33CHL1  H23A 3608   0.949   0.960   4.421 -0.4249  0.2268 -0.1104
   33CHL1  H23B 3609   0.866   1.119   4.443 -1.1188 -2.4287  0.4754
   33CHL1   C24 3610   1.013   1.121   4.286 -0.1999  0.0210 -0.1782
   33CHL1  H24A 3611   1.030   1.229   4.306 -2.3395  0.1215  1.4690
   33CHL1  H24B 3612   1.109   1.064   4.278 -1.0484 -1.7693  1.5746
   33CHL1   C25 3613   0.932   1.124   4.160 -0.1096 -0.1503 -0.6370
   33CHL1   H25 3614   0.884   1.026   4.142 -3.7653  1.2743  0.3302
   33CHL1   C26 3615   0.825   1.231   4.184  0.6532  0.1513 -0.2578
   33CHL1  H26A 3616   0.758   1.205   4.269  0.4218 -0.1367 -0.5221
   33CHL1  H26B 3617   0.874   1.330   4.185 -0.0398  0.5014 -0.5401
   33CHL1  H26C 3618   0.761   1.243   4.094 -0.0070  0.5608  0.2608
   33CHL1   C27 3619   1.007   1.169   4.039  0.1374 -0.3067  0.5573
   33CHL1  H27A 3620   1.083   1.091   4.019  1.2242  0.4430  1.5768
   33CHL1  H27B 3621   0.939   1.181   3.953 -0.6496  2.2518  1.4297
   33CHL1  H27C 3622   1.068   1.261   4.052 -0.0187 -0.3531  1.7542
   34CHL1    C3 3623   3.008   2.213   6.247  0.6919 -0.0076 -0.4385
   34CHL1    H3 3624   3.035   2.106   6.233 -1.6210 -0.7289  0.1832
   34CHL1    O3 3625   3.006   2.233   6.391 -0.0019 -0.4931 -0.5604
   34CHL1   H3' 3626   3.092   2.264   6.419  0.1283 -2.0497  0.9181
   34CHL1    C4 3627   3.092   2.309   6.167  0.1169 -0.1835 -0.4329
   34CHL1   H4A 3628   3.050   2.411   6.180  0.2302 -0.3468  1.7034
   34CHL1   H4B 3629   3.190   2.319   6.220 -0.9080  0.7587  1.4179
   34CHL1    C5 3630   3.086   2.282   6.018  1.1917 -0.1365  0.5151
   34CHL1    C6 3631   3.196   2.260   5.950 -0.3562 -0.0823 -0.1090
   34CHL1    H6 3632   3.292   2.273   6.003  0.0207  0.1101 -0.8244
   34CHL1    C7 3633   3.196   2.225   5.801 -0.1418  0.1501 -0.6828
   34CHL1   H7A 3634   3.284   2.282   5.763  3.0535 -3.4503  0.7352
   34CHL1   H7B 3635   3.223   2.118   5.790  1.3393  0.2685  1.3233
   34CHL1    C8 3636   3.067   2.279   5.729 -0.3041  0.3268 -0.2151
   34CHL1    H8 3637   3.072   2.390   5.729  0.7026  0.3923  2.7790
   34CHL1   C14 3638   3.060   2.226   5.584 -0.0279  0.2328 -1.0020
   34CHL1   H14 3639   3.060   2.115   5.597  3.2536 -0.0328 -2.2871
   34CHL1   C15 3640   3.177   2.257   5.488 -0.1821  0.2556  0.0688
   34CHL1  H15A 3641   3.202   2.365   5.502 -1.0941  0.7382 -1.7055
   34CHL1  H15B 3642   3.271   2.200   5.505 -1.4819 -1.8396  0.5873
   34CHL1   C16 3643   3.116   2.251   5.348 -0.3801  0.2858  0.1943
   34CHL1  H16A 3644   3.140   2.345   5.293  2.6571 -1.0439 -0.9834
   34CHL1  H16B 3645   3.159   2.170   5.286 -2.9414  0.8408 -2.5127
   34CHL1   C17 3646   2.966   2.213   5.372  0.0730  0.8022  0.0504
   34CHL1   H17 3647   2.960   2.102   5.375  1.5552  0.6878 -0.2310
   34CHL1   C13 3648   2.928   2.261   5.512  0.0214  0.1171 -0.4387
   34CHL1   C18 3649   2.908   2.412   5.506 -0.3240  1.0478 -0.7658
   34CHL1  H18A 3650   2.809   2.436   5.462 -1.6354 -1.2661  0.6849
   34CHL1  H18B 3651   2.914   2.466   5.603  1.5072  0.0387 -0.2610
   34CHL1  H18C 3652   2.986   2.455   5.440  0.4320 -0.8940 -1.2153
   34CHL1   C12 3653   2.810   2.194   5.597  0.4260  1.0676  0.2995
   34CHL1  H12A 3654   2.710   2.200   5.548  0.2975 -1.6005  0.1003
   34CHL1  H12B 3655   2.838   2.087   5.601  0.3738  1.0678  0.6987
   34CHL1   C11 3656   2.805   2.243   5.741 -0.3420  0.5121 -0.1363
   34CHL1  H11A 3657   2.792   2.353   5.732 -1.4605  0.3117 -1.3195
   34CHL1  H11B 3658   2.730   2.195   5.807  1.0581  0.3406  1.3926
   34CHL1    C9 3659   2.948   2.221   5.808  0.9664 -0.0183  0.5840
   34CHL1    H9 3660   2.958   2.110   5.807  0.8201 -0.0560  1.8241
   34CHL1   C10 3661   2.940   2.275   5.961 -0.4458 -0.7592  0.6230
   34CHL1   C19 3662   2.896   2.430   5.960 -0.1057 -0.6256 -0.5086
   34CHL1  H19A 3663   2.949   2.493   5.886 -0.4903  3.8821  2.7025
   34CHL1  H19B 3664   2.786   2.433   5.947 -0.0830  0.4217 -0.5093
   34CHL1  H19C 3665   2.924   2.477   6.056  0.1927  0.5907 -1.1714
   34CHL1    C1 3666   2.848   2.188   6.042  0.3908 -0.5314 -0.2320
   34CHL1   H1A 3667   2.741   2.215   6.034  0.7323  0.8152 -0.4968
   34CHL1   H1B 3668   2.869   2.080   6.027  0.2937 -0.6543  0.4488
   34CHL1    C2 3669   2.858   2.209   6.200  0.6813 -0.1749 -0.1568
   34CHL1   H2A 3670   2.797   2.133   6.253 -0.6601 -1.1757 -2.9355
   34CHL1   H2B 3671   2.817   2.310   6.222  0.2159  0.2826 -2.7741
   34CHL1   C20 3672   2.884   2.259   5.246 -0.2872  0.1466 -0.1443
   34CHL1   H20 3673   2.897   2.368   5.231 -1.2853 -0.0491 -2.8855
   34CHL1   C21 3674   2.735   2.246   5.275 -0.0320 -0.1830 -0.3776
   34CHL1  H21A 3675   2.668   2.291   5.199  2.5875 -0.7212 -3.1724
   34CHL1  H21B 3676   2.693   2.304   5.360 -0.7462 -1.8772  0.4652
   34CHL1  H21C 3677   2.699   2.143   5.295  0.3061 -0.0475  1.0792
   34CHL1   C22 3678   2.934   2.190   5.111  0.1003 -0.2011 -0.6525
   34CHL1  H22A 3679   3.043   2.205   5.094 -0.0629 -0.1174 -1.7558
   34CHL1  H22B 3680   2.926   2.082   5.133  0.2813  0.2874  2.1402
   34CHL1   C23 3681   2.853   2.230   4.979  0.5018  0.7106  0.5717
   34CHL1  H23A 3682   2.745   2.210   4.998  0.3945 -0.0502 -0.7253
   34CHL1  H23B 3683   2.857   2.336   4.946  1.1398  0.5947  0.2480
   34CHL1   C24 3684   2.909   2.140   4.861 -0.2620  0.1318  0.3123
   34CHL1  H24A 3685   3.020   2.144   4.866 -0.3047  1.1381  0.7244
   34CHL1  H24B 3686   2.879   2.034   4.877 -0.1750  0.0044 -0.3629
   34CHL1   C25 3687   2.868   2.174   4.711 -0.2515 -0.7661 -0.3597
   34CHL1   H25 3688   2.760   2.153   4.695 -0.0651 -1.1971 -1.0979
   34CHL1   C26 3689   2.879   2.326   4.684 -0.2890 -0.1311  0.0727
   34CHL1  H26A 3690   2.842   2.335   4.580 -0.5945  0.1435  0.2043
   34CHL1  H26B 3691   2.821   2.398   4.744 -1.0048  0.7793 -1.6351
   34CHL1  H26C 3692   2.985   2.359   4.691 -1.1709  2.6122  2.3906
   34CHL1   C27 3693   2.940   2.086   4.606  0.5900 -0.2178 -0.2203
   34CHL1  H27A 3694   2.937   2.124   4.502  0.1396  0.4138  0.0201
   34CHL1  H27B 3695   3.047   2.092   4.634  0.0162 -0.0707  2.1382
   34CHL1  H27C 3696   2.908   1.979   4.611  2.1626 -0.7847 -1.5208
   35CHL1    C3 3697   4.429   4.982   6.060 -1.0230 -0.4095  0.1010
   35CHL1    H3 3698   4.432   5.077   6.004  0.2206 -0.9327 -0.7605
   35CHL1    O3 3699   4.462   5.010   6.194 -0.0238 -0.1062 -0.5138
   35CHL1   H3' 3700   4.396   4.966   6.248  0.9463 -2.0605 -0.8312
   35CHL1    C4 3701   4.285   4.931   6.055  0.0675 -0.5403 -0.7872
   35CHL1   H4A 3702   4.277   4.838   6.117  2.4926 -0.3927 -0.1551
   35CHL1   H4B 3703   4.215   5.000   6.107  1.8923 -1.0086  2.5957
   35CHL1    C5 3704   4.240   4.892   5.915 -0.9611 -0.3652 -0.1973
   35CHL1    C6 3705   4.127   4.939   5.861 -0.4159 -0.0848  0.1818
   35CHL1    H6 3706   4.067   5.008   5.923  1.0021  1.7582 -0.3931
   35CHL1    C7 3707   4.078   4.910   5.727  0.2833 -0.7170  0.0393
   35CHL1   H7A 3708   3.975   4.871   5.730 -0.5571  0.7879 -3.6094
   35CHL1   H7B 3709   4.071   4.998   5.659 -1.4378 -0.2217  0.8164
   35CHL1    C8 3710   4.154   4.789   5.656 -0.4471  0.1798  0.3555
   35CHL1    H8 3711   4.111   4.698   5.705  0.1328  0.6763  1.8405
   35CHL1   C14 3712   4.129   4.782   5.509  0.3163 -0.0869  0.3815
   35CHL1   H14 3713   4.173   4.874   5.464 -0.4598 -0.6220 -1.5987
   35CHL1   C15 3714   3.983   4.788   5.460  0.3875 -0.3147 -0.4621
   35CHL1  H15A 3715   3.926   4.711   5.518 -0.9446  1.6754  1.0352
   35CHL1  H15B 3716   3.932   4.884   5.480  1.5464 -0.2124  2.5426
   35CHL1   C16 3717   3.983   4.740   5.318  0.1633  0.2602 -0.3354
   35CHL1  H16A 3718   3.904   4.662   5.309 -2.6096  2.6514  1.6836
   35CHL1  H16B 3719   3.959   4.821   5.246 -0.5953 -0.2256 -0.6437
   35CHL1   C17 3720   4.126   4.685   5.293 -0.0794  0.6264 -0.3567
   35CHL1   H17 3721   4.178   4.770   5.242 -0.4999  1.2523  0.2440
   35CHL1   C13 3722   4.193   4.668   5.435  0.0590 -0.2210  0.1099
   35CHL1   C18 3723   4.140   4.536   5.498  0.1836  0.1079 -0.4311
   35CHL1  H18A 3724   4.177   4.448   5.440  1.9908 -0.0888  0.9210
   35CHL1  H18B 3725   4.183   4.517   5.599  0.1445 -3.0181 -0.9133
   35CHL1  H18C 3726   4.030   4.531   5.508  0.0393  0.1751 -1.7822
   35CHL1   C12 3727   4.343   4.684   5.450  0.2382  0.5609  0.0877
   35CHL1  H12A 3728   4.390   4.605   5.387  1.0530  0.4708  0.7982
   35CHL1  H12B 3729   4.384   4.779   5.409  1.3262  0.9920  2.0979
   35CHL1   C11 3730   4.388   4.692   5.594  0.5891  0.1158  0.5719
   35CHL1  H11A 3731   4.357   4.599   5.646  1.6179  0.3052  1.5729
   35CHL1  H11B 3732   4.497   4.710   5.611 -0.0781  0.9990  5.3763
   35CHL1    C9 3733   4.307   4.802   5.680  0.1909 -0.0288  0.0807
   35CHL1    H9 3734   4.340   4.899   5.638 -0.1939 -0.2361 -0.7148
   35CHL1   C10 3735   4.340   4.808   5.831 -0.5362  0.1430 -0.5468
   35CHL1   C19 3736   4.334   4.668   5.885 -0.3306 -0.1266  0.6830
   35CHL1  H19A 3737   4.424   4.613   5.848  0.5575  1.3332  0.6180
   35CHL1  H19B 3738   4.343   4.661   5.996 -3.0017  1.6665  1.0866
   35CHL1  H19C 3739   4.243   4.614   5.852  0.3622 -0.5050 -0.6863
   35CHL1    C1 3740   4.480   4.858   5.851  0.3152 -0.2498 -0.1892
   35CHL1   H1A 3741   4.552   4.781   5.817  0.1310 -0.7009  0.4314
   35CHL1   H1B 3742   4.499   4.951   5.792  2.9363 -1.6621 -1.7322
   35CHL1    C2 3743   4.524   4.885   5.991  0.3236  0.0314 -0.6216
   35CHL1   H2A 3744   4.629   4.919   5.977  0.9751 -2.0427 -1.2095
   35CHL1   H2B 3745   4.520   4.787   6.043 -0.1927 -0.0577 -0.8176
   35CHL1   C20 3746   4.130   4.564   5.196  0.4524 -0.9855 -0.5544
   35CHL1   H20 3747   4.081   4.478   5.246  2.1455 -3.1660 -2.4120
   35CHL1   C21 3748   4.263   4.509   5.155 -0.1354  0.7659 -0.0223
   35CHL1  H21A 3749   4.306   4.448   5.238  1.2169  0.5646 -0.8407
   35CHL1  H21B 3750   4.329   4.596   5.135  1.1194 -0.4169 -1.2208
   35CHL1  H21C 3751   4.260   4.444   5.065  1.2941  0.7526 -0.0827
   35CHL1   C22 3752   4.045   4.580   5.066 -0.8497  0.2438 -0.7891
   35CHL1  H22A 3753   4.059   4.491   5.000 -0.9025 -0.5197  0.2089
   35CHL1  H22B 3754   3.936   4.588   5.085 -0.4480  0.6510  1.5982
   35CHL1   C23 3755   4.089   4.693   4.980  0.2250  0.4405 -0.1116
   35CHL1  H23A 3756   4.087   4.786   5.041  0.4570 -0.1066  0.7434
   35CHL1  H23B 3757   4.194   4.667   4.958  1.0033  0.1495  3.4495
   35CHL1   C24 3758   3.996   4.704   4.858 -0.5344 -0.0273 -0.0080
   35CHL1  H24A 3759   4.014   4.607   4.806  0.8162 -1.2265  2.5434
   35CHL1  H24B 3760   3.895   4.726   4.898  0.2804  0.8764  1.6233
   35CHL1   C25 3761   4.034   4.807   4.757 -0.3820 -0.1629  0.5728
   35CHL1   H25 3762   4.137   4.781   4.725  0.4858 -2.2260  4.5133
   35CHL1   C26 3763   3.942   4.796   4.637 -0.5231 -0.1169 -0.2482
   35CHL1  H26A 3764   3.834   4.783   4.661  0.1615 -1.1714  2.7538
   35CHL1  H26B 3765   3.935   4.890   4.579  0.7924 -0.9220 -1.7879
   35CHL1  H26C 3766   3.971   4.706   4.579 -1.1512 -0.8973  0.6146
   35CHL1   C27 3767   4.023   4.954   4.815  0.2961 -0.2225 -0.2084
   35CHL1  H27A 3768   4.037   5.027   4.733 -0.7054  0.4791  0.2304
   35CHL1  H27B 3769   3.922   4.953   4.860  0.3263 -2.5405 -0.0596
   35CHL1  H27C 3770   4.100   4.966   4.894  1.0120 -0.9727 -0.7736
   36CHL1    C3 3771   6.765   4.144   6.183  0.1049 -0.8391 -0.0958
   36CHL1    H3 3772   6.684   4.213   6.153 -0.9106 -0.2393  3.5841
   36CHL1    O3 3773   6.738   4.107   6.317  0.6419  0.3682  0.4517
   36CHL1   H3' 3774   6.793   4.032   6.339 -0.9283 -0.3175  2.2933
   36CHL1    C4 3775   6.760   4.015   6.096 -0.0748  0.4004 -0.3660
   36CHL1   H4A 3776   6.840   3.948   6.133 -0.4541  1.5387  2.8732
   36CHL1   H4B 3777   6.670   3.953   6.117  0.0159  0.3713 -0.0481
   36CHL1    C5 3778   6.790   4.053   5.946 -0.7619 -0.8158 -1.3892
   36CHL1    C6 3779   6.698   4.016   5.857 -0.1939 -0.4968 -0.6012
   36CHL1    H6 3780   6.610   3.957   5.885  0.6403 -1.3010  0.3979
   36CHL1    C7 3781   6.720   4.043   5.713  0.5453 -0.2406  0.2535
   36CHL1   H7A 3782   6.682   3.954   5.659  1.3560 -0.7051  0.4288
   36CHL1   H7B 3783   6.662   4.136   5.693  2.1137  0.7422  0.1268
   36CHL1    C8 3784   6.871   4.085   5.675 -0.0688 -0.0345  0.9170
   36CHL1    H8 3785   6.930   3.997   5.643 -1.8149 -0.2935 -1.8995
   36CHL1   C14 3786   6.863   4.161   5.543  0.2834  0.5971  0.5094
   36CHL1   H14 3787   6.797   4.250   5.555 -0.4554  0.0782  0.3476
   36CHL1   C15 3788   6.796   4.087   5.417 -0.1286  0.5768 -0.3429
   36CHL1  H15A 3789   6.828   3.981   5.422 -0.0391  0.5622 -1.0816
   36CHL1  H15B 3790   6.685   4.092   5.420 -0.1730 -0.4365 -0.0748
   36CHL1   C16 3791   6.851   4.167   5.297 -0.0127 -0.6956 -0.0310
   36CHL1  H16A 3792   6.900   4.099   5.224  2.6404 -0.4109  1.3686
   36CHL1  H16B 3793   6.767   4.230   5.261 -1.4314 -0.2917  3.6251
   36CHL1   C17 3794   6.956   4.271   5.355  0.8861 -0.2025 -0.1150
   36CHL1   H17 3795   6.895   4.361   5.378 -1.1983 -1.6064  0.1200
   36CHL1   C13 3796   7.004   4.199   5.487  0.2781 -0.0833 -0.3092
   36CHL1   C18 3797   7.103   4.090   5.448 -0.2078  0.1566  0.2041
   36CHL1  H18A 3798   7.060   4.026   5.368  0.3246  1.7975 -1.4717
   36CHL1  H18B 3799   7.201   4.122   5.407 -0.7079  3.0075  1.0231
   36CHL1  H18C 3800   7.135   4.029   5.535  0.5400  2.1006  1.3700
   36CHL1   C12 3801   7.076   4.295   5.589  1.4253 -0.1088  0.7677
   36CHL1  H12A 3802   7.179   4.312   5.550  1.4195  2.0956  1.5555
   36CHL1  H12B 3803   7.015   4.387   5.577  1.7759 -0.1407 -2.2111
   36CHL1   C11 3804   7.065   4.241   5.735 -0.1218 -0.0816 -0.1231
   36CHL1  H11A 3805   7.137   4.156   5.734  0.9935  0.7273  2.6542
   36CHL1  H11B 3806   7.099   4.320   5.805  1.0707 -0.2469 -0.4894
   36CHL1    C9 3807   6.925   4.183   5.778 -0.3240  0.1960 -0.2412
   36CHL1    H9 3808   6.860   4.272   5.775  0.1246  0.5444  0.2409
   36CHL1   C10 3809   6.926   4.132   5.926  0.6657  0.0703  0.4837
   36CHL1   C19 3810   7.047   4.034   5.949 -0.3554  0.4408 -0.6518
   36CHL1  H19A 3811   7.037   3.950   5.877 -1.0564  0.8376 -1.0274
   36CHL1  H19B 3812   7.142   4.089   5.934 -0.3986  0.8186  0.3833
   36CHL1  H19C 3813   7.023   4.000   6.052 -0.2309  0.0777 -0.7417
   36CHL1    C1 3814   6.926   4.247   6.030  0.1401 -0.1195  0.5537
   36CHL1   H1A 3815   7.025   4.296   6.016  0.9802 -1.7978  0.3505
   36CHL1   H1B 3816   6.851   4.322   5.998  2.3904  0.8219 -3.1694
   36CHL1    C2 3817   6.898   4.218   6.177 -0.1927 -0.0244  0.2051
   36CHL1   H2A 3818   6.883   4.316   6.228  2.2426  0.7371 -0.4420
   36CHL1   H2B 3819   6.989   4.174   6.221  0.4483 -0.6371 -1.6305
   36CHL1   C20 3820   7.061   4.320   5.258  0.2716 -0.1555  0.0042
   36CHL1   H20 3821   7.114   4.231   5.217  1.2576  1.8917 -3.6154
   36CHL1   C21 3822   7.170   4.414   5.317  0.2086 -0.3533  0.4805
   36CHL1  H21A 3823   7.255   4.354   5.356  1.3007  0.1222 -1.0487
   36CHL1  H21B 3824   7.132   4.483   5.396  0.7140  0.2124  0.2404
   36CHL1  H21C 3825   7.211   4.486   5.243 -1.2695  1.5191  1.3822
   36CHL1   C22 3826   6.999   4.386   5.132 -0.3270  1.0922 -0.0478
   36CHL1  H22A 3827   6.898   4.343   5.113 -0.8744  2.6635 -0.8418
   36CHL1  H22B 3828   6.979   4.492   5.159 -1.8054  1.2786 -1.6893
   36CHL1   C23 3829   7.094   4.377   5.009 -0.2631 -0.2928 -0.7724
   36CHL1  H23A 3830   7.183   4.443   5.018  0.1227 -0.6597 -1.8213
   36CHL1  H23B 3831   7.125   4.270   5.013 -2.6663 -1.0538 -0.6093
   36CHL1   C24 3832   7.010   4.404   4.882  0.4124  0.6166 -0.4034
   36CHL1  H24A 3833   6.918   4.459   4.911 -0.3461 -1.8903  2.6038
   36CHL1  H24B 3834   7.074   4.472   4.822  1.6132  1.0976  1.3592
   36CHL1   C25 3835   6.972   4.288   4.793 -0.3118  0.2331 -0.6296
   36CHL1   H25 3836   7.062   4.233   4.760 -0.5644  0.7031 -2.1914
   36CHL1   C26 3837   6.880   4.187   4.870 -0.6016 -0.3021 -0.3275
   36CHL1  H26A 3838   6.934   4.165   4.964 -0.3111  1.2082 -0.1132
   36CHL1  H26B 3839   6.776   4.217   4.896 -1.2082 -2.7173  0.2741
   36CHL1  H26C 3840   6.878   4.100   4.801  3.9287 -0.0177 -1.1370
   36CHL1   C27 3841   6.901   4.338   4.670  0.6908  1.0877 -0.0130
   36CHL1  H27A 3842   6.814   4.402   4.699  0.3084  0.5050  0.1390
   36CHL1  H27B 3843   6.972   4.407   4.619  1.3578  0.2053 -0.2877
   36CHL1  H27C 3844   6.873   4.255   4.602  0.5417  0.2789  1.0153
   37CHL1    C3 3845   0.537   0.536   5.820 -0.0662 -0.1248  0.3000
   37CHL1    H3 3846   0.596   0.589   5.741 -0.6216  0.8726  0.5403
   37CHL1    O3 3847   0.591   0.567   5.944  0.1968 -0.6165  0.4319
   37CHL1   H3' 3848   0.543   0.510   6.005 -1.4524  0.1258 -0.0999
   37CHL1    C4 3849   0.386   0.581   5.816  0.6754  0.2334 -0.2716
   37CHL1   H4A 3850   0.339   0.537   5.906  1.4478 -1.6659 -0.7437
   37CHL1   H4B 3851   0.383   0.691   5.828 -1.6232  0.1570  0.4303
   37CHL1    C5 3852   0.310   0.532   5.694 -1.1392  0.0695  0.1672
   37CHL1    C6 3853   0.255   0.622   5.614  0.1555 -0.3948 -0.0266
   37CHL1    H6 3854   0.263   0.729   5.634  0.7831 -0.9243  2.9643
   37CHL1    C7 3855   0.172   0.585   5.493  0.0400  1.0539  0.3061
   37CHL1   H7A 3856   0.080   0.643   5.473 -0.6722  0.3888  1.4999
   37CHL1   H7B 3857   0.237   0.610   5.407  1.6458  0.7029  1.3574
   37CHL1    C8 3858   0.135   0.436   5.497 -0.8207  0.9693 -0.5390
   37CHL1    H8 3859   0.054   0.429   5.573  0.1740  0.4412  0.4845
   37CHL1   C14 3860   0.085   0.389   5.358  0.7591 -0.2195 -0.1828
   37CHL1   H14 3861   0.172   0.394   5.290  0.1226  0.7421 -0.9553
   37CHL1   C15 3862  -0.027   0.471   5.304  0.1744 -0.2054  0.4252
   37CHL1  H15A 3863  -0.097   0.488   5.389 -0.9998  1.7536 -0.8517
   37CHL1  H15B 3864   0.011   0.565   5.259 -0.1593  0.2460  1.0627
   37CHL1   C16 3865  -0.091   0.370   5.199  0.3961 -0.6028 -0.7472
   37CHL1  H16A 3866  -0.202   0.377   5.205  0.4015  3.6021 -2.2813
   37CHL1  H16B 3867  -0.071   0.408   5.096  0.4592 -0.1277 -0.5636
   37CHL1   C17 3868  -0.015   0.237   5.206 -0.6683  0.3338  0.8510
   37CHL1   H17 3869   0.070   0.255   5.137 -1.0648 -1.2352 -0.1120
   37CHL1   C13 3870   0.041   0.242   5.349 -0.7491 -0.0583  0.0556
   37CHL1   C18 3871  -0.071   0.201   5.448  0.0266 -0.1621  0.6883
   37CHL1  H18A 3872  -0.094   0.092   5.445 -0.3445 -0.0954  1.0362
   37CHL1  H18B 3873  -0.044   0.219   5.554 -0.0398 -1.4351  0.9343
   37CHL1  H18C 3874  -0.161   0.260   5.420 -0.5533 -1.3766 -0.0983
   37CHL1   C12 3875   0.172   0.156   5.371  0.2297  1.1418  0.0176
   37CHL1  H12A 3876   0.161   0.046   5.362  0.1125  0.9050  2.3539
   37CHL1  H12B 3877   0.258   0.180   5.305  1.2149 -3.3865 -0.6716
   37CHL1   C11 3878   0.234   0.189   5.504  0.3210 -0.4737  0.1980
   37CHL1  H11A 3879   0.158   0.156   5.578  0.8475  0.1781  1.0483
   37CHL1  H11B 3880   0.321   0.123   5.521  1.5924  1.0829  0.0029
   37CHL1    C9 3881   0.259   0.341   5.534 -0.4361 -0.0028  0.5970
   37CHL1    H9 3882   0.335   0.370   5.458 -0.4855  0.2979  0.6596
   37CHL1   C10 3883   0.314   0.380   5.670 -0.4884  0.1808 -0.2802
   37CHL1   C19 3884   0.246   0.292   5.784 -0.5373 -0.0503 -0.1437
   37CHL1  H19A 3885   0.282   0.336   5.879  1.7776 -0.1554 -0.9083
   37CHL1  H19B 3886   0.135   0.296   5.774 -0.4175  1.1380 -1.2421
   37CHL1  H19C 3887   0.273   0.185   5.773  0.7947  0.3263 -0.6991
   37CHL1    C1 3888   0.466   0.334   5.678 -0.0458 -0.2077 -0.4561
   37CHL1   H1A 3889   0.475   0.224   5.668  2.0599 -0.0209 -1.1787
   37CHL1   H1B 3890   0.513   0.382   5.589  1.0893  1.4060  0.9378
   37CHL1    C2 3891   0.555   0.383   5.792  0.4192 -0.4020  0.3428
   37CHL1   H2A 3892   0.657   0.341   5.781  1.0933  0.6903  2.0270
   37CHL1   H2B 3893   0.505   0.335   5.879  0.2053 -1.4368 -0.3239
   37CHL1   C20 3894  -0.080   0.108   5.159 -0.5105  0.7578 -0.0361
   37CHL1   H20 3895  -0.050   0.016   5.214  1.1267  0.8066 -0.7904
   37CHL1   C21 3896  -0.021   0.085   5.017  0.0603 -0.2354 -0.5326
   37CHL1  H21A 3897   0.090   0.080   5.009  0.1292  0.1145  0.1115
   37CHL1  H21B 3898  -0.053   0.161   4.943  0.8204 -0.6030 -1.2489
   37CHL1  H21C 3899  -0.064  -0.005   4.970 -0.7914  0.8041 -1.8128
   37CHL1   C22 3900  -0.227   0.128   5.152 -0.3992 -0.5470  0.2271
   37CHL1  H22A 3901  -0.278   0.161   5.246 -0.8233 -2.1880  0.6129
   37CHL1  H22B 3902  -0.236   0.199   5.067  3.8603  0.1164  0.1364
   37CHL1   C23 3903  -0.304   0.002   5.118  0.7678  0.7579  0.2541
   37CHL1  H23A 3904  -0.281  -0.033   5.015  0.3411  0.7876  0.1498
   37CHL1  H23B 3905  -0.276  -0.076   5.192 -0.4397  0.5473  0.4974
   37CHL1   C24 3906  -0.458   0.023   5.132 -0.2416  0.6690  0.0775
   37CHL1  H24A 3907  -0.489   0.040   5.237 -0.5984  0.5920 -0.0133
   37CHL1  H24B 3908  -0.487   0.114   5.076  1.2305  0.2743 -1.4362
   37CHL1   C25 3909  -0.541  -0.097   5.085  0.7085  0.0600 -0.6073
   37CHL1   H25 3910  -0.500  -0.134   4.988  2.3221  0.4476 -0.1105
   37CHL1   C26 3911  -0.522  -0.218   5.179 -0.5927 -0.9408  1.1090
   37CHL1  H26A 3912  -0.417  -0.248   5.196  1.1136  3.7387  0.1984
   37CHL1  H26B 3913  -0.554  -0.204   5.285  1.9053  1.6665  1.6570
   37CHL1  H26C 3914  -0.586  -0.300   5.139 -1.7213  0.3901  0.0908
   37CHL1   C27 3915  -0.690  -0.054   5.063  0.2018 -0.2600  0.3023
   37CHL1  H27A 3916  -0.708   0.027   4.989 -1.9816 -1.7778 -0.9611
   37CHL1  H27B 3917  -0.755  -0.138   5.028 -0.2131 -0.0647  0.6016
   37CHL1  H27C 3918  -0.719  -0.019   5.164  0.9413 -0.8886  0.7503
   38CHL1    C3 3919   2.171   1.231   6.235  0.5998  0.6014 -0.4316
   38CHL1    H3 3920   2.060   1.239   6.235  0.7142  2.8089 -0.2223
   38CHL1    O3 3921   2.210   1.256   6.365  0.1291 -0.2269 -0.2938
   38CHL1   H3' 3922   2.207   1.172   6.411  3.5272 -0.0857  0.4528
   38CHL1    C4 3923   2.204   1.088   6.200 -0.7281  0.2558  0.0594
   38CHL1   H4A 3924   2.312   1.077   6.225 -0.3846 -0.2853 -1.5431
   38CHL1   H4B 3925   2.156   1.011   6.264  1.3788 -1.1279  0.0768
   38CHL1    C5 3926   2.187   1.054   6.054  0.3684 -0.5806  0.8583
   38CHL1    C6 3927   2.105   0.952   6.006  0.1218 -0.3514  0.0275
   38CHL1    H6 3928   2.047   0.894   6.079 -1.0324 -1.8879 -2.0063
   38CHL1    C7 3929   2.090   0.911   5.860  0.1697 -0.1939  0.8605
   38CHL1   H7A 3930   2.113   0.803   5.844  2.7093  0.2341  1.2147
   38CHL1   H7B 3931   1.993   0.934   5.812  0.2972 -2.5495 -0.7428
   38CHL1    C8 3932   2.199   0.975   5.766  0.0075  0.3811  0.6775
   38CHL1    H8 3933   2.301   0.934   5.780  0.2750  1.2076  1.2631
   38CHL1   C14 3934   2.164   0.956   5.619  0.5958 -0.5816 -0.0163
   38CHL1   H14 3935   2.066   1.005   5.602  0.8552 -0.0759 -0.0505
   38CHL1   C15 3936   2.133   0.816   5.570 -0.5630  0.0279  0.2385
   38CHL1  H15A 3937   2.210   0.745   5.609  1.3040  1.9660  0.2662
   38CHL1  H15B 3938   2.033   0.787   5.609 -0.3156  0.8265  1.5399
   38CHL1   C16 3939   2.152   0.821   5.417  0.1696 -0.0603 -0.7944
   38CHL1  H16A 3940   2.242   0.757   5.407 -0.7488 -1.9856  2.1121
   38CHL1  H16B 3941   2.066   0.786   5.356 -0.5815  1.2842 -0.5468
   38CHL1   C17 3942   2.199   0.967   5.392 -0.3130  0.2181  0.6750
   38CHL1   H17 3943   2.101   1.019   5.382 -2.2617 -3.1615  0.5089
   38CHL1   C13 3944   2.255   1.023   5.527 -0.8452 -0.1274  0.4523
   38CHL1   C18 3945   2.401   0.971   5.531 -0.4160 -0.9681  0.7842
   38CHL1  H18A 3946   2.460   1.025   5.453 -1.7115 -0.4096  0.1624
   38CHL1  H18B 3947   2.436   0.978   5.636 -1.3337 -1.5045  1.1395
   38CHL1  H18C 3948   2.397   0.865   5.499 -0.0217 -0.0087 -2.9929
   38CHL1   C12 3949   2.244   1.178   5.553 -0.2405  0.0380 -0.2616
   38CHL1  H12A 3950   2.315   1.245   5.500 -0.9116  1.6970  0.8894
   38CHL1  H12B 3951   2.143   1.211   5.522  0.2215  2.4357  0.5863
   38CHL1   C11 3952   2.284   1.206   5.699  0.7277 -0.3699  0.8378
   38CHL1  H11A 3953   2.395   1.200   5.706  0.9108  2.1114  1.1706
   38CHL1  H11B 3954   2.254   1.312   5.718 -0.1075 -0.5042  0.3291
   38CHL1    C9 3955   2.204   1.123   5.802 -0.4449 -1.1304 -0.0671
   38CHL1    H9 3956   2.099   1.160   5.796 -1.0013 -2.4371  1.0609
   38CHL1   C10 3957   2.250   1.153   5.950 -0.2282 -0.5992 -0.1964
   38CHL1   C19 3958   2.405   1.137   5.961  0.1050  0.1991  0.4007
   38CHL1  H19A 3959   2.433   1.032   5.935 -0.3732  0.3322 -0.7301
   38CHL1  H19B 3960   2.455   1.223   5.912  1.8932  0.0414  1.8414
   38CHL1  H19C 3961   2.429   1.153   6.068  0.8779  2.5067 -0.0648
   38CHL1    C1 3962   2.213   1.300   5.991 -0.6484 -0.3518  0.2042
   38CHL1   H1A 3963   2.275   1.369   5.930 -0.1768 -2.7424 -2.2239
   38CHL1   H1B 3964   2.105   1.312   5.966 -0.4422 -3.3609 -2.8861
   38CHL1    C2 3965   2.230   1.343   6.142  0.2826  0.3379 -0.2808
   38CHL1   H2A 3966   2.183   1.442   6.158  1.0481  0.8554 -1.1477
   38CHL1   H2B 3967   2.339   1.345   6.162  0.3152 -0.9462 -0.2361
   38CHL1   C20 3968   2.268   0.981   5.254 -0.2038 -0.3142  0.4079
   38CHL1   H20 3969   2.357   0.916   5.262 -2.5804 -3.6755  2.3942
   38CHL1   C21 3970   2.310   1.132   5.214 -0.3361  0.1674 -0.1602
   38CHL1  H21A 3971   2.238   1.180   5.144 -0.7240 -1.2558 -0.7824
   38CHL1  H21B 3972   2.403   1.141   5.155 -0.9770 -0.8446 -1.3978
   38CHL1  H21C 3973   2.311   1.196   5.305 -0.9301  0.9031 -0.6631
   38CHL1   C22 3974   2.176   0.925   5.141  0.6627  0.7994  0.2335
   38CHL1  H22A 3975   2.151   0.818   5.157  2.2481  0.2491 -0.7226
   38CHL1  H22B 3976   2.082   0.983   5.142 -0.5522 -1.0713 -0.0691
   38CHL1   C23 3977   2.248   0.935   5.003 -0.3966  0.4969 -0.0646
   38CHL1  H23A 3978   2.249   1.043   4.975 -0.7645  0.1717 -1.4163
   38CHL1  H23B 3979   2.354   0.903   5.013 -0.8424 -0.9239  0.3699
   38CHL1   C24 3980   2.171   0.868   4.887  0.6581 -0.7236 -0.7568
   38CHL1  H24A 3981   2.186   0.758   4.888 -0.2012 -0.8777  1.9215
   38CHL1  H24B 3982   2.061   0.877   4.900  0.5016 -3.8282  0.9540
   38CHL1   C25 3983   2.214   0.939   4.757  0.1813 -0.0025  0.6267
   38CHL1   H25 3984   2.204   1.045   4.786  0.1504 -0.6685  3.3285
   38CHL1   C26 3985   2.364   0.910   4.708  0.2348  0.3619  0.2637
   38CHL1  H26A 3986   2.375   0.806   4.672  0.9998 -1.5132  5.1140
   38CHL1  H26B 3987   2.404   0.982   4.634 -0.2947 -0.7984 -1.2049
   38CHL1  H26C 3988   2.426   0.924   4.799 -1.2800  1.2912  1.2102
   38CHL1   C27 3989   2.119   0.899   4.639 -0.5936 -0.7182  0.1583
   38CHL1  H27A 3990   2.136   0.946   4.540  1.4307 -2.3994 -0.3784
   38CHL1  H27B 3991   2.114   0.788   4.631  0.3701 -0.7664  0.0926
   38CHL1  H27C 3992   2.015   0.933   4.660 -0.6668  0.0981 -1.3524
   39CHL1    C3 3993   4.168   2.396   6.208  0.7403  0.4131 -0.3290
   39CHL1    H3 3994   4.060   2.369   6.217  1.1980 -2.3901 -2.0934
   39CHL1    O3 3995   4.217   2.436   6.337  0.5379 -0.2524  0.1249
   39CHL1   H3' 3996   4.210   2.530   6.350 -2.3212 -0.0910 -1.8114
   39CHL1    C4 3997   4.249   2.266   6.173 -0.2036 -0.7701 -0.4817
   39CHL1   H4A 3998   4.358   2.289   6.172 -0.0165 -1.6279 -0.4791
   39CHL1   H4B 3999   4.238   2.185   6.249  1.1295  1.4711  2.3069
   39CHL1    C5 4000   4.201   2.214   6.039  0.1178 -0.0653  0.0706
   39CHL1    C6 4001   4.154   2.090   6.027  0.2139  0.6557  0.2522
   39CHL1    H6 4002   4.142   2.023   6.113  0.5108  1.3758  0.8687
   39CHL1    C7 4003   4.106   2.034   5.894  0.4954  0.3437  0.0503
   39CHL1   H7A 4004   4.151   1.932   5.895  2.8356  1.2842  1.8340
   39CHL1   H7B 4005   3.995   2.029   5.891  0.4765 -1.0337  1.5559
   39CHL1    C8 4006   4.155   2.113   5.774  0.0419 -0.1946  0.9946
   39CHL1    H8 4007   4.265   2.095   5.768  0.1615  0.8218 -0.3494
   39CHL1   C14 4008   4.108   2.063   5.630 -0.1816 -0.5976 -0.2875
   39CHL1   H14 4009   3.999   2.080   5.641 -0.1090 -0.2031 -0.1493
   39CHL1   C15 4010   4.116   1.913   5.586 -0.5529  0.5037 -0.2571
   39CHL1  H15A 4011   4.217   1.876   5.613 -0.1945  1.6680  0.0555
   39CHL1  H15B 4012   4.044   1.849   5.641 -0.2132 -1.1210 -1.6201
   39CHL1   C16 4013   4.096   1.919   5.429 -0.6972  0.2513 -0.5571
   39CHL1  H16A 4014   4.185   1.876   5.378 -0.5406  1.0035 -0.9331
   39CHL1  H16B 4015   4.005   1.860   5.404 -2.2467  2.4350 -0.3981
   39CHL1   C17 4016   4.085   2.070   5.398  0.0372  0.3179  0.3415
   39CHL1   H17 4017   3.979   2.099   5.415 -1.1302 -0.0240 -4.9018
   39CHL1   C13 4018   4.158   2.146   5.513  0.1379  0.2818  0.0426
   39CHL1   C18 4019   4.309   2.134   5.499 -0.3359  0.2219 -0.1284
   39CHL1  H18A 4020   4.368   2.142   5.594  0.9671 -2.7718 -0.5380
   39CHL1  H18B 4021   4.340   2.031   5.470 -0.2170  0.3700 -0.5319
   39CHL1  H18C 4022   4.351   2.213   5.434 -0.9831 -0.3509 -1.2769
   39CHL1   C12 4023   4.119   2.295   5.541 -0.1739  0.1156 -0.1004
   39CHL1  H12A 4024   4.166   2.363   5.466  1.9033 -0.0423  1.0013
   39CHL1  H12B 4025   4.010   2.309   5.522 -0.1768 -0.5377 -0.6257
   39CHL1   C11 4026   4.160   2.353   5.675 -0.7005  0.3664  0.4307
   39CHL1  H11A 4027   4.268   2.368   5.658 -0.5159 -1.2396  0.0181
   39CHL1  H11B 4028   4.111   2.453   5.679  1.1432  1.3353  0.1023
   39CHL1    C9 4029   4.135   2.262   5.797  0.2604 -0.3682  0.3739
   39CHL1    H9 4030   4.028   2.266   5.825  0.1408  0.3831 -0.1633
   39CHL1   C10 4031   4.211   2.315   5.924 -0.0037 -0.3130  0.6068
   39CHL1   C19 4032   4.361   2.325   5.894  0.2692 -0.0554  0.3212
   39CHL1  H19A 4033   4.390   2.403   5.820  1.2670 -3.2693 -2.9742
   39CHL1  H19B 4034   4.421   2.333   5.987 -0.3674 -1.0923  0.8388
   39CHL1  H19C 4035   4.392   2.226   5.853 -0.7115 -0.5174  0.6758
   39CHL1    C1 4036   4.149   2.454   5.969 -0.6901 -0.3874  0.0545
   39CHL1   H1A 4037   4.184   2.525   5.891 -0.5681 -0.4791  0.0255
   39CHL1   H1B 4038   4.039   2.438   5.967 -0.7334 -0.3564  1.2960
   39CHL1    C2 4039   4.191   2.501   6.107  0.0774 -0.1777  0.2317
   39CHL1   H2A 4040   4.125   2.586   6.134 -0.1057  0.4018 -1.8746
   39CHL1   H2B 4041   4.300   2.526   6.104  0.3640 -1.3616 -2.4625
   39CHL1   C20 4042   4.139   2.107   5.258 -0.4502 -0.2225 -0.1085
   39CHL1   H20 4043   4.239   2.153   5.267 -0.8289  0.7107 -0.5517
   39CHL1   C21 4044   4.048   2.220   5.214 -0.2309 -0.4513 -0.1334
   39CHL1  H21A 4045   4.069   2.251   5.110  2.2507  2.6525  1.1170
   39CHL1  H21B 4046   4.074   2.308   5.277 -0.5872  0.8076 -1.6899
   39CHL1  H21C 4047   3.940   2.199   5.230 -0.1652 -3.2688 -2.4080
   39CHL1   C22 4048   4.146   1.994   5.148  0.0479 -0.0092 -1.1695
   39CHL1  H22A 4049   4.225   1.926   5.188 -0.7992  0.2239  1.0799
   39CHL1  H22B 4050   4.045   1.953   5.129 -0.2635  1.2608 -2.3547
   39CHL1   C23 4051   4.196   2.032   5.013  0.9253  0.5801  0.0534
   39CHL1  H23A 4052   4.215   1.952   4.938  1.8228  1.9701 -1.2679
   39CHL1  H23B 4053   4.127   2.106   4.966  1.9561  2.4967  1.4139
   39CHL1   C24 4054   4.330   2.104   4.998 -0.5859  0.7038 -0.1614
   39CHL1  H24A 4055   4.339   2.144   4.895 -0.2869  0.1490 -0.3594
   39CHL1  H24B 4056   4.330   2.197   5.057  0.4790  2.3829 -2.6307
   39CHL1   C25 4057   4.456   2.028   5.031  0.2217  0.1190  0.5953
   39CHL1   H25 4058   4.456   2.001   5.139 -1.0470 -2.0837  0.1198
   39CHL1   C26 4059   4.477   1.887   4.959  0.1938  0.2988  0.0534
   39CHL1  H26A 4060   4.554   1.831   5.016 -0.6882 -1.9973 -0.9070
   39CHL1  H26B 4061   4.382   1.831   4.954  0.2298  0.2863 -0.8034
   39CHL1  H26C 4062   4.507   1.918   4.856  0.3753  1.2554  0.3849
   39CHL1   C27 4063   4.579   2.110   5.009  0.1300 -0.1345  0.2519
   39CHL1  H27A 4064   4.567   2.196   5.079 -2.1762 -1.0900  1.1516
   39CHL1  H27B 4065   4.676   2.060   5.027 -0.5296 -1.5664 -0.0534
   39CHL1  H27C 4066   4.581   2.160   4.909  1.1324 -0.1793  0.2420
   40CHL1    C3 4067   3.074   4.509   5.842  0.1428  0.3341 -0.3577
   40CHL1    H3 4068   3.009   4.599   5.832  0.1999  0.6060  1.4317
   40CHL1    O3 4069   3.090   4.481   5.982 -0.3150  0.0940  0.1985
   40CHL1   H3' 4070   3.117   4.391   5.996  0.2641  0.1731 -0.3555
   40CHL1    C4 4071   3.009   4.386   5.778 -0.3030 -0.3525  0.6766
   40CHL1   H4A 4072   3.068   4.298   5.811 -0.5548 -1.9639 -2.7633
   40CHL1   H4B 4073   2.911   4.368   5.828  0.7271  0.3982  3.1006
   40CHL1    C5 4074   2.995   4.391   5.628  0.3221  0.0066  0.4600
   40CHL1    C6 4075   2.871   4.374   5.573 -0.3887  0.4257  0.2831
   40CHL1    H6 4076   2.795   4.343   5.645  0.3822  1.5786  1.6511
   40CHL1    C7 4077   2.837   4.385   5.426 -0.3103  0.4199  0.2707
   40CHL1   H7A 4078   2.775   4.298   5.396  0.0446  0.4498 -0.5932
   40CHL1   H7B 4079   2.778   4.475   5.399  1.7655  1.3807 -1.3528
   40CHL1    C8 4080   2.974   4.376   5.346 -0.0915  1.6812 -0.4331
   40CHL1    H8 4081   3.005   4.270   5.356 -3.4805  0.6438  0.3690
   40CHL1   C14 4082   2.947   4.406   5.194 -0.3755  0.0697 -0.1842
   40CHL1   H14 4083   2.916   4.512   5.189  0.4664  0.4407  1.6633
   40CHL1   C15 4084   2.840   4.325   5.127  0.2219  0.4481 -0.0897
   40CHL1  H15A 4085   2.853   4.222   5.167 -0.0369  0.1749 -0.6938
   40CHL1  H15B 4086   2.740   4.363   5.155 -0.4305 -1.3348  0.1090
   40CHL1   C16 4087   2.869   4.334   4.978  0.0681 -0.9914  0.2526
   40CHL1  H16A 4088   2.875   4.229   4.942 -0.0083 -0.7013 -0.6099
   40CHL1  H16B 4089   2.783   4.384   4.929 -0.0819 -1.9174 -0.4642
   40CHL1   C17 4090   2.998   4.418   4.965  0.3217 -0.8349 -0.0982
   40CHL1   H17 4091   2.969   4.525   4.960  2.3937 -0.2066  0.1193
   40CHL1   C13 4092   3.073   4.389   5.100  0.0877  0.0832  0.0559
   40CHL1   C18 4093   3.122   4.240   5.106  0.2879 -0.3754 -0.2453
   40CHL1  H18A 4094   3.054   4.174   5.049 -2.6777  1.4820  0.9352
   40CHL1  H18B 4095   3.217   4.231   5.048  2.6049  0.6397  3.1046
   40CHL1  H18C 4096   3.144   4.193   5.204  1.8814 -1.4999 -1.0864
   40CHL1   C12 4097   3.185   4.482   5.142 -0.6645  0.5271 -0.3423
   40CHL1  H12A 4098   3.275   4.461   5.081  1.0523  0.9701  1.9180
   40CHL1  H12B 4099   3.169   4.590   5.118 -0.7434  0.6271  0.1547
   40CHL1   C11 4100   3.210   4.468   5.296 -0.2012 -0.2481 -0.3713
   40CHL1  H11A 4101   3.259   4.368   5.297 -0.6857 -0.5182 -1.5373
   40CHL1  H11B 4102   3.281   4.546   5.331  0.1379 -1.5203  1.9710
   40CHL1    C9 4103   3.085   4.465   5.397 -0.2641 -0.1808  0.0572
   40CHL1    H9 4104   3.041   4.567   5.388 -0.8228 -0.4474 -0.3327
   40CHL1   C10 4105   3.121   4.430   5.542  0.0231 -0.7279  0.1764
   40CHL1   C19 4106   3.229   4.316   5.553  0.3944 -0.5195 -0.1009
   40CHL1  H19A 4107   3.193   4.220   5.511 -0.8669 -1.0027  1.9424
   40CHL1  H19B 4108   3.331   4.326   5.510  0.6162 -2.9773 -0.3220
   40CHL1  H19C 4109   3.243   4.303   5.663  0.1233  0.8818  0.1177
   40CHL1    C1 4110   3.185   4.549   5.621 -0.5271  0.7061 -0.3231
   40CHL1   H1A 4111   3.277   4.579   5.567 -1.3855 -0.9940 -2.9137
   40CHL1   H1B 4112   3.109   4.629   5.607 -1.2414 -0.0713 -0.9564
   40CHL1    C2 4113   3.207   4.531   5.776 -0.5174 -0.1205 -0.0851
   40CHL1   H2A 4114   3.248   4.627   5.813 -1.1042 -0.5428  1.7640
   40CHL1   H2B 4115   3.288   4.459   5.799 -0.0381  0.8663  1.4455
   40CHL1   C20 4116   3.079   4.390   4.836 -0.6711  0.3219  0.1050
   40CHL1   H20 4117   3.124   4.290   4.855 -3.1272 -1.0260 -0.8102
   40CHL1   C21 4118   3.189   4.494   4.813 -1.1780 -0.2462  0.5758
   40CHL1  H21A 4119   3.287   4.466   4.856 -1.8347  0.6693  2.8928
   40CHL1  H21B 4120   3.153   4.598   4.831  0.5612  0.8505 -1.8458
   40CHL1  H21C 4121   3.212   4.490   4.705  0.6281 -0.0286  0.9223
   40CHL1   C22 4122   2.989   4.388   4.710 -0.4101 -1.0518  0.8088
   40CHL1  H22A 4123   3.056   4.370   4.623 -0.3184 -1.5721  0.9831
   40CHL1  H22B 4124   2.918   4.303   4.705  2.5519 -3.6567 -0.3344
   40CHL1   C23 4125   2.912   4.517   4.690  0.0730  0.0435 -0.7453
   40CHL1  H23A 4126   2.875   4.566   4.782 -0.3974 -1.7656  0.0765
   40CHL1  H23B 4127   2.973   4.583   4.625  0.8639 -1.5102 -1.6571
   40CHL1   C24 4128   2.786   4.503   4.607 -0.3188 -0.3351 -0.5697
   40CHL1  H24A 4129   2.727   4.418   4.648 -2.3601 -0.9123 -4.2598
   40CHL1  H24B 4130   2.735   4.600   4.625 -0.7764 -0.8187  0.9044
   40CHL1   C25 4131   2.804   4.468   4.458  0.1186 -0.1076  0.7259
   40CHL1   H25 4132   2.842   4.364   4.458  0.1264 -0.1539 -1.6284
   40CHL1   C26 4133   2.664   4.471   4.394 -0.2653 -1.2585 -0.6719
   40CHL1  H26A 4134   2.675   4.439   4.288 -2.3838  0.0015 -1.3262
   40CHL1  H26B 4135   2.599   4.392   4.439 -0.8849 -1.2958 -1.6142
   40CHL1  H26C 4136   2.623   4.573   4.405  0.7650 -1.0740  2.2958
   40CHL1   C27 4137   2.899   4.552   4.366 -0.1957 -0.0790  0.4479
   40CHL1  H27A 4138   2.921   4.490   4.277  2.3403  0.3301  0.7246
   40CHL1  H27B 4139   2.845   4.642   4.331  0.1887  0.1324  0.3960
   40CHL1  H27C 4140   3.001   4.570   4.405  0.9370  1.8397 -2.9553
   41CHL1    C3 4141   0.489   5.225   6.096 -0.1494  0.8144 -0.3155
   41CHL1    H3 4142   0.600   5.222   6.101 -0.1847  1.1090  1.1839
   41CHL1    O3 4143   0.440   5.203   6.229  0.2821 -0.1794 -0.1086
   41CHL1   H3' 4144   0.501   5.264   6.270  1.4596  0.5546 -2.6961
   41CHL1    C4 4145   0.425   5.347   6.038  0.3975 -0.1509 -0.8012
   41CHL1   H4A 4146   0.315   5.340   6.056  0.0661  2.1198 -1.6859
   41CHL1   H4B 4147   0.456   5.440   6.091 -1.5736 -0.9153  1.9093
   41CHL1    C5 4148   0.453   5.362   5.892  0.0494 -0.2211  0.1660
   41CHL1    C6 4149   0.510   5.475   5.841 -0.2594  0.2696 -0.1075
   41CHL1    H6 4150   0.544   5.558   5.905  0.1101  0.2123 -0.2287
   41CHL1    C7 4151   0.540   5.496   5.691  0.6126  0.5134  0.4548
   41CHL1   H7A 4152   0.520   5.598   5.653  2.9004  0.1186 -2.0509
   41CHL1   H7B 4153   0.649   5.494   5.673  0.4039 -1.1059 -0.8470
   41CHL1    C8 4154   0.454   5.398   5.600 -0.1599 -0.2989  0.4302
   41CHL1    H8 4155   0.346   5.424   5.597 -0.7562 -2.6198 -0.4363
   41CHL1   C14 4156   0.512   5.408   5.460  1.0117  0.2464 -0.9556
   41CHL1   H14 4157   0.614   5.368   5.476  1.2770  1.3901  0.3455
   41CHL1   C15 4158   0.527   5.544   5.394 -0.7815 -0.2836 -0.3926
   41CHL1  H15A 4159   0.442   5.612   5.416 -0.2305  0.9917 -1.9716
   41CHL1  H15B 4160   0.609   5.603   5.442  1.1702 -3.1208  0.0085
   41CHL1   C16 4161   0.538   5.513   5.251 -0.1124  0.6535 -0.2581
   41CHL1  H16A 4162   0.467   5.582   5.199 -1.2294 -0.8588 -0.8253
   41CHL1  H16B 4163   0.639   5.534   5.211 -0.7542  0.5827 -2.0040
   41CHL1   C17 4164   0.505   5.362   5.232 -0.4060  0.4331 -0.0196
   41CHL1   H17 4165   0.602   5.309   5.230 -0.7408 -0.1866  0.1211
   41CHL1   C13 4166   0.438   5.323   5.361 -0.5641  0.0577 -0.5279
   41CHL1   C18 4167   0.285   5.345   5.355 -0.7217  0.1730  0.0052
   41CHL1  H18A 4168   0.240   5.318   5.453 -1.2045 -3.1398 -1.0309
   41CHL1  H18B 4169   0.259   5.452   5.340 -0.9499  0.2036  0.6123
   41CHL1  H18C 4170   0.240   5.287   5.272 -2.1794  1.7424 -0.3688
   41CHL1   C12 4171   0.469   5.177   5.408 -0.0652 -0.4823 -0.6356
   41CHL1  H12A 4172   0.419   5.100   5.346  1.1863 -0.1638 -2.1236
   41CHL1  H12B 4173   0.578   5.155   5.407  0.1971  0.5558  0.6875
   41CHL1   C11 4174   0.416   5.155   5.549 -0.2672 -0.2348  0.1272
   41CHL1  H11A 4175   0.306   5.146   5.558 -0.2046 -0.1327  1.2494
   41CHL1  H11B 4176   0.461   5.057   5.578 -0.6910 -0.8155 -1.0970
   41CHL1    C9 4177   0.467   5.258   5.655 -0.1021  0.1269 -1.1737
   41CHL1    H9 4178   0.577   5.249   5.669 -0.2614  0.2576  0.2977
   41CHL1   C10 4179   0.414   5.244   5.807  0.1803 -0.2047 -0.6302
   41CHL1   C19 4180   0.259   5.239   5.791  0.0801  0.7605  0.5782
   41CHL1  H19A 4181   0.229   5.318   5.718  0.0816 -1.3124 -1.8127
   41CHL1  H19B 4182   0.231   5.140   5.749 -0.1385  0.7282  0.7994
   41CHL1  H19C 4183   0.198   5.250   5.883  1.6832 -2.1280  2.1262
   41CHL1    C1 4184   0.466   5.109   5.867  0.1855  0.4544 -0.0305
   41CHL1   H1A 4185   0.436   5.016   5.815  0.5874 -0.5178  1.3919
   41CHL1   H1B 4186   0.576   5.108   5.854  0.2201 -2.4733 -0.1780
   41CHL1    C2 4187   0.436   5.102   6.017 -0.9165 -0.1920 -0.2204
   41CHL1   H2A 4188   0.488   5.013   6.057  1.0760  1.2181  0.4799
   41CHL1   H2B 4189   0.326   5.093   6.030 -0.9679  1.1103  0.4444
   41CHL1   C20 4190   0.443   5.337   5.091 -0.1720  0.8625 -0.8071
   41CHL1   H20 4191   0.403   5.234   5.104  1.1192  0.5302  1.0750
   41CHL1   C21 4192   0.560   5.337   4.997  0.0194  0.9121  0.1373
   41CHL1  H21A 4193   0.536   5.314   4.891  0.6651  1.9351 -0.2401
   41CHL1  H21B 4194   0.626   5.257   5.035 -2.6348 -1.7352 -0.4418
   41CHL1  H21C 4195   0.621   5.430   4.993  0.4411  0.6376  0.1677
   41CHL1   C22 4196   0.315   5.413   5.040 -1.3291  0.1008  0.6650
   41CHL1  H22A 4197   0.238   5.424   5.120  0.6058 -0.5319  2.7026
   41CHL1  H22B 4198   0.347   5.519   5.024  0.6931 -0.1310  2.7613
   41CHL1   C23 4199   0.253   5.364   4.910 -0.3763 -0.0078  0.5388
   41CHL1  H23A 4200   0.338   5.363   4.839 -0.4606  0.0272  0.4375
   41CHL1  H23B 4201   0.209   5.265   4.935  2.2267 -1.2166  0.6460
   41CHL1   C24 4202   0.145   5.455   4.862  0.7915 -0.1962  0.1884
   41CHL1  H24A 4203   0.053   5.432   4.919  1.5250 -0.6980  1.2034
   41CHL1  H24B 4204   0.181   5.556   4.891  0.0579 -0.0534  0.6310
   41CHL1   C25 4205   0.106   5.437   4.714 -0.5480 -0.0547 -0.1195
   41CHL1   H25 4206   0.199   5.440   4.652 -0.4524 -0.7731 -0.0194
   41CHL1   C26 4207   0.035   5.309   4.674 -0.0141 -0.1676 -0.5360
   41CHL1  H26A 4208  -0.059   5.297   4.733  1.2261 -0.6621  1.4094
   41CHL1  H26B 4209   0.022   5.295   4.564  0.1320  0.8908 -0.6913
   41CHL1  H26C 4210   0.102   5.226   4.706 -1.0379 -0.1349  1.9461
   41CHL1   C27 4211   0.016   5.550   4.673  0.0180 -0.2339 -0.5888
   41CHL1  H27A 4212   0.034   5.643   4.731 -2.6054 -0.2276  0.3428
   41CHL1  H27B 4213   0.042   5.565   4.566 -2.2358  1.0489 -1.0014
   41CHL1  H27C 4214  -0.091   5.524   4.686 -0.3571  1.0697 -0.9431
   42CHL1    C3 4215   5.670   3.693   6.011 -0.4687  0.4629 -0.6395
   42CHL1    H3 4216   5.691   3.802   6.013  0.0725  0.3666 -0.9283
   42CHL1    O3 4217   5.700   3.648   6.139  0.3365 -0.0186  0.2649
   42CHL1   H3' 4218   5.634   3.694   6.191  2.1832  0.8082  2.0246
   42CHL1    C4 4219   5.521   3.667   5.984  0.6900  0.2994  0.7618
   42CHL1   H4A 4220   5.488   3.561   5.993 -2.5186  1.0135 -0.9636
   42CHL1   H4B 4221   5.450   3.729   6.044 -0.5286  1.9576 -2.1832
   42CHL1    C5 4222   5.486   3.697   5.841  0.1343  0.7718  0.0803
   42CHL1    C6 4223   5.388   3.785   5.815 -0.3836  0.1458 -0.4839
   42CHL1    H6 4224   5.328   3.827   5.898  2.8769  1.0268  1.6050
   42CHL1    C7 4225   5.345   3.821   5.675  0.7561 -0.1873 -0.3577
   42CHL1   H7A 4226   5.235   3.815   5.664  0.4308  1.4840  1.4591
   42CHL1   H7B 4227   5.382   3.922   5.647  0.2248  0.8612  2.4266
   42CHL1    C8 4228   5.399   3.722   5.573 -0.0761  0.6113  0.3163
   42CHL1    H8 4229   5.347   3.625   5.589  0.6493 -0.0221 -1.0135
   42CHL1   C14 4230   5.373   3.770   5.432 -0.0373  0.2862  0.1897
   42CHL1   H14 4231   5.441   3.858   5.426  1.5611 -0.9055  0.1257
   42CHL1   C15 4232   5.239   3.827   5.402  0.0757 -0.4446 -0.6850
   42CHL1  H15A 4233   5.157   3.756   5.430 -0.2816  0.3402  0.3455
   42CHL1  H15B 4234   5.224   3.920   5.461  0.8096  0.3237 -1.6873
   42CHL1   C16 4235   5.243   3.837   5.246  0.5963 -0.0193  0.1039
   42CHL1  H16A 4236   5.159   3.779   5.202  1.4972 -2.8083  1.7619
   42CHL1  H16B 4237   5.251   3.944   5.217 -0.8291 -0.3452 -1.7481
   42CHL1   C17 4238   5.373   3.762   5.196 -0.0281 -0.0592 -0.4779
   42CHL1   H17 4239   5.450   3.842   5.184 -1.2602  1.0940 -0.9316
   42CHL1   C13 4240   5.410   3.681   5.318  0.0676 -0.0272 -0.6782
   42CHL1   C18 4241   5.318   3.556   5.318 -0.2409 -0.3806 -0.4414
   42CHL1  H18A 4242   5.213   3.580   5.291 -0.8188 -0.7009  1.4016
   42CHL1  H18B 4243   5.351   3.477   5.247  0.1943  0.0273 -0.6960
   42CHL1  H18C 4244   5.323   3.505   5.417  2.6369  2.2157  0.9095
   42CHL1   C12 4245   5.565   3.645   5.342  0.7011  0.6980 -0.3369
   42CHL1  H12A 4246   5.594   3.572   5.263  1.6992  2.1386 -1.3543
   42CHL1  H12B 4247   5.627   3.736   5.325  1.7933  0.4794  2.0851
   42CHL1   C11 4248   5.591   3.593   5.477 -0.7884  0.4194  0.3473
   42CHL1  H11A 4249   5.529   3.501   5.480  0.0996 -0.2425 -0.7961
   42CHL1  H11B 4250   5.699   3.568   5.482 -1.2200 -1.3787  1.9533
   42CHL1    C9 4251   5.543   3.688   5.589  0.2246  0.0179  0.6775
   42CHL1    H9 4252   5.602   3.782   5.575 -1.2416  0.6586 -1.8177
   42CHL1   C10 4253   5.575   3.639   5.735  0.7606  0.5785  0.0446
   42CHL1   C19 4254   5.540   3.487   5.737 -0.4611  0.0270 -0.9355
   42CHL1  H19A 4255   5.596   3.417   5.672  0.7050  0.6207 -0.5998
   42CHL1  H19B 4256   5.549   3.444   5.840  1.0342 -0.3171 -1.1906
   42CHL1  H19C 4257   5.432   3.480   5.714 -0.7615 -1.1356  0.6196
   42CHL1    C1 4258   5.725   3.674   5.770  0.7268 -0.0864  0.1133
   42CHL1   H1A 4259   5.789   3.636   5.687 -0.4179 -0.4322 -0.6345
   42CHL1   H1B 4260   5.728   3.785   5.771 -0.8823  0.0329 -1.7106
   42CHL1    C2 4261   5.758   3.635   5.911 -0.2749 -0.1945  0.5715
   42CHL1   H2A 4262   5.863   3.668   5.928  0.3218 -1.1653 -0.9886
   42CHL1   H2B 4263   5.758   3.524   5.913  1.0145 -0.2242  0.2858
   42CHL1   C20 4264   5.351   3.694   5.060  0.0989  0.3243 -0.0824
   42CHL1   H20 4265   5.282   3.608   5.069  1.4174 -0.6502  1.1804
   42CHL1   C21 4266   5.476   3.625   5.004  0.1687 -0.4267 -0.0680
   42CHL1  H21A 4267   5.450   3.561   4.918 -1.4424  1.5697 -1.1611
   42CHL1  H21B 4268   5.526   3.577   5.091 -1.1899  1.9841  2.1778
   42CHL1  H21C 4269   5.547   3.698   4.959 -0.8501  0.1371 -0.8091
   42CHL1   C22 4270   5.298   3.804   4.956 -0.5061  0.3425 -0.0423
   42CHL1  H22A 4271   5.367   3.889   4.940 -1.3566  0.5644 -3.0067
   42CHL1  H22B 4272   5.311   3.751   4.860  2.1106 -0.2062  0.5410
   42CHL1   C23 4273   5.152   3.843   4.958 -0.6339 -0.1925 -0.2744
   42CHL1  H23A 4274   5.087   3.759   4.991 -0.7409 -0.1016 -0.2519
   42CHL1  H23B 4275   5.139   3.921   5.036  1.1873  0.5637 -0.6879
   42CHL1   C24 4276   5.093   3.900   4.829 -0.1073 -0.0930 -0.2474
   42CHL1  H24A 4277   5.161   3.980   4.793  1.1572 -1.1905 -0.3765
   42CHL1  H24B 4278   5.090   3.825   4.747  2.1452  0.8225 -1.2428
   42CHL1   C25 4279   4.948   3.953   4.851 -0.1929 -0.8127 -0.2910
   42CHL1   H25 4280   4.945   4.022   4.938  2.7935 -0.1926 -0.5488
   42CHL1   C26 4281   4.901   4.030   4.730  0.3456 -0.1742 -0.1349
   42CHL1  H26A 4282   4.868   3.972   4.641  0.2966  2.3920 -1.8963
   42CHL1  H26B 4283   4.814   4.087   4.772  1.6582  0.4133  1.9365
   42CHL1  H26C 4284   4.961   4.116   4.692  0.1536 -1.0028 -2.4575
   42CHL1   C27 4285   4.847   3.844   4.886 -0.2748  0.3288 -0.3081
   42CHL1  H27A 4286   4.846   3.751   4.824  1.8276  0.0039  0.0716
   42CHL1  H27B 4287   4.861   3.801   4.987  0.3771 -0.0445 -0.5532
   42CHL1  H27C 4288   4.746   3.891   4.883  0.2110  1.3403 -1.5804
   43CHL1    C3 4289   5.808   1.711   5.942 -0.5018  0.3077  0.5151
   43CHL1    H3 4290   5.835   1.608   5.909  0.5949  0.7706 -0.0848
   43CHL1    O3 4291   5.830   1.718   6.082  0.3131  0.0725 -0.5313
   43CHL1   H3' 4292   5.926   1.722   6.083  0.3519 -0.4081 -1.5396
   43CHL1    C4 4293   5.918   1.801   5.873  0.0627 -0.0349 -0.2682
   43CHL1   H4A 4294   5.912   1.896   5.929  1.3106 -1.4065  2.4063
   43CHL1   H4B 4295   6.018   1.759   5.901 -0.8503 -1.4788  1.0146
   43CHL1    C5 4296   5.904   1.815   5.720  0.5290  0.0321 -0.5196
   43CHL1    C6 4297   6.005   1.789   5.628  0.1212  0.9536 -0.2526
   43CHL1    H6 4298   6.107   1.774   5.668 -0.1821 -2.0880 -0.3361
   43CHL1    C7 4299   5.997   1.818   5.481  0.3172 -0.3147  0.0127
   43CHL1   H7A 4300   6.082   1.884   5.452 -2.5977  3.9708  0.2047
   43CHL1   H7B 4301   5.993   1.723   5.423  0.5945  0.3367 -1.1099
   43CHL1    C8 4302   5.862   1.898   5.438 -0.3089  0.2807 -0.9430
   43CHL1    H8 4303   5.880   2.007   5.446  3.1079 -0.2071 -0.6739
   43CHL1   C14 4304   5.829   1.864   5.291 -0.1648 -0.2605  0.9041
   43CHL1   H14 4305   5.808   1.756   5.278 -0.4470 -0.3023  1.6673
   43CHL1   C15 4306   5.942   1.886   5.185 -0.8068  0.5652  0.2629
   43CHL1  H15A 4307   6.014   1.956   5.230 -1.8924  0.7796  1.7493
   43CHL1  H15B 4308   5.994   1.788   5.181 -1.8376  0.0254 -0.6156
   43CHL1   C16 4309   5.868   1.923   5.060 -0.3724 -0.4760 -0.1398
   43CHL1  H16A 4310   5.885   2.030   5.037 -2.5779  0.3621  1.6819
   43CHL1  H16B 4311   5.891   1.846   4.983  2.7865 -0.5864  0.7774
   43CHL1   C17 4312   5.719   1.916   5.090  1.1069  0.3230 -0.2661
   43CHL1   H17 4313   5.692   1.809   5.076 -0.8329  0.5421  1.2616
   43CHL1   C13 4314   5.714   1.944   5.244  0.0664  0.5183  0.3571
   43CHL1   C18 4315   5.711   2.100   5.266 -0.6568  0.6869 -0.6746
   43CHL1  H18A 4316   5.620   2.142   5.218 -1.5394 -0.3211  0.0969
   43CHL1  H18B 4317   5.704   2.117   5.375 -0.2413 -1.6434 -0.2345
   43CHL1  H18C 4318   5.810   2.136   5.228 -1.4398  1.9642 -1.5849
   43CHL1   C12 4319   5.594   1.879   5.314 -0.6744 -0.4880 -0.3279
   43CHL1  H12A 4320   5.508   1.938   5.276 -1.2930 -0.8025  0.5736
   43CHL1  H12B 4321   5.580   1.777   5.273 -1.1024 -0.9552  0.9644
   43CHL1   C11 4322   5.605   1.878   5.466 -0.2283  1.4842 -0.3581
   43CHL1  H11A 4323   5.585   1.982   5.501 -2.4471  1.5074 -1.5172
   43CHL1  H11B 4324   5.530   1.806   5.506  1.4606 -0.5222 -0.6412
   43CHL1    C9 4325   5.746   1.837   5.529  0.6395 -0.0433  0.5567
   43CHL1    H9 4326   5.746   1.728   5.504 -0.4692  0.3659 -1.5447
   43CHL1   C10 4327   5.762   1.848   5.678  0.2350  0.0554 -0.1570
   43CHL1   C19 4328   5.752   1.999   5.720 -0.0066 -0.5446  0.8997
   43CHL1  H19A 4329   5.808   2.064   5.650 -2.5400 -0.8974 -1.6473
   43CHL1  H19B 4330   5.647   2.028   5.701  0.0481 -0.2221  1.0937
   43CHL1  H19C 4331   5.779   2.026   5.824 -2.6384  0.1310  1.4658
   43CHL1    C1 4332   5.661   1.752   5.745  0.9798 -0.7817 -0.5883
   43CHL1   H1A 4333   5.561   1.781   5.708  0.7009 -1.0155 -0.0217
   43CHL1   H1B 4334   5.680   1.647   5.713  0.3186 -1.3482  0.7787
   43CHL1    C2 4335   5.660   1.744   5.898  0.4013  0.3553 -0.1158
   43CHL1   H2A 4336   5.594   1.662   5.934  1.6226 -1.1435 -1.1743
   43CHL1   H2B 4337   5.631   1.847   5.926  1.4288  1.1114 -1.7279
   43CHL1   C20 4338   5.629   1.996   4.996  0.4567 -0.1778 -0.1014
   43CHL1   H20 4339   5.654   2.102   5.022  3.4751 -1.1191  1.2609
   43CHL1   C21 4340   5.479   1.963   5.018 -0.4721 -0.4498 -0.1891
   43CHL1  H21A 4341   5.417   1.977   4.927  0.6561 -0.6845 -1.0066
   43CHL1  H21B 4342   5.445   2.029   5.101 -0.5619  0.3082 -0.8225
   43CHL1  H21C 4343   5.454   1.857   5.043 -0.3876 -0.3410  0.3787
   43CHL1   C22 4344   5.670   1.977   4.844  0.0124 -0.0656  0.0269
   43CHL1  H22A 4345   5.777   2.004   4.838 -0.1180  0.0994 -2.0933
   43CHL1  H22B 4346   5.663   1.869   4.818  1.3220 -0.3183  0.6558
   43CHL1   C23 4347   5.590   2.078   4.751  0.8599 -0.0584  0.3950
   43CHL1  H23A 4348   5.486   2.041   4.742  0.4422  1.1901 -0.0899
   43CHL1  H23B 4349   5.578   2.180   4.793  0.1145  0.3932 -0.8362
   43CHL1   C24 4350   5.656   2.100   4.612 -0.1324 -0.3702  0.2859
   43CHL1  H24A 4351   5.761   2.121   4.640 -0.1152  0.1039 -0.1401
   43CHL1  H24B 4352   5.661   2.007   4.552 -0.1035 -0.2242  0.0625
   43CHL1   C25 4353   5.596   2.215   4.528 -0.0419  0.3146  0.2811
   43CHL1   H25 4354   5.562   2.295   4.597  1.0867 -0.7827  2.1896
   43CHL1   C26 4355   5.698   2.269   4.427 -0.0792 -0.5902 -0.1873
   43CHL1  H26A 4356   5.796   2.291   4.474  0.6030  2.2596 -2.6298
   43CHL1  H26B 4357   5.729   2.188   4.357  0.0320 -0.9762  0.3049
   43CHL1  H26C 4358   5.678   2.366   4.376  2.4866  0.1544  0.1033
   43CHL1   C27 4359   5.466   2.171   4.455  0.7616 -0.2786 -0.3470
   43CHL1  H27A 4360   5.490   2.087   4.387 -1.8592 -1.0595 -0.4063
   43CHL1  H27B 4361   5.397   2.132   4.533  0.2896  2.6476  0.8625
   43CHL1  H27C 4362   5.417   2.256   4.402  1.6699  0.9302  0.6785
   44CHL1    C3 4363   6.802   2.408   6.218 -0.0677 -0.1448  0.8981
   44CHL1    H3 4364   6.893   2.351   6.187  0.3181 -1.6822  4.4287
   44CHL1    O3 4365   6.787   2.380   6.354 -0.5032 -0.2669 -0.2880
   44CHL1   H3' 4366   6.714   2.436   6.384  0.6492  0.2832  1.6808
   44CHL1    C4 4367   6.813   2.555   6.200 -0.7884 -0.2105  0.2682
   44CHL1   H4A 4368   6.735   2.608   6.259  0.3037  0.7171  0.9269
   44CHL1   H4B 4369   6.900   2.593   6.259  1.1298 -2.5001 -0.8953
   44CHL1    C5 4370   6.815   2.599   6.050  1.1877  0.3001 -0.5363
   44CHL1    C6 4371   6.908   2.684   5.999 -0.7609 -0.3139 -0.0366
   44CHL1    H6 4372   6.975   2.736   6.068  1.5840 -2.6643 -0.3961
   44CHL1    C7 4373   6.908   2.728   5.851 -0.2541  0.0913 -0.8140
   44CHL1   H7A 4374   6.925   2.837   5.840  0.6234 -0.0518 -1.0062
   44CHL1   H7B 4375   6.991   2.679   5.795 -0.7200  0.5445 -1.9413
   44CHL1    C8 4376   6.782   2.694   5.777 -0.0234 -0.0040  0.1602
   44CHL1    H8 4377   6.703   2.770   5.798 -0.2194 -0.0532 -0.3837
   44CHL1   C14 4378   6.795   2.714   5.625 -0.1562  0.0828  0.1079
   44CHL1   H14 4379   6.863   2.636   5.584  1.0683  0.7964  0.7276
   44CHL1   C15 4380   6.855   2.845   5.578 -0.2764 -0.2348 -0.2818
   44CHL1  H15A 4381   6.810   2.933   5.628  1.8410 -0.9739  3.2506
   44CHL1  H15B 4382   6.964   2.836   5.597 -0.3561  1.6383  1.3581
   44CHL1   C16 4383   6.819   2.839   5.430  0.0075 -0.3693 -0.1976
   44CHL1  H16A 4384   6.781   2.941   5.409  1.1942  0.4940  1.5859
   44CHL1  H16B 4385   6.910   2.831   5.366 -0.1874 -0.5566 -0.4549
   44CHL1   C17 4386   6.724   2.720   5.402  0.5941  0.0071 -0.0982
   44CHL1   H17 4387   6.780   2.627   5.377  0.4934 -1.0166  3.0180
   44CHL1   C13 4388   6.666   2.696   5.545 -0.3062  1.1567  0.0083
   44CHL1   C18 4389   6.555   2.801   5.579 -0.0145  0.6593 -0.2653
   44CHL1  H18A 4390   6.466   2.771   5.519 -0.1475  0.0482  0.2225
   44CHL1  H18B 4391   6.534   2.796   5.688 -1.6887  1.6594 -0.5070
   44CHL1  H18C 4392   6.595   2.902   5.558  2.6461 -0.0066  1.1813
   44CHL1   C12 4393   6.611   2.546   5.568  0.2641  0.3162 -0.4958
   44CHL1  H12A 4394   6.512   2.536   5.519  0.2069  1.4070 -0.6330
   44CHL1  H12B 4395   6.687   2.478   5.524 -0.8272 -0.7884 -0.6977
   44CHL1   C11 4396   6.600   2.518   5.722  0.6934  0.2802  0.2460
   44CHL1  H11A 4397   6.510   2.573   5.759 -0.1171 -0.7530 -0.1259
   44CHL1  H11B 4398   6.577   2.410   5.737 -1.3781  0.8936  2.1452
   44CHL1    C9 4399   6.717   2.557   5.814  0.2028  0.9222 -0.1134
   44CHL1    H9 4400   6.803   2.499   5.773  2.1911  2.9190  1.0037
   44CHL1   C10 4401   6.698   2.530   5.967 -0.7335  0.3230 -0.7237
   44CHL1   C19 4402   6.568   2.596   6.017 -0.7321 -0.5926  0.0236
   44CHL1  H19A 4403   6.477   2.558   5.966 -1.4169  0.4334  0.4517
   44CHL1  H19B 4404   6.539   2.583   6.124  0.6462  2.6719  0.9309
   44CHL1  H19C 4405   6.548   2.702   5.990  1.7304  0.5681  2.2307
   44CHL1    C1 4406   6.699   2.383   5.992 -0.7875  0.1761 -0.1093
   44CHL1   H1A 4407   6.609   2.333   5.950 -1.5274  0.8218  0.6718
   44CHL1   H1B 4408   6.798   2.348   5.955  1.1493  1.9991  2.8489
   44CHL1    C2 4409   6.686   2.342   6.135 -0.2477  0.9042  0.5860
   44CHL1   H2A 4410   6.692   2.232   6.142 -1.7776  0.7240 -0.3756
   44CHL1   H2B 4411   6.590   2.375   6.181 -0.6975  0.4902 -0.0377
   44CHL1   C20 4412   6.627   2.743   5.281  0.1614  0.0270  0.0653
   44CHL1   H20 4413   6.557   2.825   5.306  0.1776 -0.5445  2.2360
   44CHL1   C21 4414   6.519   2.625   5.266 -0.4107 -0.0968  0.4510
   44CHL1  H21A 4415   6.425   2.652   5.320 -0.7890  0.6950 -0.5619
   44CHL1  H21B 4416   6.560   2.530   5.305  2.2181  1.3127  1.3741
   44CHL1  H21C 4417   6.498   2.609   5.158 -0.6057  2.4348  0.0331
   44CHL1   C22 4418   6.690   2.763   5.142  0.4367  0.0442  0.7422
   44CHL1  H22A 4419   6.788   2.813   5.151  0.1444  0.4974  1.4901
   44CHL1  H22B 4420   6.699   2.663   5.093 -1.0916  0.4028 -0.3783
   44CHL1   C23 4421   6.604   2.854   5.042 -0.2176  0.7159  0.0693
   44CHL1  H23A 4422   6.506   2.803   5.031 -0.7694  1.9549 -0.9017
   44CHL1  H23B 4423   6.583   2.950   5.093  0.6632  0.1372  1.5968
   44CHL1   C24 4424   6.677   2.887   4.907 -0.1509 -0.1272  0.5395
   44CHL1  H24A 4425   6.768   2.939   4.945 -0.3851 -0.6164  1.8143
   44CHL1  H24B 4426   6.720   2.795   4.862  1.0318  0.3561  0.6324
   44CHL1   C25 4427   6.586   2.966   4.801  0.1150  0.0499 -0.9699
   44CHL1   H25 4428   6.656   2.985   4.716  0.9349 -0.7409 -0.4854
   44CHL1   C26 4429   6.474   2.876   4.742  0.8085 -0.0048  0.0140
   44CHL1  H26A 4430   6.398   2.865   4.822 -0.7832  1.1162 -1.2580
   44CHL1  H26B 4431   6.419   2.911   4.651 -1.5550 -0.0134  1.3435
   44CHL1  H26C 4432   6.508   2.774   4.715 -0.4061 -1.7612  4.3822
   44CHL1   C27 4433   6.526   3.098   4.847  0.2767  0.2003 -0.0132
   44CHL1  H27A 4434   6.448   3.087   4.925  0.0829  2.4343  0.1930
   44CHL1  H27B 4435   6.599   3.177   4.875  0.1386  0.1363  0.5424
   44CHL1  H27C 4436   6.469   3.141   4.761  0.9950 -0.1271 -0.6574
   45CHL1    C3 4437   6.114   4.016   6.333  0.2090 -0.4374  0.3052
   45CHL1    H3 4438   6.006   4.042   6.339  0.4007  0.3588  0.4066
   45CHL1    O3 4439   6.150   3.977   6.460  0.4167  0.4915  0.5825
   45CHL1   H3' 4440   6.079   3.923   6.497 -0.1704 -0.7193 -2.1168
   45CHL1    C4 4441   6.136   3.900   6.229 -0.2438  0.0410 -0.1399
   45CHL1   H4A 4442   6.230   3.848   6.256 -1.4149 -2.5059 -0.5775
   45CHL1   H4B 4443   6.057   3.823   6.247  0.0515 -0.8735 -2.3613
   45CHL1    C5 4444   6.132   3.935   6.088  0.2794 -0.5597 -0.5774
   45CHL1    C6 4445   6.055   3.872   5.999  0.4946 -0.1882 -0.4603
   45CHL1    H6 4446   5.996   3.782   6.024  0.6144 -0.7490 -2.0829
   45CHL1    C7 4447   6.041   3.903   5.853  0.3549  0.4367 -0.1057
   45CHL1   H7A 4448   6.060   3.809   5.797  1.4643  0.9460 -0.6084
   45CHL1   H7B 4449   5.936   3.935   5.841  0.5094  1.4801  1.0938
   45CHL1    C8 4450   6.132   4.007   5.804  0.1768 -0.2959 -0.0702
   45CHL1    H8 4451   6.228   3.955   5.785  1.2938  0.2104  3.4659
   45CHL1   C14 4452   6.079   4.074   5.674 -0.5947 -0.7840  0.2582
   45CHL1   H14 4453   6.003   4.150   5.704  0.5082  0.8117 -0.8364
   45CHL1   C15 4454   6.014   3.992   5.565  0.1595 -0.8400  0.8343
   45CHL1  H15A 4455   6.060   3.891   5.555  2.6965  0.5127 -3.0871
   45CHL1  H15B 4456   5.905   3.982   5.586 -0.0131 -1.2418 -0.2170
   45CHL1   C16 4457   6.024   4.084   5.444  0.1474 -0.4043  0.0264
   45CHL1  H16A 4458   6.083   4.042   5.360  1.3494  0.7574  0.2541
   45CHL1  H16B 4459   5.922   4.117   5.413 -0.5262 -1.8060  0.6507
   45CHL1   C17 4460   6.100   4.214   5.490  0.4040  0.0554  1.1057
   45CHL1   H17 4461   6.012   4.274   5.525 -0.8836 -1.3307  0.3565
   45CHL1   C13 4462   6.178   4.171   5.614 -1.0859 -0.2570  0.0466
   45CHL1   C18 4463   6.304   4.096   5.569  0.7995  0.1639  0.1980
   45CHL1  H18A 4464   6.368   4.063   5.653  0.5236 -1.9029 -0.3475
   45CHL1  H18B 4465   6.268   4.007   5.513  1.2922 -0.3021  0.6136
   45CHL1  H18C 4466   6.365   4.148   5.492  0.5709  2.8432  1.7051
   45CHL1   C12 4467   6.212   4.287   5.712  0.2251  0.0834 -0.0106
   45CHL1  H12A 4468   6.302   4.335   5.668  0.7481 -1.7527 -1.0575
   45CHL1  H12B 4469   6.134   4.363   5.732  0.9850  0.7188  0.6266
   45CHL1   C11 4470   6.260   4.229   5.849  0.0232  0.4760  0.3805
   45CHL1  H11A 4471   6.366   4.202   5.829  0.7537  2.8755  0.6720
   45CHL1  H11B 4472   6.273   4.307   5.927  3.0921 -0.5862  1.0768
   45CHL1    C9 4473   6.168   4.114   5.902  0.5103  0.1372 -0.7744
   45CHL1    H9 4474   6.073   4.169   5.920  0.1254 -0.5656 -0.5893
   45CHL1   C10 4475   6.204   4.068   6.047  0.0267  0.4947 -0.0421
   45CHL1   C19 4476   6.352   4.035   6.040 -0.5621 -0.3314 -0.0573
   45CHL1  H19A 4477   6.410   4.129   6.031  2.0086 -1.8578 -0.4495
   45CHL1  H19B 4478   6.386   3.986   6.133  1.0835  1.1346  0.1815
   45CHL1  H19C 4479   6.377   3.972   5.951  0.3893  0.9618 -0.7521
   45CHL1    C1 4480   6.180   4.186   6.146 -0.1516  0.2724  0.4883
   45CHL1   H1A 4481   6.252   4.265   6.117  0.3218 -1.1973 -2.8031
   45CHL1   H1B 4482   6.076   4.226   6.135 -0.8351 -1.0068  2.0090
   45CHL1    C2 4483   6.197   4.142   6.298 -0.1495 -0.2368  0.7235
   45CHL1   H2A 4484   6.174   4.227   6.366 -1.1832 -1.4754  1.9935
   45CHL1   H2B 4485   6.304   4.114   6.303 -0.2367 -0.3998  2.2300
   45CHL1   C20 4486   6.165   4.295   5.374 -0.6338  0.0899  0.4897
   45CHL1   H20 4487   6.251   4.236   5.338 -0.4980 -1.1714  2.6970
   45CHL1   C21 4488   6.222   4.430   5.405  0.1973 -0.5662 -0.5666
   45CHL1  H21A 4489   6.299   4.414   5.484  0.5158  0.1827 -0.7159
   45CHL1  H21B 4490   6.140   4.493   5.444 -0.7236 -1.8215 -0.3975
   45CHL1  H21C 4491   6.284   4.476   5.325  1.7424 -1.8442 -0.1641
   45CHL1   C22 4492   6.062   4.319   5.256  0.1234  0.4313 -0.4960
   45CHL1  H22A 4493   6.024   4.220   5.225  0.7744 -0.5972  1.7904
   45CHL1  H22B 4494   5.979   4.379   5.300  1.2473  1.5468  0.2056
   45CHL1   C23 4495   6.120   4.364   5.123  0.0532  0.6356  0.9375
   45CHL1  H23A 4496   6.148   4.472   5.126  0.0587  0.6216  3.2060
   45CHL1  H23B 4497   6.214   4.310   5.101 -0.5152  0.1514 -0.3645
   45CHL1   C24 4498   6.023   4.341   5.006  0.3829 -0.1593  0.2014
   45CHL1  H24A 4499   5.985   4.237   5.007 -1.1212  0.3629  0.2078
   45CHL1  H24B 4500   5.928   4.395   5.024 -0.1593 -1.5419  1.7488
   45CHL1   C25 4501   6.087   4.361   4.869  0.2731  0.7789  0.5931
   45CHL1   H25 4502   6.189   4.319   4.870 -0.3849 -0.9614  2.6572
   45CHL1   C26 4503   6.019   4.290   4.751 -0.5001  0.5626  0.2130
   45CHL1  H26A 4504   6.039   4.181   4.753 -1.6020  0.2693 -2.0702
   45CHL1  H26B 4505   5.910   4.313   4.749 -0.4628  0.6856 -0.6891
   45CHL1  H26C 4506   6.057   4.338   4.659 -1.7436  3.4107  1.0713
   45CHL1   C27 4507   6.083   4.509   4.839 -0.2213 -1.0064 -0.1337
   45CHL1  H27A 4508   5.974   4.531   4.838 -0.0618 -0.0400 -2.1584
   45CHL1  H27B 4509   6.133   4.561   4.923  2.9708  0.0100 -2.4171
   45CHL1  H27C 4510   6.129   4.526   4.739 -1.2995  1.0365 -0.3404
   46CHL1    C3 4511   1.046   5.612   6.452  0.0028  0.4463 -0.4944
   46CHL1    H3 4512   0.937   5.622   6.432 -0.5298 -4.2516 -1.0260
   46CHL1    O3 4513   1.077   5.606   6.587  0.4846  0.1283  0.0012
   46CHL1   H3' 4514   1.173   5.609   6.600  0.3258  1.5297  1.1020
   46CHL1    C4 4515   1.080   5.472   6.404  0.3270  0.2883  0.1348
   46CHL1   H4A 4516   1.188   5.445   6.408  0.9447  2.6180  0.3110
   46CHL1   H4B 4517   1.015   5.401   6.459 -2.2003  1.6387 -0.9425
   46CHL1    C5 4518   1.034   5.476   6.258 -0.2347  0.5282  0.5765
   46CHL1    C6 4519   0.954   5.379   6.207  0.0703 -0.1574  0.6804
   46CHL1    H6 4520   0.915   5.299   6.273 -1.1529  0.1687  0.3800
   46CHL1    C7 4521   0.912   5.372   6.062 -0.2841  0.4924 -0.3882
   46CHL1   H7A 4522   0.899   5.273   6.014  0.3828 -0.1885  0.7919
   46CHL1   H7B 4523   0.813   5.422   6.056 -0.2969  0.6692  0.9229
   46CHL1    C8 4524   1.020   5.445   5.975 -0.0225  0.3876 -0.1183
   46CHL1    H8 4525   1.107   5.376   5.978  0.2891  0.8206  1.3757
   46CHL1   C14 4526   0.961   5.460   5.835 -0.3398 -0.1485  0.3431
   46CHL1   H14 4527   0.869   5.522   5.840  0.1834  0.5639  1.4648
   46CHL1   C15 4528   0.913   5.336   5.755  0.1322 -0.2967 -0.1394
   46CHL1  H15A 4529   0.977   5.246   5.766 -1.7264 -1.5649  0.7627
   46CHL1  H15B 4530   0.807   5.317   5.784 -0.3328  2.8924  0.6975
   46CHL1   C16 4531   0.904   5.387   5.612  0.5120  0.2815  0.0849
   46CHL1  H16A 4532   0.977   5.320   5.561  0.2463 -0.7244  0.9912
   46CHL1  H16B 4533   0.799   5.378   5.578  0.2834  2.2069  0.1734
   46CHL1   C17 4534   0.954   5.538   5.607 -0.6366 -0.2663  0.2438
   46CHL1   H17 4535   0.862   5.598   5.625  0.2996  1.0183  0.9168
   46CHL1   C13 4536   1.045   5.550   5.736  0.7597  0.0009 -0.3300
   46CHL1   C18 4537   1.181   5.487   5.711 -0.0760 -0.0919  0.0978
   46CHL1  H18A 4538   1.249   5.561   5.664 -0.9272  0.4867 -0.2435
   46CHL1  H18B 4539   1.233   5.455   5.804 -0.1464 -0.8930 -0.1331
   46CHL1  H18C 4540   1.174   5.404   5.638 -1.8399 -0.4002  0.5835
   46CHL1   C12 4541   1.060   5.697   5.790 -0.4456 -0.2669  0.0886
   46CHL1  H12A 4542   1.119   5.750   5.712 -2.2640 -0.4513 -1.4771
   46CHL1  H12B 4543   0.956   5.732   5.805 -1.0952 -2.3806  0.9064
   46CHL1   C11 4544   1.127   5.687   5.930  0.6888 -0.1812 -0.2188
   46CHL1  H11A 4545   1.232   5.651   5.918  0.8653  0.2374  0.0440
   46CHL1  H11B 4546   1.136   5.790   5.970  0.0988 -0.1810 -0.0835
   46CHL1    C9 4547   1.049   5.588   6.033  0.1007 -0.5038 -0.1955
   46CHL1    H9 4548   0.953   5.643   6.038  0.5015  0.1594  0.4082
   46CHL1   C10 4549   1.106   5.586   6.166  0.0419 -0.5926 -0.3307
   46CHL1   C19 4550   1.253   5.546   6.153  0.9322 -0.4686  0.3029
   46CHL1  H19A 4551   1.316   5.629   6.115 -0.8605  1.5413  1.4647
   46CHL1  H19B 4552   1.305   5.537   6.251 -0.2570  0.8489  1.0843
   46CHL1  H19C 4553   1.265   5.452   6.094 -1.6543 -0.7784  0.1696
   46CHL1    C1 4554   1.098   5.726   6.243 -1.0848  0.3879  0.0416
   46CHL1   H1A 4555   1.161   5.806   6.198  0.6318 -0.0933  1.4452
   46CHL1   H1B 4556   0.991   5.755   6.247 -1.2179 -0.1360  0.3332
   46CHL1    C2 4557   1.137   5.712   6.388 -0.1044  0.2919 -0.1388
   46CHL1   H2A 4558   1.120   5.809   6.438  0.7175 -1.8501  4.9623
   46CHL1   H2B 4559   1.246   5.694   6.402 -0.1468  0.3118  0.2144
   46CHL1   C20 4560   1.018   5.581   5.467  0.0441 -0.2436 -0.7549
   46CHL1   H20 4561   1.129   5.574   5.463  0.1192  0.7376 -0.6523
   46CHL1   C21 4562   0.992   5.725   5.453 -0.0016 -0.8654 -0.3664
   46CHL1  H21A 4563   1.042   5.769   5.542 -0.9841 -1.4855  0.5090
   46CHL1  H21B 4564   0.883   5.746   5.464 -0.1007 -0.9224 -1.2192
   46CHL1  H21C 4565   1.036   5.790   5.375 -0.1024  1.1791  1.1988
   46CHL1   C22 4566   0.966   5.502   5.346 -0.2460 -0.5531 -0.0845
   46CHL1  H22A 4567   0.987   5.395   5.368 -0.5230 -0.3872  1.0669
   46CHL1  H22B 4568   0.858   5.527   5.336 -0.7540 -0.2867  4.0610
   46CHL1   C23 4569   1.037   5.531   5.210  0.4242 -0.2420 -0.0367
   46CHL1  H23A 4570   1.039   5.640   5.187  0.0115 -0.6161 -2.0476
   46CHL1  H23B 4571   1.142   5.497   5.222  1.4801  1.6991 -2.5973
   46CHL1   C24 4572   0.984   5.458   5.083  0.2322  0.1861  0.1076
   46CHL1  H24A 4573   0.969   5.349   5.096  3.9676 -0.7825 -2.1451
   46CHL1  H24B 4574   0.884   5.498   5.057  0.9937  2.9406  1.0623
   46CHL1   C25 4575   1.073   5.457   4.959 -0.9681  0.6601 -0.4639
   46CHL1   H25 4576   1.151   5.378   4.966 -2.6436 -0.9132  3.3596
   46CHL1   C26 4577   1.004   5.424   4.833  0.1988 -0.2229  1.0863
   46CHL1  H26A 4578   1.070   5.411   4.744 -2.6025 -0.4106 -1.1278
   46CHL1  H26B 4579   0.945   5.332   4.849  0.4523 -0.4484  0.7269
   46CHL1  H26C 4580   0.929   5.500   4.802  1.5045  0.4533 -0.5615
   46CHL1   C27 4581   1.149   5.591   4.946 -0.4144  0.1466  0.2563
   46CHL1  H27A 4582   1.230   5.591   5.022 -0.8444 -1.1600  0.7422
   46CHL1  H27B 4583   1.197   5.594   4.845  1.7222 -1.8401  1.1321
   46CHL1  H27C 4584   1.091   5.682   4.974  1.0027  1.5661 -1.1410
   47CHL1    C3 4585   1.941   4.684   5.895  0.9769 -0.6792  0.0912
   47CHL1    H3 4586   1.961   4.786   5.856 -0.1533 -1.1990 -2.0542
   47CHL1    O3 4587   1.987   4.664   6.028 -0.5010  0.0506 -0.4140
   47CHL1   H3' 4588   2.081   4.686   6.027 -0.5572  0.4337  0.8390
   47CHL1    C4 4589   1.799   4.635   5.880  0.2883 -1.1656  0.2020
   47CHL1   H4A 4590   1.788   4.534   5.927  0.5638 -1.7303 -0.9060
   47CHL1   H4B 4591   1.737   4.708   5.937  0.7756  1.3597 -2.2887
   47CHL1    C5 4592   1.736   4.633   5.744  0.4032  0.4396 -0.2748
   47CHL1    C6 4593   1.623   4.699   5.707 -0.0271  0.2807 -0.3290
   47CHL1    H6 4594   1.561   4.743   5.786 -0.0831 -0.8830  0.2878
   47CHL1    C7 4595   1.570   4.708   5.566  0.1563 -0.4126 -0.5526
   47CHL1   H7A 4596   1.459   4.701   5.559  0.2405 -1.3916 -1.1475
   47CHL1   H7B 4597   1.597   4.807   5.524  1.3253 -1.1434 -1.6300
   47CHL1    C8 4598   1.645   4.612   5.474  0.1059  0.1921  0.1032
   47CHL1    H8 4599   1.597   4.513   5.492  0.1725  0.2757  0.7487
   47CHL1   C14 4600   1.621   4.645   5.324  0.2662 -0.0477  0.0130
   47CHL1   H14 4601   1.662   4.747   5.311 -1.6749  0.6606 -0.9640
   47CHL1   C15 4602   1.473   4.680   5.286 -0.1313  0.3622 -0.1850
   47CHL1  H15A 4603   1.424   4.592   5.333  2.3199 -0.3110  1.2786
   47CHL1  H15B 4604   1.436   4.779   5.321  2.3492  1.0555  0.7168
   47CHL1   C16 4605   1.467   4.660   5.139  0.0872  0.3026  0.1221
   47CHL1  H16A 4606   1.404   4.572   5.114 -0.3108  0.2125  1.3593
   47CHL1  H16B 4607   1.431   4.750   5.084  0.1566 -0.4507 -1.2077
   47CHL1   C17 4608   1.612   4.624   5.088  0.6966  0.1965 -0.3289
   47CHL1   H17 4609   1.656   4.726   5.077 -0.1821  0.5736 -0.4040
   47CHL1   C13 4610   1.676   4.556   5.209 -0.4176  0.4032  0.9253
   47CHL1   C18 4611   1.641   4.401   5.219  0.1751  0.3120  0.8338
   47CHL1  H18A 4612   1.530   4.399   5.216  0.2014 -1.1432 -1.2042
   47CHL1  H18B 4613   1.695   4.347   5.138 -1.3180 -1.0633  0.7098
   47CHL1  H18C 4614   1.669   4.361   5.320  0.9261 -0.8131  0.2019
   47CHL1   C12 4615   1.828   4.579   5.228 -0.2317 -0.3418  0.1393
   47CHL1  H12A 4616   1.885   4.522   5.151  1.9465  0.6020  0.9480
   47CHL1  H12B 4617   1.855   4.687   5.218  0.1614 -0.2519  1.8607
   47CHL1   C11 4618   1.872   4.540   5.371  0.2780 -0.0092 -0.6114
   47CHL1  H11A 4619   1.863   4.430   5.386  0.0295 -0.1547 -1.7574
   47CHL1  H11B 4620   1.981   4.562   5.381  0.5860 -1.8798  1.0559
   47CHL1    C9 4621   1.793   4.609   5.496 -0.5565 -0.0928 -0.4798
   47CHL1    H9 4622   1.820   4.715   5.477 -0.1400 -0.0871  0.0921
   47CHL1   C10 4623   1.835   4.569   5.638 -0.6933  0.0503  0.6456
   47CHL1   C19 4624   1.813   4.420   5.651 -0.8708  0.0933  0.7192
   47CHL1  H19A 4625   1.846   4.381   5.750  3.5501 -0.8955 -0.9189
   47CHL1  H19B 4626   1.709   4.399   5.620  0.3237 -2.4988 -2.0818
   47CHL1  H19C 4627   1.878   4.365   5.580 -2.3993 -0.9027  0.0401
   47CHL1    C1 4628   1.990   4.617   5.661  0.8859  0.2528  0.1301
   47CHL1   H1A 4629   2.071   4.582   5.594  2.9218  3.3715  0.7523
   47CHL1   H1B 4630   1.987   4.725   5.633 -0.2722 -0.0164 -0.9019
   47CHL1    C2 4631   2.042   4.612   5.801 -0.4365 -0.3438 -0.0803
   47CHL1   H2A 4632   2.148   4.645   5.811 -0.2585 -0.9044 -0.0607
   47CHL1   H2B 4633   2.038   4.504   5.828  3.2412 -1.1259 -1.9895
   47CHL1   C20 4634   1.597   4.535   4.957  0.1168 -0.2767  0.0260
   47CHL1   H20 4635   1.551   4.435   4.973  2.1077 -1.6757 -2.1827
   47CHL1   C21 4636   1.734   4.510   4.899 -0.0617  0.3493 -0.2056
   47CHL1  H21A 4637   1.805   4.478   4.979 -1.8196  0.0661  1.2974
   47CHL1  H21B 4638   1.781   4.586   4.834 -0.3647 -0.6751 -1.6777
   47CHL1  H21C 4639   1.725   4.425   4.828 -0.1118  0.1317  0.0586
   47CHL1   C22 4640   1.504   4.594   4.854  0.3584 -0.1370 -0.0715
   47CHL1  H22A 4641   1.527   4.545   4.757 -0.6462 -0.2416 -0.2628
   47CHL1  H22B 4642   1.399   4.578   4.885  0.7604 -4.2432 -0.2784
   47CHL1   C23 4643   1.514   4.749   4.819  0.1911  0.3033 -0.2566
   47CHL1  H23A 4644   1.457   4.814   4.888  1.4579  0.4382  0.6976
   47CHL1  H23B 4645   1.622   4.770   4.834  1.1267 -2.8181 -1.7721
   47CHL1   C24 4646   1.456   4.773   4.677 -0.0112 -0.3468 -0.6603
   47CHL1  H24A 4647   1.532   4.734   4.607 -0.9130 -1.3623 -1.1047
   47CHL1  H24B 4648   1.360   4.725   4.649 -1.7782  2.1356  0.7240
   47CHL1   C25 4649   1.437   4.927   4.644  0.3321  0.3215  0.1321
   47CHL1   H25 4650   1.428   4.931   4.533 -1.9425 -0.1203  0.2529
   47CHL1   C26 4651   1.314   4.993   4.708  0.2460  0.1477 -0.4608
   47CHL1  H26A 4652   1.212   4.957   4.680 -1.0436  0.7974  2.8396
   47CHL1  H26B 4653   1.319   4.988   4.819  1.1368 -1.0490 -0.5390
   47CHL1  H26C 4654   1.306   5.102   4.690 -2.8328  0.2267  0.6570
   47CHL1   C27 4655   1.561   5.009   4.689  0.2460  0.2862 -0.4468
   47CHL1  H27A 4656   1.553   5.115   4.655  0.7093  0.2973 -0.5326
   47CHL1  H27B 4657   1.569   5.017   4.799 -1.2342  0.2890 -0.3250
   47CHL1  H27C 4658   1.648   4.959   4.640 -0.5696 -1.6659  0.0306
   48CHL1    C3 4659   2.708   5.631   6.438  0.7381  0.2235  0.5978
   48CHL1    H3 4660   2.806   5.580   6.440  0.9457  0.5530 -0.2835
   48CHL1    O3 4661   2.655   5.622   6.565  0.5360  0.3304 -0.1682
   48CHL1   H3' 4662   2.693   5.696   6.613  2.2465  0.1103 -1.1143
   48CHL1    C4 4663   2.720   5.787   6.397  0.0172 -0.4864  0.0925
   48CHL1   H4A 4664   2.616   5.822   6.410  0.6519  1.9016 -0.6691
   48CHL1   H4B 4665   2.784   5.835   6.474 -0.9865 -0.8208  1.1598
   48CHL1    C5 4666   2.755   5.802   6.250  0.2862  0.0719  0.2005
   48CHL1    C6 4667   2.866   5.877   6.217  0.9963  0.0334  0.0559
   48CHL1    H6 4668   2.922   5.940   6.288  2.0062 -0.8342  0.0542
   48CHL1    C7 4669   2.907   5.897   6.076  0.0796 -0.4701  0.9112
   48CHL1   H7A 4670   2.931   6.004   6.056  0.4684 -1.0759 -2.3323
   48CHL1   H7B 4671   3.007   5.850   6.067  0.1960 -0.0361 -0.1211
   48CHL1    C8 4672   2.805   5.852   5.971 -0.6264 -0.3664 -0.8724
   48CHL1    H8 4673   2.724   5.927   5.982  0.8283  0.9756  1.9803
   48CHL1   C14 4674   2.862   5.847   5.827  0.4180 -0.1143  0.1321
   48CHL1   H14 4675   2.945   5.773   5.833  0.9948  0.6380  2.4869
   48CHL1   C15 4676   2.920   5.975   5.765  0.3824 -0.1529  0.2810
   48CHL1  H15A 4677   2.870   6.071   5.793  1.3525 -0.0002  1.5604
   48CHL1  H15B 4678   3.024   5.987   5.801  1.1678  2.2240 -2.3864
   48CHL1   C16 4679   2.928   5.946   5.618  1.2363 -0.0791 -0.1787
   48CHL1  H16A 4680   2.885   6.029   5.558  0.1380 -0.8033 -0.4114
   48CHL1  H16B 4681   3.034   5.937   5.586  1.8632 -1.0606  2.0029
   48CHL1   C17 4682   2.853   5.806   5.599  0.3665  0.1599  0.5982
   48CHL1   H17 4683   2.937   5.734   5.589 -0.5694 -0.9397  0.3466
   48CHL1   C13 4684   2.769   5.790   5.724 -0.0782  0.7136  1.0611
   48CHL1   C18 4685   2.645   5.875   5.719 -0.2092  0.2122  0.5665
   48CHL1  H18A 4686   2.595   5.900   5.815  0.7972  0.3584  1.0608
   48CHL1  H18B 4687   2.657   5.973   5.668  1.8225  0.4304  1.3930
   48CHL1  H18C 4688   2.564   5.823   5.663 -1.9601 -0.4647  3.5243
   48CHL1   C12 4689   2.744   5.642   5.758 -0.3578 -0.1292 -0.4458
   48CHL1  H12A 4690   2.669   5.599   5.689  0.4374 -1.0426 -0.7685
   48CHL1  H12B 4691   2.839   5.583   5.758 -0.3405 -0.3751  3.5612
   48CHL1   C11 4692   2.678   5.635   5.900  0.6728  0.0022  0.3539
   48CHL1  H11A 4693   2.572   5.670   5.900  0.6528  0.1137 -2.1749
   48CHL1  H11B 4694   2.664   5.527   5.924 -1.0385  0.2197  0.4768
   48CHL1    C9 4695   2.748   5.712   6.016  0.0955  0.7589  0.2926
   48CHL1    H9 4696   2.833   5.646   6.043  2.0546  2.5686 -1.0066
   48CHL1   C10 4697   2.674   5.715   6.152 -0.2718 -0.4357 -0.4955
   48CHL1   C19 4698   2.528   5.773   6.136 -0.1804  0.3645 -0.0203
   48CHL1  H19A 4699   2.544   5.872   6.089  2.1724  0.3063  0.5381
   48CHL1  H19B 4700   2.464   5.725   6.059  1.0197 -1.8177  0.2632
   48CHL1  H19C 4701   2.474   5.798   6.230  1.8056  2.3931  0.6707
   48CHL1    C1 4702   2.655   5.568   6.203 -0.1408 -0.0204 -0.5556
   48CHL1   H1A 4703   2.592   5.507   6.134 -0.5060 -3.5392  2.5626
   48CHL1   H1B 4704   2.758   5.527   6.196 -0.1390 -0.7780  2.6099
   48CHL1    C2 4705   2.610   5.557   6.353 -0.3268  0.1558  0.6496
   48CHL1   H2A 4706   2.598   5.450   6.381  0.8656 -0.1034  0.2167
   48CHL1   H2B 4707   2.512   5.609   6.369  0.0230  0.2632  2.8822
   48CHL1   C20 4708   2.788   5.800   5.454  0.2789  0.3711  0.4556
   48CHL1   H20 4709   2.726   5.890   5.434 -0.7673 -0.7975 -1.8697
   48CHL1   C21 4710   2.702   5.668   5.440 -0.7188  0.3855 -0.8388
   48CHL1  H21A 4711   2.751   5.588   5.501 -2.0468 -0.4355 -0.8179
   48CHL1  H21B 4712   2.601   5.686   5.482 -1.2161  0.7159 -2.1231
   48CHL1  H21C 4713   2.701   5.648   5.331 -0.8732 -1.2032 -0.5659
   48CHL1   C22 4714   2.904   5.805   5.346 -0.0224  0.1090  0.1815
   48CHL1  H22A 4715   2.970   5.893   5.365  1.0458 -0.7853  0.7449
   48CHL1  H22B 4716   2.971   5.718   5.360  0.3641  0.5777  1.3818
   48CHL1   C23 4717   2.864   5.806   5.199  0.0886  0.2200  0.3026
   48CHL1  H23A 4718   2.842   5.699   5.176  2.2236 -0.3479  0.7657
   48CHL1  H23B 4719   2.778   5.872   5.172  1.0290  0.6128 -1.9128
   48CHL1   C24 4720   2.984   5.841   5.108  0.3147  0.6077  0.1227
   48CHL1  H24A 4721   3.003   5.950   5.124 -0.9782  0.8506  0.1222
   48CHL1  H24B 4722   3.073   5.786   5.144  0.1789  0.2869 -0.0339
   48CHL1   C25 4723   2.963   5.827   4.957  0.3752 -0.4768 -0.1379
   48CHL1   H25 4724   2.926   5.723   4.944 -0.0067 -0.2875 -0.5682
   48CHL1   C26 4725   2.865   5.924   4.897 -0.6088 -0.5745 -0.7264
   48CHL1  H26A 4726   2.863   5.895   4.790 -0.2995 -3.1310 -0.0876
   48CHL1  H26B 4727   2.763   5.907   4.937 -0.8649  0.2003 -1.0308
   48CHL1  H26C 4728   2.890   6.031   4.915 -0.6386 -0.4599 -1.3531
   48CHL1   C27 4729   3.093   5.845   4.884  0.0852  0.0403  0.4263
   48CHL1  H27A 4730   3.143   5.941   4.910  1.2135 -0.7014  1.1398
   48CHL1  H27B 4731   3.173   5.776   4.918  1.8178  1.7610  0.0026
   48CHL1  H27C 4732   3.093   5.839   4.774 -1.0114  0.8430  0.3639
   49CHL1    C3 4733   3.801   4.102   2.246 -0.3636  0.2111 -0.3558
   49CHL1    H3 4734   3.904   4.136   2.268  0.4752 -1.9080 -0.7184
   49CHL1    O3 4735   3.784   4.117   2.106 -1.1721  0.3324 -0.4359
   49CHL1   H3' 4736   3.695   4.085   2.090 -1.3132  0.3237  0.3338
   49CHL1    C4 4737   3.792   3.953   2.286  0.1032 -0.2057 -0.0124
   49CHL1   H4A 4738   3.691   3.912   2.263  1.8998 -5.1206 -0.3008
   49CHL1   H4B 4739   3.860   3.899   2.216  0.7906  3.1373 -2.1618
   49CHL1    C5 4740   3.823   3.939   2.428 -0.0869  0.0130  0.1449
   49CHL1    C6 4741   3.926   3.864   2.467 -0.1012 -0.3815  0.4724
   49CHL1    H6 4742   3.982   3.814   2.387  1.1968  2.5030 -0.5860
   49CHL1    C7 4743   3.957   3.836   2.609 -0.1735  0.4314 -0.1003
   49CHL1   H7A 4744   3.965   3.728   2.629  0.7750  0.1971 -1.5606
   49CHL1   H7B 4745   4.052   3.886   2.638 -0.8216  1.3964  0.4299
   49CHL1    C8 4746   3.839   3.879   2.705  0.3766 -0.0930 -0.9017
   49CHL1    H8 4747   3.754   3.808   2.703  0.1297  0.1658  0.2555
   49CHL1   C14 4748   3.889   3.883   2.847  0.8797  1.4095 -0.6466
   49CHL1   H14 4749   3.965   3.964   2.844  1.6673  0.9845  3.0072
   49CHL1   C15 4750   3.956   3.755   2.898  0.0980 -0.4579 -0.2584
   49CHL1  H15A 4751   3.887   3.672   2.871 -1.5055  0.8496 -0.3365
   49CHL1  H15B 4752   4.049   3.736   2.840 -0.5285  0.2675 -1.5592
   49CHL1   C16 4753   3.971   3.783   3.048  0.8027 -0.0018  0.1726
   49CHL1  H16A 4754   3.930   3.693   3.098 -0.0914  0.0770 -0.4068
   49CHL1  H16B 4755   4.074   3.795   3.090 -0.8275  2.2559  4.0779
   49CHL1   C17 4756   3.889   3.909   3.081 -0.9210  0.0047 -1.3340
   49CHL1   H17 4757   3.960   3.994   3.080 -1.7665  0.7492 -2.9917
   49CHL1   C13 4758   3.795   3.926   2.957  0.3493 -0.0710  0.1931
   49CHL1   C18 4759   3.673   3.839   2.966 -0.3529 -0.1248 -0.1539
   49CHL1  H18A 4760   3.616   3.837   2.871  2.3662 -0.8280 -1.9037
   49CHL1  H18B 4761   3.708   3.737   2.992  1.0282  0.2679 -0.3692
   49CHL1  H18C 4762   3.608   3.874   3.049  1.2710 -1.1166  1.6344
   49CHL1   C12 4763   3.763   4.070   2.925  0.6492 -0.6628 -0.1456
   49CHL1  H12A 4764   3.682   4.108   2.992  1.5314 -0.8103  1.0348
   49CHL1  H12B 4765   3.846   4.137   2.956  0.6122 -0.8818  0.4423
   49CHL1   C11 4766   3.708   4.083   2.776  1.4038 -0.3737 -0.1724
   49CHL1  H11A 4767   3.610   4.031   2.778  1.0449  0.1106 -2.2810
   49CHL1  H11B 4768   3.691   4.192   2.763 -1.7510 -0.7859 -0.2864
   49CHL1    C9 4769   3.796   4.023   2.664  0.2518 -0.5019  0.8263
   49CHL1    H9 4770   3.891   4.081   2.662  0.1912 -0.3730 -1.5649
   49CHL1   C10 4771   3.734   4.019   2.521 -0.4794 -0.5172  0.5960
   49CHL1   C19 4772   3.598   3.949   2.526 -0.2911 -0.0488 -0.0688
   49CHL1  H19A 4773   3.602   3.841   2.547  2.1232 -0.2535 -1.2203
   49CHL1  H19B 4774   3.533   4.012   2.591  0.6041  1.7888 -0.8787
   49CHL1  H19C 4775   3.558   3.960   2.423  2.6787 -1.0455 -1.4346
   49CHL1    C1 4776   3.728   4.165   2.466 -0.3018  0.1278  0.0322
   49CHL1   H1A 4777   3.662   4.228   2.530  2.4857  0.5924  2.6858
   49CHL1   H1B 4778   3.823   4.218   2.488 -0.3889  0.1201  0.4287
   49CHL1    C2 4779   3.693   4.182   2.318 -0.2165 -0.9440  0.0352
   49CHL1   H2A 4780   3.699   4.292   2.300 -1.6685 -0.2961  2.9083
   49CHL1   H2B 4781   3.589   4.147   2.301 -0.5050 -0.1030  0.0049
   49CHL1   C20 4782   3.826   3.901   3.226 -0.4611  0.0558 -0.4035
   49CHL1   H20 4783   3.742   3.828   3.223 -1.1467  0.7965  0.0566
   49CHL1   C21 4784   3.758   4.029   3.259  0.9354  0.6376  0.3462
   49CHL1  H21A 4785   3.714   4.025   3.360 -2.0218  0.5720 -0.8362
   49CHL1  H21B 4786   3.668   4.051   3.197 -0.1981  0.9795  2.0669
   49CHL1  H21C 4787   3.831   4.114   3.254  2.5244 -0.7175 -0.6137
   49CHL1   C22 4788   3.926   3.874   3.346  0.3950  0.0628  0.1161
   49CHL1  H22A 4789   3.988   3.784   3.329  1.3881  0.3774  1.7700
   49CHL1  H22B 4790   4.005   3.952   3.356  0.2076  0.0693  1.8331
   49CHL1   C23 4791   3.866   3.831   3.485  0.2712 -0.0062 -0.4504
   49CHL1  H23A 4792   3.789   3.905   3.517  1.3849  0.6678  0.7896
   49CHL1  H23B 4793   3.823   3.730   3.472  0.4106  0.0212 -1.1210
   49CHL1   C24 4794   3.965   3.840   3.600  0.4072  0.4261  0.1892
   49CHL1  H24A 4795   4.045   3.776   3.556 -0.8170  0.5510 -2.4590
   49CHL1  H24B 4796   4.006   3.943   3.605  2.1300 -0.2912  2.3457
   49CHL1   C25 4797   3.907   3.821   3.736 -0.3957 -0.5948 -0.1074
   49CHL1   H25 4798   3.820   3.887   3.751 -1.1941 -1.7314  0.4159
   49CHL1   C26 4799   3.860   3.678   3.754  0.1861  0.8519  0.5025
   49CHL1  H26A 4800   3.844   3.658   3.863  0.9840  1.1802  0.6850
   49CHL1  H26B 4801   3.761   3.655   3.710 -0.3767  0.5491  1.8503
   49CHL1  H26C 4802   3.923   3.599   3.708  0.0982  2.2942 -2.2886
   49CHL1   C27 4803   4.020   3.841   3.834 -0.1559  0.7856 -0.3880
   49CHL1  H27A 4804   4.110   3.777   3.822  0.3313  1.1944  0.9656
   49CHL1  H27B 4805   4.065   3.942   3.826 -0.2874  0.9191  0.4750
   49CHL1  H27C 4806   3.979   3.811   3.933 -0.0165 -0.8557 -0.7866
   50CHL1    C3 4807   1.787   2.096   2.734 -0.3530  0.3467 -0.0066
   50CHL1    H3 4808   1.866   2.020   2.753 -1.0805 -0.4270 -0.0299
   50CHL1    O3 4809   1.786   2.116   2.595  0.0229 -0.1855 -0.6637
   50CHL1   H3' 4810   1.799   2.029   2.558 -1.0360 -0.7151  0.1588
   50CHL1    C4 4811   1.659   2.023   2.783 -0.2593  0.0446 -0.7062
   50CHL1   H4A 4812   1.569   2.083   2.762 -0.7776 -0.8303 -1.0594
   50CHL1   H4B 4813   1.652   1.933   2.717  0.7958 -0.6442  0.0774
   50CHL1    C5 4814   1.659   2.004   2.936  0.1981 -0.2960  0.5365
   50CHL1    C6 4815   1.637   1.880   2.986  0.4332  0.7227 -0.0569
   50CHL1    H6 4816   1.626   1.794   2.919 -0.5602 -0.4305  1.5283
   50CHL1    C7 4817   1.640   1.857   3.133  0.1648 -0.1728 -0.1465
   50CHL1   H7A 4818   1.567   1.777   3.157  1.2210 -0.9161  0.6614
   50CHL1   H7B 4819   1.736   1.825   3.178 -0.2070 -0.9317  0.1195
   50CHL1    C8 4820   1.607   1.988   3.215  0.2508 -0.3893  0.0452
   50CHL1    H8 4821   1.506   2.016   3.177 -0.4055 -0.1144  1.8883
   50CHL1   C14 4822   1.613   1.962   3.366 -0.1875 -0.2817 -0.0160
   50CHL1   H14 4823   1.717   1.928   3.383  0.0951  1.7656  3.2079
   50CHL1   C15 4824   1.513   1.864   3.426 -0.6350 -0.1259  0.3138
   50CHL1  H15A 4825   1.412   1.890   3.389 -1.1591  0.4561  2.0944
   50CHL1  H15B 4826   1.532   1.759   3.396 -0.2897  0.0773 -0.2080
   50CHL1   C16 4827   1.527   1.884   3.577 -0.3830  0.0241  0.0898
   50CHL1  H16A 4828   1.428   1.889   3.626 -0.0737  1.1950  0.6504
   50CHL1  H16B 4829   1.575   1.794   3.621 -1.8067 -0.2887  1.0650
   50CHL1   C17 4830   1.618   2.014   3.595  0.0649 -0.1453  0.0886
   50CHL1   H17 4831   1.726   1.989   3.598  0.5062  1.2660 -2.0282
   50CHL1   C13 4832   1.608   2.085   3.454  0.5681 -0.5564 -0.0564
   50CHL1   C18 4833   1.476   2.165   3.436  0.8356 -0.3305 -0.2757
   50CHL1  H18A 4834   1.492   2.271   3.465  2.3943  0.2383 -2.8249
   50CHL1  H18B 4835   1.446   2.164   3.329  0.5474  0.6084 -0.2097
   50CHL1  H18C 4836   1.384   2.129   3.487  0.2041  1.0156 -0.4082
   50CHL1   C12 4837   1.735   2.166   3.412 -0.9176 -0.5909 -0.1086
   50CHL1  H12A 4838   1.750   2.258   3.473  0.2787 -0.0317 -1.1955
   50CHL1  H12B 4839   1.826   2.104   3.426 -0.6337 -0.2600 -0.4638
   50CHL1   C11 4840   1.736   2.209   3.267 -0.2680  0.2994 -0.0840
   50CHL1  H11A 4841   1.667   2.296   3.263  1.7042  1.9107 -0.4407
   50CHL1  H11B 4842   1.827   2.263   3.235 -1.3634  1.7279 -0.8826
   50CHL1    C9 4843   1.711   2.094   3.170  0.5595  0.2629  0.9222
   50CHL1    H9 4844   1.804   2.033   3.175  0.2464 -0.2599  0.5495
   50CHL1   C10 4845   1.699   2.128   3.017 -0.2793  0.0422 -0.2244
   50CHL1   C19 4846   1.586   2.229   2.997  0.0612 -0.5208  0.1197
   50CHL1  H19A 4847   1.596   2.281   2.899  1.0500  2.0374  1.4585
   50CHL1  H19B 4848   1.484   2.187   3.005 -0.6244  1.4177  2.9893
   50CHL1  H19C 4849   1.591   2.313   3.070  0.4996  0.1014 -0.6006
   50CHL1    C1 4850   1.836   2.189   2.962  0.6784  0.7012 -1.2747
   50CHL1   H1A 4851   1.855   2.282   3.019  2.0318  0.1335 -0.7554
   50CHL1   H1B 4852   1.912   2.109   2.976  1.2548  1.6048  1.5138
   50CHL1    C2 4853   1.826   2.222   2.809 -0.1573 -0.0024  0.2645
   50CHL1   H2A 4854   1.923   2.259   2.769 -0.7148  0.2767 -0.8430
   50CHL1   H2B 4855   1.745   2.295   2.788  0.5972  1.3490  1.8383
   50CHL1   C20 4856   1.591   2.101   3.718 -0.4901  0.4380 -0.3103
   50CHL1   H20 4857   1.483   2.127   3.716 -0.9837 -1.4194  0.1911
   50CHL1   C21 4858   1.682   2.235   3.714 -0.2875  0.1708 -0.7530
   50CHL1  H21A 4859   1.681   2.281   3.815 -2.0936 -0.0020 -0.6568
   50CHL1  H21B 4860   1.643   2.302   3.634 -0.1466 -0.1828 -1.1232
   50CHL1  H21C 4861   1.787   2.213   3.687  0.6850  0.8715  2.1258
   50CHL1   C22 4862   1.607   2.024   3.849 -0.5631  1.0019  0.4411
   50CHL1  H22A 4863   1.581   1.916   3.845 -2.1715  1.3337  1.0095
   50CHL1  H22B 4864   1.712   2.029   3.884  0.4383 -1.2634 -1.9177
   50CHL1   C23 4865   1.532   2.093   3.960  0.1159  0.1820 -0.4543
   50CHL1  H23A 4866   1.528   2.202   3.942  0.4791  0.4228  0.8044
   50CHL1  H23B 4867   1.430   2.048   3.958 -0.6548  1.6798  1.5360
   50CHL1   C24 4868   1.581   2.063   4.104 -0.0322  0.0694 -0.0580
   50CHL1  H24A 4869   1.549   1.957   4.116  1.7783 -0.5443 -0.3749
   50CHL1  H24B 4870   1.692   2.069   4.109 -0.0527  1.7713 -0.9145
   50CHL1   C25 4871   1.520   2.150   4.214 -0.2688 -0.2152  0.0612
   50CHL1   H25 4872   1.559   2.254   4.208  0.0264 -0.3690 -0.8256
   50CHL1   C26 4873   1.371   2.164   4.210  0.1117 -0.2175  0.0753
   50CHL1  H26A 4874   1.323   2.065   4.225 -1.2675  0.5898  1.2304
   50CHL1  H26B 4875   1.338   2.239   4.284  0.9904  0.5076 -0.2518
   50CHL1  H26C 4876   1.332   2.202   4.113  2.5992 -1.3659 -1.4912
   50CHL1   C27 4877   1.567   2.097   4.355 -0.2550 -0.9683  0.2667
   50CHL1  H27A 4878   1.672   2.066   4.335  0.0269 -0.3858  0.7944
   50CHL1  H27B 4879   1.578   2.178   4.431  0.2404  2.1535 -2.8492
   50CHL1  H27C 4880   1.504   2.010   4.382 -2.1575  0.3709  0.3778
   51CHL1    C3 4881   3.494   1.664   2.707  0.1744  0.3220 -0.1825
   51CHL1    H3 4882   3.453   1.562   2.726 -1.0789  1.0076  0.9695
   51CHL1    O3 4883   3.493   1.684   2.567  0.0798  0.4831  0.0564
   51CHL1   H3' 4884   3.555   1.758   2.560  0.3457  0.3171  0.6042
   51CHL1    C4 4885   3.405   1.762   2.783 -0.7067  0.1372 -0.6955
   51CHL1   H4A 4886   3.429   1.868   2.758 -1.1429  0.3839 -0.1076
   51CHL1   H4B 4887   3.300   1.736   2.761 -1.4589  1.9417  0.4917
   51CHL1    C5 4888   3.423   1.756   2.935  0.2821 -0.0379  0.5408
   51CHL1    C6 4889   3.323   1.734   3.018 -0.7850 -0.0303  0.1051
   51CHL1    H6 4890   3.222   1.729   2.975 -0.4460  2.2236 -1.1129
   51CHL1    C7 4891   3.331   1.720   3.165 -0.0460 -1.0064 -0.3384
   51CHL1   H7A 4892   3.256   1.783   3.218  0.4147  0.2211 -1.0903
   51CHL1   H7B 4893   3.315   1.616   3.199  0.9721 -1.1689 -0.3253
   51CHL1    C8 4894   3.464   1.766   3.225 -0.1926 -0.2118 -0.0670
   51CHL1    H8 4895   3.472   1.877   3.229 -0.9260 -0.1644  0.2385
   51CHL1   C14 4896   3.477   1.708   3.365  0.5386  0.4484  0.3864
   51CHL1   H14 4897   3.478   1.598   3.350 -1.8750  0.4946 -0.4952
   51CHL1   C15 4898   3.360   1.723   3.471 -0.7131 -0.1375 -0.4326
   51CHL1  H15A 4899   3.316   1.825   3.482 -0.2200  0.2075 -1.5289
   51CHL1  H15B 4900   3.279   1.652   3.446 -1.2634  0.3969 -0.1875
   51CHL1   C16 4901   3.434   1.690   3.602 -0.4289  0.2200 -0.1662
   51CHL1  H16A 4902   3.426   1.771   3.677  0.1428 -1.2019  1.4973
   51CHL1  H16B 4903   3.398   1.602   3.660 -0.9445  0.4387 -0.1490
   51CHL1   C17 4904   3.584   1.659   3.568 -0.3079 -0.0166 -0.0930
   51CHL1   H17 4905   3.600   1.552   3.543  2.8422 -0.0344  1.5990
   51CHL1   C13 4906   3.609   1.736   3.431 -0.0569  1.0953 -0.3606
   51CHL1   C18 4907   3.615   1.884   3.460  0.0957 -0.6079 -0.1938
   51CHL1  H18A 4908   3.533   1.927   3.522 -0.1428  4.4916 -3.4031
   51CHL1  H18B 4909   3.709   1.920   3.507 -0.0256  0.1027 -0.4744
   51CHL1  H18C 4910   3.610   1.935   3.361  0.8077 -0.0511  0.0456
   51CHL1   C12 4911   3.726   1.688   3.345 -0.6586  0.1911 -0.2390
   51CHL1  H12A 4912   3.827   1.706   3.389 -1.2144 -0.1303  1.2096
   51CHL1  H12B 4913   3.736   1.579   3.328  2.6845  0.2968  0.2537
   51CHL1   C11 4914   3.723   1.749   3.201 -0.5535 -0.0173  0.4878
   51CHL1  H11A 4915   3.730   1.859   3.210 -0.4417  0.0039  0.1328
   51CHL1  H11B 4916   3.810   1.713   3.142 -0.2785  2.7166 -0.8844
   51CHL1    C9 4917   3.585   1.717   3.142 -0.5338 -0.4326  0.3309
   51CHL1    H9 4918   3.573   1.606   3.139 -0.7699 -0.3984 -1.5497
   51CHL1   C10 4919   3.570   1.756   2.984  0.0341  0.4293  0.1108
   51CHL1   C19 4920   3.626   1.894   2.962  0.0715 -0.3309  0.3835
   51CHL1  H19A 4921   3.582   1.961   3.038 -4.0058 -0.7470 -1.3819
   51CHL1  H19B 4922   3.735   1.891   2.982 -0.1361  1.7631  2.2302
   51CHL1  H19C 4923   3.612   1.930   2.858  2.4477 -0.7711 -0.1512
   51CHL1    C1 4924   3.660   1.659   2.900 -0.2870 -0.1737 -0.3084
   51CHL1   H1A 4925   3.767   1.670   2.928 -0.8640 -0.4690  2.2701
   51CHL1   H1B 4926   3.627   1.556   2.925  1.5813 -0.5683  0.7274
   51CHL1    C2 4927   3.640   1.667   2.744 -0.1513  0.0455 -0.0215
   51CHL1   H2A 4928   3.713   1.596   2.699  1.7881  0.5920  2.0725
   51CHL1   H2B 4929   3.678   1.771   2.731  0.8563 -0.1720  0.9923
   51CHL1   C20 4930   3.678   1.681   3.686  0.0398  1.2523 -0.2792
   51CHL1   H20 4931   3.683   1.789   3.712  2.1840  2.2344 -4.0055
   51CHL1   C21 4932   3.819   1.647   3.647 -0.2838 -0.3343  0.3667
   51CHL1  H21A 4933   3.827   1.546   3.601  0.2581 -0.3375  0.4671
   51CHL1  H21B 4934   3.875   1.645   3.743  1.9892 -0.9820 -0.9106
   51CHL1  H21C 4935   3.862   1.729   3.586  1.7322 -0.2040  1.8482
   51CHL1   C22 4936   3.641   1.595   3.818 -0.1595 -0.0620  0.3038
   51CHL1  H22A 4937   3.532   1.597   3.836 -0.0519  0.5935  0.9184
   51CHL1  H22B 4938   3.666   1.487   3.810 -1.8672 -0.6344  2.0117
   51CHL1   C23 4939   3.698   1.652   3.948 -0.2962  0.1721 -0.4411
   51CHL1  H23A 4940   3.809   1.660   3.940 -0.0580  0.7522  2.5031
   51CHL1  H23B 4941   3.644   1.743   3.979 -0.3450  0.1820 -0.5533
   51CHL1   C24 4942   3.667   1.545   4.058 -0.4092 -0.2501  0.1840
   51CHL1  H24A 4943   3.560   1.518   4.067 -1.0177  1.4440 -1.3443
   51CHL1  H24B 4944   3.709   1.447   4.026 -1.1376 -0.6939  0.5628
   51CHL1   C25 4945   3.722   1.586   4.195  0.0274  0.4842  0.1823
   51CHL1   H25 4946   3.685   1.690   4.205 -2.8829 -0.3314 -1.0884
   51CHL1   C26 4947   3.653   1.507   4.308  0.3783 -0.7054  0.0091
   51CHL1  H26A 4948   3.689   1.402   4.298  2.6439 -0.0244  0.5586
   51CHL1  H26B 4949   3.697   1.548   4.401 -0.9635 -2.2848  1.4159
   51CHL1  H26C 4950   3.542   1.518   4.308  0.3004 -1.3157  1.1673
   51CHL1   C27 4951   3.869   1.557   4.202 -0.3063 -0.4058 -0.7247
   51CHL1  H27A 4952   3.896   1.451   4.183  2.8232 -0.5016  3.0178
   51CHL1  H27B 4953   3.925   1.623   4.132  2.9766 -1.9859  0.2125
   51CHL1  H27C 4954   3.899   1.592   4.303 -0.0936  2.3456 -1.6573
   52CHL1    C3 4955   3.893   3.321   2.503 -0.6402  0.0605 -0.2339
   52CHL1    H3 4956   3.986   3.381   2.512 -0.9637  0.5138  0.1373
   52CHL1    O3 4957   3.863   3.312   2.364 -0.3428 -0.3391 -0.4314
   52CHL1   H3' 4958   3.770   3.288   2.357 -0.4855  0.5493 -2.2163
   52CHL1    C4 4959   3.915   3.175   2.564 -0.2212 -0.2022 -0.0235
   52CHL1   H4A 4960   3.826   3.109   2.556 -0.2682 -0.1668  0.1995
   52CHL1   H4B 4961   4.006   3.120   2.531 -0.7690 -1.1001 -0.0759
   52CHL1    C5 4962   3.930   3.197   2.713  0.4957 -0.0931  0.7803
   52CHL1    C6 4963   4.033   3.136   2.775 -1.0883  0.2486  0.3385
   52CHL1    H6 4964   4.097   3.070   2.714  0.1864  0.0433  1.8554
   52CHL1    C7 4965   4.059   3.131   2.919 -0.3105 -0.0717 -0.0426
   52CHL1   H7A 4966   4.087   3.035   2.969  1.2493  1.8124  2.9632
   52CHL1   H7B 4967   4.144   3.200   2.935 -0.5350 -0.1635  1.8547
   52CHL1    C8 4968   3.933   3.180   2.994  0.2285 -0.3202  0.0426
   52CHL1    H8 4969   3.847   3.108   2.993 -0.7184  0.7720 -1.5592
   52CHL1   C14 4970   3.974   3.215   3.139  0.0519 -0.3001  0.0862
   52CHL1   H14 4971   4.056   3.290   3.134  0.8772 -1.2546 -1.8614
   52CHL1   C15 4972   4.043   3.098   3.225 -0.2904  0.3029 -0.4277
   52CHL1  H15A 4973   3.997   2.998   3.207  0.6876 -0.1724 -0.3923
   52CHL1  H15B 4974   4.153   3.090   3.208 -0.3546 -2.1261 -0.0622
   52CHL1   C16 4975   4.007   3.135   3.369 -0.3370  1.1089 -0.0588
   52CHL1  H16A 4976   3.931   3.065   3.411 -1.0768  0.6395 -2.0723
   52CHL1  H16B 4977   4.094   3.149   3.437 -0.6714  3.5013 -0.0168
   52CHL1   C17 4978   3.933   3.271   3.363  0.1973 -0.1723 -0.2824
   52CHL1   H17 4979   4.011   3.350   3.358 -0.3056  0.3395 -0.1587
   52CHL1   C13 4980   3.865   3.273   3.226 -0.4887 -0.1234  0.7680
   52CHL1   C18 4981   3.746   3.180   3.228 -0.0207  0.0981 -0.7396
   52CHL1  H18A 4982   3.672   3.189   3.146 -1.1280 -1.4090  0.0401
   52CHL1  H18B 4983   3.789   3.078   3.216  2.1478  1.2112 -3.5284
   52CHL1  H18C 4984   3.687   3.187   3.322 -0.0115 -0.8811 -0.6512
   52CHL1   C12 4985   3.829   3.406   3.166 -0.4193  0.3469  0.7608
   52CHL1  H12A 4986   3.750   3.459   3.223  0.1024 -0.2801  2.1026
   52CHL1  H12B 4987   3.921   3.468   3.161 -0.6121  0.7169  1.6864
   52CHL1   C11 4988   3.778   3.405   3.015  0.3169  1.1422 -0.0124
   52CHL1  H11A 4989   3.680   3.354   3.011  1.6456 -1.6079  0.1900
   52CHL1  H11B 4990   3.760   3.505   2.971 -0.8606  1.6342  1.5185
   52CHL1    C9 4991   3.870   3.312   2.928  0.7734 -0.2346  0.1450
   52CHL1    H9 4992   3.961   3.375   2.914  0.0771  0.7295 -0.1646
   52CHL1   C10 4993   3.828   3.295   2.784  0.8634 -0.3340  0.4621
   52CHL1   C19 4994   3.693   3.220   2.791  0.1039  0.1260  0.3873
   52CHL1  H19A 4995   3.665   3.179   2.692  1.9242  0.3372 -0.2587
   52CHL1  H19B 4996   3.692   3.137   2.865 -2.6523 -1.7041 -1.4810
   52CHL1  H19C 4997   3.613   3.292   2.820 -0.6136 -0.7024  0.5230
   52CHL1    C1 4998   3.817   3.433   2.709 -0.3789 -0.5089  0.1095
   52CHL1   H1A 4999   3.731   3.493   2.746  0.6018  0.4457  0.9007
   52CHL1   H1B 5000   3.915   3.485   2.714 -0.2583 -0.1568 -3.3833
   52CHL1    C2 5001   3.785   3.407   2.559  0.4357 -0.8211 -0.2109
   52CHL1   H2A 5002   3.764   3.503   2.506 -0.1885 -0.1885  1.0954
   52CHL1   H2B 5003   3.688   3.355   2.543  0.9373 -1.1510 -2.4331
   52CHL1   C20 5004   3.836   3.295   3.488 -0.7864 -0.2280 -0.1764
   52CHL1   H20 5005   3.769   3.207   3.496 -0.9145 -0.1901 -0.8122
   52CHL1   C21 5006   3.752   3.422   3.497 -0.3989  0.4096  0.1012
   52CHL1  H21A 5007   3.823   3.507   3.496 -0.0246  0.0960 -1.0057
   52CHL1  H21B 5008   3.687   3.420   3.587 -1.1660  1.3896 -0.3991
   52CHL1  H21C 5009   3.684   3.426   3.409 -1.6288  1.1415  1.0455
   52CHL1   C22 5010   3.916   3.293   3.619  0.1483  0.5085  0.7075
   52CHL1  H22A 5011   3.956   3.190   3.630 -1.8021 -0.3694 -0.0737
   52CHL1  H22B 5012   4.007   3.357   3.623  0.7332 -0.2140 -0.3422
   52CHL1   C23 5013   3.844   3.311   3.750  0.4456 -0.4199  0.0949
   52CHL1  H23A 5014   3.816   3.417   3.768 -0.6483 -0.9610  1.8317
   52CHL1  H23B 5015   3.751   3.250   3.750  0.7410 -0.9013  1.3929
   52CHL1   C24 5016   3.919   3.262   3.876  0.0363 -0.1795 -0.5392
   52CHL1  H24A 5017   3.956   3.159   3.861  0.3256 -0.1443 -0.0861
   52CHL1  H24B 5018   4.001   3.334   3.897  0.0520 -0.2939 -0.1950
   52CHL1   C25 5019   3.824   3.257   3.998  0.5082  0.1549  0.5438
   52CHL1   H25 5020   3.729   3.207   3.968 -0.3397  0.7695  2.0798
   52CHL1   C26 5021   3.881   3.169   4.109 -0.4259  0.1003 -0.4123
   52CHL1  H26A 5022   3.967   3.220   4.157  0.8371 -1.1249 -1.2827
   52CHL1  H26B 5023   3.812   3.141   4.191 -1.5236  0.0687 -1.3101
   52CHL1  H26C 5024   3.917   3.071   4.071 -1.8315 -0.5608 -0.1042
   52CHL1   C27 5025   3.769   3.394   4.052 -0.0208 -0.4120 -0.6998
   52CHL1  H27A 5026   3.854   3.456   4.091 -1.0158  0.2707  0.4441
   52CHL1  H27B 5027   3.718   3.455   3.974  1.0510  0.6569 -0.5925
   52CHL1  H27C 5028   3.698   3.373   4.134 -0.1240  1.8113 -0.1440
   53CHL1    C3 5029   3.303   2.283   2.884  0.1334  0.3313  0.2074
   53CHL1    H3 5030   3.237   2.196   2.902  1.1991 -0.3972  0.7142
   53CHL1    O3 5031   3.299   2.312   2.748 -0.3492 -0.1024 -0.2474
   53CHL1   H3' 5032   3.272   2.403   2.735  0.4244 -0.1450 -2.6182
   53CHL1    C4 5033   3.254   2.411   2.958  0.1333  0.1011  0.6518
   53CHL1   H4A 5034   3.317   2.500   2.937 -0.0199  0.1018  0.1920
   53CHL1   H4B 5035   3.154   2.445   2.925 -0.1767 -0.6096  0.8211
   53CHL1    C5 5036   3.257   2.394   3.107 -0.2704  0.0360 -0.0686
   53CHL1    C6 5037   3.151   2.415   3.188  0.6131  0.1439 -0.0577
   53CHL1    H6 5038   3.065   2.463   3.140 -0.7644 -1.1499  0.9866
   53CHL1    C7 5039   3.161   2.413   3.342 -0.7956  0.5217 -0.1408
   53CHL1   H7A 5040   3.128   2.510   3.383 -1.1511  1.5550 -2.6854
   53CHL1   H7B 5041   3.098   2.326   3.370  0.6605 -0.4295  0.3048
   53CHL1    C8 5042   3.297   2.378   3.398  0.9144  0.2106  0.1121
   53CHL1    H8 5043   3.355   2.473   3.400 -0.0961  0.8607 -0.2975
   53CHL1   C14 5044   3.286   2.317   3.541  0.5617  0.7509  0.0432
   53CHL1   H14 5045   3.243   2.215   3.530  2.0662  0.1103 -0.1328
   53CHL1   C15 5046   3.202   2.395   3.647  0.5169  0.3292  0.3428
   53CHL1  H15A 5047   3.224   2.504   3.643  2.4636 -0.0247  0.1888
   53CHL1  H15B 5048   3.093   2.381   3.640  0.7232 -0.3583 -2.3041
   53CHL1   C16 5049   3.256   2.321   3.775 -0.0271  0.2983 -0.1375
   53CHL1  H16A 5050   3.273   2.399   3.852 -0.2322  2.5186 -2.2151
   53CHL1  H16B 5051   3.179   2.247   3.805  0.3076 -0.3923 -0.9305
   53CHL1   C17 5052   3.386   2.239   3.737 -0.0587 -0.6774  0.8357
   53CHL1   H17 5053   3.364   2.132   3.721  1.5059 -1.1138  1.4373
   53CHL1   C13 5054   3.426   2.289   3.601  0.6841 -0.6379 -0.0401
   53CHL1   C18 5055   3.505   2.416   3.626 -0.3573  0.2856  0.8937
   53CHL1  H18A 5056   3.608   2.392   3.659  0.8122  1.8111 -1.3741
   53CHL1  H18B 5057   3.523   2.460   3.525  0.5813 -1.6879  0.1620
   53CHL1  H18C 5058   3.461   2.483   3.703 -0.2197  0.2345  1.0184
   53CHL1   C12 5059   3.493   2.184   3.507 -0.2467  0.2034  0.1352
   53CHL1  H12A 5060   3.598   2.157   3.533 -0.0852 -0.6718 -1.2682
   53CHL1  H12B 5061   3.440   2.086   3.501  0.2783 -0.0188 -1.4170
   53CHL1   C11 5062   3.505   2.235   3.363  0.2087 -0.2078  1.2353
   53CHL1  H11A 5063   3.581   2.316   3.358 -0.6811  0.5895 -0.2049
   53CHL1  H11B 5064   3.546   2.150   3.304  0.3554 -1.3878  2.9550
   53CHL1    C9 5065   3.366   2.274   3.303 -0.1997  0.4311  0.5070
   53CHL1    H9 5066   3.296   2.188   3.299  1.0623 -0.5914 -0.4451
   53CHL1   C10 5067   3.385   2.329   3.158  0.0592 -0.0594  0.1889
   53CHL1   C19 5068   3.497   2.437   3.153  0.0499  0.4670 -0.4538
   53CHL1  H19A 5069   3.601   2.400   3.170 -0.9718 -2.2050  0.4235
   53CHL1  H19B 5070   3.496   2.496   3.059  0.6095  4.7424  1.9663
   53CHL1  H19C 5071   3.477   2.512   3.232 -0.8894  2.2153 -2.2612
   53CHL1    C1 5072   3.441   2.216   3.066  0.0388  0.3778  0.0476
   53CHL1   H1A 5073   3.547   2.200   3.093 -0.4105 -2.3128  0.5371
   53CHL1   H1B 5074   3.383   2.123   3.086 -0.7859  0.6833 -0.8123
   53CHL1    C2 5075   3.444   2.242   2.920  0.5394 -0.5300 -0.4145
   53CHL1   H2A 5076   3.481   2.152   2.866  0.8756  0.0090 -1.1027
   53CHL1   H2B 5077   3.516   2.325   2.900 -0.2899  1.4967  3.7611
   53CHL1   C20 5078   3.483   2.225   3.856  0.3198  0.5671  0.1567
   53CHL1   H20 5079   3.505   2.328   3.894  1.0190  0.7471 -0.6942
   53CHL1   C21 5080   3.617   2.157   3.817 -0.9154  0.3582 -0.1097
   53CHL1  H21A 5081   3.675   2.220   3.747 -0.7196 -0.9211 -1.1408
   53CHL1  H21B 5082   3.586   2.074   3.750 -0.7181  0.9616 -0.9591
   53CHL1  H21C 5083   3.677   2.119   3.903 -1.5837 -2.1087 -0.6410
   53CHL1   C22 5084   3.425   2.147   3.977 -0.1206  0.4690 -0.0467
   53CHL1  H22A 5085   3.498   2.146   4.061 -2.3250 -0.3502  1.9726
   53CHL1  H22B 5086   3.334   2.200   4.011 -0.3354 -1.3204  2.4482
   53CHL1   C23 5087   3.382   2.001   3.948 -0.0202 -0.0353 -0.5075
   53CHL1  H23A 5088   3.302   2.025   3.875  0.1492  0.6679 -0.4670
   53CHL1  H23B 5089   3.468   1.951   3.899 -0.6331 -0.6904 -0.9327
   53CHL1   C24 5090   3.336   1.909   4.066 -0.1009  0.5940 -0.7843
   53CHL1  H24A 5091   3.408   1.896   4.149  0.7468  1.2325 -1.3941
   53CHL1  H24B 5092   3.247   1.963   4.102 -1.0721 -1.6402  0.3614
   53CHL1   C25 5093   3.299   1.766   4.011 -0.0400  0.0929  1.4429
   53CHL1   H25 5094   3.389   1.749   3.949  0.3027 -0.6183  2.1296
   53CHL1   C26 5095   3.275   1.656   4.115  0.2013 -0.7069  0.1833
   53CHL1  H26A 5096   3.364   1.652   4.182  0.5857 -1.3794 -0.3496
   53CHL1  H26B 5097   3.186   1.681   4.176  0.8784 -1.8848  1.7116
   53CHL1  H26C 5098   3.269   1.559   4.061  0.7409  0.5406 -2.2799
   53CHL1   C27 5099   3.184   1.770   3.904  0.2386  0.2266 -0.5534
   53CHL1  H27A 5100   3.139   1.669   3.893  0.0793 -0.3462  3.5225
   53CHL1  H27B 5101   3.102   1.841   3.930 -0.2497 -0.2938 -0.6474
   53CHL1  H27C 5102   3.232   1.806   3.811 -0.5649 -1.1869 -1.5570
   54CHL1    C3 5103   2.066   2.597   2.708  0.2492  0.0167 -0.4759
   54CHL1    H3 5104   2.002   2.506   2.704 -1.3114  1.1029 -1.4503
   54CHL1    O3 5105   2.092   2.651   2.584 -1.0135  0.2531  0.5823
   54CHL1   H3' 5106   2.166   2.712   2.590 -0.3381 -0.6499  1.9968
   54CHL1    C4 5107   1.992   2.695   2.800  0.0641  0.1781  0.1800
   54CHL1   H4A 5108   2.055   2.786   2.806 -0.7888  0.7890  0.0506
   54CHL1   H4B 5109   1.891   2.717   2.759  0.6630 -0.1142 -1.5277
   54CHL1    C5 5110   1.978   2.650   2.945 -0.2732  0.4228  0.5856
   54CHL1    C6 5111   1.859   2.632   3.003 -0.4591  0.0266 -0.3464
   54CHL1    H6 5112   1.774   2.669   2.944 -0.2741  1.1859  0.0900
   54CHL1    C7 5113   1.830   2.589   3.149 -0.3093  0.0251  0.1854
   54CHL1   H7A 5114   1.748   2.652   3.190  1.0818  1.3914  1.0083
   54CHL1   H7B 5115   1.807   2.480   3.156 -0.7752  0.1799  1.3930
   54CHL1    C8 5116   1.965   2.604   3.230 -0.1944 -0.5764  1.2450
   54CHL1    H8 5117   1.989   2.711   3.251 -0.2047 -0.1639 -0.6944
   54CHL1   C14 5118   1.951   2.535   3.363  0.1611 -0.2880  0.5500
   54CHL1   H14 5119   1.937   2.428   3.334 -0.4553  0.0978 -0.6499
   54CHL1   C15 5120   1.828   2.577   3.445 -0.7417 -0.3362  0.3029
   54CHL1  H15A 5121   1.807   2.686   3.445 -1.5710 -0.4895  1.3668
   54CHL1  H15B 5122   1.734   2.531   3.407 -3.1999  2.1348  2.9921
   54CHL1   C16 5123   1.857   2.533   3.594  0.2657 -0.2479 -0.0023
   54CHL1  H16A 5124   1.849   2.621   3.661 -0.1830  0.2569 -0.7021
   54CHL1  H16B 5125   1.787   2.455   3.631  1.9173 -2.2874 -0.9934
   54CHL1   C17 5126   2.007   2.490   3.589  0.1271  0.5050 -0.2927
   54CHL1   H17 5127   1.994   2.382   3.566 -0.3954  0.4914  0.0364
   54CHL1   C13 5128   2.068   2.539   3.453  0.3782  0.2829 -0.6149
   54CHL1   C18 5129   2.116   2.685   3.475  0.4609 -0.1159  0.0068
   54CHL1  H18A 5130   2.041   2.752   3.522  2.0663  0.5930  1.6866
   54CHL1  H18B 5131   2.197   2.682   3.551 -0.1951  1.1214  0.7733
   54CHL1  H18C 5132   2.156   2.729   3.382  1.0963 -1.5593 -0.4329
   54CHL1   C12 5133   2.180   2.454   3.389  1.0208 -0.3430  0.6486
   54CHL1  H12A 5134   2.277   2.468   3.441  2.0348 -1.3476 -0.8724
   54CHL1  H12B 5135   2.148   2.349   3.399 -2.3528  0.6052  1.1119
   54CHL1   C11 5136   2.212   2.494   3.242  0.3573 -0.0406 -0.2709
   54CHL1  H11A 5137   2.282   2.580   3.241 -0.4380  0.6723  1.6525
   54CHL1  H11B 5138   2.266   2.408   3.196  0.0520 -0.7630  0.6929
   54CHL1    C9 5139   2.087   2.537   3.150 -0.3778 -0.1061 -0.4294
   54CHL1    H9 5140   2.046   2.435   3.134 -1.3985 -0.3796  3.1516
   54CHL1   C10 5141   2.111   2.606   3.017  0.6127  0.5011  1.8298
   54CHL1   C19 5142   2.190   2.727   3.052  0.2376 -0.1062 -0.0927
   54CHL1  H19A 5143   2.290   2.690   3.085  0.0660 -1.4335 -0.9743
   54CHL1  H19B 5144   2.190   2.796   2.964 -2.5015  2.0014  1.4195
   54CHL1  H19C 5145   2.144   2.796   3.126  0.2809  1.3240 -1.3379
   54CHL1    C1 5146   2.182   2.511   2.917  0.1729  0.0369 -0.3879
   54CHL1   H1A 5147   2.282   2.492   2.960  0.5449  0.6139 -0.9887
   54CHL1   H1B 5148   2.117   2.423   2.900  0.2748  0.3404 -2.7405
   54CHL1    C2 5149   2.203   2.569   2.773  0.1424  0.1858  0.1816
   54CHL1   H2A 5150   2.265   2.490   2.724  0.1292  0.6766 -0.6525
   54CHL1   H2B 5151   2.262   2.663   2.765 -1.8221  1.4167 -0.2922
   54CHL1   C20 5152   2.086   2.514   3.718  0.1273  0.7521 -0.0378
   54CHL1   H20 5153   2.194   2.496   3.696  0.2427  1.5054 -0.1214
   54CHL1   C21 5154   2.041   2.406   3.820 -0.5527  0.4772 -0.1124
   54CHL1  H21A 5155   1.934   2.424   3.846 -0.5854  1.9922 -1.1481
   54CHL1  H21B 5156   2.107   2.419   3.909  1.6862  0.6790 -1.7316
   54CHL1  H21C 5157   2.066   2.303   3.788 -2.8097 -0.0467 -0.4125
   54CHL1   C22 5158   2.067   2.651   3.788  0.0873  0.4077  0.4327
   54CHL1  H22A 5159   2.064   2.745   3.729 -1.6110 -0.6433 -1.3037
   54CHL1  H22B 5160   1.968   2.641   3.838  0.3728 -1.7825  0.6542
   54CHL1   C23 5161   2.163   2.686   3.904 -0.5505 -0.6721 -1.0014
   54CHL1  H23A 5162   2.162   2.610   3.985  1.2724  0.1351 -0.1649
   54CHL1  H23B 5163   2.266   2.685   3.861 -0.5812  1.3650 -1.2271
   54CHL1   C24 5164   2.126   2.825   3.967 -0.1482  0.1961  0.3726
   54CHL1  H24A 5165   2.177   2.912   3.920  2.0748  1.8708  5.2245
   54CHL1  H24B 5166   2.023   2.843   3.930 -0.2954 -1.9309 -0.4074
   54CHL1   C25 5167   2.129   2.845   4.124 -0.6263 -0.3441  0.0011
   54CHL1   H25 5168   2.101   2.951   4.142 -1.1957 -0.6043  0.6987
   54CHL1   C26 5169   2.035   2.743   4.190 -0.1761 -0.1648  0.3392
   54CHL1  H26A 5170   1.929   2.753   4.159  0.1764 -0.4165 -1.0409
   54CHL1  H26B 5171   2.068   2.641   4.163  1.0060 -0.1617  1.6501
   54CHL1  H26C 5172   2.045   2.748   4.300  0.7969  1.0821  0.2350
   54CHL1   C27 5173   2.274   2.820   4.175 -0.7735 -0.6074  0.6407
   54CHL1  H27A 5174   2.309   2.721   4.140  0.4403  0.0055  0.0631
   54CHL1  H27B 5175   2.348   2.894   4.138  0.2696 -1.1080  1.6611
   54CHL1  H27C 5176   2.276   2.834   4.285 -3.2339 -0.7773  0.7627
   55CHL1    C3 5177   2.602   5.718   2.898 -0.3027 -0.0820  0.5960
   55CHL1    H3 5178   2.524   5.642   2.921 -0.5302  0.1362  0.5451
   55CHL1    O3 5179   2.578   5.748   2.765 -0.6155 -0.1399  0.9235
   55CHL1   H3' 5180   2.546   5.668   2.723 -0.6090 -0.7758  2.0975
   55CHL1    C4 5181   2.591   5.855   2.975 -0.0071  0.0226 -0.7868
   55CHL1   H4A 5182   2.675   5.915   2.935  0.6086 -1.1533 -1.3312
   55CHL1   H4B 5183   2.495   5.902   2.944 -0.4066 -2.7315 -4.5702
   55CHL1    C5 5184   2.602   5.823   3.124  0.0698  0.9136 -0.4576
   55CHL1    C6 5185   2.497   5.845   3.209 -0.0320 -0.3950 -0.1496
   55CHL1    H6 5186   2.415   5.913   3.181  0.0053 -0.1981  0.2068
   55CHL1    C7 5187   2.499   5.811   3.355  0.4202  0.1428  0.0916
   55CHL1   H7A 5188   2.451   5.892   3.415 -0.3923 -0.8450  0.8150
   55CHL1   H7B 5189   2.450   5.718   3.391  1.3773  0.0565  1.2596
   55CHL1    C8 5190   2.643   5.786   3.408  0.1711  0.1860  0.0611
   55CHL1    H8 5191   2.703   5.879   3.400  3.0658 -1.6645 -1.5584
   55CHL1   C14 5192   2.641   5.734   3.554  0.1536  0.2517 -0.1018
   55CHL1   H14 5193   2.589   5.635   3.556  1.7063 -0.5914  0.5997
   55CHL1   C15 5194   2.574   5.823   3.663  0.5090  0.4348 -0.0413
   55CHL1  H15A 5195   2.620   5.924   3.658 -0.6801  1.0123  0.4110
   55CHL1  H15B 5196   2.465   5.820   3.643  1.0058 -0.5664 -3.2862
   55CHL1   C16 5197   2.612   5.744   3.791  0.1940  0.3182 -0.0268
   55CHL1  H16A 5198   2.636   5.819   3.869 -2.6062  1.1636  0.1239
   55CHL1  H16B 5199   2.520   5.689   3.822 -0.0683  0.4690 -0.5222
   55CHL1   C17 5200   2.730   5.650   3.752  0.5625  0.6123  0.0737
   55CHL1   H17 5201   2.682   5.550   3.740  0.2818  0.7795 -0.2016
   55CHL1   C13 5202   2.780   5.701   3.614  0.2000 -0.1061  0.4113
   55CHL1   C18 5203   2.865   5.827   3.617  0.0874 -0.4304 -0.5653
   55CHL1  H18A 5204   2.881   5.874   3.517  1.3887  1.6585  0.5275
   55CHL1  H18B 5205   2.826   5.913   3.676 -0.2573 -2.0793  1.7304
   55CHL1  H18C 5206   2.970   5.812   3.651 -0.3089  2.2166  2.2786
   55CHL1   C12 5207   2.846   5.595   3.511  0.2194  0.0027  0.1964
   55CHL1  H12A 5208   2.946   5.566   3.548  0.4471  0.8284  0.2498
   55CHL1  H12B 5209   2.793   5.497   3.504  0.5196 -0.1653  0.2837
   55CHL1   C11 5210   2.850   5.645   3.368  0.2674  0.3642  0.0648
   55CHL1  H11A 5211   2.921   5.731   3.371 -0.8110  1.2586  1.2008
   55CHL1  H11B 5212   2.900   5.575   3.299  0.1907  1.3965 -1.0808
   55CHL1    C9 5213   2.714   5.698   3.308  0.3152  0.3897 -0.6315
   55CHL1    H9 5214   2.649   5.607   3.307  2.2234 -1.0667  0.6906
   55CHL1   C10 5215   2.729   5.743   3.162  0.1818 -0.2644 -0.7263
   55CHL1   C19 5216   2.847   5.850   3.144 -0.2888  0.2403  0.0812
   55CHL1  H19A 5217   2.937   5.789   3.169 -0.8998 -0.7600 -0.0708
   55CHL1  H19B 5218   2.858   5.897   3.044  0.4760  0.1973  0.1430
   55CHL1  H19C 5219   2.846   5.932   3.219  1.2108  0.4606 -0.1158
   55CHL1    C1 5220   2.762   5.627   3.072 -0.4661 -0.0253  0.6601
   55CHL1   H1A 5221   2.868   5.597   3.089 -0.6686 -0.3406  1.3931
   55CHL1   H1B 5222   2.707   5.539   3.112 -0.3019 -0.1983  0.5102
   55CHL1    C2 5223   2.742   5.658   2.919 -0.1947  0.2632 -0.6539
   55CHL1   H2A 5224   2.755   5.567   2.856 -1.2394  1.8512 -3.3318
   55CHL1   H2B 5225   2.816   5.730   2.879 -0.1566  0.1572 -0.7783
   55CHL1   C20 5226   2.829   5.652   3.865 -1.1199 -0.3234 -0.1938
   55CHL1   H20 5227   2.880   5.750   3.875  0.6533 -1.3236  1.1213
   55CHL1   C21 5228   2.935   5.546   3.839 -0.2360 -0.5928  0.4123
   55CHL1  H21A 5229   2.900   5.441   3.853  0.0802 -0.8350 -0.5335
   55CHL1  H21B 5230   3.022   5.553   3.908  1.7169 -0.9397 -1.9048
   55CHL1  H21C 5231   2.982   5.557   3.739 -0.7232 -2.4752 -0.0636
   55CHL1   C22 5232   2.769   5.647   4.007  0.0897  0.1347 -0.3817
   55CHL1  H22A 5233   2.698   5.731   4.023  1.5572  1.0398  1.9775
   55CHL1  H22B 5234   2.710   5.554   4.022 -0.6770  0.9390  1.9561
   55CHL1   C23 5235   2.882   5.670   4.120  0.2745 -0.3351 -0.1905
   55CHL1  H23A 5236   2.947   5.586   4.150 -0.3952 -0.4031  1.1332
   55CHL1  H23B 5237   2.950   5.744   4.073  0.3546 -0.7432 -0.7401
   55CHL1   C24 5238   2.826   5.718   4.266 -0.4039  0.3752 -0.3559
   55CHL1  H24A 5239   2.776   5.817   4.262  0.4727  1.0123  2.3520
   55CHL1  H24B 5240   2.742   5.656   4.304 -1.7757  3.9362  3.0896
   55CHL1   C25 5241   2.929   5.712   4.377  0.3407 -0.0934 -0.8184
   55CHL1   H25 5242   2.998   5.626   4.363  1.1359  0.1022  1.4103
   55CHL1   C26 5243   3.027   5.829   4.382  0.6757  0.3669  0.4604
   55CHL1  H26A 5244   2.969   5.923   4.392 -1.1921 -0.7913  1.0873
   55CHL1  H26B 5245   3.100   5.830   4.465  0.9945  1.6884  0.1813
   55CHL1  H26C 5246   3.092   5.836   4.293 -0.7397 -0.9843 -0.7455
   55CHL1   C27 5247   2.863   5.693   4.516  0.5396  0.9677  0.7475
   55CHL1  H27A 5248   2.777   5.764   4.520  1.7557  2.4466  3.1332
   55CHL1  H27B 5249   2.826   5.588   4.520 -0.5251  1.2593 -0.5083
   55CHL1  H27C 5250   2.942   5.715   4.591  2.6477 -0.1786 -1.0289
   56CHL1    C3 5251   5.434   2.644   2.482 -0.3889  0.7753 -0.5304
   56CHL1    H3 5252   5.526   2.702   2.502 -1.1911  1.5562  0.9856
   56CHL1    O3 5253   5.399   2.646   2.338  0.2896 -0.1492 -0.2683
   56CHL1   H3' 5254   5.330   2.581   2.326 -0.4843  0.4981  0.5640
   56CHL1    C4 5255   5.455   2.496   2.521  0.7102 -0.4999 -0.1581
   56CHL1   H4A 5256   5.371   2.438   2.476  0.5724  0.9315 -1.8616
   56CHL1   H4B 5257   5.539   2.448   2.466  2.1123  0.2103  1.3027
   56CHL1    C5 5258   5.464   2.482   2.675 -0.0520  0.2382 -0.2126
   56CHL1    C6 5259   5.563   2.423   2.737 -0.3135  0.3532  0.4925
   56CHL1    H6 5260   5.640   2.391   2.665 -1.7916 -2.2270 -0.0434
   56CHL1    C7 5261   5.570   2.368   2.880  0.4329 -0.6839 -0.4052
   56CHL1   H7A 5262   5.567   2.257   2.881  0.1275 -0.6866 -0.9799
   56CHL1   H7B 5263   5.652   2.411   2.942  0.0219  0.2740 -0.5046
   56CHL1    C8 5264   5.430   2.395   2.949 -0.1548  0.5400 -0.1544
   56CHL1    H8 5265   5.358   2.315   2.921 -2.1765  2.5037 -0.8837
   56CHL1   C14 5266   5.455   2.407   3.096 -0.6451  0.5495 -0.6880
   56CHL1   H14 5267   5.515   2.498   3.119  0.6860 -0.5759  0.4581
   56CHL1   C15 5268   5.532   2.285   3.158 -0.8035  1.1477  1.2299
   56CHL1  H15A 5269   5.486   2.200   3.103 -2.3293  2.2000  0.8157
   56CHL1  H15B 5270   5.640   2.280   3.133 -1.5160 -0.5076 -2.0371
   56CHL1   C16 5271   5.510   2.292   3.300  0.6861  0.2147 -0.9365
   56CHL1  H16A 5272   5.474   2.201   3.354 -1.7319  1.9182  0.5069
   56CHL1  H16B 5273   5.598   2.331   3.356 -0.7040  1.0377  0.7883
   56CHL1   C17 5274   5.395   2.398   3.318  1.1236  0.0035  0.4374
   56CHL1   H17 5275   5.450   2.493   3.337 -0.9324  0.9857  1.9229
   56CHL1   C13 5276   5.324   2.415   3.176 -0.3639  0.5296 -0.3119
   56CHL1   C18 5277   5.233   2.288   3.150 -0.2659  0.2872  0.1247
   56CHL1  H18A 5278   5.147   2.298   3.220 -0.7556  0.8679 -0.5498
   56CHL1  H18B 5279   5.205   2.283   3.043  1.8533  1.2157 -0.5261
   56CHL1  H18C 5280   5.283   2.193   3.177  0.7296  0.9302  0.6103
   56CHL1   C12 5281   5.252   2.546   3.139  0.0059  0.2359  0.0230
   56CHL1  H12A 5282   5.155   2.538   3.191 -1.8009  0.9366 -2.9604
   56CHL1  H12B 5283   5.306   2.635   3.178  1.1973 -1.3880  2.3287
   56CHL1   C11 5284   5.228   2.563   2.984 -0.7485  0.2562 -0.1153
   56CHL1  H11A 5285   5.142   2.501   2.951  0.9501 -1.6764 -1.1711
   56CHL1  H11B 5286   5.214   2.672   2.967  2.0062  0.7397  0.3136
   56CHL1    C9 5287   5.356   2.519   2.899  0.9640 -0.1771  0.4650
   56CHL1    H9 5288   5.428   2.600   2.925 -0.4959  1.1397  0.5492
   56CHL1   C10 5289   5.335   2.534   2.744 -0.3628  0.6611  1.0971
   56CHL1   C19 5290   5.209   2.462   2.702  0.3690 -0.0358 -0.1575
   56CHL1  H19A 5291   5.211   2.353   2.721 -1.0471  0.3617  2.8512
   56CHL1  H19B 5292   5.123   2.497   2.762  2.4541  2.0557  1.8486
   56CHL1  H19C 5293   5.190   2.459   2.593 -1.3500 -2.4151  0.1411
   56CHL1    C1 5294   5.311   2.676   2.705 -0.0066 -0.3921  0.0861
   56CHL1   H1A 5295   5.216   2.718   2.744  0.9145 -0.8800  3.1372
   56CHL1   H1B 5296   5.383   2.746   2.753  0.2851 -1.7548  1.7486
   56CHL1    C2 5297   5.307   2.703   2.555 -0.8139  0.9436 -0.7268
   56CHL1   H2A 5298   5.294   2.813   2.550 -2.2829  0.8773  0.8385
   56CHL1   H2B 5299   5.222   2.647   2.511 -0.5905  0.1045 -0.1276
   56CHL1   C20 5300   5.309   2.381   3.449  0.5327 -0.4192 -0.1211
   56CHL1   H20 5301   5.247   2.288   3.446  0.4965 -0.3911 -0.2244
   56CHL1   C21 5302   5.208   2.497   3.453 -0.1065  0.9090  0.2629
   56CHL1  H21A 5303   5.123   2.464   3.389 -0.2043  1.9546 -0.1619
   56CHL1  H21B 5304   5.255   2.587   3.408 -1.5552  1.2165 -0.7144
   56CHL1  H21C 5305   5.174   2.509   3.558  2.8164  0.4995  1.3344
   56CHL1   C22 5306   5.395   2.379   3.587  0.0511  0.2981  0.0105
   56CHL1  H22A 5307   5.488   2.318   3.576  0.5585  0.8607  1.0232
   56CHL1  H22B 5308   5.422   2.487   3.591 -0.6163  0.4450  0.7512
   56CHL1   C23 5309   5.325   2.344   3.714  0.2127  0.8918 -0.5759
   56CHL1  H23A 5310   5.236   2.408   3.734  0.8262  1.0346  2.1375
   56CHL1  H23B 5311   5.284   2.242   3.701 -0.0533  0.9425 -0.1659
   56CHL1   C24 5312   5.426   2.336   3.826  0.0795  0.1310  0.0554
   56CHL1  H24A 5313   5.496   2.250   3.818  1.3050  0.9662  1.3987
   56CHL1  H24B 5314   5.476   2.434   3.835  0.8695 -0.2852  0.3012
   56CHL1   C25 5315   5.361   2.314   3.964  0.0773 -0.2030 -0.5513
   56CHL1   H25 5316   5.289   2.230   3.949  2.5828 -2.6705  0.3899
   56CHL1   C26 5317   5.464   2.267   4.067  0.6343  1.0087  0.0158
   56CHL1  H26A 5318   5.535   2.347   4.096  0.4099  1.3887 -0.4586
   56CHL1  H26B 5319   5.415   2.230   4.160  2.4206 -1.3226  0.0983
   56CHL1  H26C 5320   5.523   2.185   4.021 -1.8523 -1.0943  0.3382
   56CHL1   C27 5321   5.296   2.437   4.038  0.4653 -0.2341  0.7081
   56CHL1  H27A 5322   5.378   2.511   4.057 -0.2420  0.2521  2.0031
   56CHL1  H27B 5323   5.221   2.478   3.967  1.1746 -0.9105 -0.4678
   56CHL1  H27C 5324   5.255   2.402   4.135  1.2399 -2.3552  0.3084
   57CHL1    C3 5325   4.960   0.701   2.861 -0.7239  0.0173 -0.0603
   57CHL1    H3 5326   4.875   0.770   2.883 -0.8523  0.1176 -0.8569
   57CHL1    O3 5327   4.967   0.664   2.722 -0.2969 -0.2185  0.3222
   57CHL1   H3' 5328   4.966   0.750   2.679 -1.8045 -0.7724 -0.8170
   57CHL1    C4 5329   5.091   0.770   2.898 -0.8577 -0.1057 -0.2969
   57CHL1   H4A 5330   5.180   0.708   2.875 -0.2194  0.8452 -0.4732
   57CHL1   H4B 5331   5.108   0.861   2.836  0.3186 -0.5956 -0.7180
   57CHL1    C5 5332   5.107   0.797   3.040  0.0695 -0.3437  0.1385
   57CHL1    C6 5333   5.132   0.917   3.090 -0.6939  0.0613 -1.1133
   57CHL1    H6 5334   5.151   1.001   3.022 -1.0430  0.4106 -0.7801
   57CHL1    C7 5335   5.166   0.943   3.232 -0.2087  0.4670 -0.1198
   57CHL1   H7A 5336   5.262   0.997   3.248  0.5879 -1.1071  0.5983
   57CHL1   H7B 5337   5.100   1.016   3.285 -0.3021  0.7299 -0.5934
   57CHL1    C8 5338   5.172   0.813   3.321 -0.1476 -0.5345 -0.2651
   57CHL1    H8 5339   5.271   0.768   3.300 -0.4359 -0.3309 -2.2676
   57CHL1   C14 5340   5.164   0.854   3.474 -0.0436  0.0884  0.0955
   57CHL1   H14 5341   5.057   0.885   3.475  0.6156  2.5432  1.0857
   57CHL1   C15 5342   5.241   0.977   3.524 -0.3991  0.1513  0.1165
   57CHL1  H15A 5343   5.348   0.974   3.495 -0.4252 -0.8320  0.0706
   57CHL1  H15B 5344   5.201   1.078   3.503  1.7520  1.2436  1.0048
   57CHL1   C16 5345   5.235   0.960   3.672 -0.2824  0.4301 -0.5937
   57CHL1  H16A 5346   5.338   0.979   3.709  0.4574 -1.2046 -1.7115
   57CHL1  H16B 5347   5.159   1.031   3.712 -2.1760 -1.0828 -1.3123
   57CHL1   C17 5348   5.182   0.815   3.703  0.3691  0.5329  0.8346
   57CHL1   H17 5349   5.072   0.823   3.723  0.2299  0.0328  0.2879
   57CHL1   C13 5350   5.178   0.734   3.568 -0.4764 -0.8160 -0.4748
   57CHL1   C18 5351   5.313   0.665   3.550  0.1817 -0.1940  0.3203
   57CHL1  H18A 5352   5.326   0.588   3.628  0.3548 -1.1328 -0.6063
   57CHL1  H18B 5353   5.307   0.625   3.446 -3.5298  0.1020  0.2669
   57CHL1  H18C 5354   5.403   0.730   3.548 -1.4272  2.1649  0.2437
   57CHL1   C12 5355   5.059   0.640   3.529 -0.2964  0.5999  0.3909
   57CHL1  H12A 5356   5.077   0.548   3.589 -1.9610 -0.0751 -0.1146
   57CHL1  H12B 5357   4.958   0.674   3.559 -0.6748  0.8488 -1.1008
   57CHL1   C11 5358   5.062   0.601   3.379 -0.1622 -0.0770 -0.2152
   57CHL1  H11A 5359   5.149   0.533   3.367 -1.4048 -1.5320 -1.4778
   57CHL1  H11B 5360   4.974   0.533   3.372 -1.1656  1.0846  0.7793
   57CHL1    C9 5361   5.066   0.713   3.280  0.1226 -0.1869  0.6329
   57CHL1    H9 5362   4.969   0.767   3.274  0.8739  1.0842 -0.9031
   57CHL1   C10 5363   5.084   0.672   3.135 -0.3285 -0.4699 -0.3340
   57CHL1   C19 5364   5.201   0.575   3.131  0.3792  0.4435 -0.1007
   57CHL1  H19A 5365   5.290   0.614   3.184  0.9662  0.5500 -1.1383
   57CHL1  H19B 5366   5.172   0.481   3.183  0.5117  0.5174  0.1075
   57CHL1  H19C 5367   5.232   0.569   3.025 -0.6610 -1.2156 -0.3418
   57CHL1    C1 5368   4.952   0.597   3.090  0.3654  0.1986  0.6079
   57CHL1   H1A 5369   4.940   0.500   3.142 -0.5853 -2.0395 -3.3993
   57CHL1   H1B 5370   4.859   0.651   3.122 -0.3233 -1.4506  1.5120
   57CHL1    C2 5371   4.939   0.573   2.940 -0.1912  0.4900  0.1961
   57CHL1   H2A 5372   4.836   0.532   2.930 -0.1714 -0.5225  3.0842
   57CHL1   H2B 5373   5.019   0.501   2.912 -0.5350  0.7458 -1.5391
   57CHL1   C20 5374   5.251   0.740   3.822  0.6583 -0.5587 -0.0509
   57CHL1   H20 5375   5.355   0.710   3.797  0.9043 -0.4964  0.8985
   57CHL1   C21 5376   5.168   0.611   3.859 -0.2842 -0.7769  0.7857
   57CHL1  H21A 5377   5.180   0.526   3.789 -1.0764  0.0111 -0.3589
   57CHL1  H21B 5378   5.062   0.644   3.872  0.6976  1.9892  2.6270
   57CHL1  H21C 5379   5.194   0.570   3.958  0.5702  0.4575  1.0972
   57CHL1   C22 5380   5.264   0.832   3.940  0.5189  0.6789  0.1878
   57CHL1  H22A 5381   5.327   0.921   3.920 -0.4955  1.1367 -1.1190
   57CHL1  H22B 5382   5.165   0.870   3.972  0.5889  2.3092 -1.3977
   57CHL1   C23 5383   5.346   0.764   4.058  0.3856 -0.3207  1.0294
   57CHL1  H23A 5384   5.288   0.680   4.101  1.5383 -1.2791  0.7733
   57CHL1  H23B 5385   5.442   0.722   4.020  0.4840  0.7164  0.0533
   57CHL1   C24 5386   5.370   0.876   4.163  0.4397 -0.7221 -0.2876
   57CHL1  H24A 5387   5.441   0.944   4.111 -0.8932  0.1343 -1.0489
   57CHL1  H24B 5388   5.276   0.935   4.174  0.1004 -1.6280  2.3168
   57CHL1   C25 5389   5.429   0.841   4.303  0.2762 -0.6126 -0.0051
   57CHL1   H25 5390   5.453   0.937   4.354  0.3693 -0.6938  0.1037
   57CHL1   C26 5391   5.324   0.774   4.394 -0.6396 -0.0817 -0.4262
   57CHL1  H26A 5392   5.222   0.818   4.383 -0.5675 -0.1065 -1.3058
   57CHL1  H26B 5393   5.322   0.666   4.372  0.6932 -0.6373  1.8513
   57CHL1  H26C 5394   5.356   0.772   4.500 -1.6063  1.4416 -0.0667
   57CHL1   C27 5395   5.554   0.754   4.275 -0.2307  0.4022  0.3070
   57CHL1  H27A 5396   5.602   0.737   4.373  0.3409  1.8226  0.2974
   57CHL1  H27B 5397   5.517   0.658   4.234 -1.0421  0.2276  1.4089
   57CHL1  H27C 5398   5.630   0.805   4.212  0.0204 -0.5037 -0.1408
   58CHL1    C3 5399   3.488   0.235   2.659 -0.3106 -0.4009  0.3164
   58CHL1    H3 5400   3.397   0.171   2.654 -0.2678 -0.4623  0.3246
   58CHL1    O3 5401   3.524   0.276   2.530  0.0017 -0.2977  0.4261
   58CHL1   H3' 5402   3.574   0.200   2.501  2.2883  1.1648  0.3425
   58CHL1    C4 5403   3.460   0.365   2.737 -0.7766  0.2313  0.2131
   58CHL1   H4A 5404   3.541   0.439   2.722 -1.1911  0.1325 -3.1824
   58CHL1   H4B 5405   3.368   0.407   2.692 -0.7956  1.5876  1.4265
   58CHL1    C5 5406   3.446   0.357   2.888 -0.5795 -0.0684 -0.2912
   58CHL1    C6 5407   3.350   0.414   2.955  0.4225 -0.0558 -0.4710
   58CHL1    H6 5408   3.270   0.463   2.897  0.3687  1.3776  0.7469
   58CHL1    C7 5409   3.322   0.405   3.101  0.3242  0.3399 -0.1585
   58CHL1   H7A 5410   3.306   0.511   3.131 -0.8477  0.7422 -2.0236
   58CHL1   H7B 5411   3.233   0.346   3.130  0.9426 -0.7010 -0.3324
   58CHL1    C8 5412   3.435   0.338   3.178  0.1004 -0.4068 -0.4871
   58CHL1    H8 5413   3.512   0.416   3.200  0.6737 -1.8473  3.3865
   58CHL1   C14 5414   3.387   0.281   3.310 -0.5146 -0.8381 -0.6889
   58CHL1   H14 5415   3.327   0.191   3.284 -1.5287  0.2578 -2.2441
   58CHL1   C15 5416   3.296   0.365   3.398 -0.3848 -1.0604  0.5831
   58CHL1  H15A 5417   3.340   0.467   3.406  2.8124 -2.3603  1.0702
   58CHL1  H15B 5418   3.190   0.372   3.367 -0.1475 -0.0482 -0.0847
   58CHL1   C16 5419   3.307   0.298   3.539 -0.3478  0.0823 -0.0742
   58CHL1  H16A 5420   3.337   0.369   3.619  1.2090 -1.1146  0.4774
   58CHL1  H16B 5421   3.212   0.249   3.570  0.2108  0.5626  2.6387
   58CHL1   C17 5422   3.422   0.189   3.530  0.3293 -0.8049  0.1938
   58CHL1   H17 5423   3.368   0.097   3.498 -1.9397  0.5768 -0.1245
   58CHL1   C13 5424   3.500   0.228   3.401 -0.4101 -0.2980  0.0874
   58CHL1   C18 5425   3.606   0.346   3.425 -0.6052  0.1322 -0.0095
   58CHL1  H18A 5426   3.677   0.297   3.495 -1.0634  0.2171  0.5280
   58CHL1  H18B 5427   3.654   0.400   3.341 -2.3873 -1.1930 -1.9990
   58CHL1  H18C 5428   3.565   0.429   3.486 -1.2177 -0.0529 -0.1612
   58CHL1   C12 5429   3.565   0.113   3.326  0.5335 -0.1228  0.2674
   58CHL1  H12A 5430   3.660   0.080   3.374  1.4290 -0.8684 -1.8860
   58CHL1  H12B 5431   3.498   0.025   3.326  0.1559  0.1259 -1.4118
   58CHL1   C11 5432   3.602   0.151   3.182 -0.5096  0.1708 -0.7660
   58CHL1  H11A 5433   3.694   0.213   3.187 -1.5677  1.7296  0.4640
   58CHL1  H11B 5434   3.627   0.053   3.135  0.9878  1.3557 -2.5655
   58CHL1    C9 5435   3.502   0.226   3.101 -0.2311 -0.1870  0.9654
   58CHL1    H9 5436   3.415   0.159   3.082  0.4268 -1.1437  1.2445
   58CHL1   C10 5437   3.554   0.272   2.954  0.1969  0.0414  0.0114
   58CHL1   C19 5438   3.689   0.348   2.973 -0.0875  0.1472 -0.3798
   58CHL1  H19A 5439   3.712   0.401   2.878 -1.0420  0.6182 -0.3596
   58CHL1  H19B 5440   3.685   0.423   3.055  0.1676  0.2622 -0.4710
   58CHL1  H19C 5441   3.779   0.286   2.993 -0.2372 -0.0742 -0.3842
   58CHL1    C1 5442   3.564   0.143   2.879  0.0188 -0.8365 -0.0593
   58CHL1   H1A 5443   3.635   0.072   2.927 -0.8826 -1.9110 -0.2526
   58CHL1   H1B 5444   3.467   0.090   2.890 -0.1696 -0.7646 -1.2573
   58CHL1    C2 5445   3.606   0.160   2.728  0.1018  0.0535  0.1448
   58CHL1   H2A 5446   3.626   0.061   2.681  0.4758  0.6603 -1.0323
   58CHL1   H2B 5447   3.697   0.224   2.722 -0.9423  1.4864 -3.0633
   58CHL1   C20 5448   3.503   0.166   3.664  0.4104 -0.2487  0.1409
   58CHL1   H20 5449   3.571   0.254   3.671 -0.4231  0.5308 -1.0661
   58CHL1   C21 5450   3.606   0.051   3.647  0.0777  0.1448  0.2212
   58CHL1  H21A 5451   3.560  -0.044   3.612  3.0048 -0.7641 -1.5089
   58CHL1  H21B 5452   3.663   0.035   3.741  2.7548  1.6027 -1.0435
   58CHL1  H21C 5453   3.674   0.069   3.561 -0.2321 -2.2354 -0.5862
   58CHL1   C22 5454   3.407   0.134   3.786 -0.2276  0.0353  0.1591
   58CHL1  H22A 5455   3.331   0.214   3.800  0.7358  0.7732  1.4367
   58CHL1  H22B 5456   3.350   0.043   3.760 -1.1667  0.8135 -0.5812
   58CHL1   C23 5457   3.471   0.121   3.924 -0.2109  0.2989 -0.3687
   58CHL1  H23A 5458   3.562   0.058   3.923  1.2794  2.3622 -0.7233
   58CHL1  H23B 5459   3.512   0.221   3.948  0.8937 -0.4107  0.8074
   58CHL1   C24 5460   3.375   0.074   4.038  0.4652  0.6023 -0.3026
   58CHL1  H24A 5461   3.270   0.109   4.032 -0.0090 -0.9714 -2.1612
   58CHL1  H24B 5462   3.379  -0.037   4.039  1.3718  0.5819 -1.9146
   58CHL1   C25 5463   3.427   0.112   4.178  0.3577 -0.7364 -0.9223
   58CHL1   H25 5464   3.443   0.222   4.180  0.8558 -0.7963  1.3073
   58CHL1   C26 5465   3.331   0.082   4.298 -0.6792  0.4358  0.1762
   58CHL1  H26A 5466   3.233   0.133   4.285 -1.6526 -1.1272  1.1314
   58CHL1  H26B 5467   3.306  -0.026   4.305 -2.3331  0.8528  1.0458
   58CHL1  H26C 5468   3.377   0.120   4.392 -1.2507  1.9309 -0.1234
   58CHL1   C27 5469   3.571   0.054   4.187 -0.9267  0.8433 -0.6892
   58CHL1  H27A 5470   3.622   0.082   4.282  0.2240 -1.5885 -0.5026
   58CHL1  H27B 5471   3.564  -0.057   4.197 -1.1458  0.6886 -2.3694
   58CHL1  H27C 5472   3.631   0.085   4.099 -1.1019  1.3053 -0.6479
   59CHL1    C3 5473   3.013   5.305   2.778 -0.4362 -0.4242  0.3631
   59CHL1    H3 5474   3.053   5.408   2.793  2.3691 -1.4200  0.2130
   59CHL1    O3 5475   2.965   5.284   2.648  0.1555  0.1786 -0.2617
   59CHL1   H3' 5476   2.877   5.250   2.665 -0.5521  1.9674 -0.1180
   59CHL1    C4 5477   3.139   5.211   2.805 -0.5235  0.0143  0.1672
   59CHL1   H4A 5478   3.095   5.110   2.793 -2.1163  0.4913  1.5985
   59CHL1   H4B 5479   3.223   5.238   2.738 -0.4425  0.3136  0.3909
   59CHL1    C5 5480   3.183   5.250   2.943  0.5063  0.2719 -1.2869
   59CHL1    C6 5481   3.299   5.296   2.981  0.2148 -0.7752 -0.3797
   59CHL1    H6 5482   3.365   5.328   2.899  1.5447 -0.8362  0.6391
   59CHL1    C7 5483   3.356   5.309   3.120 -0.4357  0.3515 -0.0950
   59CHL1   H7A 5484   3.461   5.272   3.116 -0.4980  0.2668 -1.2057
   59CHL1   H7B 5485   3.371   5.418   3.135  0.2117  0.4006 -1.0107
   59CHL1    C8 5486   3.273   5.240   3.226  0.1728  0.6992 -0.3654
   59CHL1    H8 5487   3.292   5.131   3.215  0.7818  0.8335 -0.6438
   59CHL1   C14 5488   3.309   5.293   3.363 -0.0747  0.4509 -0.0041
   59CHL1   H14 5489   3.292   5.402   3.368  0.9770  0.8940 -3.5878
   59CHL1   C15 5490   3.455   5.283   3.401 -0.2730 -0.0721 -0.0703
   59CHL1  H15A 5491   3.491   5.182   3.370 -1.6737 -0.4318 -0.5727
   59CHL1  H15B 5492   3.515   5.365   3.356 -1.4090  0.7427 -0.1364
   59CHL1   C16 5493   3.463   5.293   3.547  0.2245 -0.2328  0.5404
   59CHL1  H16A 5494   3.516   5.210   3.598  0.2399 -0.1177  0.7112
   59CHL1  H16B 5495   3.503   5.393   3.573 -2.2756  0.7832  0.7975
   59CHL1   C17 5496   3.314   5.305   3.590  0.2541  0.0521 -0.0616
   59CHL1   H17 5497   3.286   5.413   3.590 -1.0947 -0.2569  1.1260
   59CHL1   C13 5498   3.234   5.234   3.483  0.6531  0.2815  0.4446
   59CHL1   C18 5499   3.261   5.081   3.479  0.3468 -0.5857  0.3757
   59CHL1  H18A 5500   3.208   5.039   3.392  2.7372  1.3006 -2.1624
   59CHL1  H18B 5501   3.367   5.049   3.481  0.0278 -1.7735 -0.8946
   59CHL1  H18C 5502   3.212   5.048   3.573  1.5027 -0.5081  1.0243
   59CHL1   C12 5503   3.082   5.270   3.464 -0.5994  0.6678  0.4166
   59CHL1  H12A 5504   3.010   5.231   3.538 -2.4605  1.3324 -0.9604
   59CHL1  H12B 5505   3.078   5.381   3.467  1.8889  0.8677 -0.6846
   59CHL1   C11 5506   3.034   5.240   3.317  0.4559  0.0628  0.4580
   59CHL1  H11A 5507   3.018   5.130   3.317  0.2774  0.0793  1.7674
   59CHL1  H11B 5508   2.936   5.289   3.297 -0.9652 -2.8032 -0.2134
   59CHL1    C9 5509   3.129   5.271   3.197  0.9586 -0.4799 -0.4282
   59CHL1    H9 5510   3.127   5.382   3.186 -0.9592 -0.3257  0.9175
   59CHL1   C10 5511   3.081   5.222   3.058 -0.5938  0.1198  0.4344
   59CHL1   C19 5512   3.072   5.070   3.057 -0.1441  1.0599  0.0325
   59CHL1  H19A 5513   3.172   5.026   3.081 -0.8055 -0.9144 -0.5835
   59CHL1  H19B 5514   2.996   5.025   3.124 -0.2873  0.4390 -0.5317
   59CHL1  H19C 5515   3.045   5.015   2.964 -1.6184  0.3611  0.8359
   59CHL1    C1 5516   2.950   5.297   3.032 -0.5750 -0.3489  0.5180
   59CHL1   H1A 5517   2.880   5.268   3.113 -0.8396 -1.4086 -0.0624
   59CHL1   H1B 5518   2.975   5.404   3.042  0.2995 -0.2924 -1.6482
   59CHL1    C2 5519   2.904   5.282   2.882 -0.1521  0.0121  0.0837
   59CHL1   H2A 5520   2.818   5.351   2.865 -0.7597 -0.9177 -0.7769
   59CHL1   H2B 5521   2.853   5.186   2.859 -0.2467  0.0791  0.0076
   59CHL1   C20 5522   3.301   5.255   3.733  0.5900  0.7209  0.0434
   59CHL1   H20 5523   3.354   5.158   3.741  1.0579  0.6313 -2.8601
   59CHL1   C21 5524   3.153   5.224   3.764 -0.3021  0.0392 -0.2646
   59CHL1  H21A 5525   3.126   5.197   3.868 -2.6173  0.2183 -0.7495
   59CHL1  H21B 5526   3.112   5.137   3.708 -0.8297 -0.3635  0.7332
   59CHL1  H21C 5527   3.099   5.319   3.742  0.1409  0.3264 -0.1253
   59CHL1   C22 5528   3.361   5.358   3.835 -0.0422 -0.1325 -0.0370
   59CHL1  H22A 5529   3.454   5.405   3.796  0.3301 -2.2627 -1.9737
   59CHL1  H22B 5530   3.281   5.436   3.837  0.7625  0.8724 -2.5314
   59CHL1   C23 5531   3.391   5.300   3.974  0.0399 -0.4319 -0.2608
   59CHL1  H23A 5532   3.306   5.236   4.006 -1.9214  1.4019 -1.4874
   59CHL1  H23B 5533   3.469   5.222   3.961  0.6900  0.2998 -0.8310
   59CHL1   C24 5534   3.433   5.410   4.082  0.5309  0.2333 -0.2512
   59CHL1  H24A 5535   3.353   5.487   4.084  0.8997  0.6405  2.4184
   59CHL1  H24B 5536   3.436   5.364   4.183  1.2628 -0.1765 -0.4480
   59CHL1   C25 5537   3.566   5.480   4.058  0.3324 -0.1212  0.4747
   59CHL1   H25 5538   3.572   5.525   3.956  2.7698 -1.5252 -0.0732
   59CHL1   C26 5539   3.576   5.600   4.159 -0.2379  0.4088  0.0856
   59CHL1  H26A 5540   3.676   5.648   4.159  1.4850 -2.8585  1.1177
   59CHL1  H26B 5541   3.499   5.679   4.145  0.9033  1.2473 -1.9532
   59CHL1  H26C 5542   3.560   5.555   4.259 -0.2037 -1.8547 -0.8780
   59CHL1   C27 5543   3.684   5.389   4.073  0.1052 -0.0564  0.8128
   59CHL1  H27A 5544   3.675   5.301   4.006 -3.3902  0.5177  0.2980
   59CHL1  H27B 5545   3.778   5.447   4.074  1.0214 -1.4927  0.1233
   59CHL1  H27C 5546   3.668   5.343   4.173  0.6585 -1.7664  0.1526
   60CHL1    C3 5547   5.136   5.659   2.804  0.0715 -0.5895  0.5161
   60CHL1    H3 5548   5.144   5.550   2.822  1.2070 -0.7654 -0.8921
   60CHL1    O3 5549   5.140   5.683   2.661 -0.4886 -0.1613 -0.4589
   60CHL1   H3' 5550   5.123   5.775   2.642 -0.1526  0.2291  1.0162
   60CHL1    C4 5551   5.005   5.712   2.860 -0.1007 -0.6116 -0.1061
   60CHL1   H4A 5552   4.987   5.814   2.818 -0.6698 -1.0093 -0.8517
   60CHL1   H4B 5553   4.922   5.644   2.830  0.6784 -1.4244 -0.4464
   60CHL1    C5 5554   4.995   5.719   3.018 -0.5471  0.2394  0.6289
   60CHL1    C6 5555   4.890   5.674   3.086 -0.0933  0.4797  0.4290
   60CHL1    H6 5556   4.803   5.626   3.038 -1.3762  1.8043  1.3091
   60CHL1    C7 5557   4.877   5.665   3.233  0.5017  0.2125 -0.0234
   60CHL1   H7A 5558   4.773   5.690   3.261  1.0047  0.7617  1.4535
   60CHL1   H7B 5559   4.909   5.567   3.273  1.2926 -0.0398 -1.2089
   60CHL1    C8 5560   4.967   5.766   3.304  0.2849  0.2051  0.1190
   60CHL1    H8 5561   4.924   5.868   3.290 -2.4428 -0.3780  3.0555
   60CHL1   C14 5562   4.985   5.736   3.457 -0.0083  0.3611 -0.6095
   60CHL1   H14 5563   5.023   5.632   3.463  1.8636  1.0838  1.0633
   60CHL1   C15 5564   4.852   5.718   3.543 -0.1772 -0.3702  0.3532
   60CHL1  H15A 5565   4.777   5.785   3.496 -0.2693 -1.3881 -1.0217
   60CHL1  H15B 5566   4.807   5.618   3.526  0.8777 -0.6808 -0.7799
   60CHL1   C16 5567   4.891   5.748   3.682 -0.3437  0.1733  0.2430
   60CHL1  H16A 5568   4.835   5.834   3.726  1.7651  0.2335  3.0507
   60CHL1  H16B 5569   4.874   5.656   3.741 -0.5529 -0.3779 -0.6583
   60CHL1   C17 5570   5.041   5.783   3.679  0.8228 -0.0842 -0.2657
   60CHL1   H17 5571   5.092   5.684   3.687  0.2891 -0.2835  0.7277
   60CHL1   C13 5572   5.078   5.831   3.539  0.0130 -0.1858  0.5570
   60CHL1   C18 5573   5.027   5.976   3.526 -0.1098  0.0132 -0.9501
   60CHL1  H18A 5574   5.079   6.048   3.594  1.0200 -3.4213  2.1264
   60CHL1  H18B 5575   5.009   6.024   3.427 -1.4202  0.9811 -0.2766
   60CHL1  H18C 5576   4.921   5.979   3.559 -0.5694 -0.1302 -2.3593
   60CHL1   C12 5577   5.221   5.805   3.482  0.5831 -0.1271 -0.3712
   60CHL1  H12A 5578   5.300   5.861   3.536  0.8277 -1.1067  0.3112
   60CHL1  H12B 5579   5.250   5.700   3.504  2.9795 -0.4595 -4.1474
   60CHL1   C11 5580   5.214   5.837   3.329  0.2659 -0.0691  0.2778
   60CHL1  H11A 5581   5.191   5.946   3.327  1.2545  0.1676  1.1790
   60CHL1  H11B 5582   5.316   5.819   3.291  0.4105  0.9274  0.1585
   60CHL1    C9 5583   5.112   5.753   3.247  0.3136 -0.0618  0.3867
   60CHL1    H9 5584   5.135   5.644   3.256  1.4215  0.2323  1.3228
   60CHL1   C10 5585   5.112   5.787   3.092  0.5055 -0.0036  0.3989
   60CHL1   C19 5586   5.111   5.939   3.077 -0.6163 -1.1577 -0.0129
   60CHL1  H19A 5587   5.211   5.982   3.097 -0.8799  1.2925 -3.1939
   60CHL1  H19B 5588   5.098   5.965   2.969  0.2279  1.6560  0.4802
   60CHL1  H19C 5589   5.023   5.982   3.129 -1.7451 -2.3215 -0.8891
   60CHL1    C1 5590   5.242   5.726   3.033 -0.2510 -0.7564 -0.1874
   60CHL1   H1A 5591   5.334   5.771   3.076 -1.2896  0.8649  0.4388
   60CHL1   H1B 5592   5.249   5.618   3.055 -1.8151 -0.6528  0.9655
   60CHL1    C2 5593   5.246   5.731   2.873 -1.0235 -0.6108 -0.6866
   60CHL1   H2A 5594   5.345   5.694   2.840 -0.0603  1.4795 -0.3550
   60CHL1   H2B 5595   5.252   5.840   2.849  1.0033 -0.8904 -1.5599
   60CHL1   C20 5596   5.076   5.867   3.801 -0.2734 -0.5688  0.1031
   60CHL1   H20 5597   5.021   5.964   3.803 -1.8053 -1.4094  1.9653
   60CHL1   C21 5598   5.223   5.893   3.796 -0.0891  0.3738  0.1668
   60CHL1  H21A 5599   5.277   5.796   3.796  1.0317  0.9773  0.8232
   60CHL1  H21B 5600   5.260   5.949   3.884 -0.0062  1.7792 -0.7180
   60CHL1  H21C 5601   5.254   5.952   3.707  0.0878  0.0112 -0.0142
   60CHL1   C22 5602   5.046   5.794   3.937  0.3810 -1.3751  0.4858
   60CHL1  H22A 5603   5.059   5.873   4.014 -3.9608  2.2238 -1.9311
   60CHL1  H22B 5604   4.937   5.778   3.928  0.1651 -0.3283  1.0377
   60CHL1   C23 5605   5.124   5.671   3.973 -0.0295  0.1383 -0.5287
   60CHL1  H23A 5606   5.095   5.592   3.901 -1.6746 -0.2442  0.4884
   60CHL1  H23B 5607   5.235   5.676   3.978  0.1105 -2.3201 -0.3411
   60CHL1   C24 5608   5.081   5.624   4.117 -0.2099 -0.2167  0.6702
   60CHL1  H24A 5609   5.135   5.693   4.186 -0.9596  0.2202  0.8301
   60CHL1  H24B 5610   4.970   5.629   4.122 -0.3147 -1.5072 -0.1757
   60CHL1   C25 5611   5.111   5.477   4.157 -0.5999 -0.5916 -0.4483
   60CHL1   H25 5612   5.222   5.473   4.150 -0.4739 -1.8116  1.5247
   60CHL1   C26 5613   5.060   5.445   4.299 -0.2515 -0.3404  0.2353
   60CHL1  H26A 5614   5.116   5.355   4.334  0.6540 -0.2810 -1.0036
   60CHL1  H26B 5615   5.089   5.530   4.364  1.5301 -0.3737 -0.4511
   60CHL1  H26C 5616   4.952   5.428   4.319  0.1495  0.4678  3.6525
   60CHL1   C27 5617   5.041   5.376   4.059 -0.6349 -0.8875 -0.9001
   60CHL1  H27A 5618   5.075   5.397   3.956 -0.3684  1.0319 -0.4618
   60CHL1  H27B 5619   5.080   5.275   4.084 -2.1097 -1.3996 -0.5299
   60CHL1  H27C 5620   4.931   5.387   4.072 -0.2007  0.3917  3.1650
   61CHL1    C3 5621   4.930   3.603   2.502  0.7267  0.4593 -0.2577
   61CHL1    H3 5622   4.848   3.528   2.511  1.9946 -0.8048  1.4814
   61CHL1    O3 5623   4.943   3.641   2.369 -0.5083  0.2472  0.2711
   61CHL1   H3' 5624   5.037   3.634   2.348 -0.9762 -0.0677 -2.0337
   61CHL1    C4 5625   4.879   3.728   2.586  0.3189 -0.1045 -0.1292
   61CHL1   H4A 5626   4.948   3.812   2.564 -0.6091  0.1352 -2.2607
   61CHL1   H4B 5627   4.782   3.756   2.540  0.5931 -0.4591 -0.9386
   61CHL1    C5 5628   4.869   3.696   2.737 -0.1406  0.3483 -0.3914
   61CHL1    C6 5629   4.756   3.711   2.804  0.5043 -0.5726  0.6516
   61CHL1    H6 5630   4.668   3.744   2.746 -0.8073 -3.4527  0.7931
   61CHL1    C7 5631   4.736   3.685   2.949 -0.2043 -0.4279 -0.3018
   61CHL1   H7A 5632   4.690   3.772   3.002  2.7359  0.6534  0.7157
   61CHL1   H7B 5633   4.665   3.600   2.957 -1.3001  0.2057 -2.4323
   61CHL1    C8 5634   4.870   3.657   3.025  0.1009 -0.4630  0.0693
   61CHL1    H8 5635   4.926   3.753   3.032 -1.5005  0.3656  2.4864
   61CHL1   C14 5636   4.850   3.602   3.165  0.3581 -0.2089  0.2195
   61CHL1   H14 5637   4.784   3.514   3.151 -0.5151  0.6748 -1.5363
   61CHL1   C15 5638   4.765   3.686   3.266  0.4822  0.3305  0.9729
   61CHL1  H15A 5639   4.792   3.793   3.272 -0.8074  0.8781 -1.8283
   61CHL1  H15B 5640   4.656   3.686   3.247 -0.1561 -1.3577  3.9197
   61CHL1   C16 5641   4.794   3.616   3.401 -0.9548  0.0793 -0.3347
   61CHL1  H16A 5642   4.841   3.682   3.478  0.2588 -0.8658 -0.2339
   61CHL1  H16B 5643   4.710   3.564   3.452  0.1180 -1.2210  0.1730
   61CHL1   C17 5644   4.918   3.516   3.378  0.5272 -0.5233 -0.2040
   61CHL1   H17 5645   4.871   3.415   3.370  1.2048 -0.8522 -0.0462
   61CHL1   C13 5646   4.973   3.555   3.237 -0.1023 -0.1351  0.5885
   61CHL1   C18 5647   5.073   3.674   3.262 -0.0416  0.4006  0.3498
   61CHL1  H18A 5648   5.026   3.744   3.334 -1.4919 -0.7758  0.5830
   61CHL1  H18B 5649   5.171   3.633   3.294  0.0830  0.8283  0.5163
   61CHL1  H18C 5650   5.091   3.723   3.164  0.9608  1.2150  0.9130
   61CHL1   C12 5651   5.027   3.435   3.154 -0.0288  0.2538  0.2705
   61CHL1  H12A 5652   5.116   3.394   3.205 -1.1957 -1.7291  0.8436
   61CHL1  H12B 5653   4.957   3.349   3.141  0.9969 -0.4763 -0.5412
   61CHL1   C11 5654   5.074   3.483   3.018  0.4966 -0.9499  0.1987
   61CHL1  H11A 5655   5.165   3.546   3.022  0.5729 -1.0970  0.8409
   61CHL1  H11B 5656   5.110   3.397   2.957 -1.1384 -0.9807 -0.7933
   61CHL1    C9 5657   4.955   3.555   2.940  0.0778  0.4249 -0.8847
   61CHL1    H9 5658   4.887   3.469   2.921 -1.7412  1.5897  0.1043
   61CHL1   C10 5659   4.998   3.619   2.800  0.3327 -0.6695 -0.7238
   61CHL1   C19 5660   5.106   3.728   2.821  0.7700  0.5172 -0.2847
   61CHL1  H19A 5661   5.132   3.796   2.737 -0.4404  1.0182 -0.2652
   61CHL1  H19B 5662   5.062   3.790   2.902 -3.1068 -0.8341 -1.1231
   61CHL1  H19C 5663   5.201   3.693   2.867  1.3027  2.8535  0.5088
   61CHL1    C1 5664   5.059   3.507   2.708  0.3072  0.0195 -0.2287
   61CHL1   H1A 5665   5.161   3.487   2.747 -0.4915  0.4943  2.2859
   61CHL1   H1B 5666   4.995   3.417   2.720  0.0847  0.0497 -1.0869
   61CHL1    C2 5667   5.064   3.543   2.559 -0.3376 -0.3969  0.2692
   61CHL1   H2A 5668   5.105   3.456   2.504 -1.0328  0.4941 -1.7768
   61CHL1   H2B 5669   5.137   3.627   2.558 -1.7683  0.8806 -0.3688
   61CHL1   C20 5670   5.009   3.500   3.502  0.3553 -0.1137  0.3759
   61CHL1   H20 5671   5.079   3.585   3.519  0.9392 -0.6454  0.7081
   61CHL1   C21 5672   5.096   3.372   3.475 -0.3671  0.2484  0.0874
   61CHL1  H21A 5673   5.175   3.413   3.408  0.0590 -2.3081 -1.1128
   61CHL1  H21B 5674   5.038   3.295   3.421  1.7893 -1.9861  0.7753
   61CHL1  H21C 5675   5.141   3.330   3.567 -0.0674  2.9142  1.2599
   61CHL1   C22 5676   4.944   3.468   3.642 -0.3707  0.4047  0.2866
   61CHL1  H22A 5677   5.034   3.444   3.703  0.5811 -2.1679 -1.9282
   61CHL1  H22B 5678   4.885   3.552   3.685 -0.0326  1.5510 -1.3783
   61CHL1   C23 5679   4.861   3.340   3.653 -0.6776  1.0309 -0.4419
   61CHL1  H23A 5680   4.800   3.322   3.562 -1.5179 -1.5995  0.5690
   61CHL1  H23B 5681   4.928   3.253   3.664  0.5953  2.1437  0.8907
   61CHL1   C24 5682   4.783   3.351   3.779 -0.7714 -0.2850  0.5628
   61CHL1  H24A 5683   4.841   3.377   3.870 -1.4446  0.9174  0.6633
   61CHL1  H24B 5684   4.705   3.429   3.771 -0.0364  0.4403  0.3049
   61CHL1   C25 5685   4.709   3.222   3.814 -0.5051  0.2955  0.3664
   61CHL1   H25 5686   4.632   3.202   3.737  0.8436  0.6304 -1.1444
   61CHL1   C26 5687   4.801   3.097   3.824  0.3097 -0.4046  0.3243
   61CHL1  H26A 5688   4.842   3.069   3.724  1.7468  0.8406  0.5306
   61CHL1  H26B 5689   4.878   3.118   3.901 -0.5556  0.9499  0.8458
   61CHL1  H26C 5690   4.739   3.008   3.847  0.5172 -0.9763 -1.1853
   61CHL1   C27 5691   4.641   3.251   3.955  0.5870  0.0255  0.0916
   61CHL1  H27A 5692   4.547   3.309   3.951 -0.7006 -2.0394 -1.5157
   61CHL1  H27B 5693   4.622   3.162   4.019  1.5086 -0.6660 -0.5713
   61CHL1  H27C 5694   4.719   3.301   4.017 -0.2441 -1.0674  2.1035
   62CHL1    C3 5695   1.143   0.829   2.635 -0.0423  0.2260  0.2286
   62CHL1    H3 5696   1.185   0.930   2.654  4.4547 -1.2622 -0.7434
   62CHL1    O3 5697   1.118   0.822   2.496 -0.3115  0.4862  0.2199
   62CHL1   H3' 5698   1.093   0.731   2.481 -1.9366  1.2350 -2.1377
   62CHL1    C4 5699   1.247   0.733   2.672  0.0011  0.4724  0.5581
   62CHL1   H4A 5700   1.214   0.634   2.635  0.3131  1.1404 -1.6493
   62CHL1   H4B 5701   1.337   0.751   2.610 -0.9232  0.1537 -0.9136
   62CHL1    C5 5702   1.282   0.730   2.811  0.6065  0.4584  0.2024
   62CHL1    C6 5703   1.408   0.768   2.845  0.3038  0.3081 -0.3186
   62CHL1    H6 5704   1.485   0.773   2.766 -0.4099 -0.1937 -1.0695
   62CHL1    C7 5705   1.461   0.789   2.979 -0.1521 -0.7197  0.1932
   62CHL1   H7A 5706   1.556   0.731   2.988 -0.8514 -1.7495  1.2482
   62CHL1   H7B 5707   1.468   0.900   2.987  0.0572 -0.8594  4.0114
   62CHL1    C8 5708   1.363   0.742   3.086 -0.8181 -0.6844 -0.2664
   62CHL1    H8 5709   1.364   0.632   3.099 -1.9156 -0.7783 -0.9078
   62CHL1   C14 5710   1.408   0.801   3.221 -0.2838 -0.1359  0.8035
   62CHL1   H14 5711   1.374   0.907   3.220 -3.2304 -1.0190  0.1585
   62CHL1   C15 5712   1.555   0.779   3.262 -0.8598 -0.4567  0.2097
   62CHL1  H15A 5713   1.589   0.673   3.259  2.7043  0.5388  0.3951
   62CHL1  H15B 5714   1.630   0.842   3.209 -0.0048 -0.3368  1.5108
   62CHL1   C16 5715   1.552   0.822   3.412 -0.6907 -0.3465  0.7853
   62CHL1  H16A 5716   1.610   0.748   3.471 -0.1261 -1.1885 -0.7433
   62CHL1  H16B 5717   1.607   0.918   3.425  0.5449 -0.3789 -2.9563
   62CHL1   C17 5718   1.402   0.844   3.456 -0.0480 -0.6164 -0.5036
   62CHL1   H17 5719   1.386   0.952   3.437  0.2131 -0.5225 -0.2022
   62CHL1   C13 5720   1.321   0.761   3.348 -0.0454 -0.6177  0.4751
   62CHL1   C18 5721   1.319   0.612   3.377 -1.0263  0.5626  0.1609
   62CHL1  H18A 5722   1.417   0.565   3.400 -0.2292  1.0410 -2.0069
   62CHL1  H18B 5723   1.249   0.593   3.461 -0.9105  2.3475  0.7112
   62CHL1  H18C 5724   1.285   0.551   3.291  0.7538  1.5471 -1.3095
   62CHL1   C12 5725   1.179   0.815   3.317  0.4490 -0.6656  0.0802
   62CHL1  H12A 5726   1.106   0.782   3.393 -0.2269  0.3413 -0.1104
   62CHL1  H12B 5727   1.172   0.926   3.316 -1.9893 -0.7659 -0.3948
   62CHL1   C11 5728   1.135   0.755   3.177  0.2886  0.6957  0.2059
   62CHL1  H11A 5729   1.124   0.645   3.188 -0.0070  0.7490  0.4724
   62CHL1  H11B 5730   1.037   0.802   3.155 -0.1592  0.6290  1.9488
   62CHL1    C9 5731   1.221   0.784   3.053  0.9394  0.1916 -0.2751
   62CHL1    H9 5732   1.221   0.892   3.026  1.2900  0.2165 -0.1810
   62CHL1   C10 5733   1.167   0.722   2.916  0.5545 -0.7287 -0.2473
   62CHL1   C19 5734   1.144   0.570   2.929  0.3907  0.4355  0.1038
   62CHL1  H19A 5735   1.129   0.518   2.832  1.9934 -0.5972  0.3694
   62CHL1  H19B 5736   1.235   0.523   2.973  1.3172  0.7176 -1.4448
   62CHL1  H19C 5737   1.055   0.542   2.990  1.0448 -1.9658  0.0920
   62CHL1    C1 5738   1.034   0.797   2.863 -0.8475 -0.1312 -0.2693
   62CHL1   H1A 5739   0.937   0.762   2.904 -0.5069  1.4741  2.1283
   62CHL1   H1B 5740   1.052   0.905   2.884 -0.3174  0.2207 -2.2997
   62CHL1    C2 5741   1.016   0.798   2.718 -0.0720 -0.1843  0.4826
   62CHL1   H2A 5742   0.937   0.871   2.691  1.0279  1.2980  1.1104
   62CHL1   H2B 5743   0.981   0.697   2.687  0.1289  0.6143 -2.6427
   62CHL1   C20 5744   1.371   0.807   3.602  0.0252 -0.0762  0.4111
   62CHL1   H20 5745   1.383   0.699   3.624 -0.0314 -0.3341 -0.7617
   62CHL1   C21 5746   1.219   0.831   3.637 -0.2545  0.9835 -0.4709
   62CHL1  H21A 5747   1.165   0.736   3.620 -3.2384  2.5301 -0.2852
   62CHL1  H21B 5748   1.177   0.917   3.580 -0.1150  1.4256  0.0900
   62CHL1  H21C 5749   1.208   0.858   3.744 -0.0100  0.3377 -0.2818
   62CHL1   C22 5750   1.461   0.878   3.706 -0.6336  0.0498  0.6761
   62CHL1  H22A 5751   1.435   0.831   3.802  1.1294  0.8899  1.6183
   62CHL1  H22B 5752   1.568   0.851   3.695 -0.2619  1.2913  1.0715
   62CHL1   C23 5753   1.442   1.030   3.709  0.1874  0.2245 -0.1443
   62CHL1  H23A 5754   1.503   1.077   3.630  0.2535  1.3691  0.5584
   62CHL1  H23B 5755   1.342   1.064   3.674  0.4890  0.4396 -0.8031
   62CHL1   C24 5756   1.499   1.088   3.834 -0.1253  0.6916 -0.8656
   62CHL1  H24A 5757   1.459   1.032   3.921  2.9098 -0.4877 -0.0935
   62CHL1  H24B 5758   1.610   1.079   3.839 -0.1486  0.7694  0.0042
   62CHL1   C25 5759   1.469   1.238   3.858 -0.3300  0.2385  0.1778
   62CHL1   H25 5760   1.476   1.290   3.759 -0.8680  0.2104  0.1235
   62CHL1   C26 5761   1.331   1.272   3.908 -0.2658 -0.0875 -0.4962
   62CHL1  H26A 5762   1.289   1.231   4.001 -0.8757  1.6250  0.0336
   62CHL1  H26B 5763   1.300   1.379   3.900 -3.0092 -0.6367  1.5761
   62CHL1  H26C 5764   1.270   1.224   3.828  0.3114  0.4425 -1.2703
   62CHL1   C27 5765   1.569   1.306   3.952  0.0499 -0.5005  0.1146
   62CHL1  H27A 5766   1.535   1.266   4.050 -1.1333 -0.3596 -0.2134
   62CHL1  H27B 5767   1.676   1.282   3.939  0.1641  1.0772 -2.7935
   62CHL1  H27C 5768   1.564   1.416   3.966  0.1929 -0.4095 -0.5081
   63CHL1    C3 5769   3.821   4.672   2.388 -0.0038  0.3152 -0.0688
   63CHL1    H3 5770   3.918   4.725   2.399  0.3887 -0.8816  2.9867
   63CHL1    O3 5771   3.783   4.675   2.253 -0.0408 -0.1930 -0.2863
   63CHL1   H3' 5772   3.713   4.610   2.246 -1.2361  0.8407  1.5241
   63CHL1    C4 5773   3.846   4.525   2.424 -0.0077 -0.5092 -0.4543
   63CHL1   H4A 5774   3.758   4.458   2.417 -2.0336  1.8183  0.8095
   63CHL1   H4B 5775   3.922   4.485   2.354  0.1462  0.5441 -0.9113
   63CHL1    C5 5776   3.886   4.503   2.567  0.4600  0.5263 -0.0800
   63CHL1    C6 5777   3.992   4.422   2.607 -0.4594 -0.2260  0.4506
   63CHL1    H6 5778   4.055   4.374   2.530  1.8044 -0.3362  2.2781
   63CHL1    C7 5779   4.035   4.388   2.741  0.2115 -0.2775  0.7475
   63CHL1   H7A 5780   4.038   4.277   2.740  3.0674 -0.3266 -2.0261
   63CHL1   H7B 5781   4.142   4.417   2.753 -0.5783  2.9518  1.1248
   63CHL1    C8 5782   3.932   4.441   2.846 -0.9630  1.4027 -0.3502
   63CHL1    H8 5783   3.847   4.371   2.859 -0.6479  0.9540 -0.7038
   63CHL1   C14 5784   3.995   4.459   2.983 -0.3331  0.1096 -0.5985
   63CHL1   H14 5785   4.078   4.531   2.966  1.3594 -1.8696 -1.1155
   63CHL1   C15 5786   4.068   4.339   3.038  0.2439  0.4564 -0.4577
   63CHL1  H15A 5787   4.009   4.245   3.024  0.6003  0.3777 -1.5185
   63CHL1  H15B 5788   4.169   4.329   2.993  0.6332  1.8053  0.0879
   63CHL1   C16 5789   4.089   4.365   3.192 -0.1378 -0.1739  0.5862
   63CHL1  H16A 5790   4.045   4.276   3.243  0.0921 -0.5936  0.0656
   63CHL1  H16B 5791   4.198   4.373   3.214  0.4215 -0.0655 -1.9276
   63CHL1   C17 5792   4.005   4.490   3.211  0.0571 -0.0480 -0.4396
   63CHL1   H17 5793   4.073   4.574   3.189  0.0068  0.1160  0.0140
   63CHL1   C13 5794   3.901   4.498   3.097 -0.0432 -0.2487  0.1328
   63CHL1   C18 5795   3.787   4.394   3.116  0.0852 -1.0846  0.5051
   63CHL1  H18A 5796   3.742   4.377   3.016  0.3073 -0.4375  0.2865
   63CHL1  H18B 5797   3.831   4.301   3.157  0.6673 -1.0710 -0.0845
   63CHL1  H18C 5798   3.717   4.440   3.189 -0.4093 -0.8583 -0.0931
   63CHL1   C12 5799   3.839   4.640   3.067 -0.0639  0.1175 -1.0972
   63CHL1  H12A 5800   3.770   4.652   3.154  0.4451 -2.5437 -0.2214
   63CHL1  H12B 5801   3.915   4.720   3.076  0.6325 -0.6987  1.1276
   63CHL1   C11 5802   3.776   4.632   2.922  0.1633 -0.2749 -1.2793
   63CHL1  H11A 5803   3.683   4.572   2.919  1.3308 -2.1745 -1.3414
   63CHL1  H11B 5804   3.754   4.739   2.906  3.5230  1.3127  2.8290
   63CHL1    C9 5805   3.868   4.579   2.814  0.3233  0.5848  0.6411
   63CHL1    H9 5806   3.964   4.633   2.803  0.5797  0.0520  0.2501
   63CHL1   C10 5807   3.800   4.579   2.672  0.2555  0.3486  0.3773
   63CHL1   C19 5808   3.669   4.496   2.676  0.1049  0.5080 -0.0593
   63CHL1  H19A 5809   3.623   4.469   2.578  1.3083  0.0535 -0.5148
   63CHL1  H19B 5810   3.690   4.398   2.724 -1.2206 -0.6477 -1.7024
   63CHL1  H19C 5811   3.595   4.552   2.737 -0.0347 -0.3160  0.5481
   63CHL1    C1 5812   3.767   4.723   2.631  0.4834  0.6760  0.8227
   63CHL1   H1A 5813   3.695   4.770   2.702  0.3982  2.5391 -0.4494
   63CHL1   H1B 5814   3.865   4.768   2.656  1.1296 -0.1314 -0.1945
   63CHL1    C2 5815   3.720   4.735   2.483 -0.3637  0.8557 -0.0169
   63CHL1   H2A 5816   3.707   4.845   2.471  1.3453  1.3180  1.8155
   63CHL1   H2B 5817   3.630   4.673   2.465 -1.2588  2.1599 -0.2042
   63CHL1   C20 5818   3.943   4.517   3.350 -0.2122  0.7194  0.1264
   63CHL1   H20 5819   3.855   4.583   3.335 -0.4419 -0.1060 -2.6978
   63CHL1   C21 5820   4.053   4.578   3.430 -0.3289 -0.3349 -0.5843
   63CHL1  H21A 5821   4.027   4.584   3.538 -2.6582 -2.2675 -0.9355
   63CHL1  H21B 5822   4.078   4.681   3.398  1.5577  0.0149  1.7941
   63CHL1  H21C 5823   4.147   4.520   3.415  0.6287  1.4590 -1.8714
   63CHL1   C22 5824   3.900   4.387   3.424  0.1974  0.5806 -0.5268
   63CHL1  H22A 5825   3.838   4.322   3.359  0.8602 -1.2151  0.5669
   63CHL1  H22B 5826   3.987   4.319   3.433 -0.1428  0.1607 -0.3768
   63CHL1   C23 5827   3.823   4.403   3.556  0.1794  0.3310 -0.3566
   63CHL1  H23A 5828   3.847   4.503   3.598 -2.2896  1.1680 -0.8021
   63CHL1  H23B 5829   3.721   4.422   3.516 -1.5409 -4.6232  0.9463
   63CHL1   C24 5830   3.825   4.280   3.643 -0.9876  0.1084 -0.6463
   63CHL1  H24A 5831   3.798   4.193   3.579 -0.6036  0.9355 -1.9883
   63CHL1  H24B 5832   3.921   4.256   3.693 -2.2128 -2.3160  0.7674
   63CHL1   C25 5833   3.725   4.285   3.764  0.2040  0.2267  0.6392
   63CHL1   H25 5834   3.622   4.307   3.727  0.4533  2.4491  1.1401
   63CHL1   C26 5835   3.708   4.152   3.842  0.2685 -0.0991  0.0115
   63CHL1  H26A 5836   3.644   4.075   3.795  1.1014 -0.5972 -0.3215
   63CHL1  H26B 5837   3.802   4.106   3.878  0.6252  1.3049  0.9612
   63CHL1  H26C 5838   3.650   4.187   3.931 -0.1804  1.2901 -0.7907
   63CHL1   C27 5839   3.764   4.387   3.865 -0.1325 -0.2349  0.3318
   63CHL1  H27A 5840   3.793   4.484   3.819 -0.6758  0.4255  1.3474
   63CHL1  H27B 5841   3.674   4.406   3.926 -0.8279  1.5524 -1.1310
   63CHL1  H27C 5842   3.846   4.355   3.933  0.7207  0.3327 -0.4043
   64CHL1    C3 5843   1.721   3.019   2.857 -0.0851 -0.0842 -0.2426
   64CHL1    H3 5844   1.740   2.910   2.870 -1.8818 -0.4656 -0.5222
   64CHL1    O3 5845   1.632   3.037   2.746  0.5654  0.0064 -0.2695
   64CHL1   H3' 5846   1.545   3.033   2.786  0.1839 -0.2889 -1.0993
   64CHL1    C4 5847   1.654   3.078   2.974  0.1616 -0.4666  0.1204
   64CHL1   H4A 5848   1.623   3.181   2.945 -1.3223 -0.2628  2.2375
   64CHL1   H4B 5849   1.554   3.033   2.993 -1.3300  2.2817 -0.5980
   64CHL1    C5 5850   1.739   3.066   3.093  0.2412  0.4541 -0.9109
   64CHL1    C6 5851   1.697   2.995   3.204 -0.2797  0.3330  0.2643
   64CHL1    H6 5852   1.603   2.939   3.197  0.4965 -0.8793 -1.1828
   64CHL1    C7 5853   1.789   2.969   3.321 -0.5367 -0.9067  0.0701
   64CHL1   H7A 5854   1.727   2.964   3.413 -2.6302  1.0613 -1.1422
   64CHL1   H7B 5855   1.847   2.876   3.304 -0.7020 -0.8827 -0.6747
   64CHL1    C8 5856   1.886   3.093   3.332 -0.4665 -0.6691  0.8703
   64CHL1    H8 5857   1.828   3.186   3.350  0.0340  0.1571 -1.4807
   64CHL1   C14 5858   1.979   3.076   3.444 -0.2113 -0.8885 -0.0204
   64CHL1   H14 5859   2.031   2.982   3.418 -0.5455 -0.5912 -1.8866
   64CHL1   C15 5860   1.920   3.034   3.585 -0.3954  0.2320  0.5417
   64CHL1  H15A 5861   1.823   3.088   3.590 -1.5051 -1.7356  1.4629
   64CHL1  H15B 5862   1.894   2.926   3.596  1.4473 -0.2920  0.1514
   64CHL1   C16 5863   2.016   3.083   3.695  0.4885 -0.5316  0.1313
   64CHL1  H16A 5864   1.957   3.159   3.751  0.5207  1.4964 -2.4223
   64CHL1  H16B 5865   2.043   3.007   3.772 -1.4398  0.5731  2.0052
   64CHL1   C17 5866   2.137   3.139   3.616 -0.8415 -0.1843 -0.3781
   64CHL1   H17 5867   2.208   3.056   3.597  0.3305  0.5173  0.7441
   64CHL1   C13 5868   2.084   3.179   3.477 -0.6689 -0.8659  0.2689
   64CHL1   C18 5869   2.021   3.318   3.490  0.3211 -0.6288  0.9424
   64CHL1  H18A 5870   1.958   3.321   3.582 -3.5792 -0.0021 -1.5350
   64CHL1  H18B 5871   2.101   3.395   3.483  1.1723 -1.6148 -0.5823
   64CHL1  H18C 5872   1.953   3.342   3.406 -1.8877 -0.1746  2.7708
   64CHL1   C12 5873   2.173   3.172   3.349  0.2459  0.1012 -0.3747
   64CHL1  H12A 5874   2.262   3.237   3.364  0.0176  0.4048 -0.3374
   64CHL1  H12B 5875   2.210   3.068   3.339 -1.6074 -0.5875 -0.3791
   64CHL1   C11 5876   2.086   3.208   3.217  0.0895  0.2060  0.1477
   64CHL1  H11A 5877   2.054   3.314   3.223  0.5211  0.3420  0.1174
   64CHL1  H11B 5878   2.147   3.184   3.127 -0.7461 -2.7380  0.2462
   64CHL1    C9 5879   1.961   3.112   3.203 -0.4791 -0.4414 -0.3560
   64CHL1    H9 5880   2.010   3.014   3.183 -0.9968 -0.9498  0.7990
   64CHL1   C10 5881   1.869   3.142   3.085  0.4750 -0.0136 -0.0703
   64CHL1   C19 5882   1.845   3.300   3.084  0.0596  0.3184  0.1481
   64CHL1  H19A 5883   1.808   3.347   3.178 -1.6325  0.3728 -0.5125
   64CHL1  H19B 5884   1.942   3.346   3.052 -0.2731 -0.3499 -1.9475
   64CHL1  H19C 5885   1.776   3.329   3.003  1.2467  0.6278 -0.7815
   64CHL1    C1 5886   1.939   3.089   2.957  0.3453 -0.2890 -0.0874
   64CHL1   H1A 5887   2.035   3.143   2.941  0.6193 -0.5158  0.7174
   64CHL1   H1B 5888   1.963   2.982   2.976  1.4272  0.0678  0.6622
   64CHL1    C2 5889   1.856   3.090   2.828  0.2770 -0.2177  0.2316
   64CHL1   H2A 5890   1.915   3.043   2.747  1.5902  1.3769  0.2165
   64CHL1   H2B 5891   1.837   3.197   2.807  1.3899  1.2525  5.2198
   64CHL1   C20 5892   2.220   3.237   3.701 -0.3766  0.1078 -0.4993
   64CHL1   H20 5893   2.164   3.330   3.726  1.8948  1.8022 -1.3216
   64CHL1   C21 5894   2.345   3.273   3.621  0.5943  0.1933 -0.7327
   64CHL1  H21A 5895   2.321   3.345   3.540 -1.3793  1.4215  0.8158
   64CHL1  H21B 5896   2.401   3.185   3.583  1.2844  0.1871  0.2708
   64CHL1  H21C 5897   2.418   3.326   3.686  0.9806 -1.4933  0.2888
   64CHL1   C22 5898   2.256   3.181   3.837  0.2762  0.0606 -0.2037
   64CHL1  H22A 5899   2.159   3.139   3.873  0.4293 -0.9947 -0.9919
   64CHL1  H22B 5900   2.325   3.094   3.838 -0.0331 -0.2162 -1.3894
   64CHL1   C23 5901   2.323   3.273   3.938  0.1558 -0.7442  0.7384
   64CHL1  H23A 5902   2.416   3.319   3.898 -0.5206 -0.5391 -0.6581
   64CHL1  H23B 5903   2.258   3.362   3.948 -1.0396 -1.3472 -1.2153
   64CHL1   C24 5904   2.336   3.218   4.082 -0.2623  0.1178 -0.9705
   64CHL1  H24A 5905   2.242   3.179   4.127 -0.9144  0.4127 -2.0483
   64CHL1  H24B 5906   2.407   3.132   4.089  1.6290  1.7572  1.1832
   64CHL1   C25 5907   2.378   3.328   4.187  0.7717  0.9524  0.6045
   64CHL1   H25 5908   2.458   3.390   4.141  2.0726 -0.9771  0.1117
   64CHL1   C26 5909   2.257   3.420   4.215 -0.4997  0.2467  0.3201
   64CHL1  H26A 5910   2.225   3.471   4.122 -2.0351 -1.5662 -0.1979
   64CHL1  H26B 5911   2.172   3.362   4.257 -0.6991 -0.9064 -1.5792
   64CHL1  H26C 5912   2.293   3.503   4.281  0.8837  1.5899 -1.9960
   64CHL1   C27 5913   2.446   3.261   4.310  0.3567  0.0889  0.1575
   64CHL1  H27A 5914   2.383   3.182   4.356  1.7633 -1.8886 -1.2020
   64CHL1  H27B 5915   2.546   3.223   4.282  0.9244 -0.8024  3.1259
   64CHL1  H27C 5916   2.459   3.346   4.381  0.8365  0.6318 -0.5626
   65CHL1    C3 5917   0.520   0.633   2.549 -0.5762  0.1351 -0.9538
   65CHL1    H3 5918   0.423   0.685   2.563  0.5975  1.8202  1.6977
   65CHL1    O3 5919   0.542   0.639   2.408 -0.4635 -0.1852 -0.2214
   65CHL1   H3' 5920   0.623   0.589   2.395  0.1436  0.6916  0.0778
   65CHL1    C4 5921   0.632   0.714   2.620  0.5585  0.2789  0.8407
   65CHL1   H4A 5922   0.735   0.676   2.599  0.7844  2.0367 -1.7339
   65CHL1   H4B 5923   0.628   0.820   2.588  2.0276  0.5244  1.3833
   65CHL1    C5 5924   0.613   0.713   2.767  0.3741  0.5774  0.4029
   65CHL1    C6 5925   0.618   0.819   2.842 -0.0344 -0.0656 -0.2774
   65CHL1    H6 5926   0.628   0.918   2.795 -1.0063  0.5508  0.7437
   65CHL1    C7 5927   0.610   0.821   2.994 -0.2472 -0.4637  0.4523
   65CHL1   H7A 5928   0.689   0.895   3.016  0.2417  1.4985 -5.8516
   65CHL1   H7B 5929   0.511   0.859   3.027 -0.2676  0.2462 -0.3783
   65CHL1    C8 5930   0.631   0.685   3.059  0.2506 -0.2183 -0.5934
   65CHL1    H8 5931   0.741   0.668   3.052  0.5927  1.3336  0.4589
   65CHL1   C14 5932   0.599   0.680   3.202 -0.4240 -0.9334 -0.0716
   65CHL1   H14 5933   0.490   0.697   3.217 -0.2270  0.5641 -0.1599
   65CHL1   C15 5934   0.653   0.801   3.283  0.2399 -0.6177 -0.2581
   65CHL1  H15A 5935   0.754   0.837   3.253 -0.5694  1.0264 -1.1951
   65CHL1  H15B 5936   0.582   0.884   3.264  1.8441  0.6983 -0.7690
   65CHL1   C16 5937   0.653   0.746   3.422  0.0168 -0.5508  0.6890
   65CHL1  H16A 5938   0.758   0.754   3.455  0.9550  2.0521 -2.4164
   65CHL1  H16B 5939   0.590   0.812   3.485 -0.6920 -2.1086  1.6869
   65CHL1   C17 5940   0.609   0.599   3.420 -0.6701  0.7444 -0.3690
   65CHL1   H17 5941   0.500   0.597   3.439 -0.6073  2.0084  0.2475
   65CHL1   C13 5942   0.630   0.549   3.279  0.5267  0.5467 -0.2881
   65CHL1   C18 5943   0.779   0.506   3.251  0.0941 -0.0399  0.4180
   65CHL1  H18A 5944   0.816   0.485   3.148  0.8884 -1.4719  0.9659
   65CHL1  H18B 5945   0.846   0.580   3.299  0.1686 -0.9486  1.7764
   65CHL1  H18C 5946   0.797   0.414   3.310  1.1340 -0.9237 -1.2186
   65CHL1   C12 5947   0.535   0.447   3.220 -0.2990 -0.4874 -0.5885
   65CHL1  H12A 5948   0.547   0.348   3.269 -0.7245 -0.4554 -0.4176
   65CHL1  H12B 5949   0.434   0.490   3.239  1.5258  3.0895  2.0605
   65CHL1   C11 5950   0.562   0.438   3.062 -0.4322 -0.5389  0.2202
   65CHL1  H11A 5951   0.659   0.385   3.049 -1.2125 -1.8670 -0.4595
   65CHL1  H11B 5952   0.488   0.369   3.015 -1.7235  0.1647  1.1618
   65CHL1    C9 5953   0.553   0.578   2.985  0.1489 -0.2088 -0.4933
   65CHL1    H9 5954   0.451   0.620   2.994  0.5259  0.6467 -0.0314
   65CHL1   C10 5955   0.588   0.569   2.834 -0.5005  0.0090 -0.2566
   65CHL1   C19 5956   0.727   0.496   2.820  0.0607  0.4980 -0.6728
   65CHL1  H19A 5957   0.715   0.389   2.847 -1.2035  0.7293 -0.2616
   65CHL1  H19B 5958   0.761   0.490   2.714  0.3159  3.8897 -0.8970
   65CHL1  H19C 5959   0.807   0.541   2.883  0.0091 -0.4193  0.0609
   65CHL1    C1 5960   0.488   0.488   2.752 -0.0334 -0.0471  0.6491
   65CHL1   H1A 5961   0.503   0.386   2.791  0.3094  0.0839  0.8652
   65CHL1   H1B 5962   0.385   0.525   2.769 -0.0752  0.5165 -0.6560
   65CHL1    C2 5963   0.522   0.487   2.598 -0.5964 -0.6860  0.4702
   65CHL1   H2A 5964   0.441   0.428   2.552 -0.4854 -0.1584 -0.4094
   65CHL1   H2B 5965   0.616   0.432   2.574 -0.0949  0.3647 -0.0579
   65CHL1   C20 5966   0.666   0.517   3.540 -0.2175  0.3082  0.2403
   65CHL1   H20 5967   0.772   0.490   3.524 -0.2907  0.0344  0.2199
   65CHL1   C21 5968   0.591   0.382   3.549 -0.0112 -0.2344 -0.7003
   65CHL1  H21A 5969   0.482   0.404   3.552  0.7522  4.6666  0.6995
   65CHL1  H21B 5970   0.617   0.327   3.642  1.3511  2.6766  0.7965
   65CHL1  H21C 5971   0.610   0.319   3.460  1.4340  1.3457 -1.5781
   65CHL1   C22 5972   0.664   0.593   3.675 -0.2517  0.8460 -0.7091
   65CHL1  H22A 5973   0.717   0.691   3.675 -1.2718  1.4761  1.4505
   65CHL1  H22B 5974   0.559   0.625   3.690 -0.0839  0.1978  2.8073
   65CHL1   C23 5975   0.725   0.514   3.798  0.5679 -0.6482  0.1416
   65CHL1  H23A 5976   0.672   0.417   3.811 -1.2092  0.2173 -0.3181
   65CHL1  H23B 5977   0.830   0.492   3.767  0.9081 -0.8432  1.3900
   65CHL1   C24 5978   0.729   0.605   3.914  1.2388  0.4117  0.1826
   65CHL1  H24A 5979   0.746   0.709   3.879  0.5504  0.5999  0.3978
   65CHL1  H24B 5980   0.634   0.598   3.970  0.5829  0.4289 -0.9141
   65CHL1   C25 5981   0.848   0.578   4.011  0.0248  0.4818  0.5226
   65CHL1   H25 5982   0.828   0.472   4.038  1.0423 -0.2002 -1.2031
   65CHL1   C26 5983   0.987   0.560   3.946  0.1352  0.3847 -0.3265
   65CHL1  H26A 5984   0.979   0.467   3.886 -0.9417  0.9183 -1.0260
   65CHL1  H26B 5985   1.015   0.647   3.883 -0.2851  1.9437  1.5180
   65CHL1  H26C 5986   1.064   0.554   4.026 -0.0537  2.1793  0.0354
   65CHL1   C27 5987   0.835   0.659   4.133 -1.2932  0.2278 -0.1614
   65CHL1  H27A 5988   0.751   0.627   4.197 -2.6462  1.0153 -1.4817
   65CHL1  H27B 5989   0.930   0.658   4.192 -0.6299 -0.5342 -1.1935
   65CHL1  H27C 5990   0.820   0.766   4.108 -2.7347  0.3944  1.3323
   66CHL1    C3 5991   4.113   1.205   2.839  0.0520 -0.3285  0.1920
   66CHL1    H3 5992   4.218   1.198   2.872 -0.0824 -2.8332  0.2603
   66CHL1    O3 5993   4.111   1.223   2.695 -0.3931  0.9034  0.0394
   66CHL1   H3' 5994   4.112   1.134   2.658 -1.2009  0.7660  0.3206
   66CHL1    C4 5995   4.034   1.090   2.883  0.4369  0.7499  0.2364
   66CHL1   H4A 5996   3.935   1.111   2.838  1.3452  2.0840 -1.2991
   66CHL1   H4B 5997   4.060   0.988   2.849  1.2950 -0.4800  4.1288
   66CHL1    C5 5998   4.040   1.079   3.039  0.3246 -0.0650 -0.6769
   66CHL1    C6 5999   4.089   0.969   3.098 -0.0316  0.8345 -0.3079
   66CHL1    H6 6000   4.133   0.888   3.038  0.4966  0.4012  0.6474
   66CHL1    C7 6001   4.093   0.947   3.247  0.0192  0.4596 -0.1999
   66CHL1   H7A 6002   4.043   0.854   3.280  0.8061  0.6352  1.5978
   66CHL1   H7B 6003   4.195   0.947   3.292 -0.8878 -0.1395  1.9556
   66CHL1    C8 6004   4.008   1.056   3.329 -0.0681 -0.4043 -0.3701
   66CHL1    H8 6005   3.900   1.031   3.319 -0.3874  0.2248  1.1358
   66CHL1   C14 6006   4.053   1.054   3.478 -0.8092  0.8460  0.9529
   66CHL1   H14 6007   4.160   1.083   3.480 -0.6717  0.4038  0.2137
   66CHL1   C15 6008   4.064   0.918   3.557  0.6177 -0.8748  0.0985
   66CHL1  H15A 6009   3.969   0.865   3.534 -1.1650  1.0660  2.3818
   66CHL1  H15B 6010   4.159   0.863   3.542  1.6455  0.7269  0.4520
   66CHL1   C16 6011   4.069   0.966   3.709  0.2208  0.0042  0.2042
   66CHL1  H16A 6012   3.988   0.922   3.772  1.5911 -1.6327  0.9159
   66CHL1  H16B 6013   4.169   0.943   3.751  1.2878  2.3234 -0.9493
   66CHL1   C17 6014   4.049   1.124   3.705  0.2654 -0.5789  0.0655
   66CHL1   H17 6015   4.148   1.174   3.696 -0.1945  0.9340  2.3649
   66CHL1   C13 6016   3.978   1.147   3.572  0.4932  0.1404 -0.5674
   66CHL1   C18 6017   3.832   1.100   3.587 -0.0935  0.0356  0.2921
   66CHL1  H18A 6018   3.822   0.999   3.633 -0.7759  0.6004  1.4383
   66CHL1  H18B 6019   3.764   1.170   3.640 -0.0321  2.4890 -2.6217
   66CHL1  H18C 6020   3.777   1.089   3.491 -2.4262  0.1882  1.5230
   66CHL1   C12 6021   3.993   1.280   3.498  0.2544  0.5292  0.4525
   66CHL1  H12A 6022   3.951   1.348   3.575  0.3252 -0.8990  1.8164
   66CHL1  H12B 6023   4.102   1.300   3.501 -0.1325  2.8388  0.9566
   66CHL1   C11 6024   3.936   1.290   3.356 -0.2491  0.3072 -0.2509
   66CHL1  H11A 6025   3.834   1.248   3.367 -0.3747 -1.2819 -5.3452
   66CHL1  H11B 6026   3.942   1.397   3.327  1.3094  0.0461 -1.0150
   66CHL1    C9 6027   4.019   1.195   3.268 -0.4144 -0.0356  0.5759
   66CHL1    H9 6028   4.127   1.213   3.286 -0.7407  1.4088  1.2698
   66CHL1   C10 6029   3.986   1.200   3.119 -0.8774  0.5459 -0.2869
   66CHL1   C19 6030   3.831   1.196   3.093 -0.0122 -0.7505 -0.1304
   66CHL1  H19A 6031   3.802   1.185   2.987 -0.0976 -2.2562  0.0302
   66CHL1  H19B 6032   3.793   1.106   3.146 -0.1690 -0.2322  0.6645
   66CHL1  H19C 6033   3.774   1.282   3.135  1.0912 -0.3254  0.5428
   66CHL1    C1 6034   4.051   1.324   3.057 -0.0426 -0.1419  0.0222
   66CHL1   H1A 6035   3.981   1.402   3.094  0.1098 -0.7185  1.5946
   66CHL1   H1B 6036   4.151   1.346   3.101 -0.3604  1.3358  0.0531
   66CHL1    C2 6037   4.055   1.332   2.908  0.2910  0.6705  0.5028
   66CHL1   H2A 6038   4.128   1.410   2.877 -0.8639  1.0601 -1.3886
   66CHL1   H2B 6039   3.952   1.344   2.868  0.0390  0.1940  0.9836
   66CHL1   C20 6040   3.986   1.181   3.837  0.0104 -0.0879  0.0422
   66CHL1   H20 6041   3.890   1.129   3.858 -0.2437 -0.9278 -2.8239
   66CHL1   C21 6042   3.954   1.331   3.832 -0.2190  0.3151  0.6679
   66CHL1  H21A 6043   3.933   1.365   3.935 -2.0521 -0.2803  0.5190
   66CHL1  H21B 6044   3.865   1.354   3.770  0.2646  0.9877  0.2026
   66CHL1  H21C 6045   4.048   1.374   3.790  1.1804 -0.2160  3.0167
   66CHL1   C22 6046   4.086   1.163   3.957 -0.5220 -0.0646 -0.1346
   66CHL1  H22A 6047   4.038   1.188   4.054 -1.2691 -1.2123 -0.1836
   66CHL1  H22B 6048   4.120   1.057   3.956 -2.3036 -0.7314 -2.5531
   66CHL1   C23 6049   4.209   1.255   3.937 -0.2412  0.0592 -0.0724
   66CHL1  H23A 6050   4.252   1.250   3.834  1.2429 -0.6334  0.5464
   66CHL1  H23B 6051   4.177   1.361   3.931  0.2875  0.1560 -2.1503
   66CHL1   C24 6052   4.321   1.226   4.030  0.8267 -0.2501  0.2095
   66CHL1  H24A 6053   4.293   1.261   4.132 -1.7146 -0.0153 -0.5011
   66CHL1  H24B 6054   4.337   1.116   4.031 -0.1041 -0.3935  1.5709
   66CHL1   C25 6055   4.451   1.290   3.996 -0.6713 -0.0542  0.7246
   66CHL1   H25 6056   4.476   1.278   3.888  1.4097  1.8054  0.9271
   66CHL1   C26 6057   4.449   1.448   4.021 -0.0635 -0.0004 -0.3310
   66CHL1  H26A 6058   4.554   1.478   4.002 -0.1736  0.0964 -0.7929
   66CHL1  H26B 6059   4.366   1.498   3.967 -0.0012  0.4893  0.0165
   66CHL1  H26C 6060   4.428   1.460   4.130 -0.4450 -2.6569 -0.0399
   66CHL1   C27 6061   4.570   1.236   4.086  0.3595 -0.1249  0.4217
   66CHL1  H27A 6062   4.549   1.248   4.194  0.2991 -1.2195  0.5389
   66CHL1  H27B 6063   4.659   1.298   4.061 -0.4757  1.6735  1.7087
   66CHL1  H27C 6064   4.596   1.132   4.058  1.5191  0.0774  0.6871
   67CHL1    C3 6065   4.543   1.050   2.707 -0.1792 -0.0911  0.3138
   67CHL1    H3 6066   4.529   1.160   2.721  1.1614  0.4310 -1.9283
   67CHL1    O3 6067   4.553   1.028   2.569  0.1467  0.3760  0.0973
   67CHL1   H3' 6068   4.554   0.932   2.563  0.3577  0.3653  0.2916
   67CHL1    C4 6069   4.663   0.992   2.770 -0.4716 -0.7426  0.0685
   67CHL1   H4A 6070   4.684   0.890   2.729  1.2725 -1.2515  2.0933
   67CHL1   H4B 6071   4.750   1.052   2.738  0.7296 -1.2464  2.1959
   67CHL1    C5 6072   4.655   0.986   2.919 -0.5142 -0.1947 -0.4501
   67CHL1    C6 6073   4.755   1.044   2.993 -0.2231  0.2945  0.4100
   67CHL1    H6 6074   4.832   1.101   2.938  1.1224 -0.2275  1.6793
   67CHL1    C7 6075   4.766   1.034   3.142 -0.0009  0.8244  0.4199
   67CHL1   H7A 6076   4.873   1.009   3.159 -0.2128  0.1138  0.7688
   67CHL1   H7B 6077   4.733   1.134   3.176 -1.4423  1.0966 -1.5857
   67CHL1    C8 6078   4.675   0.925   3.208 -0.1601 -0.9503  0.3222
   67CHL1    H8 6079   4.723   0.826   3.195 -0.4627 -0.8563 -1.8772
   67CHL1   C14 6080   4.655   0.959   3.353  0.1060  0.5794 -0.2787
   67CHL1   H14 6081   4.584   1.045   3.352  0.0824  0.6195  1.6519
   67CHL1   C15 6082   4.772   1.010   3.436 -0.2905 -0.2570  0.0603
   67CHL1  H15A 6083   4.859   0.954   3.396 -0.3397  0.7136 -1.4542
   67CHL1  H15B 6084   4.792   1.114   3.402  1.1897 -0.3369  0.6482
   67CHL1   C16 6085   4.733   0.991   3.581 -0.2919  0.4848  0.2144
   67CHL1  H16A 6086   4.817   0.935   3.627 -0.9610 -2.4447 -1.9044
   67CHL1  H16B 6087   4.718   1.090   3.631 -0.7317  0.1048  0.8491
   67CHL1   C17 6088   4.596   0.910   3.578 -0.0400  0.0055  0.5106
   67CHL1   H17 6089   4.522   0.993   3.579  0.8071  0.7866 -0.1469
   67CHL1   C13 6090   4.589   0.855   3.438  0.7229 -0.0873 -0.3667
   67CHL1   C18 6091   4.668   0.721   3.442 -0.5006 -0.6197 -0.1557
   67CHL1  H18A 6092   4.602   0.649   3.495  2.1873 -1.5309  2.2153
   67CHL1  H18B 6093   4.701   0.690   3.341  2.2158  2.4949 -0.4142
   67CHL1  H18C 6094   4.762   0.738   3.498 -0.4183 -1.5332  0.0002
   67CHL1   C12 6095   4.453   0.828   3.377  0.4026  0.1980  0.9689
   67CHL1  H12A 6096   4.397   0.739   3.414 -0.1213 -0.5562 -1.4183
   67CHL1  H12B 6097   4.394   0.915   3.412  1.4013  0.0237  3.2273
   67CHL1   C11 6098   4.454   0.820   3.219 -0.0340  0.2167 -0.2878
   67CHL1  H11A 6099   4.493   0.718   3.202  1.4182  0.4630  1.3102
   67CHL1  H11B 6100   4.348   0.816   3.186 -0.5141  1.6918  0.9606
   67CHL1    C9 6101   4.539   0.918   3.140  0.4950 -0.1290 -0.3449
   67CHL1    H9 6102   4.487   1.015   3.153  0.7565  0.2740 -2.1303
   67CHL1   C10 6103   4.542   0.904   2.981 -0.3111  0.2204  0.1805
   67CHL1   C19 6104   4.541   0.755   2.943 -0.3116 -0.8189 -0.4201
   67CHL1  H19A 6105   4.629   0.699   2.980 -0.7794 -2.6231 -1.8842
   67CHL1  H19B 6106   4.450   0.702   2.979 -0.7965 -0.6122 -1.3040
   67CHL1  H19C 6107   4.554   0.738   2.834  0.1669  0.5816 -0.6028
   67CHL1    C1 6108   4.417   0.971   2.917 -0.1838 -0.4534 -0.4397
   67CHL1   H1A 6109   4.318   0.924   2.936 -0.6285  1.3892  2.3837
   67CHL1   H1B 6110   4.405   1.074   2.957 -0.3597  0.8905 -3.6436
   67CHL1    C2 6111   4.421   0.989   2.766  0.2227  0.2920 -1.1102
   67CHL1   H2A 6112   4.332   1.039   2.722 -0.6059 -0.7751 -0.6769
   67CHL1   H2B 6113   4.415   0.883   2.735  0.8313 -0.7473  2.0234
   67CHL1   C20 6114   4.572   0.827   3.709  0.5805 -0.1105  0.1016
   67CHL1   H20 6115   4.650   0.749   3.720 -0.5131 -1.2269  0.1878
   67CHL1   C21 6116   4.429   0.755   3.698  0.0335 -0.0224  0.0223
   67CHL1  H21A 6117   4.434   0.698   3.603  2.0593  0.0477  0.0583
   67CHL1  H21B 6118   4.342   0.824   3.703 -0.9919 -1.2825  0.3565
   67CHL1  H21C 6119   4.424   0.689   3.787  0.8879  2.2656  1.8637
   67CHL1   C22 6120   4.583   0.904   3.842  0.5481 -0.2388  0.0818
   67CHL1  H22A 6121   4.664   0.980   3.850  1.4803 -1.1827 -0.1667
   67CHL1  H22B 6122   4.486   0.959   3.851  0.6483  0.1289 -0.9055
   67CHL1   C23 6123   4.599   0.805   3.965  0.4618 -0.4222  0.0447
   67CHL1  H23A 6124   4.564   0.866   4.051 -0.6216 -0.3347 -0.4387
   67CHL1  H23B 6125   4.531   0.718   3.956  3.2856 -2.5992 -1.8933
   67CHL1   C24 6126   4.740   0.758   3.982  0.3459 -0.5261 -0.2571
   67CHL1  H24A 6127   4.752   0.665   3.922  1.3903 -2.5332  2.7968
   67CHL1  H24B 6128   4.806   0.835   3.939 -0.7276  0.4550 -0.2053
   67CHL1   C25 6129   4.777   0.727   4.130 -0.0137  1.0627  0.1007
   67CHL1   H25 6130   4.770   0.823   4.186 -0.4531  1.9960 -1.4816
   67CHL1   C26 6131   4.681   0.626   4.186  0.0553  0.3590  0.1774
   67CHL1  H26A 6132   4.690   0.527   4.138 -0.8426  2.0415 -3.9149
   67CHL1  H26B 6133   4.704   0.616   4.294  1.1285  1.6073  0.0914
   67CHL1  H26C 6134   4.575   0.659   4.180 -0.5405 -1.5044 -0.1121
   67CHL1   C27 6135   4.925   0.682   4.136 -0.0757  0.3194 -0.0324
   67CHL1  H27A 6136   4.936   0.585   4.082  2.7966  1.9266 -2.6462
   67CHL1  H27B 6137   5.000   0.749   4.090 -1.4900  0.7618 -1.8289
   67CHL1  H27C 6138   4.969   0.670   4.237 -1.4874  0.8068  0.6683
   68CHL1    C3 6139   2.388   5.164   2.906  0.7608 -0.1018  0.8738
   68CHL1    H3 6140   2.399   5.066   2.957  0.7644  0.1844  1.4266
   68CHL1    O3 6141   2.393   5.144   2.759  0.5491 -0.4471 -0.1635
   68CHL1   H3' 6142   2.328   5.077   2.736 -1.1725  1.0637  0.0952
   68CHL1    C4 6143   2.265   5.234   2.967 -0.0937  0.2720  0.1500
   68CHL1   H4A 6144   2.257   5.342   2.940  0.8266  0.2610 -0.2101
   68CHL1   H4B 6145   2.171   5.181   2.937  0.1404 -1.2130  1.8616
   68CHL1    C5 6146   2.278   5.224   3.116 -0.6200 -0.0867 -0.3398
   68CHL1    C6 6147   2.183   5.160   3.188  0.5932  0.2250  0.5063
   68CHL1    H6 6148   2.087   5.128   3.145  0.1168  1.4201  0.6398
   68CHL1    C7 6149   2.190   5.150   3.338  0.2857 -0.1686 -0.6615
   68CHL1   H7A 6150   2.096   5.174   3.391  0.5939 -1.0941  0.3422
   68CHL1   H7B 6151   2.220   5.048   3.369 -1.7945 -0.3078  1.0666
   68CHL1    C8 6152   2.290   5.244   3.410  0.7576  0.6563  0.1125
   68CHL1    H8 6153   2.246   5.346   3.414 -1.5091 -0.3046  1.1846
   68CHL1   C14 6154   2.322   5.201   3.552  0.5509 -0.4977 -1.0066
   68CHL1   H14 6155   2.361   5.097   3.550 -0.4912 -0.8939 -2.1473
   68CHL1   C15 6156   2.198   5.198   3.646  0.6581 -0.0889  0.5480
   68CHL1  H15A 6157   2.132   5.281   3.614  1.1396  0.2355  0.3877
   68CHL1  H15B 6158   2.140   5.104   3.635 -0.5884  0.4480  2.2364
   68CHL1   C16 6159   2.259   5.207   3.784  0.4605  0.0743 -0.9844
   68CHL1  H16A 6160   2.196   5.275   3.846 -0.7897 -1.2701 -0.7423
   68CHL1  H16B 6161   2.250   5.117   3.848  1.5848  0.3894 -0.3460
   68CHL1   C17 6162   2.406   5.237   3.772  0.0352  0.7704  0.8206
   68CHL1   H17 6163   2.446   5.135   3.753 -1.2331  0.4610 -0.3337
   68CHL1   C13 6164   2.420   5.294   3.629  0.0557 -0.2143  0.1612
   68CHL1   C18 6165   2.372   5.443   3.629  0.2729  1.3365 -0.5518
   68CHL1  H18A 6166   2.331   5.472   3.530 -0.6499 -0.2140 -0.6523
   68CHL1  H18B 6167   2.285   5.457   3.697  0.7130  0.9321  0.1036
   68CHL1  H18C 6168   2.453   5.510   3.663  0.4062  0.5100  0.8566
   68CHL1   C12 6169   2.552   5.278   3.555  0.1486  0.5547 -0.0824
   68CHL1  H12A 6170   2.630   5.337   3.608  1.7990 -1.2557 -0.3892
   68CHL1  H12B 6171   2.586   5.173   3.547 -0.8786  0.1210  0.9959
   68CHL1   C11 6172   2.530   5.329   3.408 -0.7839 -0.1268 -0.0169
   68CHL1  H11A 6173   2.513   5.438   3.399  1.5339  0.2047 -1.1572
   68CHL1  H11B 6174   2.628   5.321   3.357 -0.5886  2.5940 -0.1786
   68CHL1    C9 6175   2.424   5.253   3.333  0.3055 -0.1095 -0.2264
   68CHL1    H9 6176   2.461   5.149   3.321  1.2609  0.4148 -2.2276
   68CHL1   C10 6177   2.404   5.296   3.178 -0.6688  0.2966 -0.9959
   68CHL1   C19 6178   2.387   5.453   3.154 -0.3512 -0.3767 -0.1613
   68CHL1  H19A 6179   2.484   5.503   3.177 -1.1951  0.9769  0.5535
   68CHL1  H19B 6180   2.357   5.476   3.050 -0.5360 -0.5180 -0.1408
   68CHL1  H19C 6181   2.310   5.499   3.219 -0.5571 -0.5643 -0.2691
   68CHL1    C1 6182   2.521   5.239   3.100 -0.3329 -0.2974 -0.0228
   68CHL1   H1A 6183   2.619   5.288   3.119 -0.6260  1.2106 -2.0446
   68CHL1   H1B 6184   2.543   5.134   3.129 -1.9975 -1.3934 -2.3768
   68CHL1    C2 6185   2.510   5.241   2.947 -0.0587  0.6479  0.3973
   68CHL1   H2A 6186   2.603   5.197   2.904  0.2704  0.7788  0.9653
   68CHL1   H2B 6187   2.504   5.341   2.899  1.5431  1.4170  1.6808
   68CHL1   C20 6188   2.468   5.289   3.900  0.4406  0.1937 -0.2694
   68CHL1   H20 6189   2.438   5.396   3.910  0.1399  0.0035  1.0144
   68CHL1   C21 6190   2.622   5.304   3.892  0.6442 -0.1611 -0.2153
   68CHL1  H21A 6191   2.654   5.356   3.798  1.5930  2.5327  1.4788
   68CHL1  H21B 6192   2.657   5.199   3.897 -2.3965 -1.3589 -1.6566
   68CHL1  H21C 6193   2.656   5.363   3.980 -0.5351  0.8053 -0.3735
   68CHL1   C22 6194   2.416   5.222   4.032  0.5682 -0.7098  0.2561
   68CHL1  H22A 6195   2.472   5.279   4.108  2.7673 -1.9865 -0.3245
   68CHL1  H22B 6196   2.307   5.244   4.041  0.4479 -1.6850  1.5650
   68CHL1   C23 6197   2.429   5.068   4.049  0.5466 -0.4489  0.1547
   68CHL1  H23A 6198   2.344   5.005   4.014 -0.3031 -1.5220  3.7083
   68CHL1  H23B 6199   2.518   5.029   3.996  0.2275  0.5434 -1.1622
   68CHL1   C24 6200   2.432   5.031   4.195  0.4689 -0.6383  0.1080
   68CHL1  H24A 6201   2.528   5.070   4.233 -0.2544  1.9882 -0.5894
   68CHL1  H24B 6202   2.356   5.092   4.249  1.8740  1.2698  0.0442
   68CHL1   C25 6203   2.421   4.884   4.231 -0.1110  0.0893 -0.4095
   68CHL1   H25 6204   2.319   4.850   4.204  0.3446 -1.8086  0.1141
   68CHL1   C26 6205   2.530   4.800   4.154 -0.7252  0.4034  0.1798
   68CHL1  H26A 6206   2.520   4.691   4.172 -2.1582  0.7683  1.8490
   68CHL1  H26B 6207   2.527   4.816   4.044 -0.2845  0.3334  0.1585
   68CHL1  H26C 6208   2.635   4.825   4.179 -1.4290  1.4682  2.3487
   68CHL1   C27 6209   2.442   4.856   4.381  0.1261 -0.1310 -0.2973
   68CHL1  H27A 6210   2.549   4.874   4.406  0.2888 -2.6819  1.1683
   68CHL1  H27B 6211   2.382   4.916   4.453 -0.0466 -1.0262  0.3133
   68CHL1  H27C 6212   2.420   4.749   4.401 -0.2998 -0.4768 -2.3567
   69CHL1    C3 6213   0.192   2.075   2.818 -0.4193  0.7720 -0.3929
   69CHL1    H3 6214   0.094   2.028   2.840 -0.8668  0.6223 -2.4935
   69CHL1    O3 6215   0.217   2.058   2.680  0.2919  0.0076  0.3335
   69CHL1   H3' 6216   0.306   2.095   2.675  0.2569 -0.0810 -1.1151
   69CHL1    C4 6217   0.186   2.222   2.854  0.0388 -0.2040 -0.5225
   69CHL1   H4A 6218   0.291   2.260   2.843 -0.4018  1.5578  0.8628
   69CHL1   H4B 6219   0.137   2.277   2.771  1.3909  0.4734 -0.9176
   69CHL1    C5 6220   0.135   2.244   2.995 -0.1640  0.3828 -0.3196
   69CHL1    C6 6221   0.035   2.326   3.023  0.4405  0.5751 -0.2795
   69CHL1    H6 6222  -0.001   2.387   2.940  0.4616  1.0350  0.0479
   69CHL1    C7 6223  -0.033   2.335   3.161 -0.1399 -0.0708  0.4264
   69CHL1   H7A 6224  -0.051   2.443   3.179 -0.7649 -0.2107  0.6600
   69CHL1   H7B 6225  -0.130   2.281   3.159 -2.2468  3.4234  0.4454
   69CHL1    C8 6226   0.064   2.281   3.270  0.6252 -0.6084 -0.0266
   69CHL1    H8 6227   0.152   2.348   3.279  0.5559 -0.3348 -1.2549
   69CHL1   C14 6228  -0.005   2.252   3.402  0.6717  0.4806 -0.4919
   69CHL1   H14 6229  -0.071   2.165   3.379 -0.3908  0.9240  0.7540
   69CHL1   C15 6230  -0.101   2.360   3.464  0.6805 -0.3357 -0.2037
   69CHL1  H15A 6231  -0.052   2.459   3.465 -1.3596  0.7288 -0.4677
   69CHL1  H15B 6232  -0.198   2.367   3.411  0.1813  0.7473  0.8068
   69CHL1   C16 6233  -0.114   2.317   3.613  0.2489  0.6533  0.4187
   69CHL1  H16A 6234  -0.075   2.404   3.670 -2.0010  1.2361  1.1354
   69CHL1  H16B 6235  -0.213   2.291   3.654  0.4133  0.3656  0.6334
   69CHL1   C17 6236  -0.030   2.193   3.628 -0.4004  0.2983  0.4366
   69CHL1   H17 6237  -0.093   2.109   3.593  1.5317 -1.3266  0.7210
   69CHL1   C13 6238   0.078   2.198   3.517  0.4286 -0.3613  0.7646
   69CHL1   C18 6239   0.197   2.290   3.560  0.9586 -0.1684  0.3719
   69CHL1  H18A 6240   0.156   2.379   3.612  2.3032  0.1799  0.8724
   69CHL1  H18B 6241   0.262   2.229   3.626  1.4027 -0.2276 -0.1132
   69CHL1  H18C 6242   0.248   2.322   3.467  0.7924 -1.5956 -0.2469
   69CHL1   C12 6243   0.134   2.064   3.472 -0.4641 -0.2266 -0.0448
   69CHL1  H12A 6244   0.194   2.006   3.546 -1.9823 -1.0125  0.6261
   69CHL1  H12B 6245   0.052   1.992   3.452 -1.5607  1.5600 -2.3390
   69CHL1   C11 6246   0.213   2.082   3.342 -0.3609  0.5242  0.2279
   69CHL1  H11A 6247   0.308   2.139   3.358 -0.3404  0.7496 -0.6766
   69CHL1  H11B 6248   0.240   1.977   3.321 -0.1739  0.3597  1.2272
   69CHL1    C9 6249   0.127   2.147   3.227  0.1654  0.4053 -0.3304
   69CHL1    H9 6250   0.040   2.081   3.206  1.0051 -0.7169 -0.3818
   69CHL1   C10 6251   0.214   2.155   3.095  0.7064 -0.1639  0.6278
   69CHL1   C19 6252   0.354   2.226   3.117 -0.1274 -0.5149  0.0423
   69CHL1  H19A 6253   0.425   2.186   3.193 -0.8870 -1.5115  0.2282
   69CHL1  H19B 6254   0.405   2.213   3.019 -0.5679  0.5503 -0.3460
   69CHL1  H19C 6255   0.343   2.336   3.133  0.7082 -0.3177 -0.6209
   69CHL1    C1 6256   0.240   2.011   3.049 -0.0325 -0.3939 -0.4797
   69CHL1   H1A 6257   0.316   1.964   3.115  1.1127  1.5284 -0.3742
   69CHL1   H1B 6258   0.145   1.952   3.047  1.0162 -2.1599 -0.7604
   69CHL1    C2 6259   0.296   1.998   2.902 -0.6526 -0.3310 -0.4567
   69CHL1   H2A 6260   0.310   1.890   2.880  0.6275 -0.5304  1.0801
   69CHL1   H2B 6261   0.388   2.060   2.892 -1.8024  1.4484 -0.3340
   69CHL1   C20 6262   0.011   2.170   3.774 -0.0562  0.1711  0.7493
   69CHL1   H20 6263   0.088   2.247   3.797 -0.4690  1.2727 -1.2941
   69CHL1   C21 6264   0.070   2.034   3.799  0.5821 -0.1084 -0.1181
   69CHL1  H21A 6265   0.175   2.025   3.765  0.5393  0.0787 -0.3048
   69CHL1  H21B 6266   0.006   1.966   3.738  1.4029 -1.1125  0.1208
   69CHL1  H21C 6267   0.063   2.001   3.904 -0.9945  1.0893  0.1992
   69CHL1   C22 6268  -0.099   2.188   3.878 -0.4509  0.3166  0.1428
   69CHL1  H22A 6269  -0.148   2.284   3.852 -1.2324  0.5670  2.2892
   69CHL1  H22B 6270  -0.172   2.104   3.877 -0.2283  0.1126  0.5493
   69CHL1   C23 6271  -0.031   2.212   4.015  0.4844 -0.5746  0.2875
   69CHL1  H23A 6272   0.079   2.217   3.996  0.5539  0.2941  0.8074
   69CHL1  H23B 6273  -0.051   2.316   4.049 -0.2686 -0.3158 -0.9111
   69CHL1   C24 6274  -0.080   2.119   4.122  0.4207 -0.4358 -0.5466
   69CHL1  H24A 6275  -0.188   2.128   4.144  0.7947 -0.0781  1.3148
   69CHL1  H24B 6276  -0.053   2.012   4.107 -1.0516 -0.9252  0.1419
   69CHL1   C25 6277  -0.014   2.152   4.261 -0.1184 -0.3529  0.2903
   69CHL1   H25 6278   0.095   2.143   4.245 -0.1962 -0.2836 -0.3058
   69CHL1   C26 6279  -0.027   2.296   4.304  0.1358 -0.1143  0.1882
   69CHL1  H26A 6280   0.037   2.372   4.254 -2.7443  1.5161 -1.2802
   69CHL1  H26B 6281  -0.130   2.331   4.281  0.6329  1.2481 -0.0851
   69CHL1  H26C 6282  -0.012   2.291   4.414 -1.5685 -0.0892  0.4411
   69CHL1   C27 6283  -0.069   2.052   4.361  0.1323 -0.5066  0.6943
   69CHL1  H27A 6284  -0.011   2.047   4.455  1.0070 -1.1855  0.1358
   69CHL1  H27B 6285  -0.172   2.086   4.387 -0.0392  0.1927 -0.8112
   69CHL1  H27C 6286  -0.084   1.947   4.326 -1.3799 -1.5785  4.1514
   70CHL1    C3 6287   3.162   0.769   2.761 -0.2649  0.0610 -0.6259
   70CHL1    H3 6288   3.246   0.698   2.775 -2.0853 -2.7384 -2.6945
   70CHL1    O3 6289   3.145   0.789   2.624  0.1642  0.3370  0.4254
   70CHL1   H3' 6290   3.115   0.879   2.613 -1.2642 -0.1504  0.1423
   70CHL1    C4 6291   3.028   0.721   2.820  0.1734  0.3449  0.3301
   70CHL1   H4A 6292   2.943   0.782   2.782  1.5997  2.1657 -0.0696
   70CHL1   H4B 6293   3.023   0.618   2.780  1.3472  0.8094 -1.0711
   70CHL1    C5 6294   3.024   0.718   2.972 -0.1224  1.1841 -0.2811
   70CHL1    C6 6295   2.993   0.601   3.032  0.2648  0.1069  0.5132
   70CHL1    H6 6296   2.973   0.503   2.986  4.4735 -1.0927  0.8080
   70CHL1    C7 6297   2.973   0.601   3.179  0.0665  0.2643 -1.2933
   70CHL1   H7A 6298   2.879   0.553   3.211  1.0532 -0.5144  0.5865
   70CHL1   H7B 6299   3.040   0.526   3.228 -0.9857  0.7253  0.9985
   70CHL1    C8 6300   2.970   0.742   3.253  0.3443 -0.2173  0.6001
   70CHL1    H8 6301   2.874   0.796   3.238  0.6241  0.0410 -0.2778
   70CHL1   C14 6302   3.019   0.725   3.398 -0.3315  0.2759  0.1637
   70CHL1   H14 6303   3.125   0.692   3.399  0.0271  1.2521 -1.4091
   70CHL1   C15 6304   2.951   0.610   3.475 -0.1347 -0.0746 -0.7670
   70CHL1  H15A 6305   2.842   0.617   3.457 -0.4404  0.9971  1.2796
   70CHL1  H15B 6306   2.998   0.517   3.435 -1.8599 -1.8140  1.0048
   70CHL1   C16 6307   2.984   0.648   3.622  0.1760 -0.3906  0.1518
   70CHL1  H16A 6308   2.887   0.649   3.675 -0.6163  0.9769 -1.2395
   70CHL1  H16B 6309   3.045   0.569   3.670  0.8682  0.3790  0.5850
   70CHL1   C17 6310   3.042   0.796   3.621 -0.0965  0.1950 -0.2330
   70CHL1   H17 6311   3.153   0.791   3.609 -0.0669  1.7138 -0.9036
   70CHL1   C13 6312   3.008   0.848   3.487 -1.0333 -0.1669  0.1222
   70CHL1   C18 6313   2.857   0.906   3.489  0.1926  0.3668 -1.0353
   70CHL1  H18A 6314   2.826   0.934   3.386 -0.8786  0.3937 -0.7192
   70CHL1  H18B 6315   2.792   0.832   3.541  3.3167 -1.6500  0.3060
   70CHL1  H18C 6316   2.852   0.992   3.559 -0.6074  0.0568 -0.6932
   70CHL1   C12 6317   3.103   0.964   3.427  0.4689  0.2853  0.2975
   70CHL1  H12A 6318   3.074   1.063   3.468 -1.0306  0.1214 -0.3192
   70CHL1  H12B 6319   3.205   0.935   3.461 -0.0571 -0.4413  1.3258
   70CHL1   C11 6320   3.094   0.969   3.273 -0.2728 -0.0067  0.1507
   70CHL1  H11A 6321   3.002   1.027   3.252 -0.4090 -0.4282 -0.4421
   70CHL1  H11B 6322   3.180   1.029   3.236 -0.2028  0.7546  1.4940
   70CHL1    C9 6323   3.079   0.836   3.194  0.4314  0.1741  0.0256
   70CHL1    H9 6324   3.178   0.788   3.205  0.6606  0.0084 -2.2963
   70CHL1   C10 6325   3.060   0.849   3.043 -0.0969 -0.0170 -0.6864
   70CHL1   C19 6326   2.937   0.946   3.010 -0.0111 -0.4969 -0.6174
   70CHL1  H19A 6327   2.961   1.045   3.055 -1.2832  0.1970 -1.3845
   70CHL1  H19B 6328   2.940   0.977   2.903  0.2344  3.8568  0.4442
   70CHL1  H19C 6329   2.839   0.901   3.036  0.4760  0.0266  2.4778
   70CHL1    C1 6330   3.185   0.919   2.977 -0.4797 -0.0486  0.0521
   70CHL1   H1A 6331   3.177   1.027   3.005 -0.7441  0.3505 -1.5056
   70CHL1   H1B 6332   3.266   0.876   3.040 -1.9137 -0.2451  1.8528
   70CHL1    C2 6333   3.193   0.909   2.824  0.3024 -0.2511  0.1053
   70CHL1   H2A 6334   3.293   0.946   2.792 -0.1197 -0.3708 -1.4607
   70CHL1   H2B 6335   3.122   0.987   2.788  1.6991  1.8884  1.8142
   70CHL1   C20 6336   3.016   0.885   3.745 -0.6593  0.8485 -0.0970
   70CHL1   H20 6337   2.915   0.928   3.730 -0.2927  1.3518 -1.2136
   70CHL1   C21 6338   3.125   0.997   3.753 -0.4033  0.0219  0.2150
   70CHL1  H21A 6339   3.230   0.962   3.746 -0.2106  0.8941 -1.7369
   70CHL1  H21B 6340   3.113   1.035   3.857 -3.1058  0.0031 -0.0264
   70CHL1  H21C 6341   3.091   1.082   3.690  1.2331  1.0714  0.6896
   70CHL1   C22 6342   3.006   0.813   3.880 -0.4634  0.3681  0.2097
   70CHL1  H22A 6343   2.994   0.894   3.955 -0.9301  0.3303  0.1743
   70CHL1  H22B 6344   2.922   0.741   3.884  0.7608 -1.1112  0.2737
   70CHL1   C23 6345   3.142   0.743   3.916 -0.2259  0.3389  0.5944
   70CHL1  H23A 6346   3.175   0.693   3.822 -1.4122  0.4393  0.1177
   70CHL1  H23B 6347   3.216   0.820   3.947 -0.2613  1.7717 -2.4976
   70CHL1   C24 6348   3.116   0.633   4.019 -0.3348 -0.0158  0.9586
   70CHL1  H24A 6349   3.076   0.688   4.106  0.5197  2.3972 -0.0876
   70CHL1  H24B 6350   3.040   0.564   3.977 -0.3018  1.6920 -2.2952
   70CHL1   C25 6351   3.256   0.564   4.057  0.2224 -0.0611  1.0129
   70CHL1   H25 6352   3.329   0.644   4.032 -0.1829 -0.0469 -0.2023
   70CHL1   C26 6353   3.267   0.527   4.207 -0.1864  0.4409  0.3395
   70CHL1  H26A 6354   3.216   0.430   4.226  0.4050 -0.0873 -0.7016
   70CHL1  H26B 6355   3.374   0.522   4.238  0.0426  1.7618 -0.1658
   70CHL1  H26C 6356   3.218   0.606   4.268  2.0935  0.1759  2.7215
   70CHL1   C27 6357   3.276   0.442   3.966  0.5594 -0.1889  0.3917
   70CHL1  H27A 6358   3.283   0.471   3.858 -0.9629  0.0574  0.3451
   70CHL1  H27B 6359   3.370   0.391   3.994  1.6643  2.0007  0.9465
   70CHL1  H27C 6360   3.185   0.379   3.973  1.0736 -0.8151  1.8238
   71CHL1    C3 6361   5.275   5.151   2.679  0.0410 -0.8903  0.0429
   71CHL1    H3 6362   5.217   5.060   2.703  0.9304 -1.5952 -0.4351
   71CHL1    O3 6363   5.288   5.175   2.535  0.3474  0.3544 -0.3954
   71CHL1   H3' 6364   5.198   5.157   2.508 -0.9579 -2.0605  4.4448
   71CHL1    C4 6365   5.204   5.269   2.738  0.3339 -0.4112 -0.1259
   71CHL1   H4A 6366   5.238   5.369   2.704 -1.8617  0.7560  0.9050
   71CHL1   H4B 6367   5.102   5.270   2.695 -0.6316 -0.1960  2.0235
   71CHL1    C5 6368   5.197   5.258   2.889  0.3044  0.8170  0.3541
   71CHL1    C6 6369   5.080   5.244   2.950  0.0285 -0.0341 -0.8193
   71CHL1    H6 6370   4.986   5.230   2.894  0.1122 -0.3090 -0.8898
   71CHL1    C7 6371   5.063   5.245   3.103 -0.7141  0.8047  0.7266
   71CHL1   H7A 6372   4.978   5.309   3.131 -3.6234 -2.6942  0.6368
   71CHL1   H7B 6373   5.046   5.145   3.148  3.2350 -0.6951 -0.6640
   71CHL1    C8 6374   5.193   5.300   3.169 -0.9676  0.2531 -0.3912
   71CHL1    H8 6375   5.204   5.408   3.145 -1.6935  0.4226 -0.0119
   71CHL1   C14 6376   5.187   5.271   3.322  0.0876  0.7008 -0.7708
   71CHL1   H14 6377   5.175   5.162   3.338 -2.5631  1.1422  0.9026
   71CHL1   C15 6378   5.074   5.335   3.398 -0.0089  0.2163 -0.0043
   71CHL1  H15A 6379   5.053   5.442   3.374 -0.3596  0.7826  2.5424
   71CHL1  H15B 6380   4.974   5.288   3.389 -0.0942  0.0898  1.3733
   71CHL1   C16 6381   5.116   5.320   3.545  0.0512  0.0547  0.1084
   71CHL1  H16A 6382   5.107   5.423   3.587  1.8226  0.2666  0.0289
   71CHL1  H16B 6383   5.056   5.246   3.603 -3.3177  1.9521 -0.6785
   71CHL1   C17 6384   5.272   5.281   3.546  0.9922 -0.5910  0.5426
   71CHL1   H17 6385   5.277   5.171   3.564  0.6965 -1.1037 -2.1156
   71CHL1   C13 6386   5.316   5.306   3.400 -0.1956 -0.3564 -0.6439
   71CHL1   C18 6387   5.343   5.450   3.390  0.0332 -0.1000 -0.3490
   71CHL1  H18A 6388   5.453   5.454   3.408 -0.0848 -0.5986  0.5820
   71CHL1  H18B 6389   5.318   5.503   3.296 -0.6381 -1.1009 -0.7509
   71CHL1  H18C 6390   5.302   5.504   3.479  0.5588  0.0652 -0.1953
   71CHL1   C12 6391   5.428   5.220   3.346 -0.3021 -0.6137  0.3661
   71CHL1  H12A 6392   5.528   5.228   3.393 -0.1500  0.9903 -0.1740
   71CHL1  H12B 6393   5.398   5.114   3.359  2.4628 -1.5001  0.0867
   71CHL1   C11 6394   5.442   5.249   3.192  0.2871  0.1026  0.3089
   71CHL1  H11A 6395   5.483   5.351   3.179  1.0949 -0.1335  0.8783
   71CHL1  H11B 6396   5.524   5.183   3.157  3.1068  3.2827  0.4166
   71CHL1    C9 6397   5.316   5.227   3.112 -0.5864  0.2395  0.0923
   71CHL1    H9 6398   5.295   5.118   3.121  0.6728 -0.0253  0.0325
   71CHL1   C10 6399   5.330   5.240   2.961  0.0591 -0.9829 -0.1435
   71CHL1   C19 6400   5.413   5.366   2.929 -0.0470 -0.0647  0.1967
   71CHL1  H19A 6401   5.367   5.453   2.982 -1.4334 -0.5888 -0.0947
   71CHL1  H19B 6402   5.519   5.349   2.955  0.1741 -0.1409 -0.7495
   71CHL1  H19C 6403   5.414   5.390   2.821  0.1592  2.5804  0.7048
   71CHL1    C1 6404   5.401   5.116   2.895 -0.0226 -0.2729 -0.9787
   71CHL1   H1A 6405   5.504   5.106   2.936 -0.1653 -0.5901 -0.6926
   71CHL1   H1B 6406   5.345   5.026   2.927 -0.2100 -0.3521 -1.5194
   71CHL1    C2 6407   5.409   5.124   2.742 -0.4531  0.2747  0.8151
   71CHL1   H2A 6408   5.469   5.040   2.700  1.3055  1.2330  1.3174
   71CHL1   H2B 6409   5.479   5.209   2.728 -1.0790  1.0582  2.2175
   71CHL1   C20 6410   5.353   5.336   3.663 -1.0014 -0.1763  0.1762
   71CHL1   H20 6411   5.350   5.448   3.660 -1.5303 -0.2056 -0.9995
   71CHL1   C21 6412   5.503   5.307   3.647 -0.5340 -0.2419 -0.7645
   71CHL1  H21A 6413   5.550   5.354   3.558  0.4138 -0.9145 -0.6309
   71CHL1  H21B 6414   5.513   5.197   3.642 -0.3656 -0.2432 -0.4588
   71CHL1  H21C 6415   5.562   5.352   3.730 -0.7327  1.8224 -1.6772
   71CHL1   C22 6416   5.308   5.295   3.800  0.1298  0.5323 -0.3624
   71CHL1  H22A 6417   5.361   5.359   3.873 -0.1651 -0.5433  0.8418
   71CHL1  H22B 6418   5.200   5.316   3.809  0.2633  2.1468 -1.9434
   71CHL1   C23 6419   5.339   5.149   3.831  1.3391 -0.4639 -0.8472
   71CHL1  H23A 6420   5.300   5.082   3.752 -2.3309 -0.9588  1.1371
   71CHL1  H23B 6421   5.447   5.138   3.855  1.3294  0.5337 -0.2677
   71CHL1   C24 6422   5.255   5.091   3.953  0.4010 -0.7174 -0.0689
   71CHL1  H24A 6423   5.270   5.167   4.033 -2.2610 -2.3584  2.1828
   71CHL1  H24B 6424   5.149   5.102   3.922  0.2258 -0.3847  0.6188
   71CHL1   C25 6425   5.290   4.957   4.002 -0.2213 -0.0094  0.1094
   71CHL1   H25 6426   5.397   4.966   4.029  0.5191  1.7539 -3.0238
   71CHL1   C26 6427   5.221   4.924   4.135 -0.1090 -0.3808 -0.3515
   71CHL1  H26A 6428   5.261   4.844   4.200  0.2843 -0.3488 -0.5523
   71CHL1  H26B 6429   5.214   5.008   4.207  1.1375 -1.6996  1.3825
   71CHL1  H26C 6430   5.115   4.895   4.117 -1.1750  1.4358  2.3817
   71CHL1   C27 6431   5.263   4.843   3.906 -0.3068 -0.6173 -0.4434
   71CHL1  H27A 6432   5.167   4.841   3.851  0.6142  0.2036 -2.1592
   71CHL1  H27B 6433   5.339   4.846   3.825  1.3443 -0.6241  1.0520
   71CHL1  H27C 6434   5.271   4.744   3.957 -1.9729 -0.5677 -0.0389
   72CHL1    C3 6435   5.460   3.679   2.673  0.8448 -0.4685 -0.5860
   72CHL1    H3 6436   5.353   3.656   2.692 -0.1183  2.1611 -2.3448
   72CHL1    O3 6437   5.481   3.676   2.535  1.0163  0.0798  0.4360
   72CHL1   H3' 6438   5.440   3.592   2.513 -2.7502  1.7198  0.3291
   72CHL1    C4 6439   5.487   3.825   2.716 -0.0292 -0.2843  0.0622
   72CHL1   H4A 6440   5.591   3.851   2.688  0.8954 -1.7976  1.9212
   72CHL1   H4B 6441   5.407   3.882   2.663  0.1535  0.0835  0.1793
   72CHL1    C5 6442   5.465   3.849   2.863  0.1586  0.5835 -0.7263
   72CHL1    C6 6443   5.383   3.946   2.917 -0.8180  0.1821  0.6907
   72CHL1    H6 6444   5.337   4.015   2.844 -0.9020 -1.0757 -0.4820
   72CHL1    C7 6445   5.362   3.968   3.066 -0.7845 -0.6703  0.4766
   72CHL1   H7A 6446   5.368   4.078   3.081  0.3285 -0.3194 -2.0121
   72CHL1   H7B 6447   5.260   3.932   3.093 -0.0826 -0.4611  3.8354
   72CHL1    C8 6448   5.467   3.907   3.157 -0.3354 -0.1124 -0.7084
   72CHL1    H8 6449   5.565   3.960   3.163 -0.3624 -0.1592  0.3892
   72CHL1   C14 6450   5.395   3.900   3.297  0.1665  0.2129  0.2018
   72CHL1   H14 6451   5.301   3.841   3.285 -0.5232  1.0742  1.2634
   72CHL1   C15 6452   5.361   4.032   3.363  0.1511  0.3531 -0.4090
   72CHL1  H15A 6453   5.441   4.108   3.350  0.2100  0.1161 -1.5466
   72CHL1  H15B 6454   5.266   4.084   3.336 -0.0146  0.8968  1.1105
   72CHL1   C16 6455   5.337   3.992   3.508 -0.0831 -0.3244  0.1266
   72CHL1  H16A 6456   5.400   4.063   3.565  1.7519 -1.0001 -0.9969
   72CHL1  H16B 6457   5.232   4.000   3.543  0.2936 -1.4536  1.6432
   72CHL1   C17 6458   5.379   3.844   3.521 -0.9079  0.1657 -0.5722
   72CHL1   H17 6459   5.290   3.778   3.513 -0.3930 -0.5740 -0.3010
   72CHL1   C13 6460   5.475   3.824   3.406 -0.7090 -0.2991  0.4340
   72CHL1   C18 6461   5.608   3.889   3.432 -0.1171 -0.5587 -0.5532
   72CHL1  H18A 6462   5.685   3.838   3.493  0.4830 -0.8936 -1.5580
   72CHL1  H18B 6463   5.663   3.916   3.339 -0.5022  0.1615 -0.5773
   72CHL1  H18C 6464   5.585   3.990   3.473  0.9922 -0.0945 -1.0307
   72CHL1   C12 6465   5.505   3.681   3.349 -0.3698  0.3145  0.1268
   72CHL1  H12A 6466   5.561   3.618   3.421 -0.1278  1.8701  1.3479
   72CHL1  H12B 6467   5.410   3.628   3.325 -1.1455  2.5897 -2.2698
   72CHL1   C11 6468   5.575   3.676   3.206  0.6270  0.2782  0.0990
   72CHL1  H11A 6469   5.672   3.728   3.220  0.0434  1.3360  0.2869
   72CHL1  H11B 6470   5.597   3.575   3.167 -0.5372  0.9734 -2.5294
   72CHL1    C9 6471   5.491   3.759   3.108  0.1811 -0.4299 -0.3566
   72CHL1    H9 6472   5.391   3.712   3.117  0.0530  0.1066  1.2572
   72CHL1   C10 6473   5.544   3.756   2.960 -0.2974 -0.1587  0.3175
   72CHL1   C19 6474   5.696   3.797   2.964 -0.3990  0.6322  0.2939
   72CHL1  H19A 6475   5.757   3.712   2.999 -0.4027  0.8488  0.8283
   72CHL1  H19B 6476   5.726   3.824   2.860 -0.5810  0.3934  0.1789
   72CHL1  H19C 6477   5.716   3.887   3.027  2.1488  0.3945 -0.0927
   72CHL1    C1 6478   5.526   3.610   2.906 -0.5925  0.0336  0.3159
   72CHL1   H1A 6479   5.597   3.536   2.949 -1.7954 -1.3690 -0.0440
   72CHL1   H1B 6480   5.427   3.571   2.938 -0.0785 -1.5846 -0.0043
   72CHL1    C2 6481   5.555   3.590   2.752  0.3704 -0.1886  0.2634
   72CHL1   H2A 6482   5.543   3.484   2.718 -0.0858 -0.5383  1.4741
   72CHL1   H2B 6483   5.662   3.608   2.732  0.2058 -1.1171 -1.8276
   72CHL1   C20 6484   5.422   3.808   3.665  0.8692 -1.0364  0.5628
   72CHL1   H20 6485   5.514   3.866   3.688  1.9239 -1.6011 -1.9636
   72CHL1   C21 6486   5.474   3.662   3.676 -0.2136  0.1813  0.8481
   72CHL1  H21A 6487   5.508   3.627   3.776 -0.1239 -1.7642  0.1845
   72CHL1  H21B 6488   5.559   3.656   3.605 -1.5299  3.2922 -1.1699
   72CHL1  H21C 6489   5.401   3.583   3.645 -1.2681  2.0485 -1.8106
   72CHL1   C22 6490   5.298   3.853   3.759  0.0337 -0.0078 -0.1943
   72CHL1  H22A 6491   5.314   3.959   3.787  1.2805 -0.4275  0.7756
   72CHL1  H22B 6492   5.199   3.839   3.711 -0.9413  0.9783  1.4629
   72CHL1   C23 6493   5.284   3.775   3.896 -0.3790 -0.2720  0.7641
   72CHL1  H23A 6494   5.267   3.668   3.876  1.0904 -0.2026 -1.1938
   72CHL1  H23B 6495   5.374   3.782   3.961  0.8188  0.4165 -0.8920
   72CHL1   C24 6496   5.170   3.842   3.968 -0.2615 -0.1952 -0.2500
   72CHL1  H24A 6497   5.195   3.950   3.962  0.8750 -0.5044 -1.5347
   72CHL1  H24B 6498   5.074   3.824   3.916 -0.5202 -0.1425  0.2038
   72CHL1   C25 6499   5.140   3.804   4.117 -0.5160  0.1384 -0.0237
   72CHL1   H25 6500   5.238   3.807   4.169 -0.2516 -0.1431 -0.5004
   72CHL1   C26 6501   5.046   3.901   4.191  0.1429  0.1190  0.4646
   72CHL1  H26A 6502   4.964   3.941   4.128  1.4761  3.3249  0.5835
   72CHL1  H26B 6503   4.992   3.867   4.282 -1.1047  0.4250 -0.1263
   72CHL1  H26C 6504   5.100   3.984   4.241  0.4777  0.2467 -0.1014
   72CHL1   C27 6505   5.084   3.664   4.123  0.3680  0.4315  0.2173
   72CHL1  H27A 6506   5.073   3.631   4.228 -0.5227 -1.7645 -0.5231
   72CHL1  H27B 6507   4.988   3.661   4.068  0.4464  1.9845 -0.0589
   72CHL1  H27C 6508   5.153   3.588   4.082  0.4261 -0.2678  1.5727
   73CHL1    C3 6509   0.603   6.222   2.738 -0.1099 -0.3276 -0.2758
   73CHL1    H3 6510   0.572   6.121   2.770  0.7279 -0.3501  0.5143
   73CHL1    O3 6511   0.690   6.205   2.628 -0.5970 -0.1501  0.3442
   73CHL1   H3' 6512   0.710   6.295   2.600 -0.1743 -0.9819 -2.2833
   73CHL1    C4 6513   0.478   6.301   2.698 -0.2683 -0.6395  0.1098
   73CHL1   H4A 6514   0.510   6.393   2.643 -2.7733 -0.0525 -0.4867
   73CHL1   H4B 6515   0.419   6.247   2.621 -1.7001  2.5333 -1.2392
   73CHL1    C5 6516   0.391   6.338   2.818 -0.0357 -0.2535  0.4467
   73CHL1    C6 6517   0.262   6.298   2.822 -0.0219  0.1850  0.3798
   73CHL1    H6 6518   0.223   6.252   2.730 -0.7161  2.5739 -0.6033
   73CHL1    C7 6519   0.169   6.329   2.930 -0.6364 -0.1035 -0.0895
   73CHL1   H7A 6520   0.085   6.375   2.874 -1.2119 -1.9771 -0.8487
   73CHL1   H7B 6521   0.128   6.234   2.973  1.7987  0.2338  3.4478
   73CHL1    C8 6522   0.234   6.417   3.042  0.9092 -0.4798 -0.0138
   73CHL1    H8 6523   0.222   6.523   3.010 -1.5270 -1.0522 -1.2394
   73CHL1   C14 6524   0.149   6.405   3.173 -0.7194  0.2807 -0.2943
   73CHL1   H14 6525   0.158   6.297   3.196 -2.9426  0.0748 -0.1691
   73CHL1   C15 6526  -0.006   6.427   3.158 -0.2805 -0.4270  0.0601
   73CHL1  H15A 6527  -0.029   6.520   3.102  0.0419 -1.1378 -1.2899
   73CHL1  H15B 6528  -0.066   6.343   3.117  0.1218 -1.2074  1.0554
   73CHL1   C16 6529  -0.045   6.461   3.298  0.5442  0.7418  0.5507
   73CHL1  H16A 6530  -0.085   6.564   3.295  0.3843  0.6724 -1.3143
   73CHL1  H16B 6531  -0.122   6.395   3.344 -3.9134  3.3953 -2.3378
   73CHL1   C17 6532   0.086   6.458   3.384  0.1136  0.9198  0.1088
   73CHL1   H17 6533   0.095   6.351   3.413  0.5734  0.3705 -1.9176
   73CHL1   C13 6534   0.201   6.487   3.289 -0.3263  0.0963 -0.0567
   73CHL1   C18 6535   0.198   6.636   3.251  0.9320 -0.2210  0.2512
   73CHL1  H18A 6536   0.266   6.658   3.166  0.6183 -1.2392 -0.2729
   73CHL1  H18B 6537   0.106   6.695   3.238  2.2989  2.0083  0.2256
   73CHL1  H18C 6538   0.231   6.694   3.340 -2.5144  3.3009 -0.4951
   73CHL1   C12 6539   0.349   6.438   3.312  0.0296 -0.6337 -0.4028
   73CHL1  H12A 6540   0.398   6.494   3.395 -0.4688 -2.5300  1.2673
   73CHL1  H12B 6541   0.344   6.334   3.352 -0.5975 -0.7267 -0.7142
   73CHL1   C11 6542   0.436   6.457   3.185 -0.1924  0.0709  0.4859
   73CHL1  H11A 6543   0.452   6.565   3.167 -0.8034  0.2498  0.9806
   73CHL1  H11B 6544   0.534   6.411   3.211  0.6422  1.2698 -0.3986
   73CHL1    C9 6545   0.377   6.383   3.065 -1.0619 -0.1055  0.5516
   73CHL1    H9 6546   0.379   6.275   3.090 -0.0618 -0.9066 -2.5356
   73CHL1   C10 6547   0.466   6.398   2.934 -0.2646 -0.1032 -0.2083
   73CHL1   C19 6548   0.495   6.549   2.902  0.9500 -0.5364  0.1110
   73CHL1  H19A 6549   0.528   6.552   2.796 -0.0175 -3.8853 -0.4227
   73CHL1  H19B 6550   0.397   6.600   2.899 -0.1199 -2.5362 -2.5030
   73CHL1  H19C 6551   0.574   6.594   2.967  0.6325 -0.2053  0.2703
   73CHL1    C1 6552   0.604   6.332   2.967 -0.0482 -0.1100  0.2594
   73CHL1   H1A 6553   0.659   6.398   3.037  2.6110 -0.4782 -1.3610
   73CHL1   H1B 6554   0.584   6.234   3.015 -1.6424 -0.2871 -0.7034
   73CHL1    C2 6555   0.678   6.303   2.839 -0.1530  0.0004 -0.1842
   73CHL1   H2A 6556   0.773   6.252   2.865 -0.1222  0.2161  0.1222
   73CHL1   H2B 6557   0.708   6.401   2.795 -1.6156  1.2298  1.4432
   73CHL1   C20 6558   0.077   6.542   3.512 -0.1008  0.2729  0.1897
   73CHL1   H20 6559   0.060   6.647   3.480 -0.9142  0.1579  0.2280
   73CHL1   C21 6560   0.205   6.526   3.592  0.2010 -0.7800  0.4140
   73CHL1  H21A 6561   0.246   6.424   3.576  0.5318 -0.4783 -0.8087
   73CHL1  H21B 6562   0.197   6.564   3.696 -0.3072  0.5953 -0.1052
   73CHL1  H21C 6563   0.277   6.597   3.545 -0.3121 -1.4902 -1.5579
   73CHL1   C22 6564  -0.047   6.506   3.603  0.0941 -0.4843 -0.4818
   73CHL1  H22A 6565  -0.131   6.503   3.530  0.1725 -0.0596 -0.5942
   73CHL1  H22B 6566  -0.041   6.412   3.662 -1.8297 -0.3726 -0.0316
   73CHL1   C23 6567  -0.092   6.609   3.706  0.6354 -0.6069 -0.1656
   73CHL1  H23A 6568  -0.005   6.622   3.773  0.2288  0.2427  0.2079
   73CHL1  H23B 6569  -0.108   6.710   3.664  2.2719  0.5800  1.8679
   73CHL1   C24 6570  -0.218   6.564   3.777  0.2118 -0.0848 -0.1398
   73CHL1  H24A 6571  -0.301   6.561   3.703  0.1373 -0.0411 -0.0579
   73CHL1  H24B 6572  -0.199   6.458   3.805 -0.6287 -1.0209 -2.7944
   73CHL1   C25 6573  -0.239   6.646   3.910 -0.4124  0.7600  0.4793
   73CHL1   H25 6574  -0.267   6.750   3.884 -0.2993  0.6928  0.0779
   73CHL1   C26 6575  -0.351   6.585   3.993 -0.1932 -0.2617 -0.4362
   73CHL1  H26A 6576  -0.322   6.481   4.018  0.7885 -0.0445 -0.6220
   73CHL1  H26B 6577  -0.358   6.636   4.091 -0.0691 -1.4689  0.2214
   73CHL1  H26C 6578  -0.451   6.578   3.945 -0.3056 -1.1049 -0.0906
   73CHL1   C27 6579  -0.116   6.654   4.006 -1.0269  0.0253  0.0066
   73CHL1  H27A 6580  -0.045   6.727   3.962 -0.7243  0.2691  0.8891
   73CHL1  H27B 6581  -0.147   6.690   4.106  1.5632  0.3481  0.7424
   73CHL1  H27C 6582  -0.071   6.553   4.009 -1.8267 -0.3137  1.0493
   74CHL1    C3 6583   2.399   4.458   2.792  0.9687 -0.1924  0.1349
   74CHL1    H3 6584   2.300   4.497   2.757  1.4734  0.2739 -0.8390
   74CHL1    O3 6585   2.480   4.427   2.676  0.2371 -0.8396 -0.1261
   74CHL1   H3' 6586   2.571   4.423   2.707 -0.6286 -2.8819  2.5881
   74CHL1    C4 6587   2.461   4.572   2.868 -0.3700  0.0349  0.4432
   74CHL1   H4A 6588   2.570   4.552   2.868 -0.1565  1.1316  0.5471
   74CHL1   H4B 6589   2.430   4.661   2.808 -3.5590 -0.1285  1.6570
   74CHL1    C5 6590   2.408   4.594   3.008 -0.0379 -0.1573  0.0761
   74CHL1    C6 6591   2.350   4.709   3.045  0.0351  0.0679  0.7964
   74CHL1    H6 6592   2.356   4.795   2.976  1.3313 -0.3101  0.3876
   74CHL1    C7 6593   2.280   4.738   3.169 -0.0813 -0.4133  0.3864
   74CHL1   H7A 6594   2.318   4.835   3.207  1.6900 -0.8472 -0.1596
   74CHL1   H7B 6595   2.171   4.732   3.151  0.1767 -2.7334 -0.7525
   74CHL1    C8 6596   2.323   4.634   3.272 -0.1090 -0.6475  1.0172
   74CHL1    H8 6597   2.428   4.652   3.303  0.5920 -3.4745  0.5344
   74CHL1   C14 6598   2.239   4.648   3.392 -0.4511  0.2860 -0.2175
   74CHL1   H14 6599   2.139   4.604   3.371  0.1766 -2.6238  2.1898
   74CHL1   C15 6600   2.208   4.781   3.463 -0.0683  0.1681 -0.6719
   74CHL1  H15A 6601   2.293   4.853   3.460  0.8609 -0.9230 -1.3801
   74CHL1  H15B 6602   2.119   4.819   3.408 -0.4842 -0.0188 -0.1399
   74CHL1   C16 6603   2.167   4.748   3.604 -0.0343  0.6707 -0.1161
   74CHL1  H16A 6604   2.242   4.799   3.668  0.0643 -0.0006  0.3059
   74CHL1  H16B 6605   2.063   4.786   3.617 -0.5003  0.4092 -2.5765
   74CHL1   C17 6606   2.184   4.597   3.623  0.2985  0.1192  0.0387
   74CHL1   H17 6607   2.091   4.543   3.597  0.9490 -1.7641  1.3615
   74CHL1   C13 6608   2.282   4.556   3.512  0.0374 -0.4995  0.0832
   74CHL1   C18 6609   2.429   4.580   3.562  0.1325  0.5843 -0.5273
   74CHL1  H18A 6610   2.456   4.482   3.605 -0.3825  0.1528 -1.1701
   74CHL1  H18B 6611   2.506   4.612   3.488 -0.1714  1.1940 -0.5883
   74CHL1  H18C 6612   2.431   4.652   3.647  0.1007 -0.8047  0.6853
   74CHL1   C12 6613   2.269   4.409   3.461  1.3056  0.4342 -0.1150
   74CHL1  H12A 6614   2.306   4.351   3.548  0.5268  0.9068  0.5475
   74CHL1  H12B 6615   2.163   4.376   3.462  1.4872 -0.1464  0.2637
   74CHL1   C11 6616   2.340   4.380   3.335  0.0441  0.0273 -0.4757
   74CHL1  H11A 6617   2.449   4.394   3.355  0.5273 -3.2620 -0.3221
   74CHL1  H11B 6618   2.324   4.281   3.287 -1.2263  0.5876 -1.2603
   74CHL1    C9 6619   2.306   4.486   3.225 -0.3329  0.2553 -0.4464
   74CHL1    H9 6620   2.200   4.452   3.216 -0.9905 -0.4453  5.7204
   74CHL1   C10 6621   2.390   4.462   3.091 -0.0222 -0.0819  0.2693
   74CHL1   C19 6622   2.533   4.415   3.120  0.6246  0.0657  0.1440
   74CHL1  H19A 6623   2.591   4.480   3.190  0.4371  0.5159 -0.1127
   74CHL1  H19B 6624   2.532   4.318   3.173  0.9445  0.6843  1.3394
   74CHL1  H19C 6625   2.587   4.400   3.024  1.0362  1.1407  0.1889
   74CHL1    C1 6626   2.321   4.353   3.011 -0.9007  0.2718  0.0653
   74CHL1   H1A 6627   2.337   4.253   3.056 -0.7539 -0.0710 -0.7285
   74CHL1   H1B 6628   2.211   4.371   3.004 -0.6485  1.4649 -1.3982
   74CHL1    C2 6629   2.379   4.331   2.869 -0.5707 -0.5750  0.3576
   74CHL1   H2A 6630   2.316   4.255   2.819 -2.2685 -1.2345  3.2617
   74CHL1   H2B 6631   2.477   4.283   2.890 -0.0452  1.1322  2.2241
   74CHL1   C20 6632   2.206   4.551   3.772  0.1820 -0.3898 -0.2159
   74CHL1   H20 6633   2.310   4.567   3.807 -0.1923 -1.1243  1.2828
   74CHL1   C21 6634   2.186   4.402   3.794 -0.2030  0.2017  0.1325
   74CHL1  H21A 6635   2.198   4.377   3.902 -2.5358  1.4069  0.7338
   74CHL1  H21B 6636   2.243   4.333   3.727 -1.4555  0.1925 -0.9591
   74CHL1  H21C 6637   2.084   4.369   3.767  0.1088 -1.4079  0.7842
   74CHL1   C22 6638   2.115   4.629   3.875 -0.4146  0.1737 -0.3678
   74CHL1  H22A 6639   2.127   4.611   3.984  0.8850  1.1162 -0.3316
   74CHL1  H22B 6640   2.148   4.735   3.864 -1.3196  0.5254  0.2336
   74CHL1   C23 6641   1.960   4.608   3.847  0.2765  0.1863 -0.7638
   74CHL1  H23A 6642   1.928   4.714   3.833  0.6607  0.1592 -1.9563
   74CHL1  H23B 6643   1.946   4.547   3.756 -0.6537 -1.9794  0.7454
   74CHL1   C24 6644   1.884   4.537   3.962  1.0313 -0.3211  0.2466
   74CHL1  H24A 6645   1.916   4.431   3.970  1.1293 -0.2974  0.1729
   74CHL1  H24B 6646   1.906   4.597   4.053 -0.0190  0.8418 -0.2373
   74CHL1   C25 6647   1.731   4.548   3.940  0.3126  0.9436  0.0604
   74CHL1   H25 6648   1.700   4.531   3.835 -0.9308 -0.8325  0.6571
   74CHL1   C26 6649   1.663   4.425   4.006 -0.3608 -0.4986 -0.1699
   74CHL1  H26A 6650   1.711   4.333   3.966 -0.2812 -0.3753 -0.3619
   74CHL1  H26B 6651   1.665   4.426   4.117 -4.3919  3.0010  0.1513
   74CHL1  H26C 6652   1.555   4.428   3.981  0.0624  0.7947 -2.1597
   74CHL1   C27 6653   1.672   4.687   3.981  0.6746 -0.3771  0.0478
   74CHL1  H27A 6654   1.726   4.768   3.928  0.9459 -0.4393  0.2301
   74CHL1  H27B 6655   1.563   4.692   3.958  0.2814 -2.6132  1.1669
   74CHL1  H27C 6656   1.684   4.709   4.089  1.3977  1.6756 -0.3991
   75CHL1    C3 6657   5.941   2.612   2.650 -0.2488 -1.0512 -0.0050
   75CHL1    H3 6658   5.901   2.526   2.709 -0.1133 -1.0704  0.0602
   75CHL1    O3 6659   5.922   2.580   2.512  0.1192  0.0349  0.8588
   75CHL1   H3' 6660   5.867   2.649   2.475 -0.3699 -0.4595  0.6402
   75CHL1    C4 6661   5.843   2.728   2.673  0.0937 -1.2026  0.2768
   75CHL1   H4A 6662   5.865   2.824   2.621 -0.4043 -1.8140 -1.1331
   75CHL1   H4B 6663   5.744   2.702   2.630 -0.2541  1.2094 -0.5344
   75CHL1    C5 6664   5.840   2.756   2.820 -0.2566  0.3884 -0.2196
   75CHL1    C6 6665   5.724   2.744   2.890 -0.3037  1.0964  0.0298
   75CHL1    H6 6666   5.628   2.723   2.841 -1.2178 -1.6127  2.6863
   75CHL1    C7 6667   5.713   2.747   3.038  0.4469  0.0769 -0.4942
   75CHL1   H7A 6668   5.616   2.791   3.069  0.5624  0.4788 -0.6940
   75CHL1   H7B 6669   5.720   2.649   3.091 -0.0540  0.9680  1.3057
   75CHL1    C8 6670   5.831   2.832   3.096 -0.1833  0.2014 -0.3006
   75CHL1    H8 6671   5.821   2.937   3.061 -1.3094  0.2798  0.2122
   75CHL1   C14 6672   5.833   2.834   3.245  0.3212  0.5855 -1.0121
   75CHL1   H14 6673   5.837   2.726   3.271 -2.7663  1.2414  3.0836
   75CHL1   C15 6674   5.706   2.879   3.324  0.7474 -0.2970 -0.3930
   75CHL1  H15A 6675   5.673   2.980   3.292 -0.8561 -0.4085  0.8357
   75CHL1  H15B 6676   5.622   2.810   3.301 -0.2820  0.8100 -0.0459
   75CHL1   C16 6677   5.747   2.883   3.468 -0.5752  0.5362  0.7888
   75CHL1  H16A 6678   5.724   2.982   3.514  1.4625  0.5930  1.8000
   75CHL1  H16B 6679   5.700   2.796   3.520  1.0588 -0.4735  0.6529
   75CHL1   C17 6680   5.903   2.864   3.465  0.3946 -1.5434 -0.3301
   75CHL1   H17 6681   5.917   2.754   3.473  1.9656 -1.4898 -1.7478
   75CHL1   C13 6682   5.950   2.896   3.321  0.3425 -0.0485  0.2444
   75CHL1   C18 6683   5.950   3.053   3.303  0.2905 -0.1345  0.3885
   75CHL1  H18A 6684   5.854   3.099   3.333  0.9353  0.5094  1.5159
   75CHL1  H18B 6685   6.028   3.104   3.363 -0.1024  2.1522 -0.9246
   75CHL1  H18C 6686   5.959   3.081   3.196 -1.0228 -0.7535  0.0950
   75CHL1   C12 6687   6.080   2.845   3.271  0.8057  0.1376 -0.4550
   75CHL1  H12A 6688   6.155   2.911   3.320 -1.1259  0.7982  1.7862
   75CHL1  H12B 6689   6.097   2.738   3.295  0.6405 -0.3992 -2.5649
   75CHL1   C11 6690   6.081   2.856   3.118 -0.6287 -0.0563 -0.3525
   75CHL1  H11A 6691   6.080   2.963   3.089  0.3327 -0.1994 -0.9782
   75CHL1  H11B 6692   6.177   2.825   3.072  0.5151  0.9849  1.2064
   75CHL1    C9 6693   5.967   2.785   3.041  0.3997  0.5111 -0.5864
   75CHL1    H9 6694   5.968   2.679   3.072 -1.4297  0.6282 -0.0040
   75CHL1   C10 6695   5.981   2.785   2.886  0.2999  0.3580  0.0458
   75CHL1   C19 6696   6.016   2.931   2.843  0.4528 -0.1023  0.3942
   75CHL1  H19A 6697   6.114   2.958   2.889  0.0439 -1.2692  2.0226
   75CHL1  H19B 6698   6.036   2.943   2.735 -3.7660  0.5503 -0.4922
   75CHL1  H19C 6699   5.942   3.003   2.883  0.0659 -0.5098  0.4140
   75CHL1    C1 6700   6.086   2.678   2.844  0.0491  1.0594 -0.3371
   75CHL1   H1A 6701   6.187   2.705   2.880  0.5419 -0.3477 -0.6018
   75CHL1   H1B 6702   6.057   2.589   2.904 -0.3307  1.5654  0.2479
   75CHL1    C2 6703   6.086   2.647   2.694  0.1752 -0.6326 -0.2240
   75CHL1   H2A 6704   6.149   2.557   2.681  0.1498 -0.6823 -0.0107
   75CHL1   H2B 6705   6.122   2.734   2.635 -1.7282 -0.3299 -1.0047
   75CHL1   C20 6706   5.974   2.922   3.590 -0.1926 -0.0624 -0.4454
   75CHL1   H20 6707   5.965   3.033   3.582  2.8628  0.3153  0.0411
   75CHL1   C21 6708   6.118   2.879   3.592  0.3266  0.1328 -0.3956
   75CHL1  H21A 6709   6.174   2.945   3.522  0.1076 -0.8954 -1.5711
   75CHL1  H21B 6710   6.137   2.775   3.559 -0.6649 -0.3815  0.5975
   75CHL1  H21C 6711   6.160   2.897   3.693  0.0648  1.6283 -0.5238
   75CHL1   C22 6712   5.909   2.886   3.727  0.6023  0.6502  0.2466
   75CHL1  H22A 6713   5.800   2.871   3.717  0.4249  1.8124  0.3406
   75CHL1  H22B 6714   5.951   2.787   3.755 -2.3786 -0.8400 -0.1764
   75CHL1   C23 6715   5.936   2.993   3.832  0.6950 -0.1317  0.6552
   75CHL1  H23A 6716   6.046   3.011   3.834  1.0331 -1.9895  2.0427
   75CHL1  H23B 6717   5.887   3.089   3.806 -1.5491 -1.5155 -0.5071
   75CHL1   C24 6718   5.880   2.953   3.975 -0.5391 -0.3947 -0.0344
   75CHL1  H24A 6719   5.781   2.904   3.962 -0.2302 -0.9439 -0.3456
   75CHL1  H24B 6720   5.948   2.869   4.000 -1.9020 -1.0005  1.8292
   75CHL1   C25 6721   5.902   3.057   4.083 -0.0637 -0.1703  1.0418
   75CHL1   H25 6722   5.872   3.159   4.051 -0.5246 -0.8861 -0.9488
   75CHL1   C26 6723   5.802   3.048   4.196  0.0743 -0.7718 -0.3122
   75CHL1  H26A 6724   5.828   3.106   4.287 -1.6630  0.3232 -0.4683
   75CHL1  H26B 6725   5.697   3.074   4.172  0.5773  2.2452  0.4272
   75CHL1  H26C 6726   5.797   2.940   4.224 -1.8158 -0.8302 -0.7089
   75CHL1   C27 6727   6.044   3.046   4.146 -1.3062  0.8206  0.5231
   75CHL1  H27A 6728   6.125   3.073   4.074 -2.4442  0.2815 -1.0082
   75CHL1  H27B 6729   6.045   3.114   4.234 -0.6767  2.9592 -1.0376
   75CHL1  H27C 6730   6.063   2.945   4.187  0.0408  1.5104  1.7141
   76CHL1    C3 6731   4.960   4.725   2.817  0.3331  0.1806 -0.1386
   76CHL1    H3 6732   4.891   4.775   2.889  0.1246 -2.2922  1.5036
   76CHL1    O3 6733   4.936   4.753   2.682  0.0754 -0.2414  0.4903
   76CHL1   H3' 6734   4.969   4.683   2.625 -0.5540 -0.1265 -0.0289
   76CHL1    C4 6735   5.101   4.762   2.840 -0.3810 -0.6456 -0.0698
   76CHL1   H4A 6736   5.157   4.710   2.760  0.0429  0.9340 -0.8340
   76CHL1   H4B 6737   5.121   4.869   2.816  1.7970 -0.7969  0.8745
   76CHL1    C5 6738   5.146   4.727   2.977 -0.1120 -0.4571 -0.1335
   76CHL1    C6 6739   5.200   4.815   3.070  0.4233 -0.0631 -0.0714
   76CHL1    H6 6740   5.198   4.920   3.038  0.4677 -0.8316 -2.8996
   76CHL1    C7 6741   5.241   4.783   3.208 -0.8326 -0.4461  0.0456
   76CHL1   H7A 6742   5.344   4.821   3.226 -0.0530 -1.0388 -2.6333
   76CHL1   H7B 6743   5.163   4.827   3.273  0.0270  0.1809  0.6762
   76CHL1    C8 6744   5.251   4.634   3.241 -0.4084 -0.1311 -0.5528
   76CHL1    H8 6745   5.348   4.599   3.201  0.3635  2.0198 -0.6707
   76CHL1   C14 6746   5.237   4.616   3.387 -0.3816 -0.2012 -0.4986
   76CHL1   H14 6747   5.132   4.646   3.409 -0.5980 -0.7506 -0.7453
   76CHL1   C15 6748   5.316   4.704   3.485  0.1696  0.2937 -0.0244
   76CHL1  H15A 6749   5.421   4.709   3.451  0.1573 -0.5473 -0.2145
   76CHL1  H15B 6750   5.273   4.806   3.497  0.3141  0.2833  0.6210
   76CHL1   C16 6751   5.307   4.629   3.618  0.1567  0.0268  0.0175
   76CHL1  H16A 6752   5.411   4.608   3.652  0.2508 -1.3707 -1.0172
   76CHL1  H16B 6753   5.250   4.692   3.689  0.4567  0.4260 -0.0933
   76CHL1   C17 6754   5.231   4.495   3.587  0.8934 -0.0304 -0.2163
   76CHL1   H17 6755   5.126   4.527   3.602  1.3336  2.2571 -1.4879
   76CHL1   C13 6756   5.248   4.477   3.436 -0.0147 -0.0951 -0.2778
   76CHL1   C18 6757   5.391   4.423   3.404 -0.0120 -0.2032 -0.6092
   76CHL1  H18A 6758   5.404   4.321   3.446 -1.7822 -0.5248 -0.7555
   76CHL1  H18B 6759   5.403   4.421   3.293 -0.2567 -1.6929 -0.6258
   76CHL1  H18C 6760   5.472   4.484   3.450  0.9220 -2.4098  0.8469
   76CHL1   C12 6761   5.149   4.385   3.363 -0.2181  0.7529 -0.5440
   76CHL1  H12A 6762   5.159   4.278   3.393 -0.3907  1.2236  1.3232
   76CHL1  H12B 6763   5.049   4.417   3.399 -0.0337  1.9401 -1.0584
   76CHL1   C11 6764   5.150   4.399   3.213 -0.3051 -0.4319  0.7807
   76CHL1  H11A 6765   5.243   4.358   3.169 -0.0168 -0.9913  1.8890
   76CHL1  H11B 6766   5.069   4.335   3.172  1.7610 -0.8601 -3.1900
   76CHL1    C9 6767   5.145   4.550   3.174  0.3478 -1.1863 -0.8467
   76CHL1    H9 6768   5.053   4.594   3.218  0.2231 -2.1661 -0.0883
   76CHL1   C10 6769   5.125   4.580   3.020  0.6066 -0.2049 -0.1626
   76CHL1   C19 6770   5.239   4.494   2.943  0.3081 -0.6588  0.3017
   76CHL1  H19A 6771   5.217   4.387   2.960 -1.1943 -0.5401 -0.7558
   76CHL1  H19B 6772   5.227   4.516   2.835  1.7247 -0.7437  0.1023
   76CHL1  H19C 6773   5.340   4.526   2.975 -0.2528  0.9537  0.5549
   76CHL1    C1 6774   4.990   4.533   2.972  0.8972 -0.3962  0.0181
   76CHL1   H1A 6775   4.976   4.423   2.975 -0.7411 -0.1973  0.9081
   76CHL1   H1B 6776   4.909   4.576   3.035  0.3319  0.8578 -1.5013
   76CHL1    C2 6777   4.940   4.570   2.835 -0.3169  0.0965 -0.3246
   76CHL1   H2A 6778   4.836   4.532   2.822 -0.0355  0.0565 -3.1767
   76CHL1   H2B 6779   4.990   4.516   2.751  0.5575  1.5114 -0.7678
   76CHL1   C20 6780   5.250   4.384   3.690 -0.3311  0.3066  0.5690
   76CHL1   H20 6781   5.340   4.321   3.673 -0.7144  0.1708 -1.1736
   76CHL1   C21 6782   5.137   4.271   3.686 -0.1911 -0.0522 -0.1541
   76CHL1  H21A 6783   5.147   4.227   3.585  1.0831  0.0933 -0.1056
   76CHL1  H21B 6784   5.040   4.319   3.709 -0.7989 -1.0050 -0.6798
   76CHL1  H21C 6785   5.151   4.192   3.764 -1.9089  0.2665  0.5359
   76CHL1   C22 6786   5.266   4.429   3.843  0.2182  0.4376  0.4414
   76CHL1  H22A 6787   5.351   4.501   3.842  1.8971 -1.3416  3.1302
   76CHL1  H22B 6788   5.176   4.489   3.872  1.5077  2.0027  1.3755
   76CHL1   C23 6789   5.284   4.312   3.941 -0.4163  0.3395  0.1511
   76CHL1  H23A 6790   5.194   4.247   3.931 -1.0613  1.2469 -0.0424
   76CHL1  H23B 6791   5.374   4.249   3.925 -2.1603 -2.3263  0.0694
   76CHL1   C24 6792   5.289   4.377   4.080  0.0690 -0.2738 -0.1925
   76CHL1  H24A 6793   5.341   4.316   4.157  2.1243  2.2154  0.5626
   76CHL1  H24B 6794   5.345   4.473   4.069  1.1284 -0.8401  0.1048
   76CHL1   C25 6795   5.159   4.419   4.154  0.0791 -0.4241 -0.3520
   76CHL1   H25 6796   5.076   4.374   4.095  0.7969 -0.2775 -1.5177
   76CHL1   C26 6797   5.152   4.350   4.287  0.1126 -0.4588 -1.1590
   76CHL1  H26A 6798   5.230   4.395   4.352  0.4630  1.2627 -2.6639
   76CHL1  H26B 6799   5.052   4.367   4.332  1.7436  0.0337  2.6700
   76CHL1  H26C 6800   5.174   4.242   4.277  1.6160 -0.2460 -0.4784
   76CHL1   C27 6801   5.122   4.566   4.164  0.3544 -0.2425  0.3092
   76CHL1  H27A 6802   5.031   4.576   4.227 -0.5988 -0.3461 -1.0303
   76CHL1  H27B 6803   5.202   4.622   4.218  1.5873 -0.5095 -1.1735
   76CHL1  H27C 6804   5.105   4.610   4.063 -0.2294  0.1594  0.5733
   77SOPE     N 6805   2.304   4.418   6.229  0.5757  0.8865 -0.0547
   77SOPE   HN1 6806   2.354   4.505   6.202  0.9252  1.5480  2.4702
   77SOPE   HN2 6807   2.217   4.445   6.281  0.0467 -1.3188  0.3091
   77SOPE   HN3 6808   2.364   4.371   6.299 -2.7359  0.3860  2.7626
   77SOPE   C12 6809   2.263   4.331   6.117 -0.8275 -0.0524  0.0749
   77SOPE  H12A 6810   2.211   4.394   6.041  0.2494 -0.5752 -1.1311
   77SOPE  H12B 6811   2.186   4.269   6.167 -1.9472  0.5535 -0.8500
   77SOPE   C11 6812   2.370   4.230   6.067  0.4426 -0.4383  0.7026
   77SOPE  H11A 6813   2.457   4.292   6.037  0.0584 -1.1205 -2.1345
   77SOPE  H11B 6814   2.335   4.183   5.972  3.4587 -0.8025 -0.3248
   77SOPE     P 6815   2.514   4.140   6.277 -0.0346 -0.3224 -0.0687
   77SOPE   O13 6816   2.505   4.035   6.378  0.6678 -0.3298 -0.1057
   77SOPE   O14 6817   2.510   4.284   6.332 -0.4081 -0.0455  0.4749
   77SOPE   O12 6818   2.392   4.138   6.178 -0.0510 -0.1026 -1.0165
   77SOPE   O11 6819   2.637   4.108   6.194 -0.5361 -0.3746  0.2319
   77SOPE    C1 6820   2.670   3.982   6.133 -0.4179  0.3763 -0.1539
   77SOPE    HA 6821   2.643   3.892   6.192 -2.1365  0.1275 -1.2559
   77SOPE    HB 6822   2.779   3.965   6.145 -0.5489 -1.0270 -0.7329
   77SOPE    C2 6823   2.637   3.982   5.985  0.4550 -0.4918  0.4793
   77SOPE    HS 6824   2.527   3.997   5.990  0.7231  1.1987  1.9343
   77SOPE   O21 6825   2.682   3.860   5.925  0.7643  0.1119 -0.2105
   77SOPE   C21 6826   2.591   3.767   5.934  0.3728  1.1372  0.4924
   77SOPE   O22 6827   2.489   3.764   6.004  0.2987 -0.2052  0.2056
   77SOPE   C22 6828   2.640   3.640   5.853 -0.0624  0.0906  0.0529
   77SOPE   H2R 6829   2.585   3.549   5.884  0.3376 -0.2329 -0.1872
   77SOPE   H2S 6830   2.750   3.642   5.871 -0.1363 -1.6452  0.8887
   77SOPE    C3 6831   2.684   4.110   5.900 -0.6468 -0.0952  0.3883
   77SOPE    HX 6832   2.795   4.123   5.905 -0.5786  0.2385 -1.4735
   77SOPE    HY 6833   2.662   4.200   5.961  0.3047  0.0587  0.5243
   77SOPE   O31 6834   2.647   4.113   5.759 -0.2310 -0.5906 -0.0881
   77SOPE   C31 6835   2.550   4.199   5.728 -0.0219  0.0370 -0.0173
   77SOPE   O32 6836   2.501   4.287   5.796  0.0682 -0.0600 -0.1324
   77SOPE   C32 6837   2.493   4.163   5.590  0.8047  0.2800 -0.4022
   77SOPE   H2X 6838   2.421   4.082   5.614  0.3377  0.7623 -0.1561
   77SOPE   H2Y 6839   2.567   4.128   5.515  0.7814 -1.5615  0.3700
   77SOPE   C23 6840   2.614   3.650   5.705 -0.7939  0.1397 -0.4645
   77SOPE   H3R 6841   2.690   3.577   5.670  0.5350  1.2669 -0.0429
   77SOPE   H3S 6842   2.625   3.753   5.666  1.3720  0.0238 -0.2596
   77SOPE   C24 6843   2.484   3.589   5.654  0.6714  0.5474  0.5822
   77SOPE   H4R 6844   2.476   3.485   5.691 -1.0689  0.9775  1.5018
   77SOPE   H4S 6845   2.403   3.648   5.702  1.0514  1.4670  0.1217
   77SOPE   C25 6846   2.457   3.584   5.499  0.0671 -0.1116  1.1538
   77SOPE   H5R 6847   2.473   3.684   5.453 -0.2091 -1.0857 -1.1587
   77SOPE   H5S 6848   2.535   3.519   5.455  0.8875  0.3561  1.8764
   77SOPE   C26 6849   2.309   3.554   5.458 -1.3543 -0.0466 -0.5308
   77SOPE   H6R 6850   2.292   3.449   5.488  0.4909  0.5760  3.3757
   77SOPE   H6S 6851   2.241   3.620   5.516  1.7829  1.2046  1.9863
   77SOPE   C27 6852   2.280   3.560   5.307  0.2329 -0.4872 -0.0064
   77SOPE   H7R 6853   2.169   3.564   5.296  0.2768  2.5860 -0.1353
   77SOPE   H7S 6854   2.310   3.661   5.270  1.8191 -0.8895  0.1336
   77SOPE   C28 6855   2.356   3.462   5.219  0.4928  0.2073 -0.1416
   77SOPE   H8R 6856   2.466   3.479   5.222  0.1535  3.3302 -1.3279
   77SOPE   H8S 6857   2.341   3.366   5.271  1.0872 -0.2622 -0.8159
   77SOPE   C29 6858   2.305   3.436   5.083 -0.0451 -0.2664 -0.0673
   77SOPE   H91 6859   2.221   3.365   5.075 -0.8989  0.8312 -1.2058
   77SOPE  C210 6860   2.360   3.472   4.964 -0.3589 -0.3789  0.7637
   77SOPE  H101 6861   2.305   3.445   4.872  0.3666  0.1893  0.1448
   77SOPE  C211 6862   2.482   3.564   4.959 -0.2478  0.1963  0.2127
   77SOPE  H11R 6863   2.493   3.594   5.066 -1.5748 -0.8955  0.6905
   77SOPE  H11S 6864   2.462   3.661   4.907 -0.0862 -0.8458 -1.8800
   77SOPE  C212 6865   2.601   3.485   4.902  0.1392 -0.3670  0.5420
   77SOPE  H12R 6866   2.594   3.377   4.929 -0.7399 -0.1790  1.1137
   77SOPE  H12S 6867   2.688   3.532   4.953  1.6274 -2.0084 -0.3794
   77SOPE  C213 6868   2.622   3.495   4.746 -0.4773 -0.1087  0.1589
   77SOPE  H13R 6869   2.594   3.598   4.714 -0.9387  0.3380  1.8763
   77SOPE  H13S 6870   2.549   3.433   4.690 -0.6469  1.2909 -1.2694
   77SOPE  C214 6871   2.761   3.460   4.704  0.0817 -0.3127 -0.0060
   77SOPE  H14R 6872   2.770   3.352   4.728 -2.3716 -0.3515  1.0758
   77SOPE  H14S 6873   2.823   3.533   4.759 -0.0900  1.5885 -2.2039
   77SOPE  C215 6874   2.796   3.460   4.554  0.3728 -0.6274  0.1381
   77SOPE  H15R 6875   2.754   3.375   4.497  0.3616 -0.7006  0.2540
   77SOPE  H15S 6876   2.905   3.447   4.538  0.4829 -0.6594  0.8675
   77SOPE  C216 6877   2.765   3.597   4.494 -0.4186 -0.2907  0.6710
   77SOPE  H16R 6878   2.816   3.681   4.546 -0.3885  2.5798 -3.4516
   77SOPE  H16S 6879   2.658   3.613   4.516 -0.4355 -1.3678  1.4366
   77SOPE  C217 6880   2.790   3.601   4.348  0.0075 -0.1320  0.2443
   77SOPE  H17R 6881   2.893   3.563   4.329  0.7378  1.2568  1.2095
   77SOPE  H17S 6882   2.799   3.708   4.318  3.0354 -1.1087 -2.9816
   77SOPE  C218 6883   2.691   3.528   4.261 -0.6488  0.5842  0.4501
   77SOPE  H18R 6884   2.584   3.558   4.268 -1.0589  0.1663 -2.5402
   77SOPE  H18S 6885   2.702   3.417   4.268 -3.3230  0.1669 -0.6088
   77SOPE  H18T 6886   2.726   3.549   4.158 -1.4020 -0.3646 -0.0215
   77SOPE   C33 6887   2.414   4.275   5.520  0.5875  0.0369 -0.5054
   77SOPE   H3X 6888   2.334   4.315   5.586 -0.1132  0.4296 -1.5723
   77SOPE   H3Y 6889   2.347   4.223   5.448 -0.0974 -1.5144  1.1640
   77SOPE   C34 6890   2.494   4.388   5.462  0.1106 -1.0785 -0.0567
   77SOPE   H4X 6891   2.565   4.340   5.391  0.4924 -2.7715  1.3985
   77SOPE   H4Y 6892   2.552   4.427   5.547 -0.2048 -1.9722  0.5878
   77SOPE   C35 6893   2.408   4.498   5.399 -0.6609  0.3392 -0.3902
   77SOPE   H5X 6894   2.471   4.586   5.375 -1.5826  1.4212  0.9329
   77SOPE   H5Y 6895   2.336   4.536   5.475  2.0843  0.1827  2.4792
   77SOPE   C36 6896   2.336   4.452   5.271 -0.4939 -0.2590 -0.3089
   77SOPE   H6X 6897   2.274   4.539   5.242 -0.5508  0.2143  1.1298
   77SOPE   H6Y 6898   2.271   4.365   5.294  0.9756 -0.8108  2.2209
   77SOPE   C37 6899   2.425   4.409   5.152  0.3986 -0.4854 -0.1690
   77SOPE   H7X 6900   2.481   4.317   5.178 -0.7157 -0.6269  1.8706
   77SOPE   H7Y 6901   2.501   4.489   5.133 -0.1014  0.5095  1.7896
   77SOPE   C38 6902   2.337   4.379   5.033  0.7381 -0.4172  0.1115
   77SOPE   H8X 6903   2.267   4.464   5.023 -1.5419 -2.2977 -0.8006
   77SOPE   H8Y 6904   2.271   4.290   5.045 -1.2638  0.6059 -2.3965
   77SOPE   C39 6905   2.421   4.367   4.903  0.2689 -0.7674 -0.7130
   77SOPE   H9X 6906   2.493   4.451   4.910  0.6116 -1.1857  1.3285
   77SOPE   H9Y 6907   2.355   4.376   4.814  0.5821  0.3686 -0.8465
   77SOPE  C310 6908   2.501   4.234   4.900  0.0999  0.1570  1.0368
   77SOPE  H10X 6909   2.447   4.146   4.940 -2.6075  0.8952 -0.7364
   77SOPE  H10Y 6910   2.592   4.251   4.961  0.1770  2.5673  0.3706
   77SOPE  C311 6911   2.549   4.204   4.757 -0.4265 -0.6885 -0.1565
   77SOPE  H11X 6912   2.640   4.261   4.728  0.1291  1.0073  4.1734
   77SOPE  H11Y 6913   2.469   4.243   4.691 -3.8822 -0.7604  3.5966
   77SOPE  C312 6914   2.592   4.061   4.726  0.3670  0.6079  0.0721
   77SOPE  H12X 6915   2.606   4.061   4.615 -0.5595 -0.2780 -0.0596
   77SOPE  H12Y 6916   2.519   3.982   4.752  1.6336 -0.2242  1.2924
   77SOPE  C313 6917   2.732   4.032   4.787 -0.4177 -0.4199 -0.2691
   77SOPE  H13X 6918   2.716   4.032   4.897  0.3328  0.5697 -0.1504
   77SOPE  H13Y 6919   2.799   4.119   4.769 -0.6268  0.1068  1.3638
   77SOPE  C314 6920   2.803   3.904   4.740 -0.0408  0.0920  0.0237
   77SOPE  H14X 6921   2.794   3.899   4.630 -1.3767  1.6569  0.0362
   77SOPE  H14Y 6922   2.755   3.820   4.795  2.9154 -0.9342  1.2563
   77SOPE  C315 6923   2.952   3.904   4.780 -0.3486 -0.9632  0.4029
   77SOPE  H15X 6924   3.004   3.989   4.732  0.1700 -2.3025 -1.5322
   77SOPE  H15Y 6925   3.004   3.814   4.740  1.1927  0.6687 -1.4407
   77SOPE  C316 6926   2.987   3.897   4.927 -0.8486 -0.3500 -0.3706
   77SOPE  H16X 6927   2.958   3.798   4.969  0.1856  0.3226  2.1116
   77SOPE  H16Y 6928   2.943   3.984   4.980  0.8197  2.1125 -2.7557
   77SOPE  C317 6929   3.145   3.907   4.941  0.0795  0.4576  0.2484
   77SOPE  H17X 6930   3.183   3.999   4.892  0.8118  0.0568  0.0443
   77SOPE  H17Y 6931   3.185   3.824   4.880 -1.1741  0.5255 -0.7080
   77SOPE  C318 6932   3.188   3.879   5.085 -0.1381 -1.1365 -0.4672
   77SOPE  H18X 6933   3.143   3.955   5.153  1.4478  1.6611 -2.3288
   77SOPE  H18Y 6934   3.298   3.888   5.090 -0.2937  1.9957 -0.8670
   77SOPE  H18Z 6935   3.165   3.772   5.104  1.4967 -1.3905  0.2710
   78SOPE     N 6936   1.852   3.264   6.367  0.2054 -0.3136 -0.3992
   78SOPE   HN1 6937   1.805   3.352   6.399  0.6304 -0.0980 -0.3564
   78SOPE   HN2 6938   1.800   3.175   6.365  1.9085 -1.3515 -1.3703
   78SOPE   HN3 6939   1.927   3.256   6.439  0.7878  0.9190 -0.8274
   78SOPE   C12 6940   1.914   3.283   6.231  0.3073  0.0979 -0.2656
   78SOPE  H12A 6941   1.935   3.392   6.235 -0.3171  0.3012 -1.8275
   78SOPE  H12B 6942   1.842   3.250   6.154 -0.5245 -2.2816  1.4059
   78SOPE   C11 6943   2.039   3.195   6.226  0.2114 -0.2171 -0.4671
   78SOPE  H11A 6944   2.077   3.214   6.124  0.0018 -0.4566 -0.5889
   78SOPE  H11B 6945   2.009   3.089   6.238  0.6142 -0.7959 -3.7300
   78SOPE     P 6946   2.231   3.140   6.404  0.4354 -0.1597 -0.5537
   78SOPE   O13 6947   2.162   3.021   6.459  0.7614 -0.1249  0.1604
   78SOPE   O14 6948   2.316   3.222   6.496 -0.3838 -0.1951  0.0179
   78SOPE   O12 6949   2.128   3.235   6.330 -0.6243  0.4757 -0.1244
   78SOPE   O11 6950   2.329   3.091   6.292 -0.0104 -0.1344  0.1018
   78SOPE    C1 6951   2.390   3.188   6.205  0.1729 -1.1749  0.1393
   78SOPE    HA 6952   2.436   3.268   6.268  0.4588  0.2923 -1.8487
   78SOPE    HB 6953   2.311   3.239   6.146  0.6064  3.0415  2.7173
   78SOPE    C2 6954   2.490   3.134   6.098  0.1499 -0.0162 -0.1727
   78SOPE    HS 6955   2.525   3.220   6.037 -1.0341 -0.1680 -1.1174
   78SOPE   O21 6956   2.426   3.034   6.015  0.3406 -0.8834 -0.1439
   78SOPE   C21 6957   2.369   3.088   5.908 -0.0574  0.6066  0.0865
   78SOPE   O22 6958   2.370   3.202   5.867  0.6873  0.7034 -0.0722
   78SOPE   C22 6959   2.305   2.973   5.830 -0.0620  0.0513 -0.7108
   78SOPE   H2R 6960   2.200   2.953   5.858 -0.3890 -1.3465 -2.7467
   78SOPE   H2S 6961   2.360   2.880   5.859  0.1173  0.3620 -0.0159
   78SOPE    C3 6962   2.611   3.068   6.166 -0.1489  0.5837  0.9921
   78SOPE    HX 6963   2.587   2.995   6.245 -1.1825 -0.2806 -0.0888
   78SOPE    HY 6964   2.677   3.146   6.210  0.6977 -0.0904  0.9400
   78SOPE   O31 6965   2.696   3.010   6.060 -0.6151  0.6451 -0.3295
   78SOPE   C31 6966   2.696   2.879   6.059  0.6604 -0.1351 -0.5939
   78SOPE   O32 6967   2.621   2.801   6.120  0.5952 -0.0149 -0.3304
   78SOPE   C32 6968   2.790   2.836   5.951  0.5418 -0.4865  0.4219
   78SOPE   H2X 6969   2.848   2.750   5.991 -0.2202 -1.4648 -0.5021
   78SOPE   H2Y 6970   2.861   2.920   5.933 -2.8496  2.4881 -0.1897
   78SOPE   C23 6971   2.317   2.986   5.684  0.1001 -0.1061  0.5077
   78SOPE   H3R 6972   2.421   3.023   5.667 -0.5713  1.7429  0.2577
   78SOPE   H3S 6973   2.255   3.071   5.649  0.9959  0.1785 -0.4651
   78SOPE   C24 6974   2.289   2.853   5.602 -0.5885 -0.4481 -0.6319
   78SOPE   H4R 6975   2.342   2.771   5.654 -0.3613  0.4243  0.5800
   78SOPE   H4S 6976   2.184   2.821   5.620 -0.1053 -0.5415  2.6363
   78SOPE   C25 6977   2.316   2.858   5.450  0.4063 -0.1124  0.1804
   78SOPE   H5R 6978   2.426   2.848   5.436  0.5170 -0.7141  1.3766
   78SOPE   H5S 6979   2.270   2.767   5.406  0.0876 -0.8779  2.0080
   78SOPE   C26 6980   2.257   2.981   5.376  0.2101  0.0505  0.2132
   78SOPE   H6R 6981   2.159   3.003   5.424  0.9931  0.1398  1.8348
   78SOPE   H6S 6982   2.327   3.067   5.387 -0.4042  0.5662  0.1923
   78SOPE   C27 6983   2.251   2.968   5.212  0.3336 -0.5475 -1.5730
   78SOPE   H7R 6984   2.175   2.887   5.199 -2.9987  1.7856  1.5135
   78SOPE   H7S 6985   2.223   3.064   5.164  0.3429  1.0525  1.4126
   78SOPE   C28 6986   2.380   2.910   5.151  0.4025 -0.5570 -0.6075
   78SOPE   H8R 6987   2.416   2.816   5.200 -1.1335 -0.8287  0.0368
   78SOPE   H8S 6988   2.349   2.872   5.051 -0.0075 -0.7664 -0.4011
   78SOPE   C29 6989   2.490   3.013   5.143 -1.4976 -0.4077  0.3934
   78SOPE   H91 6990   2.528   3.055   5.237 -0.3037  2.2423 -1.1583
   78SOPE  C210 6991   2.540   3.045   5.025 -0.6145  0.1082  0.3059
   78SOPE  H101 6992   2.620   3.121   5.015  0.6326 -1.2222 -0.1975
   78SOPE  C211 6993   2.506   2.991   4.886  0.7235 -0.3580 -0.5448
   78SOPE  H11R 6994   2.397   2.976   4.873  0.6971  0.7037 -1.7084
   78SOPE  H11S 6995   2.555   2.893   4.868  1.5339 -0.1967  0.6867
   78SOPE  C212 6996   2.539   3.089   4.783  0.1009  0.0634 -0.1451
   78SOPE  H12R 6997   2.648   3.107   4.785 -0.2988  2.8888  0.2371
   78SOPE  H12S 6998   2.492   3.187   4.804  1.1448  0.1700  1.9282
   78SOPE  C213 6999   2.506   3.047   4.642  0.1040  0.0562 -0.2326
   78SOPE  H13R 7000   2.561   3.119   4.578  0.5112 -0.1081 -0.0715
   78SOPE  H13S 7001   2.395   3.044   4.632  0.0477 -1.6976  0.4531
   78SOPE  C214 7002   2.564   2.909   4.602  0.8484 -0.6138  0.1427
   78SOPE  H14R 7003   2.496   2.828   4.634  0.8929 -1.5174 -1.9242
   78SOPE  H14S 7004   2.665   2.891   4.646  1.4620 -0.9030 -1.3209
   78SOPE  C215 7005   2.562   2.883   4.447  0.5735 -0.4766  0.4722
   78SOPE  H15R 7006   2.637   2.946   4.394 -1.1583  0.4138 -1.0526
   78SOPE  H15S 7007   2.468   2.909   4.393  1.8323  3.0493 -0.3100
   78SOPE  C216 7008   2.592   2.744   4.410 -0.2006  0.0056  0.0441
   78SOPE  H16R 7009   2.602   2.739   4.300 -1.5254  1.3148 -0.1517
   78SOPE  H16S 7010   2.505   2.676   4.424 -0.3231 -0.2767 -1.8785
   78SOPE  C217 7011   2.726   2.680   4.468  0.1337 -0.4205  0.3703
   78SOPE  H17R 7012   2.700   2.651   4.572  3.1847  0.0562  1.3632
   78SOPE  H17S 7013   2.807   2.756   4.471  0.5345 -0.8390  0.2858
   78SOPE  C218 7014   2.775   2.556   4.390  0.8470 -0.5606 -0.2479
   78SOPE  H18R 7015   2.829   2.482   4.453 -2.2158 -1.0582  2.0182
   78SOPE  H18S 7016   2.824   2.585   4.295 -1.5841  1.3279 -1.0309
   78SOPE  H18T 7017   2.687   2.496   4.360  0.4307 -0.4389  0.6814
   78SOPE   C33 7018   2.727   2.796   5.816  0.7034 -0.8883 -0.7806
   78SOPE   H3X 7019   2.661   2.883   5.794 -0.2724 -0.7075  2.4114
   78SOPE   H3Y 7020   2.658   2.715   5.847 -0.2005  1.0526  2.8619
   78SOPE   C34 7021   2.815   2.762   5.692 -0.2290 -0.0926 -0.7235
   78SOPE   H4X 7022   2.885   2.678   5.712 -0.5347  0.2221  2.1575
   78SOPE   H4Y 7023   2.868   2.858   5.673 -0.5121  0.5943  1.6690
   78SOPE   C35 7024   2.729   2.741   5.568  0.0099  0.0766  0.6640
   78SOPE   H5X 7025   2.638   2.805   5.559  0.8422  1.0191 -2.0544
   78SOPE   H5Y 7026   2.706   2.633   5.560  1.7960 -0.3647  1.2395
   78SOPE   C36 7027   2.806   2.765   5.434 -0.3414 -0.0136  0.0510
   78SOPE   H6X 7028   2.896   2.701   5.439 -0.1952  0.1784 -0.0974
   78SOPE   H6Y 7029   2.840   2.871   5.426  1.7572 -0.7259 -1.5326
   78SOPE   C37 7030   2.720   2.739   5.310 -0.2899 -0.4992 -0.7452
   78SOPE   H7X 7031   2.640   2.815   5.314  1.3964  1.3066  0.3755
   78SOPE   H7Y 7032   2.679   2.636   5.306 -1.9161  0.1525 -2.2255
   78SOPE   C38 7033   2.810   2.767   5.189  0.5390  0.4427 -0.2409
   78SOPE   H8X 7034   2.918   2.744   5.199  0.2282 -2.0232 -1.6755
   78SOPE   H8Y 7035   2.798   2.876   5.171 -0.6445  0.4118  0.2151
   78SOPE   C39 7036   2.753   2.690   5.068 -0.2882  0.4205  0.8190
   78SOPE   H9X 7037   2.642   2.697   5.065 -0.2826  1.2290  1.9018
   78SOPE   H9Y 7038   2.779   2.582   5.075  0.0603  0.5604  1.7264
   78SOPE  C310 7039   2.809   2.732   4.929  0.0231 -0.0868 -0.1407
   78SOPE  H10X 7040   2.780   2.839   4.922  0.5653  0.1410  0.8109
   78SOPE  H10Y 7041   2.755   2.674   4.851 -1.7945  1.7201 -0.2900
   78SOPE  C311 7042   2.958   2.709   4.918  0.0532  0.8021  0.0188
   78SOPE  H11X 7043   2.985   2.603   4.936 -0.5482  0.3511 -1.5850
   78SOPE  H11Y 7044   3.013   2.778   4.985  0.7613  0.7899 -0.5321
   78SOPE  C312 7045   3.027   2.747   4.786  0.1461 -0.3900 -0.2494
   78SOPE  H12X 7046   3.014   2.663   4.715 -0.3885 -0.1539 -0.4405
   78SOPE  H12Y 7047   3.136   2.749   4.806  0.4448  0.6558 -1.8067
   78SOPE  C313 7048   2.965   2.882   4.733 -0.2146 -1.4234 -0.3243
   78SOPE  H13X 7049   2.967   2.951   4.820  0.2341 -1.7893 -0.0422
   78SOPE  H13Y 7050   2.861   2.854   4.705 -0.2574  0.0483 -1.8632
   78SOPE  C314 7051   3.030   2.936   4.599 -0.0876  0.8252  0.0671
   78SOPE  H14X 7052   3.022   2.857   4.522  0.3147 -1.1989  2.0093
   78SOPE  H14Y 7053   3.138   2.958   4.615  0.0735  1.0907 -1.3227
   78SOPE  C315 7054   2.964   3.053   4.534 -0.3054 -0.2888  0.3313
   78SOPE  H15X 7055   2.957   3.138   4.606 -0.0418 -0.2729  0.3384
   78SOPE  H15Y 7056   2.859   3.042   4.499  0.2228  0.2236 -1.5289
   78SOPE  C316 7057   3.057   3.103   4.417  0.0548  0.0108  0.3888
   78SOPE  H16X 7058   3.086   3.014   4.357 -2.6556 -2.5305  2.4879
   78SOPE  H16Y 7059   3.146   3.146   4.467 -0.4764  1.1700  0.3670
   78SOPE  C317 7060   3.011   3.220   4.333  0.2138  1.0314  0.5369
   78SOPE  H17X 7061   3.097   3.266   4.279  0.9568 -0.0918  0.7353
   78SOPE  H17Y 7062   2.974   3.301   4.400  0.4252  0.2515  1.6228
   78SOPE  C318 7063   2.895   3.183   4.236 -0.1042  0.4102 -1.2396
   78SOPE  H18X 7064   2.795   3.175   4.284 -0.8509  1.3002 -2.5759
   78SOPE  H18Y 7065   2.910   3.079   4.202  1.1566 -0.5207  1.8178
   78SOPE  H18Z 7066   2.897   3.251   4.148  1.6957  1.5503 -0.3715
   79SOPE     N 7067   2.335   0.157   6.584  0.5100  0.5006  0.6718
   79SOPE   HN1 7068   2.296   0.087   6.517 -1.7996  1.3182  1.0771
   79SOPE   HN2 7069   2.417   0.117   6.634  1.7266  0.5972 -1.1566
   79SOPE   HN3 7070   2.254   0.178   6.647 -1.2847 -0.0858 -1.3103
   79SOPE   C12 7071   2.369   0.286   6.517  0.2489  0.1638 -0.4426
   79SOPE  H12A 7072   2.444   0.343   6.576 -0.6079 -0.6691  1.5378
   79SOPE  H12B 7073   2.280   0.353   6.520  0.2386  0.1193  1.4323
   79SOPE   C11 7074   2.421   0.262   6.373  0.4037 -0.0923 -0.8259
   79SOPE  H11A 7075   2.410   0.352   6.310 -0.1104  0.4484  0.0112
   79SOPE  H11B 7076   2.341   0.194   6.339  0.2816 -0.6282  0.4705
   79SOPE     P 7077   2.679   0.309   6.372  0.0673  0.1179 -0.1132
   79SOPE   O13 7078   2.730   0.295   6.515  0.3036  0.2234  0.2359
   79SOPE   O14 7079   2.640   0.445   6.326  0.0314 -0.1656  0.5028
   79SOPE   O12 7080   2.558   0.209   6.369  0.2817  0.4361 -0.6282
   79SOPE   O11 7081   2.784   0.237   6.270  0.2084  0.2140 -0.0136
   79SOPE    C1 7082   2.751   0.216   6.133  0.5964 -0.0652  0.1947
   79SOPE    HA 7083   2.643   0.189   6.128  0.5995 -0.4536  1.8317
   79SOPE    HB 7084   2.807   0.135   6.081 -0.1250 -0.2618 -0.2879
   79SOPE    C2 7085   2.777   0.341   6.044  0.6027  0.0022  0.6148
   79SOPE    HS 7086   2.691   0.409   6.064  0.8254  0.3145  0.5131
   79SOPE   O21 7087   2.789   0.298   5.903 -0.0447 -0.0803  0.5700
   79SOPE   C21 7088   2.673   0.266   5.851 -0.1475  0.0067  0.3053
   79SOPE   O22 7089   2.568   0.293   5.904 -0.3676 -0.0174  0.1000
   79SOPE   C22 7090   2.680   0.201   5.711  0.3338 -0.5694  0.1632
   79SOPE   H2R 7091   2.716   0.098   5.728  0.4119  0.0895  5.4631
   79SOPE   H2S 7092   2.742   0.270   5.649 -1.6754  0.1704 -1.1381
   79SOPE    C3 7093   2.911   0.418   6.078  0.0836  0.0926 -0.2643
   79SOPE    HX 7094   2.999   0.354   6.058  0.5569  0.3688  0.8801
   79SOPE    HY 7095   2.911   0.434   6.188 -2.6538  2.6355 -0.4872
   79SOPE   O31 7096   2.906   0.552   6.022  0.2773  0.5233  0.1295
   79SOPE   C31 7097   3.020   0.579   5.957  0.3997 -0.9208  0.1561
   79SOPE   O32 7098   3.116   0.504   5.938  0.3341 -0.6522  0.2510
   79SOPE   C32 7099   3.015   0.722   5.901 -0.1819 -0.7077  0.7357
   79SOPE   H2X 7100   3.098   0.778   5.949 -0.1857  0.6967 -0.7987
   79SOPE   H2Y 7101   2.912   0.764   5.906 -0.7911 -1.8856 -0.9796
   79SOPE   C23 7102   2.544   0.188   5.638 -0.0725  0.9648 -0.2141
   79SOPE   H3R 7103   2.519   0.286   5.594  0.0347  0.0040 -2.5760
   79SOPE   H3S 7104   2.462   0.153   5.704  0.8198 -0.6160  0.1240
   79SOPE   C24 7105   2.571   0.084   5.528  0.1530 -0.2782 -0.1726
   79SOPE   H4R 7106   2.583  -0.017   5.573 -1.0651 -0.2472  0.2530
   79SOPE   H4S 7107   2.478   0.075   5.468 -1.9765 -1.0446  2.9521
   79SOPE   C25 7108   2.695   0.118   5.438 -0.3965  0.0559 -0.4308
   79SOPE   H5R 7109   2.800   0.112   5.475 -0.1866  2.8120 -0.3595
   79SOPE   H5S 7110   2.692   0.038   5.361  1.2911 -0.1704 -0.2965
   79SOPE   C26 7111   2.677   0.253   5.372 -0.0771 -0.5939 -0.5561
   79SOPE   H6R 7112   2.585   0.258   5.310 -1.2223  0.0031  1.1320
   79SOPE   H6S 7113   2.657   0.329   5.450 -0.5628  0.6025 -1.8051
   79SOPE   C27 7114   2.791   0.297   5.282  0.1877  0.3581 -0.1518
   79SOPE   H7R 7115   2.786   0.407   5.268  2.0410  0.4070 -0.7436
   79SOPE   H7S 7116   2.889   0.273   5.329  0.7000 -0.1715 -1.4437
   79SOPE   C28 7117   2.785   0.229   5.148 -0.5730  0.0050  0.6852
   79SOPE   H8R 7118   2.786   0.118   5.155  0.0904 -0.1894 -1.7294
   79SOPE   H8S 7119   2.691   0.263   5.100  0.1806 -0.9104 -1.5589
   79SOPE   C29 7120   2.896   0.269   5.049  0.0066 -0.1142 -0.5853
   79SOPE   H91 7121   2.980   0.314   5.104 -1.3104  0.2747  1.1982
   79SOPE  C210 7122   2.891   0.263   4.916 -0.8043 -0.5291  0.8651
   79SOPE  H101 7123   2.982   0.299   4.865 -0.2997 -1.6096  0.9817
   79SOPE  C211 7124   2.779   0.211   4.833  0.2758 -0.4514  0.4784
   79SOPE  H11R 7125   2.724   0.294   4.783  1.8575 -0.0931 -0.7363
   79SOPE  H11S 7126   2.705   0.164   4.902  0.1593 -0.1166  0.5818
   79SOPE  C212 7127   2.828   0.111   4.724 -0.0403  0.6765  0.6290
   79SOPE  H12R 7128   2.867   0.019   4.773  0.9498 -1.2420 -3.2767
   79SOPE  H12S 7129   2.914   0.148   4.664  0.9398  0.1683  1.6913
   79SOPE  C213 7130   2.714   0.059   4.637  0.0816  0.0563  0.6378
   79SOPE  H13R 7131   2.713   0.118   4.544  2.4086 -1.4753 -0.4554
   79SOPE  H13S 7132   2.626   0.088   4.698 -0.2457  2.0944 -0.7065
   79SOPE  C214 7133   2.724  -0.090   4.607  0.4363  0.0024  0.2065
   79SOPE  H14R 7134   2.757  -0.134   4.703  2.0186  3.0034  1.1507
   79SOPE  H14S 7135   2.800  -0.103   4.527 -0.5321 -1.7962 -0.4655
   79SOPE  C215 7136   2.601  -0.152   4.542  0.2729  0.5227  0.3244
   79SOPE  H15R 7137   2.635  -0.240   4.484 -2.1899 -0.4540  0.2106
   79SOPE  H15S 7138   2.571  -0.083   4.460 -0.5588 -3.0384 -2.6456
   79SOPE  C216 7139   2.479  -0.171   4.637 -0.2457  0.0708 -0.2623
   79SOPE  H16R 7140   2.390  -0.179   4.570  1.5195  0.2632 -2.7582
   79SOPE  H16S 7141   2.464  -0.090   4.712 -2.7155 -0.3591 -0.1853
   79SOPE  C217 7142   2.487  -0.302   4.713  0.2176 -0.1754 -0.6358
   79SOPE  H17R 7143   2.571  -0.295   4.785 -0.8978  1.8417  0.5438
   79SOPE  H17S 7144   2.512  -0.381   4.638  1.2013  1.7288 -2.4075
   79SOPE  C218 7145   2.364  -0.351   4.786 -0.2660 -0.3439  0.0061
   79SOPE  H18R 7146   2.316  -0.264   4.836  0.7789  0.4037 -0.2486
   79SOPE  H18S 7147   2.376  -0.440   4.852 -1.3314  0.6498  1.6230
   79SOPE  H18T 7148   2.297  -0.381   4.703  0.9388  0.3220 -1.2522
   79SOPE   C33 7149   3.055   0.716   5.749  0.4692 -0.1910 -0.5468
   79SOPE   H3X 7150   2.973   0.662   5.696  1.3487 -2.2467  0.1242
   79SOPE   H3Y 7151   3.145   0.652   5.754  1.8850  1.8014  1.8628
   79SOPE   C34 7152   3.074   0.849   5.681  0.2029 -0.0961  0.5525
   79SOPE   H4X 7153   3.138   0.912   5.747 -1.7319  3.3373 -0.5857
   79SOPE   H4Y 7154   2.974   0.897   5.677 -1.4787 -3.3802 -1.0992
   79SOPE   C35 7155   3.115   0.853   5.530 -0.4472 -0.6537  1.0353
   79SOPE   H5X 7156   3.219   0.815   5.523 -0.3602 -0.1376 -1.3685
   79SOPE   H5Y 7157   3.118   0.954   5.484 -2.4708 -1.0915 -0.1876
   79SOPE   C36 7158   3.018   0.782   5.433 -0.0458  0.3297  0.3130
   79SOPE   H6X 7159   2.924   0.841   5.433  0.1477  0.6419  0.1794
   79SOPE   H6Y 7160   2.992   0.682   5.474 -1.2566 -0.0100 -1.2339
   79SOPE   C37 7161   3.076   0.767   5.286 -0.1389 -0.7583  0.4663
   79SOPE   H7X 7162   3.151   0.689   5.312  0.2760  0.2274  2.4361
   79SOPE   H7Y 7163   3.123   0.864   5.258  2.0144 -1.7670  0.3438
   79SOPE   C38 7164   2.983   0.718   5.175  0.3130 -0.1221  0.2186
   79SOPE   H8X 7165   2.897   0.787   5.170  0.1155 -0.3805  0.0130
   79SOPE   H8Y 7166   2.934   0.621   5.199 -1.0906  0.1453 -1.4357
   79SOPE   C39 7167   3.065   0.696   5.045 -0.5087 -0.2273  0.6660
   79SOPE   H9X 7168   3.159   0.639   5.062  1.1466  2.0574 -0.2348
   79SOPE   H9Y 7169   3.093   0.796   5.003 -2.6958 -1.2769 -3.9103
   79SOPE  C310 7170   2.981   0.633   4.926  0.1153  0.2756  0.6695
   79SOPE  H10X 7171   2.913   0.711   4.885  0.1854  0.0556  0.1347
   79SOPE  H10Y 7172   2.911   0.561   4.973 -1.2268  1.3234  0.3502
   79SOPE  C311 7173   3.056   0.576   4.801  0.3679 -0.2500 -0.9010
   79SOPE  H11X 7174   3.116   0.487   4.829  0.2535  0.2993  1.3253
   79SOPE  H11Y 7175   3.128   0.650   4.762 -0.8948  0.6955 -1.4982
   79SOPE  C312 7176   2.966   0.562   4.688 -0.7028 -0.3477  0.5871
   79SOPE  H12X 7177   2.909   0.657   4.680  2.9675  2.0263  0.5467
   79SOPE  H12Y 7178   2.893   0.481   4.705 -0.3831 -0.5561  0.9644
   79SOPE  C313 7179   3.027   0.546   4.546  0.4702 -0.5405 -0.1954
   79SOPE  H13X 7180   3.102   0.466   4.563  0.9349  0.0543  0.6700
   79SOPE  H13Y 7181   3.081   0.639   4.519  1.4198 -0.3440  2.1171
   79SOPE  C314 7182   2.935   0.513   4.429  1.0554  0.3653 -0.1397
   79SOPE  H14X 7183   2.872   0.426   4.459  0.8628  0.2237 -0.9194
   79SOPE  H14Y 7184   3.000   0.474   4.347  1.1408 -0.9243  0.5168
   79SOPE  C315 7185   2.850   0.627   4.373 -0.4517  0.0247 -0.8112
   79SOPE  H15X 7186   2.926   0.692   4.325 -1.1979  1.8214  0.3298
   79SOPE  H15Y 7187   2.820   0.684   4.463  3.2529  1.9790 -0.6101
   79SOPE  C316 7188   2.734   0.598   4.284  0.5748  0.1747 -0.6080
   79SOPE  H16X 7189   2.686   0.500   4.305  2.0854 -0.4583  0.0204
   79SOPE  H16Y 7190   2.760   0.585   4.177 -0.2574  1.6166 -1.0059
   79SOPE  C317 7191   2.639   0.718   4.289 -1.0908  0.1843 -0.0227
   79SOPE  H17X 7192   2.639   0.767   4.389 -1.8509 -0.0539  0.1005
   79SOPE  H17Y 7193   2.540   0.667   4.287 -0.8247 -0.3446  0.1364
   79SOPE  C318 7194   2.658   0.820   4.181  0.0439  0.3568  0.0215
   79SOPE  H18X 7195   2.582   0.901   4.186 -0.5650 -0.1551 -0.5924
   79SOPE  H18Y 7196   2.660   0.768   4.082 -1.0096  0.0807  0.1396
   79SOPE  H18Z 7197   2.754   0.875   4.185  0.4833 -0.4549  1.0623
   80SOPE     N 7198   1.732   2.373   6.555  0.3438 -0.0937 -0.8605
   80SOPE   HN1 7199   1.677   2.462   6.549  0.5542  0.0209 -1.1058
   80SOPE   HN2 7200   1.669   2.301   6.595 -0.9408  2.0488  1.2638
   80SOPE   HN3 7201   1.815   2.387   6.615  0.0175 -0.8152 -0.2290
   80SOPE   C12 7202   1.784   2.332   6.420  0.1163 -0.0989 -0.1949
   80SOPE  H12A 7203   1.853   2.411   6.384  0.5200 -0.2572  0.2075
   80SOPE  H12B 7204   1.706   2.345   6.342  0.4644  0.5711 -0.4435
   80SOPE   C11 7205   1.858   2.192   6.410  0.4581 -0.1227 -0.4836
   80SOPE  H11A 7206   1.936   2.183   6.488  0.9716 -1.2590 -1.1030
   80SOPE  H11B 7207   1.903   2.181   6.309 -0.3122  1.1929 -0.9949
   80SOPE     P 7208   1.694   2.010   6.326 -0.0293 -0.6857  0.5420
   80SOPE   O13 7209   1.657   2.105   6.223  0.0273  0.7708 -0.3269
   80SOPE   O14 7210   1.573   1.939   6.377 -0.4820 -0.4239  0.5469
   80SOPE   O12 7211   1.771   2.081   6.443 -0.3396  0.5196  0.0660
   80SOPE   O11 7212   1.794   1.906   6.271  0.3154  0.0418  0.0127
   80SOPE    C1 7213   1.929   1.875   6.306  0.4454 -0.5380 -0.1101
   80SOPE    HA 7214   1.923   1.802   6.390  0.0187 -1.1440 -0.6560
   80SOPE    HB 7215   1.985   1.964   6.342 -1.3906  0.3769  0.5618
   80SOPE    C2 7216   2.003   1.797   6.196  0.7715 -0.0172  0.4761
   80SOPE    HS 7217   2.103   1.775   6.238  0.3169  0.1042  1.6789
   80SOPE   O21 7218   2.013   1.870   6.071  0.6400  0.4679  0.3053
   80SOPE   C21 7219   2.069   1.991   6.082  0.3755 -0.0671  0.4610
   80SOPE   O22 7220   2.152   2.020   6.164  0.4165 -0.0706  0.3139
   80SOPE   C22 7221   2.026   2.076   5.965  0.2004  0.3371 -0.7212
   80SOPE   H2R 7222   2.075   2.175   5.953 -0.0108  0.5696  0.3209
   80SOPE   H2S 7223   1.915   2.081   5.964  0.0876 -1.2595 -2.0322
   80SOPE    C3 7224   1.930   1.662   6.174  0.7666  0.2271  0.5001
   80SOPE    HX 7225   1.821   1.685   6.164  0.9177  1.8913  2.1930
   80SOPE    HY 7226   1.937   1.591   6.259  0.2763 -0.7855 -0.2786
   80SOPE   O31 7227   1.989   1.601   6.055 -0.4089 -0.0901 -0.5234
   80SOPE   C31 7228   1.923   1.612   5.939 -0.7253  0.1049  0.0433
   80SOPE   O32 7229   1.817   1.667   5.925  0.3497  0.1984 -0.0040
   80SOPE   C32 7230   2.016   1.572   5.825  0.2625 -0.0295 -0.4422
   80SOPE   H2X 7231   2.045   1.466   5.842 -0.0537 -0.3866 -1.9875
   80SOPE   H2Y 7232   2.104   1.637   5.845 -0.5270  0.0879  3.2308
   80SOPE   C23 7233   2.076   2.014   5.829  0.5343 -0.6917 -0.3786
   80SOPE   H3R 7234   2.075   1.903   5.832 -0.3150 -0.6835 -0.1741
   80SOPE   H3S 7235   2.183   2.040   5.818  0.5666 -1.3553 -1.7308
   80SOPE   C24 7236   2.010   2.066   5.698 -0.6004 -0.7877 -0.3897
   80SOPE   H4R 7237   1.900   2.050   5.691 -0.6460 -0.8026  0.3192
   80SOPE   H4S 7238   2.039   2.173   5.702  0.4679 -1.0094 -1.6441
   80SOPE   C25 7239   2.078   1.981   5.585 -0.0780  0.3956 -0.4253
   80SOPE   H5R 7240   2.179   2.026   5.583 -0.2012  1.2854  4.1077
   80SOPE   H5S 7241   2.088   1.880   5.630 -3.4616 -0.6218 -1.5800
   80SOPE   C26 7242   1.985   1.976   5.463 -0.0204 -0.8365 -0.2610
   80SOPE   H6R 7243   1.899   1.907   5.465 -1.0079  0.1839 -2.6496
   80SOPE   H6S 7244   1.944   2.078   5.444  0.0688 -0.6809  0.3629
   80SOPE   C27 7245   2.072   1.953   5.335 -0.6762  0.1725  0.1818
   80SOPE   H7R 7246   2.160   2.020   5.334 -0.7201  0.4161  3.2242
   80SOPE   H7S 7247   2.112   1.849   5.337 -3.0111 -0.8432 -0.9166
   80SOPE   C28 7248   1.992   1.966   5.205  0.5435 -0.0225 -0.5440
   80SOPE   H8R 7249   1.903   1.903   5.226  1.5272 -1.3821 -0.2477
   80SOPE   H8S 7250   1.952   2.068   5.191  0.3079  0.0895  0.8255
   80SOPE   C29 7251   2.054   1.910   5.075 -0.4263 -0.4030 -0.1229
   80SOPE   H91 7252   2.116   1.821   5.092  0.2358 -0.0654 -0.7027
   80SOPE  C210 7253   2.038   1.971   4.953 -0.5018  0.1884 -0.2196
   80SOPE  H101 7254   2.067   1.913   4.865 -1.1962  0.3306 -0.5493
   80SOPE  C211 7255   1.970   2.098   4.914 -0.2285  0.1685 -0.5920
   80SOPE  H11R 7256   2.037   2.182   4.942 -1.6566  1.1166  0.0904
   80SOPE  H11S 7257   1.882   2.109   4.980 -0.9851 -0.1992 -1.5168
   80SOPE  C212 7258   1.943   2.113   4.765  0.2827  0.7564  0.2843
   80SOPE  H12R 7259   1.848   2.168   4.748 -1.8502 -2.5752  0.4985
   80SOPE  H12S 7260   1.937   2.013   4.715  2.8058 -0.3256  1.9660
   80SOPE  C213 7261   2.049   2.201   4.686 -0.3508  0.2867 -1.1035
   80SOPE  H13R 7262   2.145   2.144   4.681  0.3100  1.1958  0.6025
   80SOPE  H13S 7263   2.071   2.293   4.743  1.4043 -0.9117  0.2907
   80SOPE  C214 7264   2.008   2.226   4.540  0.5964 -0.7576  0.2689
   80SOPE  H14R 7265   2.093   2.284   4.498 -0.6307  0.6340 -0.3783
   80SOPE  H14S 7266   1.914   2.286   4.541  0.9220 -0.2257 -0.4864
   80SOPE  C215 7267   2.011   2.097   4.452  0.0508  0.7016  0.3308
   80SOPE  H15R 7268   1.934   2.032   4.498 -0.6833  1.3925  0.0977
   80SOPE  H15S 7269   2.105   2.042   4.474  1.1072  2.3072  0.0775
   80SOPE  C216 7270   1.994   2.125   4.312  0.3484  0.1262  0.2132
   80SOPE  H16R 7271   2.080   2.189   4.285  0.5614  0.2216  1.0928
   80SOPE  H16S 7272   1.914   2.197   4.283  0.3357  0.6428  1.4393
   80SOPE  C217 7273   1.994   2.005   4.227  0.1130  0.4714 -0.3806
   80SOPE  H17R 7274   1.900   1.946   4.239 -1.5218  3.0198  0.1186
   80SOPE  H17S 7275   2.085   1.946   4.249 -0.2899  0.6575  2.0688
   80SOPE  C218 7276   1.986   2.048   4.078  0.0218  0.1108  0.5866
   80SOPE  H18R 7277   1.898   2.113   4.060 -1.3645 -1.8118  0.1178
   80SOPE  H18S 7278   1.993   1.962   4.008 -0.9162  0.0272  0.5891
   80SOPE  H18T 7279   2.080   2.101   4.049  1.2734 -3.1276 -1.9780
   80SOPE   C33 7280   1.953   1.604   5.687  0.0570  0.9267  0.8093
   80SOPE   H3X 7281   1.932   1.712   5.677 -1.6068  0.5465 -0.3046
   80SOPE   H3Y 7282   1.859   1.545   5.675  1.3629 -1.1948  0.6187
   80SOPE   C34 7283   2.057   1.573   5.576  0.4258 -0.1384 -0.4921
   80SOPE   H4X 7284   2.085   1.466   5.591 -0.6886 -0.2810  0.6823
   80SOPE   H4Y 7285   2.148   1.636   5.585  0.5251 -0.3214 -0.2181
   80SOPE   C35 7286   1.989   1.582   5.444  0.3816 -0.1131  0.0123
   80SOPE   H5X 7287   1.972   1.690   5.427  1.1979  0.4365  2.3792
   80SOPE   H5Y 7288   1.883   1.549   5.438  0.4931 -0.2422 -2.0738
   80SOPE   C36 7289   2.070   1.514   5.327  0.4101  0.7176 -0.1979
   80SOPE   H6X 7290   2.075   1.405   5.348  0.7118  0.9771  1.2056
   80SOPE   H6Y 7291   2.172   1.559   5.330  1.0488 -0.5883 -1.0950
   80SOPE   C37 7292   2.005   1.555   5.197  0.4419  0.0009 -0.3109
   80SOPE   H7X 7293   2.002   1.663   5.175 -0.0744  0.1636  0.5401
   80SOPE   H7Y 7294   1.899   1.524   5.198  0.9418 -1.9331 -0.7940
   80SOPE   C38 7295   2.059   1.477   5.076  0.3751 -0.0849 -1.3904
   80SOPE   H8X 7296   2.168   1.460   5.085  0.1312 -1.2064 -0.0959
   80SOPE   H8Y 7297   2.024   1.531   4.986  1.3584  0.4858 -1.4490
   80SOPE   C39 7298   2.000   1.332   5.077 -0.9164  0.2106  0.8838
   80SOPE   H9X 7299   1.889   1.333   5.081 -1.1275  1.5884 -2.0287
   80SOPE   H9Y 7300   2.029   1.282   5.171 -1.2237  2.3998  2.2231
   80SOPE  C310 7301   2.028   1.262   4.931 -0.2160 -0.6166 -0.5257
   80SOPE  H10X 7302   2.017   1.151   4.927  1.7358 -1.0084  2.2432
   80SOPE  H10Y 7303   2.133   1.284   4.900  0.2885 -0.3285  1.2584
   80SOPE  C311 7304   1.938   1.323   4.818  0.5118 -0.2595 -0.4786
   80SOPE  H11X 7305   1.937   1.434   4.826 -1.0956 -0.2996  0.4937
   80SOPE  H11Y 7306   1.832   1.291   4.831 -0.1908  1.3037 -1.9382
   80SOPE  C312 7307   1.976   1.280   4.674 -0.3899 -0.0687  0.2276
   80SOPE  H12X 7308   1.958   1.171   4.676 -1.9546  0.1777  2.0764
   80SOPE  H12Y 7309   2.083   1.307   4.657 -0.4476 -0.5641 -0.9946
   80SOPE  C313 7310   1.898   1.342   4.566 -0.1079 -0.1383  0.2468
   80SOPE  H13X 7311   1.905   1.453   4.554  3.1466 -0.2221  0.5804
   80SOPE  H13Y 7312   1.790   1.320   4.583 -0.8607  0.7485 -2.7449
   80SOPE  C314 7313   1.928   1.274   4.430  0.1887 -0.4557  0.1157
   80SOPE  H14X 7314   1.874   1.340   4.359  2.1155  0.6240 -0.4358
   80SOPE  H14Y 7315   1.876   1.177   4.423  0.6254 -0.7895  1.2375
   80SOPE  C315 7316   2.072   1.262   4.376  0.3546 -0.2612 -0.1121
   80SOPE  H15X 7317   2.116   1.172   4.425 -1.2729 -1.4803 -0.7898
   80SOPE  H15Y 7318   2.126   1.357   4.396 -0.5100  0.1601  0.2716
   80SOPE  C316 7319   2.074   1.239   4.222  0.1766 -0.0203  0.1431
   80SOPE  H16X 7320   1.997   1.306   4.178 -2.8610 -1.8768  2.2709
   80SOPE  H16Y 7321   2.033   1.139   4.196 -1.0370  0.2224  1.0409
   80SOPE  C317 7322   2.205   1.257   4.153  0.4119 -0.4339  0.3507
   80SOPE  H17X 7323   2.288   1.196   4.194 -0.7250 -2.6299 -0.4561
   80SOPE  H17Y 7324   2.235   1.363   4.169 -0.0494 -0.3824  0.8764
   80SOPE  C318 7325   2.185   1.233   4.009  0.2143  0.8151  0.4040
   80SOPE  H18X 7326   2.090   1.280   3.975  0.2566 -0.3292 -1.4554
   80SOPE  H18Y 7327   2.185   1.126   3.982  1.2707  0.8158  0.3411
   80SOPE  H18Z 7328   2.263   1.276   3.943  0.7946  0.3153  0.7550
   81SOPE     N 7329   4.690   0.928   6.793  0.5085 -0.5919  0.5372
   81SOPE   HN1 7330   4.647   1.022   6.795 -0.8326 -1.1746  0.4005
   81SOPE   HN2 7331   4.788   0.919   6.760 -0.0718 -0.8597 -1.2235
   81SOPE   HN3 7332   4.632   0.876   6.724 -0.4293  1.2772 -0.1524
   81SOPE   C12 7333   4.672   0.862   6.931  0.3529 -0.0076  0.2062
   81SOPE  H12A 7334   4.575   0.896   6.973 -0.6833 -1.4439 -0.9037
   81SOPE  H12B 7335   4.758   0.907   6.985  0.8639  2.7386 -2.6267
   81SOPE   C11 7336   4.678   0.707   6.936  0.5086  0.5839 -0.7202
   81SOPE  H11A 7337   4.589   0.677   6.876 -0.4106 -0.8412  1.2551
   81SOPE  H11B 7338   4.653   0.659   7.033 -0.0941  1.9466 -0.1664
   81SOPE     P 7339   4.829   0.509   6.880  0.4147 -0.1425 -0.1247
   81SOPE   O13 7340   4.731   0.430   6.958  0.5323  0.1797  0.0583
   81SOPE   O14 7341   4.970   0.503   6.918  0.0831  0.1218  0.0064
   81SOPE   O12 7342   4.787   0.652   6.861 -0.2669  0.4676  0.4759
   81SOPE   O11 7343   4.827   0.455   6.729  0.0589  0.6136 -0.0852
   81SOPE    C1 7344   4.719   0.495   6.645  0.0504 -0.8788  0.0416
   81SOPE    HA 7345   4.621   0.526   6.689  0.4577  0.8003 -0.1608
   81SOPE    HB 7346   4.708   0.413   6.571  0.1604 -0.2568 -0.6797
   81SOPE    C2 7347   4.764   0.622   6.557  0.3334 -0.2998  0.1953
   81SOPE    HS 7348   4.790   0.708   6.624  0.2241  1.0831 -1.4777
   81SOPE   O21 7349   4.652   0.648   6.471  0.4960 -0.2795  0.1315
   81SOPE   C21 7350   4.658   0.761   6.401  0.0823 -0.6896 -0.2835
   81SOPE   O22 7351   4.728   0.857   6.419  0.1039  0.5246  0.0054
   81SOPE   C22 7352   4.527   0.766   6.315 -0.1078  0.5936 -0.2103
   81SOPE   H2R 7353   4.519   0.871   6.279  1.0801  1.8587  2.8367
   81SOPE   H2S 7354   4.438   0.750   6.379  1.1094  0.6794  1.5674
   81SOPE    C3 7355   4.901   0.601   6.480  0.6844  0.3649  0.3362
   81SOPE    HX 7356   4.981   0.594   6.557  0.7612  0.4447  0.2636
   81SOPE    HY 7357   4.920   0.694   6.423  2.1973 -0.0715  0.0597
   81SOPE   O31 7358   4.902   0.484   6.401  0.1232 -0.5175  0.5197
   81SOPE   C31 7359   4.874   0.508   6.270  0.1658  0.5382  0.0682
   81SOPE   O32 7360   4.873   0.619   6.224  0.0675 -0.8812  0.5638
   81SOPE   C32 7361   4.862   0.380   6.187  0.2868 -0.3321  0.5563
   81SOPE   H2X 7362   4.810   0.306   6.251  0.5230 -0.9585  0.0394
   81SOPE   H2Y 7363   4.960   0.340   6.151 -0.3634  0.3743 -2.2708
   81SOPE   C23 7364   4.530   0.682   6.185 -0.0597  0.6711  1.2851
   81SOPE   H3R 7365   4.535   0.572   6.195 -2.4112 -0.1537 -3.5463
   81SOPE   H3S 7366   4.611   0.707   6.113 -0.1146 -0.7709  0.6789
   81SOPE   C24 7367   4.394   0.709   6.113 -0.9525 -0.1295  0.1764
   81SOPE   H4R 7368   4.309   0.697   6.183 -2.4996  0.3333 -1.5303
   81SOPE   H4S 7369   4.391   0.813   6.074 -2.6787 -0.2589 -0.1265
   81SOPE   C25 7370   4.376   0.603   6.006  0.3692 -0.0492 -0.2161
   81SOPE   H5R 7371   4.369   0.502   6.051  0.0086  0.6145  1.2985
   81SOPE   H5S 7372   4.282   0.626   5.951  0.8868  2.1872 -0.2903
   81SOPE   C26 7373   4.491   0.622   5.900  0.7386  0.2428 -0.4199
   81SOPE   H6R 7374   4.479   0.721   5.850  0.2742 -0.5364 -1.8986
   81SOPE   H6S 7375   4.588   0.605   5.952  0.0397 -0.7735  0.5842
   81SOPE   C27 7376   4.468   0.529   5.779  0.5229  0.0045  0.2714
   81SOPE   H7R 7377   4.437   0.427   5.810  1.1591 -0.3286 -0.1509
   81SOPE   H7S 7378   4.383   0.561   5.715  1.2862  1.4658 -0.0470
   81SOPE   C28 7379   4.597   0.522   5.698 -0.3154 -0.3127  0.6751
   81SOPE   H8R 7380   4.691   0.500   5.752  2.4161  2.2867 -2.5648
   81SOPE   H8S 7381   4.595   0.446   5.616  0.5126  0.5532 -0.1736
   81SOPE   C29 7382   4.610   0.657   5.628  0.1919 -0.5233  0.2679
   81SOPE   H91 7383   4.681   0.724   5.680 -0.4851 -0.0268  0.5628
   81SOPE  C210 7384   4.535   0.700   5.526 -0.5904  0.1924 -0.8066
   81SOPE  H101 7385   4.569   0.794   5.479 -0.2870  0.7990  0.5987
   81SOPE  C211 7386   4.434   0.619   5.441  0.1484 -0.5122 -0.2975
   81SOPE  H11R 7387   4.339   0.674   5.428  0.1583 -0.3093  0.4607
   81SOPE  H11S 7388   4.408   0.526   5.496  0.7380 -0.5000  0.0061
   81SOPE  C212 7389   4.488   0.574   5.308  0.1326  0.5423  0.5631
   81SOPE  H12R 7390   4.407   0.520   5.255  0.4413 -0.3051  0.9364
   81SOPE  H12S 7391   4.581   0.514   5.312 -0.4424 -0.4475 -0.2590
   81SOPE  C213 7392   4.518   0.697   5.214  0.2736 -0.1315 -0.4022
   81SOPE  H13R 7393   4.602   0.754   5.260 -0.5335  1.1635 -0.4819
   81SOPE  H13S 7394   4.429   0.763   5.224  2.0462  2.2311  0.8725
   81SOPE  C214 7395   4.543   0.680   5.058  0.1361 -0.2235 -0.9580
   81SOPE  H14R 7396   4.641   0.633   5.036  0.2120 -0.2377 -0.5941
   81SOPE  H14S 7397   4.541   0.783   5.015 -1.8150 -0.2595 -1.0722
   81SOPE  C215 7398   4.431   0.602   4.985  0.6907 -0.8446 -0.1628
   81SOPE  H15R 7399   4.334   0.644   5.017  2.9482  3.3946  1.8738
   81SOPE  H15S 7400   4.433   0.492   5.001  2.7400 -0.5697  1.9787
   81SOPE  C216 7401   4.449   0.632   4.837 -0.2247 -0.3368 -0.6192
   81SOPE  H16R 7402   4.464   0.742   4.827  1.3516 -0.4625  0.1359
   81SOPE  H16S 7403   4.363   0.597   4.776 -0.5157 -0.2671 -0.2511
   81SOPE  C217 7404   4.579   0.583   4.777  0.2614  0.5567  0.1043
   81SOPE  H17R 7405   4.593   0.475   4.802  1.9262  0.9496  0.9862
   81SOPE  H17S 7406   4.662   0.642   4.822 -0.1662 -0.4368  2.3246
   81SOPE  C218 7407   4.588   0.621   4.625 -0.3098 -0.1480 -0.0546
   81SOPE  H18R 7408   4.680   0.580   4.578 -0.5246  1.8217 -2.3755
   81SOPE  H18S 7409   4.589   0.732   4.615  2.4522  0.1275  1.8763
   81SOPE  H18T 7410   4.502   0.576   4.572 -0.5132 -0.5535  0.6149
   81SOPE   C33 7411   4.781   0.397   6.050  0.0703  0.0214 -0.9266
   81SOPE   H3X 7412   4.815   0.480   5.985  0.1691 -1.1559 -2.4364
   81SOPE   H3Y 7413   4.675   0.420   6.076 -0.1171 -0.9190 -0.8206
   81SOPE   C34 7414   4.786   0.265   5.976  1.1704 -0.3534  0.2275
   81SOPE   H4X 7415   4.852   0.198   6.035 -0.4085  0.0032  2.5341
   81SOPE   H4Y 7416   4.828   0.287   5.876 -0.3338 -1.1492 -0.6054
   81SOPE   C35 7417   4.648   0.206   5.952  0.5137 -0.2161  0.0017
   81SOPE   H5X 7418   4.578   0.278   5.904  0.5080 -0.0981  0.1844
   81SOPE   H5Y 7419   4.598   0.180   6.048  0.2465  1.7661  0.4498
   81SOPE   C36 7420   4.645   0.076   5.863  0.2476  0.3033  0.4693
   81SOPE   H6X 7421   4.536   0.075   5.841  0.6607  3.3828 -2.7366
   81SOPE   H6Y 7422   4.667  -0.020   5.914  0.5945 -0.8216 -1.6795
   81SOPE   C37 7423   4.727   0.072   5.731  0.1150 -0.3631 -0.0627
   81SOPE   H7X 7424   4.717  -0.026   5.680  0.6612 -0.6680  0.4030
   81SOPE   H7Y 7425   4.829   0.075   5.776 -0.2465 -2.3227  0.9912
   81SOPE   C38 7426   4.693   0.184   5.641 -0.1845 -0.0510  0.1358
   81SOPE   H8X 7427   4.691   0.282   5.692 -0.9888  0.7477 -1.3737
   81SOPE   H8Y 7428   4.591   0.164   5.602  0.1111  0.7100 -1.0891
   81SOPE   C39 7429   4.799   0.196   5.533 -0.3200  0.1266 -0.0521
   81SOPE   H9X 7430   4.830   0.099   5.488  1.2191  1.9080 -3.1882
   81SOPE   H9Y 7431   4.899   0.240   5.556 -0.2733 -0.0301  0.0426
   81SOPE  C310 7432   4.746   0.282   5.420 -0.8122  0.2506  0.3974
   81SOPE  H10X 7433   4.746   0.384   5.463  3.3294  0.3554  0.5477
   81SOPE  H10Y 7434   4.640   0.260   5.394 -1.0543  0.6168  1.0661
   81SOPE  C311 7435   4.855   0.296   5.307 -0.1018  0.2544 -1.0538
   81SOPE  H11X 7436   4.841   0.199   5.255 -1.1221  0.8267 -1.9097
   81SOPE  H11Y 7437   4.956   0.311   5.351 -0.8209 -0.0365  0.7687
   81SOPE  C312 7438   4.823   0.419   5.220 -0.6901  0.2042 -0.0076
   81SOPE  H12X 7439   4.810   0.510   5.281 -0.5235 -0.3471  0.8614
   81SOPE  H12Y 7440   4.742   0.409   5.144  1.5740 -1.6942 -2.3640
   81SOPE  C313 7441   4.958   0.445   5.142  0.3642  0.1571 -0.3919
   81SOPE  H13X 7442   5.045   0.458   5.211 -0.2674 -1.1964  0.7004
   81SOPE  H13Y 7443   4.957   0.544   5.090 -0.6789 -0.0160 -0.7216
   81SOPE  C314 7444   4.991   0.348   5.031 -0.2173  0.6457 -0.2485
   81SOPE  H14X 7445   4.956   0.248   5.067  0.4963  1.1132  1.9068
   81SOPE  H14Y 7446   5.101   0.341   5.012 -0.4220  3.4708 -3.3419
   81SOPE  C315 7447   4.931   0.379   4.899  0.1138  0.7326  0.3521
   81SOPE  H15X 7448   4.824   0.405   4.913  0.5536  3.3614 -0.6243
   81SOPE  H15Y 7449   4.946   0.289   4.835  1.0017  0.6350  0.6782
   81SOPE  C316 7450   5.001   0.494   4.827 -0.4545  0.3392 -0.1172
   81SOPE  H16X 7451   5.112   0.482   4.823 -0.6205 -1.2201 -3.3855
   81SOPE  H16Y 7452   4.995   0.594   4.877  0.4273 -0.2003  1.1469
   81SOPE  C317 7453   4.944   0.513   4.684 -0.0816 -0.5293  0.5349
   81SOPE  H17X 7454   4.835   0.533   4.695 -0.2094  0.8635 -2.2816
   81SOPE  H17Y 7455   4.961   0.413   4.637 -0.4446 -0.4098  0.1443
   81SOPE  C318 7456   5.010   0.618   4.602  0.0828 -0.7391  0.3541
   81SOPE  H18X 7457   4.975   0.614   4.497  0.3034  0.9272  0.1866
   81SOPE  H18Y 7458   5.120   0.600   4.599 -0.2025 -2.6127 -1.9554
   81SOPE  H18Z 7459   4.987   0.722   4.632  1.0537 -0.2308 -0.5809
   82SOPE     N 7460   1.149   6.393   6.633  0.2422  1.0765 -0.1575
   82SOPE   HN1 7461   1.138   6.290   6.632 -0.8035  1.1423  1.3062
   82SOPE   HN2 7462   1.098   6.417   6.545  1.7433  1.4302 -0.9538
   82SOPE   HN3 7463   1.250   6.415   6.634  0.9226 -1.7150  0.3362
   82SOPE   C12 7464   1.077   6.428   6.754 -0.0521  0.1200 -0.0726
   82SOPE  H12A 7465   1.151   6.434   6.836 -1.2266  0.9723  0.9625
   82SOPE  H12B 7466   0.997   6.353   6.775 -1.3727  1.2158 -0.9689
   82SOPE   C11 7467   1.019   6.567   6.741 -0.4944  0.2453 -0.6247
   82SOPE  H11A 7468   0.977   6.585   6.842 -2.3886  0.6534 -1.4323
   82SOPE  H11B 7469   0.940   6.556   6.663  1.1237  0.8965 -2.4499
   82SOPE     P 7470   1.064   6.808   6.694 -0.2301 -0.0835  0.5170
   82SOPE   O13 7471   1.172   6.900   6.737  0.1768  0.0408  0.5977
   82SOPE   O14 7472   0.937   6.836   6.759 -0.4114 -0.2613 -0.5282
   82SOPE   O12 7473   1.117   6.666   6.712 -0.0822 -0.4936  0.4120
   82SOPE   O11 7474   1.059   6.813   6.533 -0.4343 -0.3317  0.1908
   82SOPE    C1 7475   0.945   6.764   6.466  0.5082 -0.1827  0.3061
   82SOPE    HA 7476   0.848   6.782   6.516  0.3157  0.3321 -0.2301
   82SOPE    HB 7477   0.941   6.654   6.454 -3.0420 -0.1574  0.0684
   82SOPE    C2 7478   0.926   6.821   6.320 -0.2124 -0.2858  0.5107
   82SOPE    HS 7479   0.847   6.753   6.280  0.9083 -1.7211  0.6901
   82SOPE   O21 7480   1.038   6.816   6.231 -0.0696 -0.3731 -0.0714
   82SOPE   C21 7481   1.073   6.709   6.180 -0.4697  0.6665 -0.0956
   82SOPE   O22 7482   1.035   6.593   6.210 -0.7181  0.2199 -0.1548
   82SOPE   C22 7483   1.175   6.747   6.072  0.2904 -0.0222  0.0754
   82SOPE   H2R 7484   1.276   6.770   6.112 -0.4852  0.4177  1.8758
   82SOPE   H2S 7485   1.122   6.837   6.032  0.0716  0.7579  2.0294
   82SOPE    C3 7486   0.861   6.960   6.326 -0.5150  0.7019 -0.3358
   82SOPE    HX 7487   0.905   7.012   6.413  1.3929 -3.6182  1.5456
   82SOPE    HY 7488   0.753   6.940   6.344 -0.5039  0.9205 -0.0323
   82SOPE   O31 7489   0.870   7.044   6.206  0.0174  0.0540 -0.0663
   82SOPE   C31 7490   0.803   6.996   6.101 -0.5219 -0.0748 -0.7228
   82SOPE   O32 7491   0.737   6.896   6.101  0.0847 -0.5815  0.1558
   82SOPE   C32 7492   0.839   7.077   5.975  0.3496  0.3070  0.3758
   82SOPE   H2X 7493   0.947   7.095   5.992  1.0280 -2.2286 -0.6414
   82SOPE   H2Y 7494   0.778   7.169   5.964 -0.8325 -0.4934 -0.0646
   82SOPE   C23 7495   1.194   6.647   5.953  0.3045  0.1113 -0.7394
   82SOPE   H3R 7496   1.098   6.593   5.940 -0.1675  0.5895  0.5926
   82SOPE   H3S 7497   1.261   6.566   5.988 -2.7833 -2.6074 -0.6309
   82SOPE   C24 7498   1.238   6.721   5.830  0.0333  0.1234  0.1137
   82SOPE   H4R 7499   1.169   6.805   5.807 -1.1767 -0.2530  2.1790
   82SOPE   H4S 7500   1.332   6.772   5.860 -0.2034 -0.4498  1.9595
   82SOPE   C25 7501   1.245   6.634   5.704 -0.0682 -0.1672 -0.5467
   82SOPE   H5R 7502   1.310   6.544   5.702  0.5336  0.2569 -0.3278
   82SOPE   H5S 7503   1.151   6.575   5.693 -1.1403  1.3053  0.3919
   82SOPE   C26 7504   1.269   6.713   5.578 -0.1216 -0.1127 -0.1533
   82SOPE   H6R 7505   1.210   6.807   5.587  2.4347  1.9092 -2.7147
   82SOPE   H6S 7506   1.374   6.748   5.573  0.0445 -0.7470 -3.3200
   82SOPE   C27 7507   1.236   6.645   5.440  0.3043 -0.1772 -0.0020
   82SOPE   H7R 7508   1.321   6.673   5.374  3.1963 -2.9426  2.1940
   82SOPE   H7S 7509   1.247   6.537   5.462  1.5637 -0.0273  0.1794
   82SOPE   C28 7510   1.095   6.677   5.386 -1.0461 -0.9618 -0.4699
   82SOPE   H8R 7511   1.022   6.697   5.467 -0.8213 -0.2450 -0.4431
   82SOPE   H8S 7512   1.094   6.779   5.341 -1.0022 -0.4721  0.6167
   82SOPE   C29 7513   1.033   6.572   5.294  0.8357  0.3938 -0.3741
   82SOPE   H91 7514   1.029   6.472   5.339  0.2270  0.8742  0.6832
   82SOPE  C210 7515   1.007   6.585   5.161  0.3414  0.3546 -0.3808
   82SOPE  H101 7516   0.969   6.502   5.100 -0.1881 -0.3762  0.8886
   82SOPE  C211 7517   1.032   6.719   5.089  0.6855  0.4655  0.8678
   82SOPE  H11R 7518   1.125   6.773   5.117  1.6596 -0.5185 -0.3325
   82SOPE  H11S 7519   0.948   6.788   5.113  0.2728  1.0878 -1.9433
   82SOPE  C212 7520   1.037   6.702   4.935 -0.6148  0.1244  0.0802
   82SOPE  H12R 7521   1.119   6.627   4.924  0.2192  0.8387  1.1748
   82SOPE  H12S 7522   1.077   6.800   4.901  1.9885 -0.3386  1.5361
   82SOPE  C213 7523   0.907   6.662   4.870 -0.6469 -0.3056  0.5010
   82SOPE  H13R 7524   0.825   6.729   4.902 -3.2388 -3.7278  1.5768
   82SOPE  H13S 7525   0.879   6.566   4.918 -1.0520 -0.6726 -0.4467
   82SOPE  C214 7526   0.914   6.662   4.715 -0.2344 -0.3329  0.3385
   82SOPE  H14R 7527   0.989   6.589   4.677  0.2863 -0.0100  0.7401
   82SOPE  H14S 7528   0.931   6.770   4.698 -0.8714  0.4216  3.6379
   82SOPE  C215 7529   0.781   6.631   4.660  0.0102  0.6173  0.2165
   82SOPE  H15R 7530   0.715   6.676   4.736  0.3510  2.4961 -0.5520
   82SOPE  H15S 7531   0.755   6.523   4.667  0.9829  0.3611  0.0979
   82SOPE  C216 7532   0.742   6.689   4.525 -0.2267  0.0281 -0.1552
   82SOPE  H16R 7533   0.772   6.796   4.535  1.9405 -0.6100  0.7885
   82SOPE  H16S 7534   0.632   6.689   4.514 -0.0730  0.7153 -2.0188
   82SOPE  C217 7535   0.813   6.619   4.410 -0.0925  0.3334  0.3384
   82SOPE  H17R 7536   0.769   6.517   4.400 -3.1417  1.6757 -1.7639
   82SOPE  H17S 7537   0.919   6.625   4.440  0.3897  0.0337 -1.2181
   82SOPE  C218 7538   0.789   6.669   4.265 -0.1060 -0.2252 -0.2304
   82SOPE  H18R 7539   0.832   6.771   4.256 -1.1722  0.2522 -0.1265
   82SOPE  H18S 7540   0.679   6.669   4.254  0.0254 -0.8696 -1.8382
   82SOPE  H18T 7541   0.826   6.605   4.182 -1.2202  1.3428 -2.0072
   82SOPE   C33 7542   0.835   6.998   5.842  0.5018 -0.3242  0.1714
   82SOPE   H3X 7543   0.729   6.986   5.810  0.1447 -0.7337  1.4645
   82SOPE   H3Y 7544   0.874   6.894   5.850 -1.6346 -1.0533  2.2238
   82SOPE   C34 7545   0.909   7.070   5.723 -0.2815 -0.3462 -0.3928
   82SOPE   H4X 7546   1.013   7.096   5.752 -0.8438  0.6340  0.8572
   82SOPE   H4Y 7547   0.856   7.163   5.694  0.7985  0.6604  0.7106
   82SOPE   C35 7548   0.910   6.969   5.606 -1.3970  0.1227  1.2508
   82SOPE   H5X 7549   0.964   6.875   5.631 -1.5376 -0.8398 -1.6332
   82SOPE   H5Y 7550   0.973   7.013   5.526 -3.1906  0.7179  0.1065
   82SOPE   C36 7551   0.776   6.941   5.537 -0.1978 -0.5128  0.3131
   82SOPE   H6X 7552   0.716   7.027   5.574  0.5190 -0.5639  1.6960
   82SOPE   H6Y 7553   0.747   6.849   5.593  0.5094  0.0140  1.6005
   82SOPE   C37 7554   0.796   6.912   5.395 -0.0073 -0.1712  1.0380
   82SOPE   H7X 7555   0.878   6.838   5.382  0.5358  0.4269  0.9766
   82SOPE   H7Y 7556   0.815   7.006   5.339 -0.2995 -1.7848 -1.9638
   82SOPE   C38 7557   0.667   6.860   5.339 -0.0705 -0.0593  0.4452
   82SOPE   H8X 7558   0.582   6.921   5.377  0.0989  0.7816 -0.4738
   82SOPE   H8Y 7559   0.644   6.760   5.382 -1.8855  0.8066  1.6267
   82SOPE   C39 7560   0.662   6.862   5.188  0.0467 -0.3339 -0.3231
   82SOPE   H9X 7561   0.745   6.796   5.154  0.3131 -0.1338 -0.0624
   82SOPE   H9Y 7562   0.687   6.963   5.149 -0.2446 -0.2529 -0.3072
   82SOPE  C310 7563   0.523   6.840   5.133  0.6356  0.3644  0.0461
   82SOPE  H10X 7564   0.451   6.918   5.163  0.2556 -0.2372  0.7320
   82SOPE  H10Y 7565   0.477   6.745   5.167  0.6342  0.2728 -0.2095
   82SOPE  C311 7566   0.520   6.847   4.983 -0.0300 -0.1945 -0.0677
   82SOPE  H11X 7567   0.545   6.746   4.943 -0.0314  0.0090 -0.5972
   82SOPE  H11Y 7568   0.600   6.918   4.951 -2.9563  2.6627 -1.6316
   82SOPE  C312 7569   0.390   6.904   4.922  0.3371 -0.1466  0.2362
   82SOPE  H12X 7570   0.365   6.991   4.986 -0.5810 -2.3167  3.0462
   82SOPE  H12Y 7571   0.316   6.821   4.934  0.5454 -0.3593  0.0505
   82SOPE  C313 7572   0.410   6.945   4.776 -0.4373 -0.0640 -0.6988
   82SOPE  H13X 7573   0.490   7.022   4.769 -0.6979  0.3698  0.6826
   82SOPE  H13Y 7574   0.312   6.993   4.752 -1.0340 -1.8886 -2.1634
   82SOPE  C314 7575   0.436   6.826   4.679 -0.0088 -0.5789 -0.3163
   82SOPE  H14X 7576   0.370   6.745   4.717 -3.0102  1.6098 -0.4596
   82SOPE  H14Y 7577   0.542   6.800   4.699  0.3154  1.4800  1.0021
   82SOPE  C315 7578   0.421   6.849   4.524  0.1255 -0.5077 -0.5230
   82SOPE  H15X 7579   0.451   6.756   4.472  1.0362 -0.5993  0.1592
   82SOPE  H15Y 7580   0.492   6.928   4.490 -0.5395  1.7067  2.7441
   82SOPE  C316 7581   0.279   6.882   4.484  0.2020 -0.0705  0.2265
   82SOPE  H16X 7582   0.273   6.874   4.373 -2.9224  0.2494  0.2988
   82SOPE  H16Y 7583   0.262   6.989   4.511 -2.0537 -0.5507  0.9053
   82SOPE  C317 7584   0.164   6.808   4.557  0.4397 -0.0754 -0.0182
   82SOPE  H17X 7585   0.161   6.841   4.663  0.8751  1.1520 -0.3699
   82SOPE  H17Y 7586   0.188   6.699   4.552 -1.2298 -0.5575  1.5746
   82SOPE  C318 7587   0.026   6.834   4.495  0.5013 -1.1590 -0.5109
   82SOPE  H18X 7588  -0.003   6.939   4.518  0.3651 -1.2418 -0.3080
   82SOPE  H18Y 7589  -0.045   6.762   4.541  0.9090 -0.4974  1.2323
   82SOPE  H18Z 7590   0.025   6.811   4.386  1.5272 -1.3553 -0.4867
   83SOPE     N 7591   0.430   3.523   2.430  0.1856 -0.3429 -0.7013
   83SOPE   HN1 7592   0.455   3.580   2.347 -0.6969 -0.2411 -0.9125
   83SOPE   HN2 7593   0.464   3.425   2.429 -2.6413 -1.4130 -1.6899
   83SOPE   HN3 7594   0.327   3.529   2.447  0.5579  0.9919  1.3828
   83SOPE   C12 7595   0.502   3.585   2.545 -0.1509 -0.1498  0.0929
   83SOPE  H12A 7596   0.446   3.549   2.634 -1.8289  0.2286 -0.7845
   83SOPE  H12B 7597   0.506   3.696   2.535 -1.4420 -0.2756 -2.9225
   83SOPE   C11 7598   0.647   3.533   2.558 -0.2728 -0.3118  0.0691
   83SOPE  H11A 7599   0.633   3.427   2.585 -3.7382  0.4549  1.8271
   83SOPE  H11B 7600   0.695   3.601   2.631  2.7561 -1.5090 -0.6751
   83SOPE     P 7601   0.874   3.573   2.412  0.4573 -0.2464 -0.2583
   83SOPE   O13 7602   0.895   3.707   2.472  0.3347  0.9564  0.7269
   83SOPE   O14 7603   0.910   3.549   2.268  0.2381 -0.3268  0.5748
   83SOPE   O12 7604   0.721   3.536   2.436  0.2685 -0.5079 -0.7125
   83SOPE   O11 7605   0.962   3.472   2.498 -0.3317  0.1338  0.2176
   83SOPE    C1 7606   0.976   3.341   2.452 -0.6862  0.4050  0.7177
   83SOPE    HA 7607   1.078   3.307   2.480 -0.4779  1.1788  0.9114
   83SOPE    HB 7608   0.982   3.333   2.341 -2.3270 -0.6391  0.6656
   83SOPE    C2 7609   0.865   3.247   2.505  0.1308  0.3684  0.2840
   83SOPE    HS 7610   0.766   3.297   2.493 -0.4122 -0.5126  0.9885
   83SOPE   O21 7611   0.878   3.212   2.644 -0.9407 -0.0722  0.1378
   83SOPE   C21 7612   0.777   3.153   2.703  0.5130  0.0816  0.6529
   83SOPE   O22 7613   0.666   3.136   2.650  0.1308 -0.5545 -0.2952
   83SOPE   C22 7614   0.816   3.119   2.847  0.4062 -0.5869  0.4553
   83SOPE   H2R 7615   0.859   3.206   2.900 -0.6720 -0.9004  1.9123
   83SOPE   H2S 7616   0.893   3.039   2.851  0.0752 -0.8991  0.6292
   83SOPE    C3 7617   0.857   3.117   2.407 -0.4767 -0.0220 -0.1122
   83SOPE    HX 7618   0.848   3.157   2.304 -1.4174  0.1608  0.0383
   83SOPE    HY 7619   0.760   3.065   2.421 -0.1583 -1.3136 -2.2435
   83SOPE   O31 7620   0.981   3.038   2.422  0.4522  0.4384  0.5179
   83SOPE   C31 7621   0.965   2.943   2.514 -0.0917  0.6247 -0.0791
   83SOPE   O32 7622   0.859   2.906   2.562 -0.4200  0.2581  0.8019
   83SOPE   C32 7623   1.105   2.879   2.546  0.3647 -0.4648 -0.0042
   83SOPE   H2X 7624   1.186   2.941   2.502 -0.6168 -0.7412 -2.3739
   83SOPE   H2Y 7625   1.106   2.779   2.497  2.1010 -0.8292  0.6872
   83SOPE   C23 7626   0.696   3.067   2.934 -0.2135 -1.0126 -0.2897
   83SOPE   H3R 7627   0.657   2.981   2.874 -2.0071  0.6508 -1.6453
   83SOPE   H3S 7628   0.623   3.150   2.948 -0.5164 -1.7809  4.0840
   83SOPE   C24 7629   0.747   3.029   3.062 -0.9081 -0.1833  0.1372
   83SOPE   H4R 7630   0.829   2.955   3.045  0.7373  1.3456  1.0596
   83SOPE   H4S 7631   0.795   3.120   3.104 -1.1776  0.7359 -1.4495
   83SOPE   C25 7632   0.639   2.985   3.161  0.2144  0.6708  0.3902
   83SOPE   H5R 7633   0.552   2.955   3.099  0.4563  1.0524 -0.1420
   83SOPE   H5S 7634   0.669   2.903   3.231 -0.1634 -1.3655 -1.7061
   83SOPE   C26 7635   0.610   3.100   3.257  0.0576  0.4069  0.2016
   83SOPE   H6R 7636   0.702   3.121   3.317  1.1635  0.7762 -1.5662
   83SOPE   H6S 7637   0.584   3.197   3.209 -0.6220 -0.0967 -0.4670
   83SOPE   C27 7638   0.494   3.053   3.352  0.1032 -0.2423 -0.3441
   83SOPE   H7R 7639   0.418   3.022   3.277 -1.1290  0.8260  0.4216
   83SOPE   H7S 7640   0.526   2.965   3.413  0.9350 -0.7751 -1.5100
   83SOPE   C28 7641   0.432   3.162   3.445  1.0453  0.5909 -0.1506
   83SOPE   H8R 7642   0.509   3.228   3.490  0.8765  0.1896  0.7509
   83SOPE   H8S 7643   0.370   3.226   3.378 -0.6711  0.0889  0.8874
   83SOPE   C29 7644   0.349   3.101   3.557  0.5914 -0.3515 -0.1258
   83SOPE   H91 7645   0.247   3.064   3.539  0.2388  0.1692  0.7467
   83SOPE  C210 7646   0.397   3.082   3.680  0.2109 -0.7398  0.1604
   83SOPE  H101 7647   0.319   3.049   3.750  0.6435 -2.6851 -0.2191
   83SOPE  C211 7648   0.531   3.105   3.745 -0.4455  0.0940 -0.2816
   83SOPE  H11R 7649   0.527   3.179   3.828 -1.6991 -0.0021 -0.2406
   83SOPE  H11S 7650   0.602   3.141   3.668 -1.2448  1.0456 -0.5820
   83SOPE  C212 7651   0.590   2.978   3.809  0.6530  0.1749 -0.3722
   83SOPE  H12R 7652   0.521   2.927   3.879  0.3170 -0.3194 -1.0529
   83SOPE  H12S 7653   0.664   3.020   3.881 -0.5422 -1.0700  1.6904
   83SOPE  C213 7654   0.655   2.874   3.725 -0.1964  0.6652 -0.1294
   83SOPE  H13R 7655   0.593   2.832   3.643 -0.3530 -1.2049  0.8915
   83SOPE  H13S 7656   0.684   2.794   3.797 -1.2928 -0.8212 -1.2599
   83SOPE  C214 7657   0.793   2.923   3.649 -0.1904 -0.0039  0.5625
   83SOPE  H14R 7658   0.856   2.971   3.728  1.0911  0.3245 -0.6123
   83SOPE  H14S 7659   0.761   3.007   3.583  0.6790  2.4414  3.0408
   83SOPE  C215 7660   0.873   2.822   3.567 -0.8646 -0.1950 -0.0101
   83SOPE  H15R 7661   0.810   2.804   3.477 -0.7638  1.1936 -0.3816
   83SOPE  H15S 7662   0.888   2.719   3.607 -0.2296 -0.2995 -0.5053
   83SOPE  C216 7663   1.013   2.872   3.531 -0.5758  0.5948  0.8139
   83SOPE  H16R 7664   1.083   2.793   3.497  0.1052  2.3378 -2.1671
   83SOPE  H16S 7665   1.050   2.928   3.619 -2.3502  1.7922  0.8559
   83SOPE  C217 7666   1.005   2.977   3.412 -0.1613 -0.3123  0.3538
   83SOPE  H17R 7667   1.105   3.023   3.400 -1.1982  1.4501 -2.5081
   83SOPE  H17S 7668   0.924   3.051   3.428  0.0132  0.0860 -0.5445
   83SOPE  C218 7669   0.990   2.915   3.276  0.7708  0.4541 -0.0633
   83SOPE  H18R 7670   0.888   2.875   3.261  1.7289 -2.2318  0.1559
   83SOPE  H18S 7671   1.063   2.832   3.262  0.3573 -0.7169  3.5346
   83SOPE  H18T 7672   1.011   2.994   3.201  3.0456 -0.3281 -0.3456
   83SOPE   C33 7673   1.140   2.845   2.690 -0.0050  0.3547  0.0127
   83SOPE   H3X 7674   1.071   2.776   2.742  0.3931 -0.2701 -0.2733
   83SOPE   H3Y 7675   1.138   2.945   2.738  2.6253  0.9065 -0.8423
   83SOPE   C34 7676   1.275   2.779   2.701 -0.1378 -0.5968  0.3583
   83SOPE   H4X 7677   1.342   2.851   2.649 -0.4178  2.0788  3.4225
   83SOPE   H4Y 7678   1.270   2.681   2.649  1.2899  0.1015 -1.2080
   83SOPE   C35 7679   1.323   2.763   2.845 -0.7369  0.0267  0.7593
   83SOPE   H5X 7680   1.330   2.858   2.902  1.5087  0.1909  0.3275
   83SOPE   H5Y 7681   1.428   2.728   2.835 -0.9884 -0.2795 -1.2764
   83SOPE   C36 7682   1.259   2.656   2.927 -0.3888 -0.4620 -0.1435
   83SOPE   H6X 7683   1.240   2.564   2.868 -0.8113 -0.4865  0.0254
   83SOPE   H6Y 7684   1.160   2.694   2.961 -1.1512 -1.7334 -0.8707
   83SOPE   C37 7685   1.354   2.621   3.043  0.3420  0.5027 -0.4155
   83SOPE   H7X 7686   1.457   2.600   3.009  0.3238 -0.9759  0.3561
   83SOPE   H7Y 7687   1.322   2.521   3.079 -0.2282 -0.1065 -2.4762
   83SOPE   C38 7688   1.352   2.725   3.155 -0.9442  0.7358 -0.1550
   83SOPE   H8X 7689   1.250   2.763   3.174 -1.2983 -0.7049  1.0006
   83SOPE   H8Y 7690   1.407   2.813   3.114  0.6460 -0.5673 -0.9575
   83SOPE   C39 7691   1.418   2.677   3.289  0.6306 -0.9534 -0.3272
   83SOPE   H9X 7692   1.519   2.636   3.270  0.4626 -1.3698 -0.3245
   83SOPE   H9Y 7693   1.361   2.589   3.325  1.2924 -0.6869  1.4962
   83SOPE  C310 7694   1.421   2.785   3.401 -0.2470  0.2029  0.7909
   83SOPE  H10X 7695   1.319   2.827   3.411 -0.5152 -0.3614  0.4610
   83SOPE  H10Y 7696   1.485   2.870   3.368 -0.0677  0.1579  1.0221
   83SOPE  C311 7697   1.463   2.716   3.533  0.0832 -0.2090 -0.2888
   83SOPE  H11X 7698   1.500   2.798   3.596 -2.0941  2.1248 -1.8369
   83SOPE  H11Y 7699   1.542   2.639   3.520 -0.9467 -1.2425 -0.6803
   83SOPE  C312 7700   1.348   2.650   3.604 -0.0963 -0.1690 -0.3421
   83SOPE  H12X 7701   1.309   2.563   3.547  0.7915 -0.3360 -0.7034
   83SOPE  H12Y 7702   1.262   2.721   3.609  1.2564  1.5163 -0.0670
   83SOPE  C313 7703   1.364   2.608   3.751  0.4482  0.5539 -0.0190
   83SOPE  H13X 7704   1.414   2.687   3.812 -1.3153  0.3089  1.8727
   83SOPE  H13Y 7705   1.416   2.511   3.762 -1.9619 -1.0094 -1.6976
   83SOPE  C314 7706   1.226   2.598   3.826  0.3260 -0.5463 -0.3759
   83SOPE  H14X 7707   1.155   2.535   3.769  0.1742 -0.2631 -0.5018
   83SOPE  H14Y 7708   1.183   2.695   3.857  1.3106 -0.6058  1.3135
   83SOPE  C315 7709   1.244   2.530   3.968 -0.0624  0.1012  0.2829
   83SOPE  H15X 7710   1.327   2.576   4.024  0.3256 -2.2196  1.7291
   83SOPE  H15Y 7711   1.287   2.432   3.938  2.4639  1.2772 -0.2474
   83SOPE  C316 7712   1.121   2.512   4.052 -0.2371 -0.0665 -0.4022
   83SOPE  H16X 7713   1.060   2.605   4.046 -1.1356 -0.6012  0.2033
   83SOPE  H16Y 7714   1.155   2.512   4.158  0.1655 -2.3408 -0.4779
   83SOPE  C317 7715   1.047   2.387   4.015  0.8706 -0.1625 -0.0953
   83SOPE  H17X 7716   1.112   2.298   4.027 -0.1843 -0.8824  0.5040
   83SOPE  H17Y 7717   1.020   2.379   3.908  0.9242  1.6699 -0.2747
   83SOPE  C318 7718   0.916   2.367   4.096  0.2645  0.0824  0.3471
   83SOPE  H18X 7719   0.854   2.285   4.054 -2.4764 -0.3062  4.6291
   83SOPE  H18Y 7720   0.853   2.458   4.092  0.9836  0.5802  0.1577
   83SOPE  H18Z 7721   0.925   2.346   4.204  0.3609 -0.1531  0.2950
   84SOPE     N 7722   5.489   6.142   2.086 -0.0969  0.1779  0.6703
   84SOPE   HN1 7723   5.459   6.156   1.988 -1.4973 -3.9584  0.3147
   84SOPE   HN2 7724   5.473   6.040   2.095 -0.5450  0.1650 -0.2510
   84SOPE   HN3 7725   5.428   6.195   2.152 -1.1664  2.2567 -1.8229
   84SOPE   C12 7726   5.633   6.163   2.101 -0.2127 -0.2897 -0.2402
   84SOPE  H12A 7727   5.656   6.263   2.059  0.2644 -0.7752 -1.1472
   84SOPE  H12B 7728   5.690   6.086   2.045  2.1784 -0.4345  2.1436
   84SOPE   C11 7729   5.680   6.157   2.252 -0.3214  0.0119  0.5480
   84SOPE  H11A 7730   5.790   6.144   2.261 -0.2192 -1.1166 -1.6045
   84SOPE  H11B 7731   5.634   6.069   2.301 -0.3567  0.2931  1.0258
   84SOPE     P 7732   5.713   6.380   2.398  0.3853  0.2246  0.2324
   84SOPE   O13 7733   5.614   6.491   2.434 -0.1036  0.2961  0.2190
   84SOPE   O14 7734   5.839   6.416   2.328 -0.6840 -0.4284 -0.2303
   84SOPE   O12 7735   5.634   6.274   2.313  0.0775 -0.1144  0.2488
   84SOPE   O11 7736   5.751   6.296   2.520 -0.4077  0.4700 -0.0618
   84SOPE    C1 7737   5.861   6.315   2.601  0.2729 -0.1250 -0.3452
   84SOPE    HA 7738   5.946   6.342   2.536 -0.1033 -0.2344 -0.8871
   84SOPE    HB 7739   5.883   6.213   2.640  1.0931  0.3048  0.3391
   84SOPE    C2 7740   5.838   6.405   2.732  0.1806 -0.2222 -0.0818
   84SOPE    HS 7741   5.777   6.342   2.800 -2.7003  0.4618 -1.8567
   84SOPE   O21 7742   5.771   6.525   2.694  0.1913 -0.3626  0.0563
   84SOPE   C21 7743   5.658   6.552   2.760  0.5996 -0.1442  0.0316
   84SOPE   O22 7744   5.604   6.480   2.840  0.3915 -0.3126 -0.4814
   84SOPE   C22 7745   5.603   6.680   2.706  0.0514  0.6645 -0.3121
   84SOPE   H2R 7746   5.495   6.656   2.698  0.4966 -2.1672  0.7463
   84SOPE   H2S 7747   5.657   6.708   2.613  1.0903 -1.5524 -0.4530
   84SOPE    C3 7748   5.978   6.454   2.781 -0.5223 -0.2387  0.0232
   84SOPE    HX 7749   6.026   6.524   2.709 -0.4349 -0.4807 -0.1551
   84SOPE    HY 7750   6.043   6.364   2.782 -0.1570  0.0220  0.9972
   84SOPE   O31 7751   5.967   6.515   2.915  0.4988  0.6475 -0.8552
   84SOPE   C31 7752   5.957   6.422   3.012  0.1958  0.7624 -0.4203
   84SOPE   O32 7753   5.970   6.299   2.999  0.0739  0.6947 -0.2990
   84SOPE   C32 7754   5.941   6.476   3.154  0.2843 -1.4337  0.1995
   84SOPE   H2X 7755   5.915   6.396   3.227 -1.4037 -1.9819 -0.9420
   84SOPE   H2Y 7756   5.859   6.551   3.151  0.7135 -0.9008  1.2161
   84SOPE   C23 7757   5.618   6.788   2.808 -0.0820 -0.1634 -0.1174
   84SOPE   H3R 7758   5.724   6.819   2.809 -0.4066  1.0048 -0.8885
   84SOPE   H3S 7759   5.575   6.762   2.908 -0.6063 -0.0696 -0.3166
   84SOPE   C24 7760   5.542   6.909   2.767 -0.2939 -0.0512 -0.3015
   84SOPE   H4R 7761   5.610   6.968   2.701  0.6481 -0.7124  0.0575
   84SOPE   H4S 7762   5.446   6.892   2.714 -0.7687 -0.5990  0.7183
   84SOPE   C25 7763   5.508   7.000   2.892 -0.1573 -0.5010 -0.2840
   84SOPE   H5R 7764   5.443   7.082   2.854 -1.2140 -1.4912 -0.6896
   84SOPE   H5S 7765   5.447   6.940   2.963  2.2417 -2.4635  0.2617
   84SOPE   C26 7766   5.625   7.066   2.969  0.4633 -0.4744  0.2100
   84SOPE   H6R 7767   5.684   6.981   3.008  0.8253 -0.8957 -1.2059
   84SOPE   H6S 7768   5.691   7.116   2.894  0.1326  1.0232  0.8716
   84SOPE   C27 7769   5.583   7.177   3.067  0.1095  1.0810 -0.5538
   84SOPE   H7R 7770   5.675   7.236   3.088 -0.1766  0.9782  1.1339
   84SOPE   H7S 7771   5.507   7.248   3.025  0.7005  1.6235 -0.7273
   84SOPE   C28 7772   5.546   7.119   3.204 -0.4754  0.0356  0.5205
   84SOPE   H8R 7773   5.458   7.052   3.195 -0.7524  0.6469 -2.3195
   84SOPE   H8S 7774   5.638   7.077   3.251  0.9588  2.2343 -0.1791
   84SOPE   C29 7775   5.494   7.237   3.286  0.9105  0.1297 -0.2272
   84SOPE   H91 7776   5.387   7.263   3.297  0.9437  0.6471 -1.0183
   84SOPE  C210 7777   5.571   7.313   3.371  1.1807  0.0123  0.2228
   84SOPE  H101 7778   5.523   7.402   3.415  0.4089  0.2349 -1.0001
   84SOPE  C211 7779   5.720   7.300   3.386 -0.7623 -0.1154  0.6245
   84SOPE  H11R 7780   5.758   7.404   3.388 -0.3557 -0.2687  1.1265
   84SOPE  H11S 7781   5.764   7.259   3.293  0.5184  3.1262 -0.3163
   84SOPE  C212 7782   5.790   7.213   3.497  0.1038 -0.6726 -0.3820
   84SOPE  H12R 7783   5.897   7.241   3.486 -0.4725  1.7366 -0.5409
   84SOPE  H12S 7784   5.771   7.106   3.474  1.2633 -0.4816 -2.4494
   84SOPE  C213 7785   5.740   7.253   3.643 -0.0650 -0.0513 -0.1440
   84SOPE  H13R 7786   5.641   7.212   3.670  0.5012 -0.5057  1.3230
   84SOPE  H13S 7787   5.738   7.364   3.653  0.1888 -0.0450 -0.1475
   84SOPE  C214 7788   5.838   7.196   3.745 -1.1260  0.1393  0.4622
   84SOPE  H14R 7789   5.944   7.215   3.717 -1.1079 -0.8860 -0.2081
   84SOPE  H14S 7790   5.823   7.087   3.764 -3.3123  0.0840 -1.1895
   84SOPE  C215 7791   5.831   7.261   3.880 -0.6932 -0.7472  0.2857
   84SOPE  H15R 7792   5.875   7.361   3.860  1.4965 -1.7035 -0.0091
   84SOPE  H15S 7793   5.902   7.216   3.953  0.5902 -0.5608 -0.8064
   84SOPE  C216 7794   5.683   7.263   3.938  0.0795 -0.1236 -0.7816
   84SOPE  H16R 7795   5.653   7.157   3.952  2.4147 -0.8089 -0.4679
   84SOPE  H16S 7796   5.617   7.320   3.869 -3.2698 -0.2045  2.1054
   84SOPE  C217 7797   5.667   7.331   4.077 -0.5523 -0.4778 -0.5531
   84SOPE  H17R 7798   5.565   7.369   4.100 -0.1168 -0.3437  1.2846
   84SOPE  H17S 7799   5.741   7.413   4.066 -0.6953 -0.3160 -0.3286
   84SOPE  C218 7800   5.711   7.251   4.201 -0.1416 -0.0744 -0.2969
   84SOPE  H18R 7801   5.688   7.312   4.291 -2.9733  1.2025 -1.7446
   84SOPE  H18S 7802   5.816   7.218   4.185 -1.1820 -3.2303 -1.3391
   84SOPE  H18T 7803   5.655   7.156   4.209  3.3353 -2.1450  1.9523
   84SOPE   C33 7804   6.079   6.533   3.187 -0.7640 -0.7591 -0.0906
   84SOPE   H3X 7805   6.119   6.608   3.116  1.2539 -0.9551  0.7657
   84SOPE   H3Y 7806   6.155   6.454   3.171 -0.5984 -1.2895  2.8250
   84SOPE   C34 7807   6.093   6.588   3.329  0.2248 -0.2645 -0.5882
   84SOPE   H4X 7808   6.045   6.686   3.350 -1.5047 -1.1575 -0.1527
   84SOPE   H4Y 7809   6.196   6.617   3.356  0.4095  0.7328 -2.2000
   84SOPE   C35 7810   6.049   6.496   3.437  1.1062  0.1928  0.2702
   84SOPE   H5X 7811   6.084   6.393   3.411  0.1397  0.3516 -1.8901
   84SOPE   H5Y 7812   5.942   6.474   3.418  1.1415  1.0811 -1.0599
   84SOPE   C36 7813   6.092   6.537   3.575  0.6998  0.2740 -0.3089
   84SOPE   H6X 7814   6.034   6.622   3.616 -0.6602 -1.1552  0.8479
   84SOPE   H6Y 7815   6.197   6.572   3.564  1.3993 -0.8065  2.2852
   84SOPE   C37 7816   6.088   6.416   3.683  0.0362 -0.6434  0.2971
   84SOPE   H7X 7817   6.146   6.325   3.657  0.2462 -0.3227 -0.3890
   84SOPE   H7Y 7818   5.981   6.390   3.688 -0.0916 -0.2442 -0.3232
   84SOPE   C38 7819   6.134   6.479   3.820  0.0783  1.0377  0.2870
   84SOPE   H8X 7820   6.091   6.580   3.838 -1.0380  0.4326  1.1782
   84SOPE   H8Y 7821   6.245   6.480   3.818  0.1003 -0.3349 -0.6991
   84SOPE   C39 7822   6.077   6.399   3.936 -0.1843  0.3040 -0.2185
   84SOPE   H9X 7823   6.102   6.291   3.931 -0.8938  0.1725 -1.3102
   84SOPE   H9Y 7824   5.966   6.402   3.936 -0.2526  0.1926  2.5382
   84SOPE  C310 7825   6.124   6.461   4.071 -0.2387 -1.0228 -0.8291
   84SOPE  H10X 7826   6.105   6.569   4.054 -0.7343 -0.5787  2.0496
   84SOPE  H10Y 7827   6.233   6.441   4.084 -0.0977 -0.1685 -0.6367
   84SOPE  C311 7828   6.046   6.416   4.197  0.1554  0.4728 -0.0589
   84SOPE  H11X 7829   6.055   6.306   4.206 -1.3663  0.3357 -0.0866
   84SOPE  H11Y 7830   5.938   6.430   4.174 -0.2139 -0.1247  1.2512
   84SOPE  C312 7831   6.084   6.477   4.333 -0.3405 -0.4505  0.2990
   84SOPE  H12X 7832   6.097   6.585   4.313 -2.0797 -0.5218 -1.5587
   84SOPE  H12Y 7833   6.181   6.435   4.365 -0.3836  0.1846  1.2786
   84SOPE  C313 7834   5.974   6.449   4.439  0.6224  0.0723 -0.0346
   84SOPE  H13X 7835   5.953   6.340   4.442 -0.7302  0.3179 -0.1970
   84SOPE  H13Y 7836   5.888   6.512   4.410  0.6750  0.1984  0.0756
   84SOPE  C314 7837   6.026   6.516   4.571 -0.0286 -0.3360  0.4371
   84SOPE  H14X 7838   6.104   6.591   4.545  1.4847 -1.9737  0.0744
   84SOPE  H14Y 7839   6.086   6.437   4.621 -1.2141 -0.3443  1.9049
   84SOPE  C315 7840   5.909   6.565   4.656  0.6926 -0.1053 -0.0040
   84SOPE  H15X 7841   5.958   6.591   4.752  2.6467 -1.3035 -0.6175
   84SOPE  H15Y 7842   5.822   6.496   4.663  0.5826  0.1916  2.2849
   84SOPE  C316 7843   5.848   6.695   4.602 -0.1792  0.5261  0.1939
   84SOPE  H16X 7844   5.779   6.674   4.518 -0.8191  0.0052  0.8357
   84SOPE  H16Y 7845   5.927   6.771   4.585  0.1833 -0.0246 -0.6287
   84SOPE  C317 7846   5.750   6.754   4.708 -0.9162 -0.4020 -0.2362
   84SOPE  H17X 7847   5.806   6.777   4.801  1.4278 -1.2522 -1.3518
   84SOPE  H17Y 7848   5.673   6.682   4.743 -1.8703  1.5453  1.9296
   84SOPE  C318 7849   5.681   6.883   4.659 -0.4928 -0.1200  0.1008
   84SOPE  H18X 7850   5.760   6.958   4.638 -0.4872  0.1298  0.9460
   84SOPE  H18Y 7851   5.612   6.930   4.733  0.2547 -0.3835  0.9981
   84SOPE  H18Z 7852   5.619   6.850   4.573 -0.2284 -1.2330  0.3167
   85SOPE     N 7853   0.176   4.923   2.711 -0.0520 -0.1729 -0.0772
   85SOPE   HN1 7854   0.128   4.889   2.797 -0.1204  1.2756  0.4884
   85SOPE   HN2 7855   0.201   4.836   2.660 -0.1191  0.6346 -1.5292
   85SOPE   HN3 7856   0.262   4.980   2.726  0.6392 -0.3165 -2.9077
   85SOPE   C12 7857   0.088   5.000   2.618  0.3826 -0.1975  0.4986
   85SOPE  H12A 7858   0.149   5.078   2.568 -0.2609 -0.4809 -0.7635
   85SOPE  H12B 7859   0.003   5.045   2.674 -0.1278 -0.0340 -0.3873
   85SOPE   C11 7860   0.036   4.908   2.500 -0.0245 -0.5563 -0.3372
   85SOPE  H11A 7861   0.123   4.874   2.441 -0.3425  0.2026 -1.2674
   85SOPE  H11B 7862  -0.032   4.964   2.433 -0.2602  1.0715  1.1701
   85SOPE     P 7863  -0.097   4.686   2.441  0.1382  0.1655 -0.0032
   85SOPE   O13 7864   0.008   4.647   2.353  0.2880 -0.1688 -0.2872
   85SOPE   O14 7865  -0.234   4.705   2.384  0.5302 -0.6321 -0.4688
   85SOPE   O12 7866  -0.049   4.799   2.542 -0.1660  0.1489  0.6143
   85SOPE   O11 7867  -0.108   4.564   2.540  0.0183 -0.7491  0.1597
   85SOPE    C1 7868  -0.006   4.541   2.637  0.1308 -0.1589  0.3553
   85SOPE    HA 7869   0.008   4.632   2.700 -0.6510  0.3298 -0.1443
   85SOPE    HB 7870   0.090   4.518   2.586 -0.1853  1.3015 -1.0007
   85SOPE    C2 7871  -0.032   4.425   2.735 -0.3535 -0.2015 -0.2850
   85SOPE    HS 7872  -0.064   4.336   2.675  1.8317 -2.0339  1.1026
   85SOPE   O21 7873  -0.133   4.472   2.829  0.1636 -0.6363 -0.5598
   85SOPE   C21 7874  -0.243   4.404   2.827  0.3427  0.2615 -0.1722
   85SOPE   O22 7875  -0.278   4.319   2.750  0.5536  0.1440 -0.5199
   85SOPE   C22 7876  -0.320   4.452   2.953  0.9296 -0.2524  0.3467
   85SOPE   H2R 7877  -0.367   4.362   2.999  1.1567 -1.7073 -2.1081
   85SOPE   H2S 7878  -0.407   4.511   2.918  0.4898 -0.8904  0.3394
   85SOPE    C3 7879   0.097   4.384   2.807 -0.2997 -0.3398 -0.0050
   85SOPE    HX 7880   0.146   4.470   2.855  0.7664 -1.4867  1.0340
   85SOPE    HY 7881   0.175   4.345   2.738  1.1152  0.1942  1.2397
   85SOPE   O31 7882   0.070   4.290   2.912 -0.3573  0.0916  0.1014
   85SOPE   C31 7883   0.175   4.215   2.942  0.5255 -0.1780  0.0506
   85SOPE   O32 7884   0.280   4.211   2.880  0.9418  0.5343 -0.4946
   85SOPE   C32 7885   0.137   4.135   3.071  0.4339  1.0191  0.5188
   85SOPE   H2X 7886   0.141   4.032   3.030 -0.8960  0.6086  1.3850
   85SOPE   H2Y 7887   0.030   4.157   3.089  0.2365  0.1909  0.4022
   85SOPE   C23 7888  -0.243   4.536   3.057 -0.3040 -0.8785  0.4114
   85SOPE   H3R 7889  -0.227   4.636   3.012 -0.6971 -0.9902  0.0085
   85SOPE   H3S 7890  -0.141   4.492   3.056  1.6096  3.1415 -0.0153
   85SOPE   C24 7891  -0.307   4.539   3.196 -0.7213 -0.1427  1.3289
   85SOPE   H4R 7892  -0.406   4.588   3.180 -0.6545 -0.7160 -1.1409
   85SOPE   H4S 7893  -0.314   4.436   3.238 -1.1819 -1.2492 -1.2739
   85SOPE   C25 7894  -0.219   4.630   3.290  0.1870  0.1650 -0.1474
   85SOPE   H5R 7895  -0.118   4.587   3.302  0.2758 -0.3346 -2.2634
   85SOPE   H5S 7896  -0.192   4.720   3.230  0.5684 -0.0949 -0.3655
   85SOPE   C26 7897  -0.285   4.655   3.426 -0.4572  0.0905  0.1263
   85SOPE   H6R 7898  -0.352   4.743   3.418  0.6856  0.9663 -0.1214
   85SOPE   H6S 7899  -0.335   4.571   3.478 -0.0271 -1.3808 -1.7194
   85SOPE   C27 7900  -0.178   4.693   3.529  0.0608 -0.3293 -0.4629
   85SOPE   H7R 7901  -0.118   4.605   3.562  0.5248  0.3090  0.4282
   85SOPE   H7S 7902  -0.113   4.773   3.487  0.5930 -0.5646 -0.0936
   85SOPE   C28 7903  -0.245   4.759   3.655  0.0893 -0.1177 -0.8248
   85SOPE   H8R 7904  -0.151   4.775   3.712  0.7243 -1.3883 -1.4648
   85SOPE   H8S 7905  -0.306   4.850   3.635  0.7246  0.6298  0.5330
   85SOPE   C29 7906  -0.330   4.659   3.727 -0.9802  0.1209  0.3875
   85SOPE   H91 7907  -0.417   4.640   3.663 -0.7022  1.2458 -0.3468
   85SOPE  C210 7908  -0.313   4.595   3.844  0.0335  0.1471 -0.0412
   85SOPE  H101 7909  -0.393   4.522   3.860 -1.2076  1.0757 -1.7163
   85SOPE  C211 7910  -0.198   4.603   3.945 -0.2467 -0.1856  0.1321
   85SOPE  H11R 7911  -0.140   4.698   3.942  0.3496 -0.4301  2.4074
   85SOPE  H11S 7912  -0.123   4.523   3.929 -0.6959 -0.1807 -2.6682
   85SOPE  C212 7913  -0.256   4.605   4.084 -0.2488 -0.3771  0.1457
   85SOPE  H12R 7914  -0.313   4.510   4.091  0.3462 -0.8210 -0.7962
   85SOPE  H12S 7915  -0.334   4.685   4.084 -0.9255 -1.0231 -0.0884
   85SOPE  C213 7916  -0.153   4.620   4.194  0.9464 -0.3691 -0.2863
   85SOPE  H13R 7917  -0.079   4.698   4.165  0.4042 -0.5399 -2.3285
   85SOPE  H13S 7918  -0.098   4.524   4.206  0.8964 -0.6180 -1.8015
   85SOPE  C214 7919  -0.216   4.641   4.336 -0.5271 -0.3446  0.7437
   85SOPE  H14R 7920  -0.130   4.651   4.406 -2.1467 -1.7314  3.0459
   85SOPE  H14S 7921  -0.272   4.551   4.367 -2.4457  1.1198  1.7838
   85SOPE  C215 7922  -0.303   4.767   4.352  0.1600 -0.6468  0.1044
   85SOPE  H15R 7923  -0.398   4.748   4.298 -0.2451  0.4503  0.4179
   85SOPE  H15S 7924  -0.250   4.850   4.301  0.7622 -0.8777  0.3328
   85SOPE  C216 7925  -0.333   4.811   4.495  0.2871  0.3424 -1.0783
   85SOPE  H16R 7926  -0.384   4.732   4.554  0.2680  1.0359 -0.1460
   85SOPE  H16S 7927  -0.402   4.897   4.505 -2.3489 -1.8366  0.9801
   85SOPE  C217 7928  -0.202   4.843   4.569 -0.4687  0.3317 -0.3094
   85SOPE  H17R 7929  -0.135   4.894   4.497  1.6820 -1.6409  0.1965
   85SOPE  H17S 7930  -0.163   4.745   4.601  0.2877  0.2104 -1.5164
   85SOPE  C218 7931  -0.198   4.934   4.698  0.0898  0.1415  0.1744
   85SOPE  H18R 7932  -0.092   4.931   4.731 -0.0653 -2.9141  0.7413
   85SOPE  H18S 7933  -0.256   4.884   4.778  2.8978 -0.7758  1.7677
   85SOPE  H18T 7934  -0.237   5.034   4.672  1.2301  0.4249 -0.5114
   85SOPE   C33 7935   0.230   4.154   3.191  0.3620 -0.6191  0.5856
   85SOPE   H3X 7936   0.333   4.166   3.152 -0.4923 -0.8436 -1.9275
   85SOPE   H3Y 7937   0.216   4.065   3.255 -1.8382 -0.9439 -0.2467
   85SOPE   C34 7938   0.203   4.282   3.276  0.2644 -0.5095  0.2361
   85SOPE   H4X 7939   0.209   4.370   3.209 -2.0090 -0.1027  0.4779
   85SOPE   H4Y 7940   0.285   4.298   3.350 -1.4236 -0.0080  2.1001
   85SOPE   C35 7941   0.068   4.288   3.345  0.2422  0.0809  0.2262
   85SOPE   H5X 7942  -0.011   4.262   3.272 -0.3172  0.8865  0.5255
   85SOPE   H5Y 7943   0.052   4.395   3.371  1.4989  0.2199  0.5215
   85SOPE   C36 7944   0.062   4.206   3.471 -0.0858 -0.1880  0.1029
   85SOPE   H6X 7945   0.134   4.251   3.543 -0.3707  0.5667 -0.0765
   85SOPE   H6Y 7946   0.103   4.105   3.451 -0.0891 -0.5455  1.7707
   85SOPE   C37 7947  -0.067   4.195   3.533  0.9725  0.1474 -0.1460
   85SOPE   H7X 7948  -0.059   4.144   3.631  0.3906  0.2083 -0.0636
   85SOPE   H7Y 7949  -0.128   4.122   3.476  0.8339  1.0016 -1.1216
   85SOPE   C38 7950  -0.159   4.321   3.545 -0.0382  0.1113  0.5412
   85SOPE   H8X 7951  -0.171   4.365   3.444  1.1583 -0.6789  0.0297
   85SOPE   H8Y 7952  -0.110   4.393   3.615  1.3473  1.2675 -1.5037
   85SOPE   C39 7953  -0.297   4.286   3.599 -0.2810  0.2110 -0.1420
   85SOPE   H9X 7954  -0.354   4.205   3.549 -1.6279  1.2317 -0.3149
   85SOPE   H9Y 7955  -0.368   4.371   3.601 -0.4601  0.1054 -1.1914
   85SOPE  C310 7956  -0.290   4.240   3.742 -0.1439  0.3426  0.5936
   85SOPE  H10X 7957  -0.249   4.322   3.804  2.1873 -0.2343 -0.0748
   85SOPE  H10Y 7958  -0.213   4.161   3.751  0.8586  0.8042 -2.6416
   85SOPE  C311 7959  -0.420   4.201   3.801 -0.4115  0.0754 -0.0178
   85SOPE  H11X 7960  -0.447   4.102   3.757  1.5095 -0.9127  0.9260
   85SOPE  H11Y 7961  -0.505   4.269   3.778 -1.7069 -1.4358  0.1328
   85SOPE  C312 7962  -0.422   4.181   3.955 -0.0993  0.1559  0.3866
   85SOPE  H12X 7963  -0.525   4.150   3.984 -0.8403  1.5356 -0.5997
   85SOPE  H12Y 7964  -0.402   4.280   4.003  0.2232  1.3044 -1.9892
   85SOPE  C313 7965  -0.330   4.067   3.999  0.1792 -0.2663  0.3686
   85SOPE  H13X 7966  -0.236   4.073   3.941  0.1488 -1.5966  0.1553
   85SOPE  H13Y 7967  -0.376   3.970   3.971 -1.4144  0.6796 -0.4567
   85SOPE  C314 7968  -0.304   4.076   4.151  0.4923  0.1602  0.6080
   85SOPE  H14X 7969  -0.248   4.169   4.172  0.8214  0.7354 -2.4169
   85SOPE  H14Y 7970  -0.234   3.991   4.165 -0.1386  0.1093  5.0056
   85SOPE  C315 7971  -0.428   4.056   4.232  0.4242 -0.0139  0.4997
   85SOPE  H15X 7972  -0.465   3.954   4.211 -0.2780  0.4587 -0.6406
   85SOPE  H15Y 7973  -0.511   4.120   4.195  0.0243 -0.8904 -0.1615
   85SOPE  C316 7974  -0.406   4.055   4.383  0.0848  0.3790 -0.4720
   85SOPE  H16X 7975  -0.345   4.144   4.410 -0.4029  0.3533  0.7779
   85SOPE  H16Y 7976  -0.354   3.960   4.408  2.8562  2.1334  0.9442
   85SOPE  C317 7977  -0.530   4.043   4.475  0.3138 -0.3746  0.5589
   85SOPE  H17X 7978  -0.489   4.017   4.575  0.2088 -0.1293  0.6661
   85SOPE  H17Y 7979  -0.591   3.959   4.436  1.4690 -0.5974 -0.8596
   85SOPE  C318 7980  -0.618   4.163   4.483 -0.4292  0.3717  0.1800
   85SOPE  H18X 7981  -0.637   4.205   4.382  0.6996 -0.7734 -0.5369
   85SOPE  H18Y 7982  -0.577   4.239   4.552  1.9392  0.9751 -1.7782
   85SOPE  H18Z 7983  -0.719   4.136   4.521 -0.9870  2.1801  0.0689
   86SOPE     N 7984   5.126   1.702   1.824 -0.7235  0.0331  0.1355
   86SOPE   HN1 7985   5.039   1.645   1.822 -0.8304  0.2137 -1.4861
   86SOPE   HN2 7986   5.124   1.774   1.749  2.3281 -0.6887 -0.8004
   86SOPE   HN3 7987   5.208   1.640   1.807  0.2820  1.6294 -1.1375
   86SOPE   C12 7988   5.132   1.756   1.963  0.2301  0.2287 -0.3134
   86SOPE  H12A 7989   5.047   1.826   1.977 -0.5891 -0.8568  0.3041
   86SOPE  H12B 7990   5.222   1.822   1.963 -1.6743  3.0142 -1.9813
   86SOPE   C11 7991   5.149   1.641   2.068  0.6047  0.5624 -0.3048
   86SOPE  H11A 7992   5.142   1.691   2.167 -0.3689  0.1112 -0.1255
   86SOPE  H11B 7993   5.250   1.594   2.074  0.3461  0.1766  1.8209
   86SOPE     P 7994   5.078   1.396   2.015  0.0015 -0.2984 -0.4417
   86SOPE   O13 7995   5.123   1.394   1.875 -0.6952  0.4210 -0.0115
   86SOPE   O14 7996   4.945   1.329   2.037 -0.1466 -0.0163 -0.6741
   86SOPE   O12 7997   5.048   1.540   2.062  0.2453  0.2445 -0.1366
   86SOPE   O11 7998   5.184   1.322   2.101 -0.7552 -0.8169 -0.7920
   86SOPE    C1 7999   5.151   1.243   2.219  0.0447 -0.4779 -0.0613
   86SOPE    HA 8000   5.242   1.186   2.248  3.2671  4.6266  1.2078
   86SOPE    HB 8001   5.060   1.180   2.217 -2.3482  2.4998  2.9746
   86SOPE    C2 8002   5.131   1.326   2.348 -0.0794 -0.3552  0.3919
   86SOPE    HS 8003   5.032   1.376   2.339 -0.7547 -1.2234  2.2346
   86SOPE   O21 8004   5.227   1.430   2.365 -0.0208 -0.2533  0.1678
   86SOPE   C21 8005   5.351   1.406   2.407  0.4695  0.1914  0.4493
   86SOPE   O22 8006   5.398   1.296   2.428  0.0542  0.2023  0.7733
   86SOPE   C22 8007   5.430   1.536   2.412  0.3423  0.7136 -0.0037
   86SOPE   H2R 8008   5.367   1.625   2.436  2.6156  1.8485  2.2327
   86SOPE   H2S 8009   5.483   1.545   2.315  0.8188  0.4587  0.2348
   86SOPE    C3 8010   5.119   1.236   2.478 -0.3675  0.5475 -0.1749
   86SOPE    HX 8011   5.200   1.163   2.500 -1.1441 -0.1391  0.4827
   86SOPE    HY 8012   5.038   1.166   2.449  0.5728  0.3248 -2.5225
   86SOPE   O31 8013   5.092   1.298   2.604 -0.1485 -0.2452  0.1339
   86SOPE   C31 8014   5.025   1.230   2.688  0.2345  0.5016  0.9235
   86SOPE   O32 8015   5.003   1.109   2.692  0.5070 -0.4282 -0.3472
   86SOPE   C32 8016   4.976   1.320   2.794 -0.3713  0.6648 -0.0039
   86SOPE   H2X 8017   4.870   1.293   2.817  0.1143 -2.4628 -0.9146
   86SOPE   H2Y 8018   4.979   1.430   2.777  0.4839  0.6887  0.2580
   86SOPE   C23 8019   5.528   1.535   2.536  0.5515 -0.2916  0.5079
   86SOPE   H3R 8020   5.576   1.635   2.547 -3.0442  1.5921  0.6660
   86SOPE   H3S 8021   5.604   1.459   2.509  1.0112  0.7975 -1.4822
   86SOPE   C24 8022   5.465   1.501   2.667 -0.0057 -0.1299  0.5110
   86SOPE   H4R 8023   5.370   1.558   2.674  0.2478  0.1933  1.4985
   86SOPE   H4S 8024   5.438   1.395   2.681  1.5683 -0.4794  1.1476
   86SOPE   C25 8025   5.548   1.554   2.785 -0.3867 -1.0578  0.0860
   86SOPE   H5R 8026   5.652   1.515   2.778 -0.5983 -1.6006 -0.0234
   86SOPE   H5S 8027   5.550   1.664   2.769  1.3405 -1.0252  0.3181
   86SOPE   C26 8028   5.488   1.517   2.925 -0.3109 -0.1570 -0.5342
   86SOPE   H6R 8029   5.547   1.564   3.006 -0.2026 -3.3104  1.3862
   86SOPE   H6S 8030   5.394   1.573   2.948  0.5047  0.9158  0.2847
   86SOPE   C27 8031   5.481   1.367   2.936  0.1524  0.0201 -0.3506
   86SOPE   H7R 8032   5.394   1.345   2.870 -1.8129  1.7616  1.4874
   86SOPE   H7S 8033   5.565   1.307   2.895 -0.2180 -0.6386 -0.1727
   86SOPE   C28 8034   5.440   1.326   3.078 -0.2092 -0.1335  0.7962
   86SOPE   H8R 8035   5.386   1.405   3.134  1.1478 -0.7669  3.1343
   86SOPE   H8S 8036   5.361   1.250   3.059 -1.4241  1.1597  0.4910
   86SOPE   C29 8037   5.539   1.257   3.169  0.1724  0.1365 -0.0742
   86SOPE   H91 8038   5.611   1.187   3.124  0.8521 -0.1770  1.4377
   86SOPE  C210 8039   5.541   1.258   3.301 -0.8033  0.3819 -0.4772
   86SOPE  H101 8040   5.601   1.188   3.361 -0.5381  2.3150  1.6450
   86SOPE  C211 8041   5.446   1.339   3.385 -0.2930 -0.3123  0.5516
   86SOPE  H11R 8042   5.350   1.288   3.407 -1.1240  0.3710 -1.2853
   86SOPE  H11S 8043   5.410   1.426   3.326  1.8091 -0.2407 -0.7260
   86SOPE  C212 8044   5.500   1.385   3.521 -0.3319  0.6892 -0.8365
   86SOPE  H12R 8045   5.426   1.454   3.567 -0.7879 -0.8151  0.8127
   86SOPE  H12S 8046   5.596   1.439   3.513 -0.9258  2.8788  3.6728
   86SOPE  C213 8047   5.521   1.264   3.621 -0.1435 -0.0069 -0.0288
   86SOPE  H13R 8048   5.616   1.210   3.601 -0.0055  0.8222 -1.8063
   86SOPE  H13S 8049   5.431   1.198   3.617 -1.3066  1.5017  0.4176
   86SOPE  C214 8050   5.533   1.316   3.765  0.1796 -0.6012 -0.9217
   86SOPE  H14R 8051   5.511   1.234   3.837  1.5018 -1.2533 -1.2331
   86SOPE  H14S 8052   5.479   1.414   3.766 -0.1031 -0.7537  0.5795
   86SOPE  C215 8053   5.682   1.342   3.804 -0.7535  0.3782  0.3531
   86SOPE  H15R 8054   5.757   1.272   3.761  1.4703  1.6808  1.8609
   86SOPE  H15S 8055   5.687   1.319   3.913 -2.5224 -1.6082  0.0727
   86SOPE  C216 8056   5.731   1.489   3.775 -0.2890 -0.2655  0.0394
   86SOPE  H16R 8057   5.662   1.562   3.823  0.0564 -0.2059  0.4555
   86SOPE  H16S 8058   5.723   1.516   3.668 -1.0617  0.9498  0.3891
   86SOPE  C217 8059   5.860   1.523   3.848  0.8786  0.6939  0.5702
   86SOPE  H17R 8060   5.852   1.498   3.956  1.2358 -1.0424  0.2287
   86SOPE  H17S 8061   5.886   1.630   3.839  1.6462  0.4760  0.0745
   86SOPE  C218 8062   5.977   1.444   3.796 -0.1820  0.0869  0.3925
   86SOPE  H18R 8063   5.956   1.336   3.806  0.9825 -0.2907 -0.8875
   86SOPE  H18S 8064   6.068   1.460   3.858 -0.8668 -0.2851  1.5097
   86SOPE  H18T 8065   5.998   1.451   3.687  1.9440  0.6550  0.7830
   86SOPE   C33 8066   5.060   1.290   2.919  0.0532  0.0783 -0.3018
   86SOPE   H3X 8067   5.159   1.341   2.914  0.2681 -0.2448  0.5094
   86SOPE   H3Y 8068   5.070   1.180   2.928  0.7271  0.1704  0.2345
   86SOPE   C34 8069   4.988   1.337   3.054  0.0522  0.0160 -0.1001
   86SOPE   H4X 8070   4.899   1.277   3.084  1.3018 -1.4597  0.8265
   86SOPE   H4Y 8071   4.942   1.436   3.038 -0.7243  0.1406  2.4731
   86SOPE   C35 8072   5.076   1.344   3.180 -0.5570 -0.2458  0.2992
   86SOPE   H5X 8073   5.128   1.442   3.171  1.2438 -1.2204 -0.4231
   86SOPE   H5Y 8074   5.147   1.258   3.182  1.5489  1.3909  2.5900
   86SOPE   C36 8075   4.992   1.359   3.309  0.5206  0.3617 -0.0296
   86SOPE   H6X 8076   4.911   1.284   3.300  0.2869  0.7224 -0.9782
   86SOPE   H6Y 8077   4.940   1.457   3.317  1.7911  1.1074 -0.5647
   86SOPE   C37 8078   5.078   1.333   3.439 -0.3920  0.4350  0.2372
   86SOPE   H7X 8079   5.161   1.407   3.434  1.9122 -2.0288 -0.3177
   86SOPE   H7Y 8080   5.128   1.236   3.422 -0.0411  0.9365 -1.9164
   86SOPE   C38 8081   5.002   1.330   3.571  0.2593  0.6554  0.1292
   86SOPE   H8X 8082   4.955   1.229   3.566  0.6391  0.4363  0.9235
   86SOPE   H8Y 8083   4.927   1.412   3.577  0.6122  0.9181  1.2026
   86SOPE   C39 8084   5.103   1.339   3.688  0.1416 -0.2778  0.1815
   86SOPE   H9X 8085   5.145   1.442   3.699  1.2339 -0.5351 -1.2410
   86SOPE   H9Y 8086   5.187   1.279   3.647  0.5090  0.8808 -0.8308
   86SOPE  C310 8087   5.056   1.290   3.827  0.0801  0.5899  0.5169
   86SOPE  H10X 8088   5.029   1.185   3.805  1.4174  0.2619  0.3738
   86SOPE  H10Y 8089   4.965   1.344   3.861 -0.5585 -0.4327  0.4790
   86SOPE  C311 8090   5.168   1.300   3.932  1.2358 -0.2831 -0.0403
   86SOPE  H11X 8091   5.226   1.395   3.936 -0.8006  1.0033  3.9250
   86SOPE  H11Y 8092   5.249   1.228   3.910  0.5721 -0.6564 -1.3506
   86SOPE  C312 8093   5.112   1.254   4.063 -0.2431  0.1224  0.2000
   86SOPE  H12X 8094   5.119   1.144   4.072 -1.6297  0.0158  0.3119
   86SOPE  H12Y 8095   5.004   1.282   4.065 -0.1233  0.5630  0.8280
   86SOPE  C313 8096   5.188   1.335   4.177  0.3176 -0.4491  0.3807
   86SOPE  H13X 8097   5.123   1.349   4.266  1.5988  0.3597  1.2093
   86SOPE  H13Y 8098   5.183   1.444   4.156  0.0158 -0.6033 -0.3844
   86SOPE  C314 8099   5.337   1.299   4.202  0.3696  0.4397 -0.7784
   86SOPE  H14X 8100   5.400   1.319   4.112  1.0932 -1.0924 -0.6552
   86SOPE  H14Y 8101   5.324   1.191   4.223  0.1188  0.3774 -1.2417
   86SOPE  C315 8102   5.388   1.342   4.336  0.4154  0.1055  0.3241
   86SOPE  H15X 8103   5.310   1.313   4.409 -1.8971  0.3103 -1.9253
   86SOPE  H15Y 8104   5.394   1.453   4.347  0.8346  0.0092  1.0814
   86SOPE  C316 8105   5.523   1.276   4.370  0.0062  0.3967  0.2269
   86SOPE  H16X 8106   5.606   1.317   4.307 -0.3047  1.8343  0.7191
   86SOPE  H16Y 8107   5.515   1.167   4.351 -0.0825  0.3731  0.4003
   86SOPE  C317 8108   5.572   1.313   4.515 -0.4769 -0.2458 -0.2672
   86SOPE  H17X 8109   5.575   1.424   4.523  1.3975 -0.3555  1.4254
   86SOPE  H17Y 8110   5.681   1.291   4.522 -0.3012  0.4908 -0.4952
   86SOPE  C318 8111   5.490   1.261   4.630  0.8142  0.1115  0.4330
   86SOPE  H18X 8112   5.485   1.150   4.627 -0.4295  0.1585 -2.2519
   86SOPE  H18Y 8113   5.386   1.299   4.633 -0.0362 -2.1004  1.2468
   86SOPE  H18Z 8114   5.536   1.302   4.722 -0.1610  1.0318  0.5217
   87SOPE     N 8115   5.682   0.421   2.248 -0.7434 -0.3941 -0.3456
   87SOPE   HN1 8116   5.591   0.371   2.238 -0.0532 -1.7737  0.0625
   87SOPE   HN2 8117   5.741   0.398   2.331  0.5279 -1.3133 -1.4640
   87SOPE   HN3 8118   5.657   0.521   2.262  1.0455  0.3381 -2.0400
   87SOPE   C12 8119   5.768   0.424   2.124 -0.9524  0.7611  0.2363
   87SOPE  H12A 8120   5.699   0.422   2.038 -0.1068  0.5666 -0.4524
   87SOPE  H12B 8121   5.824   0.329   2.110  2.2974  2.2657  1.8380
   87SOPE   C11 8122   5.873   0.535   2.128  0.3966  0.5915  0.7213
   87SOPE  H11A 8123   5.933   0.536   2.035 -1.4629  2.8402 -0.5493
   87SOPE  H11B 8124   5.944   0.522   2.214 -1.5931  0.3769  2.4070
   87SOPE     P 8125   5.781   0.770   2.053 -0.4924 -0.1436  0.0293
   87SOPE   O13 8126   5.638   0.804   2.049  0.3563 -0.2960  0.4709
   87SOPE   O14 8127   5.840   0.732   1.924  0.2602 -0.0551  0.4286
   87SOPE   O12 8128   5.800   0.651   2.162 -0.2918  0.2147 -0.3455
   87SOPE   O11 8129   5.861   0.890   2.114  0.1037  0.1607 -0.1348
   87SOPE    C1 8130   5.982   0.857   2.193 -0.0641  0.4390  0.1880
   87SOPE    HA 8131   6.043   0.949   2.181 -0.8241  0.8322 -0.7906
   87SOPE    HB 8132   6.032   0.768   2.150 -1.3906 -0.8684  1.2760
   87SOPE    C2 8133   5.953   0.838   2.343 -0.2424  0.3192 -1.0855
   87SOPE    HS 8134   5.874   0.759   2.348  1.6383 -1.6623 -1.0283
   87SOPE   O21 8135   5.911   0.964   2.396 -0.1069  0.0162  0.2837
   87SOPE   C21 8136   5.834   0.958   2.505 -0.4076  0.0437 -1.0907
   87SOPE   O22 8137   5.796   0.854   2.557 -0.0313 -0.8277 -0.3254
   87SOPE   C22 8138   5.791   1.099   2.543 -0.3088 -0.6446  0.2779
   87SOPE   H2R 8139   5.683   1.100   2.569 -0.6215  0.3663 -0.9524
   87SOPE   H2S 8140   5.798   1.156   2.448  0.5568 -0.4845  0.4319
   87SOPE    C3 8141   6.080   0.785   2.413  0.0734  0.1876  0.1582
   87SOPE    HX 8142   6.164   0.854   2.391  2.4861 -1.2691  3.7542
   87SOPE    HY 8143   6.110   0.688   2.368  1.3663 -0.5449  2.4462
   87SOPE   O31 8144   6.083   0.784   2.556  0.2575 -0.4466  0.2844
   87SOPE   C31 8145   6.043   0.674   2.621 -0.5230  0.2110  0.0009
   87SOPE   O32 8146   6.049   0.559   2.574  0.5346  0.0562  0.5784
   87SOPE   C32 8147   6.015   0.718   2.761  0.3942 -0.0446 -0.3509
   87SOPE   H2X 8148   5.908   0.746   2.766  0.2525 -0.5857 -0.3216
   87SOPE   H2Y 8149   6.075   0.808   2.790  0.9973 -0.6340  0.2593
   87SOPE   C23 8150   5.871   1.154   2.655 -0.7239 -0.3639  0.2969
   87SOPE   H3R 8151   5.862   1.265   2.647  0.8212 -0.2553 -0.3184
   87SOPE   H3S 8152   5.978   1.156   2.624 -0.8844 -0.9651 -0.2986
   87SOPE   C24 8153   5.838   1.109   2.790 -0.5783  0.1033  0.1556
   87SOPE   H4R 8154   5.731   1.100   2.818 -0.3468  1.0167  1.4362
   87SOPE   H4S 8155   5.894   1.014   2.803  0.0075  0.3693 -0.3915
   87SOPE   C25 8156   5.901   1.215   2.890  0.4309  0.4506 -0.7240
   87SOPE   H5R 8157   6.005   1.235   2.856  1.0507  1.3025  1.4910
   87SOPE   H5S 8158   5.837   1.305   2.888  0.4956  0.5110 -0.1374
   87SOPE   C26 8159   5.906   1.180   3.036  1.3035  0.4995  0.3423
   87SOPE   H6R 8160   5.929   1.273   3.092  2.3108  1.2073 -1.1555
   87SOPE   H6S 8161   5.808   1.137   3.063  0.9882  0.0988 -1.3092
   87SOPE   C27 8162   6.022   1.076   3.065 -0.7993  0.5566 -0.0931
   87SOPE   H7R 8163   6.008   0.986   3.001 -0.5703 -0.7510  1.6503
   87SOPE   H7S 8164   6.117   1.116   3.024 -0.1882 -2.0883 -1.4891
   87SOPE   C28 8165   6.043   1.051   3.211  0.4019 -0.0780 -0.5468
   87SOPE   H8R 8166   5.941   1.028   3.248  1.0006  0.4209  1.5451
   87SOPE   H8S 8167   6.112   0.964   3.224  1.8824  1.0840 -0.3669
   87SOPE   C29 8168   6.101   1.167   3.290  0.7065 -0.5259 -0.8110
   87SOPE   H91 8169   6.163   1.234   3.228  1.1844 -1.9320 -1.9155
   87SOPE  C210 8170   6.059   1.190   3.420  0.0777 -0.3400  0.4370
   87SOPE  H101 8171   6.098   1.282   3.466  1.8878 -0.5828 -0.5298
   87SOPE  C211 8172   5.982   1.100   3.515 -0.1509  0.2217 -0.3488
   87SOPE  H11R 8173   5.922   1.032   3.450 -0.3431 -0.6065  0.6713
   87SOPE  H11S 8174   5.915   1.155   3.584  1.7995  1.8255  0.3627
   87SOPE  C212 8175   6.083   1.020   3.601 -0.3436  0.0141  0.5138
   87SOPE  H12R 8176   6.151   0.963   3.535 -2.7591 -1.8544 -0.5337
   87SOPE  H12S 8177   6.017   0.953   3.660 -1.6594  3.0068  2.7118
   87SOPE  C213 8178   6.160   1.095   3.718  0.0559 -0.0680  0.3682
   87SOPE  H13R 8179   6.096   1.107   3.808  0.9861  0.4203  0.9848
   87SOPE  H13S 8180   6.192   1.190   3.670  1.6184 -1.7982 -2.3023
   87SOPE  C214 8181   6.294   1.034   3.766  0.0647 -0.0888  0.4328
   87SOPE  H14R 8182   6.340   0.980   3.681 -0.5130  0.0125  0.0563
   87SOPE  H14S 8183   6.285   0.956   3.845 -1.2354  0.5652  0.9556
   87SOPE  C215 8184   6.398   1.134   3.795 -0.2500  0.3696 -0.0836
   87SOPE  H15R 8185   6.429   1.177   3.698 -0.0618 -0.6326 -0.4804
   87SOPE  H15S 8186   6.488   1.081   3.833 -2.0336 -2.0800  1.0377
   87SOPE  C216 8187   6.355   1.246   3.887 -0.1466 -0.0162  0.0442
   87SOPE  H16R 8188   6.304   1.197   3.972  1.4013 -2.2370 -0.2159
   87SOPE  H16S 8189   6.288   1.316   3.833 -1.6812 -1.4883 -0.0576
   87SOPE  C217 8190   6.472   1.331   3.942  0.5218  0.5563  0.1285
   87SOPE  H17R 8191   6.522   1.371   3.852 -2.0274  1.0738 -1.1446
   87SOPE  H17S 8192   6.542   1.264   3.997 -0.1830  0.2915  0.7286
   87SOPE  C218 8193   6.423   1.440   4.039  1.1562  0.3664  0.9385
   87SOPE  H18R 8194   6.356   1.507   3.981  0.7074  0.3295  1.4096
   87SOPE  H18S 8195   6.499   1.514   4.075 -0.4100  2.1544  0.7439
   87SOPE  H18T 8196   6.366   1.390   4.120 -0.5932  1.1340  0.2364
   87SOPE   C33 8197   6.038   0.604   2.862 -0.1769  0.2101  0.1703
   87SOPE   H3X 8198   6.148   0.588   2.860 -0.2941 -0.5940  0.0254
   87SOPE   H3Y 8199   5.992   0.514   2.817  0.0593  0.8958 -1.5242
   87SOPE   C34 8200   5.984   0.629   3.005  0.0882  0.2921 -1.0588
   87SOPE   H4X 8201   5.874   0.618   3.016  0.4013 -0.4101  2.0455
   87SOPE   H4Y 8202   5.998   0.735   3.033 -1.8830  1.3468 -3.6112
   87SOPE   C35 8203   6.061   0.551   3.112  0.3083 -0.0818  0.4539
   87SOPE   H5X 8204   6.168   0.571   3.091  0.1692  1.6897  1.3015
   87SOPE   H5Y 8205   6.038   0.443   3.097 -2.9690  0.4965  0.6345
   87SOPE   C36 8206   6.023   0.593   3.254  0.2127 -0.1216  0.1067
   87SOPE   H6X 8207   5.912   0.592   3.266 -0.0890  1.8763 -1.8140
   87SOPE   H6Y 8208   6.059   0.697   3.269 -0.3920  0.3089 -1.2847
   87SOPE   C37 8209   6.103   0.514   3.364 -0.0211  0.3826 -0.8609
   87SOPE   H7X 8210   6.210   0.525   3.335  0.4627  0.2865  0.8024
   87SOPE   H7Y 8211   6.081   0.407   3.384  0.2323  0.3733 -0.6318
   87SOPE   C38 8212   6.097   0.577   3.509  0.0852 -0.3595  1.2568
   87SOPE   H8X 8213   5.995   0.584   3.551 -0.1717 -1.1967  0.8008
   87SOPE   H8Y 8214   6.121   0.685   3.499  3.0857 -1.0301  0.1121
   87SOPE   C39 8215   6.197   0.514   3.608  0.1076 -0.0669 -1.0422
   87SOPE   H9X 8216   6.297   0.531   3.563  1.5252 -0.6945  1.6808
   87SOPE   H9Y 8217   6.165   0.407   3.605 -1.1034  0.2263  0.2461
   87SOPE  C310 8218   6.182   0.570   3.747  0.1737  0.5021  0.3486
   87SOPE  H10X 8219   6.074   0.561   3.769  0.2662 -2.0022  0.0315
   87SOPE  H10Y 8220   6.189   0.679   3.770 -2.8692  0.8949 -0.2175
   87SOPE  C311 8221   6.275   0.493   3.836 -0.3094  0.5705 -0.5784
   87SOPE  H11X 8222   6.382   0.490   3.804 -0.4329 -2.9126 -0.9586
   87SOPE  H11Y 8223   6.250   0.385   3.833  1.3852  0.1251 -0.1096
   87SOPE  C312 8224   6.278   0.533   3.988 -0.2316 -0.1536  0.8630
   87SOPE  H12X 8225   6.178   0.518   4.033 -0.1901 -3.0762  0.1646
   87SOPE  H12Y 8226   6.307   0.641   3.988 -0.3781 -0.0840 -0.8403
   87SOPE  C313 8227   6.366   0.449   4.082  0.0432 -0.1017 -0.4635
   87SOPE  H13X 8228   6.475   0.466   4.070 -0.3683  0.9723 -3.3938
   87SOPE  H13Y 8229   6.349   0.343   4.053  0.7095 -0.0932 -0.8979
   87SOPE  C314 8230   6.319   0.470   4.221 -0.3246 -0.4548  0.6676
   87SOPE  H14X 8231   6.329   0.375   4.278 -0.9799 -0.7671  0.2779
   87SOPE  H14Y 8232   6.209   0.487   4.231 -0.6983 -0.8850 -2.0248
   87SOPE  C315 8233   6.397   0.568   4.303  0.9134  0.1530 -0.0714
   87SOPE  H15X 8234   6.338   0.590   4.395  0.6060  0.6011 -0.3764
   87SOPE  H15Y 8235   6.405   0.662   4.245  0.9215 -1.4580 -2.8841
   87SOPE  C316 8236   6.536   0.515   4.346  0.3439  0.6104  0.2732
   87SOPE  H16X 8237   6.576   0.483   4.247 -1.8303  0.0374 -0.4802
   87SOPE  H16Y 8238   6.527   0.419   4.402  1.1588  0.7507  0.6557
   87SOPE  C317 8239   6.623   0.612   4.424  0.3530 -0.3504 -0.2691
   87SOPE  H17X 8240   6.696   0.555   4.485 -0.0634 -0.2951  0.2858
   87SOPE  H17Y 8241   6.555   0.665   4.493 -1.2716 -1.3877 -1.0029
   87SOPE  C318 8242   6.685   0.714   4.328 -0.0011 -0.7688  0.5579
   87SOPE  H18X 8243   6.732   0.668   4.238 -0.8937  0.1953 -0.4408
   87SOPE  H18Y 8244   6.763   0.778   4.374 -0.4333 -1.6367  2.5901
   87SOPE  H18Z 8245   6.596   0.770   4.292  0.7421 -0.3198 -0.6714
   88SOPE     N 8246   0.652   5.414   2.635  0.6161  0.4431 -0.7566
   88SOPE   HN1 8247   0.745   5.367   2.630 -0.2403 -1.5557  0.4592
   88SOPE   HN2 8248   0.590   5.354   2.694  1.1767 -1.1696 -1.7395
   88SOPE   HN3 8249   0.624   5.414   2.535 -0.7700 -0.1630 -0.3971
   88SOPE   C12 8250   0.670   5.547   2.698  0.5139  0.1165 -0.0712
   88SOPE  H12A 8251   0.753   5.598   2.644  0.6761  1.0369  0.9946
   88SOPE  H12B 8252   0.700   5.529   2.804  0.6937 -1.5691 -0.3779
   88SOPE   C11 8253   0.542   5.633   2.691 -0.8451  0.5487 -0.6867
   88SOPE  H11A 8254   0.578   5.733   2.723 -2.4261  0.9452 -0.0121
   88SOPE  H11B 8255   0.461   5.611   2.765 -0.6072  0.8894 -0.3215
   88SOPE     P 8256   0.351   5.593   2.510  0.3178 -0.1131 -0.1148
   88SOPE   O13 8257   0.330   5.469   2.583 -0.1168  0.3282  0.4770
   88SOPE   O14 8258   0.325   5.596   2.367 -0.4343  0.3097  0.2323
   88SOPE   O12 8259   0.489   5.655   2.556  0.3534  0.0250 -0.0742
   88SOPE   O11 8260   0.255   5.702   2.580 -0.0384 -0.4566  0.3012
   88SOPE    C1 8261   0.262   5.839   2.531  0.2230 -0.1040 -0.4253
   88SOPE    HA 8262   0.242   5.850   2.422  1.2706  0.0578 -0.6124
   88SOPE    HB 8263   0.366   5.877   2.531 -0.2500  1.3121 -1.4991
   88SOPE    C2 8264   0.167   5.932   2.625  0.0529  0.2615 -0.3962
   88SOPE    HS 8265   0.208   6.035   2.627 -0.9754  0.6902  2.0760
   88SOPE   O21 8266   0.171   5.892   2.760 -0.3529 -0.2939  0.4496
   88SOPE   C21 8267   0.291   5.910   2.813 -0.3886 -0.2294  0.6934
   88SOPE   O22 8268   0.394   5.935   2.756 -0.4671  0.8187  0.1179
   88SOPE   C22 8269   0.266   5.890   2.964 -0.0144 -0.1917 -1.0537
   88SOPE   H2R 8270   0.266   5.782   2.989 -1.3286  0.2600  1.2233
   88SOPE   H2S 8271   0.165   5.931   2.983  0.1317  0.0999 -0.8981
   88SOPE    C3 8272   0.023   5.929   2.576 -0.3188 -0.3367  0.0668
   88SOPE    HX 8273  -0.015   5.825   2.568  1.5554 -1.0400 -0.1043
   88SOPE    HY 8274   0.004   5.967   2.474  0.9173  1.3093  0.4073
   88SOPE   O31 8275  -0.058   5.993   2.675 -0.7522 -0.2616  0.0649
   88SOPE   C31 8276  -0.062   6.131   2.664 -0.1861  0.3297 -0.3705
   88SOPE   O32 8277  -0.006   6.193   2.573 -0.1061  0.1139 -0.9764
   88SOPE   C32 8278  -0.140   6.190   2.783 -0.3065 -0.0611  0.1045
   88SOPE   H2X 8279  -0.082   6.179   2.877  1.5187  1.6197 -0.7402
   88SOPE   H2Y 8280  -0.236   6.135   2.789 -0.2306 -0.3258 -0.9048
   88SOPE   C23 8281   0.364   5.977   3.045 -0.7535 -0.5491  0.5839
   88SOPE   H3R 8282   0.362   6.080   3.003  1.4391 -0.9051 -0.4858
   88SOPE   H3S 8283   0.462   5.928   3.031 -0.2887  0.1366  1.3459
   88SOPE   C24 8284   0.326   5.970   3.194  0.1539  0.2506 -0.0405
   88SOPE   H4R 8285   0.236   6.035   3.204 -0.2847  0.1638 -2.7063
   88SOPE   H4S 8286   0.295   5.865   3.214 -0.4665  0.4267 -0.0282
   88SOPE   C25 8287   0.445   6.021   3.287 -0.0046 -0.4673  0.5667
   88SOPE   H5R 8288   0.521   5.940   3.276 -0.7655 -0.9904 -1.0240
   88SOPE   H5S 8289   0.488   6.116   3.250  0.6878 -0.2867  1.7667
   88SOPE   C26 8290   0.392   6.044   3.432  0.0724  0.2000 -0.3244
   88SOPE   H6R 8291   0.319   6.128   3.427  0.4071  0.9858  3.9023
   88SOPE   H6S 8292   0.350   5.953   3.480 -1.8928  2.8938  3.6249
   88SOPE   C27 8293   0.496   6.101   3.527  0.0292  0.0017 -0.7104
   88SOPE   H7R 8294   0.582   6.031   3.539 -0.7406 -0.8451 -0.0454
   88SOPE   H7S 8295   0.541   6.193   3.483 -1.2034  0.5604 -0.8285
   88SOPE   C28 8296   0.430   6.137   3.666 -0.2010  0.0169 -0.3740
   88SOPE   H8R 8297   0.354   6.215   3.647 -0.5507 -0.2981 -0.2760
   88SOPE   H8S 8298   0.367   6.050   3.694  0.8003 -1.2527 -1.8839
   88SOPE   C29 8299   0.532   6.187   3.766 -0.0405 -0.3045  0.4108
   88SOPE   H91 8300   0.572   6.102   3.824 -1.5277 -0.6002  1.0619
   88SOPE  C210 8301   0.563   6.322   3.785 -0.2208  0.2243  0.2338
   88SOPE  H101 8302   0.652   6.338   3.848  1.8345 -1.5711 -2.0357
   88SOPE  C211 8303   0.508   6.447   3.717 -0.6032 -0.8329 -0.0206
   88SOPE  H11R 8304   0.412   6.485   3.757 -1.7520 -0.6775 -2.6818
   88SOPE  H11S 8305   0.483   6.428   3.610 -1.5177 -1.0226  0.2220
   88SOPE  C212 8306   0.628   6.546   3.704  0.1104 -0.0132 -0.1867
   88SOPE  H12R 8307   0.728   6.497   3.705  0.0197 -0.1914  0.0648
   88SOPE  H12S 8308   0.630   6.616   3.791 -0.8102  0.4599 -0.5328
   88SOPE  C213 8309   0.595   6.632   3.584 -0.2879 -0.4652  1.0366
   88SOPE  H13R 8310   0.489   6.662   3.595 -0.3172  0.2806 -0.9203
   88SOPE  H13S 8311   0.599   6.567   3.494 -0.9790 -0.4332  0.9753
   88SOPE  C214 8312   0.687   6.760   3.591  0.5366  0.0915 -0.2749
   88SOPE  H14R 8313   0.797   6.747   3.600  0.9505  1.8408 -2.1553
   88SOPE  H14S 8314   0.668   6.803   3.691 -0.7445  0.6412 -0.7240
   88SOPE  C215 8315   0.640   6.858   3.487 -0.1588 -0.4740 -0.1034
   88SOPE  H15R 8316   0.710   6.945   3.489  1.6478 -1.6686 -3.3208
   88SOPE  H15S 8317   0.539   6.898   3.512 -0.3152 -0.0319 -1.3674
   88SOPE  C216 8318   0.640   6.803   3.340 -0.4998  0.2241 -0.2585
   88SOPE  H16R 8319   0.563   6.723   3.330 -1.7844  1.4308 -0.3801
   88SOPE  H16S 8320   0.737   6.756   3.314 -0.9135 -0.9174  0.2028
   88SOPE  C217 8321   0.615   6.920   3.247  0.3233 -0.1444 -0.4989
   88SOPE  H17R 8322   0.688   7.002   3.263 -2.2083  2.0127  0.8316
   88SOPE  H17S 8323   0.520   6.961   3.289  1.1099  1.1681  0.0620
   88SOPE  C218 8324   0.604   6.889   3.102 -0.0035 -0.1427 -0.2984
   88SOPE  H18R 8325   0.681   6.814   3.074  3.1453  2.5676  0.3924
   88SOPE  H18S 8326   0.627   6.976   3.036 -0.0067  0.4751  0.4956
   88SOPE  H18T 8327   0.502   6.854   3.076  0.0925  0.0355 -0.9253
   88SOPE   C33 8328  -0.182   6.339   2.749 -0.4914  0.3859  0.1440
   88SOPE   H3X 8329  -0.245   6.345   2.657  0.6827  0.4733 -0.6736
   88SOPE   H3Y 8330  -0.096   6.407   2.731 -0.8992  0.7029 -0.6717
   88SOPE   C34 8331  -0.260   6.408   2.864 -0.6177 -0.4752 -0.0802
   88SOPE   H4X 8332  -0.294   6.503   2.819 -0.4768 -1.1468 -1.6693
   88SOPE   H4Y 8333  -0.205   6.427   2.959 -1.8840  2.0516  0.2248
   88SOPE   C35 8334  -0.394   6.351   2.903  0.5826  0.7091  0.5979
   88SOPE   H5X 8335  -0.379   6.256   2.960 -1.9235 -0.2229 -0.1583
   88SOPE   H5Y 8336  -0.451   6.329   2.811  1.6019  0.9615 -0.1129
   88SOPE   C36 8337  -0.474   6.443   2.982  0.0791 -0.5513  0.7994
   88SOPE   H6X 8338  -0.581   6.415   2.968 -0.4909  0.8395  2.1250
   88SOPE   H6Y 8339  -0.476   6.543   2.934  1.3806 -0.1203  1.6023
   88SOPE   C37 8340  -0.441   6.462   3.133  0.0563  0.8341 -0.1512
   88SOPE   H7X 8341  -0.502   6.547   3.171 -0.5151  1.4879 -2.3706
   88SOPE   H7Y 8342  -0.336   6.496   3.144 -0.0470  0.3649  3.1606
   88SOPE   C38 8343  -0.461   6.336   3.225  0.1272 -0.5392 -0.5155
   88SOPE   H8X 8344  -0.390   6.256   3.194 -1.5240 -1.3754 -2.4206
   88SOPE   H8Y 8345  -0.563   6.302   3.196 -0.1263 -0.4889  0.3095
   88SOPE   C39 8346  -0.460   6.376   3.376 -0.9780  0.0261 -0.3649
   88SOPE   H9X 8347  -0.532   6.458   3.400  0.0931  0.2446  2.4516
   88SOPE   H9Y 8348  -0.358   6.413   3.397 -1.2358  1.1491 -0.9608
   88SOPE  C310 8349  -0.493   6.262   3.469  0.0364  1.0191 -0.2346
   88SOPE  H10X 8350  -0.441   6.171   3.432 -1.4044 -1.6067  3.5646
   88SOPE  H10Y 8351  -0.601   6.235   3.475 -0.1166  1.7984  0.6537
   88SOPE  C311 8352  -0.440   6.289   3.607  0.3148  0.2326  0.1867
   88SOPE  H11X 8353  -0.479   6.382   3.653 -1.3057  0.3601 -1.3172
   88SOPE  H11Y 8354  -0.330   6.297   3.597  0.4555 -1.9899 -0.6888
   88SOPE  C312 8355  -0.467   6.184   3.713  0.4350 -1.0150  0.3842
   88SOPE  H12X 8356  -0.412   6.090   3.690  0.7270 -1.0798  1.2851
   88SOPE  H12Y 8357  -0.578   6.176   3.721  0.2652  0.3895 -0.3633
   88SOPE  C313 8358  -0.413   6.227   3.850 -0.8562 -0.3649  0.2845
   88SOPE  H13X 8359  -0.477   6.310   3.887 -0.8957 -0.0838 -0.3973
   88SOPE  H13Y 8360  -0.306   6.257   3.854 -0.0195 -3.0937  1.3986
   88SOPE  C314 8361  -0.436   6.111   3.956  0.3481  0.4093  0.0418
   88SOPE  H14X 8362  -0.365   6.027   3.944  0.7916  0.3437  2.6173
   88SOPE  H14Y 8363  -0.543   6.083   3.941 -0.2435  2.8659 -0.8880
   88SOPE  C315 8364  -0.434   6.152   4.101  0.1634 -0.8071  0.4679
   88SOPE  H15X 8365  -0.484   6.075   4.164 -2.8583  0.1163 -0.6331
   88SOPE  H15Y 8366  -0.496   6.244   4.103  1.4292  0.2270 -2.3440
   88SOPE  C316 8367  -0.299   6.195   4.156  0.4145 -1.1496  0.2133
   88SOPE  H16X 8368  -0.270   6.290   4.108 -0.0607 -1.4259 -0.6542
   88SOPE  H16Y 8369  -0.217   6.121   4.146  2.2859  0.8704  0.0761
   88SOPE  C317 8370  -0.310   6.233   4.302  0.1652  0.2931 -0.5332
   88SOPE  H17X 8371  -0.371   6.325   4.311  1.3132  1.0233 -0.0139
   88SOPE  H17Y 8372  -0.208   6.263   4.334  0.3240 -1.4047  0.6963
   88SOPE  C318 8373  -0.354   6.124   4.402  0.2397 -0.3091  0.8801
   88SOPE  H18X 8374  -0.333   6.142   4.510 -0.1563 -0.8930  1.0635
   88SOPE  H18Y 8375  -0.283   6.043   4.379  3.2966  2.4192 -0.0391
   88SOPE  H18Z 8376  -0.464   6.109   4.390  0.2397 -1.2728  1.9218
   89SAPC     N 8377   3.161   2.973   6.673  0.5908  0.1474  0.0592
   89SAPC   C12 8378   3.153   2.913   6.532 -0.4677  0.2647  0.2611
   89SAPC  H12A 8379   3.049   2.898   6.508 -0.7253  1.4729  0.5474
   89SAPC  H12B 8380   3.203   2.817   6.533  0.2630  0.6291 -0.1648
   89SAPC   C13 8381   3.082   3.101   6.670  0.3759  0.3300 -0.0875
   89SAPC  H13A 8382   3.098   3.156   6.761 -0.6573  1.9243 -0.8212
   89SAPC  H13B 8383   3.120   3.170   6.596  0.6285 -0.5195 -0.7639
   89SAPC  H13C 8384   2.974   3.099   6.668  0.3355  1.8475 -1.4547
   89SAPC   C14 8385   3.101   2.879   6.775  0.1486 -0.2941 -0.0031
   89SAPC  H14A 8386   3.118   2.924   6.872 -1.6724  0.4133  0.0305
   89SAPC  H14B 8387   2.995   2.868   6.758 -0.0993 -0.2793  1.3899
   89SAPC  H14C 8388   3.148   2.782   6.770 -1.3987 -1.1035  0.4653
   89SAPC   C15 8389   3.301   2.992   6.714 -0.1768  0.0370 -0.7380
   89SAPC  H15A 8390   3.361   3.056   6.650 -0.0857  1.0831  0.3666
   89SAPC  H15B 8391   3.305   3.040   6.810 -0.3440  0.9139 -1.1503
   89SAPC  H15C 8392   3.348   2.897   6.731  1.4364  1.0621  0.8350
   89SAPC   C11 8393   3.215   2.997   6.418 -0.0056  0.0110  0.1368
   89SAPC  H11A 8394   3.231   2.930   6.331 -2.0188  0.8323 -0.9406
   89SAPC  H11B 8395   3.310   3.044   6.452 -1.5645  1.7331  2.4837
   89SAPC     P 8396   2.988   3.062   6.305  0.3965 -0.0616 -0.2223
   89SAPC   O13 8397   2.935   2.932   6.353 -0.0238 -0.5818 -0.1626
   89SAPC   O14 8398   2.908   3.184   6.332  0.4794  0.1606 -0.3215
   89SAPC   O12 8399   3.119   3.094   6.381  0.1924 -0.3454 -0.2584
   89SAPC   O11 8400   3.032   3.059   6.152 -0.1907  0.1848 -0.1568
   89SAPC    C1 8401   3.118   3.166   6.116  0.6991 -0.6723  0.3337
   89SAPC    HA 8402   3.185   3.211   6.192  0.6218 -0.4090  0.2487
   89SAPC    HB 8403   3.186   3.124   6.038  2.3385  1.7669  0.3315
   89SAPC    C2 8404   3.039   3.281   6.053 -0.3794  0.0098 -0.1930
   89SAPC    HS 8405   2.972   3.324   6.131 -1.2810  0.1994 -1.0672
   89SAPC   O21 8406   2.973   3.230   5.932  0.3736  0.2593 -0.0339
   89SAPC   C21 8407   2.846   3.281   5.905 -0.9706  0.0022 -0.2002
   89SAPC   O22 8408   2.777   3.355   5.969 -0.4754 -0.1805 -0.2184
   89SAPC   C22 8409   2.813   3.220   5.760  0.7521 -0.0665  0.8296
   89SAPC   H2R 8410   2.871   3.278   5.686 -0.6194  1.3253  0.7830
   89SAPC   H2S 8411   2.835   3.111   5.761 -0.0825 -0.2449  0.9399
   89SAPC    C3 8412   3.124   3.409   6.004  0.5241  0.5928  0.2529
   89SAPC    HX 8413   3.190   3.460   6.076 -0.2891  2.5330 -0.3021
   89SAPC    HY 8414   3.048   3.486   5.977  0.2590 -0.2345 -1.5794
   89SAPC   O31 8415   3.194   3.372   5.883  0.2302  0.1485  0.2434
   89SAPC   C31 8416   3.142   3.415   5.772 -0.0179  0.0320  1.0318
   89SAPC   O32 8417   3.026   3.459   5.756 -0.5640  0.5804  0.8905
   89SAPC   C32 8418   3.251   3.417   5.667  0.1669  0.0006  0.0944
   89SAPC   H2X 8419   3.284   3.311   5.659 -0.0474 -0.1323  0.8800
   89SAPC   H2Y 8420   3.333   3.482   5.703  0.2004 -0.1890  0.3567
   89SAPC   C23 8421   2.667   3.237   5.721 -0.3544 -0.2462 -0.8911
   89SAPC   H3R 8422   2.630   3.339   5.746  0.8020 -0.1132  0.3614
   89SAPC   H3S 8423   2.605   3.173   5.787  1.4735  0.0047  1.1857
   89SAPC   C24 8424   2.643   3.226   5.567  0.0512 -0.5304  0.1302
   89SAPC   H4R 8425   2.660   3.321   5.512 -1.5049 -0.6559 -0.6013
   89SAPC   H4S 8426   2.534   3.215   5.551  0.2981 -0.0327 -2.2361
   89SAPC   C25 8427   2.716   3.116   5.485  0.0210 -0.0796 -0.6173
   89SAPC   H5R 8428   2.711   3.016   5.530  1.1315  0.0174 -0.2471
   89SAPC   C26 8429   2.768   3.119   5.361  0.0431  0.4089  0.2904
   89SAPC   H6R 8430   2.830   3.039   5.319  0.8144  0.4566  1.3261
   89SAPC   C27 8431   2.782   3.238   5.267  0.2180 -0.1818  0.1025
   89SAPC   H7R 8432   2.684   3.290   5.265  0.8424  1.0340  0.3699
   89SAPC   H7S 8433   2.798   3.212   5.161 -0.3911  1.6426 -0.4669
   89SAPC   C28 8434   2.884   3.343   5.315 -0.1023 -0.0166  0.1077
   89SAPC   H8R 8435   2.889   3.370   5.421  1.2248  2.1618 -0.4453
   89SAPC   C29 8436   2.974   3.407   5.234 -0.8118  0.7605  0.1148
   89SAPC   H9R 8437   3.039   3.489   5.270  0.1505  0.8382 -1.6717
   89SAPC  C210 8438   3.000   3.373   5.089  0.1833 -0.6960  0.3380
   89SAPC  H10R 8439   2.929   3.304   5.039  0.6670 -2.0425  1.4434
   89SAPC  H10S 8440   3.099   3.323   5.083  1.5261  1.7935  0.0479
   89SAPC  C211 8441   3.005   3.496   4.998  0.2777 -0.0099 -0.7800
   89SAPC  H11R 8442   2.941   3.581   5.025 -2.2820 -1.2218 -2.5852
   89SAPC  C212 8443   3.086   3.516   4.897 -0.7207  0.1675 -0.6251
   89SAPC  H12R 8444   3.078   3.615   4.850 -0.2868  0.7858  0.5576
   89SAPC  C213 8445   3.188   3.422   4.842 -0.7066  0.5624  0.9057
   89SAPC  H13R 8446   3.196   3.333   4.909 -0.7092 -0.0742  0.0802
   89SAPC  H13S 8447   3.296   3.446   4.839 -0.0715 -2.0958 -0.8436
   89SAPC  C214 8448   3.167   3.374   4.700  0.0990  0.3377  0.9118
   89SAPC  H14R 8449   3.089   3.297   4.688  0.6637 -0.2423  0.9089
   89SAPC  C215 8450   3.246   3.403   4.589  0.0741  0.8895  0.6898
   89SAPC  H15R 8451   3.222   3.347   4.498 -0.8263  0.2067  1.3321
   89SAPC  C216 8452   3.353   3.507   4.569 -0.2452 -0.2571 -0.2342
   89SAPC  H16R 8453   3.394   3.506   4.466 -1.0439 -1.8489 -0.5733
   89SAPC  H16S 8454   3.436   3.494   4.641 -0.1107  1.6162 -0.0133
   89SAPC  C217 8455   3.303   3.651   4.577 -0.5573  1.0104  0.3294
   89SAPC  H17R 8456   3.386   3.723   4.592  0.6855 -0.3094  0.0016
   89SAPC  H17S 8457   3.224   3.659   4.654 -1.5088  0.9186 -0.6052
   89SAPC  C218 8458   3.234   3.699   4.448  0.3305  0.0153  0.1784
   89SAPC  H18R 8459   3.160   3.625   4.412 -1.2411  1.0273  1.2237
   89SAPC  H18S 8460   3.310   3.721   4.370 -0.7418 -0.7373 -1.1159
   89SAPC  C219 8461   3.150   3.828   4.461 -0.2454 -0.3412 -0.2078
   89SAPC  H19R 8462   3.211   3.913   4.498  1.0004 -1.1009 -0.4516
   89SAPC  H19S 8463   3.074   3.811   4.540 -0.2819 -2.3716 -0.6246
   89SAPC  C220 8464   3.067   3.877   4.343 -0.5290 -0.1600  0.0640
   89SAPC  H20R 8465   2.982   3.810   4.321 -0.1521 -0.1490 -1.5549
   89SAPC  H20S 8466   3.134   3.875   4.255 -1.0613 -1.6032 -0.3192
   89SAPC  H20T 8467   3.027   3.979   4.362  0.2353  0.0032  0.9120
   89SAPC   C33 8468   3.205   3.475   5.529  0.2526 -0.5947  1.0328
   89SAPC   H3X 8469   3.166   3.579   5.543  2.5869  0.6969 -1.2402
   89SAPC   H3Y 8470   3.120   3.419   5.485  0.3883 -0.6650  0.8611
   89SAPC   C34 8471   3.323   3.498   5.435 -0.6609  0.3223 -0.8115
   89SAPC   H4X 8472   3.367   3.397   5.420  1.4078  0.8709  1.0655
   89SAPC   H4Y 8473   3.398   3.556   5.494  0.2547 -1.7693  0.1833
   89SAPC   C35 8474   3.298   3.554   5.292 -0.1645  0.3893  0.3969
   89SAPC   H5X 8475   3.251   3.654   5.301 -0.1272  0.3407  1.2180
   89SAPC   H5Y 8476   3.234   3.487   5.231 -1.3004  1.9735 -0.2443
   89SAPC   C36 8477   3.437   3.560   5.218  0.1147 -0.2596 -0.6305
   89SAPC   H6X 8478   3.475   3.456   5.225  0.9409  0.0363 -0.4963
   89SAPC   H6Y 8479   3.506   3.614   5.287  0.5043 -1.4481 -0.0610
   89SAPC   C37 8480   3.431   3.609   5.078 -0.2790 -0.3281 -0.2479
   89SAPC   H7X 8481   3.416   3.718   5.096  0.1691 -0.4224  0.7537
   89SAPC   H7Y 8482   3.339   3.573   5.027 -1.4086  1.6692  0.2901
   89SAPC   C38 8483   3.565   3.597   5.011  0.6111  0.1664 -0.0334
   89SAPC   H8X 8484   3.560   3.493   4.971 -0.7759  0.3985 -0.4924
   89SAPC   H8Y 8485   3.640   3.605   5.092  1.6011  2.2962 -1.0837
   89SAPC   C39 8486   3.594   3.699   4.905 -0.3014 -0.0307 -0.2127
   89SAPC   H9X 8487   3.516   3.712   4.827 -2.1789 -1.1191  1.3774
   89SAPC   H9Y 8488   3.682   3.662   4.847 -0.8729 -0.2890 -0.9257
   89SAPC  C310 8489   3.636   3.837   4.952 -0.2915  0.2988 -0.5696
   89SAPC  H10X 8490   3.740   3.832   4.990 -0.6709 -1.8508  0.3262
   89SAPC  H10Y 8491   3.568   3.876   5.031 -2.7334  0.8179 -2.7867
   89SAPC  C311 8492   3.620   3.954   4.857 -0.4088  0.3052  0.4743
   89SAPC  H11X 8493   3.670   3.937   4.760  0.9210 -1.2075  1.3827
   89SAPC  H11Y 8494   3.663   4.049   4.895 -2.2557  2.5642 -2.5885
   89SAPC  C312 8495   3.474   4.002   4.832 -0.2882 -0.1674  0.4137
   89SAPC  H12X 8496   3.433   4.027   4.932  0.5298  0.4678  0.5948
   89SAPC  H12Y 8497   3.410   3.921   4.790  0.2175 -0.6580  0.5725
   89SAPC  C313 8498   3.477   4.125   4.732 -0.8654  0.4391  0.2848
   89SAPC  H13X 8499   3.541   4.089   4.649 -2.5008 -1.7079 -0.1297
   89SAPC  H13Y 8500   3.514   4.211   4.792  0.9435 -0.9538  1.2777
   89SAPC  C314 8501   3.347   4.152   4.665  0.1629 -0.5790  0.4127
   89SAPC  H14X 8502   3.280   4.189   4.745  0.5087 -0.9403  0.8692
   89SAPC  H14Y 8503   3.323   4.054   4.619  0.0689  0.4196 -1.8164
   89SAPC  C315 8504   3.363   4.257   4.547  0.0883 -0.5822 -0.5352
   89SAPC  H15X 8505   3.403   4.350   4.591  0.1648 -0.6589 -0.4428
   89SAPC  H15Y 8506   3.260   4.277   4.509 -0.7023  0.5002  1.9814
   89SAPC  C316 8507   3.452   4.207   4.434 -0.5601  0.4313 -0.1146
   89SAPC  H16X 8508   3.418   4.103   4.412  1.2164 -0.9247  2.9186
   89SAPC  H16Y 8509   3.558   4.203   4.467 -0.6768 -1.1045  0.1331
   89SAPC  C317 8510   3.436   4.286   4.304  0.4007  0.0645 -0.0048
   89SAPC  H17X 8511   3.477   4.389   4.318 -0.0524  0.4261 -1.2236
   89SAPC  H17Y 8512   3.328   4.288   4.277  0.2486 -1.0478  0.4627
   89SAPC  C318 8513   3.508   4.217   4.185  0.2498 -0.7884  0.7912
   89SAPC  H18X 8514   3.512   4.280   4.094  2.1465 -3.6385 -1.2663
   89SAPC  H18Y 8515   3.464   4.118   4.161  0.8238 -1.0244  0.7013
   89SAPC  H18Z 8516   3.616   4.199   4.206  0.6735  0.2289 -0.4221
   90SAPC     N 8517   3.198   4.730   6.305 -0.0257 -0.2257 -0.5946
   90SAPC   C12 8518   3.183   4.883   6.281 -0.5646  0.6228  0.5066
   90SAPC  H12A 8519   3.272   4.927   6.241  0.0241 -0.0644  1.0304
   90SAPC  H12B 8520   3.156   4.924   6.377 -0.5337  1.0053  0.3523
   90SAPC   C13 8521   3.285   4.708   6.431 -0.1251 -0.3133  0.5451
   90SAPC  H13A 8522   3.290   4.602   6.453  0.7934 -0.0266  1.8293
   90SAPC  H13B 8523   3.380   4.759   6.426 -1.6645  2.7956  0.5335
   90SAPC  H13C 8524   3.233   4.752   6.514 -0.5656 -0.5785  0.4127
   90SAPC   C14 8525   3.063   4.677   6.338 -0.3421  0.1238  0.2876
   90SAPC  H14A 8526   2.992   4.707   6.262  0.2041  2.9535  0.7754
   90SAPC  H14B 8527   3.061   4.575   6.373  0.7223 -0.4635 -1.2434
   90SAPC  H14C 8528   3.021   4.719   6.428  0.1423 -1.8421  1.5093
   90SAPC   C15 8529   3.249   4.656   6.190  0.2257  0.6723 -1.1043
   90SAPC  H15A 8530   3.247   4.552   6.218  0.8997  1.3756  1.8387
   90SAPC  H15B 8531   3.185   4.662   6.103  0.4252  1.4293 -1.2089
   90SAPC  H15C 8532   3.346   4.692   6.159 -1.1095  2.0529 -4.1187
   90SAPC   C11 8533   3.077   4.921   6.178  0.3271  0.2086  0.2199
   90SAPC  H11A 8534   3.097   4.873   6.080  0.4953 -1.8078  1.1816
   90SAPC  H11B 8535   3.101   5.028   6.164  1.0307 -0.1698 -1.7859
   90SAPC     P 8536   2.887   4.995   6.334  0.2253  0.0023  0.7039
   90SAPC   O13 8537   2.760   4.942   6.381  0.2294 -0.5115  0.1219
   90SAPC   O14 8538   2.992   4.999   6.439  0.0570 -0.3210  0.6183
   90SAPC   O12 8539   2.945   4.900   6.217 -0.4318 -0.1692 -0.3242
   90SAPC   O11 8540   2.865   5.142   6.280 -0.4440 -0.3156  0.1714
   90SAPC    C1 8541   2.745   5.176   6.204 -0.1699  0.2066 -0.2888
   90SAPC    HA 8542   2.670   5.095   6.200  1.0910 -1.0365  0.3647
   90SAPC    HB 8543   2.718   5.278   6.239 -0.0131  0.2938 -0.4191
   90SAPC    C2 8544   2.791   5.205   6.060  0.2728 -1.5680  0.4696
   90SAPC    HS 8545   2.704   5.250   6.009  0.7888  1.5994  2.1330
   90SAPC   O21 8546   2.835   5.087   5.996 -0.2791 -0.2608  0.0827
   90SAPC   C21 8547   2.750   4.997   5.963  0.2631  0.5457 -0.4111
   90SAPC   O22 8548   2.629   5.013   5.971 -0.6305 -0.0775 -0.2874
   90SAPC   C22 8549   2.811   4.867   5.906  0.1803 -1.4573  0.6135
   90SAPC   H2R 8550   2.877   4.818   5.982  1.4607 -1.1603 -0.2753
   90SAPC   H2S 8551   2.724   4.800   5.887 -0.1109 -1.7219  2.5962
   90SAPC    C3 8552   2.898   5.316   6.048 -0.6366 -0.4889  0.4228
   90SAPC    HX 8553   2.992   5.299   6.104  0.2427  0.4123 -0.7223
   90SAPC    HY 8554   2.851   5.408   6.090 -3.0563 -0.3274 -2.2906
   90SAPC   O31 8555   2.926   5.330   5.902  0.3908  0.1931 -0.3108
   90SAPC   C31 8556   3.049   5.332   5.870 -0.2782 -0.9098  0.0572
   90SAPC   O32 8557   3.149   5.316   5.940  0.3392 -0.2343 -0.9243
   90SAPC   C32 8558   3.063   5.370   5.719  0.4905  0.2180 -0.1851
   90SAPC   H2X 8559   3.030   5.476   5.711  0.4162  0.0318 -3.9576
   90SAPC   H2Y 8560   2.997   5.302   5.661 -0.8316  1.4021 -0.1195
   90SAPC   C23 8561   2.885   4.896   5.772  0.3414  0.3485 -0.3022
   90SAPC   H3R 8562   2.970   4.825   5.765  0.7328  0.3033  3.1915
   90SAPC   H3S 8563   2.945   4.990   5.762  1.3159 -0.3127 -0.9021
   90SAPC   C24 8564   2.792   4.901   5.646  0.0592  0.1483  0.1279
   90SAPC   H4R 8565   2.837   4.953   5.559  0.5229  0.9158  0.8142
   90SAPC   H4S 8566   2.708   4.972   5.666  0.3596  0.4408  0.3600
   90SAPC   C25 8567   2.741   4.767   5.622  0.2307  0.5825  0.0295
   90SAPC   H5R 8568   2.727   4.697   5.707 -0.4815 -0.7122 -1.1061
   90SAPC   C26 8569   2.697   4.725   5.503 -0.0996 -0.2361 -0.2857
   90SAPC   H6R 8570   2.663   4.620   5.503 -0.4857 -0.1718 -2.8218
   90SAPC   C27 8571   2.684   4.795   5.372 -0.2661 -0.1883  0.3797
   90SAPC   H7R 8572   2.735   4.893   5.368 -2.5013  1.0462  0.2407
   90SAPC   H7S 8573   2.576   4.814   5.352 -0.4617 -1.6503 -0.0828
   90SAPC   C28 8574   2.732   4.716   5.255 -0.5379 -0.3920 -0.2453
   90SAPC   H8R 8575   2.818   4.650   5.276 -0.6446 -0.6234 -0.5490
   90SAPC   C29 8576   2.678   4.717   5.136  0.0004 -0.3298 -0.6455
   90SAPC   H9R 8577   2.716   4.645   5.062  0.3640 -2.0073  1.0920
   90SAPC  C210 8578   2.568   4.809   5.078  0.2750  0.7987  0.0383
   90SAPC  H10R 8579   2.574   4.908   5.128  1.1428  1.2263 -0.8736
   90SAPC  H10S 8580   2.466   4.771   5.096  1.2357 -1.3033  1.4328
   90SAPC  C211 8581   2.596   4.816   4.934  0.2278  0.3574  0.3776
   90SAPC  H11R 8582   2.703   4.835   4.915  0.4745 -1.1490  0.1495
   90SAPC  C212 8583   2.504   4.808   4.832 -0.1470 -0.2533  0.2325
   90SAPC  H12R 8584   2.542   4.797   4.730  1.1662 -0.5322  0.7256
   90SAPC  C213 8585   2.358   4.786   4.837  0.0263  0.2639 -0.1816
   90SAPC  H13R 8586   2.348   4.705   4.912  0.0498  2.0020  1.7981
   90SAPC  H13S 8587   2.320   4.744   4.742 -2.6069 -3.6332  2.3119
   90SAPC  C214 8588   2.264   4.895   4.874 -0.0584 -0.6420  0.3171
   90SAPC  H14R 8589   2.315   4.992   4.885 -1.6073  0.3930 -1.0235
   90SAPC  C215 8590   2.137   4.902   4.882  0.3768 -0.0986  0.1336
   90SAPC  H15R 8591   2.097   5.000   4.912  0.9972  0.1427  0.1964
   90SAPC  C216 8592   2.043   4.782   4.846  0.2017 -1.3454 -0.2954
   90SAPC  H16R 8593   1.972   4.769   4.930 -0.9698  0.9415 -0.8558
   90SAPC  H16S 8594   2.087   4.680   4.839  0.2966 -1.2042 -2.5278
   90SAPC  C217 8595   1.966   4.804   4.714  0.2913  0.4007 -0.2072
   90SAPC  H17R 8596   1.887   4.881   4.732  1.7399  2.5816 -2.4910
   90SAPC  H17S 8597   1.903   4.714   4.698  2.3512 -1.4898  1.6498
   90SAPC  C218 8598   2.049   4.836   4.591  1.0692 -0.4186 -0.1409
   90SAPC  H18R 8599   2.139   4.772   4.584  1.5734  0.2070  0.5274
   90SAPC  H18S 8600   2.078   4.943   4.599 -4.0087  1.2456 -0.3305
   90SAPC  C219 8601   1.958   4.822   4.465 -0.1866 -0.0024 -0.8852
   90SAPC  H19R 8602   1.881   4.902   4.475 -0.0613  0.1902 -1.3862
   90SAPC  H19S 8603   1.910   4.722   4.466  1.3918 -0.9714  3.9927
   90SAPC  C220 8604   2.029   4.832   4.327 -0.7363 -0.6841 -0.3296
   90SAPC  H20R 8605   2.107   4.753   4.314 -0.7461 -0.8247  0.4186
   90SAPC  H20S 8606   2.078   4.932   4.326 -2.5531  0.2491 -0.3118
   90SAPC  H20T 8607   1.960   4.824   4.241 -1.1829 -2.6243  0.1606
   90SAPC   C33 8608   3.213   5.365   5.668  0.2176 -0.3213 -0.1955
   90SAPC   H3X 8609   3.269   5.283   5.719  0.9316  0.2413 -0.0635
   90SAPC   H3Y 8610   3.255   5.464   5.697 -0.5428  0.2485 -0.9960
   90SAPC   C34 8611   3.221   5.345   5.512  0.0158 -0.2261 -0.2093
   90SAPC   H4X 8612   3.172   5.248   5.492 -4.2421  1.3411  1.5490
   90SAPC   H4Y 8613   3.329   5.332   5.487  0.2444  1.8734 -0.4937
   90SAPC   C35 8614   3.154   5.469   5.441 -1.1290  0.8989  0.1270
   90SAPC   H5X 8615   3.184   5.560   5.496 -1.1860  1.2603 -0.4401
   90SAPC   H5Y 8616   3.044   5.453   5.443 -1.2100 -0.3522 -4.1560
   90SAPC   C36 8617   3.216   5.494   5.300  0.6571  0.2214  0.2618
   90SAPC   H6X 8618   3.327   5.496   5.295  0.6246  0.6788 -0.3651
   90SAPC   H6Y 8619   3.189   5.596   5.266  3.0844  1.2011  1.0896
   90SAPC   C37 8620   3.173   5.390   5.205 -0.5834 -0.6065  0.8388
   90SAPC   H7X 8621   3.066   5.409   5.184 -0.6073  0.0669  1.5504
   90SAPC   H7Y 8622   3.180   5.286   5.244 -0.8644 -1.2779 -0.8311
   90SAPC   C38 8623   3.243   5.393   5.062 -0.5712 -0.9119  0.2251
   90SAPC   H8X 8624   3.243   5.498   5.024 -0.9766 -0.4691  1.4005
   90SAPC   H8Y 8625   3.178   5.342   4.987 -1.1035  0.6827 -0.4493
   90SAPC   C39 8626   3.382   5.343   5.056 -0.1183 -0.3471  0.4857
   90SAPC   H9X 8627   3.438   5.389   5.141 -0.3494 -0.2813  0.6014
   90SAPC   H9Y 8628   3.436   5.380   4.966  0.3412 -1.9056  0.0778
   90SAPC  C310 8629   3.417   5.192   5.068 -0.3395  0.6444  0.1387
   90SAPC  H10X 8630   3.497   5.156   5.000 -0.3704 -0.0085  0.4431
   90SAPC  H10Y 8631   3.321   5.144   5.041 -0.0966  1.0764 -1.6610
   90SAPC  C311 8632   3.468   5.148   5.207  0.3854  0.3253 -0.0159
   90SAPC  H11X 8633   3.403   5.167   5.295  0.8275 -1.0312  0.6384
   90SAPC  H11Y 8634   3.570   5.190   5.220  0.4691  0.5078 -1.1987
   90SAPC  C312 8635   3.500   5.000   5.210 -0.5274  0.0594  0.2724
   90SAPC  H12X 8636   3.582   4.972   5.140  1.5362  2.7431  1.4047
   90SAPC  H12Y 8637   3.403   4.949   5.193 -1.8220  2.3829  0.2785
   90SAPC  C313 8638   3.551   4.951   5.343 -0.2238  0.5667  0.2974
   90SAPC  H13X 8639   3.474   4.975   5.420 -1.8996 -2.8780 -0.1102
   90SAPC  H13Y 8640   3.648   4.997   5.370 -0.7307  0.5749  2.2704
   90SAPC  C314 8641   3.554   4.802   5.349 -0.0258  0.3159  0.0447
   90SAPC  H14X 8642   3.631   4.769   5.276 -0.7676 -0.5984 -0.3377
   90SAPC  H14Y 8643   3.458   4.752   5.327 -0.1773  0.3273  0.6368
   90SAPC  C315 8644   3.574   4.747   5.494  0.0450 -0.0970 -0.1535
   90SAPC  H15X 8645   3.474   4.731   5.541 -0.2409 -3.9299 -1.7510
   90SAPC  H15Y 8646   3.637   4.816   5.555  0.1241  0.8619 -1.2795
   90SAPC  C316 8647   3.638   4.605   5.486  0.7858 -0.2120 -0.4852
   90SAPC  H16X 8648   3.743   4.604   5.450  1.0752 -0.1749  0.3423
   90SAPC  H16Y 8649   3.572   4.554   5.412  0.9441 -2.1354  0.6337
   90SAPC  C317 8650   3.633   4.517   5.611  0.4401 -0.2176 -0.3860
   90SAPC  H17X 8651   3.628   4.412   5.574 -1.0890 -0.5144  0.5819
   90SAPC  H17Y 8652   3.537   4.532   5.665  1.0033  0.7832  0.3787
   90SAPC  C318 8653   3.751   4.548   5.701  0.1361 -0.4773  0.6237
   90SAPC  H18X 8654   3.761   4.482   5.790  0.1486 -2.3238 -0.6906
   90SAPC  H18Y 8655   3.748   4.651   5.741  1.3904 -0.7293  1.4241
   90SAPC  H18Z 8656   3.839   4.545   5.633 -0.2818 -3.3514  0.0572
   91SAPC     N 8657   0.296   6.580   6.779  0.2473 -0.4265  0.2793
   91SAPC   C12 8658   0.378   6.482   6.707  0.2044  0.1346  0.3737
   91SAPC  H12A 8659   0.476   6.527   6.702  0.3195 -0.0125  1.1785
   91SAPC  H12B 8660   0.351   6.472   6.602 -0.0583 -2.7504  0.6283
   91SAPC   C13 8661   0.309   6.716   6.714  0.1921  0.4482 -0.1370
   91SAPC  H13A 8662   0.235   6.788   6.745 -1.4994 -0.2376 -2.3634
   91SAPC  H13B 8663   0.410   6.754   6.725  1.4374 -2.8311  1.0746
   91SAPC  H13C 8664   0.282   6.708   6.610 -2.0503  0.7782  0.3856
   91SAPC   C14 8665   0.153   6.548   6.780  0.0399  0.5675  0.7524
   91SAPC  H14A 8666   0.102   6.634   6.821  1.1788  1.2954  0.6972
   91SAPC  H14B 8667   0.112   6.545   6.680  0.9020  0.3794  0.3929
   91SAPC  H14C 8668   0.125   6.455   6.827  1.1517  0.4752  1.2612
   91SAPC   C15 8669   0.325   6.603   6.925  0.0629 -0.0205 -0.7348
   91SAPC  H15A 8670   0.295   6.701   6.958 -0.5951  0.0276 -1.4466
   91SAPC  H15B 8671   0.280   6.522   6.980 -0.8643  1.0730  0.1604
   91SAPC  H15C 8672   0.432   6.612   6.938  0.0567 -0.2016 -0.5673
   91SAPC   C11 8673   0.391   6.335   6.771 -0.2107 -0.9360  0.4217
   91SAPC  H11A 8674   0.385   6.344   6.881  1.0145 -2.0882  0.6050
   91SAPC  H11B 8675   0.491   6.288   6.759 -0.3093 -0.7364 -1.5383
   91SAPC     P 8676   0.257   6.221   6.593  0.4712  0.4648  0.0948
   91SAPC   O13 8677   0.132   6.146   6.583  0.3134  0.0911 -0.2360
   91SAPC   O14 8678   0.263   6.334   6.498 -0.2279  0.1104 -0.2889
   91SAPC   O12 8679   0.273   6.263   6.743  0.2671 -0.3506  0.5791
   91SAPC   O11 8680   0.378   6.126   6.557 -0.5266 -0.0522  0.1566
   91SAPC    C1 8681   0.406   6.008   6.638  0.5889  0.2092 -0.1501
   91SAPC    HA 8682   0.503   6.024   6.690  0.7123  0.9794 -0.6070
   91SAPC    HB 8683   0.328   5.985   6.715  0.8762 -0.5632 -0.0779
   91SAPC    C2 8684   0.404   5.877   6.544  0.8264 -0.1126 -0.0570
   91SAPC    HS 8685   0.413   5.795   6.619 -0.0388 -1.7327 -1.6461
   91SAPC   O21 8686   0.516   5.881   6.451 -0.3328  0.3811 -0.2517
   91SAPC   C21 8687   0.571   5.756   6.420  0.1034 -0.1557 -0.5363
   91SAPC   O22 8688   0.537   5.648   6.470 -0.3774  0.4231  0.1163
   91SAPC   C22 8689   0.667   5.768   6.312 -0.1312 -0.2058  0.5824
   91SAPC   H2R 8690   0.743   5.845   6.335 -1.0738  0.7866  0.4304
   91SAPC   H2S 8691   0.716   5.668   6.311  0.1527 -0.0719 -0.8898
   91SAPC    C3 8692   0.270   5.851   6.459 -0.0443  0.1462  0.0604
   91SAPC    HX 8693   0.249   5.945   6.404  1.4652  0.1508 -0.5432
   91SAPC    HY 8694   0.194   5.835   6.538 -0.2098  0.2116 -0.0837
   91SAPC   O31 8695   0.288   5.737   6.371 -0.4934 -0.3446 -0.4425
   91SAPC   C31 8696   0.258   5.618   6.430  0.2283  0.0196  0.1656
   91SAPC   O32 8697   0.219   5.598   6.542  0.0281  0.5293 -0.4979
   91SAPC   C32 8698   0.270   5.502   6.323 -0.1868 -0.0804 -0.0810
   91SAPC   H2X 8699   0.359   5.439   6.339 -0.4603 -0.5175 -0.2709
   91SAPC   H2Y 8700   0.276   5.555   6.226  2.3349  0.4195  0.2819
   91SAPC   C23 8701   0.597   5.781   6.171 -0.5768 -0.8944 -0.0305
   91SAPC   H3R 8702   0.546   5.880   6.176  1.5722  0.2558  0.2634
   91SAPC   H3S 8703   0.518   5.705   6.153  0.6031 -2.0603 -0.4943
   91SAPC   C24 8704   0.686   5.784   6.044  0.7891  0.2285  0.5291
   91SAPC   H4R 8705   0.603   5.770   5.972  0.1651  2.9765  0.6139
   91SAPC   H4S 8706   0.734   5.684   6.034 -0.3866 -0.2115 -1.0390
   91SAPC   C25 8707   0.779   5.898   6.017  0.0278 -0.1875 -0.0614
   91SAPC   H5R 8708   0.855   5.904   6.096 -0.3734  2.8817  0.2240
   91SAPC   C26 8709   0.771   5.991   5.919  0.1712 -0.1507 -0.2055
   91SAPC   H6R 8710   0.850   6.067   5.914  2.2873 -2.2319 -0.4734
   91SAPC   C27 8711   0.685   5.974   5.807  1.5631  0.5083  0.5896
   91SAPC   H7R 8712   0.584   6.015   5.828  1.3383  2.1423 -2.9971
   91SAPC   H7S 8713   0.681   5.866   5.781  1.6904  0.6226  0.0922
   91SAPC   C28 8714   0.725   6.048   5.685  0.1090 -0.3215 -0.2919
   91SAPC   H8R 8715   0.804   6.123   5.699 -0.4267  0.2428 -0.2665
   91SAPC   C29 8716   0.690   6.029   5.559 -0.2775  0.0430  0.3308
   91SAPC   H9R 8717   0.746   6.079   5.478  1.2634 -2.2892 -0.1578
   91SAPC  C210 8718   0.595   5.914   5.519 -0.0247  0.0168  0.3775
   91SAPC  H10R 8719   0.550   5.860   5.605  0.8101 -0.4174  0.5539
   91SAPC  H10S 8720   0.672   5.844   5.478 -0.3400 -1.3258  1.9762
   91SAPC  C211 8721   0.483   5.931   5.416 -0.0910 -1.3456 -0.5988
   91SAPC  H11R 8722   0.514   5.899   5.316  0.2849 -0.3645 -0.8141
   91SAPC  C212 8723   0.363   5.990   5.435 -0.4209 -0.3209 -0.2221
   91SAPC  H12R 8724   0.279   5.972   5.366  0.5519 -0.0248 -1.5269
   91SAPC  C213 8725   0.340   6.066   5.564 -0.0007  0.4799  0.6575
   91SAPC  H13R 8726   0.425   6.135   5.581  0.6610 -0.0699 -0.3433
   91SAPC  H13S 8727   0.336   5.999   5.653 -2.5568  3.4989  3.1116
   91SAPC  C214 8728   0.222   6.155   5.550 -0.8302 -0.1958  0.1239
   91SAPC  H14R 8729   0.130   6.095   5.545 -1.1443  0.2265  0.7654
   91SAPC  C215 8730   0.219   6.290   5.538  0.2574  0.5822 -0.7777
   91SAPC  H15R 8731   0.118   6.330   5.523 -0.7423 -1.6083 -0.3992
   91SAPC  C216 8732   0.332   6.397   5.539  0.1111  0.5624 -0.3316
   91SAPC  H16R 8733   0.347   6.440   5.438  1.1539  1.3613  0.1416
   91SAPC  H16S 8734   0.426   6.351   5.578 -0.6563  1.6118  3.1480
   91SAPC  C217 8735   0.300   6.513   5.639  0.1264  0.0406 -0.0238
   91SAPC  H17R 8736   0.195   6.547   5.628  1.2141  3.6094 -0.7632
   91SAPC  H17S 8737   0.364   6.602   5.616  0.7445 -0.3613  0.1322
   91SAPC  C218 8738   0.320   6.470   5.784 -0.1239 -0.0281 -0.1471
   91SAPC  H18R 8739   0.429   6.463   5.801  0.1263  2.2456 -0.5332
   91SAPC  H18S 8740   0.253   6.384   5.804 -0.9648  0.2794 -1.5047
   91SAPC  C219 8741   0.278   6.580   5.884  0.7756  0.5438  0.2401
   91SAPC  H19R 8742   0.278   6.536   5.986  2.1997 -1.0760 -0.4058
   91SAPC  H19S 8743   0.177   6.615   5.854  1.2187  0.3629 -1.5672
   91SAPC  C220 8744   0.368   6.702   5.881 -0.6570  0.6334 -0.3385
   91SAPC  H20R 8745   0.331   6.772   5.959  0.1012 -0.7154  1.2902
   91SAPC  H20S 8746   0.377   6.755   5.784 -0.0026 -0.7429 -1.0603
   91SAPC  H20T 8747   0.470   6.661   5.894 -1.5440 -1.7661 -0.5844
   91SAPC   C33 8748   0.158   5.396   6.343 -0.2899  0.2312 -0.2073
   91SAPC   H3X 8749   0.152   5.360   6.448 -0.6439 -0.6384 -0.5204
   91SAPC   H3Y 8750   0.189   5.316   6.273  0.1829 -0.0290  0.3002
   91SAPC   C34 8751   0.026   5.440   6.312 -0.1615  0.2804 -0.0621
   91SAPC   H4X 8752   0.010   5.542   6.354  1.2699  0.7742 -0.6703
   91SAPC   H4Y 8753  -0.049   5.375   6.362  2.0803 -2.5401 -0.0941
   91SAPC   C35 8754   0.005   5.468   6.165 -0.2846 -0.4575 -0.1260
   91SAPC   H5X 8755  -0.005   5.370   6.115  2.1288  0.1693 -2.0177
   91SAPC   H5Y 8756   0.098   5.509   6.120 -1.0419  0.1864 -1.1549
   91SAPC   C36 8757  -0.112   5.552   6.142  0.3282  0.4306 -0.4198
   91SAPC   H6X 8758  -0.106   5.651   6.191 -1.9661  0.4107  0.0423
   91SAPC   H6Y 8759  -0.202   5.499   6.183  0.7075 -0.8139 -1.1269
   91SAPC   C37 8760  -0.152   5.554   5.990 -0.0843  0.0701  0.8314
   91SAPC   H7X 8761  -0.185   5.452   5.961  0.1043  0.1327  0.3943
   91SAPC   H7Y 8762  -0.057   5.578   5.938 -0.6164 -1.3379 -0.9000
   91SAPC   C38 8763  -0.246   5.674   5.969  0.5211  0.2937  0.3622
   91SAPC   H8X 8764  -0.208   5.763   6.023 -0.1116  0.3414  0.7458
   91SAPC   H8Y 8765  -0.340   5.644   6.021  1.2887 -0.8625  1.1204
   91SAPC   C39 8766  -0.271   5.697   5.822  0.0399  0.1744  0.2360
   91SAPC   H9X 8767  -0.172   5.732   5.785  1.1466  0.1112  2.8890
   91SAPC   H9Y 8768  -0.346   5.778   5.808  2.0901  2.7134  2.7961
   91SAPC  C310 8769  -0.319   5.573   5.754 -0.2875  0.2503 -0.0868
   91SAPC  H10X 8770  -0.417   5.537   5.792 -0.9074  0.3145 -1.5409
   91SAPC  H10Y 8771  -0.252   5.486   5.769 -2.2482 -1.3684 -0.2875
   91SAPC  C311 8772  -0.317   5.574   5.597  0.4198 -0.0163 -0.6786
   91SAPC  H11X 8773  -0.337   5.472   5.557 -3.4575 -0.0392  0.9409
   91SAPC  H11Y 8774  -0.217   5.606   5.561  0.2583 -0.2094 -1.3238
   91SAPC  C312 8775  -0.430   5.662   5.540 -0.2680  0.3670 -0.4068
   91SAPC  H12X 8776  -0.407   5.765   5.575  0.5675  0.9652 -2.5187
   91SAPC  H12Y 8777  -0.526   5.627   5.585  0.5637 -0.8465  0.4775
   91SAPC  C313 8778  -0.435   5.667   5.387 -0.1740  0.2034 -0.3259
   91SAPC  H13X 8779  -0.431   5.563   5.348  1.9677  0.0253  0.2480
   91SAPC  H13Y 8780  -0.344   5.721   5.355 -0.2962  0.3953 -0.3478
   91SAPC  C314 8781  -0.562   5.741   5.336  0.6658  0.3209  0.1990
   91SAPC  H14X 8782  -0.648   5.689   5.383  0.7151 -0.4765 -0.5634
   91SAPC  H14Y 8783  -0.574   5.720   5.228  1.1882 -1.2651  0.4264
   91SAPC  C315 8784  -0.571   5.896   5.341 -0.3963  0.9197  0.5134
   91SAPC  H15X 8785  -0.473   5.945   5.320  0.9145 -2.0424 -0.8362
   91SAPC  H15Y 8786  -0.583   5.922   5.448  0.0256 -1.4832  1.1838
   91SAPC  C316 8787  -0.683   5.969   5.255 -0.1847  0.2545 -0.3086
   91SAPC  H16X 8788  -0.647   5.973   5.150  0.7664 -3.6596 -0.3002
   91SAPC  H16Y 8789  -0.683   6.073   5.293 -1.1331 -0.0090  0.4393
   91SAPC  C317 8790  -0.825   5.919   5.251 -0.3679 -0.1156  0.6187
   91SAPC  H17X 8791  -0.844   5.922   5.360  1.3804 -0.7869  0.9703
   91SAPC  H17Y 8792  -0.826   5.811   5.223  0.3963  0.2840 -1.0663
   91SAPC  C318 8793  -0.917   6.008   5.176 -0.0175 -0.5326 -0.1374
   91SAPC  H18X 8794  -0.883   6.033   5.074  0.2964 -2.6832 -0.5983
   91SAPC  H18Y 8795  -0.919   6.106   5.229 -0.2059 -0.9766  0.6994
   91SAPC  H18Z 8796  -1.021   5.970   5.170 -0.7686  1.3265  0.2640
   92SAPC     N 8797   5.790   4.325   7.231 -0.2428 -0.1061  0.1713
   92SAPC   C12 8798   5.797   4.379   7.086  0.6555 -0.0245 -0.3653
   92SAPC  H12A 8799   5.798   4.486   7.099 -0.1114 -0.1146  0.5470
   92SAPC  H12B 8800   5.712   4.343   7.029 -0.4618  0.2515  1.0796
   92SAPC   C13 8801   5.663   4.373   7.297  0.7930 -0.3830  0.1758
   92SAPC  H13A 8802   5.651   4.335   7.397 -0.2186  2.0394  1.0585
   92SAPC  H13B 8803   5.669   4.481   7.300 -0.5674 -0.2401 -0.9693
   92SAPC  H13C 8804   5.584   4.336   7.233 -0.4379  1.4479  0.5504
   92SAPC   C14 8805   5.789   4.174   7.232  0.2460 -0.6247 -0.2118
   92SAPC  H14A 8806   5.776   4.147   7.336 -0.9415 -0.7603 -0.3839
   92SAPC  H14B 8807   5.712   4.130   7.171  0.8086  0.4153 -1.7287
   92SAPC  H14C 8808   5.884   4.135   7.198 -0.0197 -1.9675  0.5422
   92SAPC   C15 8809   5.904   4.375   7.316  0.1535  0.2102  0.1388
   92SAPC  H15A 8810   5.895   4.329   7.413 -1.7676  1.4487  0.6026
   92SAPC  H15B 8811   5.999   4.345   7.274 -0.2458 -1.2139  0.2152
   92SAPC  H15C 8812   5.900   4.481   7.336 -2.3053  0.0708  0.7498
   92SAPC   C11 8813   5.918   4.341   7.001 -1.0784  0.4809 -0.0056
   92SAPC  H11A 8814   5.909   4.380   6.897 -1.1166 -0.3094 -0.3055
   92SAPC  H11B 8815   5.918   4.230   7.003 -1.7635  0.4486 -0.9118
   92SAPC     P 8816   6.101   4.534   7.041  0.0673 -0.0164 -0.1018
   92SAPC   O13 8817   6.016   4.619   7.128 -0.1234 -0.3788 -0.1654
   92SAPC   O14 8818   6.247   4.541   7.062 -0.1719  0.2172 -0.1118
   92SAPC   O12 8819   6.045   4.384   7.047  0.1429  0.5207 -0.3919
   92SAPC   O11 8820   6.070   4.578   6.894  0.0966  0.5513 -0.3841
   92SAPC    C1 8821   6.127   4.516   6.782  0.4471 -0.0767 -0.2437
   92SAPC    HA 8822   6.233   4.544   6.768  0.5254  0.5287  1.3630
   92SAPC    HB 8823   6.128   4.406   6.794  1.8159 -0.4139 -2.7030
   92SAPC    C2 8824   6.058   4.563   6.650  0.4443 -0.6624  0.5728
   92SAPC    HS 8825   6.066   4.674   6.646  2.4252 -0.7815  0.0711
   92SAPC   O21 8826   5.921   4.508   6.657 -0.2951  0.0781  0.1427
   92SAPC   C21 8827   5.837   4.564   6.577 -0.0759  0.0475 -0.6334
   92SAPC   O22 8828   5.861   4.667   6.509  0.3498  0.4955  0.1258
   92SAPC   C22 8829   5.700   4.486   6.577 -1.2240  0.0178 -0.0716
   92SAPC   H2R 8830   5.712   4.392   6.636  3.7101 -0.5402 -1.4721
   92SAPC   H2S 8831   5.626   4.559   6.616 -1.3736  0.9755 -2.0281
   92SAPC    C3 8832   6.145   4.511   6.532  0.0656 -0.6567 -0.9183
   92SAPC    HX 8833   6.163   4.402   6.540 -0.1380 -0.6548 -0.3474
   92SAPC    HY 8834   6.243   4.565   6.537  0.9507 -2.2228 -0.8029
   92SAPC   O31 8835   6.083   4.533   6.402  0.5452 -0.1584 -0.7478
   92SAPC   C31 8836   6.102   4.655   6.348 -0.2079  0.5305 -0.2660
   92SAPC   O32 8837   6.142   4.753   6.404 -0.1727 -0.1003 -0.0548
   92SAPC   C32 8838   6.031   4.657   6.208  0.4154  0.0844  0.8570
   92SAPC   H2X 8839   6.049   4.763   6.179 -0.1277 -0.2153 -0.6566
   92SAPC   H2Y 8840   5.922   4.644   6.227  0.2143 -2.4890 -1.4957
   92SAPC   C23 8841   5.657   4.448   6.430 -0.5857 -0.4416  0.6790
   92SAPC   H3R 8842   5.655   4.549   6.382  1.4442 -1.1532 -1.0935
   92SAPC   H3S 8843   5.548   4.427   6.429 -0.7597  0.4234  0.7262
   92SAPC   C24 8844   5.761   4.362   6.356  0.9474 -0.1632 -0.2829
   92SAPC   H4R 8845   5.866   4.387   6.380  0.4813  0.1092  1.5897
   92SAPC   H4S 8846   5.744   4.385   6.248  1.3012  1.5824  0.0172
   92SAPC   C25 8847   5.742   4.215   6.383  0.4836 -0.7777  0.9070
   92SAPC   H5R 8848   5.743   4.194   6.491  1.4678  3.0536  1.7894
   92SAPC   C26 8849   5.705   4.114   6.296 -0.3966 -0.1142  0.4040
   92SAPC   H6R 8850   5.694   4.015   6.343 -1.9485  0.0326  0.3884
   92SAPC   C27 8851   5.672   4.126   6.150  0.6472 -0.1710  0.3359
   92SAPC   H7R 8852   5.592   4.202   6.149 -0.3385 -1.1310  1.7168
   92SAPC   H7S 8853   5.629   4.027   6.125 -0.9267  0.1810  1.4758
   92SAPC   C28 8854   5.778   4.147   6.051 -0.4852  0.8978  0.1037
   92SAPC   H8R 8855   5.878   4.147   6.094 -0.9020  1.1096  1.0909
   92SAPC   C29 8856   5.758   4.167   5.918 -0.0794 -0.2452  0.6617
   92SAPC   H9R 8857   5.847   4.171   5.854 -0.7080 -1.1464 -0.3022
   92SAPC  C210 8858   5.633   4.165   5.837  0.8861 -0.7941  0.7495
   92SAPC  H10R 8859   5.603   4.269   5.813  0.0110 -1.1448  0.2861
   92SAPC  H10S 8860   5.548   4.138   5.904  0.2298 -0.2242  0.1499
   92SAPC  C211 8861   5.643   4.076   5.709  0.0044 -0.7784 -0.1010
   92SAPC  H11R 8862   5.655   3.970   5.734  0.3822 -0.8401 -0.5222
   92SAPC  C212 8863   5.642   4.108   5.580 -0.4023  0.0741 -0.2108
   92SAPC  H12R 8864   5.671   4.030   5.508 -0.7204 -1.3313  1.1384
   92SAPC  C213 8865   5.631   4.246   5.521  0.1385 -1.1595 -0.1504
   92SAPC  H13R 8866   5.724   4.258   5.461  1.1647  1.9159  1.7724
   92SAPC  H13S 8867   5.652   4.318   5.604  1.2110 -2.0270  0.3730
   92SAPC  C214 8868   5.514   4.303   5.443 -0.7700 -0.1906 -0.0174
   92SAPC  H14R 8869   5.490   4.410   5.460  0.0478  0.0605 -0.3996
   92SAPC  C215 8870   5.464   4.237   5.333  0.3341  0.8330 -0.7350
   92SAPC  H15R 8871   5.373   4.284   5.293  1.2384  0.0088 -4.1031
   92SAPC  C216 8872   5.497   4.103   5.267 -0.7899 -0.2460  0.1789
   92SAPC  H16R 8873   5.426   4.030   5.310 -0.3720 -1.6257 -1.3366
   92SAPC  H16S 8874   5.605   4.083   5.283 -0.7799  0.7592  1.4625
   92SAPC  C217 8875   5.483   4.105   5.109  0.1097 -0.6512 -0.4805
   92SAPC  H17R 8876   5.379   4.135   5.082  0.8809  2.4418 -0.3847
   92SAPC  H17S 8877   5.497   4.003   5.067 -2.6158 -1.4627  0.3149
   92SAPC  C218 8878   5.566   4.218   5.043 -0.6123  0.1476 -0.0594
   92SAPC  H18R 8879   5.675   4.208   5.065 -0.0198  2.5045 -1.6187
   92SAPC  H18S 8880   5.542   4.319   5.080 -2.6962  0.4173 -1.9638
   92SAPC  C219 8881   5.570   4.215   4.891 -0.3851 -0.6767  0.4403
   92SAPC  H19R 8882   5.590   4.111   4.860 -4.1935 -1.6650  0.7403
   92SAPC  H19S 8883   5.648   4.285   4.855 -1.0894  0.4471  1.0154
   92SAPC  C220 8884   5.425   4.240   4.841 -0.1801 -0.0542  0.5317
   92SAPC  H20R 8885   5.352   4.158   4.861  0.1892 -0.2398  1.1809
   92SAPC  H20S 8886   5.438   4.244   4.731  0.0045  0.4138  0.5707
   92SAPC  H20T 8887   5.384   4.338   4.874 -1.9814 -0.7663  0.5741
   92SAPC   C33 8888   6.093   4.553   6.109 -0.2044  0.9008 -0.7712
   92SAPC   H3X 8889   6.121   4.460   6.162 -2.2727  0.7959  0.2241
   92SAPC   H3Y 8890   6.182   4.597   6.059 -0.0637  2.9389  1.0983
   92SAPC   C34 8891   6.004   4.514   5.994 -0.2601  0.5303  0.0834
   92SAPC   H4X 8892   5.916   4.468   6.043  0.6885  1.3450  2.6956
   92SAPC   H4Y 8893   6.064   4.438   5.939  0.7945 -0.5915  2.6340
   92SAPC   C35 8894   5.968   4.624   5.892 -0.5099 -0.4223  0.9098
   92SAPC   H5X 8895   6.055   4.685   5.859  0.0499 -0.9053  1.4712
   92SAPC   H5Y 8896   5.888   4.691   5.931  0.1954  0.8966  0.1508
   92SAPC   C36 8897   5.912   4.544   5.771 -0.8786  0.1224 -0.1780
   92SAPC   H6X 8898   5.845   4.458   5.794  1.2574 -1.0198  2.2597
   92SAPC   H6Y 8899   6.003   4.502   5.723  1.3806  1.0687  2.9539
   92SAPC   C37 8900   5.836   4.639   5.676  0.4686  0.3577 -0.0020
   92SAPC   H7X 8901   5.890   4.735   5.688  1.1648 -0.2916  2.6229
   92SAPC   H7Y 8902   5.730   4.661   5.700  0.5627  1.8304 -0.7952
   92SAPC   C38 8903   5.849   4.591   5.529 -0.6094 -0.3526  0.9961
   92SAPC   H8X 8904   5.794   4.495   5.523 -1.9913  0.2732  2.8225
   92SAPC   H8Y 8905   5.959   4.577   5.513 -0.6531  0.8212 -0.6271
   92SAPC   C39 8906   5.791   4.697   5.445 -0.1536  0.2478  0.4746
   92SAPC   H9X 8907   5.873   4.748   5.391 -0.0023  1.7476  2.0417
   92SAPC   H9Y 8908   5.748   4.782   5.502  0.6830  0.7623  0.3548
   92SAPC  C310 8909   5.677   4.648   5.349  0.1530  0.3420  0.1321
   92SAPC  H10X 8910   5.588   4.639   5.415  0.6839  1.3181  1.0177
   92SAPC  H10Y 8911   5.706   4.548   5.310  1.7768  0.2447  1.4745
   92SAPC  C311 8912   5.642   4.744   5.241 -1.0509  0.0799 -0.0325
   92SAPC  H11X 8913   5.728   4.764   5.173 -1.1497 -0.2447 -0.2535
   92SAPC  H11Y 8914   5.599   4.842   5.272  0.7566  1.6839 -2.2488
   92SAPC  C312 8915   5.549   4.678   5.138 -0.2244 -0.2011  0.0591
   92SAPC  H12X 8916   5.454   4.638   5.180  0.3596 -1.4211  0.2849
   92SAPC  H12Y 8917   5.610   4.599   5.089 -1.1426  0.6012 -2.5324
   92SAPC  C313 8918   5.514   4.774   5.028 -0.6162  0.2877  0.1753
   92SAPC  H13X 8919   5.597   4.835   4.985 -0.7811  0.5425  0.2160
   92SAPC  H13Y 8920   5.451   4.850   5.078 -1.9612 -0.5050 -0.2864
   92SAPC  C314 8921   5.434   4.702   4.910 -0.4273 -0.5929  0.4593
   92SAPC  H14X 8922   5.336   4.662   4.942 -1.3840  1.6500  0.4702
   92SAPC  H14Y 8923   5.497   4.616   4.876 -0.9782 -0.5873 -0.6125
   92SAPC  C315 8924   5.420   4.816   4.800  0.2317 -0.2498 -0.3569
   92SAPC  H15X 8925   5.506   4.884   4.781 -0.3792  0.8652  0.7124
   92SAPC  H15Y 8926   5.363   4.895   4.853  3.4896  1.5233  0.8100
   92SAPC  C316 8927   5.358   4.767   4.670 -1.0619  0.8717 -0.6105
   92SAPC  H16X 8928   5.270   4.706   4.702 -0.4978  1.1527  1.6541
   92SAPC  H16Y 8929   5.429   4.700   4.617 -1.1789  0.5923 -0.4192
   92SAPC  C317 8930   5.306   4.873   4.563  0.0867 -0.0620 -1.2899
   92SAPC  H17X 8931   5.217   4.914   4.617  0.2739 -0.3457 -0.7567
   92SAPC  H17Y 8932   5.266   4.822   4.473  0.5597 -0.2123 -1.4151
   92SAPC  C318 8933   5.400   4.992   4.530  0.2676  0.4108 -0.0870
   92SAPC  H18X 8934   5.409   5.050   4.625  0.6869  0.0479  0.0965
   92SAPC  H18Y 8935   5.361   5.065   4.455 -0.9243 -2.6443 -2.6750
   92SAPC  H18Z 8936   5.498   4.964   4.486  0.1664  1.5816 -1.1356
   93SAPC     N 8937   0.873   3.988   7.174 -0.1286 -0.0299  0.9220
   93SAPC   C12 8938   0.783   4.108   7.210 -0.3095  0.4248  0.0410
   93SAPC  H12A 8939   0.753   4.111   7.314  0.0921  2.6614  0.1418
   93SAPC  H12B 8940   0.694   4.110   7.149 -0.2075  1.3304 -0.0867
   93SAPC   C13 8941   0.992   4.000   7.250 -0.4929  0.6197  0.2368
   93SAPC  H13A 8942   1.028   4.101   7.240  0.1533  0.2471 -1.7592
   93SAPC  H13B 8943   0.977   3.989   7.356 -1.0613 -2.5338 -0.0668
   93SAPC  H13C 8944   1.067   3.927   7.224 -0.3472  0.5983  0.7185
   93SAPC   C14 8945   0.804   3.867   7.213  0.2709  0.1501  0.1480
   93SAPC  H14A 8946   0.733   3.839   7.137  0.6146  1.5523 -0.7323
   93SAPC  H14B 8947   0.871   3.783   7.203  1.0091  0.7972 -0.4977
   93SAPC  H14C 8948   0.751   3.869   7.307 -1.1156 -0.2111 -0.6077
   93SAPC   C15 8949   0.902   3.985   7.028  0.2322 -0.1981 -0.3648
   93SAPC  H15A 8950   0.811   3.971   6.972 -0.0572  1.5327 -0.3816
   93SAPC  H15B 8951   0.954   4.073   6.995  2.1877 -1.0191  0.3580
   93SAPC  H15C 8952   0.974   3.907   7.007  1.7446  0.5169  1.8104
   93SAPC   C11 8953   0.844   4.247   7.193 -0.5453  0.1850 -0.0982
   93SAPC  H11A 8954   0.923   4.255   7.270 -1.9045  0.6906  1.2974
   93SAPC  H11B 8955   0.776   4.327   7.230 -0.7058 -0.2756  0.6177
   93SAPC     P 8956   1.019   4.355   7.018  0.2339 -0.0176 -0.0718
   93SAPC   O13 8957   0.995   4.476   6.934 -0.3533 -0.3371 -0.2870
   93SAPC   O14 8958   1.107   4.364   7.131  0.4876  0.6816 -0.4192
   93SAPC   O12 8959   0.888   4.283   7.063  0.5911  0.1014  0.4036
   93SAPC   O11 8960   1.102   4.251   6.933  0.5027  0.0085  0.0683
   93SAPC    C1 8961   1.057   4.218   6.801  0.4277  0.0557 -0.4169
   93SAPC    HA 8962   1.103   4.119   6.782 -0.0920 -0.2619 -0.0765
   93SAPC    HB 8963   0.947   4.199   6.795  0.3143  0.1653  0.9247
   93SAPC    C2 8964   1.108   4.315   6.693  0.4049 -0.1615 -0.1546
   93SAPC    HS 8965   1.072   4.419   6.703  3.3324  0.9358  0.1906
   93SAPC   O21 8966   1.077   4.266   6.560  0.2566  0.3547 -0.2620
   93SAPC   C21 8967   0.958   4.289   6.514  0.1493  0.2695 -0.1416
   93SAPC   O22 8968   0.872   4.354   6.568 -0.1588  0.4075  0.4689
   93SAPC   C22 8969   0.931   4.196   6.393  0.0704  0.5131  0.4313
   93SAPC   H2R 8970   1.020   4.188   6.326 -0.9332  0.0754 -0.8783
   93SAPC   H2S 8971   0.900   4.096   6.430 -0.7690  0.7404  0.3612
   93SAPC    C3 8972   1.263   4.333   6.700 -0.2167  0.1713 -0.6491
   93SAPC    HX 8973   1.310   4.233   6.710  0.7371  0.5190 -1.4226
   93SAPC    HY 8974   1.292   4.382   6.795  2.3315 -0.6318 -0.9322
   93SAPC   O31 8975   1.306   4.397   6.581  0.3890 -0.2108 -0.8292
   93SAPC   C31 8976   1.323   4.534   6.604  0.0830 -0.0108  0.7880
   93SAPC   O32 8977   1.286   4.598   6.696 -0.0533 -0.0697 -0.5723
   93SAPC   C32 8978   1.365   4.601   6.472 -0.2017  0.1926  0.3011
   93SAPC   H2X 8979   1.429   4.530   6.416 -0.6052 -0.5079  0.7198
   93SAPC   H2Y 8980   1.419   4.694   6.500  2.7819 -0.4395 -2.7693
   93SAPC   C23 8981   0.806   4.255   6.309  0.3740  0.1761 -0.8999
   93SAPC   H3R 8982   0.716   4.275   6.371 -1.1521 -3.8316 -1.5202
   93SAPC   H3S 8983   0.767   4.179   6.238 -1.1293 -1.6725  1.7118
   93SAPC   C24 8984   0.840   4.376   6.217  0.1798  0.6824 -0.4236
   93SAPC   H4R 8985   0.860   4.476   6.262  2.9772  0.8416 -1.8154
   93SAPC   H4S 8986   0.757   4.394   6.146  3.1805  0.8330 -4.1952
   93SAPC   C25 8987   0.964   4.351   6.133  0.2942  0.8281 -0.5822
   93SAPC   H5R 8988   1.059   4.354   6.189  0.4008  0.0349 -0.7152
   93SAPC   C26 8989   0.971   4.337   6.000 -0.0796  0.5216  0.4022
   93SAPC   H6R 8990   1.075   4.331   5.963 -0.5586 -1.3213 -0.8049
   93SAPC   C27 8991   0.859   4.331   5.895  0.1906  0.0048 -0.2367
   93SAPC   H7R 8992   0.827   4.435   5.870 -1.8038 -0.4505  0.2937
   93SAPC   H7S 8993   0.765   4.283   5.928 -0.2017 -1.3758 -3.0408
   93SAPC   C28 8994   0.905   4.247   5.773  0.2828 -0.3165 -0.2679
   93SAPC   H8R 8995   0.985   4.175   5.795 -0.9523 -0.8838  3.0177
   93SAPC   C29 8996   0.860   4.263   5.649  0.3954  0.1090 -0.4191
   93SAPC   H9R 8997   0.911   4.210   5.567  0.8504  0.4058 -0.3313
   93SAPC  C210 8998   0.754   4.358   5.597  0.5618 -0.2397 -0.2282
   93SAPC  H10R 8999   0.798   4.435   5.530 -2.0720 -0.0245 -1.8414
   93SAPC  H10S 9000   0.711   4.422   5.677  0.9909  1.4785 -1.3111
   93SAPC  C211 9001   0.644   4.301   5.512 -0.5830  0.3606 -0.2675
   93SAPC  H11R 9002   0.555   4.270   5.569 -0.4197 -0.1378 -0.2769
   93SAPC  C212 9003   0.648   4.275   5.382 -0.3153  0.3494 -0.1074
   93SAPC  H12R 9004   0.565   4.233   5.323  1.4188 -0.5444 -2.0650
   93SAPC  C213 9005   0.764   4.304   5.293  0.0542 -0.6107 -0.1665
   93SAPC  H13R 9006   0.862   4.311   5.347 -0.6212  1.0489  0.9259
   93SAPC  H13S 9007   0.755   4.408   5.255 -0.2341 -0.7478 -0.4704
   93SAPC  C214 9008   0.776   4.205   5.180 -0.0207 -0.0710 -0.5368
   93SAPC  H14R 9009   0.845   4.123   5.209  0.4368  0.7067  0.6718
   93SAPC  C215 9010   0.713   4.191   5.058 -0.8644  0.2927 -0.6102
   93SAPC  H15R 9011   0.747   4.110   4.991 -2.4570 -1.4273  0.5608
   93SAPC  C216 9012   0.601   4.270   5.010 -0.0360 -0.6826  0.3766
   93SAPC  H16R 9013   0.635   4.374   4.991 -1.2113 -0.3524  0.0173
   93SAPC  H16S 9014   0.538   4.287   5.100 -0.7461  2.6796 -0.6267
   93SAPC  C217 9015   0.530   4.196   4.903  0.6426 -0.6754 -0.3232
   93SAPC  H17R 9016   0.422   4.214   4.924  0.2864 -1.6275 -1.2323
   93SAPC  H17S 9017   0.554   4.088   4.914  0.7455 -0.6528 -0.3298
   93SAPC  C218 9018   0.559   4.250   4.764 -0.6775 -0.3438 -0.2826
   93SAPC  H18R 9019   0.537   4.359   4.760 -0.0236 -0.1149  1.5535
   93SAPC  H18S 9020   0.479   4.205   4.701 -1.2013  1.6441 -1.1279
   93SAPC  C219 9021   0.709   4.243   4.719  0.2648  0.8182 -0.0444
   93SAPC  H19R 9022   0.768   4.309   4.786 -2.2032  0.3202  2.8878
   93SAPC  H19S 9023   0.693   4.284   4.617 -2.6610 -1.1769 -0.5090
   93SAPC  C220 9024   0.764   4.103   4.701  0.0490 -1.0063  0.2675
   93SAPC  H20R 9025   0.786   4.059   4.800 -0.9554 -1.7823  0.1731
   93SAPC  H20S 9026   0.853   4.106   4.634  0.6897 -0.3062  1.1382
   93SAPC  H20T 9027   0.686   4.043   4.648 -0.9731 -0.2330  0.8690
   93SAPC   C33 9028   1.240   4.643   6.379  0.4720  0.3506 -0.1141
   93SAPC   H3X 9029   1.202   4.738   6.422 -0.3897 -0.0584  0.0428
   93SAPC   H3Y 9030   1.165   4.561   6.391 -0.1313  1.1420  2.1214
   93SAPC   C34 9031   1.279   4.673   6.234  0.1368 -0.1697 -0.0826
   93SAPC   H4X 9032   1.302   4.571   6.197 -3.5557 -1.3228  0.4133
   93SAPC   H4Y 9033   1.362   4.747   6.230 -0.7303  0.7915 -0.6715
   93SAPC   C35 9034   1.158   4.706   6.145  0.4478  0.3794 -0.7509
   93SAPC   H5X 9035   1.117   4.803   6.183  0.7688  0.4864 -0.6689
   93SAPC   H5Y 9036   1.079   4.629   6.153  2.1107 -1.3830 -0.4743
   93SAPC   C36 9037   1.211   4.709   5.998 -0.4584 -0.3038  0.3192
   93SAPC   H6X 9038   1.289   4.632   5.983  1.7236  1.8267  0.2807
   93SAPC   H6Y 9039   1.260   4.804   5.971 -0.8699  0.0216  0.6960
   93SAPC   C37 9040   1.095   4.682   5.893  0.1931 -0.6211 -0.6342
   93SAPC   H7X 9041   1.000   4.735   5.915  1.2238  0.1817  2.3434
   93SAPC   H7Y 9042   1.060   4.577   5.902 -0.7402 -0.1264  2.5951
   93SAPC   C38 9043   1.151   4.704   5.753 -0.0609 -0.3640 -0.3036
   93SAPC   H8X 9044   1.242   4.644   5.736 -0.7962 -1.0500 -1.9929
   93SAPC   H8Y 9045   1.156   4.810   5.719 -1.5198 -0.5830 -1.3135
   93SAPC   C39 9046   1.063   4.646   5.644  0.2404  1.1542 -0.2868
   93SAPC   H9X 9047   0.957   4.678   5.634  0.0596  0.3553 -0.9757
   93SAPC   H9Y 9048   1.050   4.537   5.656 -0.6952  0.9269 -2.9112
   93SAPC  C310 9049   1.133   4.644   5.508 -0.1375  0.1552 -0.3684
   93SAPC  H10X 9050   1.229   4.591   5.525  0.4042  1.2490  0.1194
   93SAPC  H10Y 9051   1.159   4.748   5.478 -1.3376 -0.0627 -2.3247
   93SAPC  C311 9052   1.047   4.576   5.402  0.4622 -0.2747  0.0744
   93SAPC  H11X 9053   0.958   4.639   5.380 -0.1126 -1.3390 -0.7551
   93SAPC  H11Y 9054   1.003   4.485   5.448 -0.6196  1.0130  1.7336
   93SAPC  C312 9055   1.132   4.546   5.274 -0.1444  0.1887  0.1150
   93SAPC  H12X 9056   1.205   4.465   5.296 -2.2865 -1.3905  1.9669
   93SAPC  H12Y 9057   1.188   4.634   5.236  1.0361  0.0107  1.3877
   93SAPC  C313 9058   1.047   4.478   5.160 -0.4033  0.0796  0.3206
   93SAPC  H13X 9059   0.951   4.533   5.146 -1.0292 -1.5885 -3.0227
   93SAPC  H13Y 9060   1.024   4.374   5.192  0.4418 -0.1735  0.1120
   93SAPC  C314 9061   1.131   4.471   5.036  0.3435 -0.1491  0.4917
   93SAPC  H14X 9062   1.222   4.415   5.066 -0.9387 -2.0439  1.0050
   93SAPC  H14Y 9063   1.155   4.578   5.020  0.0820 -0.4007 -2.0293
   93SAPC  C315 9064   1.061   4.429   4.905 -0.7219  0.3017 -0.0284
   93SAPC  H15X 9065   0.951   4.419   4.915 -0.8232 -0.5723 -1.6449
   93SAPC  H15Y 9066   1.084   4.321   4.894 -0.2938  0.4441 -0.5897
   93SAPC  C316 9067   1.105   4.508   4.781 -0.1474  0.2925  0.1540
   93SAPC  H16X 9068   1.205   4.466   4.757  0.9960  1.9615  1.7063
   93SAPC  H16Y 9069   1.131   4.611   4.815  1.8416 -0.3491  0.7252
   93SAPC  C317 9070   1.007   4.512   4.660  0.3111 -0.4706 -0.0979
   93SAPC  H17X 9071   0.976   4.409   4.630  1.0630 -0.4278 -1.0665
   93SAPC  H17Y 9072   1.069   4.545   4.574 -0.7539  1.0134 -0.3418
   93SAPC  C318 9073   0.882   4.596   4.671 -0.2335  0.0897 -0.3953
   93SAPC  H18X 9074   0.909   4.703   4.685 -0.4937  0.1348 -0.2238
   93SAPC  H18Y 9075   0.822   4.559   4.756  0.4142  0.4126  0.2080
   93SAPC  H18Z 9076   0.829   4.578   4.574  2.0982  3.3610 -2.4859
   94SAPC     N 9077   6.129   5.909   7.192  0.3768  0.2500 -0.2026
   94SAPC   C12 9078   6.226   5.879   7.079  1.1732 -0.4083  0.1450
   94SAPC  H12A 9079   6.293   5.799   7.106  0.7515 -0.3431  1.4446
   94SAPC  H12B 9080   6.284   5.970   7.073  1.4478 -0.5960 -0.0830
   94SAPC   C13 9081   6.041   5.797   7.228 -0.1559 -0.0708 -0.4650
   94SAPC  H13A 9082   5.982   5.820   7.315 -0.9815  1.2375 -1.3351
   94SAPC  H13B 9083   5.970   5.775   7.149  1.9244 -2.2419 -1.8653
   94SAPC  H13C 9084   6.097   5.709   7.256  0.6660 -0.1016 -2.0884
   94SAPC   C14 9085   6.206   5.946   7.314  0.2991  0.0424 -0.0732
   94SAPC  H14A 9086   6.145   5.998   7.386 -0.0345  1.3961 -1.2731
   94SAPC  H14B 9087   6.251   5.862   7.364  0.3120  0.3115  0.3784
   94SAPC  H14C 9088   6.288   6.014   7.292  0.3514  0.3721  1.0619
   94SAPC   C15 9089   6.035   6.025   7.155 -0.0857  0.1130 -0.3892
   94SAPC  H15A 9090   5.980   6.059   7.242 -0.7316  0.4890 -0.9404
   94SAPC  H15B 9091   6.086   6.110   7.111  1.1253  0.9859  2.4203
   94SAPC  H15C 9092   5.961   5.993   7.084 -0.1745 -0.2298 -0.1471
   94SAPC   C11 9093   6.165   5.852   6.942  0.1905 -0.4282  0.0837
   94SAPC  H11A 9094   6.094   5.768   6.955 -1.0707  0.7140  0.7971
   94SAPC  H11B 9095   6.242   5.806   6.876  0.3590  2.7293 -2.1632
   94SAPC     P 9096   6.170   6.081   6.811 -0.2442  0.4959  0.3232
   94SAPC   O13 9097   6.065   6.173   6.776 -0.3222 -0.3964  0.9048
   94SAPC   O14 9098   6.281   6.137   6.886  0.2820  0.1873 -0.9920
   94SAPC   O12 9099   6.101   5.956   6.878 -0.3226  0.0729 -0.1746
   94SAPC   O11 9100   6.230   6.008   6.684 -0.5542 -0.5710 -0.1396
   94SAPC    C1 9101   6.147   5.927   6.595  0.2471  0.7506 -0.6776
   94SAPC    HA 9102   6.160   5.820   6.620 -1.5558  0.6341 -0.1203
   94SAPC    HB 9103   6.040   5.948   6.615  0.5122  1.0535  0.5185
   94SAPC    C2 9104   6.161   5.955   6.445  0.0381 -1.4366 -0.5145
   94SAPC    HS 9105   6.251   5.896   6.416  2.9368  1.8295  0.9997
   94SAPC   O21 9106   6.161   6.096   6.423  0.0584 -0.5531 -0.0942
   94SAPC   C21 9107   6.228   6.140   6.317  0.1943  0.5631 -0.3120
   94SAPC   O22 9108   6.309   6.072   6.252  0.0036 -0.0299 -0.3869
   94SAPC   C22 9109   6.195   6.289   6.295  0.7629  0.0925  0.3064
   94SAPC   H2R 9110   6.106   6.304   6.361  1.7818 -2.5618  2.5018
   94SAPC   H2S 9111   6.285   6.348   6.322  2.9075 -2.2735 -1.2227
   94SAPC    C3 9112   6.029   5.888   6.376 -0.4348 -0.8644 -0.3323
   94SAPC    HX 9113   5.948   5.964   6.375  0.1957 -0.1515  1.0218
   94SAPC    HY 9114   5.990   5.816   6.451  0.6408 -0.7051  0.4056
   94SAPC   O31 9115   6.061   5.832   6.244 -0.0562  0.3459 -0.5012
   94SAPC   C31 9116   6.129   5.720   6.248 -0.1656  0.1298  0.1093
   94SAPC   O32 9117   6.171   5.669   6.355  0.7106  0.4702  0.0295
   94SAPC   C32 9118   6.160   5.680   6.109 -0.1257  0.2698 -0.2520
   94SAPC   H2X 9119   6.249   5.739   6.081 -0.4063  1.7744  1.8032
   94SAPC   H2Y 9120   6.065   5.699   6.054 -1.6111  1.6991  2.5740
   94SAPC   C23 9121   6.151   6.321   6.152 -0.0183  1.0255  0.2636
   94SAPC   H3R 9122   6.238   6.294   6.088  0.2956  2.4875  0.0368
   94SAPC   H3S 9123   6.136   6.431   6.163 -1.4140  0.7093  1.9952
   94SAPC   C24 9124   6.014   6.260   6.097  0.0997 -0.5993  0.7811
   94SAPC   H4R 9125   6.029   6.151   6.103  2.0047 -0.4142  0.1853
   94SAPC   H4S 9126   6.010   6.282   5.988 -1.0692 -1.0997  0.7211
   94SAPC   C25 9127   5.891   6.313   6.167 -0.4686  0.5005  0.0293
   94SAPC   H5R 9128   5.878   6.267   6.266 -0.2628  0.7946  0.1962
   94SAPC   C26 9129   5.794   6.392   6.123 -0.5718  0.6090 -0.3135
   94SAPC   H6R 9130   5.719   6.432   6.193 -0.2241  1.6645 -0.5207
   94SAPC   C27 9131   5.785   6.456   5.985 -0.1016 -0.8508  0.0894
   94SAPC   H7R 9132   5.886   6.464   5.940 -0.3649  1.6500 -0.1599
   94SAPC   H7S 9133   5.740   6.556   5.999 -1.9411 -1.4116 -1.5083
   94SAPC   C28 9134   5.706   6.381   5.887  0.4372  0.4877 -0.4330
   94SAPC   H8R 9135   5.664   6.289   5.930  2.6559 -0.1760  0.4390
   94SAPC   C29 9136   5.674   6.414   5.759  0.5647 -0.2919 -0.1873
   94SAPC   H9R 9137   5.609   6.344   5.704  1.4257 -1.3656  0.1348
   94SAPC  C210 9138   5.708   6.552   5.695  0.8307 -0.3833  0.7027
   94SAPC  H10R 9139   5.767   6.547   5.601 -1.2224 -2.0262 -0.5714
   94SAPC  H10S 9140   5.765   6.606   5.774 -1.2816 -0.4818  2.3767
   94SAPC  C211 9141   5.576   6.629   5.669 -0.1492 -0.1287  0.4523
   94SAPC  H11R 9142   5.524   6.646   5.765  0.2200  3.0526  0.2195
   94SAPC  C212 9143   5.536   6.708   5.567  0.0617 -0.2577  0.0001
   94SAPC  H12R 9144   5.429   6.730   5.572 -0.3967 -2.5310  2.1873
   94SAPC  C213 9145   5.606   6.750   5.434  0.9604 -1.0404 -0.4250
   94SAPC  H13R 9146   5.679   6.828   5.466  1.5709 -1.5287 -0.6168
   94SAPC  H13S 9147   5.535   6.803   5.366 -0.2160  0.8328  2.1046
   94SAPC  C214 9148   5.683   6.653   5.353  0.1122 -0.2139 -0.2612
   94SAPC  H14R 9149   5.730   6.570   5.409  0.2490 -0.7994 -1.2036
   94SAPC  C215 9150   5.716   6.665   5.224 -0.0517  0.0849  0.8780
   94SAPC  H15R 9151   5.769   6.582   5.173  0.0432 -0.0923  1.2645
   94SAPC  C216 9152   5.678   6.782   5.136 -0.7495  0.7286 -0.2389
   94SAPC  H16R 9153   5.570   6.808   5.142 -1.1164 -0.3798 -1.4511
   94SAPC  H16S 9154   5.694   6.760   5.028  0.5183  0.8139 -0.0777
   94SAPC  C217 9155   5.776   6.902   5.166 -0.5741 -0.0345 -0.0277
   94SAPC  H17R 9156   5.873   6.860   5.199 -0.3447  0.7650  0.3265
   94SAPC  H17S 9157   5.737   6.963   5.250 -2.0603  0.2678 -0.9004
   94SAPC  C218 9158   5.806   6.984   5.038  0.1001 -0.6560 -0.0483
   94SAPC  H18R 9159   5.709   7.000   4.986  1.1621 -0.3306 -1.9879
   94SAPC  H18S 9160   5.860   6.918   4.967  1.4440 -0.2409  0.5522
   94SAPC  C219 9161   5.884   7.112   5.058  0.2956  0.6156 -0.6068
   94SAPC  H19R 9162   5.989   7.077   5.066  0.8108  2.1814 -0.1967
   94SAPC  H19S 9163   5.857   7.157   5.155 -1.3056 -1.8099  0.1788
   94SAPC  C220 9164   5.866   7.205   4.938 -0.6300 -0.3737  0.6527
   94SAPC  H20R 9165   5.897   7.308   4.967 -1.5620  0.6712 -1.7845
   94SAPC  H20S 9166   5.758   7.221   4.919 -0.3945  2.1969  0.9957
   94SAPC  H20T 9167   5.927   7.179   4.849  2.1296  0.6549  2.1088
   94SAPC   C33 9168   6.183   5.535   6.081 -0.0518  0.1741  0.6391
   94SAPC   H3X 9169   6.126   5.467   6.148 -0.0693 -2.1231 -1.5947
   94SAPC   H3Y 9170   6.287   5.504   6.106  0.7922  1.5056 -0.9413
   94SAPC   C34 9171   6.160   5.500   5.928 -0.1287  1.1921 -0.5017
   94SAPC   H4X 9172   6.218   5.561   5.855  3.0836  0.1790  1.0193
   94SAPC   H4Y 9173   6.051   5.502   5.909 -0.0978  0.4460 -0.7897
   94SAPC   C35 9174   6.194   5.349   5.907 -0.0674  0.2451 -0.6168
   94SAPC   H5X 9175   6.166   5.280   5.990  2.2418 -0.6469 -0.5185
   94SAPC   H5Y 9176   6.304   5.346   5.895 -0.0481  1.4429 -0.8391
   94SAPC   C36 9177   6.137   5.295   5.777  0.5940  0.2684  0.6434
   94SAPC   H6X 9178   6.032   5.332   5.778 -1.0718 -3.7159 -1.9940
   94SAPC   H6Y 9179   6.128   5.185   5.793 -1.9695  0.6195  2.3106
   94SAPC   C37 9180   6.209   5.339   5.652  0.0104 -0.0570  0.0313
   94SAPC   H7X 9181   6.310   5.297   5.635 -0.2720 -1.4126  1.4732
   94SAPC   H7Y 9182   6.223   5.449   5.664 -0.0041  0.0571 -0.9820
   94SAPC   C38 9183   6.120   5.334   5.531 -0.0880  0.3479  0.3647
   94SAPC   H8X 9184   6.026   5.392   5.538 -0.0395  0.9522 -2.7632
   94SAPC   H8Y 9185   6.088   5.229   5.512  1.7783 -0.3912  0.9942
   94SAPC   C39 9186   6.206   5.368   5.408 -0.0853 -1.0673 -0.1090
   94SAPC   H9X 9187   6.284   5.291   5.391  1.1352 -0.0171  0.4762
   94SAPC   H9Y 9188   6.261   5.465   5.416 -2.7657  0.4844  0.6601
   94SAPC  C310 9189   6.122   5.367   5.278 -0.1485  0.3963 -0.5325
   94SAPC  H10X 9190   6.036   5.436   5.286 -0.5044 -0.1356  0.4173
   94SAPC  H10Y 9191   6.068   5.270   5.274  0.0738  0.2714 -0.5253
   94SAPC  C311 9192   6.211   5.382   5.155 -0.0984 -0.1163 -0.4918
   94SAPC  H11X 9193   6.286   5.300   5.148  0.3233  0.1630  0.5101
   94SAPC  H11Y 9194   6.270   5.474   5.172  1.7843 -1.9330  4.8815
   94SAPC  C312 9195   6.132   5.387   5.016 -0.2751  0.7317 -0.3009
   94SAPC  H12X 9196   6.095   5.283   5.008 -3.6797  1.9379 -2.0957
   94SAPC  H12Y 9197   6.205   5.404   4.934  1.7039 -2.1523  0.7301
   94SAPC  C313 9198   6.005   5.476   5.001  0.4347  0.3329 -0.3441
   94SAPC  H13X 9199   5.941   5.467   5.090  0.4400  1.1232 -0.2558
   94SAPC  H13Y 9200   5.948   5.431   4.916  0.6921 -1.4617  0.3984
   94SAPC  C314 9201   6.037   5.628   4.975  0.6061 -0.0469  1.0921
   94SAPC  H14X 9202   6.125   5.655   5.038  2.2123 -2.0536 -0.1992
   94SAPC  H14Y 9203   5.940   5.677   4.999 -0.2039 -0.2184 -1.5637
   94SAPC  C315 9204   6.083   5.650   4.833 -0.0318  0.3503 -0.4308
   94SAPC  H15X 9205   6.017   5.599   4.759 -1.7172  0.8975  0.6553
   94SAPC  H15Y 9206   6.176   5.589   4.832 -1.8265 -2.7345  1.8876
   94SAPC  C316 9207   6.111   5.795   4.792 -0.5023  0.5871 -0.2505
   94SAPC  H16X 9208   6.196   5.835   4.851  0.9390  0.1035 -1.9054
   94SAPC  H16Y 9209   6.029   5.870   4.800 -1.7266 -0.4898 -1.9608
   94SAPC  C317 9210   6.160   5.804   4.644  0.1894  0.0343 -0.2988
   94SAPC  H17X 9211   6.079   5.780   4.571  0.0190  0.1103 -0.1367
   94SAPC  H17Y 9212   6.230   5.722   4.618 -0.0601 -0.8639  1.6646
   94SAPC  C318 9213   6.219   5.940   4.615 -1.0329  0.1934  0.2598
   94SAPC  H18X 9214   6.151   6.021   4.648  0.5281  1.3223  0.8191
   94SAPC  H18Y 9215   6.253   5.934   4.510 -1.5139 -0.5701  0.1401
   94SAPC  H18Z 9216   6.317   5.951   4.665 -1.4326 -0.3061  1.2027
   95SAPC     N 9217   2.818   6.634   2.097  0.4736 -0.1161  0.2870
   95SAPC   C12 9218   2.769   6.765   2.155 -0.0664 -0.1624  0.4609
   95SAPC  H12A 9219   2.819   6.848   2.108 -1.4287  0.9351  0.8941
   95SAPC  H12B 9220   2.794   6.781   2.259 -1.5792  0.0491  0.8111
   95SAPC   C13 9221   2.747   6.516   2.145 -0.2887 -0.2885 -0.5609
   95SAPC  H13A 9222   2.748   6.523   2.252 -2.8213  1.1503 -0.5528
   95SAPC  H13B 9223   2.643   6.519   2.115 -1.0361 -1.9603  1.6597
   95SAPC  H13C 9224   2.802   6.426   2.123  0.4787 -0.8611  3.1718
   95SAPC   C14 9225   2.782   6.644   1.950 -0.1515  0.1256 -0.5904
   95SAPC  H14A 9226   2.825   6.729   1.900  0.1385 -1.1805 -2.6520
   95SAPC  H14B 9227   2.794   6.553   1.893  0.9022 -0.7528  0.9452
   95SAPC  H14C 9228   2.677   6.668   1.949 -1.1768 -3.6448  0.6042
   95SAPC   C15 9229   2.960   6.600   2.122  0.1703 -0.3484 -0.2881
   95SAPC  H15A 9230   3.022   6.686   2.102 -2.2119  1.9637  1.6368
   95SAPC  H15B 9231   2.981   6.563   2.221  1.3983 -1.1804 -0.8399
   95SAPC  H15C 9232   2.984   6.516   2.058 -2.1414 -0.6729 -0.8369
   95SAPC   C11 9233   2.620   6.794   2.138 -1.2285 -0.0084  0.0482
   95SAPC  H11A 9234   2.575   6.798   2.037 -1.1577 -0.5613 -0.0072
   95SAPC  H11B 9235   2.611   6.894   2.186 -2.3991 -0.3549  0.5850
   95SAPC     P 9236   2.508   6.722   2.365  0.1873 -0.1971  0.2158
   95SAPC   O13 9237   2.433   6.847   2.384  0.0409  0.0615 -0.3132
   95SAPC   O14 9238   2.441   6.599   2.406 -0.0218 -0.0660  0.0529
   95SAPC   O12 9239   2.536   6.704   2.210  0.2483 -0.4900 -0.7284
   95SAPC   O11 9240   2.650   6.733   2.433  0.1807 -0.7000 -0.1535
   95SAPC    C1 9241   2.713   6.860   2.472 -0.2339  0.1043  0.5977
   95SAPC    HA 9242   2.820   6.845   2.447 -0.3710 -0.1494  0.1567
   95SAPC    HB 9243   2.676   6.945   2.410 -1.7312 -1.0344 -0.1485
   95SAPC    C2 9244   2.700   6.871   2.627  0.0758  0.1280  0.1340
   95SAPC    HS 9245   2.743   6.968   2.659  1.3277  0.4757 -2.3358
   95SAPC   O21 9246   2.745   6.757   2.700 -0.4104 -0.5769  0.0624
   95SAPC   C21 9247   2.872   6.739   2.701 -0.6835 -0.6583  0.0708
   95SAPC   O22 9248   2.960   6.806   2.638  0.1162  0.3545 -0.9569
   95SAPC   C22 9249   2.905   6.617   2.790  0.1260 -0.6982  0.5854
   95SAPC   H2R 9250   2.820   6.547   2.775  1.3685 -2.0009 -0.6375
   95SAPC   H2S 9251   2.991   6.577   2.733  1.5724  1.1774  1.3239
   95SAPC    C3 9252   2.556   6.895   2.674  0.1076  0.2124 -0.0551
   95SAPC    HX 9253   2.475   6.838   2.626  0.3690 -1.4625  1.3892
   95SAPC    HY 9254   2.530   6.992   2.628 -0.6759 -0.5494 -1.2577
   95SAPC   O31 9255   2.543   6.901   2.816 -0.1938  0.2045 -0.3403
   95SAPC   C31 9256   2.484   6.797   2.873 -0.3145 -0.0311  0.6410
   95SAPC   O32 9257   2.421   6.712   2.808  0.1432  0.1368  0.3099
   95SAPC   C32 9258   2.501   6.804   3.021  0.5515  0.4278 -0.1544
   95SAPC   H2X 9259   2.499   6.902   3.074 -1.7214 -0.2017  1.0500
   95SAPC   H2Y 9260   2.604   6.766   3.041  1.0430  1.7274 -0.1105
   95SAPC   C23 9261   2.910   6.657   2.941 -0.6817  0.2103 -0.0012
   95SAPC   H3R 9262   2.838   6.739   2.959  1.2667  1.9564  0.1046
   95SAPC   H3S 9263   3.005   6.705   2.972 -0.7044  1.1598 -1.3359
   95SAPC   C24 9264   2.890   6.526   3.020 -0.3379  0.3934 -0.4399
   95SAPC   H4R 9265   2.966   6.463   2.968  2.9876  1.6443  2.4564
   95SAPC   H4S 9266   2.787   6.487   3.009 -0.7760  1.1292  0.8266
   95SAPC   C25 9267   2.921   6.518   3.170 -1.1277  0.1232  0.4115
   95SAPC   H5R 9268   3.017   6.557   3.206 -2.4070  1.3008  2.8113
   95SAPC   C26 9269   2.829   6.492   3.269 -0.7477  0.3955  0.3483
   95SAPC   H6R 9270   2.864   6.458   3.367 -0.3997 -1.1800 -0.2882
   95SAPC   C27 9271   2.687   6.445   3.245  0.0757  0.0028 -0.5469
   95SAPC   H7R 9272   2.647   6.501   3.158 -0.3516  0.9883  0.2602
   95SAPC   H7S 9273   2.618   6.474   3.327  1.1049  0.2953  0.2370
   95SAPC   C28 9274   2.677   6.301   3.214  0.0233  0.5404  0.1334
   95SAPC   H8R 9275   2.678   6.277   3.107  1.9483 -0.5419  0.3527
   95SAPC   C29 9276   2.676   6.194   3.295 -0.3768 -0.0110  1.2840
   95SAPC   H9R 9277   2.665   6.093   3.253 -1.1178  0.1686  1.0270
   95SAPC  C210 9278   2.684   6.196   3.440  0.5820 -0.4579 -1.3356
   95SAPC  H10R 9279   2.612   6.116   3.466  0.3060 -0.3550 -1.7794
   95SAPC  H10S 9280   2.648   6.287   3.493  1.1304 -1.1547  0.3014
   95SAPC  C211 9281   2.819   6.152   3.493 -0.4861 -0.0083  0.0031
   95SAPC  H11R 9282   2.873   6.085   3.426 -0.7871  1.1280 -1.4268
   95SAPC  C212 9283   2.871   6.182   3.611  0.0248 -0.3799 -0.3323
   95SAPC  H12R 9284   2.974   6.144   3.627  0.0626  0.1267  0.7000
   95SAPC  C213 9285   2.812   6.279   3.710 -0.8662 -0.6054 -0.1230
   95SAPC  H13R 9286   2.769   6.369   3.662  0.8716  1.9338  2.7642
   95SAPC  H13S 9287   2.890   6.333   3.768 -1.7412  0.4102  0.1392
   95SAPC  C214 9288   2.714   6.217   3.808 -0.6180  0.0010  0.0155
   95SAPC  H14R 9289   2.607   6.238   3.792 -1.1762 -1.5209  1.4548
   95SAPC  C215 9290   2.751   6.145   3.915 -0.0717  0.3098 -0.5640
   95SAPC  H15R 9291   2.673   6.108   3.984 -2.0442  0.6068 -2.4975
   95SAPC  C216 9292   2.897   6.106   3.949  0.4246  0.2749 -0.4857
   95SAPC  H16R 9293   2.964   6.130   3.864  1.7315  0.1677  0.4766
   95SAPC  H16S 9294   2.913   5.999   3.973  1.9681  0.6715  0.4063
   95SAPC  C217 9295   2.949   6.178   4.082 -0.2903 -0.3839  0.1636
   95SAPC  H17R 9296   2.888   6.142   4.167 -1.0795  1.6001  0.5140
   95SAPC  H17S 9297   2.948   6.289   4.075 -0.3210 -0.3437  0.7915
   95SAPC  C218 9298   3.097   6.130   4.100  0.8075  0.0995 -0.7265
   95SAPC  H18R 9299   3.159   6.179   4.022  0.5260 -0.3120 -1.2112
   95SAPC  H18S 9300   3.093   6.019   4.100  0.2432 -0.0150  2.8491
   95SAPC  C219 9301   3.164   6.151   4.237  1.1251 -0.5346  0.2033
   95SAPC  H19R 9302   3.130   6.069   4.304 -0.4909  0.4035  0.5772
   95SAPC  H19S 9303   3.121   6.242   4.284  0.4311  0.1823 -1.6974
   95SAPC  C220 9304   3.324   6.148   4.229  0.3497  0.4784 -0.5274
   95SAPC  H20R 9305   3.370   6.052   4.200  2.2026  1.5926 -1.5127
   95SAPC  H20S 9306   3.364   6.190   4.324  2.2258  0.9432 -1.4530
   95SAPC  H20T 9307   3.359   6.218   4.150 -0.8316  2.2492  0.4536
   95SAPC   C33 9308   2.394   6.724   3.091  0.3471  0.0971  0.0906
   95SAPC   H3X 9309   2.386   6.618   3.058 -0.1994  0.7495 -1.9806
   95SAPC   H3Y 9310   2.295   6.771   3.071  1.4870  2.2765 -0.7258
   95SAPC   C34 9311   2.412   6.738   3.245 -0.8322  0.2413 -0.0285
   95SAPC   H4X 9312   2.421   6.845   3.275  0.0716 -0.3420  1.9894
   95SAPC   H4Y 9313   2.516   6.707   3.270 -1.7409 -0.8869  2.7893
   95SAPC   C35 9314   2.305   6.661   3.319 -0.4097 -0.2688  0.5083
   95SAPC   H5X 9315   2.296   6.553   3.293 -0.1113  0.2490 -2.0077
   95SAPC   H5Y 9316   2.214   6.705   3.273  0.9680  1.2684 -0.9070
   95SAPC   C36 9317   2.304   6.662   3.475 -0.4420  0.5853 -0.3748
   95SAPC   H6X 9318   2.232   6.589   3.518 -0.9527  2.6267  2.5795
   95SAPC   H6Y 9319   2.272   6.758   3.521 -0.6259 -0.6321  2.2311
   95SAPC   C37 9320   2.430   6.619   3.544 -0.5114  0.0157  0.6887
   95SAPC   H7X 9321   2.517   6.682   3.514  1.0715 -1.4702  1.9481
   95SAPC   H7Y 9322   2.458   6.517   3.509  1.5487  0.7670 -0.0085
   95SAPC   C38 9323   2.427   6.630   3.700 -0.1462 -0.0682 -0.1989
   95SAPC   H8X 9324   2.350   6.557   3.733 -0.4552 -0.7807 -2.3808
   95SAPC   H8Y 9325   2.400   6.734   3.728 -1.5864 -0.2144 -0.9793
   95SAPC   C39 9326   2.562   6.598   3.769 -0.5212 -0.8154 -1.2686
   95SAPC   H9X 9327   2.637   6.673   3.738  1.6472 -1.9402  0.8477
   95SAPC   H9Y 9328   2.611   6.506   3.731 -1.5583 -2.2602  0.6708
   95SAPC  C310 9329   2.554   6.592   3.930  0.2641  0.2928 -0.2991
   95SAPC  H10X 9330   2.513   6.691   3.962 -0.5014 -0.2493  0.4379
   95SAPC  H10Y 9331   2.660   6.597   3.963  0.5917 -0.6435 -1.1641
   95SAPC  C311 9332   2.469   6.477   3.987 -0.0033  0.0694 -0.0591
   95SAPC  H11X 9333   2.497   6.378   3.946 -1.3163 -0.8530  1.1534
   95SAPC  H11Y 9334   2.363   6.506   3.967 -0.0155 -0.1870 -0.3786
   95SAPC  C312 9335   2.488   6.466   4.140  0.4762  0.7032 -0.0773
   95SAPC  H12X 9336   2.467   6.566   4.184 -1.7623  0.3038 -0.1714
   95SAPC  H12Y 9337   2.597   6.445   4.153  0.3634  0.6305  0.7787
   95SAPC  C313 9338   2.405   6.365   4.214  0.2332  0.4103  1.2972
   95SAPC  H13X 9339   2.385   6.276   4.150  2.3777 -0.7854  2.1371
   95SAPC  H13Y 9340   2.308   6.411   4.242  0.7381  3.1419 -1.0364
   95SAPC  C314 9341   2.466   6.319   4.345  0.0065 -1.0647 -0.0649
   95SAPC  H14X 9342   2.486   6.409   4.409  1.7182 -0.3917 -1.4553
   95SAPC  H14Y 9343   2.568   6.277   4.330  0.8438  0.7473  0.2692
   95SAPC  C315 9344   2.380   6.224   4.430  0.3210 -0.0670 -0.9728
   95SAPC  H15X 9345   2.333   6.141   4.373 -0.7809 -0.6257  0.6601
   95SAPC  H15Y 9346   2.294   6.273   4.481 -0.3853 -1.9330 -0.2587
   95SAPC  C316 9347   2.465   6.172   4.548 -0.4590 -0.1300 -0.1886
   95SAPC  H16X 9348   2.508   6.256   4.607 -1.1888 -0.6589  1.1129
   95SAPC  H16Y 9349   2.554   6.120   4.507 -0.4412  0.0079 -0.3298
   95SAPC  C317 9350   2.393   6.089   4.651  0.1753  0.6460  0.1700
   95SAPC  H17X 9351   2.373   5.991   4.602 -1.8908  0.8302  0.5628
   95SAPC  H17Y 9352   2.298   6.138   4.681 -1.6491 -2.0265 -0.8616
   95SAPC  C318 9353   2.481   6.075   4.776  0.2860  0.1750 -0.2737
   95SAPC  H18X 9354   2.577   6.021   4.759  0.4003  0.7543 -1.5769
   95SAPC  H18Y 9355   2.422   6.017   4.850 -2.3562  1.0286 -1.5862
   95SAPC  H18Z 9356   2.502   6.169   4.832 -2.4233  0.4129  0.4882
   96SAPC     N 9357   3.750   1.080   1.709  0.4705 -0.3182  0.3489
   96SAPC   C12 9358   3.794   0.960   1.786 -0.4884 -0.4028  0.2476
   96SAPC  H12A 9359   3.895   0.929   1.762  0.1102  0.2923  1.7611
   96SAPC  H12B 9360   3.735   0.875   1.756  0.0856 -0.8692  0.4055
   96SAPC   C13 9361   3.605   1.103   1.721 -1.3261  0.5281  0.3314
   96SAPC  H13A 9362   3.549   1.011   1.722 -2.5268  1.2219  1.5031
   96SAPC  H13B 9363   3.570   1.151   1.812 -2.5436 -1.9368  1.2460
   96SAPC  H13C 9364   3.573   1.171   1.643  0.0830  1.5664  0.6124
   96SAPC   C14 9365   3.822   1.210   1.750  0.9100 -0.0124  0.5367
   96SAPC  H14A 9366   3.754   1.292   1.734  0.4915 -0.0054  2.2117
   96SAPC  H14B 9367   3.832   1.195   1.856  0.2366  1.4066  0.8189
   96SAPC  H14C 9368   3.919   1.224   1.705 -0.3170  2.9674 -1.4483
   96SAPC   C15 9369   3.781   1.057   1.563  0.6800  0.2243 -0.0739
   96SAPC  H15A 9370   3.754   0.954   1.547 -1.0011  0.2828  1.9721
   96SAPC  H15B 9371   3.737   1.131   1.497  2.0730  1.2813  0.1293
   96SAPC  H15C 9372   3.888   1.073   1.561  0.5276  1.8027  1.6721
   96SAPC   C11 9373   3.800   0.955   1.942 -0.0881 -0.0756 -0.5351
   96SAPC  H11A 9374   3.803   0.851   1.981 -1.9580 -0.5268 -1.4641
   96SAPC  H11B 9375   3.707   1.001   1.981  0.8240  0.1850  1.4710
   96SAPC     P 9376   4.029   0.986   2.060  0.0832 -0.1025  0.2319
   96SAPC   O13 9377   4.105   0.906   1.962 -0.6244 -0.7126  0.6083
   96SAPC   O14 9378   4.101   1.097   2.122 -0.3647 -0.3591 -0.0261
   96SAPC   O12 9379   3.898   1.044   1.999 -0.6936 -0.1025  0.0288
   96SAPC   O11 9380   3.978   0.898   2.174  0.3206 -0.1493 -0.6047
   96SAPC    C1 9381   3.879   0.947   2.261  0.1687 -0.6888  0.3736
   96SAPC    HA 9382   3.841   1.049   2.241  0.5614 -0.3074  1.4542
   96SAPC    HB 9383   3.796   0.874   2.273  1.3701 -2.5036 -1.6536
   96SAPC    C2 9384   3.939   0.970   2.402 -0.5081 -0.4417 -0.7442
   96SAPC    HS 9385   4.038   1.016   2.384  0.6814 -1.2526  2.8930
   96SAPC   O21 9386   3.953   0.839   2.467  0.2025  0.7060  0.9528
   96SAPC   C21 9387   4.042   0.853   2.570  0.2394  0.1337  0.2236
   96SAPC   O22 9388   4.105   0.956   2.596 -0.2703  0.7677  0.4917
   96SAPC   C22 9389   4.059   0.710   2.623  0.6796 -0.3551 -0.1565
   96SAPC   H2R 9390   3.959   0.677   2.659  0.4392  2.4880  2.1028
   96SAPC   H2S 9391   4.088   0.654   2.531 -0.6324  1.2427 -1.6201
   96SAPC    C3 9392   3.856   1.074   2.484 -0.3269 -0.3816  0.3755
   96SAPC    HX 9393   3.884   1.165   2.427  3.1809 -2.2519 -1.1660
   96SAPC    HY 9394   3.890   1.071   2.590 -0.3680  0.8560  0.4346
   96SAPC   O31 9395   3.714   1.043   2.482 -0.2592  0.0792 -0.3525
   96SAPC   C31 9396   3.632   1.134   2.432 -0.0039 -0.3383  0.1830
   96SAPC   O32 9397   3.660   1.245   2.387  0.2651  0.7314 -0.6394
   96SAPC   C32 9398   3.491   1.083   2.460  0.2179 -0.1137 -0.5334
   96SAPC   H2X 9399   3.486   1.008   2.543 -0.2761  0.9122  0.3836
   96SAPC   H2Y 9400   3.453   1.027   2.372 -2.6542  0.4298  0.2480
   96SAPC   C23 9401   4.165   0.698   2.734 -0.0311 -0.3242 -0.1757
   96SAPC   H3R 9402   4.201   0.797   2.769 -0.7985  0.6732 -2.1073
   96SAPC   H3S 9403   4.252   0.652   2.681 -0.8221 -2.1873  0.0659
   96SAPC   C24 9404   4.128   0.605   2.845 -0.3025 -0.2074 -0.1861
   96SAPC   H4R 9405   4.215   0.563   2.900 -0.0626  0.0187 -0.3961
   96SAPC   H4S 9406   4.084   0.508   2.813 -1.5141  0.9182 -2.1561
   96SAPC   C25 9407   4.031   0.675   2.947  0.2096 -0.0032  0.6074
   96SAPC   H5R 9408   3.966   0.757   2.914  0.3279 -0.5052 -0.9641
   96SAPC   C26 9409   4.022   0.619   3.070 -0.0467  0.2869  0.3380
   96SAPC   H6R 9410   3.947   0.662   3.138 -1.9139 -0.2805 -1.2607
   96SAPC   C27 9411   4.087   0.501   3.137 -0.5051 -1.3013  0.1228
   96SAPC   H7R 9412   4.157   0.540   3.214 -0.0041  0.1174 -1.0062
   96SAPC   H7S 9413   4.160   0.453   3.068  1.0819  1.2308 -0.0876
   96SAPC   C28 9414   3.994   0.419   3.202  0.4419  0.3771  0.0733
   96SAPC   H8R 9415   3.906   0.386   3.144  1.0402 -1.6115  0.2069
   96SAPC   C29 9416   3.993   0.388   3.334 -0.5253 -0.6046  0.0087
   96SAPC   H9R 9417   3.909   0.333   3.378 -1.4440  0.8244  0.1119
   96SAPC  C210 9418   4.091   0.435   3.436 -0.3689 -0.2807 -1.2980
   96SAPC  H10R 9419   4.188   0.474   3.397  1.8541 -0.9079  2.9676
   96SAPC  H10S 9420   4.129   0.348   3.493 -0.0300 -0.3432 -1.6164
   96SAPC  C211 9421   4.037   0.548   3.525  0.3772 -0.4334 -0.3274
   96SAPC  H11R 9422   4.011   0.637   3.467  0.9704 -0.6170 -0.8919
   96SAPC  C212 9423   4.016   0.548   3.660 -0.7664  0.0965 -1.0611
   96SAPC  H12R 9424   3.974   0.637   3.710  0.2886 -1.0901  2.1414
   96SAPC  C213 9425   4.034   0.435   3.758 -0.6230 -0.7117 -0.0925
   96SAPC  H13R 9426   4.095   0.486   3.835 -1.9150  0.2860  0.3151
   96SAPC  H13S 9427   4.088   0.353   3.707  2.1039  0.2189  1.1555
   96SAPC  C214 9428   3.902   0.390   3.805  1.2608  0.9055  0.5580
   96SAPC  H14R 9429   3.819   0.375   3.735  1.8292 -1.6366  0.3312
   96SAPC  C215 9430   3.880   0.372   3.937 -0.3457  0.0374  0.3344
   96SAPC  H15R 9431   3.775   0.364   3.968 -1.2798  2.5343 -1.8434
   96SAPC  C216 9432   3.972   0.395   4.055 -0.0061 -0.4826  0.0904
   96SAPC  H16R 9433   3.937   0.472   4.127  2.0007  2.1958 -1.6370
   96SAPC  H16S 9434   4.075   0.419   4.024 -0.0622  0.7312  0.7856
   96SAPC  C217 9435   3.988   0.268   4.140  0.2565  0.4070 -0.4016
   96SAPC  H17R 9436   4.044   0.200   4.072  0.5722  0.8282 -0.5696
   96SAPC  H17S 9437   3.887   0.230   4.168 -0.3522 -0.1019 -3.0159
   96SAPC  C218 9438   4.064   0.285   4.273 -0.5584  0.8132  0.1315
   96SAPC  H18R 9439   4.043   0.201   4.343  0.6945  0.2355 -0.1648
   96SAPC  H18S 9440   4.016   0.375   4.316 -0.4507  1.7676 -1.6279
   96SAPC  C219 9441   4.218   0.293   4.267 -0.8964 -0.5182 -0.0443
   96SAPC  H19R 9442   4.240   0.395   4.228  1.2955 -1.7403 -2.3291
   96SAPC  H19S 9443   4.257   0.215   4.197  0.8223  2.6091 -2.8587
   96SAPC  C220 9444   4.286   0.278   4.407 -0.3661  0.4474 -0.0953
   96SAPC  H20R 9445   4.396   0.265   4.406 -0.6932 -3.3447 -0.3415
   96SAPC  H20S 9446   4.244   0.191   4.461  0.0182  0.8880  0.9308
   96SAPC  H20T 9447   4.258   0.366   4.469 -0.0201  0.1712  0.4511
   96SAPC   C33 9448   3.394   1.196   2.503 -0.0621 -0.6902  0.2095
   96SAPC   H3X 9449   3.302   1.136   2.525  0.0501 -1.1993 -0.6685
   96SAPC   H3Y 9450   3.388   1.256   2.410  0.3503  0.8605  1.1540
   96SAPC   C34 9451   3.445   1.280   2.620 -0.5435  0.2938  0.2063
   96SAPC   H4X 9452   3.381   1.367   2.643 -1.2785  0.0102 -0.7261
   96SAPC   H4Y 9453   3.541   1.326   2.590 -0.4273  0.5124  0.8871
   96SAPC   C35 9454   3.487   1.215   2.751 -0.3476  0.2184  0.0470
   96SAPC   H5X 9455   3.596   1.192   2.751 -0.5837 -0.9708  0.6284
   96SAPC   H5Y 9456   3.433   1.119   2.764 -1.2819  0.6932 -0.2221
   96SAPC   C36 9457   3.446   1.296   2.876 -0.0028 -0.1911  0.1062
   96SAPC   H6X 9458   3.339   1.321   2.868  0.0986  0.9715  1.8747
   96SAPC   H6Y 9459   3.490   1.398   2.863 -1.0480  0.1752 -0.6477
   96SAPC   C37 9460   3.483   1.218   2.998 -0.2216  0.4242 -0.3082
   96SAPC   H7X 9461   3.585   1.174   3.007 -1.1019 -1.6283  0.2589
   96SAPC   H7Y 9462   3.413   1.132   2.997  2.0302 -1.5099 -0.4928
   96SAPC   C38 9463   3.462   1.290   3.133 -0.1483  0.8028 -0.3405
   96SAPC   H8X 9464   3.359   1.331   3.123 -0.4271 -0.1886 -1.8455
   96SAPC   H8Y 9465   3.535   1.374   3.142  0.3726  0.1792  2.0235
   96SAPC   C39 9466   3.483   1.204   3.261  1.0208 -0.1672 -0.1890
   96SAPC   H9X 9467   3.588   1.170   3.254  0.4295 -1.7233 -2.0993
   96SAPC   H9Y 9468   3.409   1.122   3.272  1.5174 -0.3726  2.4867
   96SAPC  C310 9469   3.461   1.283   3.391  0.4108  0.5414  0.3671
   96SAPC  H10X 9470   3.358   1.324   3.384  0.3300  0.4706  1.0532
   96SAPC  H10Y 9471   3.541   1.358   3.412 -1.0840  2.5682 -0.8747
   96SAPC  C311 9472   3.461   1.186   3.507 -0.3822 -0.2673 -0.5474
   96SAPC  H11X 9473   3.561   1.136   3.513 -0.1550  0.3303  1.3870
   96SAPC  H11Y 9474   3.389   1.102   3.503  1.4094 -1.8570 -1.1432
   96SAPC  C312 9475   3.435   1.272   3.641  0.1550 -0.0836  0.3027
   96SAPC  H12X 9476   3.345   1.337   3.629  1.6330  1.6805 -2.2736
   96SAPC  H12Y 9477   3.516   1.347   3.629  0.7175 -0.7896 -0.4529
   96SAPC  C313 9478   3.454   1.185   3.760  1.2448  0.1979  0.0259
   96SAPC  H13X 9479   3.547   1.123   3.762 -1.2267 -3.8946 -0.2589
   96SAPC  H13Y 9480   3.376   1.106   3.770  0.3827  1.1821  1.3638
   96SAPC  C314 9481   3.435   1.267   3.896  0.2846 -0.6910 -0.8826
   96SAPC  H14X 9482   3.335   1.315   3.903  1.1628  1.0713  0.3999
   96SAPC  H14Y 9483   3.501   1.356   3.884 -0.1517 -0.4817 -1.8370
   96SAPC  C315 9484   3.462   1.188   4.023  0.3406  0.0031  0.1273
   96SAPC  H15X 9485   3.471   1.265   4.103 -0.8251  0.0128  0.2695
   96SAPC  H15Y 9486   3.567   1.154   4.013  1.2066  2.2398  0.9036
   96SAPC  C316 9487   3.362   1.079   4.047  0.7378  0.3891 -0.7371
   96SAPC  H16X 9488   3.357   1.004   3.965  0.7203  0.9723 -1.2715
   96SAPC  H16Y 9489   3.259   1.118   4.063  0.9988  1.5012 -1.6936
   96SAPC  C317 9490   3.405   1.006   4.173 -0.0801  0.0736 -0.6927
   96SAPC  H17X 9491   3.440   1.076   4.251 -0.9283  1.2246 -1.3269
   96SAPC  H17Y 9492   3.493   0.941   4.151 -0.9937 -2.0270  1.4626
   96SAPC  C318 9493   3.293   0.925   4.228 -0.8001  0.4710 -0.0573
   96SAPC  H18X 9494   3.204   0.992   4.224 -0.2495  1.1676 -2.3329
   96SAPC  H18Y 9495   3.329   0.906   4.331  0.8767  0.8424 -0.5517
   96SAPC  H18Z 9496   3.263   0.839   4.163  0.2760  2.6173 -3.6929
   97SAPC     N 9497   3.119   0.762   2.243  0.1595 -0.4605 -0.3735
   97SAPC   C12 9498   3.085   0.618   2.258  0.2743 -0.3372 -0.1342
   97SAPC  H12A 9499   3.104   0.585   2.359 -1.4865  1.3866  0.8338
   97SAPC  H12B 9500   3.147   0.557   2.194 -0.6467 -0.7070 -0.7013
   97SAPC   C13 9501   3.125   0.798   2.096  0.7711 -0.0436 -0.1337
   97SAPC  H13A 9502   3.163   0.899   2.089  0.5475  0.0510  0.0084
   97SAPC  H13B 9503   3.186   0.725   2.045  0.7425  0.1118 -0.3977
   97SAPC  H13C 9504   3.021   0.800   2.064  0.6400 -0.2818  0.2703
   97SAPC   C14 9505   3.008   0.848   2.307 -0.7603  0.0371 -0.0351
   97SAPC  H14A 9506   3.012   0.830   2.413  2.2164 -0.7287 -0.1856
   97SAPC  H14B 9507   3.015   0.950   2.272  2.2373 -0.4169 -1.1015
   97SAPC  H14C 9508   2.910   0.823   2.269 -1.2584  0.8043  0.7033
   97SAPC   C15 9509   3.249   0.803   2.304  0.1037 -0.4747 -0.1441
   97SAPC  H15A 9510   3.236   0.811   2.411 -0.4797  1.9830 -0.3356
   97SAPC  H15B 9511   3.325   0.735   2.270  0.4583 -0.4243  0.5299
   97SAPC  H15C 9512   3.279   0.901   2.271 -1.2758 -0.1291 -0.4515
   97SAPC   C11 9513   2.944   0.579   2.223  1.1244  0.1644  0.3183
   97SAPC  H11A 9514   2.955   0.473   2.192  2.5556  0.4104 -0.1000
   97SAPC  H11B 9515   2.917   0.636   2.131  0.1988 -0.6594  0.0597
   97SAPC     P 9516   2.705   0.607   2.320 -0.4752  0.1015  0.1134
   97SAPC   O13 9517   2.668   0.739   2.273  0.0997  0.2858 -0.6647
   97SAPC   O14 9518   2.648   0.497   2.246 -0.6020  0.2593 -0.2364
   97SAPC   O12 9519   2.856   0.591   2.336  0.1844  0.4640  0.3950
   97SAPC   O11 9520   2.664   0.587   2.476 -0.1012 -0.0427  0.0317
   97SAPC    C1 9521   2.748   0.626   2.586  0.2792 -0.0067  0.2924
   97SAPC    HA 9522   2.804   0.535   2.615 -1.3406 -2.1209 -2.6679
   97SAPC    HB 9523   2.825   0.702   2.559  0.2433  0.2352  0.8592
   97SAPC    C2 9524   2.656   0.665   2.702 -0.7286  0.1101 -0.2391
   97SAPC    HS 9525   2.708   0.715   2.786 -3.5143  1.7134  0.6530
   97SAPC   O21 9526   2.578   0.549   2.736 -0.3867  0.1743  0.0495
   97SAPC   C21 9527   2.640   0.470   2.822 -0.1391  0.2369 -0.2531
   97SAPC   O22 9528   2.753   0.493   2.863  0.7793 -0.4943  0.4003
   97SAPC   C22 9529   2.551   0.357   2.858 -0.3943  0.3181 -0.2262
   97SAPC   H2R 9530   2.443   0.379   2.843 -0.6239 -1.1362 -0.8551
   97SAPC   H2S 9531   2.574   0.276   2.786 -1.5026 -0.7176  0.5470
   97SAPC    C3 9532   2.555   0.764   2.658 -0.8013 -0.2076 -0.0750
   97SAPC    HX 9533   2.501   0.721   2.571  2.1387 -0.6345 -1.7958
   97SAPC    HY 9534   2.621   0.850   2.637 -0.4148  0.5987  3.6566
   97SAPC   O31 9535   2.458   0.796   2.760 -0.0790  0.3294  0.2118
   97SAPC   C31 9536   2.482   0.911   2.835  0.1734  0.1623  0.1647
   97SAPC   O32 9537   2.569   0.985   2.810 -0.0731 -0.4974 -0.5456
   97SAPC   C32 9538   2.367   0.936   2.930 -0.0203  0.0653  0.1608
   97SAPC   H2X 9539   2.294   0.852   2.921 -0.4620  0.4606  0.0169
   97SAPC   H2Y 9540   2.312   1.024   2.891  0.0408  0.5272  1.0852
   97SAPC   C23 9541   2.572   0.292   2.998  0.8147 -0.6506 -0.5671
   97SAPC   H3R 9542   2.675   0.254   3.014  0.4756 -1.7016 -0.7917
   97SAPC   H3S 9543   2.493   0.214   3.005 -0.6919  0.5434 -2.9249
   97SAPC   C24 9544   2.540   0.386   3.114 -0.2777  0.8152 -1.0031
   97SAPC   H4R 9545   2.440   0.431   3.096 -0.0567  2.0369  0.5464
   97SAPC   H4S 9546   2.612   0.470   3.102  1.5363 -0.7907 -1.9936
   97SAPC   C25 9547   2.564   0.314   3.244 -0.1592  0.0673  0.1233
   97SAPC   H5R 9548   2.664   0.298   3.286 -0.6716 -1.9427  0.7032
   97SAPC   C26 9549   2.465   0.272   3.318 -0.0980 -0.2551  0.5070
   97SAPC   H6R 9550   2.483   0.221   3.414 -2.7790 -0.8513  0.7867
   97SAPC   C27 9551   2.316   0.280   3.310  0.4312  0.1584  0.3412
   97SAPC   H7R 9552   2.293   0.294   3.202 -1.1492  0.3098  0.6857
   97SAPC   H7S 9553   2.277   0.367   3.366 -0.6341 -0.3793  0.4520
   97SAPC   C28 9554   2.237   0.168   3.357 -0.3265  0.0425 -0.1396
   97SAPC   H8R 9555   2.195   0.102   3.279  1.9202 -0.0806 -1.3318
   97SAPC   C29 9556   2.218   0.132   3.490 -0.4348  0.0552  0.3523
   97SAPC   H9R 9557   2.164   0.038   3.503  1.7082 -1.2990  0.0147
   97SAPC  C210 9558   2.268   0.196   3.616 -0.5057  0.1055  0.2318
   97SAPC  H10R 9559   2.324   0.288   3.590  0.4162 -0.8486 -1.2989
   97SAPC  H10S 9560   2.348   0.134   3.662  0.1932  0.3503 -0.6310
   97SAPC  C211 9561   2.152   0.215   3.710 -0.2246 -0.6292  0.4572
   97SAPC  H11R 9562   2.063   0.255   3.660  0.5259  2.8097  1.6002
   97SAPC  C212 9563   2.141   0.172   3.836  0.7557  0.3628 -0.4977
   97SAPC  H12R 9564   2.042   0.175   3.884 -0.0841 -1.5593 -1.9935
   97SAPC  C213 9565   2.254   0.093   3.903  0.5566 -0.3046  0.7773
   97SAPC  H13R 9566   2.354   0.136   3.879  0.5741 -1.5298 -1.6083
   97SAPC  H13S 9567   2.247  -0.011   3.864 -2.9610  1.0133 -2.8288
   97SAPC  C214 9568   2.220   0.080   4.051  0.0723 -0.1535 -0.4292
   97SAPC  H14R 9569   2.142   0.004   4.070  1.1724 -0.8787  1.5079
   97SAPC  C215 9570   2.296   0.119   4.155  0.1865  0.1740  0.2598
   97SAPC  H15R 9571   2.259   0.097   4.256 -0.3387 -0.8059 -0.1256
   97SAPC  C216 9572   2.421   0.201   4.140  0.1322  0.7911  0.4200
   97SAPC  H16R 9573   2.427   0.277   4.221 -0.8762 -0.2024  1.4635
   97SAPC  H16S 9574   2.434   0.240   4.037  0.9766 -0.0657  0.1909
   97SAPC  C217 9575   2.546   0.115   4.159  0.0175 -0.0298  0.0151
   97SAPC  H17R 9576   2.565   0.040   4.078  0.7240  1.3776 -1.1581
   97SAPC  H17S 9577   2.521   0.061   4.253 -0.2648 -0.4211 -0.2783
   97SAPC  C218 9578   2.686   0.190   4.180 -0.8619  0.2522  0.3439
   97SAPC  H18R 9579   2.668   0.270   4.255  0.5720  1.5035 -0.5705
   97SAPC  H18S 9580   2.715   0.246   4.088  0.5427 -1.1375 -0.0937
   97SAPC  C219 9581   2.796   0.096   4.229  0.6936 -0.1140 -0.3171
   97SAPC  H19R 9582   2.785  -0.002   4.179 -0.2221 -0.4465  0.5056
   97SAPC  H19S 9583   2.783   0.072   4.336  3.1104 -0.3213 -0.0277
   97SAPC  C220 9584   2.939   0.152   4.207  0.6460 -1.0323 -0.5480
   97SAPC  H20R 9585   2.966   0.144   4.099 -1.3069 -1.7690 -1.0191
   97SAPC  H20S 9586   3.001   0.099   4.282  1.9830 -2.5675 -2.6141
   97SAPC  H20T 9587   2.938   0.256   4.247  1.1176 -0.4178 -2.0446
   97SAPC   C33 9588   2.418   0.972   3.076 -0.8855 -0.6839  0.2011
   97SAPC   H3X 9589   2.344   1.030   3.134 -0.4392 -0.9303  1.0286
   97SAPC   H3Y 9590   2.513   1.029   3.073 -1.4216  0.1960 -1.0230
   97SAPC   C34 9591   2.449   0.841   3.157  0.4598  0.4871 -0.2342
   97SAPC   H4X 9592   2.549   0.804   3.126  0.2107 -0.5255  0.1466
   97SAPC   H4Y 9593   2.368   0.767   3.140  1.2567 -0.1138 -1.5302
   97SAPC   C35 9594   2.465   0.868   3.307 -0.7562 -0.1005  0.3786
   97SAPC   H5X 9595   2.373   0.927   3.330 -1.6118 -0.5616 -1.6440
   97SAPC   H5Y 9596   2.561   0.921   3.325 -0.1930 -0.9242 -0.1589
   97SAPC   C36 9597   2.455   0.739   3.387 -0.3469  0.4721 -0.6132
   97SAPC   H6X 9598   2.551   0.686   3.373 -0.3603  0.5210 -0.8992
   97SAPC   H6Y 9599   2.372   0.670   3.358 -1.3241  0.2563  2.4094
   97SAPC   C37 9600   2.424   0.762   3.535 -0.4092  0.1442  0.5051
   97SAPC   H7X 9601   2.337   0.830   3.550 -0.2048  0.2356  1.3649
   97SAPC   H7Y 9602   2.513   0.815   3.574  0.7352 -0.6770 -0.9026
   97SAPC   C38 9603   2.404   0.634   3.615  1.0078  1.0709 -0.2685
   97SAPC   H8X 9604   2.464   0.553   3.569  2.3157  2.6168 -1.4051
   97SAPC   H8Y 9605   2.298   0.609   3.592  1.3030 -0.6607  0.1271
   97SAPC   C39 9606   2.413   0.656   3.766 -0.5616  0.2945  0.9546
   97SAPC   H9X 9607   2.371   0.756   3.791  3.6635  2.1839  1.3157
   97SAPC   H9Y 9608   2.521   0.673   3.788 -0.1294  0.7906 -1.3546
   97SAPC  C310 9609   2.335   0.545   3.832 -0.5363 -0.0772 -1.9087
   97SAPC  H10X 9610   2.374   0.445   3.805  2.0213  0.7706 -1.5884
   97SAPC  H10Y 9611   2.226   0.541   3.809 -1.0071 -0.4488  0.1409
   97SAPC  C311 9612   2.343   0.557   3.986  0.3712 -0.0090  0.3944
   97SAPC  H11X 9613   2.438   0.611   4.005  0.9317 -0.1332 -1.7554
   97SAPC  H11Y 9614   2.349   0.455   4.031  0.4210 -0.1785  0.0091
   97SAPC  C312 9615   2.228   0.640   4.040 -0.3880  0.1913 -0.1912
   97SAPC  H12X 9616   2.131   0.587   4.027 -1.6461  2.1574  0.6747
   97SAPC  H12Y 9617   2.217   0.727   3.971  0.2576 -0.0995 -0.6708
   97SAPC  C313 9618   2.238   0.677   4.189 -0.1545  0.0790 -0.1853
   97SAPC  H13X 9619   2.148   0.737   4.216 -1.3122 -0.7751 -1.9302
   97SAPC  H13Y 9620   2.334   0.726   4.217 -1.3551  0.9358  2.8229
   97SAPC  C314 9621   2.238   0.558   4.285 -0.0352  0.9642 -0.1675
   97SAPC  H14X 9622   2.309   0.480   4.249 -0.1911 -0.7235  2.8515
   97SAPC  H14Y 9623   2.132   0.526   4.276 -0.2432  1.4692  0.4508
   97SAPC  C315 9624   2.248   0.590   4.434 -0.2265  0.4034 -0.3045
   97SAPC  H15X 9625   2.193   0.685   4.453  1.9199  1.8680 -1.0613
   97SAPC  H15Y 9626   2.356   0.614   4.447 -0.5473  1.5448  0.4198
   97SAPC  C316 9627   2.204   0.484   4.542 -0.1294  0.0271  0.1919
   97SAPC  H16X 9628   2.100   0.514   4.568  0.9067  2.2471  2.1871
   97SAPC  H16Y 9629   2.263   0.512   4.632 -1.7555 -0.7795  1.5560
   97SAPC  C317 9630   2.225   0.344   4.496  0.2256 -0.0386  0.4801
   97SAPC  H17X 9631   2.331   0.327   4.470  0.4947  0.3585  1.3046
   97SAPC  H17Y 9632   2.167   0.312   4.407 -1.0555  0.5907  1.0633
   97SAPC  C318 9633   2.163   0.259   4.603 -0.1736  0.7696 -0.9338
   97SAPC  H18X 9634   2.052   0.254   4.601 -0.1856  1.1203 -2.0773
   97SAPC  H18Y 9635   2.196   0.289   4.705  1.8830  2.1412 -1.9251
   97SAPC  H18Z 9636   2.193   0.155   4.581 -1.7407  0.4451 -1.6435
   98SAPC     N 9637   5.699   6.777   2.154  0.1508 -0.7357  0.0770
   98SAPC   C12 9638   5.625   6.752   2.282  0.0301  0.6524 -0.1906
   98SAPC  H12A 9639   5.678   6.671   2.330 -0.2525 -0.7641 -2.1341
   98SAPC  H12B 9640   5.535   6.697   2.257  0.9143 -0.6689 -0.6100
   98SAPC   C13 9641   5.753   6.645   2.103  0.0835  0.0483  0.0029
   98SAPC  H13A 9642   5.675   6.580   2.066  0.1415 -0.4636  0.7560
   98SAPC  H13B 9643   5.815   6.675   2.020  1.6402 -0.0786  1.0808
   98SAPC  H13C 9644   5.815   6.589   2.171 -0.2050 -1.3118 -0.8176
   98SAPC   C14 9645   5.611   6.839   2.054  0.3163  0.1188  0.2678
   98SAPC  H14A 9646   5.661   6.859   1.960  2.7504 -2.3113  0.9203
   98SAPC  H14B 9647   5.535   6.766   2.032 -0.0167  0.7275 -0.6774
   98SAPC  H14C 9648   5.556   6.925   2.089  1.3007  0.6165  0.6363
   98SAPC   C15 9649   5.819   6.870   2.177 -0.5945 -0.5327 -0.1421
   98SAPC  H15A 9650   5.866   6.900   2.085 -3.0174 -0.0764 -1.2965
   98SAPC  H15B 9651   5.795   6.964   2.226  0.8626 -0.7882  1.1413
   98SAPC  H15C 9652   5.901   6.825   2.231  0.0072 -0.4279 -0.9495
   98SAPC   C11 9653   5.589   6.868   2.376 -0.3895  0.1978 -0.3492
   98SAPC  H11A 9654   5.672   6.885   2.447 -1.9915 -0.4118  1.7857
   98SAPC  H11B 9655   5.503   6.840   2.442  0.3289 -0.7400  0.2135
   98SAPC     P 9656   5.423   7.049   2.297  0.3234 -0.0760 -0.0994
   98SAPC   O13 9657   5.441   7.183   2.244  0.3181 -0.3446 -0.2038
   98SAPC   O14 9658   5.328   6.964   2.220 -0.1866  0.4617 -0.0924
   98SAPC   O12 9659   5.566   6.986   2.299 -0.0086  0.1311 -0.0372
   98SAPC   O11 9660   5.378   7.053   2.450 -0.0169  0.5946  0.0791
   98SAPC    C1 9661   5.430   7.160   2.530 -0.1983 -0.0738 -0.5029
   98SAPC    HA 9662   5.465   7.115   2.626 -0.0112 -1.5798 -1.2367
   98SAPC    HB 9663   5.525   7.198   2.486 -0.7713  0.4592 -1.2972
   98SAPC    C2 9664   5.332   7.274   2.549 -0.1866  0.7714 -0.7226
   98SAPC    HS 9665   5.315   7.313   2.446  0.9319  0.5123 -1.0167
   98SAPC   O21 9666   5.394   7.376   2.636  0.6186  0.3668 -0.7132
   98SAPC   C21 9667   5.353   7.499   2.616 -0.5614 -0.3735 -0.0551
   98SAPC   O22 9668   5.272   7.532   2.531 -0.4043  0.2093 -0.4146
   98SAPC   C22 9669   5.422   7.597   2.721  0.0584  0.1218  0.5464
   98SAPC   H2R 9670   5.490   7.671   2.673 -0.4923  0.1121 -0.2623
   98SAPC   H2S 9671   5.343   7.663   2.763 -0.2893  0.8809 -1.2280
   98SAPC    C3 9672   5.187   7.233   2.611 -0.7162  0.2340 -0.6230
   98SAPC    HX 9673   5.151   7.159   2.536  1.0896 -1.0784 -0.2633
   98SAPC    HY 9674   5.129   7.327   2.597  0.3233  0.8619 -0.8495
   98SAPC   O31 9675   5.203   7.181   2.743  0.5374  0.1970  0.5468
   98SAPC   C31 9676   5.098   7.119   2.785  0.2826 -0.1474  0.1578
   98SAPC   O32 9677   4.995   7.100   2.727 -0.2244 -0.3533 -0.0721
   98SAPC   C32 9678   5.134   7.071   2.926 -1.4065  0.7609  0.0550
   98SAPC   H2X 9679   5.234   7.103   2.960 -0.3663 -0.2974 -1.8147
   98SAPC   H2Y 9680   5.138   6.960   2.922  0.6896  0.8295 -1.3812
   98SAPC   C23 9681   5.480   7.517   2.838  0.0701 -0.3093 -0.3277
   98SAPC   H3R 9682   5.567   7.454   2.811 -0.7407 -1.5330 -0.1478
   98SAPC   H3S 9683   5.402   7.446   2.870  0.7429 -0.7612  0.3210
   98SAPC   C24 9684   5.502   7.602   2.968  0.1815 -0.0028  0.0156
   98SAPC   H4R 9685   5.495   7.536   3.057  0.4591  0.3090  0.2717
   98SAPC   H4S 9686   5.410   7.665   2.972  0.7280  0.7809  0.4238
   98SAPC   C25 9687   5.623   7.697   2.964 -0.2408 -1.0471  0.0432
   98SAPC   H5R 9688   5.649   7.738   2.865  0.3206  0.5464  0.8228
   98SAPC   C26 9689   5.706   7.721   3.071  0.2106  0.2261 -0.0285
   98SAPC   H6R 9690   5.788   7.791   3.051 -0.1047  0.3508 -0.9526
   98SAPC   C27 9691   5.699   7.666   3.210  0.7530  0.0583 -0.6094
   98SAPC   H7R 9692   5.798   7.647   3.256  0.4006 -4.3478 -1.1837
   98SAPC   H7S 9693   5.657   7.563   3.202  0.0122  0.1685  1.4127
   98SAPC   C28 9694   5.603   7.742   3.299 -0.0770 -0.1404 -0.4257
   98SAPC   H8R 9695   5.520   7.793   3.246  1.2837  0.1399 -2.3715
   98SAPC   C29 9696   5.619   7.763   3.429 -0.1935  0.1571  0.4190
   98SAPC   H9R 9697   5.552   7.831   3.483  0.0909 -0.0484  1.0484
   98SAPC  C210 9698   5.720   7.698   3.527  0.3306 -0.0812 -0.5930
   98SAPC  H10R 9699   5.788   7.777   3.564 -2.8534  2.1009  1.0778
   98SAPC  H10S 9700   5.778   7.613   3.486  0.4086 -2.6864  4.2004
   98SAPC  C211 9701   5.654   7.635   3.643  0.2661 -0.1685 -0.1899
   98SAPC  H11R 9702   5.616   7.534   3.619  1.1261 -0.5974  0.2086
   98SAPC  C212 9703   5.640   7.691   3.768 -0.1184 -0.1214  0.3113
   98SAPC  H12R 9704   5.588   7.641   3.851  0.7275  0.4635  1.2135
   98SAPC  C213 9705   5.706   7.823   3.799 -0.1627 -0.2237 -0.6264
   98SAPC  H13R 9706   5.665   7.898   3.728 -0.3188  0.2064 -0.0917
   98SAPC  H13S 9707   5.814   7.807   3.783 -0.3095  1.3826 -3.9868
   98SAPC  C214 9708   5.686   7.886   3.938  0.0467  0.4682  0.6345
   98SAPC  H14R 9709   5.600   7.955   3.942 -2.0294 -1.9549  0.1729
   98SAPC  C215 9710   5.771   7.879   4.043 -0.2273 -0.9203 -0.3396
   98SAPC  H15R 9711   5.762   7.936   4.137  0.5237  0.5470 -1.1226
   98SAPC  C216 9712   5.899   7.803   4.039  0.3670  0.0550 -0.2637
   98SAPC  H16R 9713   5.981   7.856   3.986  0.8476 -0.0749  0.3446
   98SAPC  H16S 9714   5.883   7.708   3.983 -1.5666 -0.0478  0.4071
   98SAPC  C217 9715   5.947   7.783   4.185 -0.4937  0.3619  0.5312
   98SAPC  H17R 9716   5.862   7.732   4.235 -0.5657  0.3598  0.4060
   98SAPC  H17S 9717   5.965   7.878   4.240 -1.2207  0.4632  0.6076
   98SAPC  C218 9718   6.069   7.684   4.179 -0.0113 -0.8453  0.5648
   98SAPC  H18R 9719   6.061   7.596   4.111  2.9761  0.5634 -1.8256
   98SAPC  H18S 9720   6.095   7.636   4.276  1.2698  0.6786  1.0010
   98SAPC  C219 9721   6.198   7.757   4.129 -0.7274  0.4256  0.6488
   98SAPC  H19R 9722   6.186   7.773   4.019  0.7221 -0.2804  0.3694
   98SAPC  H19S 9723   6.280   7.683   4.144 -1.6351 -0.5214  1.0772
   98SAPC  C220 9724   6.239   7.886   4.193  0.3017 -0.5133 -0.2658
   98SAPC  H20R 9725   6.274   7.873   4.297 -0.4148 -1.5896 -0.1515
   98SAPC  H20S 9726   6.157   7.960   4.189  0.7952 -0.0094 -2.4778
   98SAPC  H20T 9727   6.328   7.925   4.138 -0.5719 -0.0229 -1.3852
   98SAPC   C33 9728   5.028   7.098   3.037  0.1768 -0.2678 -0.3458
   98SAPC   H3X 9729   4.931   7.107   2.985  0.3081  1.2742 -0.3610
   98SAPC   H3Y 9730   5.041   7.195   3.089 -0.1925 -1.7031  2.6809
   98SAPC   C34 9731   5.013   6.990   3.147  0.1503  0.3135  0.0684
   98SAPC   H4X 9732   5.013   6.885   3.111  2.3063 -0.1062  1.1510
   98SAPC   H4Y 9733   4.910   7.010   3.186  0.3314 -0.7500  1.1497
   98SAPC   C35 9734   5.125   7.010   3.256 -0.2782 -0.1769  0.5060
   98SAPC   H5X 9735   5.134   7.113   3.296 -0.3543 -0.0004  0.0778
   98SAPC   H5Y 9736   5.227   6.992   3.214 -0.0498  1.7217  0.1463
   98SAPC   C36 9737   5.107   6.921   3.381 -0.1162 -0.4487 -0.0191
   98SAPC   H6X 9738   5.109   6.813   3.357  0.4368  0.0427 -2.4278
   98SAPC   H6Y 9739   5.007   6.954   3.418 -0.2347  1.6888 -1.9579
   98SAPC   C37 9740   5.204   6.943   3.493 -0.8031 -1.1668  0.0617
   98SAPC   H7X 9741   5.301   6.893   3.474  0.3780  1.4652 -1.5998
   98SAPC   H7Y 9742   5.175   6.905   3.593  1.7153 -0.2416  1.2392
   98SAPC   C38 9743   5.215   7.090   3.527  0.0332 -0.9140  0.1762
   98SAPC   H8X 9744   5.117   7.143   3.524  0.1470 -0.5714  1.5397
   98SAPC   H8Y 9745   5.276   7.135   3.446  0.3505 -2.5911 -0.5574
   98SAPC   C39 9746   5.303   7.121   3.657 -0.5273  0.0048  0.4603
   98SAPC   H9X 9747   5.322   7.230   3.668  1.6970 -0.5639  3.2205
   98SAPC   H9Y 9748   5.407   7.084   3.640 -0.9152 -2.5914  2.9085
   98SAPC  C310 9749   5.252   7.067   3.789  0.3338  0.8715  0.1144
   98SAPC  H10X 9750   5.245   6.957   3.789  0.9424  0.8238  0.7980
   98SAPC  H10Y 9751   5.144   7.092   3.798  0.3924  1.2443 -0.1866
   98SAPC  C311 9752   5.336   7.086   3.916  0.2027 -0.4214 -0.7408
   98SAPC  H11X 9753   5.387   7.185   3.913 -1.3462  0.6485  3.0916
   98SAPC  H11Y 9754   5.424   7.018   3.906 -1.1178 -2.2782 -0.2778
   98SAPC  C312 9755   5.264   7.055   4.046  0.0624  0.5434  0.1789
   98SAPC  H12X 9756   5.297   6.955   4.080  0.1735  0.9567  1.3536
   98SAPC  H12Y 9757   5.153   7.051   4.035  0.2041 -0.0342 -1.1943
   98SAPC  C313 9758   5.286   7.153   4.158 -0.1311 -0.0826 -0.3426
   98SAPC  H13X 9759   5.281   7.260   4.131 -0.7680 -0.2560 -0.9263
   98SAPC  H13Y 9760   5.393   7.130   4.182 -0.1503  0.3119  0.1322
   98SAPC  C314 9761   5.208   7.134   4.292  0.1339 -0.5010 -0.1067
   98SAPC  H14X 9762   5.260   7.183   4.378 -0.2738 -2.1919  1.1606
   98SAPC  H14Y 9763   5.184   7.030   4.322 -0.1071  0.1456  2.1446
   98SAPC  C315 9764   5.074   7.202   4.288  0.1595  0.5904  0.5823
   98SAPC  H15X 9765   5.039   7.192   4.183  1.8530 -0.1223  0.0570
   98SAPC  H15Y 9766   5.093   7.310   4.308  0.8256  0.2240  2.1409
   98SAPC  C316 9767   4.969   7.138   4.384 -0.1490  0.0248  0.5059
   98SAPC  H16X 9768   5.006   7.142   4.489  0.1500 -0.4337  0.4192
   98SAPC  H16Y 9769   4.941   7.035   4.356 -0.6580  0.1848  0.4060
   98SAPC  C317 9770   4.830   7.205   4.388  0.0361  0.6041 -0.0992
   98SAPC  H17X 9771   4.775   7.212   4.292 -1.8697  2.0596  1.0285
   98SAPC  H17Y 9772   4.846   7.308   4.426  0.5361  0.8739 -1.0163
   98SAPC  C318 9773   4.742   7.141   4.499  0.1925  0.1105 -0.1181
   98SAPC  H18X 9774   4.797   7.156   4.594 -2.0943 -1.0165  1.4884
   98SAPC  H18Y 9775   4.715   7.035   4.477  0.2433  0.1663 -0.4638
   98SAPC  H18Z 9776   4.648   7.199   4.512 -0.2228 -0.0360 -2.1499
   99SAPC     N 9777   2.779   5.660   2.350 -0.4388  0.3183  0.1854
   99SAPC   C12 9778   2.887   5.588   2.265 -0.1790 -0.7780  0.3835
   99SAPC  H12A 9779   2.837   5.560   2.173  0.6651  1.1532 -0.7145
   99SAPC  H12B 9780   2.919   5.492   2.305  1.0819 -0.8040 -0.6243
   99SAPC   C13 9781   2.839   5.689   2.484 -0.0489 -0.6048 -0.6273
   99SAPC  H13A 9782   2.883   5.605   2.535  1.1120  0.3459  0.0085
   99SAPC  H13B 9783   2.914   5.766   2.468  0.3357 -1.1566 -1.5382
   99SAPC  H13C 9784   2.770   5.744   2.546  1.5720  0.0290  0.6983
   99SAPC   C14 9785   2.736   5.781   2.273 -1.1093  0.2753  0.0725
   99SAPC  H14A 9786   2.814   5.854   2.255 -1.1069 -0.0624 -1.3865
   99SAPC  H14B 9787   2.689   5.744   2.183 -2.4911 -3.1560  2.0309
   99SAPC  H14C 9788   2.662   5.838   2.328 -2.7210 -0.2021 -1.5119
   99SAPC   C15 9789   2.664   5.569   2.378 -0.4831  0.3920 -0.2698
   99SAPC  H15A 9790   2.691   5.480   2.435  1.4509 -0.1066 -1.8513
   99SAPC  H15B 9791   2.584   5.612   2.436  0.6225  1.7484  0.2996
   99SAPC  H15C 9792   2.621   5.540   2.284 -0.3402  0.9568 -0.5063
   99SAPC   C11 9793   3.010   5.676   2.229 -0.3865  0.3780  0.2902
   99SAPC  H11A 9794   3.078   5.603   2.180 -0.6826 -0.5176  1.2024
   99SAPC  H11B 9795   3.059   5.724   2.316 -3.0632  3.5161  0.2818
   99SAPC     P 9796   3.088   5.900   2.112 -0.0727  0.3268  0.4654
   99SAPC   O13 9797   3.161   5.867   1.985  0.0573 -0.2983  0.5724
   99SAPC   O14 9798   3.012   6.024   2.112  0.0106 -0.5210 -0.5853
   99SAPC   O12 9799   2.982   5.776   2.130  0.3601 -0.2394 -0.6308
   99SAPC   O11 9800   3.184   5.895   2.237 -0.3457  0.7491  0.0222
   99SAPC    C1 9801   3.324   5.856   2.225  0.6355  0.4205  0.1667
   99SAPC    HA 9802   3.350   5.834   2.120 -1.6609 -0.5559 -0.2508
   99SAPC    HB 9803   3.377   5.949   2.256  0.3549  0.3373  0.9371
   99SAPC    C2 9804   3.354   5.739   2.318  0.5328 -0.4122 -0.8824
   99SAPC    HS 9805   3.285   5.655   2.293 -0.2998  0.3738 -1.2851
   99SAPC   O21 9806   3.336   5.781   2.458  1.2083  0.8415  0.1069
   99SAPC   C21 9807   3.309   5.684   2.545  0.3565 -0.0676  0.7018
   99SAPC   O22 9808   3.268   5.575   2.518  0.0356  0.9265  0.2935
   99SAPC   C22 9809   3.316   5.747   2.688 -0.6905  0.2902 -0.3351
   99SAPC   H2R 9810   3.421   5.762   2.720 -0.0747 -1.3621 -1.4439
   99SAPC   H2S 9811   3.265   5.845   2.685 -2.0117 -0.3945 -1.9227
   99SAPC    C3 9812   3.501   5.685   2.294 -0.2799 -0.0990  0.8329
   99SAPC    HX 9813   3.570   5.771   2.310  0.5745 -0.1814 -1.9065
   99SAPC    HY 9814   3.522   5.642   2.193 -0.1383 -1.2178  1.3203
   99SAPC   O31 9815   3.541   5.584   2.388  0.1595 -0.8824  0.3267
   99SAPC   C31 9816   3.490   5.471   2.360  1.2362  0.6920 -0.0961
   99SAPC   O32 9817   3.410   5.452   2.270  0.4221  0.1918  0.1964
   99SAPC   C32 9818   3.531   5.377   2.469  0.5570 -0.3717 -0.1397
   99SAPC   H2X 9819   3.517   5.415   2.572  1.6059 -2.4508  0.8431
   99SAPC   H2Y 9820   3.640   5.359   2.455  1.0831 -0.4633  3.2487
   99SAPC   C23 9821   3.239   5.659   2.784  0.1245  0.2259 -0.9009
   99SAPC   H3R 9822   3.289   5.560   2.785 -1.5035 -0.7052  1.7004
   99SAPC   H3S 9823   3.134   5.642   2.750 -0.2031  1.1857 -0.4303
   99SAPC   C24 9824   3.240   5.718   2.925  0.5119  0.3327 -1.0226
   99SAPC   H4R 9825   3.201   5.821   2.912  1.6199  0.9253  0.2310
   99SAPC   H4S 9826   3.343   5.745   2.953  0.3198  0.6088 -0.5734
   99SAPC   C25 9827   3.167   5.637   3.030  0.3504  0.4168 -0.3173
   99SAPC   H5R 9828   3.099   5.556   3.001  0.1087 -0.3194  2.1125
   99SAPC   C26 9829   3.172   5.662   3.163  0.0407  0.0814  0.3072
   99SAPC   H6R 9830   3.126   5.588   3.231  1.6567 -0.4312  0.8698
   99SAPC   C27 9831   3.266   5.758   3.227  0.9223 -0.9951  0.2124
   99SAPC   H7R 9832   3.203   5.831   3.283 -1.1671 -0.4630 -2.6266
   99SAPC   H7S 9833   3.303   5.834   3.154  1.3733  0.2866  1.7086
   99SAPC   C28 9834   3.378   5.714   3.314  0.1897 -0.4241  0.0938
   99SAPC   H8R 9835   3.474   5.700   3.263  1.2417 -1.9151  2.3297
   99SAPC   C29 9836   3.376   5.690   3.448 -0.1031 -0.1468  0.9377
   99SAPC   H9R 9837   3.470   5.651   3.490 -0.1274 -2.0622 -0.6305
   99SAPC  C210 9838   3.253   5.703   3.546 -0.1939  0.4362  0.4868
   99SAPC  H10R 9839   3.174   5.632   3.515  1.5533 -1.0079 -0.9615
   99SAPC  H10S 9840   3.186   5.786   3.515 -0.4893 -0.4143 -1.3312
   99SAPC  C211 9841   3.291   5.700   3.687  0.2500 -0.0702 -0.4960
   99SAPC  H11R 9842   3.342   5.608   3.720  0.7952 -0.0410 -1.2408
   99SAPC  C212 9843   3.266   5.786   3.785 -0.1809 -1.0164  0.0961
   99SAPC  H12R 9844   3.303   5.764   3.886 -0.9761  0.8187  0.8320
   99SAPC  C213 9845   3.188   5.913   3.780  0.2527  0.4507 -0.2377
   99SAPC  H13R 9846   3.110   5.895   3.857  1.0970 -0.9657  0.3125
   99SAPC  H13S 9847   3.139   5.922   3.680 -1.0460  1.1289  0.4393
   99SAPC  C214 9848   3.284   6.030   3.807  0.2598 -0.3597  0.3109
   99SAPC  H14R 9849   3.317   6.048   3.910  0.7698 -1.2812  0.3177
   99SAPC  C215 9850   3.323   6.122   3.716  0.0549  0.3238  0.1029
   99SAPC  H15R 9851   3.394   6.196   3.755 -1.1946  0.1862  2.8888
   99SAPC  C216 9852   3.283   6.118   3.572 -0.2057 -0.2993 -1.0813
   99SAPC  H16R 9853   3.172   6.119   3.566 -0.2353  1.9818 -0.9450
   99SAPC  H16S 9854   3.328   6.026   3.530 -2.1514 -1.4230 -0.7958
   99SAPC  C217 9855   3.344   6.229   3.484  0.1707  0.1672 -0.0910
   99SAPC  H17R 9856   3.454   6.233   3.500  0.2833  0.1059 -0.8069
   99SAPC  H17S 9857   3.310   6.329   3.519  2.2053 -0.2803  3.6739
   99SAPC  C218 9858   3.303   6.212   3.339  0.7919 -0.6715  0.5090
   99SAPC  H18R 9859   3.328   6.111   3.300 -0.0366  0.4080 -3.2758
   99SAPC  H18S 9860   3.365   6.274   3.272  0.8774 -2.4064 -1.1122
   99SAPC  C219 9861   3.152   6.234   3.313 -0.3509  0.7968 -0.3191
   99SAPC  H19R 9862   3.119   6.331   3.358 -3.7961 -0.1229 -0.5770
   99SAPC  H19S 9863   3.100   6.155   3.372  0.4564  1.1923  0.9744
   99SAPC  C220 9864   3.111   6.220   3.165  0.0870 -0.1150 -0.5957
   99SAPC  H20R 9865   3.135   6.118   3.127  1.6940 -0.5951  1.4998
   99SAPC  H20S 9866   3.155   6.308   3.115 -0.7896  2.3295  2.5751
   99SAPC  H20T 9867   3.001   6.230   3.157 -0.3259 -0.0908  3.1338
   99SAPC   C33 9868   3.467   5.233   2.454  0.1460  0.0325 -0.1024
   99SAPC   H3X 9869   3.508   5.196   2.358  1.2671 -1.7441  0.9947
   99SAPC   H3Y 9870   3.356   5.240   2.459  0.0930 -0.7307 -0.0118
   99SAPC   C34 9871   3.518   5.129   2.564  0.2879  0.0315 -0.3130
   99SAPC   H4X 9872   3.617   5.094   2.528  1.3751  2.2237  0.3504
   99SAPC   H4Y 9873   3.447   5.044   2.559  2.5700 -1.9488 -1.5550
   99SAPC   C35 9874   3.535   5.181   2.708  0.2379  0.1273  0.6823
   99SAPC   H5X 9875   3.441   5.234   2.734 -0.8849 -1.0214 -0.8355
   99SAPC   H5Y 9876   3.607   5.265   2.712  2.9609 -2.1217  2.9031
   99SAPC   C36 9877   3.586   5.068   2.794 -0.6427  0.0721 -0.2256
   99SAPC   H6X 9878   3.684   5.051   2.745 -1.3885 -1.0029 -1.3983
   99SAPC   H6Y 9879   3.521   4.980   2.774 -1.8854  0.8727  0.1668
   99SAPC   C37 9880   3.600   5.112   2.941 -0.4425  0.0435  0.9185
   99SAPC   H7X 9881   3.508   5.100   3.002 -2.6402  1.0442 -1.9572
   99SAPC   H7Y 9882   3.631   5.218   2.943  2.8437 -0.7946  1.2361
   99SAPC   C38 9883   3.703   5.020   3.010  0.3890 -0.0434 -0.0466
   99SAPC   H8X 9884   3.804   5.035   2.966  0.0027  1.8258 -0.3658
   99SAPC   H8Y 9885   3.668   4.915   3.018 -0.2006  0.2255  1.0474
   99SAPC   C39 9886   3.709   5.067   3.157  0.1008  0.5369 -1.4576
   99SAPC   H9X 9887   3.607   5.085   3.198  1.4204 -1.1541  3.2595
   99SAPC   H9Y 9888   3.758   5.166   3.158 -2.6843  2.0297  0.1780
   99SAPC  C310 9889   3.791   4.981   3.262 -0.6521 -0.1765  0.1970
   99SAPC  H10X 9890   3.896   4.980   3.225 -0.3496  0.9259  0.9695
   99SAPC  H10Y 9891   3.750   4.878   3.258  0.5276 -0.6482 -0.0794
   99SAPC  C311 9892   3.801   5.051   3.399 -0.2146  0.7817 -0.3450
   99SAPC  H11X 9893   3.699   5.063   3.440  0.3630 -0.5936  1.6326
   99SAPC  H11Y 9894   3.843   5.153   3.387 -2.2476  1.8630  1.2266
   99SAPC  C312 9895   3.875   4.972   3.513  0.1967  0.1680  0.5937
   99SAPC  H12X 9896   3.983   4.976   3.485 -0.0526 -2.4864 -1.0816
   99SAPC  H12Y 9897   3.855   4.863   3.502 -0.0742  0.0729  1.9365
   99SAPC  C313 9898   3.838   5.021   3.656 -0.1502 -0.4349  0.1344
   99SAPC  H13X 9899   3.730   5.042   3.666 -0.2454  0.1208 -1.6604
   99SAPC  H13Y 9900   3.888   5.120   3.667  1.9955 -1.4645  0.3265
   99SAPC  C314 9901   3.896   4.931   3.766  0.4596 -0.4551 -0.6119
   99SAPC  H14X 9902   4.006   4.919   3.759  0.8016  1.3558  0.9694
   99SAPC  H14Y 9903   3.843   4.834   3.747 -0.6049 -0.2495  1.1116
   99SAPC  C315 9904   3.853   4.981   3.910 -0.5326  1.0781  0.3857
   99SAPC  H15X 9905   3.743   4.987   3.924 -0.3533  0.5475  2.4533
   99SAPC  H15Y 9906   3.875   5.089   3.925 -2.8521  1.7170 -0.4469
   99SAPC  C316 9907   3.924   4.890   4.011  0.2980 -0.6216 -0.2538
   99SAPC  H16X 9908   4.033   4.896   3.990  0.0115  0.2530 -1.6135
   99SAPC  H16Y 9909   3.886   4.786   4.018  0.5100 -0.6535  0.4930
   99SAPC  C317 9910   3.916   4.940   4.157 -0.6512  0.0124  0.5596
   99SAPC  H17X 9911   3.808   4.922   4.178 -1.0058 -0.1448 -1.2246
   99SAPC  H17Y 9912   3.949   5.046   4.157 -0.2898 -0.0994 -0.1136
   99SAPC  C318 9913   4.004   4.859   4.247  0.0639  0.4595 -0.7080
   99SAPC  H18X 9914   4.006   4.902   4.350  0.2851  0.5979 -0.7677
   99SAPC  H18Y 9915   4.111   4.849   4.216  0.2276 -0.6814  0.1646
   99SAPC  H18Z 9916   3.979   4.751   4.256 -0.1748  0.6389  1.1461
  100SAPC     N 9917   1.095   3.865   2.168  0.2046 -0.0026 -0.7145
  100SAPC   C12 9918   1.194   3.776   2.234  0.3859  0.6229  0.1116
  100SAPC  H12A 9919   1.262   3.732   2.162  3.3423  1.4540  2.2023
  100SAPC  H12B 9920   1.136   3.698   2.281  0.0059  0.6025 -0.3879
  100SAPC   C13 9921   1.002   3.791   2.077 -0.2931 -0.4909  0.6104
  100SAPC  H13A 9922   0.966   3.866   2.008  0.4246 -0.8443 -0.1705
  100SAPC  H13B 9923   1.054   3.725   2.009  0.4493 -0.5090  1.1814
  100SAPC  H13C 9924   0.919   3.733   2.116  1.1429 -2.5825  0.7573
  100SAPC   C14 9925   1.012   3.932   2.281  0.6136 -0.0226  0.8300
  100SAPC  H14A 9926   0.948   3.864   2.334  1.3366 -1.7222 -0.3803
  100SAPC  H14B 9927   1.072   3.981   2.356 -1.0222  0.4080  1.9031
  100SAPC  H14C 9928   0.943   4.004   2.241  1.7095  0.9608  0.6339
  100SAPC   C15 9929   1.164   3.973   2.087  0.4425 -0.1780  0.4017
  100SAPC  H15A 9930   1.094   4.045   2.048 -1.7367 -2.2883  0.2115
  100SAPC  H15B 9931   1.231   4.033   2.146  0.1339  0.6726 -0.0957
  100SAPC  H15C 9932   1.223   3.922   2.011 -1.2230 -1.0834 -0.3275
  100SAPC   C11 9933   1.285   3.829   2.346 -0.5858 -0.0859 -0.2549
  100SAPC  H11A 9934   1.349   3.743   2.375 -1.1055 -0.4779 -0.2654
  100SAPC  H11B 9935   1.221   3.850   2.434  0.0508 -0.5348  0.3266
  100SAPC     P 9936   1.495   3.910   2.217  0.0536 -0.0095  0.4294
  100SAPC   O13 9937   1.484   3.782   2.139 -0.0928 -0.7369  0.5125
  100SAPC   O14 9938   1.531   4.034   2.141 -0.3293  0.6538  0.2444
  100SAPC   O12 9939   1.363   3.939   2.307 -0.3361 -0.1708 -0.0599
  100SAPC   O11 9940   1.608   3.872   2.329 -0.4998  0.3654 -0.2380
  100SAPC    C1 9941   1.617   3.975   2.435  0.4383  0.3271  0.0782
  100SAPC    HA 9942   1.591   4.080   2.407 -1.5148 -0.3915 -1.0333
  100SAPC    HB 9943   1.533   3.959   2.506 -0.2691  1.4308 -0.4645
  100SAPC    C2 9944   1.754   3.973   2.516  0.5864 -0.1387  0.1384
  100SAPC    HS 9945   1.820   3.987   2.428 -2.6354  3.9786 -1.9897
  100SAPC   O21 9946   1.755   3.849   2.586 -0.1687  0.1033 -0.3918
  100SAPC   C21 9947   1.872   3.812   2.636 -0.2205  0.2575 -0.4903
  100SAPC   O22 9948   1.978   3.853   2.590  0.0863 -0.3385  0.5561
  100SAPC   C22 9949   1.865   3.701   2.741 -0.8006  0.1760  0.6713
  100SAPC   H2R 9950   1.798   3.623   2.700  0.3586  0.2221 -1.4793
  100SAPC   H2S 9951   1.966   3.655   2.750 -1.3904 -1.1531  0.7010
  100SAPC    C3 9952   1.752   4.092   2.615 -0.2741 -0.1464  0.2402
  100SAPC    HX 9953   1.736   4.173   2.541 -1.1183 -1.5594 -1.1827
  100SAPC    HY 9954   1.855   4.086   2.658  0.0711  0.1776 -0.5342
  100SAPC   O31 9955   1.645   4.085   2.709 -0.1144  0.0476  0.1446
  100SAPC   C31 9956   1.644   4.175   2.798 -0.6687 -0.4706  0.1143
  100SAPC   O32 9957   1.737   4.250   2.824 -0.0374  0.3334 -0.4029
  100SAPC   C32 9958   1.505   4.148   2.862 -0.5821  0.1024 -0.0637
  100SAPC   H2X 9959   1.495   4.043   2.899 -0.4324 -0.7629 -2.3540
  100SAPC   H2Y 9960   1.425   4.180   2.792 -1.2975  0.2118  0.7757
  100SAPC   C23 9961   1.843   3.752   2.885  0.7717 -0.9879 -0.4944
  100SAPC   H3R 9962   1.782   3.672   2.932 -0.1594  0.1243  0.2408
  100SAPC   H3S 9963   1.769   3.834   2.880  3.4315  1.7071  1.2072
  100SAPC   C24 9964   1.962   3.796   2.974  0.2521  0.4653  0.4875
  100SAPC   H4R 9965   2.012   3.703   3.008 -0.9604  0.4186  2.2990
  100SAPC   H4S 9966   1.910   3.843   3.060  1.0196  0.9301  0.7048
  100SAPC   C25 9967   2.064   3.893   2.923  0.3087 -0.5277 -0.1107
  100SAPC   H5R 9968   2.113   3.874   2.826 -1.2262 -0.7684 -0.8569
  100SAPC   C26 9969   2.099   4.009   2.973  1.1908 -0.9709  0.0668
  100SAPC   H6R 9970   2.174   4.072   2.923 -2.0767  3.2332 -0.1372
  100SAPC   C27 9971   2.030   4.070   3.097  0.1447  0.5317 -0.1891
  100SAPC   H7R 9972   2.112   4.124   3.147 -0.0573  1.9714 -1.3534
  100SAPC   H7S 9973   1.989   3.996   3.170 -0.5318  0.3138 -0.7767
  100SAPC   C28 9974   1.929   4.179   3.067 -0.5289  0.1375  0.2390
  100SAPC   H8R 9975   1.922   4.215   2.963  1.3296  2.0167  0.7172
  100SAPC   C29 9976   1.832   4.222   3.152  0.4576 -0.5480  0.3470
  100SAPC   H9R 9977   1.774   4.307   3.115  1.4157  0.2178  0.5616
  100SAPC  C210 9978   1.801   4.187   3.295 -0.3708 -0.0231  1.2054
  100SAPC  H10R 9979   1.806   4.076   3.307 -1.0000 -0.3696 -1.3014
  100SAPC  H10S 9980   1.697   4.222   3.314 -0.4542 -0.8719  2.4761
  100SAPC  C211 9981   1.898   4.261   3.388  0.2453 -0.0927 -0.0345
  100SAPC  H11R 9982   2.000   4.263   3.346  0.7903 -1.0816  1.1613
  100SAPC  C212 9983   1.873   4.320   3.501  0.0580  0.1371 -0.4687
  100SAPC  H12R 9984   1.959   4.367   3.551  1.4060 -2.6771  0.0790
  100SAPC  C213 9985   1.739   4.346   3.564  0.2637 -0.1370 -0.6270
  100SAPC  H13R 9986   1.721   4.328   3.672 -3.9849 -0.4906 -1.2093
  100SAPC  H13S 9987   1.663   4.286   3.510 -0.4245 -0.6534  0.8516
  100SAPC  C214 9988   1.702   4.494   3.551  0.2786  0.0508 -0.3031
  100SAPC  H14R 9989   1.790   4.560   3.547  0.5394 -0.3644 -2.8226
  100SAPC  C215 9990   1.582   4.541   3.541 -0.2032 -0.3509 -0.2558
  100SAPC  H15R 9991   1.568   4.649   3.523  0.9654 -0.0881  0.3528
  100SAPC  C216 9992   1.452   4.460   3.541 -0.3583  0.3492 -0.1263
  100SAPC  H16R 9993   1.472   4.356   3.507 -0.9256 -0.1212  0.9280
  100SAPC  H16S 9994   1.370   4.495   3.473 -1.7282 -0.1736  1.1977
  100SAPC  C217 9995   1.397   4.452   3.686 -0.0774  0.0676  0.6545
  100SAPC  H17R 9996   1.402   4.554   3.731  0.9295  0.3867 -0.1355
  100SAPC  H17S 9997   1.459   4.388   3.752 -0.2446  0.4084  1.1563
  100SAPC  C218 9998   1.251   4.398   3.702 -0.6776 -0.1542  0.3246
  100SAPC  H18R 9999   1.236   4.308   3.639  1.1172  1.0022 -1.9042
  100SAPC  H18S10000   1.180   4.480   3.677  0.6875  1.0847  0.3912
  100SAPC  C21910001   1.207   4.362   3.849  0.1529  0.0143 -0.1148
  100SAPC  H19R10002   1.258   4.269   3.882 -0.2254 -0.4557 -0.8171
  100SAPC  H19S10003   1.098   4.337   3.844 -0.4036  2.3499 -2.5298
  100SAPC  C22010004   1.234   4.461   3.954  0.3287  0.3977  0.6731
  100SAPC  H20R10005   1.170   4.549   3.932 -0.9649 -0.0784  2.3143
  100SAPC  H20S10006   1.340   4.494   3.950  0.1415  1.3164  2.4445
  100SAPC  H20T10007   1.221   4.414   4.054  2.3427 -3.3116 -0.6086
  100SAPC   C3310008   1.478   4.243   2.986 -0.5502 -0.8708 -0.7717
  100SAPC   H3X10009   1.444   4.343   2.951 -2.6461 -1.3131 -0.1113
  100SAPC   H3Y10010   1.569   4.266   3.046 -0.7843  0.5520 -0.9258
  100SAPC   C3410011   1.367   4.189   3.087  0.2441  0.5295  0.1243
  100SAPC   H4X10012   1.401   4.087   3.115 -1.7646 -0.9952 -2.4910
  100SAPC   H4Y10013   1.270   4.164   3.037  0.0823 -2.4534  1.6839
  100SAPC   C3510014   1.360   4.271   3.219 -0.1542  0.7442 -0.0520
  100SAPC   H5X10015   1.307   4.365   3.191  1.1933  1.0289 -1.8477
  100SAPC   H5Y10016   1.458   4.301   3.263  0.6070  0.8633 -1.7460
  100SAPC   C3610017   1.270   4.222   3.339 -0.1863 -0.4457  0.6248
  100SAPC   H6X10018   1.273   4.316   3.399 -0.9159  0.8847 -1.3234
  100SAPC   H6Y10019   1.325   4.145   3.397  0.1084 -2.1092 -1.7021
  100SAPC   C3710020   1.133   4.167   3.300 -0.5060 -0.5839  0.5184
  100SAPC   H7X10021   1.155   4.077   3.239  0.5860 -0.6043  0.9143
  100SAPC   H7Y10022   1.076   4.241   3.239  0.1441 -1.6690 -1.4776
  100SAPC   C3810023   1.053   4.110   3.426 -0.2143 -0.2734  0.4251
  100SAPC   H8X10024   0.960   4.065   3.385 -0.8695  0.9191  0.5550
  100SAPC   H8Y10025   1.033   4.194   3.495  1.2502 -0.1653  0.7637
  100SAPC   C3910026   1.133   4.009   3.511  0.0984  0.2027 -0.3872
  100SAPC   H9X10027   1.217   4.057   3.565  1.2731 -1.4400 -0.6768
  100SAPC   H9Y10028   1.169   3.927   3.445 -0.7280 -1.0884  0.7179
  100SAPC  C31010029   1.044   3.937   3.616  0.0122  0.0893 -0.2111
  100SAPC  H10X10030   1.094   3.838   3.612  0.7360  0.4567 -0.4459
  100SAPC  H10Y10031   0.941   3.910   3.583 -0.8980 -0.2890  2.6536
  100SAPC  C31110032   1.057   4.010   3.750 -0.1635 -0.0506 -0.0079
  100SAPC  H11X10033   1.025   4.115   3.734  1.4947  0.6963  1.2515
  100SAPC  H11Y10034   1.164   4.000   3.780  0.2772 -0.3007 -1.5558
  100SAPC  C31210035   0.967   3.953   3.860 -0.5148 -0.3221  0.2664
  100SAPC  H12X10036   0.883   3.908   3.803 -0.5193  0.6000 -0.4724
  100SAPC  H12Y10037   0.937   4.028   3.936  1.4059  1.5687 -0.7515
  100SAPC  C31310038   1.042   3.830   3.918  0.4906 -0.0995  0.5235
  100SAPC  H13X10039   1.102   3.793   3.832 -1.1820  1.7735 -1.5856
  100SAPC  H13Y10040   0.980   3.743   3.949  0.0184  1.2565  3.7055
  100SAPC  C31410041   1.143   3.864   4.029  0.6424 -0.2102 -0.0649
  100SAPC  H14X10042   1.193   3.959   4.000  1.7374 -0.7919 -0.1371
  100SAPC  H14Y10043   1.213   3.778   4.016  2.2632  1.3739 -2.8456
  100SAPC  C31510044   1.066   3.862   4.164  0.1878 -0.1713 -0.8862
  100SAPC  H15X10045   1.013   3.765   4.176  0.0514 -0.1590 -1.3792
  100SAPC  H15Y10046   0.981   3.935   4.159  1.0431  0.9949  0.5919
  100SAPC  C31610047   1.147   3.880   4.287 -0.0302  0.4038  0.5279
  100SAPC  H16X10048   1.088   3.908   4.377  0.7581 -3.7194  2.5874
  100SAPC  H16Y10049   1.215   3.964   4.259 -0.3142 -0.4397 -3.2619
  100SAPC  C31710050   1.237   3.763   4.338 -0.0639 -0.0370 -0.2726
  100SAPC  H17X10051   1.290   3.794   4.431  1.5748 -1.4601 -0.6922
  100SAPC  H17Y10052   1.321   3.749   4.267  0.8731  1.7703  0.4102
  100SAPC  C31810053   1.165   3.638   4.383  0.8732  0.8437 -0.3736
  100SAPC  H18X10054   1.088   3.663   4.459  0.4974 -0.9755 -0.1039
  100SAPC  H18Y10055   1.236   3.562   4.423  0.1707  1.1524  1.5521
  100SAPC  H18Z10056   1.124   3.602   4.286  2.3480 -0.9342 -0.4074
  101OSM      N10057   3.916   3.594   6.942 -0.5824 -0.0620  0.7761
  101OSM    C1510058   3.930   3.468   7.021  0.4517 -0.1592 -0.1909
  101OSM   H15A10059   3.897   3.492   7.121 -0.0247 -1.0822 -0.1128
  101OSM   H15B10060   4.033   3.437   7.027  0.6239 -0.2778 -2.6951
  101OSM   H15C10061   3.870   3.383   6.990  0.1881 -0.1599  0.3075
  101OSM    C1410062   3.777   3.655   6.967 -0.8661  0.6148 -0.3794
  101OSM   H14A10063   3.695   3.596   6.929 -0.6636 -0.8788  1.3711
  101OSM   H14B10064   3.766   3.753   6.923  1.8648  1.5593  0.8687
  101OSM   H14C10065   3.770   3.661   7.074 -3.0764 -0.6969 -0.3903
  101OSM    C1310066   4.020   3.694   6.986 -0.6660  1.1362 -0.3505
  101OSM   H13A10067   4.116   3.657   6.954 -1.5968 -0.2853 -1.6238
  101OSM   H13B10068   4.023   3.702   7.094  1.2800  1.0129 -0.3589
  101OSM   H13C10069   4.008   3.797   6.956  0.2976  1.9195  1.7089
  101OSM    C1210070   3.927   3.574   6.796 -0.5012  0.1421  0.3399
  101OSM   H12A10071   4.026   3.538   6.775 -0.0879  1.7321 -0.5787
  101OSM   H12B10072   3.918   3.671   6.750 -1.6387 -0.0546  0.1128
  101OSM    C1110073   3.825   3.474   6.723  0.1736 -0.2950 -0.0718
  101OSM   H11A10074   3.842   3.479   6.613  1.6262  0.0717  0.1445
  101OSM   H11B10075   3.723   3.509   6.751  0.7777  1.1475  0.4448
  101OSM      P10076   3.949   3.250   6.719  0.0473 -0.0976  0.0568
  101OSM    O1310077   4.051   3.238   6.824  0.4258 -0.0122  0.3885
  101OSM    O1410078   3.883   3.123   6.682  0.6684  0.3229 -0.1418
  101OSM    O1110079   4.005   3.314   6.589 -0.2236 -0.3423  0.5371
  101OSM    O1210080   3.834   3.339   6.770  0.1344  0.2378  0.0442
  101OSM    C1S10081   4.137   3.272   6.533  0.0933 -0.1841  0.5471
  101OSM    H1S10082   4.166   3.170   6.567 -0.2119 -0.0225  1.3092
  101OSM    H1T10083   4.218   3.343   6.560 -0.5168 -0.0414  2.0942
  101OSM     NF10084   4.235   3.190   6.318 -0.4376 -0.3270 -0.3480
  101OSM    HNF10085   4.307   3.232   6.264  1.5315 -0.5485  1.9336
  101OSM    C2S10086   4.122   3.270   6.373  0.1085  0.1403  0.1952
  101OSM    H2S10087   4.033   3.208   6.349  1.5537 -2.8163  1.8564
  101OSM    C3S10088   4.102   3.409   6.315 -0.9327  0.1334 -0.2889
  101OSM    H3S10089   4.202   3.458   6.310 -0.6723 -0.4359 -0.7624
  101OSM     O310090   4.017   3.490   6.396 -0.0260 -0.2686 -0.6716
  101OSM    HO310091   3.998   3.440   6.476  0.2281  0.5839 -0.0680
  101OSM    C4S10092   4.065   3.404   6.175  0.9222  0.1900 -0.0736
  101OSM    H4S10093   4.145   3.440   6.109 -0.6383  1.2703 -1.4669
  101OSM    C5S10094   3.951   3.364   6.119  0.9677 -0.0598  0.3694
  101OSM    H5S10095   3.866   3.329   6.178  1.6401 -0.7328  0.9521
  101OSM    C6S10096   3.932   3.336   5.973 -0.0322  0.1197  0.7472
  101OSM    H6S10097   3.866   3.413   5.928 -0.2273  1.2405  2.8163
  101OSM    H6T10098   3.885   3.235   5.971  0.6472 -0.2225  1.5073
  101OSM    C7S10099   4.047   3.321   5.874 -0.4455  0.1595 -0.1343
  101OSM    H7S10100   4.119   3.250   5.920 -0.7174 -0.5203 -0.7361
  101OSM    H7T10101   4.096   3.421   5.866  0.0127 -0.0266  0.2903
  101OSM    C8S10102   4.001   3.263   5.745 -0.0322  0.3939  0.1009
  101OSM    H8S10103   3.928   3.333   5.700  0.1535  0.3611 -0.2550
  101OSM    H8T10104   3.959   3.161   5.753 -0.3864  0.5043 -0.3321
  101OSM    C9S10105   4.109   3.270   5.638  0.0101 -0.0680 -0.0356
  101OSM    H9S10106   4.190   3.201   5.670  0.3876  0.2553 -0.2839
  101OSM    H9T10107   4.155   3.371   5.625  0.2880 -0.2484 -0.4753
  101OSM   C10S10108   4.069   3.210   5.505  0.2193  0.0551  0.0432
  101OSM   H10S10109   3.996   3.283   5.465 -1.3881 -0.6939  1.4972
  101OSM   H10T10110   4.012   3.115   5.511 -1.0226  0.3367 -4.3314
  101OSM   C11S10111   4.185   3.190   5.410  0.4643  0.5771 -0.2228
  101OSM   H11S10112   4.251   3.120   5.466 -2.3914 -1.6779  0.5334
  101OSM   H11T10113   4.227   3.292   5.397  2.6479  0.0215  1.7006
  101OSM   C12S10114   4.137   3.126   5.275 -0.0390 -0.7114 -0.0831
  101OSM   H12S10115   4.048   3.186   5.248  1.2041  1.1405 -0.3152
  101OSM   H12T10116   4.102   3.022   5.292  2.9081 -1.9274 -0.8470
  101OSM   C13S10117   4.232   3.137   5.148 -0.4499  0.5179  0.0025
  101OSM   H13S10118   4.170   3.111   5.060  1.0465 -1.9178 -0.4167
  101OSM   H13T10119   4.322   3.072   5.153  0.2658  1.4119 -0.9327
  101OSM   C14S10120   4.278   3.284   5.133 -0.4254  0.1424  0.3211
  101OSM   H14S10121   4.368   3.301   5.196  0.1478  1.6911 -0.8631
  101OSM   H14T10122   4.200   3.359   5.159  0.3324  0.5589  1.4472
  101OSM   C15S10123   4.323   3.321   4.992 -1.0134 -0.5041 -0.2297
  101OSM   H15S10124   4.331   3.432   4.993 -4.3425 -0.1483  1.8756
  101OSM   H15T10125   4.233   3.298   4.931 -0.5368 -0.9635 -0.7731
  101OSM   C16S10126   4.452   3.244   4.945 -0.2148  0.1843  0.2887
  101OSM   H16S10127   4.447   3.136   4.968  3.4307 -0.3032 -0.6296
  101OSM   H16T10128   4.537   3.283   5.004  0.8843 -0.7187 -0.6392
  101OSM   C17S10129   4.477   3.254   4.793 -0.2663 -0.1092 -0.4560
  101OSM   H17S10130   4.586   3.236   4.781 -0.4377  0.2659 -3.2090
  101OSM   H17T10131   4.450   3.357   4.762  0.4125  0.6225  1.2796
  101OSM   C18S10132   4.419   3.155   4.699 -0.0682 -0.1719  0.2890
  101OSM   H18S10133   4.318   3.181   4.662  0.0364  0.3667  0.3815
  101OSM   H18T10134   4.420   3.061   4.759  0.0606  0.4783  1.3301
  101OSM   H18U10135   4.485   3.132   4.612  0.7978 -0.0250  0.8865
  101OSM    C1F10136   4.246   3.055   6.334  0.5613 -0.2679 -0.2797
  101OSM     OF10137   4.160   2.986   6.397  0.5089 -0.3766 -0.1897
  101OSM    C2F10138   4.358   2.987   6.278 -0.3723 -0.7438 -0.0096
  101OSM    H2F10139   4.373   2.887   6.324  3.1550 -0.2790  0.1263
  101OSM    H2G10140   4.454   3.026   6.318 -0.3344  0.1530 -0.9552
  101OSM    C3F10141   4.363   2.982   6.123 -0.9843 -0.3803 -0.6961
  101OSM    H3F10142   4.454   2.925   6.091 -1.8520 -2.4404  0.3405
  101OSM    H3G10143   4.370   3.082   6.075  0.9010 -0.6521 -1.0725
  101OSM    C4F10144   4.237   2.924   6.048 -0.4276 -0.0299 -0.6722
  101OSM    H4F10145   4.141   2.958   6.093 -0.1005  0.2703 -0.1841
  101OSM    H4G10146   4.233   2.814   6.065 -1.2746  0.2018  0.8516
  101OSM    C5F10147   4.244   2.925   5.898  0.4565  1.1953 -0.0181
  101OSM    H5F10148   4.343   2.900   5.856  0.2781  0.8186 -0.2215
  101OSM    H5G10149   4.216   3.031   5.877  3.4501  2.0542 -0.0838
  101OSM    C6F10150   4.135   2.835   5.836  0.5261  0.4175  0.1638
  101OSM    H6F10151   4.153   2.733   5.875  0.8243  0.5918  0.4981
  101OSM    H6G10152   4.154   2.837   5.727  1.0902  1.3107  0.2575
  101OSM    C7F10153   3.984   2.871   5.871 -0.7914 -0.1306  0.0076
  101OSM    H7F10154   3.973   2.981   5.869 -0.6624 -0.0670  1.7339
  101OSM    H7G10155   3.948   2.839   5.971  1.3817 -1.4633  0.4374
  101OSM    C8F10156   3.884   2.822   5.762 -0.2782  0.1892  0.1419
  101OSM    H8F10157   3.902   2.895   5.680 -0.4519  1.2167  0.9884
  101OSM    H8G10158   3.781   2.840   5.798 -0.4308  2.3919 -1.1971
  101OSM    C9F10159   3.885   2.682   5.709  0.4403  0.9039 -0.3458
  101OSM    H9F10160   3.931   2.608   5.776 -0.6833  1.2561  0.8553
  101OSM   C10F10161   3.854   2.641   5.584 -0.1144 -0.0140  1.3249
  101OSM   H10F10162   3.851   2.534   5.562 -3.2633  0.6323 -2.3713
  101OSM   C11F10163   3.809   2.732   5.472  0.2103  0.0314  0.2230
  101OSM   H11F10164   3.774   2.834   5.501  0.0410 -0.4113  1.6244
  101OSM   H11G10165   3.731   2.684   5.410  0.9255  0.7955 -1.3274
  101OSM   C12F10166   3.921   2.755   5.365  0.3599  0.1071  0.3220
  101OSM   H12F10167   4.010   2.763   5.432  1.0193 -0.1844 -0.5079
  101OSM   H12G10168   3.911   2.847   5.303 -2.5380 -1.1383 -1.2743
  101OSM   C13F10169   3.948   2.629   5.269  0.1785 -0.0875 -0.0265
  101OSM   H13F10170   3.914   2.544   5.331  0.6798  1.3612  2.3688
  101OSM   H13G10171   4.058   2.643   5.267  0.3098  0.4417  4.1111
  101OSM   C14F10172   3.879   2.634   5.135  0.1960 -0.3896  0.0840
  101OSM   H14F10173   3.913   2.704   5.056 -0.8535  0.4855  0.3645
  101OSM   H14G10174   3.771   2.655   5.155  0.0692  0.2685 -1.2074
  101OSM   C15F10175   3.882   2.496   5.068  0.3304  0.5581 -0.0209
  101OSM   H15F10176   3.851   2.418   5.141 -0.1412  2.1642  1.5841
  101OSM   H15G10177   3.989   2.475   5.047  0.4818  1.5404 -0.2518
  101OSM   C16F10178   3.796   2.481   4.943  0.1517 -0.0424  1.0137
  101OSM   H16F10179   3.691   2.513   4.962 -0.9351 -1.6621 -1.7899
  101OSM   H16G10180   3.803   2.378   4.902 -0.2516  0.9034 -1.6260
  101OSM   C17F10181   3.843   2.577   4.823 -0.0970  0.1495 -0.7601
  101OSM   H17F10182   3.940   2.537   4.785  0.3927  0.6145 -0.0378
  101OSM   H17G10183   3.879   2.678   4.853  1.0217 -0.6165  0.6267
  101OSM   C18F10184   3.741   2.589   4.708  0.0142 -0.0552  0.2039
  101OSM   H18F10185   3.789   2.605   4.609 -1.0037 -4.0384 -1.1610
  101OSM   H18G10186   3.662   2.661   4.738  1.5516  1.0779  1.6661
  101OSM   H18H10187   3.681   2.496   4.692  2.5437 -1.3456 -2.7731
  102OSM      N10188   4.430   2.149   6.637 -0.3310  0.7373 -0.1210
  102OSM    C1510189   4.387   2.057   6.743  0.6679 -0.2953 -0.9655
  102OSM   H15A10190   4.348   2.119   6.823  1.4248 -2.2178  0.9740
  102OSM   H15B10191   4.469   2.006   6.791 -0.8462 -1.0677  0.9440
  102OSM   H15C10192   4.323   1.977   6.707 -0.7585 -0.1589  1.1161
  102OSM    C1410193   4.306   2.203   6.573 -0.4930 -0.0827  0.7529
  102OSM   H14A10194   4.258   2.125   6.517 -0.1047  0.4464 -0.3483
  102OSM   H14B10195   4.315   2.292   6.512 -0.8241 -0.4974  0.0967
  102OSM   H14C10196   4.225   2.228   6.640 -2.6824  0.1324 -1.8183
  102OSM    C1310197   4.508   2.261   6.695  0.9359  0.3301 -0.3632
  102OSM   H13A10198   4.531   2.339   6.624  1.4860  1.1463  0.6814
  102OSM   H13B10199   4.588   2.221   6.755 -0.0117 -0.3496  0.4747
  102OSM   H13C10200   4.444   2.313   6.764 -2.1541 -3.6043  0.0881
  102OSM    C1210201   4.528   2.085   6.533  0.8680 -0.0782  0.2905
  102OSM   H12A10202   4.615   2.047   6.585  0.6206  0.1502  0.8894
  102OSM   H12B10203   4.560   2.158   6.460  0.7626  0.1378  0.4580
  102OSM    C1110204   4.459   1.975   6.447  0.6391  0.1365 -0.6392
  102OSM   H11A10205   4.542   1.932   6.387  2.3863  2.2563  0.1419
  102OSM   H11B10206   4.370   2.008   6.390 -0.1010 -0.3498  0.2009
  102OSM      P10207   4.504   1.753   6.589  0.4346 -0.2076 -0.1427
  102OSM    O1310208   4.642   1.801   6.612 -0.7958  0.1623  0.5922
  102OSM    O1410209   4.435   1.694   6.707 -0.4287 -0.5189  0.3679
  102OSM    O1110210   4.506   1.639   6.476  0.1376  0.1919 -0.2409
  102OSM    O1210211   4.411   1.869   6.531  0.3031  0.4759  0.6466
  102OSM    C1S10212   4.386   1.604   6.404 -0.1895 -0.0612  0.1551
  102OSM    H1S10213   4.295   1.648   6.449  0.2459  1.4302 -0.3877
  102OSM    H1T10214   4.366   1.495   6.395 -2.3255  0.4576 -3.6662
  102OSM     NF10215   4.275   1.610   6.186  0.4507  0.0814 -0.3000
  102OSM    HNF10216   4.273   1.525   6.132  0.7551  1.6274 -2.9136
  102OSM    C2S10217   4.396   1.653   6.261  0.5279 -0.4515 -0.7403
  102OSM    H2S10218   4.406   1.764   6.263  0.6517 -0.4646  0.1783
  102OSM    C3S10219   4.520   1.600   6.185 -0.3146  0.2879  0.1057
  102OSM    H3S10220   4.522   1.489   6.192 -0.3625  0.2847  0.0735
  102OSM     O310221   4.635   1.657   6.247 -0.1700 -0.0198 -0.0263
  102OSM    HO310222   4.606   1.689   6.332 -1.8083 -2.1681  0.2897
  102OSM    C4S10223   4.509   1.649   6.043 -0.0763 -0.1466  0.3340
  102OSM    H4S10224   4.491   1.756   6.023 -0.1575 -0.5918 -2.3271
  102OSM    C5S10225   4.514   1.575   5.931 -0.0040 -0.3328 -0.1623
  102OSM    H5S10226   4.534   1.467   5.938 -1.9267 -0.6056  1.9346
  102OSM    C6S10227   4.474   1.633   5.798 -0.5044 -0.3181  0.2187
  102OSM    H6S10228   4.388   1.702   5.813 -1.3159 -1.4561  1.0258
  102OSM    H6T10229   4.465   1.541   5.736  0.5062 -0.3370  0.0895
  102OSM    C7S10230   4.599   1.709   5.755  0.4058  0.6448  0.4517
  102OSM    H7S10231   4.700   1.663   5.755  0.5456  0.9269 -0.3984
  102OSM    H7T10232   4.612   1.800   5.818  1.5069  3.8264 -3.9196
  102OSM    C8S10233   4.564   1.760   5.614 -0.2626 -0.4881 -0.2214
  102OSM    H8S10234   4.464   1.805   5.595  0.2440 -0.1399 -2.2917
  102OSM    H8T10235   4.562   1.674   5.543 -1.9352 -1.7490  1.2577
  102OSM    C9S10236   4.672   1.850   5.557  0.2690 -0.0058  0.2454
  102OSM    H9S10237   4.767   1.794   5.549 -0.6718 -1.7043  0.3871
  102OSM    H9T10238   4.691   1.934   5.627  1.5599 -0.1651  0.1131
  102OSM   C10S10239   4.635   1.914   5.419  0.2471 -0.2072  0.2159
  102OSM   H10S10240   4.695   2.006   5.408  0.5963 -0.6744 -2.2656
  102OSM   H10T10241   4.525   1.929   5.415 -0.2546 -2.3221  2.7224
  102OSM   C11S10242   4.693   1.831   5.304  0.2771 -0.5441  0.6558
  102OSM   H11S10243   4.623   1.864   5.226  0.9789  0.4087  0.4099
  102OSM   H11T10244   4.681   1.721   5.320 -0.5192 -0.6859 -0.7928
  102OSM   C12S10245   4.828   1.881   5.264  0.4498  0.0857  0.4496
  102OSM   H12S10246   4.897   1.874   5.350  1.4326  1.7267 -0.1449
  102OSM   H12T10247   4.821   1.986   5.226 -3.0345 -0.7242 -1.6358
  102OSM   C13S10248   4.901   1.791   5.156 -0.3013 -0.1259  0.1531
  102OSM   H13S10249   4.837   1.763   5.070 -1.2589 -0.2741  0.9012
  102OSM   H13T10250   4.927   1.694   5.202  0.8334 -1.2103 -2.5623
  102OSM   C14S10251   5.023   1.877   5.112  0.5255  0.4651  0.0205
  102OSM   H14S10252   5.098   1.801   5.082  1.2496  1.5338 -0.9703
  102OSM   H14T10253   5.064   1.943   5.193  1.7610  0.1285 -0.3059
  102OSM   C15S10254   4.997   1.950   4.971  0.2628 -0.9466  0.6887
  102OSM   H15S10255   4.892   1.986   4.972  0.5689  0.0763 -0.6887
  102OSM   H15T10256   5.009   1.875   4.890 -0.8354  1.1544 -1.5535
  102OSM   C16S10257   5.101   2.054   4.927  0.0818 -0.6198  0.1049
  102OSM   H16S10258   5.202   2.017   4.956  1.4833  3.3448  0.9699
  102OSM   H16T10259   5.093   2.154   4.974  0.4036 -0.9212  0.8189
  102OSM   C17S10260   5.095   2.084   4.777 -0.4816  0.2610  0.2199
  102OSM   H17S10261   4.997   2.132   4.758 -0.8706 -0.6980 -0.3271
  102OSM   H17T10262   5.104   1.994   4.712 -0.7158  1.0721 -0.9626
  102OSM   C18S10263   5.203   2.182   4.736 -0.2726  0.5090 -0.1999
  102OSM   H18S10264   5.183   2.209   4.630 -1.7117  2.2169  0.4646
  102OSM   H18T10265   5.299   2.127   4.750 -0.5679 -0.7377 -2.5794
  102OSM   H18U10266   5.200   2.275   4.797 -1.5024  0.3484  0.0227
  102OSM    C1F10267   4.160   1.683   6.193  0.0412  0.7626  0.1771
  102OSM     OF10268   4.157   1.772   6.272 -0.1696  0.4568 -0.6258
  102OSM    C2F10269   4.039   1.641   6.114 -0.7518 -0.1674  0.0184
  102OSM    H2F10270   3.995   1.737   6.079  2.8077  2.1544  1.2700
  102OSM    H2G10271   3.965   1.598   6.185  1.4647 -0.4730  2.3019
  102OSM    C3F10272   4.049   1.545   5.992  0.5935  0.2108  0.0419
  102OSM    H3F10273   3.953   1.489   5.989  0.6328  0.0803  0.9703
  102OSM    H3G10274   4.120   1.465   6.021 -0.1316  0.2608  2.1102
  102OSM    C4F10275   4.104   1.604   5.865  0.0840 -0.4264  0.4865
  102OSM    H4F10276   4.188   1.671   5.891  0.1433  0.1063 -0.9869
  102OSM    H4G10277   4.021   1.656   5.813 -1.9676 -3.2090  0.7598
  102OSM    C5F10278   4.149   1.485   5.772  0.7156  0.2309  0.1339
  102OSM    H5F10279   4.076   1.402   5.768 -0.1521  1.0374 -1.7241
  102OSM    H5G10280   4.238   1.435   5.816  0.4481 -0.0553  0.3507
  102OSM    C6F10281   4.178   1.531   5.627 -0.1643  0.1725 -0.9245
  102OSM    H6F10282   4.230   1.629   5.628 -1.5877  0.9708 -2.1153
  102OSM    H6G10283   4.077   1.551   5.587  0.3016  1.9101 -1.3008
  102OSM    C7F10284   4.251   1.421   5.552  0.1891 -0.3473 -1.1445
  102OSM    H7F10285   4.194   1.332   5.585 -1.2631  0.8431 -0.2955
  102OSM    H7G10286   4.359   1.416   5.576  0.1339  2.0309 -0.1197
  102OSM    C8F10287   4.234   1.429   5.401  0.4766  0.7865 -0.0169
  102OSM    H8F10288   4.129   1.456   5.376  0.4049  0.4105 -0.1261
  102OSM    H8G10289   4.251   1.331   5.353  3.0932  1.1242  0.0584
  102OSM    C9F10290   4.318   1.523   5.314 -0.6833  0.2550  0.3672
  102OSM    H9F10291   4.421   1.535   5.352 -0.4502 -1.9550  0.5851
  102OSM   C10F10292   4.292   1.608   5.219  0.7142 -0.2272  0.0293
  102OSM   H10F10293   4.371   1.655   5.159  1.3917  0.3499  1.3262
  102OSM   C11F10294   4.157   1.612   5.165 -0.3204  0.7094 -0.3988
  102OSM   H11F10295   4.143   1.711   5.116 -0.0720  0.5512 -0.7957
  102OSM   H11G10296   4.076   1.607   5.241 -1.4887 -0.5263 -1.6435
  102OSM   C12F10297   4.123   1.485   5.074 -0.4376 -0.0844  0.0396
  102OSM   H12F10298   4.016   1.490   5.047 -0.1268  1.3606 -1.0218
  102OSM   H12G10299   4.138   1.389   5.129 -1.0346  0.3450  0.9846
  102OSM   C13F10300   4.201   1.485   4.943 -0.2512  0.5012 -0.0076
  102OSM   H13F10301   4.181   1.390   4.889 -0.4413  2.2345 -3.2476
  102OSM   H13G10302   4.309   1.504   4.963  0.1617  0.9517 -2.3327
  102OSM   C14F10303   4.159   1.598   4.844  0.1415  0.3523 -0.4234
  102OSM   H14F10304   4.225   1.597   4.754 -1.3992  1.1363 -1.6085
  102OSM   H14G10305   4.184   1.692   4.898 -0.7668  1.1900 -1.4060
  102OSM   C15F10306   4.009   1.596   4.800  0.2060  0.5472 -0.1518
  102OSM   H15F10307   3.943   1.586   4.889  2.2400  1.5551  1.5927
  102OSM   H15G10308   3.989   1.506   4.739 -1.6666  0.2042  0.8929
  102OSM   C16F10309   3.969   1.714   4.712  0.3200  0.4885 -0.8077
  102OSM   H16F10310   4.041   1.721   4.628  0.8401 -2.2981 -0.7220
  102OSM   H16G10311   3.966   1.803   4.778  0.0227 -0.1279  0.0436
  102OSM   C17F10312   3.836   1.684   4.660 -0.2501  0.9252 -1.1895
  102OSM   H17F10313   3.765   1.636   4.731  2.0869  0.2859  0.8227
  102OSM   H17G10314   3.860   1.609   4.582  1.2782  1.9123 -1.7043
  102OSM   C18F10315   3.759   1.795   4.586  0.1416  0.1597  0.3025
  102OSM   H18F10316   3.823   1.829   4.502 -0.9527 -2.3430 -1.6934
  102OSM   H18G10317   3.737   1.877   4.657 -2.1199 -0.8969  0.9129
  102OSM   H18H10318   3.663   1.755   4.548  0.8502 -0.7333 -0.6455
  103OSM      N10319   2.607   5.003   6.740 -0.4791 -0.4212  0.3669
  103OSM    C1510320   2.677   5.090   6.642 -0.0337  0.0070  0.2991
  103OSM   H15A10321   2.695   5.049   6.544  2.0352  2.6137 -0.5266
  103OSM   H15B10322   2.776   5.115   6.677 -0.3858 -1.2386  2.4047
  103OSM   H15C10323   2.618   5.178   6.622  1.1102  0.6858 -0.1409
  103OSM    C1410324   2.695   4.885   6.767 -0.0340  0.2533  0.1401
  103OSM   H14A10325   2.794   4.919   6.791 -0.3354  1.9020 -0.7551
  103OSM   H14B10326   2.699   4.822   6.680 -1.6129  1.3908 -0.8189
  103OSM   H14C10327   2.654   4.829   6.849 -1.0692  0.4759 -0.2072
  103OSM    C1310328   2.582   5.082   6.862 -0.6236 -0.2360  0.6602
  103OSM   H13A10329   2.511   5.031   6.925 -0.5168 -0.0425  0.9387
  103OSM   H13B10330   2.534   5.173   6.830  0.9032  0.1574 -0.6124
  103OSM   H13C10331   2.678   5.109   6.905 -0.1973 -1.2433  0.3830
  103OSM    C1210332   2.473   4.948   6.694 -0.1618  0.4217  0.4784
  103OSM   H12A10333   2.396   5.022   6.710 -0.9518  0.0454 -1.4029
  103OSM   H12B10334   2.444   4.863   6.753 -0.9833  0.7273  0.5256
  103OSM    C1110335   2.464   4.906   6.546 -0.2100  1.0588  0.1055
  103OSM   H11A10336   2.550   4.837   6.529 -0.5937  0.8510 -1.1301
  103OSM   H11B10337   2.480   4.992   6.477  0.0645  1.2872  0.4489
  103OSM      P10338   2.211   4.932   6.511 -0.3951 -0.0828 -0.0303
  103OSM    O1310339   2.094   4.842   6.510 -0.2803 -0.0524  0.6894
  103OSM    O1410340   2.216   5.032   6.619  0.0202  0.0980 -0.0189
  103OSM    O1110341   2.239   5.009   6.370 -0.6846 -0.7460 -0.2011
  103OSM    O1210342   2.339   4.846   6.531 -0.9701 -0.1919  0.5513
  103OSM    C1S10343   2.284   4.949   6.247 -0.2097 -0.3237  0.9503
  103OSM    H1S10344   2.216   4.869   6.209 -0.9561  0.6512  0.1660
  103OSM    H1T10345   2.385   4.907   6.261 -0.0808 -0.4862 -0.3351
  103OSM     NF10346   2.354   4.991   6.005  0.0298 -0.7234  0.0216
  103OSM    HNF10347   2.442   5.032   5.979 -0.4467  1.4192  1.4887
  103OSM    C2S10348   2.292   5.050   6.128  0.0321 -0.2040  1.0212
  103OSM    H2S10349   2.191   5.083   6.095  0.4075  0.3010  0.3545
  103OSM    C3S10350   2.366   5.186   6.175  0.3646 -0.4281  0.4501
  103OSM    H3S10351   2.470   5.166   6.206  0.1965  1.3851  2.4332
  103OSM     O310352   2.307   5.251   6.283  0.8042  0.0672 -0.3430
  103OSM    HO310353   2.224   5.207   6.300 -0.6353  2.6096 -0.2852
  103OSM    C4S10354   2.365   5.283   6.059 -0.5885  0.4983 -1.0603
  103OSM    H4S10355   2.456   5.277   5.998 -0.3985  0.8423 -0.8154
  103OSM    C5S10356   2.259   5.363   6.027  0.4435 -0.3166 -0.2245
  103OSM    H5S10357   2.165   5.364   6.084 -0.5735 -0.9081 -1.8210
  103OSM    C6S10358   2.269   5.461   5.914  0.0193 -0.8104 -0.4692
  103OSM    H6S10359   2.376   5.490   5.902 -0.1979  0.0535 -0.4094
  103OSM    H6T10360   2.210   5.555   5.925  1.6159  0.1157  0.5402
  103OSM    C7S10361   2.220   5.408   5.780 -0.0882  0.2928 -0.5134
  103OSM    H7S10362   2.237   5.492   5.710 -0.3451  1.7536  1.1012
  103OSM    H7T10363   2.111   5.384   5.787 -0.2478  1.3116  1.0179
  103OSM    C8S10364   2.297   5.282   5.739 -0.7708 -0.3922  0.1877
  103OSM    H8S10365   2.237   5.249   5.652 -2.0484  1.4954  0.2944
  103OSM    H8T10366   2.303   5.199   5.814  5.1151 -1.7305 -1.2530
  103OSM    C9S10367   2.431   5.321   5.682  0.6802  0.4390  0.5253
  103OSM    H9S10368   2.484   5.409   5.725  1.7166  1.0798 -1.8766
  103OSM    H9T10369   2.422   5.340   5.573 -3.0056  0.4682  0.7079
  103OSM   C10S10370   2.534   5.206   5.707  0.3318 -0.2699 -0.0969
  103OSM   H10S10371   2.497   5.125   5.641 -2.6270  1.1594 -0.3828
  103OSM   H10T10372   2.534   5.172   5.813 -0.0684  1.3101  0.4376
  103OSM   C11S10373   2.678   5.256   5.671 -0.0959  0.2162  0.5865
  103OSM   H11S10374   2.752   5.180   5.706 -0.4257  0.7271  2.5015
  103OSM   H11T10375   2.704   5.348   5.728  0.3959  0.5161 -0.0992
  103OSM   C12S10376   2.692   5.292   5.523  0.3416  0.1361  0.8828
  103OSM   H12S10377   2.800   5.312   5.504  0.1101 -0.6224 -1.5792
  103OSM   H12T10378   2.625   5.377   5.499 -1.4880 -1.0496  1.6003
  103OSM   C13S10379   2.652   5.182   5.427  0.2405 -0.0963 -0.3558
  103OSM   H13S10380   2.541   5.172   5.417  0.2087  0.4358 -0.5784
  103OSM   H13T10381   2.687   5.083   5.463 -0.5360 -0.0131  0.6949
  103OSM   C14S10382   2.707   5.188   5.283  0.1695  0.2038 -0.1358
  103OSM   H14S10383   2.666   5.096   5.236 -2.2303  1.0711  0.1574
  103OSM   H14T10384   2.818   5.183   5.285  0.1538  0.1219  0.8010
  103OSM   C15S10385   2.677   5.320   5.203  0.1554  0.1243  0.3985
  103OSM   H15S10386   2.735   5.403   5.249  2.0966 -0.0403 -1.5691
  103OSM   H15T10387   2.568   5.342   5.201  0.3933  1.3835  0.1766
  103OSM   C16S10388   2.745   5.310   5.063 -0.5252  0.8608  0.4379
  103OSM   H16S10389   2.836   5.249   5.081 -0.8040 -0.7256 -2.8893
  103OSM   H16T10390   2.774   5.413   5.032 -0.0779  1.6988  3.2705
  103OSM   C17S10391   2.668   5.227   4.961 -0.0585  0.6181  0.6277
  103OSM   H17S10392   2.679   5.118   4.981  0.5121  0.3002 -1.2062
  103OSM   H17T10393   2.715   5.233   4.861  1.1568 -0.8626  1.0811
  103OSM   C18S10394   2.519   5.262   4.938  0.1565  0.0538  0.7904
  103OSM   H18S10395   2.460   5.243   5.030  0.9256 -1.2941  1.0392
  103OSM   H18T10396   2.477   5.190   4.864 -1.1922  1.1429  0.4526
  103OSM   H18U10397   2.518   5.368   4.904  0.8036  0.2190  1.2515
  103OSM    C1F10398   2.305   4.894   5.932  0.2701 -0.0918  0.0303
  103OSM     OF10399   2.203   4.836   5.966 -0.2497  0.3766  0.2846
  103OSM    C2F10400   2.370   4.860   5.807 -0.7842  0.0104 -0.1196
  103OSM    H2F10401   2.380   4.749   5.803 -0.7971 -0.0827  1.6695
  103OSM    H2G10402   2.474   4.898   5.801 -0.0460 -0.9328  3.8007
  103OSM    C3F10403   2.291   4.913   5.680  0.0459 -0.0205 -0.2218
  103OSM    H3F10404   2.290   5.024   5.672 -1.1141 -0.1531 -3.2862
  103OSM    H3G10405   2.184   4.886   5.686 -0.3714  1.6241 -0.0396
  103OSM    C4F10406   2.366   4.869   5.549 -0.1722 -0.3497  0.5751
  103OSM    H4F10407   2.424   4.781   5.583  0.2471  0.1397  1.1444
  103OSM    H4G10408   2.439   4.949   5.521  1.0154 -1.6867 -0.3025
  103OSM    C5F10409   2.268   4.836   5.437  0.5629  0.0121  0.1438
  103OSM    H5F10410   2.197   4.757   5.469  1.3570 -0.8337 -0.1311
  103OSM    H5G10411   2.333   4.802   5.353  1.0164 -1.3525  1.0051
  103OSM    C6F10412   2.181   4.954   5.404  0.2858 -0.3951 -0.9237
  103OSM    H6F10413   2.123   4.991   5.491  2.1592  0.0714  0.1815
  103OSM    H6G10414   2.099   4.908   5.344 -0.6791  2.2029 -1.7150
  103OSM    C7F10415   2.256   5.076   5.355 -0.0478  0.4159  0.0362
  103OSM    H7F10416   2.302   5.050   5.257 -0.0376 -0.8557  0.3550
  103OSM    H7G10417   2.330   5.109   5.431  0.4189  1.2879 -0.7783
  103OSM    C8F10418   2.170   5.200   5.325 -0.2340  0.1366  0.2847
  103OSM    H8F10419   2.124   5.240   5.418 -0.2148 -0.6667  0.6466
  103OSM    H8G10420   2.086   5.170   5.259  0.3337  2.3862 -1.6082
  103OSM    C9F10421   2.253   5.304   5.257 -0.0549  0.4827 -0.4906
  103OSM    H9F10422   2.344   5.343   5.304 -0.0429  1.1049 -1.0227
  103OSM   C10F10423   2.235   5.342   5.129 -0.7617 -0.0880 -0.3126
  103OSM   H10F10424   2.302   5.420   5.090 -0.6045  0.1164  0.3407
  103OSM   C11F10425   2.130   5.316   5.030 -0.0044 -0.2252 -0.3401
  103OSM   H11F10426   2.090   5.213   5.038 -0.8359  0.0018 -1.3276
  103OSM   H11G10427   2.158   5.319   4.922  0.7347  0.9474 -0.1342
  103OSM   C12F10428   2.017   5.415   5.061 -0.7593 -0.0330 -0.0323
  103OSM   H12F10429   1.991   5.426   5.168  1.1256  2.0149  0.2867
  103OSM   H12G10430   1.937   5.369   4.999 -1.0699  0.9102 -0.3616
  103OSM   C13F10431   2.036   5.566   5.003 -0.2833 -0.3338  0.2962
  103OSM   H13F10432   2.140   5.603   5.018 -0.1976  0.1446 -1.3656
  103OSM   H13G10433   1.976   5.635   5.066  1.0141 -0.5436  1.8609
  103OSM   C14F10434   2.015   5.568   4.851  0.2647  0.0956 -0.1875
  103OSM   H14F10435   1.919   5.516   4.828  0.1910  0.2018 -0.1242
  103OSM   H14G10436   2.106   5.522   4.808 -0.2716  0.4361 -1.7680
  103OSM   C15F10437   2.020   5.702   4.782  0.0323 -0.1695  0.4811
  103OSM   H15F10438   2.101   5.768   4.820 -1.1196  2.0952 -0.7965
  103OSM   H15G10439   1.922   5.754   4.788 -0.6704 -1.0069 -2.1831
  103OSM   C16F10440   2.031   5.687   4.629 -0.4679  0.3962  0.0774
  103OSM   H16F10441   1.949   5.624   4.588 -1.4834  2.5138 -1.3318
  103OSM   H16G10442   2.127   5.632   4.619 -1.0418 -0.5826 -0.1575
  103OSM   C17F10443   2.033   5.820   4.550 -0.5269  0.0420 -0.4296
  103OSM   H17F10444   2.098   5.812   4.460  2.6348  0.0413  1.6794
  103OSM   H17G10445   2.069   5.904   4.613  0.0855  0.3196 -1.1249
  103OSM   C18F10446   1.897   5.854   4.494  0.1908  0.3067  0.2013
  103OSM   H18F10447   1.807   5.861   4.559 -1.7090 -2.1608 -1.8863
  103OSM   H18G10448   1.864   5.770   4.428 -0.2278  0.8129 -0.2429
  103OSM   H18H10449   1.905   5.947   4.434 -0.3981  0.2863  0.0786
  104OSM      N10450   4.089   2.791   6.733  0.1746  0.1437 -0.0668
  104OSM    C1510451   4.009   2.849   6.850  0.2813 -0.0573 -0.4307
  104OSM   H15A10452   3.931   2.781   6.882  1.2828 -1.2503 -0.4967
  104OSM   H15B10453   3.954   2.939   6.827  1.0587  0.9759  1.5001
  104OSM   H15C10454   4.075   2.861   6.935  2.3388  0.1986 -1.9948
  104OSM    C1410455   3.994   2.756   6.628 -1.1235  0.1041 -0.1547
  104OSM   H14A10456   3.914   2.696   6.667 -3.0490  2.1324 -0.7913
  104OSM   H14B10457   4.046   2.697   6.553  0.1412 -2.6271  2.6699
  104OSM   H14C10458   3.954   2.850   6.592  2.6317  1.9714  0.0845
  104OSM    C1310459   4.184   2.901   6.687  0.9826  0.5365 -0.3456
  104OSM   H13A10460   4.249   2.927   6.769  2.3637 -3.5720  0.1038
  104OSM   H13B10461   4.121   2.985   6.661 -0.8291 -0.2688  1.1283
  104OSM   H13C10462   4.246   2.861   6.608 -0.2307 -1.7588 -0.2429
  104OSM    C1210463   4.177   2.675   6.783 -0.1919 -0.4688 -0.0193
  104OSM   H12A10464   4.111   2.634   6.857  0.0893 -1.1954 -0.1616
  104OSM   H12B10465   4.261   2.723   6.831 -2.5965  0.8210  3.2313
  104OSM    C1110466   4.206   2.564   6.681  0.8754 -0.6253  0.3202
  104OSM   H11A10467   4.113   2.528   6.632  0.7161 -2.2061  1.6986
  104OSM   H11B10468   4.243   2.473   6.732 -0.5064 -0.6790  1.2618
  104OSM      P10469   4.449   2.639   6.642  0.4398 -0.0973 -0.3536
  104OSM    O1310470   4.486   2.781   6.613 -0.4973 -0.0093  0.0855
  104OSM    O1410471   4.457   2.599   6.784  0.0573  0.0565 -0.1717
  104OSM    O1110472   4.537   2.546   6.556  0.6526  0.7423 -0.2858
  104OSM    O1210473   4.299   2.616   6.582  0.2601  0.0886 -0.1990
  104OSM    C1S10474   4.540   2.554   6.414  0.1745 -0.7296 -0.9289
  104OSM    H1S10475   4.487   2.644   6.377 -1.8291 -0.5140  2.0937
  104OSM    H1T10476   4.497   2.464   6.364  0.9525 -0.7020 -1.6633
  104OSM     NF10477   4.678   2.551   6.207 -0.0052  0.4229 -0.4395
  104OSM    HNF10478   4.719   2.488   6.142  1.6595  1.3414 -0.3632
  104OSM    C2S10479   4.686   2.551   6.355 -0.3901  0.2604  0.8706
  104OSM    H2S10480   4.734   2.649   6.378 -0.2964  0.3788  0.1752
  104OSM    C3S10481   4.772   2.441   6.416 -0.7774 -0.1575 -0.3293
  104OSM    H3S10482   4.718   2.347   6.391 -1.2603 -0.0664  0.3384
  104OSM     O310483   4.779   2.447   6.561  0.2431 -0.0259 -0.7992
  104OSM    HO310484   4.713   2.517   6.570  0.4201  0.0044  0.3603
  104OSM    C4S10485   4.912   2.447   6.367 -0.3216  0.3266 -0.1717
  104OSM    H4S10486   4.979   2.533   6.381 -0.1051 -0.1639  2.1750
  104OSM    C5S10487   4.967   2.341   6.307 -0.6548 -0.0889  0.4843
  104OSM    H5S10488   4.912   2.248   6.286 -1.8306  0.8280 -0.6572
  104OSM    C6S10489   5.095   2.344   6.231 -0.5569 -0.6927  0.1469
  104OSM    H6S10490   5.076   2.349   6.122  2.6850 -0.3344 -0.4908
  104OSM    H6T10491   5.137   2.242   6.240 -0.6310 -0.8746 -1.2997
  104OSM    C7S10492   5.191   2.459   6.258 -0.6786  1.2295 -0.5770
  104OSM    H7S10493   5.239   2.448   6.357  0.7143 -0.1223 -1.3565
  104OSM    H7T10494   5.155   2.564   6.253 -1.0856  1.0350 -2.7719
  104OSM    C8S10495   5.296   2.462   6.150  0.6795  0.3413  0.4365
  104OSM    H8S10496   5.304   2.364   6.098  1.6441  1.6796 -2.1532
  104OSM    H8T10497   5.393   2.492   6.193 -0.2889  0.9016  2.3315
  104OSM    C9S10498   5.257   2.564   6.038  1.0491  0.8562 -1.0399
  104OSM    H9S10499   5.224   2.656   6.091  1.8223  0.7193 -0.3041
  104OSM    H9T10500   5.168   2.528   5.983 -2.0049  3.6361  1.6597
  104OSM   C10S10501   5.367   2.611   5.946  0.4528  0.2994 -0.2586
  104OSM   H10S10502   5.459   2.556   5.974 -1.8747 -1.8964  4.2791
  104OSM   H10T10503   5.368   2.718   5.975 -1.9328 -0.1456  1.9236
  104OSM   C11S10504   5.346   2.600   5.792 -0.3060 -0.6936  0.6962
  104OSM   H11S10505   5.305   2.498   5.775  1.1506 -1.4607  1.6217
  104OSM   H11T10506   5.437   2.625   5.734 -1.7278 -1.1959 -1.8665
  104OSM   C12S10507   5.231   2.688   5.758  0.0800 -0.7600  0.4037
  104OSM   H12S10508   5.259   2.790   5.792  2.7365 -0.9286 -1.0010
  104OSM   H12T10509   5.140   2.646   5.807 -0.4458 -2.1398 -1.6179
  104OSM   C13S10510   5.187   2.703   5.611  0.2445 -0.5259 -0.1198
  104OSM   H13S10511   5.101   2.773   5.611  1.2733  0.8790  2.2864
  104OSM   H13T10512   5.153   2.603   5.578  0.9591 -0.7644 -0.1437
  104OSM   C14S10513   5.292   2.749   5.514 -0.2327  0.5387  0.4880
  104OSM   H14S10514   5.361   2.662   5.504  0.2487  1.1061 -1.7484
  104OSM   H14T10515   5.362   2.821   5.561  0.4543  0.3884 -0.2656
  104OSM   C15S10516   5.235   2.793   5.377 -0.1296 -0.4286 -0.3600
  104OSM   H15S10517   5.320   2.817   5.310 -0.8707  0.1763 -1.1027
  104OSM   H15T10518   5.174   2.884   5.397  1.4405  1.4161 -3.3124
  104OSM   C16S10519   5.137   2.710   5.296 -0.0272 -0.1187  0.5347
  104OSM   H16S10520   5.045   2.700   5.356 -0.8496  3.6367  0.1455
  104OSM   H16T10521   5.168   2.605   5.277  1.7344 -0.0227  2.4901
  104OSM   C17S10522   5.085   2.787   5.172 -0.8469 -0.0313 -0.3092
  104OSM   H17S10523   5.063   2.891   5.206 -1.9138 -0.3202 -0.0768
  104OSM   H17T10524   4.992   2.739   5.135 -1.7575  0.8579  0.7327
  104OSM   C18S10525   5.180   2.795   5.053 -0.3571  0.4513  0.3106
  104OSM   H18S10526   5.212   2.694   5.020  0.1399  0.4007  0.9239
  104OSM   H18T10527   5.269   2.855   5.082  0.2032  1.0350 -2.3928
  104OSM   H18U10528   5.130   2.844   4.967 -0.2652  1.1876  0.6656
  104OSM    C1F10529   4.620   2.661   6.148 -0.1407 -0.3702 -0.2123
  104OSM     OF10530   4.603   2.769   6.205 -0.0875  0.1472 -0.6392
  104OSM    C2F10531   4.571   2.639   6.007 -0.6951  0.0292 -0.0522
  104OSM    H2F10532   4.470   2.682   5.992 -1.4394 -1.4454  0.5178
  104OSM    H2G10533   4.575   2.529   5.991 -1.6887 -0.0614  0.2986
  104OSM    C3F10534   4.671   2.698   5.905 -0.2296  0.6483 -0.4413
  104OSM    H3F10535   4.776   2.673   5.932 -0.9574 -1.1902  0.9816
  104OSM    H3G10536   4.658   2.808   5.906 -1.1723  0.5494  0.5428
  104OSM    C4F10537   4.650   2.642   5.763 -0.2011 -0.4704  0.1444
  104OSM    H4F10538   4.660   2.531   5.772 -0.3912 -0.6075 -1.2009
  104OSM    H4G10539   4.730   2.665   5.690 -0.5210  1.5982  0.3974
  104OSM    C5F10540   4.526   2.701   5.699  0.8590  0.1449 -0.2798
  104OSM    H5F10541   4.544   2.811   5.702  2.3399 -0.0873  2.1051
  104OSM    H5G10542   4.439   2.682   5.766 -0.3508 -1.6157 -2.2618
  104OSM    C6F10543   4.509   2.645   5.559 -0.6786  0.2909  0.1421
  104OSM    H6F10544   4.486   2.537   5.569  1.0039  0.0523  2.0864
  104OSM    H6G10545   4.605   2.641   5.503 -0.8602  0.4995 -0.1908
  104OSM    C7F10546   4.416   2.727   5.463 -0.8014  0.0095 -0.5079
  104OSM    H7F10547   4.452   2.829   5.438  0.2805  0.5463  2.6818
  104OSM    H7G10548   4.333   2.748   5.533 -0.0755  0.1318  0.3477
  104OSM    C8F10549   4.373   2.653   5.338 -0.6535 -0.1285 -0.0828
  104OSM    H8F10550   4.323   2.727   5.271 -0.5218  1.1496  1.1815
  104OSM    H8G10551   4.301   2.581   5.382  0.7330 -0.6064  1.4825
  104OSM    C9F10552   4.479   2.576   5.262  1.2820  0.1676  0.3040
  104OSM    H9F10553   4.556   2.510   5.306 -0.6618 -1.8739  0.7800
  104OSM   C10F10554   4.494   2.594   5.132  0.7029  0.3810 -0.5623
  104OSM   H10F10555   4.582   2.542   5.091 -1.2660 -0.8842 -3.5694
  104OSM   C11F10556   4.426   2.681   5.031 -0.1400  0.6844 -1.0059
  104OSM   H11F10557   4.481   2.777   5.039  1.1015 -0.1531  1.2238
  104OSM   H11G10558   4.320   2.703   5.057 -0.7850 -1.0082 -1.9832
  104OSM   C12F10559   4.433   2.614   4.902  0.0346 -0.6683 -0.3890
  104OSM   H12F10560   4.534   2.571   4.885  0.1162 -0.9806  0.8193
  104OSM   H12G10561   4.420   2.681   4.814  1.9244 -0.6429 -0.7050
  104OSM   C13F10562   4.328   2.500   4.896 -0.0113  0.0103 -0.0464
  104OSM   H13F10563   4.228   2.537   4.927  0.4041  1.8174 -0.7489
  104OSM   H13G10564   4.362   2.419   4.964  0.2841 -0.7276 -1.0531
  104OSM   C14F10565   4.328   2.430   4.763  0.3497  0.0920  0.4766
  104OSM   H14F10566   4.414   2.360   4.752  0.5081  0.5960 -2.3105
  104OSM   H14G10567   4.339   2.500   4.677 -0.1850 -0.1466  0.2080
  104OSM   C15F10568   4.198   2.349   4.742  0.0779  0.0779  0.2610
  104OSM   H15F10569   4.120   2.425   4.722 -0.2125 -0.3272 -0.1599
  104OSM   H15G10570   4.180   2.295   4.837  0.3168 -0.1596  0.1724
  104OSM   C16F10571   4.211   2.254   4.622  0.0738  0.1918  0.1903
  104OSM   H16F10572   4.281   2.171   4.641 -3.5380 -3.5251 -1.2253
  104OSM   H16G10573   4.237   2.313   4.531  1.6841  1.2487  1.2820
  104OSM   C17F10574   4.076   2.180   4.605 -0.2500  0.3600 -0.3520
  104OSM   H17F10575   3.987   2.246   4.607 -1.9213 -1.7846 -0.2212
  104OSM   H17G10576   4.075   2.119   4.698  1.4197  1.6338  0.5603
  104OSM   C18F10577   4.064   2.092   4.473 -0.2384 -0.2056 -0.0223
  104OSM   H18F10578   3.986   2.014   4.484 -0.6146  0.0652 -0.6773
  104OSM   H18G10579   4.157   2.032   4.467  0.2754  0.4919  0.7311
  104OSM   H18H10580   4.041   2.162   4.390 -1.0041 -1.1509 -0.6219
  105OSM      N10581   5.793   2.790   7.017  0.2983  0.1441 -0.2534
  105OSM    C1510582   5.803   2.639   7.017  0.2040 -0.2173  0.2413
  105OSM   H15A10583   5.857   2.604   6.930 -1.4153 -4.3134  0.6706
  105OSM   H15B10584   5.706   2.593   7.012  0.0388  0.2076 -0.7067
  105OSM   H15C10585   5.866   2.617   7.102  1.2201  2.1032  0.1735
  105OSM    C1410586   5.697   2.817   7.133 -0.1068 -0.7043 -0.0814
  105OSM   H14A10587   5.611   2.755   7.115  1.4335 -2.3344 -2.4281
  105OSM   H14B10588   5.662   2.919   7.144  0.0137 -0.9095  3.4491
  105OSM   H14C10589   5.751   2.786   7.222 -0.4845  0.3745  0.5482
  105OSM    C1310590   5.922   2.856   7.047  0.1160 -0.2554  0.5155
  105OSM   H13A10591   6.014   2.815   7.007 -1.0285  0.0837 -2.7835
  105OSM   H13B10592   5.941   2.868   7.152 -0.5758  0.4823  0.5722
  105OSM   H13C10593   5.914   2.958   7.011 -2.2185 -0.4588  0.2735
  105OSM    C1210594   5.734   2.842   6.883 -0.2807  0.1829  0.2921
  105OSM   H12A10595   5.712   2.947   6.891  2.0354  0.6631  1.0957
  105OSM   H12B10596   5.638   2.796   6.863 -0.1556  0.4990 -1.1831
  105OSM    C1110597   5.811   2.817   6.751 -0.7271  0.2358 -0.5354
  105OSM   H11A10598   5.909   2.867   6.768 -0.3167 -1.0662  1.3043
  105OSM   H11B10599   5.759   2.873   6.671 -0.4683 -0.1353 -0.9706
  105OSM      P10600   5.700   2.594   6.667 -0.1330  0.8152 -0.3000
  105OSM    O1310601   5.735   2.451   6.676 -0.4853 -0.1798 -0.4322
  105OSM    O1410602   5.571   2.637   6.723 -0.0736  0.2848 -0.3754
  105OSM    O1110603   5.699   2.630   6.523  0.4792  0.5193 -0.3753
  105OSM    O1210604   5.827   2.675   6.717 -0.3428  0.1147  0.4121
  105OSM    C1S10605   5.777   2.571   6.412  0.6563  0.2138 -0.3843
  105OSM    H1S10606   5.799   2.462   6.414 -1.0557 -0.1503  0.8797
  105OSM    H1T10607   5.875   2.623   6.401 -0.3139  2.1408 -0.2276
  105OSM     NF10608   5.769   2.547   6.159 -0.3273 -0.0940 -0.4208
  105OSM    HNF10609   5.846   2.597   6.120 -1.8856  0.8430 -2.4450
  105OSM    C2S10610   5.708   2.611   6.273 -0.1599  0.1313 -0.2154
  105OSM    H2S10611   5.605   2.569   6.275 -0.7610  1.5361 -0.5433
  105OSM    C3S10612   5.722   2.766   6.259 -0.1605  0.3052  0.1048
  105OSM    H3S10613   5.827   2.777   6.227 -0.6037 -1.6131 -2.3452
  105OSM     O310614   5.709   2.840   6.380 -0.4168 -0.5887 -0.1481
  105OSM    HO310615   5.717   2.773   6.448  2.5214  0.6231  0.8859
  105OSM    C4S10616   5.629   2.833   6.158 -0.2162 -0.2949 -0.3468
  105OSM    H4S10617   5.521   2.834   6.179 -0.1288  2.9009  0.5036
  105OSM    C5S10618   5.672   2.893   6.045  0.8819 -0.7818  0.1636
  105OSM    H5S10619   5.780   2.883   6.030  0.8132 -0.5458 -0.5262
  105OSM    C6S10620   5.586   2.967   5.937  0.3038  0.5035 -0.5398
  105OSM    H6S10621   5.592   3.076   5.957 -2.8047  0.9367 -1.4561
  105OSM    H6T10622   5.478   2.944   5.924  0.4628  0.6647 -2.4603
  105OSM    C7S10623   5.650   2.946   5.797  0.1663  0.3908 -1.2200
  105OSM    H7S10624   5.614   2.850   5.755 -0.9624 -0.7592  2.0193
  105OSM    H7T10625   5.760   2.944   5.807  0.2772  0.5357 -2.3443
  105OSM    C8S10626   5.604   3.058   5.698 -0.6252  0.8694  0.2112
  105OSM    H8S10627   5.620   3.154   5.751  1.2504 -0.2689  1.8611
  105OSM    H8T10628   5.497   3.038   5.678  0.2400 -2.7757 -1.5734
  105OSM    C9S10629   5.681   3.062   5.564  0.1122 -0.3807  0.0921
  105OSM    H9S10630   5.651   2.974   5.504 -2.4160  1.6041 -1.7686
  105OSM    H9T10631   5.791   3.066   5.581 -0.0670 -1.9548  1.8808
  105OSM   C10S10632   5.644   3.187   5.478 -0.0576  0.4342 -0.2733
  105OSM   H10S10633   5.648   3.282   5.534 -1.3188 -0.1076  0.7984
  105OSM   H10T10634   5.538   3.180   5.442  0.0112  0.7140 -0.5361
  105OSM   C11S10635   5.734   3.183   5.352 -0.0929  0.4102  0.5749
  105OSM   H11S10636   5.712   3.091   5.294 -0.5931  0.8594  0.0441
  105OSM   H11T10637   5.837   3.179   5.395 -0.5339 -0.4732  1.5857
  105OSM   C12S10638   5.722   3.300   5.270  0.0692  0.0395 -0.1691
  105OSM   H12S10639   5.745   3.388   5.335  1.4304  0.9625 -1.8082
  105OSM   H12T10640   5.621   3.320   5.230 -0.3299 -0.2275  0.6846
  105OSM   C13S10641   5.836   3.298   5.172  0.0034  0.1327 -0.0617
  105OSM   H13S10642   5.845   3.202   5.118 -2.1489 -0.5487  0.6609
  105OSM   H13T10643   5.926   3.317   5.235 -0.9497 -0.1605  1.4378
  105OSM   C14S10644   5.839   3.402   5.056  0.7046  0.0913  0.5787
  105OSM   H14S10645   5.936   3.407   5.001  0.4195  0.9283  0.1348
  105OSM   H14T10646   5.834   3.505   5.096 -1.8337  0.3866 -0.3491
  105OSM   C15S10647   5.738   3.368   4.941  0.1366 -0.7330  0.7778
  105OSM   H15S10648   5.641   3.402   4.984  0.4299 -1.1129  1.7744
  105OSM   H15T10649   5.743   3.259   4.921  2.1525 -0.7284  1.0810
  105OSM   C16S10650   5.777   3.441   4.820 -0.2840 -0.0121  0.0438
  105OSM   H16S10651   5.876   3.412   4.779 -0.2451 -0.2720  0.3233
  105OSM   H16T10652   5.775   3.548   4.850  3.8856  0.7307 -1.6295
  105OSM   C17S10653   5.680   3.421   4.694 -0.4830 -0.5765 -0.7725
  105OSM   H17S10654   5.695   3.514   4.636  1.5785  0.2246  0.9238
  105OSM   H17T10655   5.581   3.421   4.744 -0.3183  0.5936 -0.4214
  105OSM   C18S10656   5.712   3.299   4.611  0.1951 -0.0565  0.4346
  105OSM   H18S10657   5.649   3.212   4.639  3.2061 -2.4610  0.2389
  105OSM   H18T10658   5.814   3.260   4.629  0.4608 -0.0647 -0.9746
  105OSM   H18U10659   5.696   3.322   4.504  0.3349 -0.1505  0.3936
  105OSM    C1F10660   5.751   2.420   6.118 -0.3885 -0.5234  0.3047
  105OSM     OF10661   5.669   2.345   6.167  0.3635  0.2845 -0.1151
  105OSM    C2F10662   5.839   2.356   6.008  0.2391  0.1999 -0.5769
  105OSM    H2F10663   5.859   2.253   6.042  0.3226  0.2445 -0.4914
  105OSM    H2G10664   5.932   2.417   6.008 -0.2356  0.9520  0.1003
  105OSM    C3F10665   5.774   2.341   5.872  0.0879  0.2013  0.2607
  105OSM    H3F10666   5.682   2.279   5.882 -0.2760  0.5853 -0.5984
  105OSM    H3G10667   5.841   2.271   5.818 -0.3057  0.7925 -1.0333
  105OSM    C4F10668   5.752   2.468   5.783  0.5306  0.6730  0.2988
  105OSM    H4F10669   5.840   2.535   5.792  1.5806 -0.6156  0.0926
  105OSM    H4G10670   5.661   2.517   5.822 -0.1329 -2.1411  2.6858
  105OSM    C5F10671   5.743   2.428   5.635 -0.0708  0.3039 -0.1507
  105OSM    H5F10672   5.653   2.368   5.613  0.8753 -0.8007 -1.2056
  105OSM    H5G10673   5.824   2.361   5.597  0.7691  0.9578  0.4444
  105OSM    C6F10674   5.740   2.559   5.543  0.2897 -0.3301 -0.0605
  105OSM    H6F10675   5.826   2.622   5.573 -0.1041  1.0722 -1.7472
  105OSM    H6G10676   5.645   2.611   5.569  0.7757  0.1972  0.7161
  105OSM    C7F10677   5.729   2.524   5.395 -0.1289  0.2916 -0.4289
  105OSM    H7F10678   5.634   2.467   5.382 -0.5118  0.0525  2.5336
  105OSM    H7G10679   5.813   2.461   5.360 -0.4842 -0.4002 -0.0609
  105OSM    C8F10680   5.705   2.654   5.302 -0.0001 -0.8410  0.3596
  105OSM    H8F10681   5.599   2.686   5.309  0.3986  0.0894  3.0732
  105OSM    H8G10682   5.720   2.614   5.199  1.7316 -1.7582  0.9343
  105OSM    C9F10683   5.805   2.754   5.326  0.3170 -0.6511 -0.0079
  105OSM    H9F10684   5.768   2.836   5.389  2.3988  0.5027 -0.1561
  105OSM   C10F10685   5.929   2.766   5.278 -0.4237 -0.6306  0.3698
  105OSM   H10F10686   5.990   2.850   5.316 -1.1753  0.3190 -0.4762
  105OSM   C11F10687   5.998   2.669   5.188 -0.4639  0.2821  0.1728
  105OSM   H11F10688   5.929   2.601   5.133  2.1494 -0.6421 -2.2359
  105OSM   H11G10689   6.066   2.594   5.234  0.7649  1.3402  0.1513
  105OSM   C12F10690   6.074   2.752   5.085 -0.6836 -0.6205  1.0878
  105OSM   H12F10691   6.118   2.683   5.010 -0.8575  0.7712 -0.3268
  105OSM   H12G10692   6.154   2.812   5.135  0.6562 -0.6985 -0.8593
  105OSM   C13F10693   5.984   2.850   5.000  0.4474  0.0398  0.2774
  105OSM   H13F10694   5.969   2.939   5.065  0.2279 -0.2215  0.5895
  105OSM   H13G10695   5.892   2.798   4.965 -0.7280  2.5064 -0.6088
  105OSM   C14F10696   6.051   2.907   4.877 -0.2559 -0.8213  0.0647
  105OSM   H14F10697   6.087   2.818   4.822  1.3274  0.0336 -0.3309
  105OSM   H14G10698   6.147   2.958   4.902 -1.5039  0.8444  1.7869
  105OSM   C15F10699   5.974   3.014   4.792  0.2297 -0.1776 -0.9138
  105OSM   H15F10700   5.943   3.098   4.859  1.9807 -1.0783  1.1377
  105OSM   H15G10701   5.878   2.977   4.750  0.5043 -1.9764 -0.0317
  105OSM   C16F10702   6.058   3.060   4.670 -0.1679 -0.2225 -0.7254
  105OSM   H16F10703   5.989   3.111   4.600 -0.2393 -0.3461 -0.7455
  105OSM   H16G10704   6.113   2.980   4.615  1.5553  2.7342 -3.6236
  105OSM   C17F10705   6.158   3.169   4.712 -0.4066  0.8194  0.5495
  105OSM   H17F10706   6.244   3.118   4.760 -0.3949 -0.3720 -0.6573
  105OSM   H17G10707   6.101   3.244   4.771 -1.2762  0.6557 -0.0688
  105OSM   C18F10708   6.218   3.232   4.584 -0.1298 -0.7525  0.1267
  105OSM   H18F10709   6.310   3.283   4.621 -0.8251 -0.1316  1.0596
  105OSM   H18G10710   6.147   3.310   4.550 -0.1530 -1.0920 -0.6281
  105OSM   H18H10711   6.237   3.148   4.514 -2.0783 -2.4977  1.5539
  106OSM      N10712   3.679   0.476   6.875  0.5542 -0.1297 -0.1295
  106OSM    C1510713   3.686   0.613   6.925 -0.2282 -0.4589 -0.6130
  106OSM   H15A10714   3.784   0.627   6.969 -0.7068 -2.1615  1.1296
  106OSM   H15B10715   3.619   0.639   7.006 -0.9134  0.4669 -1.4406
  106OSM   H15C10716   3.692   0.688   6.847  1.3766 -0.2869 -0.3541
  106OSM    C1410717   3.726   0.365   6.968  0.1335  0.5684  0.0826
  106OSM   H14A10718   3.693   0.264   6.949 -0.5846  0.4744  1.6788
  106OSM   H14B10719   3.699   0.392   7.069  0.6062  1.3089  0.0165
  106OSM   H14C10720   3.834   0.360   6.960 -0.0625 -2.1077 -2.4529
  106OSM    C1310721   3.532   0.449   6.856  0.5019  0.2303  0.2030
  106OSM   H13A10722   3.492   0.442   6.956  0.0276  0.4988  0.0361
  106OSM   H13B10723   3.521   0.355   6.803  0.5903  0.6843 -0.6273
  106OSM   H13C10724   3.478   0.523   6.799  1.1627 -0.0954 -0.8663
  106OSM    C1210725   3.756   0.464   6.753 -0.4076  0.1321  0.3113
  106OSM   H12A10726   3.705   0.522   6.678 -2.1911 -0.1352  1.2852
  106OSM   H12B10727   3.755   0.360   6.724 -3.8300  0.1702 -0.0675
  106OSM    C1110728   3.905   0.518   6.756  0.3563 -0.6073 -0.2478
  106OSM   H11A10729   3.976   0.465   6.689 -1.1870 -1.6152 -1.1490
  106OSM   H11B10730   3.936   0.488   6.858 -2.0082 -0.0281  0.7228
  106OSM      P10731   3.875   0.722   6.604 -0.0962 -0.4086  0.0919
  106OSM    O1310732   3.732   0.704   6.573  1.2558  0.3468 -0.0557
  106OSM    O1410733   3.931   0.857   6.602 -0.0541 -0.0884 -0.1339
  106OSM    O1110734   3.959   0.643   6.492  0.0391  0.7438 -0.1086
  106OSM    O1210735   3.913   0.660   6.743  0.3613 -0.0976 -0.3432
  106OSM    C1S10736   3.911   0.592   6.366 -0.0690  0.3238 -0.0042
  106OSM    H1S10737   3.859   0.674   6.310  0.6271  0.1743 -0.8853
  106OSM    H1T10738   3.830   0.519   6.390  0.5334 -0.0648  0.9052
  106OSM     NF10739   3.957   0.491   6.145  0.0673  0.2375 -0.4340
  106OSM    HNF10740   3.956   0.395   6.120  1.0031  0.3252 -0.8782
  106OSM    C2S10741   4.009   0.519   6.279 -0.3013 -0.4816  0.3748
  106OSM    H2S10742   4.090   0.591   6.255  0.1153 -1.0962 -0.1058
  106OSM    C3S10743   4.065   0.406   6.370  0.1858 -0.5450 -0.4816
  106OSM    H3S10744   3.980   0.344   6.406 -1.3453  2.5568  1.7388
  106OSM     O310745   4.121   0.456   6.493  0.2363  0.2272  0.1401
  106OSM    HO310746   4.091   0.547   6.502 -1.0810 -0.1584 -0.1536
  106OSM    C4S10747   4.158   0.311   6.297  0.1783 -0.1495 -0.4924
  106OSM    H4S10748   4.103   0.278   6.208  1.4783 -1.8765 -0.6999
  106OSM    C5S10749   4.298   0.315   6.299  0.0077  0.2474  0.0503
  106OSM    H5S10750   4.346   0.387   6.367 -0.0038 -0.1646  0.4962
  106OSM    C6S10751   4.391   0.244   6.203 -0.0398 -0.1479 -0.7976
  106OSM    H6S10752   4.445   0.164   6.258 -0.9806 -0.5186 -0.3779
  106OSM    H6T10753   4.465   0.319   6.168 -0.6460  0.7149 -0.2714
  106OSM    C7S10754   4.331   0.166   6.087  0.5717 -0.2856  0.0773
  106OSM    H7S10755   4.248   0.106   6.130  0.3885 -0.0004  0.1206
  106OSM    H7T10756   4.410   0.095   6.054  2.5466  1.6632  0.3653
  106OSM    C8S10757   4.290   0.250   5.967 -0.3593 -0.2207 -0.1669
  106OSM    H8S10758   4.383   0.271   5.909 -1.6538  2.6056 -1.4299
  106OSM    H8T10759   4.240   0.347   5.989 -2.1692 -1.0362 -0.5217
  106OSM    C9S10760   4.196   0.168   5.874  0.3679  0.5507 -0.2509
  106OSM    H9S10761   4.103   0.149   5.930  1.6073  2.3410  2.6160
  106OSM    H9T10762   4.249   0.072   5.856  1.1230  0.8899  0.1294
  106OSM   C10S10763   4.148   0.236   5.748  0.1653  0.2778  0.2623
  106OSM   H10S10764   4.140   0.345   5.767  0.5311  0.1515  1.2095
  106OSM   H10T10765   4.047   0.201   5.721  0.9447 -0.6248 -1.6382
  106OSM   C11S10766   4.248   0.205   5.636  0.3080 -0.0288 -0.7079
  106OSM   H11S10767   4.299   0.106   5.640  0.5698  0.1073 -0.5870
  106OSM   H11T10768   4.336   0.271   5.655  0.4317 -0.4399  0.2378
  106OSM   C12S10769   4.186   0.237   5.504  0.1223 -0.0750 -0.0244
  106OSM   H12S10770   4.145   0.340   5.495  0.6617  0.0791 -0.8295
  106OSM   H12T10771   4.099   0.168   5.492 -0.6949  0.7700  0.8369
  106OSM   C13S10772   4.286   0.214   5.395  0.9025 -0.6882 -0.0116
  106OSM   H13S10773   4.340   0.117   5.396  1.8641 -0.1662 -0.6012
  106OSM   H13T10774   4.365   0.290   5.404  0.3823 -0.1548  0.1172
  106OSM   C14S10775   4.224   0.229   5.255  0.2268 -0.2853 -0.0805
  106OSM   H14S10776   4.190   0.335   5.246 -1.0906 -0.7491 -0.9186
  106OSM   H14T10777   4.138   0.158   5.252 -1.9025  2.1266  0.1703
  106OSM   C15S10778   4.322   0.216   5.135  0.2017 -0.4554 -0.3216
  106OSM   H15S10779   4.360   0.111   5.129 -1.7452 -1.2240  0.1294
  106OSM   H15T10780   4.414   0.271   5.164 -0.0457 -1.3252  2.4262
  106OSM   C16S10781   4.258   0.241   5.001 -0.1081  0.6215  1.0123
  106OSM   H16S10782   4.238   0.349   4.984 -3.7377 -0.3636 -2.6476
  106OSM   H16T10783   4.167   0.178   4.991  0.0833  0.6602 -1.4086
  106OSM   C17S10784   4.351   0.210   4.882  0.3905  0.0610  0.3445
  106OSM   H17S10785   4.396   0.108   4.890 -0.8243 -1.2350 -5.3008
  106OSM   H17T10786   4.430   0.287   4.891  1.0149 -0.6928  1.8108
  106OSM   C18S10787   4.289   0.212   4.745  0.0406 -0.3066 -0.6794
  106OSM   H18S10788   4.361   0.213   4.660  0.7056 -1.6449 -0.1635
  106OSM   H18T10789   4.221   0.299   4.738  1.1256  0.7708  1.3546
  106OSM   H18U10790   4.235   0.115   4.740  1.9523 -1.3948 -1.1992
  106OSM    C1F10791   3.923   0.584   6.051 -0.4213 -0.2378 -0.2486
  106OSM     OF10792   3.898   0.702   6.082 -0.1946 -0.1878 -0.0476
  106OSM    C2F10793   3.910   0.538   5.912 -0.8648  0.1119  0.7047
  106OSM    H2F10794   3.801   0.526   5.893 -1.0416  2.3419  0.0512
  106OSM    H2G10795   3.958   0.441   5.888  0.6972  0.5465  1.8987
  106OSM    C3F10796   3.975   0.634   5.810  0.3588  0.2498 -0.1121
  106OSM    H3F10797   4.081   0.644   5.842 -0.0140 -0.4686  1.4569
  106OSM    H3G10798   3.931   0.735   5.828 -1.3777 -0.4414 -0.3075
  106OSM    C4F10799   3.959   0.590   5.668  0.0732 -0.1377 -0.7616
  106OSM    H4F10800   3.851   0.603   5.646  0.4474  1.0135 -2.1756
  106OSM    H4G10801   3.979   0.482   5.653 -1.1095 -0.5118  0.2447
  106OSM    C5F10802   4.025   0.679   5.565  0.1167  0.3063 -0.5229
  106OSM    H5F10803   4.131   0.648   5.563 -0.5232 -2.0509 -0.7332
  106OSM    H5G10804   4.014   0.784   5.600  1.1750 -0.4137  2.2286
  106OSM    C6F10805   3.968   0.651   5.420 -0.7808  0.3420 -0.2733
  106OSM    H6F10806   3.892   0.731   5.409 -0.6370  0.5926  0.4492
  106OSM    H6G10807   3.920   0.551   5.420 -0.9872  0.4203  1.0875
  106OSM    C7F10808   4.080   0.648   5.315  0.6223  0.4694  0.8583
  106OSM    H7F10809   4.152   0.565   5.333  0.9615  1.0394  2.2666
  106OSM    H7G10810   4.129   0.748   5.309 -1.6235  1.5544 -1.4374
  106OSM    C8F10811   4.026   0.610   5.170 -0.2092  0.3050  0.0920
  106OSM    H8F10812   3.974   0.511   5.170  2.4248 -1.1684 -0.2699
  106OSM    H8G10813   4.117   0.593   5.109 -0.3500 -2.9653  0.5747
  106OSM    C9F10814   3.948   0.720   5.099  0.5197 -0.0616 -0.2190
  106OSM    H9F10815   3.878   0.768   5.169  0.8954 -1.6583  1.3146
  106OSM   C10F10816   3.971   0.784   4.983  0.5611  0.1312  0.9471
  106OSM   H10F10817   3.906   0.868   4.956  0.4832 -0.4889 -0.9294
  106OSM   C11F10818   4.084   0.747   4.882  0.2591 -0.4416 -0.3948
  106OSM   H11F10819   4.137   0.651   4.901  0.6978  0.0818  1.2889
  106OSM   H11G10820   4.164   0.824   4.886  2.1175 -2.3161  0.9715
  106OSM   C12F10821   4.030   0.731   4.740  1.4356  0.1235  0.2050
  106OSM   H12F10822   3.999   0.832   4.706 -0.3230  0.5773  2.8179
  106OSM   H12G10823   3.944   0.663   4.756  0.2422  1.4108 -0.4588
  106OSM   C13F10824   4.133   0.682   4.644  0.2205  0.2489  0.2318
  106OSM   H13F10825   4.154   0.578   4.677  1.1615  0.3227 -0.1161
  106OSM   H13G10826   4.222   0.747   4.654  1.1968 -0.7708 -1.4466
  106OSM   C14F10827   4.078   0.692   4.496 -0.1778  0.6707 -0.8658
  106OSM   H14F10828   4.031   0.792   4.487 -2.4006  0.1609  2.9082
  106OSM   H14G10829   4.006   0.612   4.468 -1.7950  2.0718 -0.8698
  106OSM   C15F10830   4.198   0.698   4.394  0.0152 -0.5754 -0.4184
  106OSM   H15F10831   4.267   0.611   4.405  0.4164 -0.1486  0.5937
  106OSM   H15G10832   4.246   0.796   4.414 -3.1864  1.4923 -2.0135
  106OSM   C16F10833   4.141   0.711   4.256  0.2569  0.5031  1.0586
  106OSM   H16F10834   4.078   0.802   4.248 -0.8093 -0.3097 -0.2674
  106OSM   H16G10835   4.073   0.628   4.226 -0.5983  1.2904  0.7798
  106OSM   C17F10836   4.253   0.713   4.151  0.4353  0.0313 -0.0812
  106OSM   H17F10837   4.306   0.616   4.164 -0.5572 -0.3897  0.9727
  106OSM   H17G10838   4.312   0.799   4.188  1.1415 -0.7024  0.5440
  106OSM   C18F10839   4.199   0.736   4.006 -1.0479  0.4201  0.7341
  106OSM   H18F10840   4.289   0.748   3.941  0.4604  1.2845  2.8862
  106OSM   H18G10841   4.135   0.825   3.991 -0.1351  0.6192 -2.9058
  106OSM   H18H10842   4.151   0.640   3.977  0.9447 -0.7145  0.9380
  107OSM      N10843   3.578   5.225   6.687 -0.2307 -1.5075 -0.0433
  107OSM    C1510844   3.473   5.129   6.715 -0.2314  0.0392 -0.3246
  107OSM   H15A10845   3.387   5.154   6.654  0.3293  0.0383 -1.1299
  107OSM   H15B10846   3.450   5.125   6.820  0.7558  2.0783  0.0276
  107OSM   H15C10847   3.502   5.029   6.687  2.4269  0.1975  1.5854
  107OSM    C1410848   3.542   5.362   6.739  0.9527  0.1401 -0.2768
  107OSM   H14A10849   3.448   5.395   6.698 -0.3452 -1.8838  0.8300
  107OSM   H14B10850   3.613   5.437   6.709 -0.8533  0.9622 -2.8192
  107OSM   H14C10851   3.541   5.358   6.847 -0.3758  0.6022 -0.2604
  107OSM    C1310852   3.700   5.194   6.765 -0.3003 -0.5322  0.0654
  107OSM   H13A10853   3.685   5.197   6.872 -0.4435  0.0732  0.0316
  107OSM   H13B10854   3.779   5.257   6.727 -1.0566  0.7192  0.4925
  107OSM   H13C10855   3.726   5.090   6.753  0.4437 -0.2682 -0.7061
  107OSM    C1210856   3.608   5.228   6.543 -0.1400 -0.1492  0.4161
  107OSM   H12A10857   3.642   5.130   6.515 -2.7164 -0.4067 -2.2617
  107OSM   H12B10858   3.697   5.289   6.533  0.1733 -0.8172 -1.1225
  107OSM    C1110859   3.507   5.278   6.435 -0.0395 -0.4993 -1.4659
  107OSM   H11A10860   3.423   5.208   6.420  0.2831 -1.1983 -0.2318
  107OSM   H11B10861   3.560   5.288   6.338 -2.0021  1.0206 -2.4452
  107OSM      P10862   3.547   5.530   6.427  0.4178  0.4241  0.6990
  107OSM    O1310863   3.466   5.649   6.457 -0.3858  0.1674  0.3894
  107OSM    O1410864   3.676   5.528   6.491  0.0581 -0.5225  0.6449
  107OSM    O1110865   3.563   5.514   6.273 -0.5111 -0.1064  0.0260
  107OSM    O1210866   3.461   5.408   6.470 -0.3744  0.2837 -0.6078
  107OSM    C1S10867   3.456   5.568   6.191  0.4302 -0.0524 -0.6199
  107OSM    H1S10868   3.447   5.679   6.197  1.0523  0.0937 -1.9648
  107OSM    H1T10869   3.357   5.530   6.223 -0.1937  1.1648 -1.0183
  107OSM     NF10870   3.371   5.620   5.960 -0.2546 -0.4543 -0.1461
  107OSM    HNF10871   3.300   5.570   5.910  1.0330 -2.0697 -0.4429
  107OSM    C2S10872   3.481   5.549   6.038  0.7205 -0.1773 -0.0158
  107OSM    H2S10873   3.580   5.596   6.019  0.7656 -0.0535  0.5208
  107OSM    C3S10874   3.511   5.399   6.002  0.6964 -0.2205  0.7333
  107OSM    H3S10875   3.409   5.355   6.011  1.0071 -1.3106 -0.6843
  107OSM     O310876   3.599   5.322   6.083 -0.3447  0.3706 -0.2500
  107OSM    HO310877   3.600   5.363   6.170 -1.8987 -0.6439  0.2718
  107OSM    C4S10878   3.557   5.387   5.856 -0.1683 -0.1792  0.4530
  107OSM    H4S10879   3.479   5.343   5.792  0.5885 -0.3965 -0.3337
  107OSM    C5S10880   3.681   5.421   5.819 -0.2413 -0.2097  0.3580
  107OSM    H5S10881   3.751   5.468   5.890 -0.8982  0.0806  0.8235
  107OSM    C6S10882   3.730   5.407   5.671  0.4345  0.0001  0.1089
  107OSM    H6S10883   3.779   5.308   5.662 -0.0745 -0.1513 -1.4215
  107OSM    H6T10884   3.806   5.487   5.658 -1.1029  1.9570  2.4351
  107OSM    C7S10885   3.626   5.415   5.566  0.1932  0.5479  0.9357
  107OSM    H7S10886   3.552   5.495   5.587  0.7543  1.3572 -0.0972
  107OSM    H7T10887   3.573   5.318   5.554 -1.5410  1.5921 -0.4045
  107OSM    C8S10888   3.680   5.445   5.415 -0.4417 -0.0131  0.6559
  107OSM    H8S10889   3.741   5.537   5.432 -1.2196  0.5715  0.3293
  107OSM    H8T10890   3.599   5.461   5.341  0.5010  1.8096 -0.0494
  107OSM    C9S10891   3.775   5.328   5.376 -0.3486 -0.8642 -0.7299
  107OSM    H9S10892   3.722   5.230   5.372  2.1151 -2.3000 -0.3826
  107OSM    H9T10893   3.849   5.321   5.458  0.7319  2.6069 -1.2919
  107OSM   C10S10894   3.851   5.357   5.249  0.1370  0.6184 -0.8474
  107OSM   H10S10895   3.946   5.300   5.248 -1.3457 -2.0911  0.4756
  107OSM   H10T10896   3.875   5.465   5.244 -0.4581  0.8136  0.1956
  107OSM   C11S10897   3.777   5.317   5.124  0.4481 -0.6938 -0.4119
  107OSM   H11S10898   3.672   5.355   5.124  0.8088  0.5373 -3.1326
  107OSM   H11T10899   3.750   5.211   5.107 -2.3321  0.0164 -0.9840
  107OSM   C12S10900   3.845   5.370   4.992  0.4852 -0.4953 -0.1211
  107OSM   H12S10901   3.945   5.320   4.992 -0.8453 -3.3819 -0.0770
  107OSM   H12T10902   3.848   5.481   4.990 -0.2456 -0.4764 -1.1289
  107OSM   C13S10903   3.758   5.329   4.867  0.8886  0.5587 -0.1784
  107OSM   H13S10904   3.674   5.401   4.874  2.3623  2.2036  1.5317
  107OSM   H13T10905   3.725   5.224   4.878 -0.1890  1.0642  1.8583
  107OSM   C14S10906   3.851   5.337   4.740 -0.1637 -0.3636 -0.3657
  107OSM   H14S10907   3.937   5.268   4.755 -0.3291 -0.6947 -0.9255
  107OSM   H14T10908   3.899   5.437   4.739  2.2390 -1.2928  3.0692
  107OSM   C15S10909   3.778   5.289   4.610 -0.1826  1.0048 -0.3554
  107OSM   H15S10910   3.842   5.301   4.520 -0.8607  2.3880 -0.6812
  107OSM   H15T10911   3.681   5.342   4.596 -1.8548 -2.0164 -1.1233
  107OSM   C16S10912   3.753   5.138   4.623 -0.1173 -0.6235 -0.2694
  107OSM   H16S10913   3.664   5.118   4.686 -0.8479 -1.6940 -1.6079
  107OSM   H16T10914   3.840   5.092   4.675 -0.0058 -1.7665 -1.4284
  107OSM   C17S10915   3.729   5.063   4.493  0.2396  0.1714  0.8241
  107OSM   H17S10916   3.716   4.961   4.534  1.2683 -0.3840 -0.1779
  107OSM   H17T10917   3.811   5.072   4.418 -0.0619 -0.7631  0.3706
  107OSM   C18S10918   3.604   5.115   4.420  0.0247 -0.0541 -0.0642
  107OSM   H18S10919   3.568   5.043   4.343 -3.1266 -1.5066  2.4997
  107OSM   H18T10920   3.623   5.211   4.368 -2.0362  0.2548 -0.3363
  107OSM   H18U10921   3.518   5.132   4.489  0.0381  0.9976 -0.2932
  107OSM    C1F10922   3.379   5.755   5.956 -0.3060 -0.2333 -0.0588
  107OSM     OF10923   3.482   5.817   5.984  0.3457 -0.1200 -0.0504
  107OSM    C2F10924   3.258   5.835   5.897  0.0817 -0.1186  0.0681
  107OSM    H2F10925   3.207   5.880   5.985  1.7759  0.9164  0.5689
  107OSM    H2G10926   3.193   5.765   5.841  0.0867 -1.2220  1.4026
  107OSM    C3F10927   3.306   5.955   5.816  0.2054 -0.3646 -0.0965
  107OSM    H3F10928   3.397   6.007   5.854 -1.0284  1.1620  0.8986
  107OSM    H3G10929   3.226   6.031   5.827 -0.3344 -0.8014 -0.8573
  107OSM    C4F10930   3.330   5.912   5.667  0.1875  0.1805 -0.7596
  107OSM    H4F10931   3.337   6.007   5.610 -1.2455  0.3243 -0.7265
  107OSM    H4G10932   3.241   5.874   5.612  1.3338  0.0191 -2.6067
  107OSM    C5F10933   3.456   5.834   5.637 -0.0338  1.2052 -0.1348
  107OSM    H5F10934   3.431   5.726   5.644  1.3961  0.9029  0.7568
  107OSM    H5G10935   3.539   5.851   5.710 -1.2330 -0.0797  1.6134
  107OSM    C6F10936   3.506   5.847   5.494 -0.2842  0.2896 -0.8635
  107OSM    H6F10937   3.567   5.757   5.470  1.2100  1.3484 -1.1332
  107OSM    H6G10938   3.570   5.938   5.489 -0.6558  0.4797 -2.9895
  107OSM    C7F10939   3.393   5.855   5.387  0.9548 -0.8886  0.3183
  107OSM    H7F10940   3.339   5.950   5.401  2.6095  0.1496 -0.0615
  107OSM    H7G10941   3.326   5.767   5.401 -0.6633  0.0014 -1.5563
  107OSM    C8F10942   3.443   5.848   5.242  0.1378  0.3828  0.5885
  107OSM    H8F10943   3.508   5.938   5.233  0.0859  0.3580 -0.1416
  107OSM    H8G10944   3.358   5.868   5.173  0.5796  0.9145  0.1847
  107OSM    C9F10945   3.510   5.720   5.211  0.3814 -0.6696 -0.2751
  107OSM    H9F10946   3.474   5.630   5.264 -2.3968 -0.0324 -0.8916
  107OSM   C10F10947   3.614   5.703   5.122 -0.0857 -0.7122 -0.2425
  107OSM   H10F10948   3.643   5.600   5.098 -0.1840 -0.4643 -1.4849
  107OSM   C11F10949   3.673   5.811   5.035  0.5110  0.0330  1.0032
  107OSM   H11F10950   3.775   5.839   5.069  0.3264  2.6546 -0.3101
  107OSM   H11G10951   3.612   5.904   5.027 -0.8637 -0.7595  2.0662
  107OSM   C12F10952   3.691   5.775   4.889  1.0654 -0.5790 -0.4018
  107OSM   H12F10953   3.744   5.678   4.875  0.8942 -0.5857 -1.0362
  107OSM   H12G10954   3.755   5.854   4.844  0.5420 -0.7444 -1.4958
  107OSM   C13F10955   3.553   5.780   4.822 -0.1929  0.0108  0.0356
  107OSM   H13F10956   3.527   5.884   4.792 -2.9314 -0.3638  0.8213
  107OSM   H13G10957   3.474   5.770   4.900 -0.4554  0.6030 -0.1496
  107OSM   C14F10958   3.533   5.676   4.712  0.4701 -1.1970 -0.3588
  107OSM   H14F10959   3.575   5.576   4.739  3.4058 -0.4055 -1.5612
  107OSM   H14G10960   3.608   5.705   4.635  0.3297  0.1472 -0.0170
  107OSM   C15F10961   3.388   5.667   4.668  0.2114 -0.5553 -0.2111
  107OSM   H15F10962   3.348   5.769   4.649  0.7448 -0.5064 -1.1268
  107OSM   H15G10963   3.326   5.624   4.749 -4.5005 -1.0173 -3.6841
  107OSM   C16F10964   3.367   5.581   4.546  0.7527 -0.2404 -0.2217
  107OSM   H16F10965   3.427   5.620   4.461  1.6568  2.6829  1.6184
  107OSM   H16G10966   3.264   5.606   4.512  0.3748 -1.4744 -0.0405
  107OSM   C17F10967   3.374   5.432   4.554 -0.2800  0.2669 -0.0781
  107OSM   H17F10968   3.470   5.418   4.606 -0.3421  0.9845  0.2355
  107OSM   H17G10969   3.373   5.392   4.450  0.3413 -1.4802  0.5668
  107OSM   C18F10970   3.265   5.367   4.635  0.2506 -0.3979 -0.3410
  107OSM   H18F10971   3.164   5.392   4.597  0.4530 -0.7324 -1.1099
  107OSM   H18G10972   3.280   5.415   4.734  0.8478  1.5515 -1.3208
  107OSM   H18H10973   3.271   5.256   4.627  0.9562 -0.4292  0.4340
  108OSM      N10974   4.622   5.250   6.500 -0.4243  0.7544 -0.3153
  108OSM    C1510975   4.560   5.116   6.453 -0.5247 -0.0540 -0.6131
  108OSM   H15A10976   4.591   5.044   6.527 -0.6337  1.5808  1.0768
  108OSM   H15B10977   4.591   5.085   6.354 -1.2740  1.5650 -1.3854
  108OSM   H15C10978   4.453   5.126   6.454 -0.6652 -1.3365 -0.2428
  108OSM    C1410979   4.532   5.349   6.435 -0.1536  0.0671  0.6806
  108OSM   H14A10980   4.556   5.451   6.461 -0.6907 -0.2401  2.5289
  108OSM   H14B10981   4.429   5.344   6.469 -0.4646  3.0356  0.4491
  108OSM   H14C10982   4.524   5.329   6.329 -2.7822 -0.9239  0.9808
  108OSM    C1310983   4.635   5.262   6.647 -0.3173  0.4058  0.3835
  108OSM   H13A10984   4.541   5.271   6.699  0.4493 -0.0594  1.9132
  108OSM   H13B10985   4.698   5.345   6.673  0.1891 -0.1198  0.8788
  108OSM   H13C10986   4.691   5.175   6.679 -0.0623  1.3889  2.7843
  108OSM    C1210987   4.759   5.262   6.443 -0.0942 -0.1645 -0.7091
  108OSM   H12A10988   4.745   5.238   6.339 -0.4666  2.7601 -1.4096
  108OSM   H12B10989   4.833   5.200   6.493  2.1942  1.9438 -1.2488
  108OSM    C1110990   4.826   5.399   6.447  0.3143  0.0475 -0.1986
  108OSM   H11A10991   4.767   5.476   6.394 -0.1820 -0.1262  0.0918
  108OSM   H11B10992   4.922   5.397   6.390 -0.0834 -0.8157 -0.8545
  108OSM      P10993   4.821   5.577   6.642  0.1789  0.3361 -0.2332
  108OSM    O1310994   4.675   5.574   6.670 -0.2457  0.7579 -0.0610
  108OSM    O1410995   4.909   5.616   6.754  0.0303 -0.0010  0.0440
  108OSM    O1110996   4.842   5.680   6.524 -0.2504  0.5136  0.4171
  108OSM    O1210997   4.870   5.438   6.579 -0.0112 -0.3075 -0.0494
  108OSM    C1S10998   4.971   5.721   6.485 -0.5892  0.3157 -0.2331
  108OSM    H1S10999   5.026   5.629   6.453 -1.7957  0.5602 -3.3437
  108OSM    H1T11000   5.029   5.774   6.564  0.2880 -0.8663 -0.0403
  108OSM     NF11001   5.106   5.857   6.337  0.1106 -0.7595 -0.2942
  108OSM    HNF11002   5.122   5.952   6.364  2.6441 -1.3359  0.5347
  108OSM    C2S11003   4.969   5.818   6.360 -0.1653  0.7089  0.6703
  108OSM    H2S11004   4.952   5.757   6.268  3.6391 -1.0543  0.9381
  108OSM    C3S11005   4.872   5.934   6.363 -0.0925 -0.0726  0.2578
  108OSM    H3S11006   4.907   6.005   6.440  2.1296 -1.5489  0.7176
  108OSM     O311007   4.739   5.896   6.407  0.2571 -0.5670 -0.2549
  108OSM    HO311008   4.756   5.819   6.462 -0.5659 -1.5207 -1.2581
  108OSM    C4S11009   4.882   6.020   6.237  0.1039 -0.6067 -0.2986
  108OSM    H4S11010   4.975   6.078   6.228  0.6359 -1.6359 -1.8424
  108OSM    C5S11011   4.792   6.016   6.137  0.6271  0.2364 -0.1225
  108OSM    H5S11012   4.707   5.948   6.152  1.6916 -1.2028 -0.4018
  108OSM    C6S11013   4.802   6.107   6.019  0.7051  0.4925 -1.1767
  108OSM    H6S11014   4.901   6.155   6.001  0.5905  1.0642 -0.3200
  108OSM    H6T11015   4.750   6.202   6.043 -0.8531 -0.5266 -0.3446
  108OSM    C7S11016   4.748   6.061   5.882  0.2387  0.3882 -0.6144
  108OSM    H7S11017   4.642   6.030   5.892  0.3444 -0.1371 -1.0773
  108OSM    H7T11018   4.809   5.973   5.851  1.1723  0.8845 -0.2396
  108OSM    C8S11019   4.773   6.178   5.782  0.6357 -0.6695  0.8536
  108OSM    H8S11020   4.883   6.195   5.774  1.0557 -2.0315  2.7654
  108OSM    H8T11021   4.721   6.268   5.822  0.1165 -1.0596  1.0693
  108OSM    C9S11022   4.695   6.151   5.651 -0.1260  0.5769 -0.0750
  108OSM    H9S11023   4.591   6.148   5.688  0.0381  1.1331  0.4540
  108OSM    H9T11024   4.726   6.051   5.614  1.6431  1.1914 -0.3601
  108OSM   C10S11025   4.713   6.261   5.546  0.2854 -0.2319  0.2434
  108OSM   H10S11026   4.672   6.354   5.589  1.0118 -0.1376  0.7581
  108OSM   H10T11027   4.645   6.242   5.460  0.3758  1.0679 -0.1380
  108OSM   C11S11028   4.857   6.288   5.501 -0.0755  1.0639  0.0363
  108OSM   H11S11029   4.896   6.192   5.463 -1.1438  0.9615 -0.8413
  108OSM   H11T11030   4.918   6.324   5.587  0.3509  0.8696 -0.1813
  108OSM   C12S11031   4.869   6.389   5.383  0.0652  0.0198 -0.4278
  108OSM   H12S11032   4.972   6.429   5.395 -0.3289  1.4213 -1.3679
  108OSM   H12T11033   4.803   6.476   5.406  1.9993  1.6015 -0.5814
  108OSM   C13S11034   4.854   6.333   5.244  0.3589 -0.5431 -0.5549
  108OSM   H13S11035   4.753   6.289   5.230  0.6204 -1.0962 -0.7309
  108OSM   H13T11036   4.932   6.254   5.236  0.7520  0.0131 -2.6267
  108OSM   C14S11037   4.880   6.434   5.134  0.3564  0.0644 -0.4946
  108OSM   H14S11038   4.957   6.502   5.176  0.4962 -0.5485  0.2641
  108OSM   H14T11039   4.787   6.495   5.123 -1.0415 -0.9985  3.6858
  108OSM   C15S11040   4.927   6.367   5.003  0.1939  0.6360 -0.1171
  108OSM   H15S11041   4.903   6.434   4.918  0.7776  0.8532 -0.1181
  108OSM   H15T11042   4.867   6.275   4.987  1.6409 -0.1144 -1.6072
  108OSM   C16S11043   5.082   6.328   5.007  0.3205  0.1793 -0.1053
  108OSM   H16S11044   5.099   6.229   5.053  0.9454 -0.3154 -1.3586
  108OSM   H16T11045   5.153   6.399   5.056 -0.5110 -0.2816  1.8334
  108OSM   C17S11046   5.127   6.303   4.863  0.6343 -0.2838  0.0747
  108OSM   H17S11047   5.100   6.399   4.815 -1.9889  0.0876  2.0723
  108OSM   H17T11048   5.068   6.226   4.809 -0.5237  1.7298 -1.6793
  108OSM   C18S11049   5.276   6.286   4.851  0.0286  0.3481 -0.3561
  108OSM   H18S11050   5.303   6.280   4.744 -1.9653  4.7049 -1.2859
  108OSM   H18T11051   5.314   6.190   4.893  0.0811  0.8750  0.8597
  108OSM   H18U11052   5.326   6.378   4.888 -0.0038  0.3660 -0.3569
  108OSM    C1F11053   5.205   5.786   6.293  0.6288 -0.1425  0.8969
  108OSM     OF11054   5.189   5.666   6.283 -0.5142  0.7250 -0.1621
  108OSM    C2F11055   5.336   5.854   6.276  1.0087 -0.5076  0.3650
  108OSM    H2F11056   5.397   5.837   6.367 -0.5262 -0.4237  1.4644
  108OSM    H2G11057   5.308   5.957   6.245  2.3458 -0.1228  0.4096
  108OSM    C3F11058   5.420   5.810   6.154  0.4379  0.7232 -0.0268
  108OSM    H3F11059   5.351   5.830   6.070 -0.3457 -2.2960 -0.2120
  108OSM    H3G11060   5.432   5.701   6.172  0.7490  0.2265 -2.8152
  108OSM    C4F11061   5.551   5.884   6.140  0.0666  0.3474 -0.8853
  108OSM    H4F11062   5.601   5.886   6.239  0.0862  1.7836 -0.8910
  108OSM    H4G11063   5.525   5.990   6.116  1.1475  1.5541  2.5497
  108OSM    C5F11064   5.639   5.828   6.029 -0.5750 -0.8932 -0.1653
  108OSM    H5F11065   5.675   5.726   6.054  2.1395  0.0396  0.1238
  108OSM    H5G11066   5.726   5.897   6.031 -2.0965  1.1637 -1.1111
  108OSM    C6F11067   5.581   5.844   5.891  0.2865 -0.5362  0.8691
  108OSM    H6F11068   5.484   5.794   5.875  0.9669 -1.4263 -0.7424
  108OSM    H6G11069   5.651   5.786   5.826 -0.0175 -1.6468  1.5056
  108OSM    C7F11070   5.569   5.997   5.851 -0.0481 -0.5225  0.6504
  108OSM    H7F11071   5.662   6.054   5.870 -0.0451  0.0684 -0.9279
  108OSM    H7G11072   5.500   6.046   5.923  0.4026  0.2930  0.5418
  108OSM    C8F11073   5.529   6.012   5.697  1.0532 -0.3863  0.7517
  108OSM    H8F11074   5.460   6.098   5.686 -0.0524 -1.4720 -1.3700
  108OSM    H8G11075   5.460   5.925   5.687 -0.0437  0.1477  2.9617
  108OSM    C9F11076   5.639   6.024   5.598 -0.1103  0.2622  0.5865
  108OSM    H9F11077   5.715   6.100   5.619  0.4987 -0.4528  1.0559
  108OSM   C10F11078   5.659   5.941   5.490  0.5481  0.1524  0.2251
  108OSM   H10F11079   5.747   5.958   5.426  0.6196  0.5089  0.4147
  108OSM   C11F11080   5.573   5.827   5.447  0.2464 -0.1526  0.5328
  108OSM   H11F11081   5.467   5.854   5.433  0.1003 -0.7255  0.4919
  108OSM   H11G11082   5.578   5.751   5.528  0.9523 -0.9221 -0.2183
  108OSM   C12F11083   5.631   5.749   5.329 -0.1075  0.0827  1.1987
  108OSM   H12F11084   5.596   5.644   5.332  1.2582 -0.4827 -0.5016
  108OSM   H12G11085   5.742   5.745   5.329  0.0450 -2.4130 -3.0734
  108OSM   C13F11086   5.584   5.822   5.203  0.3402 -0.1700 -0.3387
  108OSM   H13F11087   5.608   5.930   5.207 -0.7639  0.0592  0.6783
  108OSM   H13G11088   5.474   5.810   5.213  0.5105  0.0327  2.8260
  108OSM   C14F11089   5.637   5.757   5.075 -0.0055 -0.6995 -0.1003
  108OSM   H14F11090   5.598   5.653   5.087  1.3991 -1.2256  0.0948
  108OSM   H14G11091   5.748   5.759   5.074 -0.0105 -0.4050 -0.1098
  108OSM   C15F11092   5.579   5.817   4.950 -0.4344 -0.8826 -0.1974
  108OSM   H15F11093   5.606   5.925   4.944  0.6318 -0.9873  1.6850
  108OSM   H15G11094   5.468   5.819   4.955 -0.4970  2.6113 -0.3185
  108OSM   C16F11095   5.638   5.744   4.831 -0.2881 -0.2426  0.4189
  108OSM   H16F11096   5.627   5.633   4.839  0.8911 -0.3907  0.1769
  108OSM   H16G11097   5.747   5.761   4.833 -0.2643 -0.3192 -0.2297
  108OSM   C17F11098   5.579   5.792   4.694 -0.1149 -0.1672 -0.1853
  108OSM   H17F11099   5.487   5.850   4.716  0.5572  0.7176  0.3421
  108OSM   H17G11100   5.558   5.706   4.627 -1.6492  1.0262 -1.2995
  108OSM   C18F11101   5.674   5.890   4.629  0.1962 -0.1645  0.4715
  108OSM   H18F11102   5.625   5.946   4.547  1.3312  0.7567  0.3879
  108OSM   H18G11103   5.754   5.823   4.590 -0.4857 -0.2608 -0.8146
  108OSM   H18H11104   5.719   5.969   4.694 -0.0624 -0.0718  0.5375
  109OSM      N11105   3.497   2.260   7.003  0.4644  0.6666 -0.1654
  109OSM    C1511106   3.452   2.271   7.150  0.3624 -0.0454  1.3372
  109OSM   H15A11107   3.508   2.204   7.214 -0.3555 -1.8238  0.1896
  109OSM   H15B11108   3.347   2.252   7.165  0.3721 -1.4922 -0.1618
  109OSM   H15C11109   3.471   2.372   7.183 -0.2167  0.9969 -1.2711
  109OSM    C1411110   3.644   2.277   6.981 -0.3710 -0.1984 -0.1049
  109OSM   H14A11111   3.690   2.189   7.024  2.1990  0.3078 -1.6124
  109OSM   H14B11112   3.687   2.363   7.031  2.4928 -0.2647 -2.1812
  109OSM   H14C11113   3.678   2.270   6.879 -0.8219  2.1317 -0.4817
  109OSM    C1311114   3.463   2.122   6.958 -0.0775  0.1983  0.0503
  109OSM   H13A11115   3.513   2.044   7.014 -3.6528 -2.3827  0.0319
  109OSM   H13B11116   3.483   2.106   6.853  0.3383  2.2676 -0.2204
  109OSM   H13C11117   3.359   2.092   6.958  0.1980 -0.8856  1.8638
  109OSM    C1211118   3.412   2.358   6.914 -0.1775  0.0758 -0.1733
  109OSM   H12A11119   3.423   2.459   6.951 -3.6224 -0.0926  1.7471
  109OSM   H12B11120   3.306   2.337   6.920 -0.3292  1.0958  1.4980
  109OSM    C1111121   3.449   2.355   6.764  0.3140 -0.7483 -0.3667
  109OSM   H11A11122   3.447   2.251   6.724 -1.7001 -1.3134  1.0030
  109OSM   H11B11123   3.551   2.397   6.754  0.1174  0.0020  0.5892
  109OSM      P11124   3.355   2.588   6.689 -0.1689 -0.2327  0.2641
  109OSM    O1311125   3.250   2.638   6.593 -0.0024  0.0499  0.0041
  109OSM    O1411126   3.337   2.635   6.830 -0.1403  0.1420  0.5275
  109OSM    O1111127   3.495   2.623   6.631  0.6480  0.5287 -0.6565
  109OSM    O1211128   3.350   2.430   6.691 -0.6762  0.4924 -0.1743
  109OSM    C1S11129   3.555   2.571   6.513 -0.0369  0.0255  1.0494
  109OSM    H1S11130   3.500   2.478   6.486 -1.8649  1.2889  0.2635
  109OSM    H1T11131   3.660   2.541   6.533 -1.3516 -3.8795  3.1550
  109OSM     NF11132   3.601   2.608   6.287 -0.3402  0.4805  0.3756
  109OSM    HNF11133   3.699   2.626   6.289 -0.1234 -0.6444  0.7971
  109OSM    C2S11134   3.534   2.671   6.399  0.6349  0.4830 -0.2469
  109OSM    H2S11135   3.425   2.685   6.383  0.7734  1.5279 -0.3440
  109OSM    C3S11136   3.591   2.811   6.428 -0.2498 -0.2324  0.9742
  109OSM    H3S11137   3.702   2.799   6.428 -0.1275  0.6435  2.5613
  109OSM     O311138   3.556   2.863   6.556 -0.5996  0.2211 -0.1073
  109OSM    HO311139   3.525   2.785   6.604 -0.7799  1.1906  1.4450
  109OSM    C4S11140   3.540   2.905   6.327  0.5438 -0.1883 -0.7769
  109OSM    H4S11141   3.437   2.891   6.290  0.3465  1.0862 -0.7559
  109OSM    C5S11142   3.616   2.991   6.263 -0.7502 -0.3628  0.7256
  109OSM    H5S11143   3.723   2.997   6.287 -0.7007  0.9826  0.2724
  109OSM    C6S11144   3.564   3.076   6.154 -0.5035 -0.3140 -0.0818
  109OSM    H6S11145   3.603   3.179   6.170  0.5937 -0.8735  1.0534
  109OSM    H6T11146   3.454   3.078   6.144 -0.3274  1.6080 -2.5472
  109OSM    C7S11147   3.621   3.015   6.017  0.1784  0.2037 -0.1655
  109OSM    H7S11148   3.560   2.924   5.997 -0.5301  0.5216  0.4855
  109OSM    H7T11149   3.731   3.006   6.011  0.0448 -0.5401 -3.0057
  109OSM    C8S11150   3.584   3.114   5.908  0.1596 -0.6152 -0.4128
  109OSM    H8S11151   3.618   3.217   5.929 -0.6933 -0.8347  2.5556
  109OSM    H8T11152   3.474   3.119   5.899 -0.4737 -2.2811  3.9103
  109OSM    C9S11153   3.630   3.074   5.768 -0.1438 -0.1290 -0.0122
  109OSM    H9S11154   3.593   2.970   5.755  1.7181 -0.8830  0.4422
  109OSM    H9T11155   3.740   3.080   5.753 -0.4401  1.2445 -2.0258
  109OSM   C10S11156   3.566   3.161   5.652 -0.1444  0.0074 -0.0635
  109OSM   H10S11157   3.603   3.265   5.662 -0.0150  0.5006 -4.0339
  109OSM   H10T11158   3.458   3.177   5.671  0.2577  1.0119  1.5156
  109OSM   C11S11159   3.587   3.118   5.512 -0.7984  0.2392  0.8757
  109OSM   H11S11160   3.507   3.161   5.449  0.8921  2.9263  0.4012
  109OSM   H11T11161   3.565   3.010   5.526  1.0929 -0.3060  0.0538
  109OSM   C12S11162   3.722   3.154   5.451  0.0394 -0.5765 -0.0186
  109OSM   H12S11163   3.803   3.112   5.514  1.6251  1.9807 -0.2104
  109OSM   H12T11164   3.745   3.262   5.461  1.6131 -1.0002  1.2423
  109OSM   C13S11165   3.744   3.092   5.315  1.2483  0.0584  0.9520
  109OSM   H13S11166   3.709   2.987   5.316  0.5133  0.2920  0.6083
  109OSM   H13T11167   3.854   3.099   5.311  1.3841 -0.3921  3.0430
  109OSM   C14S11168   3.695   3.181   5.195 -0.2770 -0.7212 -0.4743
  109OSM   H14S11169   3.757   3.273   5.199 -0.5977 -0.5160 -0.0953
  109OSM   H14T11170   3.590   3.209   5.216 -0.1818 -1.4902  1.2314
  109OSM   C15S11171   3.713   3.108   5.057 -0.2192 -0.2445  0.3143
  109OSM   H15S11172   3.685   3.180   4.977  1.2110  1.3191  1.1702
  109OSM   H15T11173   3.632   3.032   5.069 -1.1141  0.0032 -3.0309
  109OSM   C16S11174   3.849   3.047   5.027  0.0075 -0.1937  0.0667
  109OSM   H16S11175   3.886   2.972   5.101 -1.4429 -1.9076 -0.8638
  109OSM   H16T11176   3.920   3.132   5.036 -0.9436  0.5796  0.5270
  109OSM   C17S11177   3.854   2.987   4.881  0.2482  0.2296 -0.3471
  109OSM   H17S11178   3.832   3.070   4.811 -0.7136 -0.0557 -0.3943
  109OSM   H17T11179   3.768   2.917   4.876 -0.3080  0.6966  1.5927
  109OSM   C18S11180   3.992   2.931   4.845 -0.6399  0.2701  0.0033
  109OSM   H18S11181   4.010   2.858   4.763 -1.5590  1.3709 -1.2274
  109OSM   H18T11182   4.021   2.877   4.937  1.1888  0.3805 -0.4510
  109OSM   H18U11183   4.068   3.010   4.825 -0.9511  0.6062  0.1303
  109OSM    C1F11184   3.554   2.500   6.216 -0.4055  0.1726 -0.3553
  109OSM     OF11185   3.437   2.464   6.217 -0.0428 -0.2298 -0.2306
  109OSM    C2F11186   3.657   2.439   6.120 -0.0996  0.2040  0.6548
  109OSM    H2F11187   3.736   2.382   6.173  1.3501  0.5502 -1.0635
  109OSM    H2G11188   3.713   2.517   6.065 -2.7399  3.4097  2.1266
  109OSM    C3F11189   3.588   2.357   6.012  0.3741  0.5124 -0.6995
  109OSM    H3F11190   3.509   2.423   5.969 -0.6333 -1.3732 -1.8653
  109OSM    H3G11191   3.541   2.269   6.060  2.8758  0.2581  1.5171
  109OSM    C4F11192   3.662   2.318   5.889 -0.5019  0.7369  0.0209
  109OSM    H4F11193   3.738   2.240   5.909 -2.1357 -1.3303 -1.3210
  109OSM    H4G11194   3.715   2.411   5.860 -0.4929  0.2074 -1.7978
  109OSM    C5F11195   3.579   2.271   5.770  0.8915 -0.3179  0.3991
  109OSM    H5F11196   3.536   2.363   5.726  0.6849 -0.7686 -0.3654
  109OSM    H5G11197   3.499   2.202   5.804  1.0838 -1.0030 -0.4992
  109OSM    C6F11198   3.670   2.219   5.659 -0.0080 -0.3751  0.1127
  109OSM    H6F11199   3.744   2.142   5.689  1.0902  0.7485  0.3915
  109OSM    H6G11200   3.713   2.311   5.614 -2.5564 -0.1083 -2.0208
  109OSM    C7F11201   3.579   2.176   5.545 -0.6895  0.0457  0.1925
  109OSM    H7F11202   3.485   2.234   5.543 -2.3041 -2.4374 -0.1855
  109OSM    H7G11203   3.547   2.071   5.558  1.0937 -0.3317  2.1472
  109OSM    C8F11204   3.627   2.184   5.395  0.0208 -0.4090  0.1164
  109OSM    H8F11205   3.561   2.130   5.324 -0.1348 -1.0936  0.7692
  109OSM    H8G11206   3.724   2.130   5.387  0.0745 -0.5075  1.2289
  109OSM    C9F11207   3.650   2.327   5.349  0.5100 -0.7512 -0.0474
  109OSM    H9F11208   3.746   2.371   5.380 -0.2762 -0.1323  1.6769
  109OSM   C10F11209   3.571   2.407   5.274 -0.0996 -0.5934 -0.1216
  109OSM   H10F11210   3.615   2.499   5.234  0.0762 -0.8809 -0.5895
  109OSM   C11F11211   3.431   2.366   5.226  0.7364 -0.4933 -0.1503
  109OSM   H11F11212   3.358   2.428   5.282  0.1503 -0.4384 -0.9627
  109OSM   H11G11213   3.415   2.257   5.240 -1.3215 -0.1302  0.6136
  109OSM   C12F11214   3.408   2.405   5.076  0.5428  0.6823 -0.3931
  109OSM   H12F11215   3.499   2.380   5.016  0.8017  0.2939  0.1561
  109OSM   H12G11216   3.390   2.515   5.074 -2.3353  0.3688  2.0476
  109OSM   C13F11217   3.278   2.341   5.028 -0.0138 -0.0393 -0.0621
  109OSM   H13F11218   3.193   2.378   5.089 -0.8874 -0.0412 -1.2375
  109OSM   H13G11219   3.301   2.234   5.045  0.4360 -0.2457 -1.8179
  109OSM   C14F11220   3.255   2.381   4.876 -0.3861 -0.2074 -0.2517
  109OSM   H14F11221   3.282   2.488   4.864 -1.3050 -0.0853 -1.4745
  109OSM   H14G11222   3.147   2.360   4.856 -0.1187 -0.7269 -1.2232
  109OSM   C15F11223   3.356   2.302   4.791  0.2491 -0.0512 -0.1300
  109OSM   H15F11224   3.332   2.195   4.810 -0.1318  0.1252  0.3890
  109OSM   H15G11225   3.459   2.328   4.825 -0.1629 -0.4091  1.4972
  109OSM   C16F11226   3.332   2.306   4.641 -0.3731  0.0561 -0.5438
  109OSM   H16F11227   3.233   2.257   4.635 -0.7822  0.9028 -0.9026
  109OSM   H16G11228   3.408   2.237   4.598  0.7496  1.1055 -0.2891
  109OSM   C17F11229   3.327   2.445   4.585 -0.3590  0.0101 -0.0915
  109OSM   H17F11230   3.418   2.501   4.617 -0.6437  0.9775 -0.9326
  109OSM   H17G11231   3.237   2.499   4.620  0.3233  0.4900  0.9572
  109OSM   C18F11232   3.321   2.438   4.429 -0.1660  0.2168  0.0083
  109OSM   H18F11233   3.227   2.388   4.397 -0.4794 -0.4807  1.8555
  109OSM   H18G11234   3.406   2.389   4.378 -0.6506  0.6361 -1.2471
  109OSM   H18H11235   3.314   2.540   4.386  1.0429 -0.6015 -2.2837
  110OSM      N11236   3.826   6.358   6.765  0.4242 -0.1799  0.0018
  110OSM    C1511237   3.957   6.298   6.805 -0.4675 -0.1269  0.0743
  110OSM   H15A11238   3.978   6.204   6.756  1.5099  0.8983 -1.2219
  110OSM   H15B11239   3.965   6.291   6.912  0.4561 -0.8750 -0.0265
  110OSM   H15C11240   4.031   6.370   6.772 -2.1638  1.5671 -0.2332
  110OSM    C1411241   3.728   6.249   6.781 -0.1434  0.1809 -0.0058
  110OSM   H14A11242   3.716   6.222   6.885  1.4899 -1.4017 -0.1799
  110OSM   H14B11243   3.767   6.162   6.730 -0.6241  0.6091 -1.1544
  110OSM   H14C11244   3.633   6.273   6.736 -0.3335 -0.1995  0.1878
  110OSM    C1311245   3.791   6.465   6.858  0.3927 -0.4950 -0.7613
  110OSM   H13A11246   3.792   6.442   6.964  2.3218 -1.5880 -0.9614
  110OSM   H13B11247   3.688   6.484   6.835  0.3419 -0.4789 -0.5184
  110OSM   H13C11248   3.848   6.556   6.847  0.0795 -0.3898 -1.5228
  110OSM    C1211249   3.840   6.416   6.631  0.3344 -0.4643  0.6340
  110OSM   H12A11250   3.875   6.337   6.567  2.5914  0.4996  0.5702
  110OSM   H12B11251   3.925   6.483   6.627  1.6005 -2.0322 -3.4779
  110OSM    C1111252   3.712   6.480   6.568  0.1592  0.1674  0.0030
  110OSM   H11A11253   3.754   6.520   6.473 -1.9415  2.0255 -0.2270
  110OSM   H11B11254   3.679   6.560   6.638  1.7765 -0.4122  1.5053
  110OSM      P11255   3.481   6.419   6.484  0.1773  0.2547  0.3579
  110OSM    O1311256   3.402   6.307   6.436  0.1073  0.4468  0.2784
  110OSM    O1411257   3.427   6.510   6.590  0.4773 -0.4087 -0.1499
  110OSM    O1111258   3.534   6.500   6.361 -0.3143  0.0295  0.7320
  110OSM    O1211259   3.614   6.377   6.542 -0.5826  0.0562  0.8014
  110OSM    C1S11260   3.605   6.453   6.246 -0.3147  0.9284 -0.9041
  110OSM    H1S11261   3.619   6.342   6.245 -0.6925  0.8439  0.5450
  110OSM    H1T11262   3.706   6.499   6.243 -0.2618  0.7895 -1.2561
  110OSM     NF11263   3.633   6.421   6.001  0.2936 -0.4153  0.6009
  110OSM    HNF11264   3.715   6.468   5.970 -1.2776  2.2028  0.1745
  110OSM    C2S11265   3.546   6.483   6.108  0.0179  1.4618 -0.0975
  110OSM    H2S11266   3.454   6.422   6.103  2.5000 -2.7135  0.5294
  110OSM    C3S11267   3.517   6.631   6.084  0.1431 -0.0950  0.2701
  110OSM    H3S11268   3.610   6.692   6.079 -0.5528  0.8846 -2.9531
  110OSM     O311269   3.432   6.688   6.185  0.5737  0.1875 -0.5311
  110OSM    HO311270   3.442   6.622   6.254 -1.6851  0.0085 -0.3113
  110OSM    C4S11271   3.446   6.640   5.952 -0.1302  0.1551 -0.2930
  110OSM    H4S11272   3.376   6.555   5.945  2.6125 -2.5423  2.3383
  110OSM    C5S11273   3.482   6.715   5.843  1.1181  0.0519 -0.1865
  110OSM    H5S11274   3.582   6.761   5.855  1.0515 -0.0389  0.8096
  110OSM    C6S11275   3.425   6.705   5.705  0.3253 -0.5715 -0.0183
  110OSM    H6S11276   3.364   6.796   5.686  0.4102 -0.2282  1.2735
  110OSM    H6T11277   3.351   6.626   5.683 -1.2198  0.6549  0.6092
  110OSM    C7S11278   3.536   6.692   5.605 -0.6347 -0.6960 -0.0968
  110OSM    H7S11279   3.579   6.590   5.621  3.1570  0.8593  0.6277
  110OSM    H7T11280   3.623   6.759   5.621 -0.4792 -1.1443  1.0692
  110OSM    C8S11281   3.478   6.719   5.461  0.9688 -0.3460 -1.6434
  110OSM    H8S11282   3.405   6.802   5.465 -0.7669 -1.8343 -0.7010
  110OSM    H8T11283   3.417   6.637   5.416  1.1101 -0.9270 -0.7918
  110OSM    C9S11284   3.587   6.741   5.359  0.5891  0.2305 -0.5480
  110OSM    H9S11285   3.668   6.667   5.378  1.4376  1.5810  1.3948
  110OSM    H9T11286   3.632   6.841   5.376 -0.2796  0.5425 -0.0225
  110OSM   C10S11287   3.542   6.735   5.215 -0.0695  0.5938 -0.8203
  110OSM   H10S11288   3.482   6.825   5.190 -3.5827 -1.0347  1.0973
  110OSM   H10T11289   3.469   6.651   5.206 -0.7712  1.0429  0.5245
  110OSM   C11S11290   3.655   6.729   5.116  0.0864 -0.1872 -0.5201
  110OSM   H11S11291   3.720   6.650   5.158 -1.3233  0.4217  3.1734
  110OSM   H11T11292   3.717   6.821   5.124  0.5182 -0.6077  1.2379
  110OSM   C12S11293   3.609   6.716   4.970  0.0250  0.1511 -0.1828
  110OSM   H12S11294   3.532   6.794   4.951  0.3565  1.2321  2.4547
  110OSM   H12T11295   3.550   6.624   4.948  0.5687  0.4701 -3.4447
  110OSM   C13S11296   3.723   6.722   4.871  0.4846 -0.2533  0.1087
  110OSM   H13S11297   3.819   6.693   4.919  0.6674  0.7254  0.3580
  110OSM   H13T11298   3.730   6.827   4.836 -0.4408  0.6272  2.3514
  110OSM   C14S11299   3.703   6.629   4.741  0.9022 -0.4627 -0.1912
  110OSM   H14S11300   3.596   6.615   4.713  0.6857 -0.3876  0.5632
  110OSM   H14T11301   3.747   6.532   4.771  1.0690 -0.5218 -0.6218
  110OSM   C15S11302   3.783   6.680   4.618  1.2951  0.7566  0.9325
  110OSM   H15S11303   3.759   6.783   4.584 -0.1081  0.3153  0.5210
  110OSM   H15T11304   3.777   6.611   4.531 -1.5918  0.9053  0.9205
  110OSM   C16S11305   3.932   6.667   4.649  0.0685  0.5592  0.1665
  110OSM   H16S11306   3.952   6.564   4.686 -0.1756 -0.1774 -1.6434
  110OSM   H16T11307   3.951   6.735   4.735 -2.4173  0.9452  0.5069
  110OSM   C17S11308   4.023   6.690   4.532 -0.2917  0.1661  0.4461
  110OSM   H17S11309   4.014   6.608   4.458  2.2580 -1.9225  2.2950
  110OSM   H17T11310   4.128   6.688   4.569  0.5062  0.6443 -1.6557
  110OSM   C18S11311   3.993   6.826   4.460  0.6370 -0.6054 -0.3351
  110OSM   H18S11312   3.919   6.798   4.382  0.1581 -1.2390  0.3364
  110OSM   H18T11313   4.077   6.885   4.418 -0.1303  3.1821  2.8873
  110OSM   H18U11314   3.945   6.900   4.527 -3.2112 -2.9147 -0.2653
  110OSM    C1F11315   3.610   6.294   5.958 -0.7795 -0.0115  0.9668
  110OSM     OF11316   3.535   6.223   6.026  0.2710 -0.0812  0.2736
  110OSM    C2F11317   3.688   6.250   5.841 -1.2412 -0.6717  0.4258
  110OSM    H2F11318   3.613   6.199   5.776 -1.2695  2.0047 -1.8681
  110OSM    H2G11319   3.759   6.173   5.877 -1.0258 -0.3377  0.7172
  110OSM    C3F11320   3.764   6.359   5.755  0.0841  0.5208 -0.3644
  110OSM    H3F11321   3.842   6.411   5.814  1.8629  0.4643 -2.5593
  110OSM    H3G11322   3.707   6.447   5.719 -0.5346  0.4585  0.4232
  110OSM    C4F11323   3.837   6.288   5.644 -0.8293  0.1390  0.3787
  110OSM    H4F11324   3.847   6.179   5.663 -1.0644 -0.6503 -3.1947
  110OSM    H4G11325   3.935   6.339   5.635 -0.1422 -1.2257 -0.2372
  110OSM    C5F11326   3.764   6.305   5.514 -0.2876  0.2398  0.3725
  110OSM    H5F11327   3.736   6.411   5.497  1.9457  0.9906  1.0029
  110OSM    H5G11328   3.663   6.259   5.524  0.3693 -1.2004  0.5496
  110OSM    C6F11329   3.835   6.258   5.390 -0.7630  0.1092 -0.2747
  110OSM    H6F11330   3.874   6.154   5.395 -1.7575 -0.2119  2.4623
  110OSM    H6G11331   3.929   6.317   5.389 -0.2570 -0.6820 -0.4199
  110OSM    C7F11332   3.753   6.270   5.261  0.2822 -0.0072 -0.4469
  110OSM    H7F11333   3.759   6.371   5.216  1.8298  0.7784  1.3712
  110OSM    H7G11334   3.645   6.262   5.285  0.5005  0.7916  0.8890
  110OSM    C8F11335   3.782   6.170   5.146 -0.1410 -0.1384  0.2777
  110OSM    H8F11336   3.713   6.200   5.064  1.1139  0.7464 -0.4969
  110OSM    H8G11337   3.751   6.066   5.171 -0.5998 -0.4449 -1.4005
  110OSM    C9F11338   3.928   6.182   5.118 -0.2535 -0.5749  0.3123
  110OSM    H9F11339   3.998   6.144   5.194 -0.2740 -0.7523  0.2435
  110OSM   C10F11340   3.979   6.232   4.999  0.1761  0.2586 -0.0275
  110OSM   H10F11341   4.087   6.227   4.979  0.4079  0.9958  0.9590
  110OSM   C11F11342   3.893   6.293   4.893 -0.7310 -1.1282 -0.6247
  110OSM   H11F11343   3.954   6.370   4.841 -0.2544 -0.0480  1.4481
  110OSM   H11G11344   3.801   6.340   4.932  1.4966  2.4156  0.7967
  110OSM   C12F11345   3.867   6.186   4.786 -0.3567  0.1529 -0.4897
  110OSM   H12F11346   3.791   6.111   4.815  1.8586 -1.9959  0.0970
  110OSM   H12G11347   3.962   6.131   4.771 -1.2265 -1.6423  0.3065
  110OSM   C13F11348   3.809   6.248   4.655 -0.1944 -0.2955 -0.8920
  110OSM   H13F11349   3.882   6.323   4.618  0.5830  0.5918  2.1723
  110OSM   H13G11350   3.733   6.320   4.690  0.2897 -0.4764  0.6300
  110OSM   C14F11351   3.748   6.152   4.544 -0.7010 -0.0339  0.0702
  110OSM   H14F11352   3.667   6.088   4.584 -1.2555  1.5745  1.6370
  110OSM   H14G11353   3.835   6.088   4.514 -1.0037 -0.0679 -0.7611
  110OSM   C15F11354   3.696   6.231   4.427 -0.7347 -0.2915 -0.2997
  110OSM   H15F11355   3.665   6.162   4.346 -0.3593 -3.1389  1.8231
  110OSM   H15G11356   3.787   6.283   4.389 -2.4162  3.3225  0.2545
  110OSM   C16F11357   3.586   6.342   4.452  0.5473 -0.6156  0.6387
  110OSM   H16F11358   3.614   6.401   4.542 -2.2302  0.6922  0.7625
  110OSM   H16G11359   3.491   6.297   4.489  0.5728 -1.1848  0.0378
  110OSM   C17F11360   3.550   6.433   4.335  0.3211 -0.0333  0.1847
  110OSM   H17F11361   3.498   6.374   4.256  0.2647 -0.0884  0.2632
  110OSM   H17G11362   3.650   6.468   4.303  0.4835 -1.2320 -0.7036
  110OSM   C18F11363   3.460   6.554   4.364  1.4367 -0.4986  0.7521
  110OSM   H18F11364   3.431   6.623   4.282 -0.7951 -3.2864 -0.9941
  110OSM   H18G11365   3.496   6.613   4.450  0.4609  0.5148  0.4856
  110OSM   H18H11366   3.361   6.508   4.388  0.3539  0.4953 -1.5182
  111OSM      N11367   6.218   5.057   7.106  0.0654  0.1274  0.3853
  111OSM    C1511368   6.342   5.003   7.036  0.0581 -0.4086 -0.7847
  111OSM   H15A11369   6.395   5.081   6.983  1.1500  0.1442  1.0126
  111OSM   H15B11370   6.320   4.927   6.963  1.8551 -0.7288 -1.0357
  111OSM   H15C11371   6.423   4.965   7.097  1.1617  1.5648 -0.9417
  111OSM    C1411372   6.154   4.943   7.185  0.3784  0.0063  0.0702
  111OSM   H14A11373   6.064   4.983   7.230  0.1315  1.9534 -1.9791
  111OSM   H14B11374   6.209   4.909   7.272 -0.6024  1.7742  1.4353
  111OSM   H14C11375   6.129   4.859   7.122  1.4707  0.2917 -0.7646
  111OSM    C1311376   6.269   5.157   7.212 -0.4753 -0.0676 -0.2201
  111OSM   H13A11377   6.341   5.099   7.268 -1.8305 -2.4761 -0.8519
  111OSM   H13B11378   6.193   5.183   7.284 -1.4470 -1.5297 -0.6681
  111OSM   H13C11379   6.295   5.252   7.168  0.1563  0.1131  0.5174
  111OSM    C1211380   6.123   5.123   7.008  0.0010  0.6263  0.3429
  111OSM   H12A11381   6.045   5.165   7.070  0.9487 -0.0462  2.0632
  111OSM   H12B11382   6.074   5.049   6.947  0.1370  1.6612 -1.0776
  111OSM    C1111383   6.181   5.218   6.901  0.5903  0.4369 -0.1922
  111OSM   H11A11384   6.101   5.243   6.829 -0.5239  1.2296  1.2559
  111OSM   H11B11385   6.256   5.163   6.841 -0.3689 -0.4409 -0.6042
  111OSM      P11386   6.168   5.464   6.981 -0.2551 -0.0764 -0.5019
  111OSM    O1311387   6.050   5.443   7.068  0.1174 -0.1156 -0.3023
  111OSM    O1411388   6.265   5.571   7.014  0.1419 -0.2577 -0.3178
  111OSM    O1111389   6.107   5.502   6.841  0.5233 -0.0615  0.0354
  111OSM    O1211390   6.242   5.330   6.953  0.0897 -0.4857  0.0629
  111OSM    C1S11391   6.180   5.529   6.724 -0.0403 -0.1548 -0.1570
  111OSM    H1S11392   6.284   5.492   6.738  0.0599  0.2584  0.2308
  111OSM    H1T11393   6.186   5.639   6.713 -1.0066 -0.0377  0.3748
  111OSM     NF11394   6.231   5.438   6.495 -0.2074 -0.4868 -0.7752
  111OSM    HNF11395   6.229   5.515   6.431 -1.6012  0.9812  0.9283
  111OSM    C2S11396   6.129   5.454   6.600 -0.2874 -0.2735 -0.4790
  111OSM    H2S11397   6.111   5.351   6.637  0.4043  0.0904  0.9436
  111OSM    C3S11398   5.988   5.504   6.563  0.5945  0.4027  0.0979
  111OSM    H3S11399   6.001   5.612   6.544  1.2500  0.2232 -0.5280
  111OSM     O311400   5.904   5.502   6.674  0.3689  0.2204  0.2048
  111OSM    HO311401   5.950   5.514   6.757  0.4465 -0.1501  0.2162
  111OSM    C4S11402   5.921   5.430   6.442 -0.1083 -0.4493 -0.2949
  111OSM    H4S11403   5.922   5.320   6.446  2.1179 -0.6218 -2.8891
  111OSM    C5S11404   5.869   5.480   6.330  0.0008 -0.1809 -0.0952
  111OSM    H5S11405   5.868   5.589   6.315  1.9940 -0.2006 -0.6675
  111OSM    C6S11406   5.838   5.399   6.206  0.1047 -0.8340 -0.5458
  111OSM    H6S11407   5.897   5.444   6.124 -0.7541 -0.7999 -1.1550
  111OSM    H6T11408   5.729   5.415   6.190 -0.7583 -0.3061  4.3507
  111OSM    C7S11409   5.867   5.252   6.209 -0.6173  0.4295 -0.0601
  111OSM    H7S11410   5.813   5.200   6.291  2.0111 -1.9621  0.2939
  111OSM    H7T11411   5.975   5.235   6.226 -0.7658  0.1649  0.6653
  111OSM    C8S11412   5.828   5.190   6.076  0.1466  0.1982 -0.0699
  111OSM    H8S11413   5.892   5.234   5.997  0.3804  0.2541  0.1500
  111OSM    H8T11414   5.726   5.227   6.054 -0.3324 -1.7023 -1.2594
  111OSM    C9S11415   5.822   5.038   6.049  0.1137 -0.2448 -0.4133
  111OSM    H9S11416   5.730   4.987   6.083 -1.1511  2.1634  0.0279
  111OSM    H9T11417   5.899   5.001   6.121 -0.1594  2.8740  1.6925
  111OSM   C10S11418   5.861   5.002   5.903  0.4183  1.0410  0.0754
  111OSM   H10S11419   5.849   4.893   5.886 -2.8554  1.5400 -1.5922
  111OSM   H10T11420   5.966   5.029   5.878  0.0075  3.7322  0.9604
  111OSM   C11S11421   5.777   5.081   5.802 -0.1752  0.1603 -0.2609
  111OSM   H11S11422   5.813   5.186   5.802  3.5358 -0.9421  1.8470
  111OSM   H11T11423   5.668   5.073   5.824 -0.0165 -2.6482 -0.0685
  111OSM   C12S11424   5.804   5.022   5.656  0.6114  0.3986 -0.1410
  111OSM   H12S11425   5.777   4.915   5.655 -0.7531  0.7191 -0.5291
  111OSM   H12T11426   5.912   5.037   5.633  0.9294 -1.8157 -0.3127
  111OSM   C13S11427   5.715   5.094   5.548 -0.1788 -0.4466 -0.6594
  111OSM   H13S11428   5.714   5.199   5.584  1.6847 -0.6433  0.1215
  111OSM   H13T11429   5.611   5.056   5.541  0.4953 -2.1326 -2.0716
  111OSM   C14S11430   5.782   5.098   5.407  0.0927 -0.4414  0.3413
  111OSM   H14S11431   5.816   4.996   5.379  0.1266  0.0212 -1.4237
  111OSM   H14T11432   5.875   5.157   5.416 -0.1796  0.0280  0.1263
  111OSM   C15S11433   5.696   5.153   5.290 -0.4630  0.6066  0.4069
  111OSM   H15S11434   5.686   5.263   5.301  1.1741  0.8710 -0.3990
  111OSM   H15T11435   5.593   5.112   5.284  0.0438 -0.6581 -0.0990
  111OSM   C16S11436   5.768   5.129   5.156  0.8936 -0.3675 -0.8977
  111OSM   H16S11437   5.827   5.034   5.160  0.5968 -0.6048 -1.8338
  111OSM   H16T11438   5.858   5.192   5.146  1.5887 -1.2122 -0.1310
  111OSM   C17S11439   5.684   5.138   5.032 -0.7364 -0.5830  0.0919
  111OSM   H17S11440   5.651   5.244   5.025  0.0733 -0.3430 -0.2017
  111OSM   H17T11441   5.596   5.072   5.041 -1.6771  0.6730  0.3587
  111OSM   C18S11442   5.751   5.086   4.907  0.2801  0.1274 -0.0687
  111OSM   H18S11443   5.827   5.158   4.870 -0.4280  1.9972  1.9037
  111OSM   H18T11444   5.675   5.074   4.827  0.6901  2.7035 -0.9421
  111OSM   H18U11445   5.809   4.998   4.943  3.1565  2.2360  0.8023
  111OSM    C1F11446   6.346   5.367   6.513  0.1543 -0.1670 -0.8483
  111OSM     OF11447   6.355   5.303   6.618  0.2318  0.1151  0.8056
  111OSM    C2F11448   6.455   5.380   6.409  0.1873 -0.5978  0.6047
  111OSM    H2F11449   6.555   5.397   6.456  0.8594 -1.0756 -0.6237
  111OSM    H2G11450   6.425   5.467   6.347 -1.5201  0.0928  2.2859
  111OSM    C3F11451   6.476   5.250   6.321 -0.2024 -0.4160 -0.1679
  111OSM    H3F11452   6.514   5.169   6.388  0.9497 -0.4833 -0.8765
  111OSM    H3G11453   6.560   5.277   6.253 -0.2477  1.6118  0.5056
  111OSM    C4F11454   6.349   5.197   6.246 -0.5735  0.2399  0.0753
  111OSM    H4F11455   6.333   5.262   6.157 -1.6335  1.1245  0.8644
  111OSM    H4G11456   6.256   5.207   6.307  0.1512 -3.2550  2.0264
  111OSM    C5F11457   6.366   5.054   6.189 -0.2590 -0.2071 -0.5991
  111OSM    H5F11458   6.376   4.984   6.274 -3.2142 -0.3361 -0.2502
  111OSM    H5G11459   6.458   5.044   6.128  1.6624 -0.9785  2.2356
  111OSM    C6F11460   6.242   5.017   6.114  0.2706  0.0017  0.3182
  111OSM    H6F11461   6.237   5.083   6.024 -0.6409 -0.1440  0.2591
  111OSM    H6G11462   6.148   5.022   6.172  0.7002  0.4741  0.9910
  111OSM    C7F11463   6.259   4.872   6.066  0.3059  0.3913  1.1022
  111OSM    H7F11464   6.157   4.852   6.025  0.0648  3.4162 -0.0151
  111OSM    H7G11465   6.289   4.799   6.144  0.2866  0.4975  1.2088
  111OSM    C8F11466   6.362   4.845   5.951  0.4269  0.6893 -0.5563
  111OSM    H8F11467   6.355   4.742   5.910 -1.0485  1.1740 -1.6095
  111OSM    H8G11468   6.464   4.850   5.995 -0.3864  1.0017  1.3811
  111OSM    C9F11469   6.366   4.951   5.846  0.2255 -0.2414  0.0294
  111OSM    H9F11470   6.381   5.051   5.889  0.6413  0.6282 -2.0183
  111OSM   C10F11471   6.345   4.946   5.716  0.8614 -1.1146 -0.3417
  111OSM   H10F11472   6.345   5.040   5.659  2.1898 -0.3087  0.9248
  111OSM   C11F11473   6.296   4.821   5.644 -0.4356 -0.0120  0.1637
  111OSM   H11F11474   6.195   4.797   5.682 -0.5447  0.5449  0.2466
  111OSM   H11G11475   6.359   4.731   5.663 -0.0073  0.4058  0.8115
  111OSM   C12F11476   6.280   4.836   5.490  0.0593  0.2685  0.0176
  111OSM   H12F11477   6.240   4.742   5.447  1.2981  0.2930 -1.2583
  111OSM   H12G11478   6.383   4.845   5.448  0.1480 -0.2092  0.1253
  111OSM   C13F11479   6.204   4.961   5.444  0.3184 -0.1551  0.3692
  111OSM   H13F11480   6.254   5.057   5.468  0.0127  0.3289 -0.8162
  111OSM   H13G11481   6.103   4.943   5.486 -0.2546 -2.7634 -1.8762
  111OSM   C14F11482   6.171   4.948   5.291 -0.0377 -0.6899 -0.2395
  111OSM   H14F11483   6.111   5.035   5.258  0.6284  1.0931  2.8206
  111OSM   H14G11484   6.117   4.852   5.279 -1.0357 -0.0684 -0.8550
  111OSM   C15F11485   6.302   4.944   5.211 -0.5014  0.4029 -0.2643
  111OSM   H15F11486   6.347   4.843   5.210 -0.4242  0.4368 -0.1991
  111OSM   H15G11487   6.382   5.006   5.255  1.4923 -1.7725 -0.6485
  111OSM   C16F11488   6.272   4.994   5.065 -0.5347 -0.1971  0.1929
  111OSM   H16F11489   6.363   4.988   5.002  1.0194 -2.7296  2.4197
  111OSM   H16G11490   6.229   5.096   5.061 -2.8400 -1.1655 -1.8669
  111OSM   C17F11491   6.160   4.909   4.992 -1.1261 -0.1037 -0.5929
  111OSM   H17F11492   6.073   4.898   5.061 -0.3055  1.2896  0.7249
  111OSM   H17G11493   6.199   4.807   4.974 -3.6724 -0.9653 -1.8147
  111OSM   C18F11494   6.115   4.963   4.852 -0.0229  0.4845 -1.4420
  111OSM   H18F11495   6.037   4.897   4.809  0.5638  0.6116 -2.7299
  111OSM   H18G11496   6.199   4.964   4.779  0.8212  1.6621 -0.5006
  111OSM   H18H11497   6.064   5.061   4.862 -2.3010 -0.7806  0.3790
  112OSM      N11498   1.592   0.428   6.771 -0.1334  0.2000 -0.6314
  112OSM    C1511499   1.720   0.396   6.842  0.5430 -0.5893 -1.0723
  112OSM   H15A11500   1.803   0.428   6.781  1.3201 -0.4525  0.0240
  112OSM   H15B11501   1.735   0.292   6.867 -0.6269 -0.0223  2.6902
  112OSM   H15C11502   1.728   0.445   6.938  0.1377 -2.8744  0.1912
  112OSM    C1411503   1.483   0.374   6.860  0.4306 -0.4907  0.6281
  112OSM   H14A11504   1.474   0.439   6.945  0.0782  0.0596  0.1743
  112OSM   H14B11505   1.493   0.269   6.884 -1.2576 -0.4889  1.4424
  112OSM   H14C11506   1.389   0.388   6.810  0.7538 -1.6404 -0.3579
  112OSM    C1311507   1.571   0.575   6.771  0.0948 -0.2362 -0.2352
  112OSM   H13A11508   1.561   0.608   6.874  3.6671 -2.5119  1.0364
  112OSM   H13B11509   1.481   0.602   6.719  0.7979  1.5874 -0.5997
  112OSM   H13C11510   1.651   0.623   6.717  0.7188 -0.6027  0.3351
  112OSM    C1211511   1.608   0.376   6.634  0.8821  0.0572 -0.4279
  112OSM   H12A11512   1.518   0.405   6.581  0.0292 -2.1546 -0.2993
  112OSM   H12B11513   1.607   0.268   6.629  3.6707 -0.0242 -0.7075
  112OSM    C1111514   1.726   0.417   6.545  0.2946 -0.6777  0.3575
  112OSM   H11A11515   1.731   0.528   6.536  0.0583 -0.8115 -2.3019
  112OSM   H11B11516   1.706   0.377   6.443  0.1936 -0.9838  0.4955
  112OSM      P11517   1.933   0.255   6.530 -0.0297 -0.3177 -0.1062
  112OSM    O1311518   2.068   0.251   6.588 -0.2869 -0.7455  0.0523
  112OSM    O1411519   1.848   0.138   6.537  0.0728  0.4615 -0.7763
  112OSM    O1111520   1.944   0.295   6.377 -0.7803 -0.2480 -0.0711
  112OSM    O1211521   1.856   0.382   6.594 -0.3275 -0.0437  0.3826
  112OSM    C1S11522   2.013   0.197   6.299 -0.6219 -0.7931  0.3233
  112OSM    H1S11523   1.950   0.107   6.287 -1.9912  0.2852 -1.2249
  112OSM    H1T11524   2.117   0.176   6.329  0.5035  0.5225 -2.2784
  112OSM     NF11525   2.028   0.141   6.051 -0.1346 -0.5025  0.7154
  112OSM    HNF11526   2.117   0.142   6.006 -0.3016  1.4394  0.3321
  112OSM    C2S11527   2.015   0.250   6.150 -0.3483 -0.6587  0.3346
  112OSM    H2S11528   1.913   0.294   6.145 -0.5469 -1.1639 -0.0574
  112OSM    C3S11529   2.125   0.359   6.131 -0.3441 -0.3227  0.7553
  112OSM    H3S11530   2.221   0.304   6.129 -0.2007 -0.0793 -0.9970
  112OSM     O311531   2.138   0.447   6.241  0.1290  0.1828 -0.7563
  112OSM    HO311532   2.078   0.412   6.307  2.0423  1.6360  1.9082
  112OSM    C4S11533   2.103   0.427   5.996  0.0147 -0.9654  0.0625
  112OSM    H4S11534   1.999   0.429   5.961 -0.1012 -0.9494  0.3987
  112OSM    C5S11535   2.204   0.468   5.916  0.5153  0.0666 -0.1614
  112OSM    H5S11536   2.311   0.462   5.942  0.8768 -2.3399 -1.8167
  112OSM    C6S11537   2.181   0.523   5.776  0.2979 -0.2712  0.6045
  112OSM    H6S11538   2.209   0.631   5.781 -0.7530  0.0632 -0.1922
  112OSM    H6T11539   2.072   0.512   5.754  0.4936 -1.0536 -0.0124
  112OSM    C7S11540   2.239   0.421   5.675  0.3272 -0.0664 -1.0571
  112OSM    H7S11541   2.190   0.324   5.696 -0.7380  1.0492  2.2856
  112OSM    H7T11542   2.349   0.412   5.690  0.1539 -1.5862 -0.5424
  112OSM    C8S11543   2.204   0.467   5.537 -0.0843 -0.0487  0.0023
  112OSM    H8S11544   2.251   0.564   5.511 -0.3581  0.0555 -0.1063
  112OSM    H8T11545   2.093   0.480   5.534 -0.3426 -1.3428  1.8832
  112OSM    C9S11546   2.243   0.371   5.432  0.3253 -0.1295  0.0729
  112OSM    H9S11547   2.195   0.272   5.450 -0.4051  0.4496  1.4379
  112OSM    H9T11548   2.351   0.348   5.441  0.5962  0.4404 -1.3924
  112OSM   C10S11549   2.227   0.432   5.292 -0.8565  0.3377 -0.4917
  112OSM   H10S11550   2.300   0.377   5.228 -1.4325 -1.7137  0.5359
  112OSM   H10T11551   2.261   0.538   5.300  1.3795 -0.4122  0.6599
  112OSM   C11S11552   2.083   0.418   5.239 -0.3238 -0.1418  0.1743
  112OSM   H11S11553   2.008   0.470   5.304 -0.1171 -1.8614  1.8866
  112OSM   H11T11554   2.044   0.315   5.224 -1.0651  0.4781 -2.6136
  112OSM   C12S11555   2.082   0.491   5.102  0.2622 -0.5049 -0.7309
  112OSM   H12S11556   2.147   0.438   5.029 -0.0664 -1.5605 -0.2770
  112OSM   H12T11557   2.111   0.597   5.121 -1.4970 -0.6298  3.8031
  112OSM   C13S11558   1.941   0.506   5.050  0.0134  0.5074 -0.3287
  112OSM   H13S11559   1.896   0.589   5.109 -0.4954  0.9440 -1.3109
  112OSM   H13T11560   1.881   0.416   5.076  1.4252 -0.2626  0.3429
  112OSM   C14S11561   1.912   0.561   4.912 -0.5569  0.6260  0.9794
  112OSM   H14S11562   1.959   0.498   4.833 -0.3447  2.4678 -0.4350
  112OSM   H14T11563   1.966   0.658   4.906  0.3798  0.1311  1.1462
  112OSM   C15S11564   1.763   0.566   4.891 -0.4979 -0.7976 -0.4064
  112OSM   H15S11565   1.711   0.588   4.986  0.3495 -1.3096  0.1847
  112OSM   H15T11566   1.728   0.468   4.853 -2.7657  0.3397 -1.4499
  112OSM   C16S11567   1.717   0.675   4.783 -0.0026  0.2448 -0.4620
  112OSM   H16S11568   1.768   0.772   4.807 -1.6216  1.3596 -1.3360
  112OSM   H16T11569   1.608   0.684   4.801  0.0219 -0.6431  0.1993
  112OSM   C17S11570   1.742   0.625   4.641  0.9450  0.3037  0.5330
  112OSM   H17S11571   1.674   0.537   4.636 -0.0220  0.8728  2.6679
  112OSM   H17T11572   1.846   0.588   4.626  0.9796 -0.2547  2.0373
  112OSM   C18S11573   1.706   0.724   4.529 -0.4676 -0.1141  0.1853
  112OSM   H18S11574   1.775   0.810   4.524 -0.8416  0.2119  0.5277
  112OSM   H18T11575   1.599   0.755   4.539 -0.0734  1.1209  0.7814
  112OSM   H18U11576   1.726   0.665   4.437  2.1699 -2.0784  1.8674
  112OSM    C1F11577   1.927   0.061   6.014 -0.4865  0.7689 -0.2466
  112OSM     OF11578   1.814   0.070   6.070 -0.0822 -0.4563  0.2043
  112OSM    C2F11579   1.952  -0.043   5.904  0.1248  0.4094  0.5634
  112OSM    H2F11580   1.995  -0.140   5.937 -0.0658 -0.7237 -2.2260
  112OSM    H2G11581   2.008  -0.001   5.818  1.4192 -0.2613  1.0510
  112OSM    C3F11582   1.815  -0.089   5.851 -0.0062 -0.0264 -0.1209
  112OSM    H3F11583   1.763   0.004   5.818  0.0718  0.1072  0.1327
  112OSM    H3G11584   1.749  -0.129   5.931  1.6588  0.4874  1.5743
  112OSM    C4F11585   1.820  -0.196   5.735  0.3289  0.1340  0.1696
  112OSM    H4F11586   1.862  -0.290   5.774  0.7071  0.6008  0.9118
  112OSM    H4G11587   1.893  -0.164   5.657 -0.1491  0.8032 -0.0160
  112OSM    C5F11588   1.683  -0.211   5.655  0.0296  0.4747 -0.3880
  112OSM    H5F11589   1.653  -0.112   5.614  1.6446  0.7731 -0.9326
  112OSM    H5G11590   1.597  -0.246   5.716  0.0859 -1.2989 -1.2704
  112OSM    C6F11591   1.702  -0.297   5.534 -0.5122  0.2060  0.1366
  112OSM    H6F11592   1.771  -0.377   5.567 -0.0890  0.2124 -0.7170
  112OSM    H6G11593   1.751  -0.238   5.454  0.6269 -0.2181  0.5008
  112OSM    C7F11594   1.570  -0.361   5.486 -0.5360 -0.1933 -0.0260
  112OSM    H7F11595   1.504  -0.278   5.454 -0.2942 -0.1698 -0.4820
  112OSM    H7G11596   1.514  -0.414   5.566 -0.6709  1.5201  1.0681
  112OSM    C8F11597   1.578  -0.450   5.356  0.1977 -0.1321 -0.2111
  112OSM    H8F11598   1.624  -0.549   5.377  2.2298  0.7542 -0.2010
  112OSM    H8G11599   1.643  -0.395   5.284  1.0169 -0.2087  0.4543
  112OSM    C9F11600   1.439  -0.473   5.292 -0.0741  0.1712 -0.2324
  112OSM    H9F11601   1.371  -0.538   5.349  0.2029  1.5523  1.7702
  112OSM   C10F11602   1.425  -0.447   5.160 -0.0518 -0.0965  0.3253
  112OSM   H10F11603   1.328  -0.478   5.119 -0.2298 -0.5472  1.0796
  112OSM   C11F11604   1.506  -0.362   5.068  0.3465  0.3596 -0.7958
  112OSM   H11F11605   1.551  -0.278   5.125 -0.8037  1.1997 -1.0837
  112OSM   H11G11606   1.436  -0.310   4.999  0.3983  1.9345  0.3041
  112OSM   C12F11607   1.621  -0.424   4.985 -0.6831  0.4129  0.4352
  112OSM   H12F11608   1.570  -0.495   4.918 -0.3854  1.9795 -1.5409
  112OSM   H12G11609   1.695  -0.469   5.055 -0.8249  1.0509  1.0144
  112OSM   C13F11610   1.698  -0.318   4.912 -0.0800  0.1295  0.2594
  112OSM   H13F11611   1.744  -0.248   4.985  0.9018  0.6201 -0.7888
  112OSM   H13G11612   1.631  -0.256   4.849 -2.2546 -0.5110  1.8351
  112OSM   C14F11613   1.820  -0.380   4.836 -0.3966 -0.4270 -0.3263
  112OSM   H14F11614   1.788  -0.478   4.794  2.1669 -1.1460 -0.7799
  112OSM   H14G11615   1.906  -0.392   4.906  0.3206  0.7064 -0.9661
  112OSM   C15F11616   1.878  -0.290   4.722 -0.0289  0.4400 -0.4236
  112OSM   H15F11617   1.922  -0.199   4.769  0.8812 -0.4192  0.4105
  112OSM   H15G11618   1.798  -0.266   4.648 -0.3016 -1.0411 -0.6351
  112OSM   C16F11619   1.993  -0.351   4.648  0.0480 -0.8675 -1.2272
  112OSM   H16F11620   1.949  -0.426   4.579 -1.8916  1.4318 -2.6444
  112OSM   H16G11621   2.065  -0.396   4.720 -0.8914  1.2714  1.2075
  112OSM   C17F11622   2.061  -0.245   4.563  0.0617 -0.5051  0.1748
  112OSM   H17F11623   2.134  -0.190   4.625  1.1694 -3.0567  1.3037
  112OSM   H17G11624   1.986  -0.180   4.513  0.4951 -0.2373 -0.1297
  112OSM   C18F11625   2.135  -0.305   4.441  0.3091  0.0546  0.2306
  112OSM   H18F11626   2.075  -0.358   4.365  0.6013  0.0979 -0.0301
  112OSM   H18G11627   2.200  -0.383   4.485 -0.3450 -0.0079  1.1136
  112OSM   H18H11628   2.190  -0.219   4.396  1.1479  2.4185  5.1079
  113OSM      N11629   0.122   0.801   6.446  0.6374  0.3364  0.1166
  113OSM    C1511630   0.244   0.839   6.380 -0.2517 -0.4671  0.7189
  113OSM   H15A11631   0.323   0.858   6.452  0.9567  1.6593 -1.0652
  113OSM   H15B11632   0.237   0.920   6.309  0.3994  0.1109  1.2967
  113OSM   H15C11633   0.275   0.756   6.318 -1.8955 -1.3710  1.0362
  113OSM    C1411634   0.135   0.706   6.566 -0.2386  0.1534  1.1943
  113OSM   H14A11635   0.041   0.677   6.610 -0.9849 -0.7078 -0.8493
  113OSM   H14B11636   0.208   0.750   6.633  2.8237  0.3533 -1.9748
  113OSM   H14C11637   0.181   0.614   6.534 -1.7272  0.0249 -0.7288
  113OSM    C1311638   0.069   0.932   6.493 -0.0954  0.0949 -0.3578
  113OSM   H13A11639   0.144   0.994   6.541 -0.9368  0.9596 -0.1323
  113OSM   H13B11640  -0.008   0.907   6.564 -0.1525 -3.7509 -1.5549
  113OSM   H13C11641   0.009   0.979   6.416 -2.7683 -2.1106  0.2260
  113OSM    C1211642   0.030   0.728   6.343 -0.2612  0.1335  0.1197
  113OSM   H12A11643  -0.051   0.688   6.403 -0.2239  1.5045  1.1328
  113OSM   H12B11644   0.080   0.645   6.295 -2.6345  0.9066 -4.1859
  113OSM    C1111645  -0.035   0.804   6.226 -0.5113 -0.4134 -0.0436
  113OSM   H11A11646  -0.044   0.727   6.146  3.8253 -0.2585 -0.9258
  113OSM   H11B11647   0.034   0.885   6.196 -1.4348  0.3534 -0.1479
  113OSM      P11648  -0.286   0.783   6.297  0.1427 -0.0114  0.0268
  113OSM    O1311649  -0.263   0.663   6.381 -0.8750  0.1354  0.1313
  113OSM    O1411650  -0.387   0.881   6.345 -0.3497  0.7857  1.2861
  113OSM    O1111651  -0.326   0.718   6.157 -0.1703 -0.0625 -0.6433
  113OSM    O1211652  -0.154   0.865   6.266 -0.0788  0.6875  0.4665
  113OSM    C1S11653  -0.337   0.787   6.035 -0.2510  0.0112  0.7483
  113OSM    H1S11654  -0.237   0.812   5.992 -1.1406  2.3362 -0.1530
  113OSM    H1T11655  -0.388   0.885   6.048  0.1666  0.4115 -0.5210
  113OSM     NF11656  -0.384   0.748   5.799  0.9174  0.3909  0.1585
  113OSM    HNF11657  -0.463   0.794   5.759  2.1677  1.1749 -1.5240
  113OSM    C2S11658  -0.403   0.694   5.928 -0.0778 -0.6945  0.0184
  113OSM    H2S11659  -0.345   0.600   5.939  0.2357 -0.3983  0.9771
  113OSM    C3S11660  -0.545   0.653   5.959 -0.9791  0.3185 -0.1955
  113OSM    H3S11661  -0.599   0.748   5.944  0.3174  1.1467  0.2177
  113OSM     O311662  -0.548   0.604   6.092  0.1701  0.1972  0.0030
  113OSM    HO311663  -0.473   0.637   6.141  0.6477 -0.4177 -0.3051
  113OSM    C4S11664  -0.615   0.550   5.874  0.3894  0.4602 -0.5040
  113OSM    H4S11665  -0.542   0.480   5.831 -2.0173 -1.3580 -1.8479
  113OSM    C5S11666  -0.742   0.544   5.851 -0.6091 -0.1830 -0.1457
  113OSM    H5S11667  -0.801   0.633   5.879  1.0254  0.7361  0.5287
  113OSM    C6S11668  -0.810   0.439   5.769 -0.6224  0.0135  0.1501
  113OSM    H6S11669  -0.869   0.377   5.840 -0.9920  1.2357  0.9410
  113OSM    H6T11670  -0.743   0.362   5.725  1.5524  2.2156 -0.6503
  113OSM    C7S11671  -0.906   0.508   5.665  0.1339 -0.0841 -0.6177
  113OSM    H7S11672  -0.984   0.563   5.721  0.1150 -0.3238 -0.4090
  113OSM    H7T11673  -0.964   0.428   5.615  0.5532  1.3860 -3.7405
  113OSM    C8S11674  -0.850   0.609   5.572  0.3412  0.2957 -0.1722
  113OSM    H8S11675  -0.783   0.557   5.501  2.6834  0.4010  1.8164
  113OSM    H8T11676  -0.801   0.689   5.632  1.5906 -0.8037  0.3466
  113OSM    C9S11677  -0.961   0.674   5.488  0.3671 -0.0357 -0.1903
  113OSM    H9S11678  -1.022   0.752   5.539  0.6981 -0.1780  0.4323
  113OSM    H9T11679  -1.025   0.593   5.448 -0.1483 -0.5539  1.5994
  113OSM   C10S11680  -0.893   0.743   5.362  0.3097  0.4100  0.1701
  113OSM   H10S11681  -0.864   0.657   5.299 -0.2220 -0.3248  0.9009
  113OSM   H10T11682  -0.799   0.800   5.374  0.2402  0.9932 -1.7727
  113OSM   C11S11683  -0.986   0.841   5.281  0.0925 -0.2263 -0.2356
  113OSM   H11S11684  -1.047   0.906   5.347  0.7377 -0.6519  0.8042
  113OSM   H11T11685  -1.058   0.770   5.234  0.5708  0.0792 -1.4858
  113OSM   C12S11686  -0.913   0.918   5.167  0.0437  0.7125 -0.4684
  113OSM   H12S11687  -0.831   0.985   5.202  1.5387 -1.0937 -0.3479
  113OSM   H12T11688  -0.998   0.980   5.132 -1.8336 -0.2396  2.1352
  113OSM   C13S11689  -0.849   0.830   5.058 -0.3376 -0.2350 -0.1171
  113OSM   H13S11690  -0.924   0.759   5.017 -0.1311 -0.1368 -0.6775
  113OSM   H13T11691  -0.768   0.768   5.102 -0.0042  0.1339 -0.2063
  113OSM   C14S11692  -0.779   0.899   4.929 -0.1659 -0.2628 -0.0603
  113OSM   H14S11693  -0.740   0.820   4.861  1.3681 -0.0305  0.5232
  113OSM   H14T11694  -0.698   0.967   4.960 -0.2440  0.4522 -1.3633
  113OSM   C15S11695  -0.882   0.987   4.854  0.1957  0.7938  0.1766
  113OSM   H15S11696  -0.923   1.048   4.938 -0.6949 -0.6040  0.8069
  113OSM   H15T11697  -0.966   0.923   4.821 -0.0919  0.8528  0.7697
  113OSM   C16S11698  -0.819   1.056   4.738  0.1028  0.2958  0.3865
  113OSM   H16S11699  -0.745   0.992   4.686 -2.7753 -2.7112 -0.3685
  113OSM   H16T11700  -0.764   1.145   4.774 -0.7681  1.6219 -1.3978
  113OSM   C17S11701  -0.916   1.109   4.637 -0.2370 -0.6396  0.0557
  113OSM   H17S11702  -1.011   1.143   4.685 -1.1243 -1.9147 -0.7266
  113OSM   H17T11703  -0.946   1.026   4.569  0.8033 -0.0477 -1.1712
  113OSM   C18S11704  -0.859   1.233   4.559  0.5624  0.2791 -0.4812
  113OSM   H18S11705  -0.791   1.199   4.478 -0.8340 -1.5028 -0.9736
  113OSM   H18T11706  -0.828   1.306   4.637 -1.3885 -0.7696  1.3669
  113OSM   H18U11707  -0.936   1.288   4.500  1.9219  1.4171 -1.2818
  113OSM    C1F11708  -0.268   0.748   5.735  0.4496 -0.3437 -0.1444
  113OSM     OF11709  -0.173   0.681   5.786  0.6208 -0.0300  0.1553
  113OSM    C2F11710  -0.267   0.820   5.600 -0.0503  0.8357  0.7050
  113OSM    H2F11711  -0.284   0.929   5.614  0.4529  1.1101 -0.7519
  113OSM    H2G11712  -0.357   0.791   5.542 -0.2296  2.2831  0.2299
  113OSM    C3F11713  -0.144   0.793   5.522 -0.4693  0.8231  0.1403
  113OSM    H3F11714  -0.135   0.683   5.507 -1.6241  0.9639 -1.9493
  113OSM    H3G11715  -0.060   0.831   5.584  0.7360  0.7241 -1.3703
  113OSM    C4F11716  -0.143   0.869   5.396 -0.4803 -0.0960 -0.0981
  113OSM    H4F11717  -0.042   0.850   5.352  0.1957  0.9232  0.9641
  113OSM    H4G11718  -0.143   0.978   5.418  0.7190 -0.1497  0.2852
  113OSM    C5F11719  -0.252   0.832   5.292 -0.0711 -0.4286 -0.3990
  113OSM    H5F11720  -0.353   0.857   5.331 -0.1165 -0.3457 -0.5689
  113OSM    H5G11721  -0.247   0.721   5.286  1.5962 -0.4275  0.3154
  113OSM    C6F11722  -0.219   0.877   5.150  0.7708 -0.4512  0.1238
  113OSM    H6F11723  -0.124   0.831   5.117  0.2967 -0.0957 -1.8683
  113OSM    H6G11724  -0.215   0.987   5.164 -1.5328 -0.2615 -0.2974
  113OSM    C7F11725  -0.330   0.833   5.052  0.2499 -0.3950 -0.4382
  113OSM    H7F11726  -0.428   0.853   5.100  0.4255 -0.2377 -0.1472
  113OSM    H7G11727  -0.317   0.725   5.026  0.6207 -0.4708  0.0460
  113OSM    C8F11728  -0.334   0.896   4.903  0.7555  0.4081  0.8491
  113OSM    H8F11729  -0.227   0.890   4.872  0.9131  0.7032  1.3238
  113OSM    H8G11730  -0.353   1.005   4.913 -2.3138 -0.1261  1.6740
  113OSM    C9F11731  -0.426   0.830   4.803  0.1768  0.1891  0.3476
  113OSM    H9F11732  -0.490   0.749   4.839 -3.1181  1.2014 -2.6365
  113OSM   C10F11733  -0.438   0.867   4.675 -0.0574  0.0002 -0.0893
  113OSM   H10F11734  -0.517   0.824   4.612  0.1742  0.0235 -0.3969
  113OSM   C11F11735  -0.362   0.980   4.605  0.4320  0.4231  0.0385
  113OSM   H11F11736  -0.328   0.943   4.506  1.0830  0.9492  0.0556
  113OSM   H11G11737  -0.269   1.009   4.658 -0.8020  1.4003  1.7606
  113OSM   C12F11738  -0.459   1.103   4.606  0.4476 -0.7660 -0.7068
  113OSM   H12F11739  -0.457   1.130   4.714 -1.3058 -0.1248 -0.8137
  113OSM   H12G11740  -0.564   1.093   4.571 -0.0982  0.4908  0.4969
  113OSM   C13F11741  -0.390   1.225   4.538 -0.5687 -0.4098 -0.3226
  113OSM   H13F11742  -0.298   1.253   4.593 -0.3050 -1.4907 -0.1889
  113OSM   H13G11743  -0.466   1.304   4.523  0.6511  1.0939  0.9884
  113OSM   C14F11744  -0.336   1.190   4.393 -0.3902 -0.3976 -0.0288
  113OSM   H14F11745  -0.383   1.263   4.324 -0.7196 -1.5817 -1.0744
  113OSM   H14G11746  -0.377   1.090   4.366 -1.3241 -0.0077 -0.0965
  113OSM   C15F11747  -0.186   1.200   4.374  0.1920  0.2268 -0.3141
  113OSM   H15F11748  -0.155   1.120   4.445  2.4086  0.4337 -0.9629
  113OSM   H15G11749  -0.144   1.299   4.400  1.9069 -0.1622 -1.4683
  113OSM   C16F11750  -0.144   1.157   4.229 -0.7557  0.2111  0.4696
  113OSM   H16F11751  -0.157   1.234   4.150 -0.8540 -0.1460  0.1342
  113OSM   H16G11752  -0.207   1.072   4.196 -1.4053  1.5492 -2.0166
  113OSM   C17F11753  -0.002   1.109   4.232 -0.2883  0.0310 -0.7131
  113OSM   H17F11754  -0.000   1.014   4.290  2.6751 -0.3717 -1.2787
  113OSM   H17G11755   0.057   1.187   4.286 -0.8452 -1.4362  2.2078
  113OSM   C18F11756   0.056   1.078   4.097 -0.4306 -0.6319 -0.3777
  113OSM   H18F11757   0.164   1.056   4.102  0.0240  0.8344 -2.5199
  113OSM   H18G11758   0.065   1.171   4.037  2.5040  1.4392  2.8726
  113OSM   H18H11759   0.007   0.994   4.043 -1.1676 -1.6450  1.7220
  114OSM      N11760   5.005   5.887   6.997 -0.5372  0.2160  0.0857
  114OSM    C1511761   5.143   5.824   7.022  0.4893 -0.1118  0.5106
  114OSM   H15A11762   5.156   5.831   7.129 -0.6544  0.8491  0.6098
  114OSM   H15B11763   5.228   5.880   6.986  1.0925 -1.3315 -0.0522
  114OSM   H15C11764   5.145   5.723   6.984 -3.6237 -0.5902  1.0801
  114OSM    C1411765   4.901   5.816   7.076  0.0786 -0.3486 -0.1721
  114OSM   H14A11766   4.906   5.713   7.045 -1.0338 -0.4536 -0.0433
  114OSM   H14B11767   4.807   5.866   7.057  0.5921 -0.0327 -2.0268
  114OSM   H14C11768   4.913   5.819   7.184 -0.0874  0.8895 -0.1632
  114OSM    C1311769   5.013   6.029   7.037  0.1210  0.2484  0.3276
  114OSM   H13A11770   5.051   6.034   7.138 -0.2413 -1.4087  0.5720
  114OSM   H13B11771   4.920   6.083   7.039  0.9374  1.7175  0.5907
  114OSM   H13C11772   5.078   6.087   6.973  0.5171  0.5930  1.0212
  114OSM    C1211773   4.965   5.886   6.849 -0.3754  0.4734 -0.5119
  114OSM   H12A11774   4.986   5.784   6.823  1.0227  0.1888  1.4579
  114OSM   H12B11775   5.039   5.933   6.787  1.0772 -2.1940 -0.9263
  114OSM    C1111776   4.830   5.942   6.806  0.1043 -0.1658  0.0867
  114OSM   H11A11777   4.741   5.883   6.837  1.0935 -0.0185  3.5990
  114OSM   H11B11778   4.833   5.947   6.695 -1.1837  2.4095  0.0909
  114OSM      P11779   4.705   6.166   6.793 -0.2771 -0.2821 -0.1979
  114OSM    O1311780   4.582   6.090   6.768 -0.0902 -0.0374 -0.1915
  114OSM    O1411781   4.701   6.281   6.887 -0.8395 -0.3596 -0.2474
  114OSM    O1111782   4.773   6.205   6.648 -0.5277 -0.4827  0.1636
  114OSM    O1211783   4.810   6.077   6.855  0.5963 -0.1079 -0.2835
  114OSM    C1S11784   4.917   6.229   6.641 -0.3026 -0.7247 -0.6678
  114OSM    H1S11785   4.975   6.137   6.660  0.1663 -0.0332  1.5105
  114OSM    H1T11786   4.954   6.296   6.722  2.3598 -1.4303 -1.2176
  114OSM     NF11787   5.095   6.318   6.475  0.5198  0.0099 -0.8829
  114OSM    HNF11788   5.131   6.411   6.471  3.2379 -0.9926 -2.1048
  114OSM    C2S11789   4.952   6.303   6.504  0.6070 -0.0863  1.3279
  114OSM    H2S11790   4.904   6.236   6.429 -0.2635  0.6844  1.1775
  114OSM    C3S11791   4.876   6.439   6.484  0.4002  0.7975  0.5016
  114OSM    H3S11792   4.929   6.510   6.552 -0.2048 -0.1028  1.9709
  114OSM     O311793   4.737   6.435   6.528 -0.7410 -0.0334  0.1845
  114OSM    HO311794   4.734   6.361   6.589  0.5483 -0.3269 -0.0956
  114OSM    C4S11795   4.879   6.478   6.336  0.6927  0.0286  0.1893
  114OSM    H4S11796   4.939   6.569   6.320  1.4729 -0.8442 -2.3156
  114OSM    C5S11797   4.800   6.422   6.241 -0.0816  0.2572 -0.4468
  114OSM    H5S11798   4.726   6.345   6.267  1.6991 -1.1529  0.6579
  114OSM    C6S11799   4.785   6.477   6.098 -0.3360 -0.9900 -0.9091
  114OSM    H6S11800   4.828   6.411   6.020  0.5230  0.7501 -1.9561
  114OSM    H6T11801   4.838   6.573   6.080  0.7804 -1.2168  0.9141
  114OSM    C7S11802   4.635   6.500   6.067  0.1373  0.7772  0.3033
  114OSM    H7S11803   4.592   6.570   6.141  3.9520  3.1677  0.5306
  114OSM    H7T11804   4.579   6.405   6.061  0.1144  0.8701 -1.5495
  114OSM    C8S11805   4.613   6.572   5.926  1.0693 -0.6544  0.5213
  114OSM    H8S11806   4.651   6.511   5.841 -0.5867 -1.1174  0.0810
  114OSM    H8T11807   4.672   6.666   5.931  2.2305 -1.4217  2.0694
  114OSM    C9S11808   4.466   6.621   5.911  0.4278 -0.0598  0.3708
  114OSM    H9S11809   4.446   6.706   5.980 -0.8681 -0.3484  0.3739
  114OSM    H9T11810   4.389   6.541   5.926 -1.1137  1.3589  0.3168
  114OSM   C10S11811   4.438   6.674   5.767 -0.7815 -0.6964 -0.0154
  114OSM   H10S11812   4.497   6.767   5.750 -3.7419  1.8061  2.1506
  114OSM   H10T11813   4.337   6.719   5.778 -1.0296 -1.5525  1.3298
  114OSM   C11S11814   4.446   6.579   5.645 -0.1900 -1.0777  0.1383
  114OSM   H11S11815   4.357   6.573   5.579  0.8237 -0.8382 -1.3092
  114OSM   H11T11816   4.476   6.480   5.685 -0.4826 -0.2982  2.4279
  114OSM   C12S11817   4.557   6.617   5.540 -0.7023  0.2751 -0.1550
  114OSM   H12S11818   4.588   6.525   5.487  1.3949 -0.0023  1.4613
  114OSM   H12T11819   4.646   6.643   5.601  0.0269 -1.2730 -0.5263
  114OSM   C13S11820   4.517   6.719   5.433  0.6950 -0.0555 -0.7389
  114OSM   H13S11821   4.501   6.816   5.483  1.2983 -0.2773 -0.1012
  114OSM   H13T11822   4.427   6.693   5.373 -0.3202  0.5061  0.4922
  114OSM   C14S11823   4.629   6.722   5.333  0.2210  0.2184  0.1283
  114OSM   H14S11824   4.666   6.621   5.303 -0.4947  0.4528 -1.6472
  114OSM   H14T11825   4.715   6.785   5.365  0.4154  0.8655 -1.5662
  114OSM   C15S11826   4.593   6.803   5.204 -0.4777 -0.2693 -0.0194
  114OSM   H15S11827   4.566   6.908   5.228 -3.2971 -0.4915 -1.7620
  114OSM   H15T11828   4.503   6.761   5.153  0.3313 -3.4133  0.8711
  114OSM   C16S11829   4.722   6.806   5.115  0.0479 -0.9247  0.8623
  114OSM   H16S11830   4.748   6.710   5.065  1.8080  0.2505 -0.6124
  114OSM   H16T11831   4.809   6.850   5.168  1.0915 -0.5881 -1.0413
  114OSM   C17S11832   4.693   6.908   5.001  0.7830  0.2949  0.2744
  114OSM   H17S11833   4.688   7.010   5.045  0.3918  0.2365  0.3681
  114OSM   H17T11834   4.597   6.874   4.956  2.1150  1.4936 -3.9667
  114OSM   C18S11835   4.805   6.909   4.885 -0.0488  0.8839 -0.1597
  114OSM   H18S11836   4.893   6.968   4.918 -0.6104  0.0183  3.2450
  114OSM   H18T11837   4.759   6.966   4.802  0.1271  0.2634 -0.6952
  114OSM   H18U11838   4.834   6.807   4.851  1.3699  0.4615  2.1625
  114OSM    C1F11839   5.179   6.225   6.457 -0.2219  0.8146  0.0565
  114OSM     OF11840   5.142   6.109   6.435 -0.0886 -0.4872  0.3880
  114OSM    C2F11841   5.326   6.263   6.482 -0.4563  1.1011  0.4097
  114OSM    H2F11842   5.349   6.225   6.584  0.0158  0.7751  0.1891
  114OSM    H2G11843   5.339   6.373   6.495  2.3141  0.8397  0.5138
  114OSM    C3F11844   5.435   6.234   6.375 -0.5346 -0.3926  0.1616
  114OSM    H3F11845   5.443   6.126   6.350 -1.6081  0.2431 -3.5542
  114OSM    H3G11846   5.526   6.272   6.426 -0.2039 -0.0952 -0.6279
  114OSM    C4F11847   5.410   6.310   6.248 -0.7242  0.5944 -0.0543
  114OSM    H4F11848   5.507   6.351   6.213 -0.4217  0.3424  0.4874
  114OSM    H4G11849   5.352   6.402   6.274 -2.4921 -0.4049 -0.2769
  114OSM    C5F11850   5.321   6.242   6.141 -0.7961  0.4380 -0.0752
  114OSM    H5F11851   5.237   6.195   6.197 -0.5353 -1.3000 -1.0680
  114OSM    H5G11852   5.377   6.156   6.098  0.9523  0.4070  2.0650
  114OSM    C6F11853   5.282   6.345   6.035  0.2029  0.4419 -0.1704
  114OSM    H6F11854   5.370   6.393   5.987  1.1304 -0.8505  0.1973
  114OSM    H6G11855   5.207   6.420   6.068 -0.1565  0.1267 -0.2576
  114OSM    C7F11856   5.200   6.261   5.929 -0.5473 -0.0450 -0.3619
  114OSM    H7F11857   5.106   6.221   5.974  1.3196 -0.8473  3.1372
  114OSM    H7G11858   5.263   6.172   5.908 -2.4783 -0.9288 -2.9927
  114OSM    C8F11859   5.165   6.326   5.798 -0.0340 -0.4637 -0.9076
  114OSM    H8F11860   5.080   6.396   5.814  0.7452  0.7704 -2.0140
  114OSM    H8G11861   5.128   6.246   5.730 -0.2362 -0.1448 -1.1725
  114OSM    C9F11862   5.288   6.396   5.732  0.2816  0.1560  0.0726
  114OSM    H9F11863   5.345   6.468   5.793 -1.3692  1.6982 -0.1107
  114OSM   C10F11864   5.334   6.388   5.600  0.4289 -0.9210 -0.6845
  114OSM   H10F11865   5.416   6.454   5.569  0.5528 -0.8526 -0.2115
  114OSM   C11F11866   5.266   6.318   5.484 -0.6525 -0.7484 -0.0285
  114OSM   H11F11867   5.219   6.391   5.414  1.6109  0.6566 -0.1848
  114OSM   H11G11868   5.191   6.241   5.513  1.2722 -2.2744  1.1321
  114OSM   C12F11869   5.369   6.244   5.396 -0.3037  0.8037 -0.1235
  114OSM   H12F11870   5.318   6.226   5.299  2.1451  0.5286 -1.4610
  114OSM   H12G11871   5.391   6.145   5.442 -1.5620 -0.1497 -1.4798
  114OSM   C13F11872   5.504   6.305   5.364  0.6970 -0.0285  0.3369
  114OSM   H13F11873   5.570   6.279   5.449  0.4330 -0.7057  0.3375
  114OSM   H13G11874   5.505   6.416   5.354  0.7381  0.1243  1.7699
  114OSM   C14F11875   5.573   6.237   5.243 -0.6144  0.3733 -0.5708
  114OSM   H14F11876   5.567   6.127   5.257  0.9259  0.1453 -1.4317
  114OSM   H14G11877   5.683   6.243   5.256 -0.2726 -1.1478 -2.2910
  114OSM   C15F11878   5.544   6.299   5.102 -0.2798 -0.8639  0.4935
  114OSM   H15F11879   5.555   6.410   5.097 -0.2472 -0.4951  4.8609
  114OSM   H15G11880   5.440   6.273   5.074  0.3213 -2.0212 -0.7163
  114OSM   C16F11881   5.631   6.235   4.988  0.6382 -0.0980 -0.7838
  114OSM   H16F11882   5.584   6.265   4.892  0.0464  1.1859 -0.1087
  114OSM   H16G11883   5.629   6.126   5.010 -0.6723  0.2564  1.0700
  114OSM   C17F11884   5.774   6.285   4.986  0.0673  0.4313 -0.2625
  114OSM   H17F11885   5.811   6.290   5.090 -0.3847  2.8995 -0.1466
  114OSM   H17G11886   5.782   6.389   4.948  3.9273  0.0482 -0.9455
  114OSM   C18F11887   5.861   6.207   4.897  0.2766 -0.0527 -0.4084
  114OSM   H18F11888   5.826   6.102   4.909  0.7132  0.0139  1.8541
  114OSM   H18G11889   5.967   6.217   4.929  0.0144 -1.5343  1.0735
  114OSM   H18H11890   5.845   6.221   4.788  0.2622  1.2127 -0.2590
  115OSM      N11891   6.430   2.141   6.605  0.1625 -0.0883  0.3004
  115OSM    C1511892   6.420   2.246   6.709 -0.2564  0.1126 -0.6891
  115OSM   H15A11893   6.500   2.232   6.781 -1.3863 -0.2931  0.5287
  115OSM   H15B11894   6.326   2.236   6.761  1.6888 -1.8457  2.8246
  115OSM   H15C11895   6.417   2.345   6.665 -0.1857 -0.6620 -2.5381
  115OSM    C1411896   6.569   2.161   6.537  0.2157 -1.0265 -0.3420
  115OSM   H14A11897   6.646   2.176   6.611  0.4041  0.2382 -0.7650
  115OSM   H14B11898   6.566   2.254   6.483  0.0377 -2.3042 -2.6523
  115OSM   H14C11899   6.596   2.086   6.465 -1.1023 -0.9266 -0.9791
  115OSM    C1311900   6.410   1.999   6.662 -0.3731  0.2324 -0.5385
  115OSM   H13A11901   6.507   1.966   6.696  1.0029  4.2063 -0.0436
  115OSM   H13B11902   6.377   1.942   6.577 -0.5264  1.5756 -1.4027
  115OSM   H13C11903   6.338   1.993   6.742 -0.6130 -1.3024 -0.8489
  115OSM    C1211904   6.329   2.160   6.493  0.4226 -0.4775 -0.1148
  115OSM   H12A11905   6.231   2.157   6.538 -0.8330 -0.1588 -2.6275
  115OSM   H12B11906   6.329   2.072   6.431 -2.8658 -1.1281  0.6129
  115OSM    C1111907   6.339   2.292   6.399 -0.3313 -0.0100  0.2344
  115OSM   H11A11908   6.257   2.280   6.326 -1.0291  0.7753  0.8654
  115OSM   H11B11909   6.437   2.287   6.347  0.0052 -1.1084  0.9518
  115OSM      P11910   6.176   2.437   6.537 -0.0886 -0.0015  0.2181
  115OSM    O1311911   6.084   2.327   6.506 -0.3860 -0.2052 -0.2004
  115OSM    O1411912   6.197   2.473   6.675  0.0680 -0.9081 -0.4380
  115OSM    O1111913   6.140   2.571   6.461 -0.4337  0.2040 -0.3885
  115OSM    O1211914   6.323   2.402   6.492  0.2607  0.5078  0.7289
  115OSM    C1S11915   6.209   2.601   6.340  0.1109 -0.5124  0.4008
  115OSM    H1S11916   6.198   2.524   6.260  0.8242  1.4784 -1.7149
  115OSM    H1T11917   6.319   2.609   6.352  0.0609 -0.7614  1.0978
  115OSM     NF11918   6.237   2.748   6.149  0.2030 -0.1540 -0.1761
  115OSM    HNF11919   6.329   2.785   6.138 -0.0466  0.2651 -0.9188
  115OSM    C2S11920   6.171   2.742   6.281 -0.2154  0.3412  0.6448
  115OSM    H2S11921   6.061   2.730   6.273  0.1355 -2.3293 -1.2591
  115OSM    C3S11922   6.194   2.865   6.377 -0.1777  0.2655  0.0794
  115OSM    H3S11923   6.304   2.877   6.372 -0.2872  1.2297 -0.2397
  115OSM     O311924   6.155   2.836   6.514 -0.2470 -0.0154  0.2730
  115OSM    HO311925   6.134   2.743   6.513  0.1845 -0.1330 -1.7120
  115OSM    C4S11926   6.133   2.981   6.317  0.0529 -0.5730 -0.0704
  115OSM    H4S11927   6.203   3.048   6.264  0.2166 -0.1733  0.6264
  115OSM    C5S11928   6.003   3.002   6.312  0.2516  0.2069  0.8881
  115OSM    H5S11929   5.937   2.939   6.373  2.1111 -1.2829  1.4471
  115OSM    C6S11930   5.930   3.112   6.246  0.2761  0.2875  0.2114
  115OSM    H6S11931   5.947   3.208   6.300 -3.9753  0.9645  0.6627
  115OSM    H6T11932   5.821   3.096   6.241  0.4709 -0.8523 -0.8444
  115OSM    C7S11933   5.978   3.118   6.101  0.5387  0.0418  0.1438
  115OSM    H7S11934   5.942   3.037   6.033  0.0783 -1.4822  2.1255
  115OSM    H7T11935   6.088   3.133   6.100  0.6097 -0.3881  1.0722
  115OSM    C8S11936   5.935   3.247   6.018  0.3050  0.9181 -0.1391
  115OSM    H8S11937   5.961   3.350   6.051  0.3230  1.3263 -1.3611
  115OSM    H8T11938   5.826   3.248   5.999  0.2843  0.7896 -0.0274
  115OSM    C9S11939   6.000   3.241   5.876  0.0622  0.7274 -0.2408
  115OSM    H9S11940   5.973   3.143   5.830  0.2866  0.7182 -0.3543
  115OSM    H9T11941   6.110   3.250   5.887 -0.0239  0.6176  0.8257
  115OSM   C10S11942   5.952   3.350   5.780 -0.3291  0.4316  0.6172
  115OSM   H10S11943   5.977   3.453   5.814  1.0136  0.2023  0.3602
  115OSM   H10T11944   5.842   3.335   5.777 -0.6319  1.7709  2.9798
  115OSM   C11S11945   6.028   3.343   5.644 -1.1691  0.2809  0.3134
  115OSM   H11S11946   5.997   3.257   5.581 -0.3625 -0.5096  0.9557
  115OSM   H11T11947   6.128   3.304   5.675 -1.8847 -2.8469 -0.8615
  115OSM   C12S11948   6.029   3.482   5.570 -0.7751  0.9694 -0.5091
  115OSM   H12S11949   6.071   3.551   5.646  0.8465 -0.6498  0.1575
  115OSM   H12T11950   5.921   3.504   5.552 -0.8311  2.1197  1.0764
  115OSM   C13S11951   6.116   3.473   5.447  0.2264 -0.1642 -0.2218
  115OSM   H13S11952   6.072   3.396   5.379  0.2120 -1.4178  1.1562
  115OSM   H13T11953   6.217   3.435   5.474  1.4372  1.5477 -2.1069
  115OSM   C14S11954   6.131   3.609   5.375  0.6413 -0.1556 -0.5482
  115OSM   H14S11955   6.210   3.586   5.301  2.7286 -1.3273  1.8672
  115OSM   H14T11956   6.170   3.680   5.451 -2.6505 -1.0764  2.2795
  115OSM   C15S11957   5.999   3.658   5.316  0.4539  0.5706  0.5682
  115OSM   H15S11958   5.923   3.694   5.388  0.1271  1.3676 -0.1539
  115OSM   H15T11959   5.960   3.572   5.257  1.2285 -0.2537  1.2165
  115OSM   C16S11960   6.032   3.777   5.221  0.2841  0.3019  0.1515
  115OSM   H16S11961   6.104   3.734   5.147  0.2125 -1.3722  0.9940
  115OSM   H16T11962   6.081   3.846   5.293  0.8027  0.4831 -0.3655
  115OSM   C17S11963   5.914   3.851   5.156 -0.6283 -0.0835  0.2826
  115OSM   H17S11964   5.852   3.891   5.239 -2.7940 -2.2742 -0.1748
  115OSM   H17T11965   5.853   3.782   5.094  1.6107 -0.3638 -1.7533
  115OSM   C18S11966   5.967   3.960   5.067  0.0298 -0.0017 -0.1742
  115OSM   H18S11967   6.019   3.927   4.975 -1.9921  3.7224 -2.8970
  115OSM   H18T11968   6.042   4.025   5.117 -0.9627  0.7830  0.3403
  115OSM   H18U11969   5.879   4.018   5.032  1.6145  1.6303 -1.6176
  115OSM    C1F11970   6.166   2.692   6.047  0.4376 -0.1148  0.3363
  115OSM     OF11971   6.056   2.646   6.067  0.1490 -0.2735  0.0630
  115OSM    C2F11972   6.227   2.678   5.909 -0.8262 -0.5556 -1.0100
  115OSM    H2F11973   6.300   2.595   5.906 -0.1052  0.0260 -0.1905
  115OSM    H2G11974   6.292   2.767   5.892 -1.7356  0.2340 -0.5053
  115OSM    C3F11975   6.125   2.673   5.791 -0.1568 -0.0438  0.5162
  115OSM    H3F11976   6.046   2.598   5.813 -1.1067  1.1499  1.2738
  115OSM    H3G11977   6.178   2.633   5.702  0.7741 -0.1469  1.0998
  115OSM    C4F11978   6.069   2.809   5.743  0.2131  0.2216 -0.0601
  115OSM    H4F11979   5.995   2.848   5.817  0.4947  1.5135 -0.4501
  115OSM    H4G11980   6.020   2.786   5.647  0.6440  1.9291 -0.7137
  115OSM    C5F11981   6.172   2.919   5.718 -0.3993 -0.5348  0.1310
  115OSM    H5F11982   6.266   2.915   5.777 -0.9259  2.6881  1.3690
  115OSM    H5G11983   6.136   3.020   5.746  1.7408  0.5080 -0.6392
  115OSM    C6F11984   6.195   2.932   5.563  0.6330  0.1806 -0.0157
  115OSM    H6F11985   6.091   2.952   5.530  0.3445 -2.4726 -0.9735
  115OSM    H6G11986   6.229   2.838   5.514 -0.3095  0.9319 -2.2355
  115OSM    C7F11987   6.293   3.043   5.525  0.6130 -0.6191 -0.2358
  115OSM    H7F11988   6.396   3.007   5.504  1.7460  0.9788  2.1096
  115OSM    H7G11989   6.293   3.105   5.617  2.2569 -3.4524  1.8738
  115OSM    C8F11990   6.233   3.125   5.406  0.8785  0.0033 -0.0428
  115OSM    H8F11991   6.301   3.212   5.415  0.3399  0.4656 -0.4017
  115OSM    H8G11992   6.128   3.150   5.431  0.7630 -1.2952  0.9199
  115OSM    C9F11993   6.239   3.059   5.269  0.2439 -0.1123  0.0156
  115OSM    H9F11994   6.236   2.949   5.266 -0.7056 -0.1602  1.5763
  115OSM   C10F11995   6.238   3.130   5.152  0.0713  0.1445  0.1905
  115OSM   H10F11996   6.247   3.074   5.058 -0.7916  2.0585 -1.0928
  115OSM   C11F11997   6.238   3.284   5.153 -0.0176 -0.5838 -0.3046
  115OSM   H11F11998   6.318   3.326   5.218 -0.2410  1.4181 -1.2644
  115OSM   H11G11999   6.139   3.318   5.190  0.2762  2.0168 -1.7045
  115OSM   C12F12000   6.238   3.362   5.015 -0.1015 -0.0085 -0.1716
  115OSM   H12F12001   6.147   3.334   4.956 -2.4306  1.1021  2.6237
  115OSM   H12G12002   6.330   3.338   4.958  1.6816  4.9010  0.1766
  115OSM   C13F12003   6.240   3.517   5.040  0.6402  0.7903  0.1320
  115OSM   H13F12004   6.329   3.543   5.102  1.5520  1.9638 -1.5739
  115OSM   H13G12005   6.143   3.541   5.088 -0.2969 -0.7121 -0.9662
  115OSM   C14F12006   6.256   3.597   4.909  0.2388  0.1379 -0.3436
  115OSM   H14F12007   6.350   3.568   4.858  0.6421  0.6442  0.1032
  115OSM   H14G12008   6.266   3.704   4.935 -0.0650 -0.2305  1.3750
  115OSM   C15F12009   6.137   3.583   4.815  0.2503  0.2107 -0.2595
  115OSM   H15F12010   6.049   3.620   4.873 -0.2618  1.1751 -1.5756
  115OSM   H15G12011   6.124   3.476   4.789 -1.2304  0.4250 -0.5169
  115OSM   C16F12012   6.135   3.654   4.673  0.5345  0.0185  0.2652
  115OSM   H16F12013   6.203   3.604   4.600 -1.3135  0.9842 -2.2582
  115OSM   H16G12014   6.168   3.759   4.682  0.6627 -0.1114  1.4239
  115OSM   C17F12015   5.995   3.653   4.615 -0.1593  0.6500 -0.4244
  115OSM   H17F12016   5.927   3.696   4.691  1.2805  2.0738  0.1193
  115OSM   H17G12017   5.969   3.545   4.611  0.4898  0.5031 -1.3515
  115OSM   C18F12018   5.971   3.724   4.477 -0.2090 -0.2267  0.5538
  115OSM   H18F12019   5.863   3.728   4.451  0.0459 -0.6319 -0.5957
  115OSM   H18G12020   6.028   3.681   4.392 -0.7823  0.2912 -0.1039
  115OSM   H18H12021   5.983   3.835   4.480 -2.0502  0.1286 -2.0847
  116OSM      N12022   0.785   1.389   6.766  0.2532 -0.7744 -0.1546
  116OSM    C1512023   0.864   1.521   6.780 -0.1472  1.3343  0.0810
  116OSM   H15A12024   0.916   1.528   6.875 -0.7210  0.3940  0.4865
  116OSM   H15B12025   0.794   1.603   6.790  0.3173  1.4750  3.6994
  116OSM   H15C12026   0.937   1.528   6.701  0.3170 -2.4608 -0.0126
  116OSM    C1412027   0.879   1.288   6.804  0.1193 -0.0331  0.0032
  116OSM   H14A12028   0.837   1.188   6.798  0.5325 -0.2825  1.0046
  116OSM   H14B12029   0.910   1.293   6.907 -0.7367 -0.8135  0.3095
  116OSM   H14C12030   0.970   1.290   6.746  0.6512  1.4962  0.8436
  116OSM    C1312031   0.689   1.388   6.881  0.4661 -0.2646  0.1104
  116OSM   H13A12032   0.619   1.469   6.871 -0.4728 -0.9840  0.7924
  116OSM   H13B12033   0.750   1.406   6.968  0.2950  0.5662  0.0590
  116OSM   H13C12034   0.635   1.296   6.899 -1.1649  0.8996  1.3539
  116OSM    C1212035   0.719   1.390   6.631 -0.3371  0.2354 -0.2531
  116OSM   H12A12036   0.660   1.479   6.611 -2.1762 -0.8014  0.2906
  116OSM   H12B12037   0.640   1.317   6.630 -2.1006  1.9566  1.8291
  116OSM    C1112038   0.815   1.374   6.517  0.6117 -0.0456  0.2649
  116OSM   H11A12039   0.889   1.457   6.523 -1.7777  2.2572 -0.4974
  116OSM   H11B12040   0.767   1.409   6.423  1.3248 -0.1804 -0.1634
  116OSM      P12041   0.796   1.130   6.455 -0.3603 -0.3731 -0.4460
  116OSM    O1312042   0.885   1.007   6.444  1.0896 -0.3748 -0.0466
  116OSM    O1412043   0.666   1.110   6.523 -0.0499 -0.1262  0.7740
  116OSM    O1112044   0.772   1.184   6.316 -0.1725 -0.8072 -0.1082
  116OSM    O1212045   0.881   1.249   6.508  0.0864 -0.9515 -0.4040
  116OSM    C1S12046   0.872   1.229   6.220  1.1774 -0.1586  0.3007
  116OSM    H1S12047   0.974   1.196   6.249  2.3461  0.7381 -2.5078
  116OSM    H1T12048   0.876   1.340   6.219 -0.6316 -0.0669 -0.2224
  116OSM     NF12049   0.956   1.157   5.989  0.1845 -0.3310  1.4891
  116OSM    HNF12050   0.946   1.215   5.909  1.1160 -1.1089  0.7911
  116OSM    C2S12051   0.837   1.163   6.080  0.2835  0.4598  0.3269
  116OSM    H2S12052   0.812   1.058   6.105 -3.0769  0.1925 -3.1822
  116OSM    C3S12053   0.700   1.220   6.022  0.3942  0.1293  0.3000
  116OSM    H3S12054   0.715   1.326   5.995 -1.8512  0.4079 -0.0663
  116OSM     O312055   0.593   1.225   6.112 -0.3488  0.3094 -0.0353
  116OSM    HO312056   0.624   1.201   6.200  1.2121  0.3343 -0.5599
  116OSM    C4S12057   0.668   1.143   5.895 -0.4162 -0.7841  0.7709
  116OSM    H4S12058   0.695   1.200   5.805 -1.7073  1.0738  1.5057
  116OSM    C5S12059   0.580   1.045   5.892  0.3944 -0.3529  0.1213
  116OSM    H5S12060   0.533   1.013   5.986 -2.5679 -0.5508 -1.3004
  116OSM    C6S12061   0.509   0.964   5.786  0.0879  0.0044 -0.1197
  116OSM    H6S12062   0.398   0.962   5.792  0.0806  1.2780  0.6329
  116OSM    H6T12063   0.543   0.859   5.793  1.6276  0.3236 -2.1494
  116OSM    C7S12064   0.535   1.010   5.641 -0.0672  0.4579  1.2885
  116OSM    H7S12065   0.643   1.015   5.618 -0.4535  0.7941 -0.6116
  116OSM    H7T12066   0.494   1.113   5.639 -1.0716  0.0580  0.4762
  116OSM    C8S12067   0.463   0.911   5.547  0.3619 -0.0003  0.3186
  116OSM    H8S12068   0.354   0.903   5.564  0.0600 -3.5542 -2.3474
  116OSM    H8T12069   0.507   0.811   5.566  0.4399  0.1650  1.0556
  116OSM    C9S12070   0.474   0.958   5.397  0.3834  0.2865 -0.8560
  116OSM    H9S12071   0.581   0.971   5.370  0.5274  0.5273 -0.1773
  116OSM    H9T12072   0.427   1.058   5.387 -1.6332 -0.5029  0.1666
  116OSM   C10S12073   0.391   0.869   5.301  0.1895 -0.1838 -0.3871
  116OSM   H10S12074   0.285   0.873   5.333  0.8660 -0.2871  2.1057
  116OSM   H10T12075   0.418   0.761   5.304 -1.8188 -0.7381 -0.6903
  116OSM   C11S12076   0.386   0.912   5.148 -0.7495  0.5429 -0.5216
  116OSM   H11S12077   0.304   0.855   5.101 -1.8522  0.2350  1.6316
  116OSM   H11T12078   0.482   0.879   5.103  0.3414  2.4723  0.2676
  116OSM   C12S12079   0.366   1.068   5.126 -0.0574  0.1238  0.2286
  116OSM   H12S12080   0.415   1.084   5.028  4.0213 -0.8405  1.8912
  116OSM   H12T12081   0.442   1.117   5.191 -1.6267  1.6532  0.9934
  116OSM   C13S12082   0.224   1.115   5.152 -0.3688  0.5472 -0.0729
  116OSM   H13S12083   0.217   1.226   5.146 -0.6960  0.4935 -0.9449
  116OSM   H13T12084   0.197   1.087   5.256  2.2384 -1.9473  0.0634
  116OSM   C14S12085   0.109   1.051   5.062  0.0524  0.8298  0.1357
  116OSM   H14S12086   0.018   1.114   5.080 -1.8122 -1.3772 -1.1123
  116OSM   H14T12087   0.081   0.948   5.090  0.2646  0.8257  0.3388
  116OSM   C15S12088   0.148   1.060   4.908 -0.3395  0.9513 -0.2141
  116OSM   H15S12089   0.250   1.018   4.896 -1.0148 -1.3567  1.3532
  116OSM   H15T12090   0.143   1.166   4.877 -1.3587 -0.0559 -4.0631
  116OSM   C16S12091   0.036   0.995   4.835  0.8936  0.5240 -0.3770
  116OSM   H16S12092  -0.052   1.062   4.845  1.2609  0.9176  0.3600
  116OSM   H16T12093   0.013   0.899   4.884 -1.1425  0.8534 -0.5917
  116OSM   C17S12094   0.060   0.972   4.681  0.0218  0.9091 -0.0250
  116OSM   H17S12095   0.084   1.075   4.647  0.0045  1.0264  0.3071
  116OSM   H17T12096  -0.035   0.934   4.639  0.6509  0.8663 -1.4708
  116OSM   C18S12097   0.165   0.863   4.655 -0.6012 -0.8667 -0.0072
  116OSM   H18S12098   0.188   0.854   4.546 -1.7634  0.0724 -0.3564
  116OSM   H18T12099   0.128   0.766   4.694  1.3811 -1.8616 -0.4513
  116OSM   H18U12100   0.259   0.890   4.707 -1.1240 -0.0338  0.5283
  116OSM    C1F12101   1.065   1.080   6.012 -0.0881  0.4454 -0.2491
  116OSM     OF12102   1.056   0.990   6.101 -0.0348 -0.0850 -0.0676
  116OSM    C2F12103   1.178   1.088   5.921 -0.2809  0.2026  0.2224
  116OSM    H2F12104   1.228   1.187   5.931  1.0861 -0.4317 -0.1324
  116OSM    H2G12105   1.143   1.089   5.816 -0.1121  0.3485  0.1673
  116OSM    C3F12106   1.287   0.980   5.949  0.3726 -0.2860  0.1619
  116OSM    H3F12107   1.251   0.876   5.932 -1.9475  0.7567 -1.6752
  116OSM    H3G12108   1.327   0.996   6.052 -0.3672 -3.3400  1.0298
  116OSM    C4F12109   1.414   1.006   5.862  0.6205 -0.4668  0.2743
  116OSM    H4F12110   1.496   0.947   5.910  0.5767  0.3708  1.4011
  116OSM    H4G12111   1.431   1.115   5.860 -0.6065 -0.2567 -1.6768
  116OSM    C5F12112   1.398   0.959   5.709 -0.2567 -0.0531 -0.4930
  116OSM    H5F12113   1.500   0.972   5.668  0.8568  1.0170  2.3046
  116OSM    H5G12114   1.329   1.027   5.655  0.4693 -0.8742 -2.5216
  116OSM    C6F12115   1.341   0.817   5.691 -0.1255  0.5943 -0.7375
  116OSM    H6F12116   1.243   0.807   5.743 -0.1732  2.7194 -0.3320
  116OSM    H6G12117   1.409   0.750   5.747 -1.1260  0.0434 -0.1652
  116OSM    C7F12118   1.327   0.776   5.550 -0.8525  0.2277  0.0209
  116OSM    H7F12119   1.250   0.841   5.504 -0.0115  1.3488  0.1255
  116OSM    H7G12120   1.285   0.674   5.550 -1.6086  0.5295 -0.4625
  116OSM    C8F12121   1.464   0.771   5.467 -0.8386 -1.1469 -0.1349
  116OSM    H8F12122   1.546   0.776   5.542 -2.0988  1.1777  1.2246
  116OSM    H8G12123   1.488   0.862   5.407  1.3294 -0.2828  1.8933
  116OSM    C9F12124   1.490   0.653   5.382  1.0386  0.5751  0.3682
  116OSM    H9F12125   1.585   0.605   5.409  0.4374 -1.2994 -0.6937
  116OSM   C10F12126   1.410   0.590   5.293 -1.1107  0.0174 -0.3850
  116OSM   H10F12127   1.449   0.500   5.242  0.1816  0.3519 -0.0153
  116OSM   C11F12128   1.281   0.643   5.245  0.3386  0.0908 -0.0064
  116OSM   H11F12129   1.209   0.647   5.329 -1.1494 -2.1416 -1.0717
  116OSM   H11G12130   1.244   0.570   5.170  1.2856 -2.3229  1.7253
  116OSM   C12F12131   1.278   0.784   5.182 -0.5116 -0.2305  1.0922
  116OSM   H12F12132   1.330   0.844   5.260 -0.2884 -0.1473  0.8818
  116OSM   H12G12133   1.171   0.814   5.169  0.1847  1.5672 -1.3878
  116OSM   C13F12134   1.352   0.784   5.040  0.6166 -0.2048 -0.3030
  116OSM   H13F12135   1.461   0.792   5.060  0.5470  0.3141 -0.1335
  116OSM   H13G12136   1.343   0.876   4.979 -0.1691  1.3157  2.0010
  116OSM   C14F12137   1.302   0.666   4.953 -0.4839  0.1136  0.3110
  116OSM   H14F12138   1.195   0.639   4.965 -0.3772 -0.6825 -0.4825
  116OSM   H14G12139   1.352   0.569   4.976  0.5643  0.3551 -0.8976
  116OSM   C15F12140   1.320   0.679   4.800 -0.1491  0.3550 -0.5189
  116OSM   H15F12141   1.429   0.691   4.781  0.0266 -0.5469 -0.1616
  116OSM   H15G12142   1.271   0.774   4.770 -0.0742  0.6884  0.3789
  116OSM   C16F12143   1.260   0.563   4.721  0.4286  0.0925 -0.4437
  116OSM   H16F12144   1.152   0.570   4.747  0.5121 -0.7499  0.1470
  116OSM   H16G12145   1.284   0.463   4.762 -0.1295  0.6677  1.3638
  116OSM   C17F12146   1.288   0.587   4.574 -0.1927 -0.0822  0.1842
  116OSM   H17F12147   1.366   0.516   4.539 -1.2171 -1.0270 -0.2433
  116OSM   H17G12148   1.321   0.691   4.555  0.2172 -0.2128  0.1695
  116OSM   C18F12149   1.171   0.555   4.483  0.0494  0.2229  0.2473
  116OSM   H18F12150   1.158   0.633   4.405 -2.2269 -0.0797  0.2749
  116OSM   H18G12151   1.078   0.554   4.544  0.0225 -0.3672  0.1999
  116OSM   H18H12152   1.191   0.462   4.426  1.0308  0.3578  0.3426
  117OSM      N12153   0.202   4.934   7.308 -0.3590  1.0856  0.1862
  117OSM    C1512154   0.247   5.007   7.431  0.7017  0.1514  0.4444
  117OSM   H15A12155   0.303   5.098   7.416 -0.6250  0.7978 -0.8979
  117OSM   H15B12156   0.308   4.944   7.493 -0.8852 -0.4952  1.4100
  117OSM   H15C12157   0.161   5.034   7.491  1.9460  0.2024  2.2798
  117OSM    C1412158   0.320   4.899   7.227  0.3253 -0.3540 -0.0751
  117OSM   H14A12159   0.396   4.863   7.294  3.7264  2.8602 -1.8295
  117OSM   H14B12160   0.364   4.982   7.174  1.1682 -0.7139  0.0526
  117OSM   H14C12161   0.300   4.818   7.158 -3.7279  0.5321 -0.1945
  117OSM    C1312162   0.124   4.811   7.350  0.8232 -0.4258 -0.5393
  117OSM   H13A12163   0.056   4.779   7.272 -0.2641  2.8973 -1.1093
  117OSM   H13B12164   0.072   4.838   7.440 -0.1370 -3.3535 -0.1102
  117OSM   H13C12165   0.184   4.723   7.367 -1.5114 -1.9671  0.0563
  117OSM    C1212166   0.104   5.014   7.230 -0.3780 -0.1006  0.0284
  117OSM   H12A12167   0.140   5.115   7.220 -0.4193 -0.1793 -0.9565
  117OSM   H12B12168   0.012   5.033   7.283  0.5540  2.1412  0.9833
  117OSM    C1112169   0.057   4.963   7.090  0.1373  0.6096  0.3107
  117OSM   H11A12170   0.151   4.950   7.031  0.3346  0.9722  0.5380
  117OSM   H11B12171   0.006   5.044   7.033  1.0758 -0.1288 -1.6731
  117OSM      P12172  -0.175   4.860   7.111 -0.0953 -0.0202 -0.3984
  117OSM    O1312173  -0.225   4.733   7.149 -0.5121 -0.6708  0.0065
  117OSM    O1412174  -0.207   4.977   7.197 -0.2429 -0.0114  0.3132
  117OSM    O1112175  -0.219   4.900   6.964 -0.8267 -0.2285 -0.5527
  117OSM    O1212176  -0.022   4.844   7.097  0.2370 -0.7838 -0.4610
  117OSM    C1S12177  -0.222   4.797   6.871 -0.4895 -0.2333  0.1249
  117OSM    H1S12178  -0.307   4.730   6.895  0.0770 -0.3347  2.0102
  117OSM    H1T12179  -0.129   4.735   6.867  0.1490  0.7608 -2.7754
  117OSM     NF12180  -0.207   4.726   6.638  0.6548  0.6072  0.2750
  117OSM    HNF12181  -0.130   4.731   6.575 -0.1633  2.1822 -0.6622
  117OSM    C2S12182  -0.226   4.842   6.723 -0.9648  0.2196  0.4352
  117OSM    H2S12183  -0.324   4.890   6.704 -0.6117  1.5410  1.7749
  117OSM    C3S12184  -0.125   4.962   6.702 -0.2232 -0.2843  0.9999
  117OSM    H3S12185  -0.020   4.936   6.727 -0.3235 -1.0092  0.7092
  117OSM     O312186  -0.150   5.078   6.776  0.2581  0.5532 -0.2311
  117OSM    HO312187  -0.174   5.037   6.860 -1.9631 -0.5853 -1.3308
  117OSM    C4S12188  -0.132   4.995   6.553 -0.3595 -0.3744 -0.1765
  117OSM    H4S12189  -0.223   5.053   6.534 -0.2017 -0.3473 -0.8745
  117OSM    C5S12190  -0.039   4.973   6.458  0.1091 -0.7054 -0.0008
  117OSM    H5S12191   0.049   4.917   6.494  1.2728  0.0062 -1.6471
  117OSM    C6S12192  -0.038   5.016   6.318 -0.3100  0.0074  0.1208
  117OSM    H6S12193   0.068   5.041   6.297 -0.3227 -1.3433 -1.6859
  117OSM    H6T12194  -0.081   5.118   6.306  1.5961  0.7987 -0.4373
  117OSM    C7S12195  -0.083   4.912   6.215 -0.4354 -0.1697 -0.8212
  117OSM    H7S12196  -0.193   4.913   6.228 -0.4259 -0.0402 -0.7458
  117OSM    H7T12197  -0.039   4.814   6.244  0.1496  0.7956  1.8990
  117OSM    C8S12198  -0.038   4.965   6.073  0.3035 -0.5309  0.2402
  117OSM    H8S12199   0.071   4.982   6.066  0.3890 -1.6982 -1.9771
  117OSM    H8T12200  -0.083   5.063   6.048  0.7644 -0.1068  1.0287
  117OSM    C9S12201  -0.075   4.875   5.951 -0.0640 -1.0253  0.9762
  117OSM    H9S12202  -0.182   4.849   5.963 -1.0145  1.9342 -0.2537
  117OSM    H9T12203  -0.028   4.775   5.963 -1.8606 -1.7372  2.6358
  117OSM   C10S12204  -0.042   4.939   5.806 -0.4286  0.8782 -0.0629
  117OSM   H10S12205  -0.015   4.869   5.725 -1.2211  1.2822 -0.6910
  117OSM   H10T12206   0.051   4.996   5.825  0.7844 -1.2521  0.7055
  117OSM   C11S12207  -0.158   5.020   5.750 -0.8582 -0.3039 -0.0616
  117OSM   H11S12208  -0.190   5.084   5.834  1.0115  0.2693  0.2736
  117OSM   H11T12209  -0.236   4.946   5.721 -0.5657 -0.9649  0.8006
  117OSM   C12S12210  -0.115   5.109   5.629  0.2853 -0.4987 -0.3334
  117OSM   H12S12211  -0.042   5.053   5.566 -0.0977 -0.5743 -0.7149
  117OSM   H12T12212  -0.067   5.204   5.659 -1.5082  1.1168 -2.2867
  117OSM   C13S12213  -0.238   5.147   5.536  0.0413 -0.3519 -0.1770
  117OSM   H13S12214  -0.301   5.218   5.593  0.7804 -0.5108  0.8558
  117OSM   H13T12215  -0.295   5.056   5.506  0.9659 -0.1463 -2.8630
  117OSM   C14S12216  -0.189   5.221   5.405  0.2238  0.0814 -0.1987
  117OSM   H14S12217  -0.127   5.148   5.348 -0.4061 -2.1463  1.8228
  117OSM   H14T12218  -0.122   5.300   5.444  0.5255  0.7255 -1.9012
  117OSM   C15S12219  -0.295   5.273   5.316  0.0665 -0.2893  0.2374
  117OSM   H15S12220  -0.364   5.337   5.375  1.2957  1.3579 -0.0295
  117OSM   H15T12221  -0.348   5.185   5.276 -0.0944 -0.2034  0.2611
  117OSM   C16S12222  -0.244   5.371   5.201 -0.9423 -0.1353 -0.8790
  117OSM   H16S12223  -0.176   5.444   5.252 -0.1632  0.5160 -2.7589
  117OSM   H16T12224  -0.327   5.435   5.165 -1.7265  0.8554  2.3569
  117OSM   C17S12225  -0.186   5.294   5.085  0.2160  0.6182  0.1549
  117OSM   H17S12226  -0.100   5.244   5.134  1.3387  1.0132 -1.3441
  117OSM   H17T12227  -0.149   5.360   5.003 -1.5152 -0.5641 -1.6740
  117OSM   C18S12228  -0.272   5.185   5.025 -0.0516 -0.4197  0.4161
  117OSM   H18S12229  -0.356   5.232   4.969  0.5720  0.7054  0.3903
  117OSM   H18T12230  -0.319   5.122   5.104 -0.9145  0.0135  0.2592
  117OSM   H18U12231  -0.213   5.119   4.959  1.8507  1.2610  0.3379
  117OSM    C1F12232  -0.298   4.634   6.624  0.3582 -0.0759  0.7142
  117OSM     OF12233  -0.406   4.631   6.681 -0.1510  0.2150 -0.0227
  117OSM    C2F12234  -0.274   4.533   6.517  0.4233  0.2100 -0.2236
  117OSM    H2F12235  -0.352   4.459   6.543 -0.6788  0.8805 -1.5096
  117OSM    H2G12236  -0.176   4.482   6.520  0.1974 -0.3583 -1.7498
  117OSM    C3F12237  -0.303   4.593   6.380  0.0944  0.1794  0.4086
  117OSM    H3F12238  -0.242   4.684   6.361 -0.2317  0.3299  0.0857
  117OSM    H3G12239  -0.405   4.637   6.374 -0.8253 -1.6519  1.5774
  117OSM    C4F12240  -0.292   4.502   6.261  0.8758  0.0861 -0.2177
  117OSM    H4F12241  -0.352   4.410   6.276  0.4607 -0.0887 -2.5954
  117OSM    H4G12242  -0.187   4.475   6.237  0.0499 -0.5275 -3.6928
  117OSM    C5F12243  -0.343   4.564   6.124 -0.1301 -0.0182  0.0471
  117OSM    H5F12244  -0.314   4.669   6.106  0.1172 -0.3387 -1.5647
  117OSM    H5G12245  -0.454   4.559   6.131 -0.1727  0.1151 -0.5126
  117OSM    C6F12246  -0.300   4.472   6.007 -0.5499 -0.1801 -0.2331
  117OSM    H6F12247  -0.317   4.364   6.029 -1.7219 -0.1451 -0.8642
  117OSM    H6G12248  -0.190   4.489   6.002 -0.8181  1.4611 -2.1297
  117OSM    C7F12249  -0.353   4.524   5.870  0.2610  0.4830  0.4487
  117OSM    H7F12250  -0.346   4.634   5.862 -0.9940  0.5300 -0.1483
  117OSM    H7G12251  -0.459   4.503   5.844 -0.0722  0.9696  1.3655
  117OSM    C8F12252  -0.274   4.460   5.752 -0.3811 -0.7991 -0.3301
  117OSM    H8F12253  -0.339   4.453   5.663 -0.3317  0.4790 -0.4877
  117OSM    H8G12254  -0.255   4.351   5.762 -0.3626 -1.3199 -4.3107
  117OSM    C9F12255  -0.149   4.538   5.712  0.4711 -0.9126 -0.1329
  117OSM    H9F12256  -0.068   4.536   5.787  1.2747 -3.2723 -0.9456
  117OSM   C10F12257  -0.137   4.607   5.599 -0.1533 -0.8146  0.5242
  117OSM   H10F12258  -0.051   4.670   5.575 -2.7952  2.1488 -2.1289
  117OSM   C11F12259  -0.247   4.625   5.495  0.2470  0.1320 -0.2970
  117OSM   H11F12260  -0.248   4.728   5.452 -0.3955  1.7019  3.1787
  117OSM   H11G12261  -0.353   4.617   5.527  0.0934  0.1746 -0.7742
  117OSM   C12F12262  -0.220   4.534   5.376 -0.0224  0.7875 -0.5037
  117OSM   H12F12263  -0.252   4.431   5.402  0.9325  0.3893 -0.8839
  117OSM   H12G12264  -0.112   4.533   5.353  0.0743 -1.8759 -0.3175
  117OSM   C13F12265  -0.289   4.579   5.247  0.0518  0.1836 -0.0921
  117OSM   H13F12266  -0.236   4.673   5.219 -1.1373  1.1057  0.6463
  117OSM   H13G12267  -0.392   4.606   5.276  0.5825  2.5909 -0.2106
  117OSM   C14F12268  -0.289   4.476   5.137  0.1063  0.9471 -0.0403
  117OSM   H14F12269  -0.334   4.381   5.172  0.4696  0.5172 -0.7082
  117OSM   H14G12270  -0.181   4.449   5.124 -0.3491 -1.9753  1.3162
  117OSM   C15F12271  -0.354   4.519   5.006  0.4819 -0.0951 -0.6863
  117OSM   H15F12272  -0.318   4.621   4.980 -0.3477  0.7899  1.4616
  117OSM   H15G12273  -0.465   4.522   5.010  0.4304  1.0818 -2.2458
  117OSM   C16F12274  -0.328   4.431   4.892  0.2742 -0.0697  0.4585
  117OSM   H16F12275  -0.358   4.325   4.909  0.3701 -0.1736  0.0052
  117OSM   H16G12276  -0.221   4.427   4.861  0.6984  0.9374  1.7402
  117OSM   C17F12277  -0.411   4.477   4.767  0.0144  0.3861 -0.9344
  117OSM   H17F12278  -0.399   4.588   4.766  0.1219  0.3812 -0.5278
  117OSM   H17G12279  -0.516   4.454   4.793  0.0536  1.4242  0.2213
  117OSM   C18F12280  -0.358   4.423   4.632  0.3200  0.2500  0.9690
  117OSM   H18F12281  -0.372   4.312   4.632  0.5435  0.2194  0.4049
  117OSM   H18G12282  -0.250   4.447   4.624  0.6689 -1.7305 -1.3689
  117OSM   H18H12283  -0.413   4.474   4.550  0.6966  0.3471  0.7774
  118OSM      N12284   6.352   3.001   6.802 -1.2068 -0.3080 -0.4121
  118OSM    C1512285   6.223   2.937   6.840  0.0593 -0.3233  0.4943
  118OSM   H15A12286   6.203   2.933   6.947 -2.0242 -0.4601  0.1477
  118OSM   H15B12287   6.214   2.838   6.798  0.9110 -0.3759  0.4142
  118OSM   H15C12288   6.144   3.006   6.814  0.5781  0.3792  0.7245
  118OSM    C1412289   6.331   3.148   6.821  0.1620 -0.0310 -0.3347
  118OSM   H14A12290   6.263   3.191   6.749  1.3663 -0.5191 -1.8353
  118OSM   H14B12291   6.426   3.197   6.807 -0.1779 -0.0036 -3.1737
  118OSM   H14C12292   6.304   3.174   6.922  0.7822  1.4070 -0.5185
  118OSM    C1312293   6.465   2.953   6.888  0.3410 -0.3644  0.2140
  118OSM   H13A12294   6.465   2.988   6.991  0.6519 -2.6586  1.0456
  118OSM   H13B12295   6.553   3.007   6.854 -0.2089  0.9379  0.7706
  118OSM   H13C12296   6.481   2.847   6.875 -0.9455 -0.3252 -2.2971
  118OSM    C1212297   6.381   2.973   6.655  0.1589 -0.0251 -0.4052
  118OSM   H12A12298   6.291   3.001   6.601 -0.9042  0.0621  1.3320
  118OSM   H12B12299   6.376   2.865   6.648 -0.3177 -0.0301 -0.0653
  118OSM    C1112300   6.506   3.028   6.604 -0.7595 -0.3605  0.3216
  118OSM   H11A12301   6.509   3.136   6.630  1.8150 -0.3812  0.3622
  118OSM   H11B12302   6.496   3.017   6.494 -0.9323  0.3990  0.2551
  118OSM      P12303   6.648   2.812   6.593 -0.1665  0.2633 -0.4369
  118OSM    O1312304   6.784   2.758   6.634  0.8883 -0.0302  0.0751
  118OSM    O1412305   6.529   2.718   6.610  0.4889  0.0761  0.1427
  118OSM    O1112306   6.653   2.848   6.433 -0.7690 -0.3189 -0.2649
  118OSM    O1212307   6.622   2.957   6.651  0.5581  0.0972  0.4223
  118OSM    C1S12308   6.734   2.963   6.381  0.4651  0.4917 -0.7322
  118OSM    H1S12309   6.840   2.953   6.412 -0.0130 -0.5297  0.6952
  118OSM    H1T12310   6.692   3.060   6.416 -0.6047 -0.3299  0.3576
  118OSM     NF12311   6.838   3.043   6.173  0.4729  0.2163  0.3721
  118OSM    HNF12312   6.808   3.130   6.135 -0.5237 -0.0022  0.6333
  118OSM    C2S12313   6.738   2.952   6.227  0.1092 -1.0232 -0.6874
  118OSM    H2S12314   6.758   2.850   6.186  0.7918 -0.9179 -0.6337
  118OSM    C3S12315   6.596   2.991   6.166 -0.1908  0.0984  0.5518
  118OSM    H3S12316   6.553   3.084   6.208  1.6923  2.3425 -2.1558
  118OSM     O312317   6.498   2.890   6.189  0.1452 -0.3560  0.0605
  118OSM    HO312318   6.538   2.839   6.259  1.5626  0.3101 -0.2373
  118OSM    C4S12319   6.609   3.012   6.017 -0.4453 -0.7895 -0.3998
  118OSM    H4S12320   6.642   2.919   5.967 -1.4471 -0.9648 -0.7632
  118OSM    C5S12321   6.583   3.124   5.949  0.5032 -0.8379  0.3587
  118OSM    H5S12322   6.559   3.216   6.004  1.3248  0.0033 -0.6344
  118OSM    C6S12323   6.603   3.144   5.801 -0.1592  0.4914 -0.1309
  118OSM    H6S12324   6.568   3.050   5.753  0.6220  0.3323 -0.3931
  118OSM    H6T12325   6.711   3.164   5.788 -0.3117  1.7310  0.3166
  118OSM    C7S12326   6.512   3.255   5.737  0.1542  0.4078  0.2901
  118OSM    H7S12327   6.546   3.349   5.786 -1.9383  1.2209  0.2835
  118OSM    H7T12328   6.408   3.231   5.766 -0.2830 -0.8206 -2.0578
  118OSM    C8S12329   6.533   3.264   5.584 -0.7601  0.0069  0.2383
  118OSM    H8S12330   6.435   3.291   5.540 -0.2257 -0.2641 -1.1479
  118OSM    H8T12331   6.556   3.161   5.552 -2.2798 -0.3021  0.0815
  118OSM    C9S12332   6.636   3.366   5.551 -0.8664 -0.2213  0.2522
  118OSM    H9S12333   6.739   3.329   5.573  0.0773  0.3256 -2.7504
  118OSM    H9T12334   6.621   3.456   5.614 -0.8835 -0.4583  0.5885
  118OSM   C10S12335   6.630   3.410   5.396  0.4833  0.2172 -0.2073
  118OSM   H10S12336   6.716   3.480   5.387 -0.2783  1.0401 -1.3063
  118OSM   H10T12337   6.532   3.461   5.387  0.5823  0.2309 -1.2758
  118OSM   C11S12338   6.643   3.288   5.302 -0.4481  0.4938  0.8807
  118OSM   H11S12339   6.557   3.221   5.324 -0.3198  0.7448  2.2544
  118OSM   H11T12340   6.736   3.227   5.307  0.1581  1.4423  1.5916
  118OSM   C12S12341   6.631   3.331   5.152 -0.0238  0.7165 -0.2391
  118OSM   H12S12342   6.523   3.355   5.139 -0.9624 -2.3607  0.8414
  118OSM   H12T12343   6.652   3.256   5.073 -0.6028  1.0369 -0.7039
  118OSM   C13S12344   6.716   3.447   5.115  0.2826  0.6380  0.5397
  118OSM   H13S12345   6.816   3.419   5.155 -0.1020 -2.8242 -0.6519
  118OSM   H13T12346   6.674   3.537   5.165 -2.5768 -0.3489  0.0968
  118OSM   C14S12347   6.735   3.459   4.963  0.2617  0.2916  0.3467
  118OSM   H14S12348   6.697   3.368   4.912  2.3541  0.5888 -1.9429
  118OSM   H14T12349   6.841   3.475   4.933  0.4450 -0.5103  0.5265
  118OSM   C15S12350   6.663   3.580   4.898  0.0412  0.2708  0.7196
  118OSM   H15S12351   6.717   3.676   4.910  0.4390  0.2357 -0.7158
  118OSM   H15T12352   6.562   3.595   4.943 -1.4225  0.2705 -2.3075
  118OSM   C16S12353   6.634   3.563   4.747  0.0214  0.4081 -0.1500
  118OSM   H16S12354   6.537   3.508   4.740 -2.3713  4.0498  1.0435
  118OSM   H16T12355   6.717   3.511   4.696 -1.6318 -2.6441  0.0046
  118OSM   C17S12356   6.598   3.692   4.671 -0.2651  0.4781 -0.2640
  118OSM   H17S12357   6.530   3.741   4.745  1.2131  0.3220  1.2659
  118OSM   H17T12358   6.538   3.666   4.582  1.7802  0.9841 -1.8565
  118OSM   C18S12359   6.721   3.779   4.646 -0.3478  0.6603  0.2359
  118OSM   H18S12360   6.772   3.795   4.744  0.5126  0.0975 -0.1115
  118OSM   H18T12361   6.688   3.877   4.606 -0.0003  1.2881  1.4234
  118OSM   H18U12362   6.791   3.739   4.570 -1.1344  1.1868 -0.7894
  118OSM    C1F12363   6.965   3.017   6.191 -0.4843 -0.2255 -0.5315
  118OSM     OF12364   7.004   2.918   6.260  0.2189 -0.3821  0.5404
  118OSM    C2F12365   7.062   3.127   6.153  0.7393  0.4638 -0.1857
  118OSM    H2F12366   7.141   3.138   6.231  0.5494 -3.5382  0.8061
  118OSM    H2G12367   7.011   3.225   6.142 -1.8894 -0.8675 -0.4753
  118OSM    C3F12368   7.102   3.105   6.005 -0.4723  0.1285  0.1574
  118OSM    H3F12369   7.138   3.001   5.988  1.6929  0.0939  3.7046
  118OSM    H3G12370   7.186   3.176   5.985 -1.8504  1.5319 -0.8641
  118OSM    C4F12371   6.996   3.147   5.902 -1.0173  1.1689  0.3599
  118OSM    H4F12372   6.963   3.251   5.921 -1.7832  0.9688  0.1703
  118OSM    H4G12373   6.901   3.091   5.914 -0.1977 -0.1471  0.9805
  118OSM    C5F12374   7.047   3.133   5.757  0.2261  0.0556 -0.2367
  118OSM    H5F12375   7.050   3.026   5.724 -1.7036 -0.1784  0.2287
  118OSM    H5G12376   7.148   3.179   5.762 -0.4564  1.6414 -0.6498
  118OSM    C6F12377   6.969   3.214   5.660  0.0384 -0.3461 -0.0595
  118OSM    H6F12378   6.948   3.314   5.705 -0.9148 -1.4497  2.0909
  118OSM    H6G12379   6.870   3.165   5.651  0.1443 -0.9674  1.8048
  118OSM    C7F12380   7.024   3.253   5.523 -0.1842  0.2198  0.2938
  118OSM    H7F12381   7.112   3.319   5.538  1.1898 -1.6451  0.7570
  118OSM    H7G12382   6.946   3.307   5.466 -0.1684 -2.7160 -2.8307
  118OSM    C8F12383   7.048   3.122   5.439  0.0716  0.2674 -0.1334
  118OSM    H8F12384   6.944   3.090   5.416  0.0892 -0.0019  0.1387
  118OSM    H8G12385   7.104   3.041   5.490  1.7116  1.2863 -0.2590
  118OSM    C9F12386   7.140   3.148   5.319  0.2896  0.3891  0.1808
  118OSM    H9F12387   7.234   3.199   5.346 -0.5235  1.6722  0.6879
  118OSM   C10F12388   7.118   3.119   5.190  0.0196  0.8218 -0.4088
  118OSM   H10F12389   7.200   3.124   5.117 -0.6992 -1.1032 -1.4097
  118OSM   C11F12390   6.995   3.063   5.121  0.2132 -0.2699  0.1401
  118OSM   H11F12391   6.911   3.053   5.193 -1.2527  0.8582 -1.3334
  118OSM   H11G12392   7.012   2.959   5.084  2.9846  0.2312 -0.2031
  118OSM   C12F12393   6.948   3.161   5.011 -0.0137  0.0041  0.3013
  118OSM   H12F12394   6.968   3.267   5.036 -3.0903  0.2080  2.3728
  118OSM   H12G12395   6.838   3.161   4.995  0.1317  3.6736 -1.6844
  118OSM   C13F12396   7.004   3.126   4.873  0.3035  0.3490 -0.1821
  118OSM   H13F12397   6.987   3.017   4.859 -2.1995  0.6266  0.2441
  118OSM   H13G12398   7.115   3.130   4.882  0.4268 -1.8555 -0.0001
  118OSM   C14F12399   6.929   3.200   4.766 -0.6375  0.4240 -0.0761
  118OSM   H14F12400   6.944   3.310   4.776 -0.8754  0.7274 -2.3887
  118OSM   H14G12401   6.821   3.175   4.777 -0.2210 -0.4379  2.7152
  118OSM   C15F12402   6.971   3.157   4.623  0.0362 -0.3572  0.2520
  118OSM   H15F12403   7.075   3.192   4.607  0.0461 -0.6210 -0.2674
  118OSM   H15G12404   6.911   3.198   4.539 -0.8681 -0.0829  1.0100
  118OSM   C16F12405   6.975   3.005   4.594 -0.4295 -0.1659 -0.4861
  118OSM   H16F12406   6.872   2.962   4.604 -1.1623  1.9321  1.9982
  118OSM   H16G12407   7.037   2.952   4.670 -0.5565  0.4175  0.0319
  118OSM   C17F12408   7.016   2.973   4.449 -0.5324 -0.0195 -0.1124
  118OSM   H17F12409   6.990   3.055   4.378  1.5296  0.9956  0.2213
  118OSM   H17G12410   6.943   2.893   4.425 -1.6189  0.7194  0.6197
  118OSM   C18F12411   7.158   2.917   4.428 -0.0708 -0.0527 -0.0307
  118OSM   H18F12412   7.178   2.829   4.492 -0.6185  0.4909  0.9007
  118OSM   H18G12413   7.245   2.984   4.446  0.0727  0.5154 -2.4321
  118OSM   H18H12414   7.175   2.875   4.326  1.8571  0.9034 -0.1496
  119OSM      N12415   1.929   0.908   6.961  0.5760 -0.0589 -0.1955
  119OSM    C1512416   1.785   0.871   6.955  0.2935 -0.5457  0.1585
  119OSM   H15A12417   1.742   0.970   6.949  3.7300  1.1716  1.1696
  119OSM   H15B12418   1.745   0.815   7.038  1.6347  0.4741  1.5731
  119OSM   H15C12419   1.763   0.812   6.868  3.5199 -0.1364 -1.0843
  119OSM    C1412420   1.950   0.995   6.834 -0.3390  0.1416  0.6529
  119OSM   H14A12421   2.057   0.999   6.819 -0.3199 -0.0806  0.7192
  119OSM   H14B12422   1.927   1.097   6.862 -0.5164 -0.0705  1.3043
  119OSM   H14C12423   1.885   0.952   6.760 -0.4066  0.1691  0.6963
  119OSM    C1312424   1.967   0.992   7.078  0.9364  0.3993 -0.1202
  119OSM   H13A12425   1.924   1.091   7.080  0.8521  0.3939 -1.2078
  119OSM   H13B12426   2.071   1.019   7.066  0.2340  3.0846 -0.9024
  119OSM   H13C12427   1.939   0.939   7.168  0.8729  2.0962  0.9037
  119OSM    C1212428   2.013   0.786   6.966 -0.4648 -0.9703  0.1598
  119OSM   H12A12429   2.000   0.735   6.872  0.1832 -0.9867  0.0730
  119OSM   H12B12430   1.986   0.725   7.051 -3.4461 -1.9245 -1.3443
  119OSM    C1112431   2.163   0.810   6.976 -0.3440  0.1842  0.3219
  119OSM   H11A12432   2.216   0.713   6.971 -0.9220 -0.1548  0.6099
  119OSM   H11B12433   2.206   0.854   7.069  0.6974 -0.1637  0.0111
  119OSM      P12434   2.340   0.884   6.805  0.1806 -0.3174  0.0426
  119OSM    O1312435   2.352   0.987   6.700 -0.3625 -0.3560 -0.5427
  119OSM    O1412436   2.448   0.878   6.907  0.0469  0.2457  0.0104
  119OSM    O1112437   2.323   0.746   6.742 -0.3597 -0.4084 -1.1555
  119OSM    O1212438   2.201   0.904   6.882  0.3910 -0.0538  0.5121
  119OSM    C1S12439   2.225   0.705   6.638  0.0977  0.3867 -0.6541
  119OSM    H1S12440   2.130   0.761   6.646  0.9602  2.0330 -1.4998
  119OSM    H1T12441   2.207   0.598   6.659  0.8488  0.0092 -1.8277
  119OSM     NF12442   2.159   0.702   6.394 -0.8557 -0.2140 -0.2443
  119OSM    HNF12443   2.184   0.629   6.330  1.2194 -0.6572  0.9852
  119OSM    C2S12444   2.263   0.733   6.491 -0.7955 -0.3135  0.3012
  119OSM    H2S12445   2.282   0.842   6.483  0.3053 -0.4509  0.8491
  119OSM    C3S12446   2.401   0.661   6.462 -0.4445 -0.3203 -0.8669
  119OSM    H3S12447   2.397   0.551   6.477 -1.8523 -0.0573  1.1598
  119OSM     O312448   2.502   0.698   6.555 -1.1558 -0.0994 -0.1289
  119OSM    HO312449   2.461   0.707   6.642  2.6815  0.9186  1.7801
  119OSM    C4S12450   2.444   0.684   6.323  0.0314 -0.2654  0.1965
  119OSM    H4S12451   2.408   0.607   6.254 -0.2388  2.0955 -2.4900
  119OSM    C5S12452   2.507   0.796   6.274 -0.7576 -0.4695 -0.1153
  119OSM    H5S12453   2.528   0.873   6.350  1.1904  0.9370 -1.9191
  119OSM    C6S12454   2.542   0.831   6.135 -0.5836 -0.3292  0.6375
  119OSM    H6S12455   2.644   0.876   6.139 -0.3026 -0.7202 -1.2005
  119OSM    H6T12456   2.473   0.909   6.096 -2.3755 -1.9370  0.4858
  119OSM    C7S12457   2.552   0.719   6.031 -0.3780 -0.1068  0.1325
  119OSM    H7S12458   2.448   0.681   6.019  0.0801 -1.2586 -0.3896
  119OSM    H7T12459   2.602   0.624   6.059 -1.8755 -0.5626  1.4293
  119OSM    C8S12460   2.605   0.779   5.901  0.0868 -0.0079 -0.0577
  119OSM    H8S12461   2.712   0.805   5.912  0.5203 -0.1235 -3.1384
  119OSM    H8T12462   2.557   0.875   5.871  2.7472  1.2625 -0.5834
  119OSM    C9S12463   2.580   0.677   5.785  0.7897  0.4537 -0.2245
  119OSM    H9S12464   2.469   0.665   5.787  0.7734  0.5698 -0.3990
  119OSM    H9T12465   2.612   0.574   5.811 -1.4815 -0.2092  0.2231
  119OSM   C10S12466   2.631   0.721   5.644  0.9274 -0.5114  1.2888
  119OSM   H10S12467   2.741   0.710   5.643  1.2013  1.7583  0.7755
  119OSM   H10T12468   2.611   0.829   5.626 -3.0446 -1.3512 -0.3471
  119OSM   C11S12469   2.572   0.639   5.532 -0.5247 -0.6344  0.1564
  119OSM   H11S12470   2.462   0.637   5.549 -0.8966  1.5623 -1.5679
  119OSM   H11T12471   2.609   0.534   5.541  1.2507 -0.1481 -0.9645
  119OSM   C12S12472   2.589   0.695   5.394  0.4260 -0.2381 -0.6753
  119OSM   H12S12473   2.699   0.712   5.389  0.3453  1.6579  1.7954
  119OSM   H12T12474   2.548   0.796   5.369  0.3770  0.2792  1.3270
  119OSM   C13S12475   2.545   0.593   5.284 -0.2374 -0.4382  0.1253
  119OSM   H13S12476   2.456   0.539   5.322  0.7806 -0.5462  2.5063
  119OSM   H13T12477   2.633   0.526   5.284  0.5060  0.5140  0.3334
  119OSM   C14S12478   2.518   0.659   5.148 -0.4970 -0.0876  0.5336
  119OSM   H14S12479   2.588   0.743   5.128 -0.1477 -0.5211 -0.1034
  119OSM   H14T12480   2.412   0.692   5.150 -0.6758 -0.6819  1.7548
  119OSM   C15S12481   2.534   0.555   5.034 -0.3828 -0.3060 -0.0087
  119OSM   H15S12482   2.442   0.492   5.037 -1.1340  0.7774  0.2278
  119OSM   H15T12483   2.625   0.492   5.044 -0.7468 -0.7872  0.3415
  119OSM   C16S12484   2.531   0.625   4.898 -0.5392  0.5705 -0.1425
  119OSM   H16S12485   2.597   0.713   4.911 -0.3983  0.5373 -0.6165
  119OSM   H16T12486   2.429   0.667   4.884 -1.5274 -0.9784  1.7261
  119OSM   C17S12487   2.570   0.542   4.777  0.7598  0.9086 -0.4320
  119OSM   H17S12488   2.515   0.446   4.779  1.9297  0.2012  1.8110
  119OSM   H17T12489   2.672   0.510   4.807  0.2153  0.6577  1.3022
  119OSM   C18S12490   2.573   0.602   4.641  0.1406 -0.0252 -0.2050
  119OSM   H18S12491   2.613   0.534   4.563  1.7874  1.2710 -0.5413
  119OSM   H18T12492   2.623   0.700   4.634  1.0038 -0.3289  1.2600
  119OSM   H18U12493   2.471   0.628   4.606  0.5875 -0.8594 -2.3306
  119OSM    C1F12494   2.036   0.760   6.387  0.8657  0.8247 -0.0161
  119OSM     OF12495   1.997   0.847   6.459 -0.7084  0.3807  0.3287
  119OSM    C2F12496   1.952   0.700   6.282 -0.2460  0.6771 -0.3366
  119OSM    H2F12497   1.922   0.596   6.306  0.5298  0.4569 -0.2993
  119OSM    H2G12498   2.003   0.703   6.183  1.4745  0.0974  0.4821
  119OSM    C3F12499   1.823   0.791   6.258 -0.4731 -0.6892  0.1809
  119OSM    H3F12500   1.856   0.896   6.238 -0.2492 -0.7779  0.0846
  119OSM    H3G12501   1.762   0.792   6.351  2.2131 -0.1509  2.0446
  119OSM    C4F12502   1.730   0.738   6.152 -0.8291  0.0942 -0.3102
  119OSM    H4F12503   1.638   0.801   6.157  0.1028  1.7655 -2.6055
  119OSM    H4G12504   1.714   0.629   6.169  0.6365 -0.3745 -1.7237
  119OSM    C5F12505   1.786   0.761   6.011 -0.5588 -0.6511  0.2641
  119OSM    H5F12506   1.889   0.721   6.003 -1.3550 -2.6399 -0.5084
  119OSM    H5G12507   1.785   0.871   5.995 -0.6594 -0.6771  0.0946
  119OSM    C6F12508   1.709   0.679   5.908  0.1931  0.1309 -0.8290
  119OSM    H6F12509   1.611   0.731   5.898  0.5300  0.7701 -0.8339
  119OSM    H6G12510   1.687   0.581   5.956  1.1457  1.1165  1.7774
  119OSM    C7F12511   1.777   0.672   5.772  0.4021 -0.0643  0.1480
  119OSM    H7F12512   1.886   0.655   5.785  0.2312  0.3750  2.7727
  119OSM    H7G12513   1.767   0.766   5.713 -0.1480 -1.5374 -2.2204
  119OSM    C8F12514   1.718   0.567   5.675  0.1695  0.3971 -0.3186
  119OSM    H8F12515   1.782   0.580   5.585  0.5029  0.9928 -0.0033
  119OSM    H8G12516   1.615   0.596   5.648  0.5253  3.1325  0.9533
  119OSM    C9F12517   1.719   0.429   5.737 -0.5629 -0.2589 -0.1459
  119OSM    H9F12518   1.675   0.424   5.838 -0.5077  3.3130  0.1761
  119OSM   C10F12519   1.781   0.319   5.684  0.0252 -0.2690 -0.2339
  119OSM   H10F12520   1.763   0.228   5.742 -0.3023 -0.7175 -1.0216
  119OSM   C11F12521   1.858   0.305   5.558  0.3677 -0.3820  0.6511
  119OSM   H11F12522   1.947   0.239   5.566  1.7951  1.4550  0.7237
  119OSM   H11G12523   1.901   0.406   5.538  0.9771 -0.1460  2.8253
  119OSM   C12F12524   1.766   0.265   5.437  0.0004  0.8514  0.0419
  119OSM   H12F12525   1.822   0.268   5.341 -1.1214  0.2612 -0.6584
  119OSM   H12G12526   1.680   0.335   5.437 -2.5910 -2.0013 -2.2130
  119OSM   C13F12527   1.725   0.119   5.452 -0.6562 -0.3441 -0.3368
  119OSM   H13F12528   1.643   0.100   5.524 -3.3849  0.8079 -2.9320
  119OSM   H13G12529   1.811   0.058   5.487 -0.8597 -0.7663 -0.5729
  119OSM   C14F12530   1.673   0.047   5.334 -0.0504 -0.1179 -0.4236
  119OSM   H14F12531   1.619   0.125   5.275  0.8732  0.2281 -0.8315
  119OSM   H14G12532   1.609  -0.037   5.367  0.3650  0.4946  2.1373
  119OSM   C15F12533   1.773  -0.026   5.242  0.2268 -0.4991 -0.0500
  119OSM   H15F12534   1.717  -0.075   5.159 -2.8209  1.4107  0.7193
  119OSM   H15G12535   1.821  -0.101   5.308  0.1724 -0.5106 -0.0240
  119OSM   C16F12536   1.886   0.055   5.169 -0.0649 -0.4697 -0.7917
  119OSM   H16F12537   1.965   0.089   5.239 -1.3807 -0.7895  0.9022
  119OSM   H16G12538   1.843   0.151   5.136 -0.3252 -0.9035 -1.7721
  119OSM   C17F12539   1.944  -0.025   5.051 -1.0834 -0.4812 -0.7222
  119OSM   H17F12540   2.000   0.048   4.989  0.6203 -1.6477 -0.6232
  119OSM   H17G12541   1.850  -0.055   5.001 -0.2614  1.1165 -3.4236
  119OSM   C18F12542   2.051  -0.138   5.079  0.2204 -0.6430  0.4522
  119OSM   H18F12543   2.122  -0.148   4.995 -0.5475 -0.7722 -0.1991
  119OSM   H18G12544   1.993  -0.229   5.105 -1.7854  0.5628  0.4577
  119OSM   H18H12545   2.108  -0.117   5.172 -2.6073  2.2612  1.7428
  120OSM      N12546   5.511   5.012   6.993 -0.1782  0.5162 -0.0035
  120OSM    C1512547   5.436   4.885   7.040 -0.3737 -0.0010 -0.3957
  120OSM   H15A12548   5.459   4.866   7.144  0.7610  1.6305 -0.2931
  120OSM   H15B12549   5.460   4.793   6.989 -2.6184 -0.4576 -0.7494
  120OSM   H15C12550   5.330   4.895   7.026 -0.2645 -0.4468 -1.5931
  120OSM    C1412551   5.445   5.135   7.051  0.1398  0.2357 -0.3108
  120OSM   H14A12552   5.340   5.137   7.027  0.0997  1.2742 -0.0806
  120OSM   H14B12553   5.488   5.232   7.032 -2.8853  1.9615  0.9524
  120OSM   H14C12554   5.440   5.123   7.158  0.6396  0.4254 -0.2632
  120OSM    C1312555   5.653   5.012   7.040  0.3771 -0.2170 -0.4140
  120OSM   H13A12556   5.657   5.019   7.148 -3.0707  1.6885 -0.2841
  120OSM   H13B12557   5.714   5.087   6.991 -0.8754 -0.5341 -2.5878
  120OSM   H13C12558   5.696   4.918   7.011 -1.0801 -0.3123 -2.4527
  120OSM    C1212559   5.498   5.006   6.843  0.1928  0.3246 -0.3388
  120OSM   H12A12560   5.530   5.098   6.796  1.8143 -0.2430 -0.4038
  120OSM   H12B12561   5.393   5.011   6.820  0.2506  1.7378 -0.4169
  120OSM    C1112562   5.556   4.888   6.771 -0.1667 -0.3117 -0.2336
  120OSM   H11A12563   5.664   4.878   6.794 -0.6467 -1.8316  1.5809
  120OSM   H11B12564   5.555   4.920   6.664  2.7727 -1.1048 -0.5909
  120OSM      P12565   5.345   4.730   6.726 -0.0327 -0.4680 -0.0689
  120OSM    O1312566   5.333   4.583   6.724  0.2082 -0.0200 -0.1506
  120OSM    O1412567   5.246   4.796   6.818  0.3647 -0.1203 -0.3839
  120OSM    O1112568   5.342   4.799   6.576  0.6275  0.1819  0.0274
  120OSM    O1212569   5.486   4.771   6.784 -0.7044  0.2168  0.4603
  120OSM    C1S12570   5.427   4.746   6.468  0.2055 -0.3747 -0.0274
  120OSM    H1S12571   5.400   4.640   6.452 -0.7120 -0.1131 -0.2687
  120OSM    H1T12572   5.533   4.752   6.502  0.9685 -2.0498 -1.8847
  120OSM     NF12573   5.496   4.779   6.231 -0.4729 -0.3220  0.2066
  120OSM    HNF12574   5.588   4.817   6.228 -0.2549 -0.8900 -0.8493
  120OSM    C2S12575   5.412   4.832   6.335  0.5822 -0.2948  0.5946
  120OSM    H2S12576   5.307   4.830   6.299 -0.0594 -1.3781  2.3820
  120OSM    C3S12577   5.456   4.977   6.370 -0.0982  0.3065 -0.4332
  120OSM    H3S12578   5.561   4.981   6.406 -0.3819  1.9435  0.3100
  120OSM     O312579   5.395   5.040   6.484  0.6573 -0.0181 -0.4423
  120OSM    HO312580   5.340   4.967   6.512  1.1405 -0.3014 -0.2300
  120OSM    C4S12581   5.449   5.080   6.258 -0.2261 -0.1801 -0.4913
  120OSM    H4S12582   5.546   5.086   6.207  1.0275 -1.0443  1.6762
  120OSM    C5S12583   5.337   5.141   6.216  0.4119  0.2392  1.5197
  120OSM    H5S12584   5.242   5.108   6.259  1.1708 -1.3367  2.1041
  120OSM    C6S12585   5.331   5.225   6.088 -0.1694 -0.1360 -0.0463
  120OSM    H6S12586   5.260   5.308   6.108 -0.6794 -0.2010 -1.5171
  120OSM    H6T12587   5.283   5.160   6.012 -0.5706 -1.1807  1.0577
  120OSM    C7S12588   5.452   5.296   6.029 -0.3603 -0.1606  0.4509
  120OSM    H7S12589   5.529   5.224   5.994  1.4395  2.5990 -1.7246
  120OSM    H7T12590   5.491   5.357   6.113  0.6658  0.2509 -0.3020
  120OSM    C8S12591   5.439   5.404   5.912 -0.5447 -0.1586 -0.6294
  120OSM    H8S12592   5.540   5.449   5.906 -1.6765  2.6601 -0.0204
  120OSM    H8T12593   5.379   5.493   5.941  0.7786  0.3289  0.7258
  120OSM    C9S12594   5.384   5.345   5.790  0.0590 -0.2192 -0.0548
  120OSM    H9S12595   5.277   5.319   5.805 -0.1455  0.0792 -0.9815
  120OSM    H9T12596   5.431   5.246   5.770  0.3320 -0.3640  1.1908
  120OSM   C10S12597   5.396   5.437   5.667  0.2411 -0.3735  0.0346
  120OSM   H10S12598   5.501   5.461   5.642  0.4340 -0.8349  0.3897
  120OSM   H10T12599   5.333   5.529   5.672 -0.0971 -0.5167 -1.2417
  120OSM   C11S12600   5.351   5.371   5.538 -0.2259 -0.4177 -0.9458
  120OSM   H11S12601   5.241   5.363   5.532 -0.2954 -0.2989 -0.0397
  120OSM   H11T12602   5.373   5.262   5.538 -1.3757 -0.6615 -0.8722
  120OSM   C12S12603   5.401   5.431   5.400 -0.3901  0.4223  0.0065
  120OSM   H12S12604   5.511   5.434   5.387  0.1579 -0.0889  3.4677
  120OSM   H12T12605   5.367   5.537   5.402  1.0744  0.9348 -0.9911
  120OSM   C13S12606   5.334   5.361   5.283 -0.1136 -0.6121  0.7537
  120OSM   H13S12607   5.227   5.388   5.277  0.2305  0.8180  0.8244
  120OSM   H13T12608   5.342   5.250   5.277  3.5498 -0.4648  0.6909
  120OSM   C14S12609   5.393   5.424   5.154  0.8968 -0.2967 -0.2024
  120OSM   H14S12610   5.503   5.441   5.158  0.5373  2.7938 -0.4627
  120OSM   H14T12611   5.340   5.522   5.146 -0.0398 -0.7038  0.6970
  120OSM   C15S12612   5.383   5.335   5.024 -0.6721 -0.2039 -0.1224
  120OSM   H15S12613   5.276   5.306   5.014 -1.2512  1.2921  1.2795
  120OSM   H15T12614   5.451   5.249   5.041 -1.4419 -0.4117  2.3515
  120OSM   C16S12615   5.417   5.417   4.896  0.8170  0.0481  0.0308
  120OSM   H16S12616   5.504   5.475   4.935 -0.2156  1.9202 -0.3448
  120OSM   H16T12617   5.334   5.489   4.879  0.8402  0.1630  0.4018
  120OSM   C17S12618   5.456   5.334   4.772 -0.4065  0.1863  0.6829
  120OSM   H17S12619   5.387   5.250   4.749  3.4358 -2.6140 -1.7022
  120OSM   H17T12620   5.553   5.283   4.790 -2.0307 -3.5295 -0.2910
  120OSM   C18S12621   5.456   5.414   4.631 -0.2304  0.3440 -0.1166
  120OSM   H18S12622   5.445   5.336   4.553 -0.1437  1.5205 -1.3584
  120OSM   H18T12623   5.556   5.461   4.616  1.2911 -3.0738 -1.6650
  120OSM   H18U12624   5.382   5.498   4.628  1.0674  1.4895 -2.0320
  120OSM    C1F12625   5.463   4.658   6.169  0.2471 -0.3023  0.1179
  120OSM     OF12626   5.354   4.615   6.180  0.9543 -0.1363  0.2066
  120OSM    C2F12627   5.569   4.594   6.087  0.0653 -0.4951  0.3466
  120OSM    H2F12628   5.624   4.523   6.153  0.3090  0.2654  0.9797
  120OSM    H2G12629   5.641   4.669   6.046 -0.9477 -0.0815 -0.7205
  120OSM    C3F12630   5.513   4.501   5.987 -0.0826  0.1492 -0.1243
  120OSM    H3F12631   5.421   4.450   6.022 -1.2879  0.5408 -2.4521
  120OSM    H3G12632   5.588   4.437   5.935  0.3311  0.0484  0.5962
  120OSM    C4F12633   5.474   4.584   5.854 -0.7078  0.2346 -0.2817
  120OSM    H4F12634   5.430   4.513   5.781  1.8560  0.1356 -1.8632
  120OSM    H4G12635   5.571   4.596   5.801 -1.4353 -3.4900 -2.8170
  120OSM    C5F12636   5.395   4.714   5.870 -0.2052 -0.6936 -0.6567
  120OSM    H5F12637   5.461   4.791   5.916 -0.7448 -0.6780  0.1041
  120OSM    H5G12638   5.313   4.702   5.944  0.4902  0.3105  0.3166
  120OSM    C6F12639   5.331   4.770   5.744 -0.0306 -0.2036 -0.6381
  120OSM    H6F12640   5.251   4.836   5.784 -0.1377 -0.6693 -0.0721
  120OSM    H6G12641   5.286   4.685   5.688  1.2209 -1.4761  0.2159
  120OSM    C7F12642   5.437   4.824   5.649 -0.4011  0.1884  0.1803
  120OSM    H7F12643   5.504   4.739   5.626 -3.1998 -2.5442  1.3371
  120OSM    H7G12644   5.497   4.906   5.694 -0.2347 -0.4805  1.2206
  120OSM    C8F12645   5.384   4.854   5.509  0.2271 -0.1308  0.0110
  120OSM    H8F12646   5.348   4.762   5.458 -0.9475 -2.1024  3.9926
  120OSM    H8G12647   5.479   4.888   5.463  0.5708 -2.0100 -0.7565
  120OSM    C9F12648   5.284   4.961   5.518  1.0911 -0.6181  0.1563
  120OSM    H9F12649   5.290   5.033   5.601 -4.2184  2.6779 -1.8117
  120OSM   C10F12650   5.189   4.988   5.420 -0.5194  0.3290 -0.1299
  120OSM   H10F12651   5.123   5.073   5.442  1.5852  2.7398 -2.5346
  120OSM   C11F12652   5.166   4.909   5.292 -0.2571 -0.0274 -0.2039
  120OSM   H11F12653   5.067   4.859   5.301 -0.1448 -0.1014  0.8122
  120OSM   H11G12654   5.236   4.823   5.279  0.1422 -0.5143  3.8098
  120OSM   C12F12655   5.156   5.013   5.180  0.4813  0.2763  0.2456
  120OSM   H12F12656   5.257   5.058   5.173  0.9903 -0.1409  3.2941
  120OSM   H12G12657   5.079   5.092   5.192 -2.0992 -1.9126 -0.8874
  120OSM   C13F12658   5.126   4.954   5.041  0.4018 -0.0349  0.2438
  120OSM   H13F12659   5.017   4.931   5.040  0.3704 -0.2312  2.9503
  120OSM   H13G12660   5.183   4.863   5.016 -1.0365 -1.7398  2.7526
  120OSM   C14F12661   5.141   5.051   4.912  0.0521 -0.2880  0.2092
  120OSM   H14F12662   5.127   4.985   4.824  0.8608  0.1789 -0.2829
  120OSM   H14G12663   5.244   5.092   4.916 -0.8770  2.2002  1.1599
  120OSM   C15F12664   5.045   5.174   4.919  0.2436  0.3234  0.2409
  120OSM   H15F12665   5.076   5.233   5.009 -1.7355 -1.7126  2.3833
  120OSM   H15G12666   4.942   5.136   4.928 -0.5152  2.4672  1.3894
  120OSM   C16F12667   5.042   5.255   4.787  0.1883 -0.2194 -0.0924
  120OSM   H16F12668   5.055   5.191   4.698  1.1834 -2.4106  1.5172
  120OSM   H16G12669   5.120   5.334   4.782  0.9308 -1.0208 -2.6147
  120OSM   C17F12670   4.908   5.334   4.776  1.1475  0.1867 -1.3044
  120OSM   H17F12671   4.898   5.391   4.870 -0.7856 -1.7851 -0.2228
  120OSM   H17G12672   4.833   5.252   4.771  2.0971 -1.1563  2.6007
  120OSM   C18F12673   4.897   5.426   4.656 -0.3846  0.7905 -0.0789
  120OSM   H18F12674   4.935   5.370   4.568 -0.7746 -0.2916  0.4367
  120OSM   H18G12675   4.967   5.512   4.654 -0.9449  1.2518 -0.4847
  120OSM   H18H12676   4.793   5.457   4.630 -1.5067 -1.8513  0.9244
  121OSM      N12677   5.700   0.556   6.843  0.0126 -0.9130 -0.3085
  121OSM    C1512678   5.552   0.584   6.845  0.4024 -0.4883  0.5187
  121OSM   H15A12679   5.493   0.493   6.848 -0.3208 -0.0130  1.3361
  121OSM   H15B12680   5.515   0.628   6.754  0.1306 -1.0901  0.3261
  121OSM   H15C12681   5.528   0.655   6.923  3.1553  0.0666  0.9437
  121OSM    C1412682   5.772   0.686   6.831  0.2981 -0.3049 -0.3823
  121OSM   H14A12683   5.743   0.755   6.908 -0.2984 -3.8479  2.8797
  121OSM   H14B12684   5.752   0.710   6.727  2.2872 -0.4001 -0.8109
  121OSM   H14C12685   5.878   0.669   6.834  0.3820 -1.2128 -3.8388
  121OSM    C1312686   5.725   0.490   6.972  0.9356 -0.7426 -0.6308
  121OSM   H13A12687   5.678   0.395   6.989 -0.2175 -0.0914 -0.0945
  121OSM   H13B12688   5.685   0.556   7.047  0.7433 -0.7742 -0.7068
  121OSM   H13C12689   5.830   0.476   6.994  0.9727  2.2443  1.7451
  121OSM    C1212690   5.726   0.468   6.719  0.2891  0.0050  0.4006
  121OSM   H12A12691   5.701   0.368   6.753 -1.0943  0.6749  1.4996
  121OSM   H12B12692   5.832   0.467   6.702  0.3552  1.1923  0.6765
  121OSM    C1112693   5.673   0.508   6.581 -1.0256 -0.1327 -0.2999
  121OSM   H11A12694   5.566   0.536   6.582 -0.3873  2.6383 -0.4096
  121OSM   H11B12695   5.678   0.434   6.499  1.2732  0.0835 -0.4321
  121OSM      P12696   5.886   0.616   6.470 -0.2162 -0.3082 -0.0526
  121OSM    O1312697   5.938   0.751   6.453  0.2271 -0.3031 -1.0111
  121OSM    O1412698   5.961   0.522   6.564  0.6176 -0.0582 -0.4282
  121OSM    O1112699   5.864   0.556   6.328  0.0938 -0.3586 -0.2874
  121OSM    O1212700   5.739   0.631   6.536 -0.3643 -0.3273  0.0716
  121OSM    C1S12701   5.753   0.605   6.248 -1.3033 -0.2756 -0.0808
  121OSM    H1S12702   5.746   0.716   6.244 -2.7888 -0.3794 -1.1330
  121OSM    H1T12703   5.659   0.571   6.296 -1.3191  1.1217  0.9408
  121OSM     NF12704   5.661   0.621   6.021  0.6230 -0.6004 -0.0086
  121OSM    HNF12705   5.573   0.577   6.004  1.6820 -2.3294 -1.4473
  121OSM    C2S12706   5.754   0.549   6.110 -0.3358  0.0909 -0.5200
  121OSM    H2S12707   5.851   0.562   6.057 -0.4619  1.5219 -0.4270
  121OSM    C3S12708   5.719   0.404   6.112  0.5612 -0.2187  0.6338
  121OSM    H3S12709   5.621   0.384   6.160 -0.0946  3.4579  1.1743
  121OSM     O312710   5.812   0.327   6.193 -0.3328  0.1967 -0.4329
  121OSM    HO312711   5.864   0.393   6.240  0.4674  0.1068 -1.1551
  121OSM    C4S12712   5.735   0.346   5.974 -0.4947 -0.2515 -0.5959
  121OSM    H4S12713   5.837   0.342   5.932 -0.8936 -1.4763 -1.5073
  121OSM    C5S12714   5.636   0.309   5.892  0.3442 -0.3638 -0.3480
  121OSM    H5S12715   5.532   0.332   5.919  0.9704 -0.2888  2.2793
  121OSM    C6S12716   5.658   0.257   5.754 -0.2111 -0.1919  0.1422
  121OSM    H6S12717   5.625   0.151   5.745 -1.4896  0.1448  0.6175
  121OSM    H6T12718   5.761   0.262   5.712 -1.1411  0.6746 -2.1933
  121OSM    C7S12719   5.565   0.350   5.669 -0.3180  0.0932  0.9914
  121OSM    H7S12720   5.611   0.451   5.669 -1.7359  0.8094 -0.9972
  121OSM    H7T12721   5.460   0.349   5.707 -0.3634  1.3016  0.9576
  121OSM    C8S12722   5.542   0.294   5.525 -0.4054  0.1581 -0.1344
  121OSM    H8S12723   5.498   0.192   5.532  0.9208 -0.6527 -2.6805
  121OSM    H8T12724   5.644   0.284   5.483 -0.0159 -0.7542  0.9837
  121OSM    C9S12725   5.469   0.394   5.443 -0.6308 -0.7778  0.3985
  121OSM    H9S12726   5.510   0.497   5.453 -1.0512 -0.3939 -1.4053
  121OSM    H9T12727   5.370   0.403   5.493 -0.7338  0.3847  0.0101
  121OSM   C10S12728   5.452   0.348   5.296  0.3547  0.8256  0.2342
  121OSM   H10S12729   5.416   0.243   5.291  4.8716 -1.2062  2.9350
  121OSM   H10T12730   5.552   0.337   5.247  0.0246 -1.0909 -0.0906
  121OSM   C11S12731   5.359   0.440   5.209 -0.4403  0.6607 -0.6542
  121OSM   H11S12732   5.377   0.548   5.229 -2.6469  0.7728  1.0184
  121OSM   H11T12733   5.256   0.413   5.240  1.0524 -1.7521  2.9208
  121OSM   C12S12734   5.372   0.419   5.059  0.0618  0.3964 -0.0071
  121OSM   H12S12735   5.472   0.455   5.029 -0.2497  2.8090  1.5403
  121OSM   H12T12736   5.287   0.476   5.015 -0.5263  0.0620  0.6637
  121OSM   C13S12737   5.352   0.269   5.023  0.4457  0.2083  0.0379
  121OSM   H13S12738   5.267   0.224   5.079  0.1629  1.0451  0.3019
  121OSM   H13T12739   5.439   0.217   5.069 -1.1520 -0.5803  2.3571
  121OSM   C14S12740   5.345   0.232   4.872  0.5094  0.0103  1.0942
  121OSM   H14S12741   5.246   0.263   4.831  0.6258  0.0865  0.8697
  121OSM   H14T12742   5.366   0.123   4.868 -0.9521 -0.3224  1.9208
  121OSM   C15S12743   5.445   0.314   4.784  0.5517  0.5447 -0.0030
  121OSM   H15S12744   5.548   0.291   4.822 -0.7495 -0.5149  3.2581
  121OSM   H15T12745   5.411   0.418   4.802 -1.6311 -0.0398 -0.4808
  121OSM   C16S12746   5.434   0.275   4.634  0.2703 -0.3537 -0.6022
  121OSM   H16S12747   5.333   0.299   4.593  0.3691  1.4469  0.1165
  121OSM   H16T12748   5.438   0.164   4.634  1.9104 -0.3215  0.3058
  121OSM   C17S12749   5.554   0.325   4.554 -0.0767  1.2227  0.2614
  121OSM   H17S12750   5.561   0.265   4.461  0.2731  1.5384  0.0777
  121OSM   H17T12751   5.648   0.305   4.610  0.2467  0.1415 -0.6344
  121OSM   C18S12752   5.545   0.476   4.519  0.0677  0.1381  0.3264
  121OSM   H18S12753   5.643   0.512   4.481 -0.1510 -0.6095 -0.9871
  121OSM   H18T12754   5.522   0.525   4.616 -1.2760 -1.6620  0.9824
  121OSM   H18U12755   5.457   0.504   4.457  0.4556  2.4168  0.7165
  121OSM    C1F12756   5.673   0.751   5.986 -0.7112  0.1757 -0.1469
  121OSM     OF12757   5.785   0.802   5.994  0.3016 -0.7417  0.8060
  121OSM    C2F12758   5.547   0.829   5.945 -0.2216  0.2385 -0.4582
  121OSM    H2F12759   5.542   0.909   6.022  2.0163 -2.6323  3.0451
  121OSM    H2G12760   5.454   0.768   5.951 -0.5275  0.6256 -1.1349
  121OSM    C3F12761   5.556   0.889   5.806  0.1715 -0.8617 -0.0290
  121OSM    H3F12762   5.657   0.932   5.792  0.9054 -2.8763 -1.4053
  121OSM    H3G12763   5.471   0.960   5.793  1.5791  1.7210  3.3840
  121OSM    C4F12764   5.538   0.779   5.697 -0.2902  0.0940  0.2622
  121OSM    H4F12765   5.437   0.732   5.703  0.1160 -0.5973  3.9206
  121OSM    H4G12766   5.617   0.702   5.714  0.2611  0.2346 -1.4486
  121OSM    C5F12767   5.570   0.849   5.567 -0.1111  0.0172  0.1405
  121OSM    H5F12768   5.558   0.768   5.492 -2.8764 -0.3751  0.8938
  121OSM    H5G12769   5.673   0.888   5.557  0.1367 -0.1492  1.7555
  121OSM    C6F12770   5.474   0.959   5.522 -0.3110  0.1715 -0.2112
  121OSM    H6F12771   5.478   1.045   5.592 -1.0467  0.9074 -1.0378
  121OSM    H6G12772   5.372   0.917   5.516 -0.2211 -0.0413 -0.2585
  121OSM    C7F12773   5.513   1.027   5.391 -0.3980  0.3094 -0.6940
  121OSM    H7F12774   5.552   0.942   5.331 -0.4623 -0.9546  0.9718
  121OSM    H7G12775   5.593   1.101   5.412  0.5312 -1.0367  0.7197
  121OSM    C8F12776   5.398   1.097   5.318 -1.5222 -0.0686  0.9593
  121OSM    H8F12777   5.441   1.157   5.235 -1.0653 -0.3459  0.9955
  121OSM    H8G12778   5.355   1.171   5.389 -0.8714  0.9605  0.2955
  121OSM    C9F12779   5.310   0.993   5.260  0.1096  0.5032 -0.1728
  121OSM    H9F12780   5.222   0.974   5.323  0.8329  2.2724  1.4406
  121OSM   C10F12781   5.301   0.947   5.134 -0.5383 -0.1809  0.4893
  121OSM   H10F12782   5.234   0.864   5.104 -0.8970 -0.0892  1.0297
  121OSM   C11F12783   5.400   0.988   5.014  0.0238  0.5273 -0.6284
  121OSM   H11F12784   5.483   1.053   5.050 -0.6452  1.7408 -1.2017
  121OSM   H11G12785   5.350   1.053   4.938  1.4079 -0.2702 -2.2823
  121OSM   C12F12786   5.454   0.868   4.942  0.2627 -0.2090  1.1454
  121OSM   H12F12787   5.367   0.817   4.896  0.7267 -0.8344  0.9452
  121OSM   H12G12788   5.499   0.801   5.018 -1.0224 -0.5167  1.6596
  121OSM   C13F12789   5.557   0.903   4.833 -0.5845 -0.4984  0.3249
  121OSM   H13F12790   5.638   0.963   4.879  0.0095 -0.5584 -0.6335
  121OSM   H13G12791   5.507   0.968   4.759 -0.9273 -0.3844  0.6495
  121OSM   C14F12792   5.609   0.774   4.771  0.3137 -0.1990  1.1112
  121OSM   H14F12793   5.523   0.712   4.738 -1.2756  0.5505  3.5557
  121OSM   H14G12794   5.655   0.734   4.864  0.7180  1.6362  1.7549
  121OSM   C15F12795   5.709   0.798   4.657 -0.6998 -0.6435  0.1696
  121OSM   H15F12796   5.755   0.898   4.669 -0.5149 -0.5691 -1.0858
  121OSM   H15G12797   5.663   0.797   4.556  0.0333  0.2324 -0.1758
  121OSM   C16F12798   5.820   0.699   4.656 -0.7396  0.6700  0.1220
  121OSM   H16F12799   5.782   0.594   4.660 -0.9207  0.6348 -1.9286
  121OSM   H16G12800   5.883   0.719   4.746  2.0218  0.9640 -1.7478
  121OSM   C17F12801   5.901   0.714   4.533  0.0874  0.7294  0.3761
  121OSM   H17F12802   5.920   0.823   4.519  0.8049  0.2522 -3.5983
  121OSM   H17G12803   5.845   0.676   4.444 -0.0075  1.0079  0.3171
  121OSM   C18F12804   6.036   0.642   4.550  0.0655 -0.1451 -0.2385
  121OSM   H18F12805   6.093   0.645   4.454  1.4841  0.4706  0.5935
  121OSM   H18G12806   6.008   0.539   4.581 -0.9634  0.8693  2.4685
  121OSM   H18H12807   6.096   0.684   4.634 -1.1318  1.3073 -0.0773
  122OSM      N12808   0.265   2.984   6.660  0.1489  0.1122 -0.3096
  122OSM    C1512809   0.406   2.994   6.601 -0.1966 -0.7913 -0.2201
  122OSM   H15A12810   0.433   3.097   6.586  0.8147 -0.9965  0.1079
  122OSM   H15B12811   0.395   2.956   6.501 -0.8171 -2.3254  0.3934
  122OSM   H15C12812   0.485   2.936   6.646 -0.0654 -0.4816 -0.0551
  122OSM    C1412813   0.233   2.839   6.685  0.0554 -0.5069  0.0408
  122OSM   H14A12814   0.216   2.794   6.588 -2.4395  2.6376 -1.1899
  122OSM   H14B12815   0.145   2.840   6.748 -1.0667  2.7743 -1.3533
  122OSM   H14C12816   0.313   2.787   6.735  1.8981  1.3263 -0.8671
  122OSM    C1312817   0.275   3.050   6.794 -0.3005  0.0997  0.0512
  122OSM   H13A12818   0.346   2.999   6.857  0.4410 -2.0425 -2.3606
  122OSM   H13B12819   0.186   3.038   6.854  0.9949 -0.0512  2.0201
  122OSM   H13C12820   0.316   3.149   6.784  0.9744 -0.0419  3.0475
  122OSM    C1212821   0.163   3.048   6.573 -0.2746 -0.0812 -0.4213
  122OSM   H12A12822   0.065   3.036   6.618  1.0152 -1.7675  2.2099
  122OSM   H12B12823   0.167   2.999   6.477 -2.6649  2.6981 -2.0957
  122OSM    C1112824   0.192   3.193   6.540 -0.1331 -0.4668 -0.2286
  122OSM   H11A12825   0.135   3.225   6.451 -1.6447 -0.4079  0.7179
  122OSM   H11B12826   0.297   3.219   6.515 -0.3348  0.3502 -0.2576
  122OSM      P12827   0.019   3.298   6.710  0.3052  0.0950  0.2572
  122OSM    O1312828  -0.030   3.186   6.797 -0.5400 -0.3889 -0.1330
  122OSM    O1412829   0.009   3.434   6.772 -0.4483  0.0217 -0.0861
  122OSM    O1112830  -0.061   3.291   6.578  0.4695 -0.2345  0.2707
  122OSM    O1212831   0.165   3.271   6.656  0.7522 -0.1199 -0.0266
  122OSM    C1S12832  -0.075   3.405   6.492  0.3200  0.1149 -0.6187
  122OSM    H1S12833   0.013   3.410   6.424  1.1967 -0.7390  0.3941
  122OSM    H1T12834  -0.051   3.507   6.528 -1.0441  0.5196 -0.7845
  122OSM     NF12835  -0.198   3.494   6.288 -0.6707  0.3413 -0.1727
  122OSM    HNF12836  -0.227   3.589   6.300 -0.1494  0.3440  1.2406
  122OSM    C2S12837  -0.211   3.412   6.410  0.1832  0.2272 -0.0515
  122OSM    H2S12838  -0.230   3.307   6.382  2.5334 -0.1657 -0.2968
  122OSM    C3S12839  -0.320   3.457   6.511  0.3148  0.0915  0.2573
  122OSM    H3S12840  -0.310   3.562   6.544  1.7260 -0.0343  0.2607
  122OSM     O312841  -0.320   3.376   6.626  0.1470 -1.2642 -0.0366
  122OSM    HO312842  -0.238   3.326   6.621  0.8625 -0.0529 -3.6088
  122OSM    C4S12843  -0.455   3.434   6.441 -0.1624 -0.0148  0.2391
  122OSM    H4S12844  -0.476   3.330   6.412 -0.0540  0.3040 -1.0448
  122OSM    C5S12845  -0.550   3.515   6.395 -0.0506 -0.2165 -0.2751
  122OSM    H5S12846  -0.535   3.623   6.390 -0.8801 -0.1559 -3.2479
  122OSM    C6S12847  -0.681   3.477   6.342 -0.5258  0.1482 -0.0524
  122OSM    H6S12848  -0.752   3.557   6.372  0.5352  1.2139 -0.3309
  122OSM    H6T12849  -0.718   3.384   6.391  1.4837  0.3935  2.1188
  122OSM    C7S12850  -0.658   3.448   6.191 -0.0299  0.8044 -0.7095
  122OSM    H7S12851  -0.765   3.430   6.166 -0.0778 -3.1959  1.5729
  122OSM    H7T12852  -0.611   3.350   6.173 -1.4418 -0.2384  0.9268
  122OSM    C8S12853  -0.585   3.558   6.120 -0.4417  0.2082  0.3441
  122OSM    H8S12854  -0.480   3.581   6.149 -0.6927  0.8210  0.7990
  122OSM    H8T12855  -0.639   3.655   6.122 -0.7867  0.2607 -3.6021
  122OSM    C9S12856  -0.566   3.521   5.973  0.0160 -0.6938 -0.1795
  122OSM    H9S12857  -0.661   3.476   5.936  0.2556 -1.1993 -0.1921
  122OSM    H9T12858  -0.489   3.445   5.948 -0.1914 -0.7492 -0.6750
  122OSM   C10S12859  -0.534   3.646   5.887  0.0620  0.0749 -0.3679
  122OSM   H10S12860  -0.487   3.730   5.942  2.7334 -1.3857 -0.2647
  122OSM   H10T12861  -0.633   3.684   5.853  0.3170 -1.0468 -2.5220
  122OSM   C11S12862  -0.455   3.623   5.759 -0.5019 -0.6219 -0.0305
  122OSM   H11S12863  -0.500   3.528   5.722 -2.1466  0.3224 -0.5758
  122OSM   H11T12864  -0.351   3.601   5.790 -0.9201 -2.8875 -0.0546
  122OSM   C12S12865  -0.481   3.728   5.652 -0.2273 -0.5104  0.4306
  122OSM   H12S12866  -0.465   3.826   5.702 -0.0419  0.4165 -1.3951
  122OSM   H12T12867  -0.590   3.731   5.629  0.0771  0.1125 -1.0016
  122OSM   C13S12868  -0.405   3.705   5.520  0.2638 -0.1704 -1.2220
  122OSM   H13S12869  -0.447   3.607   5.488  0.9527 -0.3859 -1.4799
  122OSM   H13T12870  -0.297   3.692   5.543 -0.0069 -0.5617 -0.1474
  122OSM   C14S12871  -0.421   3.824   5.428  0.3574  0.5654 -0.5087
  122OSM   H14S12872  -0.396   3.919   5.479 -1.1760 -0.0228  1.4487
  122OSM   H14T12873  -0.525   3.825   5.389  1.2496 -0.8137 -3.1700
  122OSM   C15S12874  -0.337   3.805   5.305  0.0222 -0.3013  0.0060
  122OSM   H15S12875  -0.301   3.700   5.307 -3.4099 -1.6381  2.0786
  122OSM   H15T12876  -0.246   3.868   5.306 -0.1329 -0.0578 -0.7963
  122OSM   C16S12877  -0.412   3.820   5.172 -0.0174 -0.0467 -0.1278
  122OSM   H16S12878  -0.511   3.772   5.183  1.1040 -2.3682  0.4649
  122OSM   H16T12879  -0.353   3.763   5.096  3.1204  2.0575  0.5073
  122OSM   C17S12880  -0.440   3.961   5.132 -0.7257  0.2937 -0.0285
  122OSM   H17S12881  -0.480   4.023   5.215 -1.6825 -0.2478 -0.0628
  122OSM   H17T12882  -0.521   3.970   5.056 -0.0554  0.7018 -0.7087
  122OSM   C18S12883  -0.322   4.037   5.065 -0.0818 -0.1167 -0.0820
  122OSM   H18S12884  -0.333   4.145   5.089 -1.5798 -0.5559  1.3657
  122OSM   H18T12885  -0.317   4.012   4.957 -0.9232  0.2828 -0.2226
  122OSM   H18U12886  -0.228   4.010   5.117 -0.3767  2.8708  2.2671
  122OSM    C1F12887  -0.131   3.452   6.178 -0.2805 -0.2032  0.1014
  122OSM     OF12888  -0.096   3.335   6.167  0.4660  0.2488  0.0517
  122OSM    C2F12889  -0.098   3.553   6.070  0.2630 -0.0391 -0.8848
  122OSM    H2F12890  -0.008   3.606   6.106  0.4403 -1.9647  1.8291
  122OSM    H2G12891  -0.172   3.636   6.074  1.6429  1.1733  0.1992
  122OSM    C3F12892  -0.071   3.499   5.927 -0.3795  0.6553 -0.2694
  122OSM    H3F12893  -0.153   3.437   5.884 -0.4010  1.4467 -1.4003
  122OSM    H3G12894   0.017   3.434   5.944 -0.0677  1.4273  1.2508
  122OSM    C4F12895  -0.036   3.617   5.847 -0.1057 -0.0403  0.4410
  122OSM    H4F12896   0.030   3.693   5.895  0.8623  0.6292 -1.8012
  122OSM    H4G12897  -0.132   3.668   5.824 -0.2849 -0.2230  0.7718
  122OSM    C5F12898   0.039   3.580   5.717 -0.0753 -0.2598 -0.2932
  122OSM    H5F12899  -0.017   3.509   5.652 -2.2421  1.2795 -0.2537
  122OSM    H5G12900   0.136   3.538   5.751 -0.2906  0.5205  1.3718
  122OSM    C6F12901   0.069   3.707   5.623  0.2381  0.1922 -0.0399
  122OSM    H6F12902   0.110   3.792   5.681 -2.3449 -0.4581  2.9905
  122OSM    H6G12903  -0.025   3.748   5.580 -0.4990  0.3494  1.6509
  122OSM    C7F12904   0.170   3.675   5.516  0.5031 -0.4371 -0.0235
  122OSM    H7F12905   0.250   3.612   5.561 -0.2290 -0.1955  1.6624
  122OSM    H7G12906   0.222   3.772   5.497  2.3704 -1.4424 -0.3543
  122OSM    C8F12907   0.110   3.599   5.397 -0.4012  0.0059  0.1659
  122OSM    H8F12908   0.048   3.520   5.444 -1.0921 -0.1461 -0.9538
  122OSM    H8G12909   0.182   3.546   5.330 -0.9219 -0.7724  0.2105
  122OSM    C9F12910   0.010   3.681   5.313  0.0721 -0.2913 -0.1173
  122OSM    H9F12911  -0.088   3.693   5.362  1.1132 -1.3346  2.3919
  122OSM   C10F12912   0.028   3.747   5.195  0.2123 -0.2082 -0.0342
  122OSM   H10F12913  -0.049   3.803   5.140  0.8707 -2.5039 -3.6398
  122OSM   C11F12914   0.155   3.764   5.117  0.4459 -0.1069 -0.1033
  122OSM   H11F12915   0.216   3.671   5.114 -0.0545 -0.4661  0.6163
  122OSM   H11G12916   0.217   3.848   5.155 -0.5310  0.3719  0.4729
  122OSM   C12F12917   0.109   3.797   4.973 -0.0473  0.0012 -0.3778
  122OSM   H12F12918   0.054   3.893   4.970  2.2595  1.3835 -0.8572
  122OSM   H12G12919   0.046   3.716   4.930 -0.6388 -0.0755  0.5971
  122OSM   C13F12920   0.231   3.823   4.884  0.1628 -0.0972  0.2157
  122OSM   H13F12921   0.303   3.738   4.895  0.9047 -0.0257 -3.1608
  122OSM   H13G12922   0.286   3.913   4.918  1.7523 -0.3462 -1.5164
  122OSM   C14F12923   0.186   3.825   4.735 -0.3044 -0.2345  0.3184
  122OSM   H14F12924   0.126   3.915   4.714 -0.6152 -1.2326 -4.0647
  122OSM   H14G12925   0.120   3.735   4.735 -3.1947  1.5476  4.7409
  122OSM   C15F12926   0.293   3.835   4.624 -0.5699  0.0039  0.0895
  122OSM   H15F12927   0.345   3.739   4.645 -1.9414 -0.5334  1.1279
  122OSM   H15G12928   0.366   3.917   4.640  0.3090 -1.0593  1.8988
  122OSM   C16F12929   0.221   3.837   4.487 -0.4579 -0.4826 -0.7719
  122OSM   H16F12930   0.150   3.922   4.488  1.3215  1.0827  0.3327
  122OSM   H16G12931   0.175   3.739   4.462 -0.1779  0.0268 -3.5138
  122OSM   C17F12932   0.306   3.859   4.367 -0.4693 -0.0294  1.1670
  122OSM   H17F12933   0.368   3.767   4.361  0.7897  0.7212  2.2083
  122OSM   H17G12934   0.380   3.941   4.378 -1.5296  0.8030  2.3040
  122OSM   C18F12935   0.219   3.879   4.235  0.6829 -0.4604 -0.4209
  122OSM   H18F12936   0.168   3.975   4.255  0.3894 -0.4698 -1.0906
  122OSM   H18G12937   0.153   3.790   4.229 -1.0515  0.7305  0.5167
  122OSM   H18H12938   0.294   3.889   4.153  2.1063 -0.9188  0.7720
  123OSM      N12939   1.913   3.252   2.081  0.3933 -0.0973 -0.0563
  123OSM    C1512940   2.039   3.216   2.011 -0.0977  0.3143 -0.0326
  123OSM   H15A12941   2.030   3.235   1.905 -0.9157 -1.2071 -0.2657
  123OSM   H15B12942   2.057   3.110   2.022  1.6729  0.6354  0.4272
  123OSM   H15C12943   2.124   3.272   2.048 -0.6228  2.2531 -1.5866
  123OSM    C1412944   1.908   3.399   2.096  0.0080 -0.1395  0.3467
  123OSM   H14A12945   1.983   3.449   2.155 -0.1958  0.2391  0.2847
  123OSM   H14B12946   1.810   3.430   2.129  0.5068  1.3736  0.4393
  123OSM   H14C12947   1.929   3.440   1.998 -1.3157 -0.7652 -0.2339
  123OSM    C1312948   1.801   3.204   1.993  0.3089  0.4824  0.3430
  123OSM   H13A12949   1.794   3.097   1.977 -0.4034  0.6684 -0.7037
  123OSM   H13B12950   1.799   3.246   1.893  1.3347  2.3654  1.0673
  123OSM   H13C12951   1.708   3.231   2.039 -0.4910 -1.3703 -0.0699
  123OSM    C1212952   1.909   3.187   2.220 -0.8151  0.4579  0.0597
  123OSM   H12A12953   1.996   3.210   2.280 -1.7307  0.7800  1.3108
  123OSM   H12B12954   1.916   3.079   2.220  0.1329  0.4446  2.6955
  123OSM    C1112955   1.778   3.219   2.306 -0.7080 -0.3231 -1.4192
  123OSM   H11A12956   1.760   3.328   2.296 -0.4664 -0.2164 -0.7393
  123OSM   H11B12957   1.802   3.181   2.408 -0.3285 -1.8047 -2.0214
  123OSM      P12958   1.523   3.151   2.305 -0.3138 -0.2766 -0.0428
  123OSM    O1312959   1.435   3.254   2.233 -0.8411 -0.8379  0.1095
  123OSM    O1412960   1.470   3.013   2.309 -0.8150 -0.5339  0.3577
  123OSM    O1112961   1.543   3.185   2.453 -0.4203 -0.0346 -0.3813
  123OSM    O1212962   1.672   3.151   2.245  0.1345  0.2283  0.4079
  123OSM    C1S12963   1.430   3.196   2.534 -0.3266  0.4761  0.5528
  123OSM    H1S12964   1.419   3.094   2.577 -0.8879 -0.7373 -2.2796
  123OSM    H1T12965   1.336   3.227   2.484 -0.6351  2.5306  2.2586
  123OSM     NF12966   1.336   3.304   2.740 -0.4386  0.0433 -0.3347
  123OSM    HNF12967   1.272   3.380   2.728 -0.1354  0.3280 -0.1662
  123OSM    C2S12968   1.450   3.296   2.651 -0.3159 -0.1871 -0.2022
  123OSM    H2S12969   1.534   3.257   2.713  0.2476  0.0736 -0.8018
  123OSM    C3S12970   1.505   3.434   2.610 -0.0891 -0.1420 -0.0005
  123OSM    H3S12971   1.428   3.471   2.539 -0.2765 -0.8194 -0.1558
  123OSM     O312972   1.623   3.435   2.536  0.5856  0.1785 -0.0669
  123OSM    HO312973   1.635   3.346   2.503  0.2577 -0.8047  2.2742
  123OSM    C4S12974   1.511   3.542   2.720  0.1699 -0.4396 -0.0044
  123OSM    H4S12975   1.554   3.505   2.815 -2.9830 -3.2163  0.5113
  123OSM    C5S12976   1.439   3.656   2.713 -0.4559 -0.9360  0.0224
  123OSM    H5S12977   1.369   3.681   2.632 -0.3093  0.8496  0.4061
  123OSM    C6S12978   1.444   3.760   2.825  0.4582  0.5266  0.1905
  123OSM    H6S12979   1.365   3.838   2.815  1.5824  1.6363 -0.4302
  123OSM    H6T12980   1.539   3.817   2.815  0.3790  0.7888  0.8896
  123OSM    C7S12981   1.430   3.697   2.964 -0.2362 -0.3008  0.2823
  123OSM    H7S12982   1.516   3.627   2.970  0.7142  0.5234 -2.1996
  123OSM    H7T12983   1.332   3.646   2.960  0.5171 -1.7193 -2.5063
  123OSM    C8S12984   1.430   3.803   3.083  0.0100 -0.3748  0.0296
  123OSM    H8S12985   1.331   3.852   3.091  1.0211  1.6286  0.8075
  123OSM    H8T12986   1.505   3.883   3.074  1.1098 -1.4458 -0.6300
  123OSM    C9S12987   1.440   3.735   3.224  0.7086 -1.0751  0.3999
  123OSM    H9S12988   1.526   3.666   3.237  2.5951  1.3187  1.3770
  123OSM    H9T12989   1.345   3.682   3.245 -0.0990 -0.2511 -0.9573
  123OSM   C10S12990   1.452   3.842   3.329 -0.7792 -0.9584  0.2235
  123OSM   H10S12991   1.396   3.813   3.421 -1.0232 -1.5997 -0.1232
  123OSM   H10T12992   1.406   3.937   3.295  0.4487  0.1223  1.4591
  123OSM   C11S12993   1.597   3.852   3.378  0.5417  0.4418 -0.2151
  123OSM   H11S12994   1.662   3.896   3.299  0.8823 -1.0880 -0.8217
  123OSM   H11T12995   1.634   3.749   3.399  1.1594  1.0429  1.9831
  123OSM   C12S12996   1.608   3.944   3.505  0.1680  0.8127  0.7341
  123OSM   H12S12997   1.566   4.044   3.479 -2.6451 -0.6808 -1.0278
  123OSM   H12T12998   1.718   3.953   3.520  0.2824  0.4840  0.1404
  123OSM   C13S12999   1.552   3.888   3.633  0.7795 -0.2842  0.1530
  123OSM   H13S13000   1.579   3.783   3.656  1.1500 -0.4125 -0.8409
  123OSM   H13T13001   1.441   3.898   3.630  0.7842  1.4146  2.6642
  123OSM   C14S13002   1.591   3.965   3.756  0.1671  0.0776  0.0795
  123OSM   H14S13003   1.597   4.074   3.739  0.4311 -0.0866 -0.8882
  123OSM   H14T13004   1.698   3.942   3.773 -0.0474  0.0719  1.6144
  123OSM   C15S13005   1.513   3.909   3.877 -0.3763 -0.3204 -0.6134
  123OSM   H15S13006   1.552   3.815   3.922 -1.1488 -0.2831  0.1501
  123OSM   H15T13007   1.409   3.877   3.858 -0.5394 -1.0277  1.2801
  123OSM   C16S13008   1.507   4.011   3.992 -0.6377 -0.1802  0.4846
  123OSM   H16S13009   1.439   4.098   3.975  0.8422  1.3519  1.9825
  123OSM   H16T13010   1.606   4.060   4.000  0.1327 -1.6818  0.4176
  123OSM   C17S13011   1.467   3.963   4.127  0.3196 -0.2730  0.4983
  123OSM   H17S13012   1.370   3.910   4.131  0.9027 -1.3693  0.4874
  123OSM   H17T13013   1.446   4.043   4.201 -2.5877 -2.9204  2.7994
  123OSM   C18S13014   1.582   3.882   4.196  0.2728  0.5772  0.0971
  123OSM   H18S13015   1.607   3.797   4.131 -2.3206 -0.8350  0.8149
  123OSM   H18T13016   1.546   3.855   4.298 -0.2059 -2.3915 -0.7883
  123OSM   H18U13017   1.673   3.946   4.198  0.4053  0.4028 -0.3025
  123OSM    C1F13018   1.296   3.201   2.810  0.0364 -0.1994  0.3024
  123OSM     OF13019   1.355   3.098   2.825 -0.4160 -0.2644  0.6215
  123OSM    C2F13020   1.158   3.222   2.873 -0.3122 -0.3149  0.4390
  123OSM    H2F13021   1.078   3.200   2.799  1.4193  0.5316 -1.7903
  123OSM    H2G13022   1.143   3.328   2.902  0.8540 -0.2450  0.8432
  123OSM    C3F13023   1.136   3.142   3.005  0.0697 -0.2582  0.0609
  123OSM    H3F13024   1.123   3.035   2.981 -0.6102 -0.5562  1.6461
  123OSM    H3G13025   1.043   3.172   3.059  0.7206  3.0290 -0.4431
  123OSM    C4F13026   1.245   3.151   3.111  0.3819 -0.2162 -0.5648
  123OSM    H4F13027   1.328   3.083   3.083 -0.7720 -0.9045 -2.4926
  123OSM    H4G13028   1.198   3.101   3.198 -0.9447  1.7789 -0.0586
  123OSM    C5F13029   1.294   3.288   3.162  0.2020 -0.3529  0.4674
  123OSM    H5F13030   1.208   3.337   3.212 -0.8652  0.9345 -2.3989
  123OSM    H5G13031   1.305   3.345   3.067 -2.4633  0.4150  0.5336
  123OSM    C6F13032   1.426   3.270   3.234 -0.6552  0.1034 -0.6939
  123OSM    H6F13033   1.508   3.240   3.166  1.5767  0.6456  1.5774
  123OSM    H6G13034   1.424   3.188   3.309  4.6261  0.2425 -0.0490
  123OSM    C7F13035   1.485   3.397   3.301  0.2939  0.5032 -0.3278
  123OSM    H7F13036   1.507   3.475   3.225 -0.0348 -2.2195 -3.4483
  123OSM    H7G13037   1.585   3.372   3.341  0.4235 -1.8594 -1.9175
  123OSM    C8F13038   1.396   3.461   3.409 -0.6911  0.6463  0.1322
  123OSM    H8F13039   1.302   3.494   3.361 -0.2344  0.2317 -1.0634
  123OSM    H8G13040   1.442   3.557   3.442  1.7564 -1.0300  1.9688
  123OSM    C9F13041   1.385   3.377   3.537 -0.0844  0.2629  0.5723
  123OSM    H9F13042   1.314   3.293   3.537 -0.5517  0.6284 -0.5509
  123OSM   C10F13043   1.446   3.409   3.651  0.0770  0.0639 -0.1217
  123OSM   H10F13044   1.433   3.337   3.734  1.1004 -1.7071 -1.4241
  123OSM   C11F13045   1.549   3.515   3.678 -0.1257 -0.1982 -0.1643
  123OSM   H11F13046   1.524   3.577   3.767 -0.2892  1.5319 -1.3643
  123OSM   H11G13047   1.549   3.592   3.598 -1.3160  0.1474  0.1639
  123OSM   C12F13048   1.691   3.453   3.672  0.4408  0.5185  0.7092
  123OSM   H12F13049   1.698   3.386   3.584  1.6069  1.7867 -0.2096
  123OSM   H12G13050   1.695   3.382   3.757 -2.2805 -0.1401  0.3927
  123OSM   C13F13051   1.803   3.557   3.681 -0.0845 -0.3273 -0.2343
  123OSM   H13F13052   1.801   3.637   3.604  0.4388  0.0260  0.1111
  123OSM   H13G13053   1.902   3.506   3.681  0.9893  1.2874  3.8554
  123OSM   C14F13054   1.786   3.638   3.811 -0.2551 -0.1415  0.3952
  123OSM   H14F13055   1.738   3.566   3.881  0.7631 -2.0185 -0.7594
  123OSM   H14G13056   1.729   3.733   3.808  1.8368  1.1472 -1.4645
  123OSM   C15F13057   1.921   3.671   3.863 -0.1598 -0.1160  0.6222
  123OSM   H15F13058   1.985   3.718   3.785  0.3140 -1.0817  0.4131
  123OSM   H15G13059   1.978   3.585   3.903  1.9604  1.3582  0.8820
  123OSM   C16F13060   1.911   3.780   3.975 -1.3059  0.1510  0.5597
  123OSM   H16F13061   1.844   3.734   4.051 -0.0999 -2.2790  0.2737
  123OSM   H16G13062   1.854   3.865   3.932 -0.5728 -0.3678 -1.5511
  123OSM   C17F13063   2.050   3.816   4.035 -0.1820  0.7548 -0.4149
  123OSM   H17F13064   2.102   3.872   3.954 -0.0098  0.1215 -0.7439
  123OSM   H17G13065   2.100   3.720   4.056 -2.4517 -0.7420 -1.4862
  123OSM   C18F13066   2.042   3.900   4.160 -0.0328  0.3048 -0.0108
  123OSM   H18F13067   2.143   3.923   4.200  0.4077 -1.3718 -0.0786
  123OSM   H18G13068   1.984   3.837   4.230  1.0389 -1.0676 -0.3099
  123OSM   H18H13069   1.989   3.994   4.135  1.6910  1.2672 -0.2657
  124OSM      N13070   2.645   3.136   1.854 -1.0997 -0.3457  0.4859
  124OSM    C1513071   2.666   3.005   1.916  0.2502  0.8399 -0.3223
  124OSM   H15A13072   2.674   2.926   1.843  0.2168 -0.8992  1.4700
  124OSM   H15B13073   2.587   2.981   1.986  1.1924 -0.6345  0.2985
  124OSM   H15C13074   2.758   3.010   1.973  0.2768  2.2627 -0.4701
  124OSM    C1413075   2.759   3.172   1.761 -0.0703 -0.3306  0.1238
  124OSM   H14A13076   2.857   3.165   1.806  0.3385  1.1371 -0.4885
  124OSM   H14B13077   2.745   3.271   1.720  0.0330 -0.2479  0.2882
  124OSM   H14C13078   2.760   3.108   1.674 -2.8778  0.9923 -1.0224
  124OSM    C1313079   2.517   3.127   1.784 -0.2073 -0.2075 -0.6890
  124OSM   H13A13080   2.441   3.095   1.854 -0.4978  2.0920  0.1609
  124OSM   H13B13081   2.524   3.066   1.696  2.6580  2.0707 -2.2266
  124OSM   H13C13082   2.490   3.227   1.753  0.4389  0.1579 -0.1094
  124OSM    C1213083   2.643   3.240   1.958  0.1867  0.3164 -0.3618
  124OSM   H12A13084   2.739   3.242   2.007  0.1161 -2.2046 -0.0216
  124OSM   H12B13085   2.576   3.207   2.036 -0.3805  2.5549  0.1856
  124OSM    C1113086   2.610   3.380   1.915  0.3757  0.2706  0.0401
  124OSM   H11A13087   2.688   3.412   1.842  0.8415 -0.9714 -0.0312
  124OSM   H11B13088   2.613   3.449   2.003 -1.6787  0.6792 -0.1623
  124OSM      P13089   2.344   3.433   1.941  0.3644  0.0064 -0.3644
  124OSM    O1313090   2.235   3.468   1.845 -0.5098 -0.8630 -0.1216
  124OSM    O1413091   2.323   3.317   2.031 -0.0955 -0.3504  0.6487
  124OSM    O1113092   2.367   3.559   2.035 -0.1977  0.3214  0.5345
  124OSM    O1213093   2.479   3.405   1.856  0.3743 -0.0269 -0.6309
  124OSM    C1S13094   2.288   3.580   2.153  0.3839  0.1103 -0.1019
  124OSM    H1S13095   2.187   3.533   2.144  0.2729  0.5878 -1.5812
  124OSM    H1T13096   2.276   3.689   2.166  0.8159  0.4315 -2.0486
  124OSM     NF13097   2.271   3.536   2.394  0.2903 -0.4612  0.2531
  124OSM    HNF13098   2.276   3.609   2.462 -0.1177 -0.6287  0.4666
  124OSM    C2S13099   2.368   3.535   2.282 -0.4131 -0.2484 -0.0874
  124OSM    H2S13100   2.405   3.432   2.263  4.0237  0.9513  1.0122
  124OSM    C3S13101   2.491   3.628   2.298 -0.2241  0.8481  0.0677
  124OSM    H3S13102   2.446   3.729   2.307  0.0523  0.9006  0.8765
  124OSM     O313103   2.575   3.633   2.181 -0.4039  0.0539  0.6644
  124OSM    HO313104   2.510   3.605   2.116 -0.7149  1.4368  0.3609
  124OSM    C4S13105   2.573   3.579   2.412 -1.1007  0.7142 -0.4720
  124OSM    H4S13106   2.595   3.471   2.407 -0.5622  0.8477 -1.0845
  124OSM    C5S13107   2.611   3.658   2.515 -0.1433  0.3164 -0.2806
  124OSM    H5S13108   2.589   3.766   2.511 -0.1801  0.3178 -0.0600
  124OSM    C6S13109   2.681   3.599   2.633  0.0592 -0.5290 -0.6918
  124OSM    H6S13110   2.617   3.524   2.685 -0.6175 -0.0790 -0.8600
  124OSM    H6T13111   2.696   3.686   2.701  0.9698  0.4196 -2.0701
  124OSM    C7S13112   2.817   3.526   2.603  0.3274  0.3101  0.1999
  124OSM    H7S13113   2.872   3.566   2.515 -1.5096  0.1041 -1.0983
  124OSM    H7T13114   2.785   3.425   2.568  0.3120  1.0874 -2.2516
  124OSM    C8S13115   2.906   3.518   2.733 -0.7398  0.7132  0.7420
  124OSM    H8S13116   2.933   3.620   2.768 -0.8670  0.4851  1.5324
  124OSM    H8T13117   2.997   3.458   2.713 -1.1113  1.0549 -2.3382
  124OSM    C9S13118   2.850   3.442   2.856  1.2493 -0.0463 -0.2549
  124OSM    H9S13119   2.847   3.331   2.857 -0.9304 -0.0357  0.4735
  124OSM    H9T13120   2.742   3.462   2.870  1.3045  1.1805 -1.3309
  124OSM   C10S13121   2.927   3.484   2.984  0.1745 -0.3892  0.1250
  124OSM   H10S13122   2.908   3.593   3.000  0.0483 -0.2497 -0.9025
  124OSM   H10T13123   3.037   3.479   2.966  0.2146 -1.2703  0.5801
  124OSM   C11S13124   2.911   3.398   3.105 -0.3614 -0.7188  0.3462
  124OSM   H11S13125   2.970   3.304   3.109  2.5048  0.9714  1.0948
  124OSM   H11T13126   2.806   3.363   3.116 -0.6872  0.0508 -0.2093
  124OSM   C12S13127   2.950   3.470   3.236  0.3607 -0.5541  0.2721
  124OSM   H12S13128   2.917   3.576   3.231 -0.1556 -0.7404 -0.5546
  124OSM   H12T13129   3.060   3.480   3.236  0.2249  2.3581  2.8885
  124OSM   C13S13130   2.935   3.381   3.354 -0.0937 -0.4786  0.0706
  124OSM   H13S13131   2.984   3.282   3.341 -1.4976 -1.6399  2.7873
  124OSM   H13T13132   2.826   3.364   3.372  0.0194  1.3867  3.2468
  124OSM   C14S13133   2.999   3.447   3.479 -0.0174 -0.4297 -0.4427
  124OSM   H14S13134   2.949   3.540   3.514 -0.3520 -0.5713 -0.5505
  124OSM   H14T13135   3.106   3.473   3.463 -0.2488 -0.2083 -1.6989
  124OSM   C15S13136   3.009   3.357   3.605  0.7617 -0.0179 -0.5090
  124OSM   H15S13137   3.073   3.424   3.666 -0.8209  4.7150 -3.4904
  124OSM   H15T13138   3.071   3.269   3.576 -1.3648 -1.1347 -1.9614
  124OSM   C16S13139   2.871   3.355   3.677 -0.4194  0.5847  0.4394
  124OSM   H16S13140   2.797   3.367   3.595 -2.0507 -2.2127  1.3595
  124OSM   H16T13141   2.869   3.444   3.742 -1.8367 -0.5847  2.0672
  124OSM   C17S13142   2.830   3.226   3.763 -0.5598  0.7055  0.2939
  124OSM   H17S13143   2.812   3.133   3.705 -1.7941  0.4974  0.9705
  124OSM   H17T13144   2.737   3.248   3.818 -0.6004  2.7948 -0.5335
  124OSM   C18S13145   2.943   3.193   3.861 -0.0441 -0.0735  0.1001
  124OSM   H18S13146   2.926   3.102   3.922 -0.4093 -0.2919 -0.3287
  124OSM   H18T13147   2.958   3.278   3.932  1.1769 -0.5917  0.4995
  124OSM   H18U13148   3.030   3.165   3.798 -0.4932 -0.1515 -0.4909
  124OSM    C1F13149   2.182   3.435   2.421 -0.6922 -0.1492 -0.1278
  124OSM     OF13150   2.179   3.333   2.358 -0.1688  0.3240  0.4434
  124OSM    C2F13151   2.097   3.459   2.536 -0.2347 -0.3451  0.1073
  124OSM    H2F13152   1.996   3.428   2.502 -0.9486  0.5651  1.3385
  124OSM    H2G13153   2.090   3.564   2.573 -3.7279 -0.5870  0.4109
  124OSM    C3F13154   2.139   3.368   2.650  0.6683 -0.5293 -0.3425
  124OSM    H3F13155   2.155   3.263   2.618 -0.1877 -0.9165  0.4574
  124OSM    H3G13156   2.062   3.361   2.730 -0.1617 -0.8671 -1.1586
  124OSM    C4F13157   2.269   3.434   2.711  0.5176  0.0753 -0.2513
  124OSM    H4F13158   2.321   3.508   2.648 -2.6256  1.4220 -1.4950
  124OSM    H4G13159   2.334   3.348   2.739  1.2300  0.0777 -1.8320
  124OSM    C5F13160   2.233   3.505   2.843  0.2217 -0.5631 -0.4484
  124OSM    H5F13161   2.130   3.487   2.881  1.0511  0.4514  2.5559
  124OSM    H5G13162   2.237   3.615   2.825 -0.0104 -0.6150 -0.8155
  124OSM    C6F13163   2.324   3.465   2.958  0.3418  0.6016 -0.5306
  124OSM    H6F13164   2.426   3.494   2.926  0.5705 -1.2964 -1.6883
  124OSM    H6G13165   2.313   3.354   2.950  0.5411  0.6217 -1.1586
  124OSM    C7F13166   2.275   3.506   3.095 -0.3163 -0.1566  0.7309
  124OSM    H7F13167   2.178   3.457   3.118  1.1313 -3.2972  0.6126
  124OSM    H7G13168   2.266   3.617   3.106 -0.0088 -0.2313  1.8949
  124OSM    C8F13169   2.378   3.457   3.194 -0.1871  0.3658 -0.3654
  124OSM    H8F13170   2.413   3.355   3.167  1.8066  1.4435 -2.1973
  124OSM    H8G13171   2.330   3.443   3.293  1.3009 -2.6552  0.0510
  124OSM    C9F13172   2.500   3.538   3.204  0.0020  0.0051  0.0531
  124OSM    H9F13173   2.551   3.566   3.110  0.7001 -1.1967  0.0428
  124OSM   C10F13174   2.556   3.571   3.317 -0.4914  0.5683 -0.3673
  124OSM   H10F13175   2.648   3.631   3.314  0.0923 -0.2714  0.3996
  124OSM   C11F13176   2.517   3.529   3.459 -0.2837  0.0592  0.3620
  124OSM   H11F13177   2.555   3.425   3.472  2.6524  0.7369 -1.8031
  124OSM   H11G13178   2.411   3.548   3.486 -0.3842 -0.5090  0.3794
  124OSM   C12F13179   2.598   3.620   3.557  0.1954  0.3140 -0.1196
  124OSM   H12F13180   2.568   3.727   3.544 -0.4433  0.2265  0.5817
  124OSM   H12G13181   2.707   3.611   3.535 -0.0205  0.1321 -1.1838
  124OSM   C13F13182   2.569   3.587   3.703 -0.2605  0.9515  0.0527
  124OSM   H13F13183   2.639   3.637   3.773 -1.4626  0.0856  1.9437
  124OSM   H13G13184   2.598   3.481   3.719 -1.8599  0.5346  0.3713
  124OSM   C14F13185   2.421   3.604   3.749 -0.3429  0.6333 -0.0450
  124OSM   H14F13186   2.361   3.520   3.708  2.6062 -0.9989 -1.3811
  124OSM   H14G13187   2.384   3.700   3.707 -0.1572  0.8224  0.2215
  124OSM   C15F13188   2.405   3.630   3.894  1.2284  0.2089 -0.3485
  124OSM   H15F13189   2.411   3.529   3.941 -0.4154 -0.1189 -0.7832
  124OSM   H15G13190   2.299   3.655   3.914  0.6748 -2.7252  0.9662
  124OSM   C16F13191   2.504   3.730   3.956  0.2102  0.3316 -0.7355
  124OSM   H16F13192   2.516   3.818   3.890  0.0329 -0.2988 -1.6384
  124OSM   H16G13193   2.598   3.676   3.979  0.7144  1.9754  1.3429
  124OSM   C17F13194   2.449   3.786   4.091  0.1166  0.6241 -0.2515
  124OSM   H17F13195   2.426   3.698   4.154  0.5121 -0.2657 -1.3068
  124OSM   H17G13196   2.355   3.835   4.060 -1.0962 -1.6546 -0.3669
  124OSM   C18F13197   2.541   3.870   4.170  0.1538 -0.1221 -0.0588
  124OSM   H18F13198   2.490   3.903   4.263 -0.5218 -1.8407  0.2273
  124OSM   H18G13199   2.592   3.951   4.115  1.3293 -0.7664  0.0599
  124OSM   H18H13200   2.623   3.804   4.203  0.3494 -0.6797 -1.5526
  125OSM      N13201   4.680   6.734   1.724 -0.1103 -0.9612 -0.0382
  125OSM    C1513202   4.707   6.882   1.709 -0.2125  0.4891 -0.6957
  125OSM   H15A13203   4.616   6.936   1.729 -0.1382  0.2188  0.5124
  125OSM   H15B13204   4.732   6.916   1.610  0.8026  3.2533  0.4175
  125OSM   H15C13205   4.788   6.910   1.775  0.7560 -2.1490 -0.6149
  125OSM    C1413206   4.575   6.704   1.631  0.0459 -0.3521 -0.2642
  125OSM   H14A13207   4.492   6.767   1.660  1.8761  0.7483  3.1505
  125OSM   H14B13208   4.550   6.599   1.635  0.6036 -0.4965 -0.4942
  125OSM   H14C13209   4.597   6.712   1.525 -1.9913  0.2866 -0.6904
  125OSM    C1313210   4.806   6.659   1.695 -0.4506 -0.2546  0.1678
  125OSM   H13A13211   4.790   6.552   1.707  0.3732 -0.9580 -3.6309
  125OSM   H13B13212   4.892   6.687   1.754  0.4874  0.3167 -1.3970
  125OSM   H13C13213   4.828   6.675   1.590 -0.1574 -1.5367  0.0109
  125OSM    C1213214   4.643   6.700   1.876  0.3744 -0.6469 -0.2279
  125OSM   H12A13215   4.711   6.734   1.953 -1.3365  1.4975  0.4575
  125OSM   H12B13216   4.637   6.593   1.882  1.2118 -0.6433  0.9776
  125OSM    C1113217   4.506   6.755   1.935  0.8422  0.1899  0.4518
  125OSM   H11A13218   4.464   6.702   2.023 -0.3273 -1.2804 -0.9397
  125OSM   H11B13219   4.436   6.746   1.850  0.9212  1.8463  0.1776
  125OSM      P13220   4.408   6.993   1.967 -0.2195  0.0107 -0.3739
  125OSM    O1313221   4.463   7.131   1.981  0.3737 -0.7115 -0.8354
  125OSM    O1413222   4.316   6.976   1.855 -0.0424  0.2274 -0.1631
  125OSM    O1113223   4.335   6.946   2.099  0.8494  0.2369 -0.1452
  125OSM    O1213224   4.530   6.890   1.958 -0.2120 -0.8412  0.3543
  125OSM    C1S13225   4.402   6.941   2.225  0.1640  0.3350  0.5529
  125OSM    H1S13226   4.457   7.036   2.237  0.1053  0.1645  2.4123
  125OSM    H1T13227   4.471   6.855   2.232  1.7131  1.5279  0.3768
  125OSM     NF13228   4.328   6.980   2.455 -0.3412 -0.1438  0.0841
  125OSM    HNF13229   4.335   6.908   2.524 -1.3389 -0.0943  0.2560
  125OSM    C2S13230   4.290   6.939   2.327  0.6475  0.2059  0.3404
  125OSM    H2S13231   4.204   7.005   2.301  0.4931 -0.5867 -1.2945
  125OSM    C3S13232   4.226   6.793   2.322  0.0345  1.0160  0.0646
  125OSM    H3S13233   4.311   6.727   2.349  0.4661  1.3714 -0.4040
  125OSM     O313234   4.187   6.758   2.186  0.6605  0.1397  0.3531
  125OSM    HO313235   4.213   6.834   2.134 -2.0703  0.1250 -1.2346
  125OSM    C4S13236   4.116   6.756   2.422 -0.4144  0.0713 -0.0204
  125OSM    H4S13237   4.158   6.722   2.518  1.9144  1.7643 -0.3352
  125OSM    C5S13238   3.987   6.747   2.399 -0.0137  0.1390  0.0105
  125OSM    H5S13239   3.957   6.767   2.295  0.5478 -1.1049 -0.4110
  125OSM    C6S13240   3.887   6.719   2.512 -0.4775 -0.3362 -0.2295
  125OSM    H6S13241   3.797   6.658   2.491 -0.1092 -2.2045  2.9563
  125OSM    H6T13242   3.833   6.812   2.539  1.1055  0.7813 -0.7182
  125OSM    C7S13243   3.944   6.654   2.642 -0.1368  0.7391 -0.1216
  125OSM    H7S13244   4.036   6.701   2.683 -0.8892  2.4121 -0.2715
  125OSM    H7T13245   3.973   6.548   2.621  2.0612  1.0166  1.2029
  125OSM    C8S13246   3.837   6.657   2.752 -0.1277  0.2115  0.1052
  125OSM    H8S13247   3.744   6.609   2.713 -0.5950  0.1134  1.3071
  125OSM    H8T13248   3.808   6.760   2.784 -0.2332  0.0102  0.6548
  125OSM    C9S13249   3.875   6.585   2.888  0.4703  0.0450 -0.1929
  125OSM    H9S13250   3.978   6.615   2.918  0.6618 -0.7061 -0.0600
  125OSM    H9T13251   3.870   6.476   2.864  0.4631  0.0882 -0.3908
  125OSM   C10S13252   3.782   6.617   2.999 -0.0924 -0.2991 -0.2359
  125OSM   H10S13253   3.680   6.581   2.974 -2.3775  3.2691  2.8522
  125OSM   H10T13254   3.766   6.725   3.019  1.2342 -0.1296  0.0007
  125OSM   C11S13255   3.834   6.548   3.120 -0.5759  0.6679  0.3977
  125OSM   H11S13256   3.922   6.610   3.146  1.0581  0.1843 -3.3479
  125OSM   H11T13257   3.869   6.444   3.101  2.0440  1.7055 -0.9164
  125OSM   C12S13258   3.727   6.535   3.229  0.1761  0.2582  1.5024
  125OSM   H12S13259   3.638   6.490   3.178 -0.5768  3.5838 -0.4347
  125OSM   H12T13260   3.689   6.636   3.257 -3.6600 -0.6875  0.3194
  125OSM   C13S13261   3.772   6.457   3.360 -0.1432  0.0737 -0.0711
  125OSM   H13S13262   3.862   6.510   3.396  1.7248 -1.6473 -1.9407
  125OSM   H13T13263   3.800   6.356   3.324 -0.3758  0.5726 -1.7766
  125OSM   C14S13264   3.665   6.453   3.475  0.5950 -0.4061 -0.4661
  125OSM   H14S13265   3.584   6.398   3.422  1.6893  0.1000 -2.7935
  125OSM   H14T13266   3.621   6.550   3.505 -0.5607 -1.0038 -0.1740
  125OSM   C15S13267   3.714   6.382   3.599 -0.3362 -0.1080 -0.5747
  125OSM   H15S13268   3.817   6.415   3.623 -0.4829  0.6306 -0.9394
  125OSM   H15T13269   3.745   6.277   3.578  1.6025 -0.0140  1.3739
  125OSM   C16S13270   3.621   6.404   3.725  0.3047 -0.3733 -0.7067
  125OSM   H16S13271   3.525   6.351   3.710  0.4293 -1.5106  1.9112
  125OSM   H16T13272   3.602   6.513   3.733  1.3418 -0.2282 -0.1433
  125OSM   C17S13273   3.693   6.353   3.855  0.6564 -0.1725  0.5600
  125OSM   H17S13274   3.780   6.423   3.859  0.4423  0.1679 -0.4827
  125OSM   H17T13275   3.728   6.250   3.837 -1.8710 -1.2664  1.3816
  125OSM   C18S13276   3.606   6.361   3.980 -0.2037  0.6823 -0.3536
  125OSM   H18S13277   3.670   6.337   4.067  1.3189  0.2872 -1.5293
  125OSM   H18T13278   3.505   6.315   3.977  0.3813 -0.6218 -2.2821
  125OSM   H18U13279   3.588   6.470   3.986 -0.9032  0.7266 -2.3705
  125OSM    C1F13280   4.369   7.098   2.493  0.2307  0.0515 -0.5205
  125OSM     OF13281   4.364   7.193   2.415 -0.4047 -0.8330 -0.4496
  125OSM    C2F13282   4.421   7.113   2.632  0.2326 -0.7783  0.0940
  125OSM    H2F13283   4.497   7.034   2.647 -0.2311 -1.8307 -2.4891
  125OSM    H2G13284   4.338   7.108   2.706  1.3882 -1.1082  1.3925
  125OSM    C3F13285   4.491   7.260   2.650  0.0465  0.9343  1.0724
  125OSM    H3F13286   4.422   7.347   2.648  1.1859  1.8482 -0.2501
  125OSM    H3G13287   4.557   7.277   2.562  0.0824 -0.3039  0.8518
  125OSM    C4F13288   4.570   7.255   2.782 -0.2124 -0.3374  0.2654
  125OSM    H4F13289   4.631   7.347   2.791 -2.9944  1.7615 -0.9380
  125OSM    H4G13290   4.639   7.168   2.772  1.0133  0.3157  2.3586
  125OSM    C5F13291   4.482   7.240   2.911 -0.0857 -0.1975 -0.2192
  125OSM    H5F13292   4.420   7.147   2.906 -1.9199  0.9892 -0.8770
  125OSM    H5G13293   4.406   7.321   2.907  1.9258  1.7408 -1.0297
  125OSM    C6F13294   4.565   7.236   3.040  0.0693  0.4152  0.6117
  125OSM    H6F13295   4.602   7.341   3.048 -0.4675  1.0119 -2.8022
  125OSM    H6G13296   4.645   7.164   3.013  0.4538  0.7554  0.8261
  125OSM    C7F13297   4.486   7.211   3.173 -0.0686 -0.1129  0.4136
  125OSM    H7F13298   4.438   7.112   3.182  1.1872 -0.6018  2.2609
  125OSM    H7G13299   4.407   7.288   3.186  0.3280  0.2613  0.6455
  125OSM    C8F13300   4.576   7.243   3.301  0.0097  0.1998  0.3862
  125OSM    H8F13301   4.601   7.349   3.280  0.7542 -0.1833 -0.7617
  125OSM    H8G13302   4.673   7.190   3.301  0.7512  1.5022  1.8740
  125OSM    C9F13303   4.519   7.243   3.442  0.7892  0.9607 -0.5806
  125OSM    H9F13304   4.413   7.224   3.464  0.9291  1.5914  0.7835
  125OSM   C10F13305   4.586   7.260   3.560  0.1730  0.6535  0.7104
  125OSM   H10F13306   4.533   7.255   3.657 -0.0847  0.3534  0.5569
  125OSM   C11F13307   4.727   7.300   3.567  0.3336 -1.0216 -0.1544
  125OSM   H11F13308   4.750   7.386   3.634  2.0664 -0.5038 -1.3434
  125OSM   H11G13309   4.752   7.344   3.468 -1.7598  3.2388  0.9445
  125OSM   C12F13310   4.815   7.176   3.590  0.2403  0.2512 -0.6341
  125OSM   H12F13311   4.922   7.200   3.576  0.0782  1.0169 -0.5693
  125OSM   H12G13312   4.798   7.100   3.511 -1.0794 -0.5740  0.3842
  125OSM   C13F13313   4.805   7.109   3.727 -0.4928  0.5795  0.2876
  125OSM   H13F13314   4.699   7.091   3.757 -1.2463  0.3995 -2.2222
  125OSM   H13G13315   4.856   7.174   3.801  0.0220 -0.4772  0.8741
  125OSM   C14F13316   4.888   6.976   3.714 -0.0095 -0.0467  0.1911
  125OSM   H14F13317   4.986   7.006   3.672  0.0865 -2.1657 -1.2961
  125OSM   H14G13318   4.838   6.905   3.644  0.8792 -0.6604  0.1678
  125OSM   C15F13319   4.883   6.907   3.850 -0.2232 -0.3022  0.4162
  125OSM   H15F13320   4.778   6.891   3.882 -0.0487 -1.0817  0.6284
  125OSM   H15G13321   4.929   6.982   3.918 -0.6779  1.4509 -1.1393
  125OSM   C16F13322   4.969   6.784   3.861  0.1584 -1.2313  0.4089
  125OSM   H16F13323   5.057   6.806   3.797  0.9065  1.3513  2.1614
  125OSM   H16G13324   4.907   6.704   3.816 -1.0923  1.1500 -2.4834
  125OSM   C17F13325   5.006   6.729   4.002 -0.5289 -0.3035  0.2502
  125OSM   H17F13326   5.071   6.803   4.054 -1.3129  0.7543 -0.2369
  125OSM   H17G13327   5.077   6.646   3.980  2.1504  1.6155  1.0613
  125OSM   C18F13328   4.888   6.674   4.081  0.7014  0.7043  0.2777
  125OSM   H18F13329   4.823   6.595   4.038  1.6896  1.1137 -2.1164
  125OSM   H18G13330   4.816   6.759   4.074  0.0676  0.0656 -1.5262
  125OSM   H18H13331   4.913   6.663   4.189 -2.6676 -1.2223  1.0100
  126OSM      N13332   2.313   1.954   2.061  0.0076  0.4917 -0.1359
  126OSM    C1513333   2.354   1.836   1.984  0.6902 -0.1796  0.4435
  126OSM   H15A13334   2.447   1.856   1.933  0.3214  1.2867  0.2974
  126OSM   H15B13335   2.278   1.821   1.909  0.4599  3.0507 -0.0978
  126OSM   H15C13336   2.354   1.751   2.050 -0.8044 -0.0418  0.6499
  126OSM    C1413337   2.401   1.991   2.177 -0.2700 -0.6623  0.5133
  126OSM   H14A13338   2.507   2.003   2.157 -0.3810 -2.7625 -1.9316
  126OSM   H14B13339   2.405   1.911   2.250 -1.5645  0.3667  1.7729
  126OSM   H14C13340   2.369   2.085   2.219  3.7864  2.5761 -2.6749
  126OSM    C1313341   2.296   2.071   1.972  0.1102 -0.4755  0.1983
  126OSM   H13A13342   2.245   2.040   1.882 -0.7578  0.2626  0.4262
  126OSM   H13B13343   2.396   2.104   1.943 -0.4550  2.1332  0.9503
  126OSM   H13C13344   2.244   2.157   2.012  0.5728  0.9016 -1.9504
  126OSM    C1213345   2.175   1.926   2.120 -0.1788  0.1703 -0.4455
  126OSM   H12A13346   2.092   1.926   2.052  0.1289  1.6359 -0.8506
  126OSM   H12B13347   2.150   2.011   2.182 -4.0816 -1.7560  0.9289
  126OSM    C1113348   2.155   1.805   2.219  0.5126  0.5682  0.1462
  126OSM   H11A13349   2.049   1.813   2.250 -0.5002  0.4258 -2.9390
  126OSM   H11B13350   2.221   1.805   2.308  2.2120 -0.8869 -1.0507
  126OSM      P13351   2.051   1.624   2.054 -0.0300 -0.2126 -0.0229
  126OSM    O1313352   1.980   1.740   2.002 -0.1485  0.2737  0.1179
  126OSM    O1413353   2.102   1.530   1.950  0.1806  0.1559  0.2023
  126OSM    O1113354   1.959   1.546   2.169 -0.2915 -0.7395  0.7965
  126OSM    O1213355   2.176   1.683   2.145 -0.1267  0.6145 -0.6377
  126OSM    C1S13356   2.024   1.445   2.251  0.7527 -0.2840 -0.1722
  126OSM    H1S13357   2.129   1.431   2.218  0.8575  1.7449 -0.8437
  126OSM    H1T13358   1.972   1.348   2.232  0.1402  0.0432 -0.1975
  126OSM     NF13359   2.091   1.389   2.482 -0.6563  0.2360 -0.4340
  126OSM    HNF13360   2.045   1.304   2.507 -0.6444 -0.3417 -2.2359
  126OSM    C2S13361   2.018   1.482   2.408  0.1218  0.5027  0.6739
  126OSM    H2S13362   2.065   1.582   2.418  2.3895 -0.5069  0.6865
  126OSM    C3S13363   1.870   1.491   2.454 -0.2169 -0.1893 -0.0548
  126OSM    H3S13364   1.827   1.389   2.461  1.4728 -0.8045  3.5450
  126OSM     O313365   1.779   1.553   2.359  0.0821 -0.2003 -0.8362
  126OSM    HO313366   1.835   1.572   2.284  0.5139 -0.3784 -0.5596
  126OSM    C4S13367   1.855   1.559   2.583  0.9529  0.1703  0.6028
  126OSM    H4S13368   1.865   1.669   2.580 -0.9348  0.3748  0.2659
  126OSM    C5S13369   1.839   1.503   2.700  0.7829 -0.4069 -0.2200
  126OSM    H5S13370   1.837   1.393   2.700  0.0240 -0.4062 -0.7921
  126OSM    C6S13371   1.810   1.578   2.831 -0.3820 -0.1834  0.4103
  126OSM    H6S13372   1.812   1.687   2.812 -1.4292 -0.3487 -0.7898
  126OSM    H6T13373   1.899   1.572   2.898  0.6462 -0.3769 -0.9355
  126OSM    C7S13374   1.684   1.525   2.893 -0.6004 -0.4472  0.8149
  126OSM    H7S13375   1.606   1.516   2.814 -0.7938 -2.7285  1.2094
  126OSM    H7T13376   1.657   1.604   2.967  0.3754  0.9688 -0.2846
  126OSM    C8S13377   1.690   1.395   2.968 -0.3281  0.4715 -0.3750
  126OSM    H8S13378   1.709   1.307   2.902 -1.1487 -1.4460  1.7763
  126OSM    H8T13379   1.587   1.381   3.009 -1.0838  0.2144 -2.2811
  126OSM    C9S13380   1.800   1.395   3.077  0.9331  0.3524 -0.2522
  126OSM    H9S13381   1.904   1.409   3.041  1.2897 -2.3454 -0.5019
  126OSM    H9T13382   1.792   1.290   3.114 -2.6159  0.4473 -0.3904
  126OSM   C10S13383   1.765   1.490   3.197  0.2058  0.0232 -0.0517
  126OSM   H10S13384   1.683   1.439   3.253  0.7977  0.1154  0.9159
  126OSM   H10T13385   1.730   1.585   3.150  0.2218  0.3171  0.5279
  126OSM   C11S13386   1.891   1.520   3.287  0.4412 -0.0369  0.0472
  126OSM   H11S13387   1.967   1.580   3.234  0.9759  0.4985  1.3680
  126OSM   H11T13388   1.942   1.424   3.311 -0.8070 -1.3633 -2.2608
  126OSM   C12S13389   1.828   1.581   3.418  0.0954  0.2145 -0.4000
  126OSM   H12S13390   1.760   1.504   3.462 -1.3410  2.4618  1.5707
  126OSM   H12T13391   1.776   1.677   3.397 -1.4970 -0.3923  0.5365
  126OSM   C13S13392   1.933   1.599   3.527 -0.1859  0.2038  0.8779
  126OSM   H13S13393   1.998   1.686   3.501  0.6313 -1.5329 -3.9337
  126OSM   H13T13394   2.002   1.512   3.523  1.5658  1.4738  1.7150
  126OSM   C14S13395   1.868   1.623   3.660  0.1459  0.1577 -0.0842
  126OSM   H14S13396   1.807   1.535   3.689  0.7345  0.0401  0.8335
  126OSM   H14T13397   1.787   1.699   3.646 -0.7207 -0.4369  1.4363
  126OSM   C15S13398   1.951   1.677   3.771 -0.7924 -0.1359  0.0537
  126OSM   H15S13399   1.986   1.780   3.750  0.2454 -0.4777  0.0058
  126OSM   H15T13400   2.050   1.626   3.776  0.3961  2.0497 -0.0589
  126OSM   C16S13401   1.896   1.663   3.909 -0.0921  0.3194  0.4406
  126OSM   H16S13402   1.835   1.570   3.912  1.0080 -0.4350  3.2997
  126OSM   H16T13403   1.832   1.751   3.931  2.3834  2.2001  0.6190
  126OSM   C17S13404   1.999   1.642   4.021 -0.4123  0.2578  0.3015
  126OSM   H17S13405   2.072   1.726   4.021  1.4083 -1.2669  1.9372
  126OSM   H17T13406   2.047   1.549   3.985 -3.9491 -0.4054 -3.4661
  126OSM   C18S13407   1.943   1.628   4.159  0.1969 -0.3052 -0.9242
  126OSM   H18S13408   2.027   1.612   4.229  1.2554  0.4984 -1.9775
  126OSM   H18T13409   1.866   1.548   4.148  0.0415  0.0604 -2.9236
  126OSM   H18U13410   1.881   1.717   4.184 -0.9931 -1.5696  0.9039
  126OSM    C1F13411   2.230   1.388   2.486  1.1991  0.5196  0.9893
  126OSM     OF13412   2.292   1.472   2.426  0.0451 -0.1005  0.7186
  126OSM    C2F13413   2.304   1.283   2.561  0.1419 -0.7229 -0.1831
  126OSM    H2F13414   2.319   1.191   2.501 -0.2555 -1.5321  0.9269
  126OSM    H2G13415   2.242   1.265   2.652  0.9623  1.0224  0.7617
  126OSM    C3F13416   2.447   1.338   2.600 -0.2250 -0.4794  0.2674
  126OSM    H3F13417   2.506   1.369   2.511  1.8371 -0.9088  1.4108
  126OSM    H3G13418   2.516   1.254   2.626 -0.1892 -0.7377 -0.6178
  126OSM    C4F13419   2.446   1.444   2.715 -0.3073 -0.3322  0.1608
  126OSM    H4F13420   2.394   1.399   2.802  2.1722 -1.0228  1.3918
  126OSM    H4G13421   2.399   1.533   2.669 -1.4658 -0.4986  1.0025
  126OSM    C5F13422   2.586   1.486   2.753 -0.2058 -0.3127 -0.4030
  126OSM    H5F13423   2.647   1.525   2.669 -0.5179  1.7221  0.2539
  126OSM    H5G13424   2.630   1.390   2.788 -1.0319 -0.9328 -1.0060
  126OSM    C6F13425   2.588   1.590   2.867  0.9226  0.0756 -0.1098
  126OSM    H6F13426   2.533   1.547   2.953 -2.0576 -0.7237 -2.2518
  126OSM    H6G13427   2.530   1.671   2.818 -0.2022 -1.5687 -1.6344
  126OSM    C7F13428   2.727   1.631   2.925  0.2049  0.0861  0.1624
  126OSM    H7F13429   2.781   1.685   2.844  0.9421  0.3413  0.8132
  126OSM    H7G13430   2.775   1.536   2.955  0.4615 -0.5905 -2.1755
  126OSM    C8F13431   2.718   1.720   3.050 -0.3049 -0.5914  0.4404
  126OSM    H8F13432   2.661   1.814   3.032 -0.8442 -0.5860  2.0442
  126OSM    H8G13433   2.821   1.758   3.067 -0.4827  0.1280 -0.0332
  126OSM    C9F13434   2.671   1.653   3.174 -0.4534  0.4344 -0.0967
  126OSM    H9F13435   2.676   1.543   3.173 -0.7220  0.4217 -1.6409
  126OSM   C10F13436   2.638   1.709   3.291 -0.5924 -0.2297  0.1216
  126OSM   H10F13437   2.600   1.653   3.377 -0.2677  0.5874  0.8160
  126OSM   C11F13438   2.634   1.864   3.310  0.1483  0.0912  0.2486
  126OSM   H11F13439   2.663   1.926   3.223 -0.8943 -0.8059 -0.7639
  126OSM   H11G13440   2.704   1.888   3.393  0.4236 -0.7348  0.2563
  126OSM   C12F13441   2.496   1.921   3.363 -0.6530 -0.4405 -0.3640
  126OSM   H12F13442   2.524   2.025   3.392  4.6265 -1.7354  0.1830
  126OSM   H12G13443   2.472   1.869   3.459  1.2152 -1.1954 -0.2550
  126OSM   C13F13444   2.371   1.900   3.278  0.3051 -0.4315  0.2885
  126OSM   H13F13445   2.343   1.792   3.281  1.7465 -0.8096  1.9256
  126OSM   H13G13446   2.410   1.929   3.178  1.4165 -0.4452  0.7031
  126OSM   C14F13447   2.256   1.993   3.314  0.8454  0.0252 -0.5546
  126OSM   H14F13448   2.189   2.029   3.233 -0.5062 -0.9187  0.1073
  126OSM   H14G13449   2.304   2.092   3.330 -0.4269  0.6965 -0.7239
  126OSM   C15F13450   2.178   1.952   3.439  0.3253  0.0608 -0.0416
  126OSM   H15F13451   2.175   1.842   3.457  1.2307 -0.1175 -0.9140
  126OSM   H15G13452   2.069   1.964   3.422  0.6334  4.3673 -0.1143
  126OSM   C16F13453   2.224   2.042   3.552  0.2267 -0.6044 -0.1276
  126OSM   H16F13454   2.218   2.150   3.524 -0.7028 -0.6123 -0.0090
  126OSM   H16G13455   2.331   2.024   3.573  0.5524  0.6983 -0.5327
  126OSM   C17F13456   2.158   2.030   3.685 -0.3178  0.5582 -0.7506
  126OSM   H17F13457   2.201   2.110   3.750  0.8163 -1.3020  0.9188
  126OSM   H17G13458   2.184   1.927   3.718 -0.0588  0.9189  0.2367
  126OSM   C18F13459   2.011   2.054   3.677 -0.3149 -0.1319 -0.8797
  126OSM   H18F13460   1.993   2.153   3.628  0.3512  0.6680  0.4533
  126OSM   H18G13461   1.959   2.060   3.775 -1.5889  0.6335 -1.5685
  126OSM   H18H13462   1.961   1.971   3.622 -0.8576 -0.2141 -0.2693
  127OSM      N13463   0.538   4.539   2.176 -0.2796  0.0788 -0.5386
  127OSM    C1513464   0.595   4.654   2.105 -0.3488 -0.8086 -0.1631
  127OSM   H15A13465   0.702   4.652   2.094  0.1073  3.5969  1.4865
  127OSM   H15B13466   0.586   4.745   2.163 -0.1081 -0.4255 -0.7098
  127OSM   H15C13467   0.549   4.679   2.010 -2.6109 -1.9755  0.5645
  127OSM    C1413468   0.395   4.569   2.180 -0.5313  0.3113 -0.2041
  127OSM   H14A13469   0.336   4.491   2.226 -1.5454 -0.1933 -2.2574
  127OSM   H14B13470   0.353   4.587   2.083  0.7505  3.5545 -0.2867
  127OSM   H14C13471   0.367   4.657   2.237  2.1525  0.5304  0.9371
  127OSM    C1313472   0.560   4.419   2.082  0.2108 -0.4172 -0.1635
  127OSM   H13A13473   0.493   4.337   2.104  0.5968 -0.8076 -0.4193
  127OSM   H13B13474   0.662   4.383   2.079 -0.1920 -1.8619  1.6825
  127OSM   H13C13475   0.535   4.448   1.981 -2.3327  0.1947  0.5791
  127OSM    C1213476   0.608   4.518   2.316 -0.4329  0.8632  0.5708
  127OSM   H12A13477   0.705   4.475   2.299 -0.6169  0.6411  0.0339
  127OSM   H12B13478   0.560   4.431   2.358  0.4268  0.8721  1.6080
  127OSM    C1113479   0.602   4.636   2.417 -0.2205  0.1183  0.4481
  127OSM   H11A13480   0.663   4.724   2.387 -0.6852  0.4635  0.5031
  127OSM   H11B13481   0.661   4.602   2.505  1.9000  0.8480 -0.6347
  127OSM      P13482   0.393   4.611   2.572 -0.4733  0.4961  0.2771
  127OSM    O1313483   0.279   4.698   2.595 -0.1241 -0.1142 -0.0350
  127OSM    O1413484   0.370   4.472   2.525  0.6014  0.2675 -0.3758
  127OSM    O1113485   0.489   4.606   2.706 -0.0401  0.1870  0.5543
  127OSM    O1213486   0.477   4.686   2.455  0.0781 -0.4814  0.4455
  127OSM    C1S13487   0.452   4.664   2.827  0.1430  0.1173 -0.0782
  127OSM    H1S13488   0.345   4.694   2.827 -0.4037 -1.6669 -0.7089
  127OSM    H1T13489   0.513   4.756   2.827  1.4128 -0.6994  0.2638
  127OSM     NF13490   0.443   4.647   3.069 -0.2811 -0.2519 -0.0061
  127OSM    HNF13491   0.506   4.715   3.105 -1.8101  0.8745  0.6176
  127OSM    C2S13492   0.490   4.580   2.950 -0.2614 -0.2092  0.1791
  127OSM    H2S13493   0.442   4.480   2.943 -0.3826 -0.2927  1.8236
  127OSM    C3S13494   0.643   4.543   2.941 -0.1762 -0.0089  0.1983
  127OSM    H3S13495   0.695   4.640   2.953  1.0801 -0.8847  2.2711
  127OSM     O313496   0.683   4.484   2.824 -0.2224  0.2203  0.0734
  127OSM    HO313497   0.613   4.516   2.768  0.6576  1.6638 -0.2349
  127OSM    C4S13498   0.680   4.458   3.068  0.3432 -0.2827  0.7529
  127OSM    H4S13499   0.738   4.510   3.146  2.8483  0.3011 -1.3748
  127OSM    C5S13500   0.665   4.329   3.079  0.3871  0.0523  0.0116
  127OSM    H5S13501   0.644   4.273   2.987 -2.2344 -0.4416  0.8391
  127OSM    C6S13502   0.707   4.236   3.188 -0.5991  0.5792  0.2278
  127OSM    H6S13503   0.773   4.156   3.148 -1.7276  0.0042 -0.5261
  127OSM    H6T13504   0.616   4.180   3.219 -0.1394  1.4621  3.5721
  127OSM    C7S13505   0.768   4.304   3.317  0.0251 -0.1115  0.2651
  127OSM    H7S13506   0.852   4.374   3.300  0.5057 -0.9971 -1.1677
  127OSM    H7T13507   0.824   4.229   3.378  1.0864  0.9466  0.6262
  127OSM    C8S13508   0.660   4.367   3.405 -0.1002  0.9798  0.3735
  127OSM    H8S13509   0.580   4.290   3.404 -0.0957  0.8811  2.4600
  127OSM    H8T13510   0.604   4.459   3.376 -2.1425 -0.7482 -1.5144
  127OSM    C9S13511   0.698   4.372   3.551  0.4944  0.5078  0.3531
  127OSM    H9S13512   0.764   4.285   3.574  1.3325  1.0548  0.0527
  127OSM    H9T13513   0.606   4.362   3.612 -1.3982 -2.9178 -2.6508
  127OSM   C10S13514   0.777   4.494   3.583 -0.1744 -0.0333  0.8067
  127OSM   H10S13515   0.744   4.585   3.527  0.2512  0.4730  1.3708
  127OSM   H10T13516   0.878   4.498   3.539 -1.2077  0.6779 -1.6914
  127OSM   C11S13517   0.780   4.532   3.735  0.0647  0.3019 -0.7589
  127OSM   H11S13518   0.868   4.592   3.763 -0.9849  2.4642 -1.8170
  127OSM   H11T13519   0.787   4.442   3.800  2.0028  1.1586  0.2872
  127OSM   C12S13520   0.656   4.613   3.779 -0.8826  0.4774  0.6388
  127OSM   H12S13521   0.566   4.551   3.755 -0.0141 -2.1081  3.3805
  127OSM   H12T13522   0.660   4.708   3.723  1.8044 -1.2051 -2.3452
  127OSM   C13S13523   0.660   4.640   3.931  0.2629 -0.3948  0.3887
  127OSM   H13S13524   0.739   4.705   3.973 -1.0210  1.6752 -0.2538
  127OSM   H13T13525   0.673   4.547   3.990 -1.6127 -1.1983 -0.3780
  127OSM   C14S13526   0.529   4.700   3.966  0.3207 -0.0061 -0.1259
  127OSM   H14S13527   0.520   4.680   4.075  0.8232 -1.0308 -0.2627
  127OSM   H14T13528   0.443   4.662   3.906 -0.0715 -0.9042  0.9652
  127OSM   C15S13529   0.526   4.850   3.961 -0.4443  0.1622  0.0012
  127OSM   H15S13530   0.489   4.879   3.860  0.0059  0.3479 -0.1145
  127OSM   H15T13531   0.619   4.904   3.988 -0.8798  0.0619  1.8174
  127OSM   C16S13532   0.430   4.905   4.067  0.3224  0.1781 -0.2702
  127OSM   H16S13533   0.430   5.014   4.048  1.0933  1.2521  4.5014
  127OSM   H16T13534   0.472   4.882   4.167  0.5952 -1.4096 -0.7166
  127OSM   C17S13535   0.286   4.841   4.060  0.2127 -0.3189  0.1581
  127OSM   H17S13536   0.276   4.731   4.047 -1.1592 -0.0424 -1.6661
  127OSM   H17T13537   0.251   4.877   3.960 -0.9583  0.6389  0.8895
  127OSM   C18S13538   0.202   4.901   4.167  0.6501  0.5944 -1.0345
  127OSM   H18S13539   0.235   4.860   4.265  2.0391  0.0924 -1.6838
  127OSM   H18T13540   0.095   4.883   4.141  0.2286 -1.1035  1.4982
  127OSM   H18U13541   0.216   5.011   4.175  0.3691  0.4981  1.3563
  127OSM    C1F13542   0.320   4.646   3.108 -0.0425 -0.6164 -0.2845
  127OSM     OF13543   0.235   4.558   3.072  0.0441  0.1226 -0.2559
  127OSM    C2F13544   0.280   4.752   3.200  0.5316  0.1817 -0.0909
  127OSM    H2F13545   0.193   4.808   3.159 -1.1242 -1.9891  0.3294
  127OSM    H2G13546   0.361   4.820   3.235 -1.2661  1.3312  2.1220
  127OSM    C3F13547   0.228   4.700   3.333 -0.4324  0.3358 -0.3928
  127OSM    H3F13548   0.181   4.600   3.322  1.1848 -0.6825  1.3810
  127OSM    H3G13549   0.160   4.772   3.382  0.8213  0.6097  1.0227
  127OSM    C4F13550   0.334   4.702   3.442 -0.4995 -0.9544 -0.2536
  127OSM    H4F13551   0.358   4.806   3.472  1.3828 -0.6381 -2.6040
  127OSM    H4G13552   0.425   4.658   3.396 -1.1644 -1.9555 -0.6380
  127OSM    C5F13553   0.298   4.616   3.564 -0.0684  0.7338  0.4837
  127OSM    H5F13554   0.362   4.641   3.652  1.8281 -0.2732 -0.5400
  127OSM    H5G13555   0.305   4.509   3.535 -1.4650  0.7701 -0.0681
  127OSM    C6F13556   0.149   4.621   3.621  0.8659 -0.2742  0.2770
  127OSM    H6F13557   0.093   4.535   3.580 -1.0455  1.2904 -0.5730
  127OSM    H6G13558   0.099   4.711   3.579  0.5493 -0.3815  0.4224
  127OSM    C7F13559   0.146   4.631   3.777 -0.1316 -0.2711 -0.6327
  127OSM    H7F13560   0.036   4.634   3.792 -0.3343 -3.9018 -0.5466
  127OSM    H7G13561   0.186   4.731   3.806 -2.1517  0.9143 -1.6710
  127OSM    C8F13562   0.196   4.510   3.861  0.2841  0.0291 -0.6925
  127OSM    H8F13563   0.189   4.531   3.970  2.1930  1.9803 -0.8818
  127OSM    H8G13564   0.305   4.499   3.844 -0.0477 -0.7412 -2.6978
  127OSM    C9F13565   0.133   4.377   3.818 -0.7337 -0.2640  0.5205
  127OSM    H9F13566   0.139   4.363   3.709  0.4513 -0.0362  0.5433
  127OSM   C10F13567   0.062   4.285   3.884 -0.5673 -0.0219 -0.4231
  127OSM   H10F13568   0.029   4.196   3.828  1.1259  0.7115 -2.7064
  127OSM   C11F13569   0.047   4.269   4.036  0.5325 -1.0284  0.8138
  127OSM   H11F13570  -0.025   4.191   4.070  0.5739 -0.5905  1.9730
  127OSM   H11G13571   0.000   4.366   4.063  0.6087 -0.7409 -0.0828
  127OSM   C12F13572   0.171   4.240   4.118 -0.6447 -0.1638 -0.0179
  127OSM   H12F13573   0.241   4.324   4.094 -1.1085 -0.3707 -2.3543
  127OSM   H12G13574   0.214   4.145   4.079  0.1337  0.5752 -1.0370
  127OSM   C13F13575   0.147   4.245   4.274 -0.3269  0.4616 -0.1109
  127OSM   H13F13576   0.075   4.161   4.283 -0.7432  0.8721  0.4665
  127OSM   H13G13577   0.099   4.342   4.298 -1.1653 -0.3903  1.8913
  127OSM   C14F13578   0.275   4.234   4.355  0.4687  0.3849 -0.1645
  127OSM   H14F13579   0.350   4.160   4.321  0.6811  1.1629 -1.4679
  127OSM   H14G13580   0.249   4.213   4.461  1.2368  2.4287  0.4802
  127OSM   C15F13581   0.348   4.368   4.353 -0.4247  0.7284 -0.0500
  127OSM   H15F13582   0.288   4.461   4.355 -2.3234 -0.4590  0.0777
  127OSM   H15G13583   0.405   4.375   4.258  0.0671  2.7693  0.3302
  127OSM   C16F13584   0.448   4.381   4.474 -0.6960  0.0925  0.4904
  127OSM   H16F13585   0.507   4.287   4.484  1.2255  1.2566  0.5140
  127OSM   H16G13586   0.389   4.368   4.568  1.9113 -0.5035  2.1525
  127OSM   C17F13587   0.529   4.506   4.480 -0.2876  0.1319 -0.1211
  127OSM   H17F13588   0.592   4.485   4.569  0.1007  1.9251  0.0685
  127OSM   H17G13589   0.475   4.601   4.501 -0.1697  0.4364 -1.1352
  127OSM   C18F13590   0.624   4.524   4.362  0.1175  0.0592  0.3419
  127OSM   H18F13591   0.714   4.583   4.389 -1.2212  3.2826 -1.6839
  127OSM   H18G13592   0.573   4.585   4.285  1.6281 -0.3071 -1.0094
  127OSM   H18H13593   0.637   4.427   4.309 -0.1622 -0.0246  0.4240
  128OSM      N13594   0.727   0.555   1.883 -0.1200  0.4281 -0.3101
  128OSM    C1513595   0.658   0.682   1.866 -0.4084 -0.1762  0.2008
  128OSM   H15A13596   0.700   0.756   1.932 -2.6066  0.3563  1.0842
  128OSM   H15B13597   0.553   0.677   1.890 -0.5658 -0.3728 -0.5094
  128OSM   H15C13598   0.660   0.714   1.763 -1.7745 -1.2530 -0.2033
  128OSM    C1413599   0.686   0.488   2.011 -0.1181  0.5354 -0.1216
  128OSM   H14A13600   0.732   0.391   2.019  1.3207  1.1224 -0.8868
  128OSM   H14B13601   0.584   0.450   2.011 -0.4749  1.4693  0.0061
  128OSM   H14C13602   0.700   0.551   2.097 -0.5088  1.6024 -0.8170
  128OSM    C1313603   0.683   0.459   1.775 -0.3616  0.0203 -0.2049
  128OSM   H13A13604   0.708   0.484   1.673 -1.3511  0.6930 -0.2959
  128OSM   H13B13605   0.576   0.442   1.774 -0.0362 -2.4497 -0.1074
  128OSM   H13C13606   0.734   0.370   1.810 -1.2779 -1.0705 -1.5642
  128OSM    C1213607   0.873   0.571   1.890  0.4974 -0.1369  0.4885
  128OSM   H12A13608   0.913   0.474   1.913  0.1854 -0.6959 -1.2100
  128OSM   H12B13609   0.902   0.634   1.973 -0.1125  0.6499  0.1224
  128OSM    C1113610   0.960   0.623   1.765  0.5186  0.5288  0.1262
  128OSM   H11A13611   0.939   0.565   1.673 -0.5922  0.8328  0.1690
  128OSM   H11B13612   1.063   0.589   1.789  0.4277 -0.9724 -1.3637
  128OSM      P13613   1.019   0.869   1.821  0.0325  0.1746 -0.4855
  128OSM    O1313614   1.161   0.873   1.786  0.1760 -0.0757  0.4795
  128OSM    O1413615   0.942   0.988   1.806  0.6523 -0.0674 -0.3423
  128OSM    O1113616   0.999   0.821   1.968  0.0905  0.0914 -0.2523
  128OSM    O1213617   0.949   0.760   1.736 -0.1951  0.2368 -0.1040
  128OSM    C1S13618   1.081   0.853   2.084 -0.1092  0.3274 -0.6684
  128OSM    H1S13619   1.186   0.876   2.058 -0.4027  1.3999 -0.9604
  128OSM    H1T13620   1.074   0.757   2.140 -0.1489  1.2007  0.8778
  128OSM     NF13621   1.113   0.994   2.271  0.0813 -0.1788  0.0214
  128OSM    HNF13622   1.121   0.932   2.349 -1.5838 -1.3790 -0.7147
  128OSM    C2S13623   1.012   0.964   2.167  0.9153 -0.0168  0.2510
  128OSM    H2S13624   0.997   1.050   2.098  0.9795 -0.2358 -0.0355
  128OSM    C3S13625   0.884   0.909   2.217  0.3889 -0.1593  0.2586
  128OSM    H3S13626   0.912   0.821   2.280  1.8148  0.6404  0.7779
  128OSM     O313627   0.793   0.882   2.113 -0.0162 -0.4368  0.7411
  128OSM    HO313628   0.836   0.912   2.033  1.9223 -2.1559  1.0664
  128OSM    C4S13629   0.817   1.010   2.309 -0.1023  0.5153  0.4680
  128OSM    H4S13630   0.790   1.105   2.260  1.4986  1.3214  1.0856
  128OSM    C5S13631   0.798   1.008   2.443  0.1024  0.0717 -0.5578
  128OSM    H5S13632   0.825   0.921   2.505  1.2642  0.1779 -0.8920
  128OSM    C6S13633   0.739   1.126   2.508 -0.0521 -0.1541  0.0562
  128OSM    H6S13634   0.696   1.093   2.605  2.1827  0.1003  1.2016
  128OSM    H6T13635   0.653   1.161   2.447  0.5705 -1.1013 -1.4449
  128OSM    C7S13636   0.844   1.244   2.517 -0.8933  0.0627  0.3605
  128OSM    H7S13637   0.788   1.335   2.546 -0.1418  0.1246  1.7036
  128OSM    H7T13638   0.883   1.268   2.415  0.6322 -0.5058  0.7769
  128OSM    C8S13639   0.967   1.222   2.611  0.0432 -0.2222  0.7196
  128OSM    H8S13640   1.021   1.319   2.614  0.7621 -0.6311  3.3396
  128OSM    H8T13641   1.033   1.144   2.566 -0.5264 -1.5360  2.0751
  128OSM    C9S13642   0.926   1.182   2.750 -0.1203  0.4513  0.4023
  128OSM    H9S13643   1.022   1.153   2.796  0.9215  0.2546 -1.7733
  128OSM    H9T13644   0.864   1.090   2.748 -1.2962  1.2295  0.1027
  128OSM   C10S13645   0.858   1.294   2.839 -0.3427 -0.0175  0.6001
  128OSM   H10S13646   0.778   1.335   2.773 -0.3812 -1.3451 -0.2138
  128OSM   H10T13647   0.938   1.371   2.841  1.4278 -1.7061 -1.0057
  128OSM   C11S13648   0.816   1.238   2.973  0.1814  0.8258  0.3782
  128OSM   H11S13649   0.736   1.161   2.962 -0.2753  1.5665 -2.3165
  128OSM   H11T13650   0.762   1.316   3.030  0.5690  1.6562 -0.3614
  128OSM   C12S13651   0.931   1.190   3.056  0.4427 -0.5160 -1.3475
  128OSM   H12S13652   1.013   1.266   3.056  1.1910 -1.3122 -0.7098
  128OSM   H12T13653   0.974   1.096   3.017  0.9699  0.0378 -2.1508
  128OSM   C13S13654   0.886   1.180   3.203 -0.4391  0.5565 -0.0997
  128OSM   H13S13655   0.845   1.077   3.208  0.5445 -0.0916 -3.2290
  128OSM   H13T13656   0.809   1.255   3.232 -3.3525 -2.5109  0.6122
  128OSM   C14S13657   1.000   1.180   3.304  0.6147 -0.0283 -0.1399
  128OSM   H14S13658   1.007   1.286   3.338 -0.8199  0.1864 -0.4510
  128OSM   H14T13659   1.091   1.146   3.251 -0.1805 -1.2951 -0.7397
  128OSM   C15S13660   0.977   1.089   3.423  0.1484 -0.4968 -0.5285
  128OSM   H15S13661   1.067   1.104   3.486  0.8190  0.9281 -1.7481
  128OSM   H15T13662   0.967   0.982   3.397  1.8994 -1.0968  1.0116
  128OSM   C16S13663   0.858   1.136   3.513 -0.3508 -0.1266  0.2561
  128OSM   H16S13664   0.760   1.091   3.485 -0.6997  0.4401  0.5537
  128OSM   H16T13665   0.847   1.246   3.498  1.2381  0.3323  2.0092
  128OSM   C17S13666   0.873   1.106   3.670 -0.1250  0.0554 -0.2921
  128OSM   H17S13667   0.796   1.168   3.720  1.1686 -0.1654  2.0851
  128OSM   H17T13668   0.973   1.131   3.713 -0.2849 -1.4153  1.0288
  128OSM   C18S13669   0.834   0.958   3.707 -0.1929 -0.2219 -0.1717
  128OSM   H18S13670   0.735   0.924   3.669  0.6643 -3.8918  0.5176
  128OSM   H18T13671   0.845   0.938   3.816 -0.4320  0.6642  0.0197
  128OSM   H18U13672   0.893   0.884   3.648  0.0405  0.5999 -1.0073
  128OSM    C1F13673   1.212   1.073   2.254 -0.8864  0.2089 -0.1425
  128OSM     OF13674   1.210   1.163   2.172 -0.0484 -0.1485 -0.3912
  128OSM    C2F13675   1.323   1.053   2.348 -0.5901 -0.5131  0.4165
  128OSM    H2F13676   1.418   1.061   2.293 -0.6766 -1.8817  0.0279
  128OSM    H2G13677   1.326   0.945   2.377  3.4483 -0.5352  0.3892
  128OSM    C3F13678   1.317   1.149   2.473  0.1276 -0.2579  0.2020
  128OSM    H3F13679   1.244   1.122   2.552  0.3721  0.6952  0.7765
  128OSM    H3G13680   1.271   1.246   2.444  1.3876  0.5839  0.8866
  128OSM    C4F13681   1.449   1.163   2.546 -0.4715  0.2613 -0.2918
  128OSM    H4F13682   1.531   1.166   2.470  0.0621  2.7995  0.2755
  128OSM    H4G13683   1.458   1.076   2.613  2.8183  0.2043 -0.6375
  128OSM    C5F13684   1.463   1.303   2.618 -0.2508  0.3598  0.0552
  128OSM    H5F13685   1.446   1.379   2.539  1.2646  1.9625  1.1725
  128OSM    H5G13686   1.568   1.303   2.655  0.9940  0.6716 -3.2151
  128OSM    C6F13687   1.372   1.305   2.745 -0.0470  0.7601  0.0460
  128OSM    H6F13688   1.266   1.284   2.717 -0.3360  1.9203  0.2127
  128OSM    H6G13689   1.383   1.410   2.781  2.5034  0.9351 -1.0667
  128OSM    C7F13690   1.415   1.204   2.854  0.3824  0.3060 -0.1115
  128OSM    H7F13691   1.522   1.221   2.880  0.2748 -0.1090  0.6239
  128OSM    H7G13692   1.402   1.101   2.813 -0.0400  0.8709 -1.4537
  128OSM    C8F13693   1.327   1.215   2.987 -0.2591  0.1719  0.4351
  128OSM    H8F13694   1.230   1.162   2.977  0.1095 -0.3841 -0.2975
  128OSM    H8G13695   1.307   1.324   2.990 -0.3806  0.3639 -3.2904
  128OSM    C9F13696   1.405   1.172   3.110 -0.2772 -0.1221  0.1346
  128OSM    H9F13697   1.448   1.073   3.088 -2.0365 -0.7376 -0.7707
  128OSM   C10F13698   1.433   1.233   3.229  0.6979 -0.4384 -0.3070
  128OSM   H10F13699   1.494   1.182   3.304  2.1919  0.5405 -0.8020
  128OSM   C11F13700   1.379   1.365   3.281  0.0951  0.3915 -0.5659
  128OSM   H11F13701   1.277   1.391   3.247 -0.2897  0.7945  0.8348
  128OSM   H11G13702   1.446   1.442   3.236  0.6825  0.0129 -0.3612
  128OSM   C12F13703   1.388   1.374   3.436  0.1564 -0.0434  0.9566
  128OSM   H12F13704   1.495   1.369   3.467  0.3140 -2.9714  0.2592
  128OSM   H12G13705   1.333   1.289   3.482 -0.2616 -0.2911  0.0166
  128OSM   C13F13706   1.323   1.503   3.492 -0.3260  0.1889  0.5614
  128OSM   H13F13707   1.214   1.487   3.476 -0.1678 -0.8389  0.4359
  128OSM   H13G13708   1.354   1.588   3.427 -1.2074  0.4650  0.4840
  128OSM   C14F13709   1.352   1.520   3.638  0.0422 -0.5255 -0.2878
  128OSM   H14F13710   1.462   1.531   3.651 -0.2063  1.5742  0.5411
  128OSM   H14G13711   1.331   1.423   3.687  0.3205 -1.7517 -2.4755
  128OSM   C15F13712   1.276   1.633   3.703  0.6382  0.2412 -0.7854
  128OSM   H15F13713   1.176   1.592   3.725  0.8391  0.2624  0.1993
  128OSM   H15G13714   1.272   1.723   3.637  1.6082  0.2209 -0.8871
  128OSM   C16F13715   1.333   1.674   3.840  0.5696  0.0353 -0.2968
  128OSM   H16F13716   1.418   1.741   3.818  2.4670 -2.3286 -0.6148
  128OSM   H16G13717   1.381   1.590   3.894 -2.4214 -1.7284 -0.1330
  128OSM   C17F13718   1.241   1.760   3.918  1.0832 -0.0268 -1.6884
  128OSM   H17F13719   1.287   1.763   4.020 -2.7293 -0.0842  0.1861
  128OSM   H17G13720   1.147   1.702   3.928 -0.0810  1.6708 -2.3229
  128OSM   C18F13721   1.202   1.903   3.869  0.4953 -0.7283 -0.0926
  128OSM   H18F13722   1.145   1.955   3.949  0.9777 -0.5024  0.1025
  128OSM   H18G13723   1.127   1.884   3.788  0.9279  0.6884 -0.8648
  128OSM   H18H13724   1.286   1.971   3.844  0.0030  0.6709  1.8345
  129OSM      N13725   3.604   6.452   1.827 -0.5195  0.5607  0.5734
  129OSM    C1513726   3.630   6.310   1.869 -0.2471 -0.6693  0.0879
  129OSM   H15A13727   3.564   6.242   1.818  1.0636 -0.2777 -2.2694
  129OSM   H15B13728   3.616   6.283   1.973  2.3060 -0.4563  0.5497
  129OSM   H15C13729   3.724   6.270   1.833  0.0104  0.4908 -0.5790
  129OSM    C1413730   3.726   6.530   1.870 -0.2571  0.7197 -0.2209
  129OSM   H14A13731   3.810   6.499   1.809 -0.3168 -1.9605  0.8970
  129OSM   H14B13732   3.745   6.511   1.975 -0.6409  0.2967 -0.2253
  129OSM   H14C13733   3.710   6.634   1.848  0.6911  1.0601  0.5904
  129OSM    C1313734   3.591   6.457   1.676 -0.4510 -0.3657 -0.4045
  129OSM   H13A13735   3.536   6.371   1.640 -1.2726 -0.2245  0.4761
  129OSM   H13B13736   3.694   6.463   1.644  0.2380  1.5732  1.8391
  129OSM   H13C13737   3.537   6.546   1.648  0.1303  0.1433  0.0677
  129OSM    C1213738   3.476   6.501   1.893  0.6990 -0.2787  0.7720
  129OSM   H12A13739   3.385   6.458   1.855  0.0663  1.8011 -0.2181
  129OSM   H12B13740   3.459   6.602   1.859 -0.3875 -1.0521 -1.1680
  129OSM    C1113741   3.468   6.499   2.045 -0.3349  0.3713 -0.0540
  129OSM   H11A13742   3.524   6.410   2.084 -0.8591 -0.3458 -0.9089
  129OSM   H11B13743   3.361   6.476   2.065 -0.1114 -3.0410 -1.9046
  129OSM      P13744   3.468   6.762   2.082  0.0984  0.1315 -0.3509
  129OSM    O1313745   3.541   6.866   2.154  0.1594 -0.0771 -0.2337
  129OSM    O1413746   3.472   6.786   1.937 -0.6111  0.1693  0.3133
  129OSM    O1113747   3.317   6.756   2.143 -0.0732 -0.0167  0.1488
  129OSM    O1213748   3.522   6.614   2.112  0.0474 -0.3362  0.5808
  129OSM    C1S13749   3.312   6.727   2.283  0.0550  0.1319  0.3025
  129OSM    H1S13750   3.401   6.673   2.322  0.6842  0.8611 -0.0893
  129OSM    H1T13751   3.226   6.663   2.310  0.1298  0.8936  2.5885
  129OSM     NF13752   3.243   6.825   2.500 -0.0051  0.3966 -0.0570
  129OSM    HNF13753   3.150   6.843   2.529  0.1061  0.2754  0.3794
  129OSM    C2S13754   3.266   6.854   2.357 -0.0346  0.0238 -0.5136
  129OSM    H2S13755   3.357   6.917   2.349  0.6105 -1.0069 -1.5545
  129OSM    C3S13756   3.137   6.919   2.290  0.1887 -0.1011  0.2517
  129OSM    H3S13757   3.054   6.846   2.288  0.8648 -0.8832 -1.0562
  129OSM     O313758   3.161   6.977   2.161  0.1947 -0.5004 -0.1988
  129OSM    HO313759   3.239   6.932   2.127  0.3331 -1.1618  0.9359
  129OSM    C4S13760   3.094   7.039   2.367 -0.1348 -0.1449  0.6737
  129OSM    H4S13761   2.989   7.024   2.397  0.1180 -2.8096  0.4203
  129OSM    C5S13762   3.156   7.149   2.417 -0.2930 -0.7133  0.4581
  129OSM    H5S13763   3.266   7.151   2.418 -0.1838  3.3224 -1.0049
  129OSM    C6S13764   3.084   7.253   2.505 -0.2605 -0.3540  0.9008
  129OSM    H6S13765   3.011   7.307   2.441 -0.0160  0.3461  1.2019
  129OSM    H6T13766   3.156   7.331   2.539  1.3717 -1.0328 -0.8358
  129OSM    C7S13767   3.004   7.187   2.623  0.3959  0.2788  0.1115
  129OSM    H7S13768   2.930   7.120   2.575 -1.7120  1.6106  1.3382
  129OSM    H7T13769   2.949   7.267   2.677 -1.8646 -1.3781  0.4045
  129OSM    C8S13770   3.094   7.113   2.732  0.6598 -0.4920  1.1017
  129OSM    H8S13771   3.182   7.180   2.748 -0.1108  1.2888 -1.3588
  129OSM    H8T13772   3.127   7.012   2.699  3.1731  0.1048  1.5498
  129OSM    C9S13773   3.003   7.095   2.859  0.4458  0.5449  0.1793
  129OSM    H9S13774   2.909   7.044   2.829  0.5586 -0.1222  0.9253
  129OSM    H9T13775   2.976   7.198   2.891  0.2004  0.7273 -0.5954
  129OSM   C10S13776   3.064   7.000   2.960 -0.8143 -0.4617 -0.0150
  129OSM   H10S13777   3.169   7.033   2.973 -0.5697 -0.1227 -2.3496
  129OSM   H10T13778   3.087   6.900   2.919  0.6828  0.5598 -1.8252
  129OSM   C11S13779   2.989   7.013   3.091 -0.2547  0.8792 -0.4880
  129OSM   H11S13780   2.885   6.975   3.077  0.1072 -0.6366  0.5537
  129OSM   H11T13781   2.982   7.120   3.117 -1.4898  1.0553 -1.4572
  129OSM   C12S13782   3.052   6.934   3.208 -0.3268 -0.4201  1.0369
  129OSM   H12S13783   3.157   6.968   3.202 -0.5398  0.1799  0.5998
  129OSM   H12T13784   3.060   6.825   3.188  2.0613 -0.1256  0.1305
  129OSM   C13S13785   3.003   6.986   3.348  0.3161 -0.2197 -0.5106
  129OSM   H13S13786   2.969   7.091   3.336 -1.8370 -0.6241  1.4997
  129OSM   H13T13787   3.092   6.998   3.413  0.5176  1.4463 -1.0457
  129OSM   C14S13788   2.877   6.906   3.396 -0.1404  0.0947  0.0761
  129OSM   H14S13789   2.910   6.808   3.436  4.2362  1.4841  0.3543
  129OSM   H14T13790   2.807   6.893   3.310  0.8481 -0.6206 -0.6429
  129OSM   C15S13791   2.801   6.973   3.514  0.5604  0.0252  0.1627
  129OSM   H15S13792   2.723   6.895   3.522  2.6781 -2.2353  0.1283
  129OSM   H15T13793   2.759   7.068   3.475  1.2009  1.3603  2.5256
  129OSM   C16S13794   2.891   6.981   3.642  0.2179  0.1678 -0.0270
  129OSM   H16S13795   2.963   7.064   3.626  1.3534 -1.2145 -2.5321
  129OSM   H16T13796   2.939   6.881   3.645  1.9128  0.9685  0.9292
  129OSM   C17S13797   2.802   6.993   3.769 -0.7045 -0.4552  0.0352
  129OSM   H17S13798   2.860   6.999   3.864  0.3716 -2.6797 -0.4103
  129OSM   H17T13799   2.738   6.902   3.775  1.0983 -1.7750  0.1663
  129OSM   C18S13800   2.701   7.107   3.775 -0.0253 -0.2284 -0.4591
  129OSM   H18S13801   2.636   7.090   3.863 -0.6344 -0.6483 -0.9785
  129OSM   H18T13802   2.631   7.111   3.689  0.3797 -0.3348 -0.7952
  129OSM   H18U13803   2.758   7.201   3.787  2.9370 -1.8954 -0.7089
  129OSM    C1F13804   3.337   6.774   2.579 -0.3523  0.4233  0.4771
  129OSM     OF13805   3.453   6.782   2.548  0.4896  0.6022  0.4009
  129OSM    C2F13806   3.293   6.717   2.707  0.0906 -0.5673  0.0048
  129OSM    H2F13807   3.199   6.658   2.703  0.9632 -2.0580  0.4300
  129OSM    H2G13808   3.270   6.803   2.774  1.6870 -1.3307  1.6293
  129OSM    C3F13809   3.412   6.625   2.759  0.3258 -0.2815  0.1686
  129OSM    H3F13810   3.511   6.673   2.770  0.2931  0.4376 -2.2283
  129OSM    H3G13811   3.420   6.543   2.685  0.4575 -0.6067  0.5397
  129OSM    C4F13812   3.381   6.551   2.896 -0.2235 -0.0758 -0.3605
  129OSM    H4F13813   3.465   6.481   2.918  1.3732  2.4472  2.4218
  129OSM    H4G13814   3.293   6.484   2.888 -0.0502 -0.3489 -0.0021
  129OSM    C5F13815   3.361   6.646   3.023 -0.8063  0.1467  0.4168
  129OSM    H5F13816   3.289   6.723   2.988  0.6538  1.1883 -0.4403
  129OSM    H5G13817   3.452   6.709   3.036 -0.7200  0.0010  0.5080
  129OSM    C6F13818   3.332   6.563   3.150  0.4264  1.1704 -0.1977
  129OSM    H6F13819   3.416   6.497   3.180 -2.1439 -2.2113  0.2228
  129OSM    H6G13820   3.247   6.492   3.145  0.9307  0.1682  2.9319
  129OSM    C7F13821   3.298   6.662   3.257 -0.1199  0.8791 -0.7076
  129OSM    H7F13822   3.196   6.707   3.252 -0.4184  0.4334  0.8431
  129OSM    H7G13823   3.379   6.738   3.247  0.1999  0.4313 -1.5892
  129OSM    C8F13824   3.306   6.602   3.403 -0.3104  0.1891 -0.5813
  129OSM    H8F13825   3.410   6.566   3.420  0.4487  2.7890  0.9513
  129OSM    H8G13826   3.246   6.509   3.392  0.1592 -0.1400 -0.4331
  129OSM    C9F13827   3.262   6.692   3.509  0.1005 -0.4946 -1.1910
  129OSM    H9F13828   3.311   6.790   3.495 -0.7508  0.2806  0.8532
  129OSM   C10F13829   3.175   6.676   3.612 -0.5512 -0.0191 -0.0490
  129OSM   H10F13830   3.170   6.757   3.687 -1.1970 -1.0111  1.0268
  129OSM   C11F13831   3.089   6.554   3.643 -0.7678 -0.6655 -0.0615
  129OSM   H11F13832   3.067   6.498   3.550  1.4891  0.0368 -1.0768
  129OSM   H11G13833   2.993   6.589   3.686 -0.2386  1.2979 -0.3867
  129OSM   C12F13834   3.170   6.466   3.740  0.3726  0.1865  0.1079
  129OSM   H12F13835   3.269   6.435   3.700 -1.5878 -4.4459 -1.8986
  129OSM   H12G13836   3.122   6.366   3.746  0.8334 -0.0640 -0.3237
  129OSM   C13F13837   3.195   6.515   3.880 -0.3064  0.1050 -0.9321
  129OSM   H13F13838   3.248   6.613   3.872  0.2366 -0.1129 -0.1928
  129OSM   H13G13839   3.262   6.442   3.932 -0.0340  0.9179 -0.1089
  129OSM   C14F13840   3.070   6.538   3.963  0.0002  0.1568  0.5218
  129OSM   H14F13841   3.014   6.442   3.958  2.2434 -1.1809 -1.2709
  129OSM   H14G13842   3.014   6.610   3.899  0.6330  1.1032  1.0001
  129OSM   C15F13843   3.087   6.592   4.108 -0.3138 -0.5238 -0.6063
  129OSM   H15F13844   3.169   6.667   4.106 -1.7117  1.1578  1.4050
  129OSM   H15G13845   3.125   6.517   4.181 -0.6577  1.1647  1.4155
  129OSM   C16F13846   2.970   6.671   4.155  0.2263 -0.1570  0.3672
  129OSM   H16F13847   2.937   6.750   4.084  2.5776  2.2435  1.7418
  129OSM   H16G13848   2.988   6.731   4.247  0.7366  3.4526 -1.8415
  129OSM   C17F13849   2.850   6.581   4.176  0.7337  0.3105  1.2268
  129OSM   H17F13850   2.816   6.538   4.079  0.0739 -1.4195  2.1872
  129OSM   H17G13851   2.768   6.648   4.211 -1.1462 -1.3586  0.2470
  129OSM   C18F13852   2.865   6.473   4.285  0.3725 -1.1423 -0.0135
  129OSM   H18F13853   2.775   6.409   4.283 -1.2827  1.0729 -0.2891
  129OSM   H18G13854   2.876   6.538   4.375 -0.4857  2.7517 -2.4649
  129OSM   H18H13855   2.958   6.414   4.267  1.4921  0.8543 -1.1272
  130OSM      N13856   3.251   4.309   1.774 -0.2849 -0.4402 -0.6053
  130OSM    C1513857   3.174   4.398   1.678 -0.0339 -0.0430  0.3502
  130OSM   H15A13858   3.068   4.385   1.688 -0.2486  1.4293  0.2630
  130OSM   H15B13859   3.190   4.384   1.572  0.0512  1.3913  0.1516
  130OSM   H15C13860   3.190   4.502   1.703 -1.6759  0.7479 -1.5812
  130OSM    C1413861   3.192   4.165   1.753 -0.1395  0.3429 -0.1566
  130OSM   H14A13862   3.086   4.170   1.771 -0.3011  2.4978 -1.2843
  130OSM   H14B13863   3.249   4.091   1.807 -1.6249 -3.1557 -2.9930
  130OSM   H14C13864   3.204   4.139   1.649  2.0443 -0.1702  0.1637
  130OSM    C1313865   3.390   4.305   1.725 -0.4225  0.6262 -0.2983
  130OSM   H13A13866   3.452   4.231   1.774  0.1675  1.9526  1.0441
  130OSM   H13B13867   3.444   4.398   1.740  0.6902 -0.2791  1.7345
  130OSM   H13C13868   3.391   4.289   1.618 -1.3352  1.2314 -0.4003
  130OSM    C1213869   3.239   4.362   1.916  0.2751 -0.5930 -0.1078
  130OSM   H12A13870   3.139   4.360   1.957 -1.4446 -0.0401 -3.8815
  130OSM   H12B13871   3.255   4.469   1.912 -1.4733 -0.3544 -2.7395
  130OSM    C1113872   3.328   4.292   2.025 -0.1618 -0.0080 -0.0764
  130OSM   H11A13873   3.296   4.346   2.117 -1.5984  1.8598 -1.5823
  130OSM   H11B13874   3.431   4.315   1.990 -0.3894  0.5300 -0.3971
  130OSM      P13875   3.392   4.041   2.093  0.0591 -0.0216 -0.0508
  130OSM    O1313876   3.329   3.912   2.067  0.8642  0.1026  0.0784
  130OSM    O1413877   3.531   4.055   2.045  0.0305  0.3685  0.1259
  130OSM    O1113878   3.383   4.085   2.245  0.4466  0.1050 -0.4662
  130OSM    O1213879   3.299   4.153   2.030  0.3142  0.3099  0.3270
  130OSM    C1S13880   3.263   4.087   2.316  0.1419  0.2178  0.3713
  130OSM    H1S13881   3.210   3.989   2.316  0.1260  0.2267  0.2514
  130OSM    H1T13882   3.188   4.148   2.262  1.7140  1.4277 -0.5414
  130OSM     NF13883   3.161   4.043   2.539  0.0390 -0.1698 -0.5340
  130OSM    HNF13884   3.076   4.094   2.553  0.4376  0.2537  0.4517
  130OSM    C2S13885   3.266   4.120   2.468 -0.0300 -0.5318 -0.1091
  130OSM    H2S13886   3.365   4.079   2.498  1.0683  0.3818 -2.2951
  130OSM    C3S13887   3.283   4.273   2.497  0.2232 -0.0278  0.1052
  130OSM    H3S13888   3.190   4.325   2.466  0.4255  1.1980  1.4784
  130OSM     O313889   3.380   4.329   2.409 -0.4132 -0.0192  0.0963
  130OSM    HO313890   3.395   4.262   2.342  0.3754  0.3278 -0.0816
  130OSM    C4S13891   3.294   4.310   2.643 -0.0042 -0.3773 -0.0045
  130OSM    H4S13892   3.196   4.338   2.684  1.1982  1.4054  1.8644
  130OSM    C5S13893   3.401   4.302   2.724  0.1099 -0.9207 -1.0283
  130OSM    H5S13894   3.499   4.258   2.703  0.6840  0.0035 -0.3690
  130OSM    C6S13895   3.389   4.330   2.875 -0.3091 -0.0861  0.9810
  130OSM    H6S13896   3.297   4.389   2.895 -0.6986  1.4103 -3.8629
  130OSM    H6T13897   3.475   4.391   2.908 -0.1427 -0.5777  1.4535
  130OSM    C7S13898   3.383   4.197   2.952  0.5945  0.1151 -0.5037
  130OSM    H7S13899   3.460   4.121   2.928  1.9663  0.8794  1.2290
  130OSM    H7T13900   3.281   4.155   2.948  0.7889 -0.6368  1.5228
  130OSM    C8S13901   3.388   4.228   3.097 -0.5157 -0.5234  0.1324
  130OSM    H8S13902   3.304   4.296   3.123  1.2505  1.2106  1.7340
  130OSM    H8T13903   3.491   4.270   3.106 -0.6953  0.7139 -2.6126
  130OSM    C9S13904   3.396   4.106   3.183 -0.4514 -0.6642 -0.6123
  130OSM    H9S13905   3.474   4.042   3.137  2.1638  0.3783  2.0558
  130OSM    H9T13906   3.298   4.054   3.179 -1.5715  1.3592 -1.0596
  130OSM   C10S13907   3.416   4.145   3.329  0.4615 -0.2824  0.0189
  130OSM   H10S13908   3.520   4.185   3.328  0.6848 -0.8657 -0.4972
  130OSM   H10T13909   3.423   4.060   3.399  2.7964 -1.0419 -1.0230
  130OSM   C11S13910   3.323   4.246   3.391  0.4333  0.0665  0.3168
  130OSM   H11S13911   3.217   4.211   3.394  0.1218  1.0069  0.9743
  130OSM   H11T13912   3.326   4.339   3.330  1.8527  0.1514  0.4974
  130OSM   C12S13913   3.368   4.278   3.536  0.2071  0.1824 -0.2516
  130OSM   H12S13914   3.416   4.378   3.533 -1.4436  0.9852 -0.7133
  130OSM   H12T13915   3.452   4.208   3.559  1.5965  2.2179  1.1754
  130OSM   C13S13916   3.270   4.265   3.650 -0.1275  0.1619 -0.4054
  130OSM   H13S13917   3.249   4.157   3.664 -0.2208  0.0885 -1.0687
  130OSM   H13T13918   3.175   4.314   3.619 -0.6229 -1.0352 -0.8442
  130OSM   C14S13919   3.325   4.317   3.782  0.2782  0.1529 -0.6061
  130OSM   H14S13920   3.343   4.427   3.783 -1.8541  0.5401  0.5953
  130OSM   H14T13921   3.425   4.271   3.801  0.8182  1.0427 -1.2002
  130OSM   C15S13922   3.222   4.297   3.892 -0.4014  0.4529 -0.2956
  130OSM   H15S13923   3.135   4.364   3.880 -0.3913  0.2484 -1.6852
  130OSM   H15T13924   3.269   4.326   3.989 -0.7610 -2.3715  0.8215
  130OSM   C16S13925   3.161   4.154   3.900  0.6306 -0.1105 -0.2463
  130OSM   H16S13926   3.241   4.078   3.887 -1.0768 -1.9225 -0.7809
  130OSM   H16T13927   3.099   4.138   3.809  2.1079 -0.7650 -1.1859
  130OSM   C17S13928   3.071   4.130   4.025  0.4188 -0.3426  0.3400
  130OSM   H17S13929   3.035   4.025   4.032  2.2200 -0.9426  1.1659
  130OSM   H17T13930   2.983   4.199   4.025  1.1308  0.5915 -0.7568
  130OSM   C18S13931   3.148   4.155   4.153  0.0963  0.7525  0.3103
  130OSM   H18S13932   3.092   4.126   4.244 -0.5346 -0.9408 -0.5534
  130OSM   H18T13933   3.179   4.261   4.164  0.2397  0.8088 -0.5322
  130OSM   H18U13934   3.235   4.086   4.159 -3.2952 -4.0108  1.1021
  130OSM    C1F13935   3.165   3.915   2.556  0.2729  0.4218 -0.1377
  130OSM     OF13936   3.239   3.842   2.485  0.2959 -0.2924 -0.0172
  130OSM    C2F13937   3.078   3.856   2.668  0.0060  0.1252  0.8676
  130OSM    H2F13938   3.093   3.746   2.673  1.9520  0.3037 -0.0005
  130OSM    H2G13939   2.974   3.878   2.637  0.3607  0.8523  0.1732
  130OSM    C3F13940   3.113   3.923   2.799  0.3112 -0.5263 -0.2042
  130OSM    H3F13941   3.086   4.031   2.795 -0.2360 -0.5328  2.0057
  130OSM    H3G13942   3.223   3.918   2.818  0.8276 -0.4481 -2.8304
  130OSM    C4F13943   3.024   3.859   2.913 -0.2037 -0.0068 -0.2969
  130OSM    H4F13944   3.037   3.750   2.931 -0.3656  0.1497  0.8477
  130OSM    H4G13945   2.918   3.881   2.888 -0.6426 -2.6276 -1.0468
  130OSM    C5F13946   3.064   3.935   3.037  0.2733  0.0812 -0.3662
  130OSM    H5F13947   3.042   4.039   3.007  0.1310 -0.3225 -1.7253
  130OSM    H5G13948   3.174   3.929   3.049  0.2693  1.0121  0.2495
  130OSM    C6F13949   2.981   3.904   3.159  0.6266 -0.1012 -0.1526
  130OSM    H6F13950   2.983   3.793   3.158  0.3349 -0.1100  0.0347
  130OSM    H6G13951   2.876   3.938   3.143 -0.5135 -3.0387  0.3179
  130OSM    C7F13952   3.028   3.966   3.284  0.2563 -0.1907 -0.4693
  130OSM    H7F13953   3.046   4.074   3.260  1.0859 -0.3854 -0.7611
  130OSM    H7G13954   3.125   3.925   3.319 -1.0726 -0.5452  3.1428
  130OSM    C8F13955   2.937   3.959   3.406  0.0015 -0.0915 -0.7651
  130OSM    H8F13956   2.838   4.001   3.378 -1.0665 -2.3779 -0.7118
  130OSM    H8G13957   2.998   4.015   3.481  2.5920 -1.4308 -1.7315
  130OSM    C9F13958   2.910   3.828   3.472 -0.2881  0.7041  0.0758
  130OSM    H9F13959   2.875   3.753   3.400  0.3260  1.1045 -0.6532
  130OSM   C10F13960   2.914   3.805   3.607  0.1270  0.3035  0.3308
  130OSM   H10F13961   2.906   3.707   3.657  1.5601  1.0357  2.1143
  130OSM   C11F13962   2.925   3.918   3.706  0.6536 -0.2867  0.4218
  130OSM   H11F13963   2.902   4.019   3.666  1.8736  0.1822  0.8421
  130OSM   H11G13964   3.032   3.934   3.735  0.6074  1.1618 -0.0884
  130OSM   C12F13965   2.848   3.882   3.828 -0.1208  0.1758 -0.1747
  130OSM   H12F13966   2.740   3.887   3.805  0.2230 -0.9537 -2.3779
  130OSM   H12G13967   2.873   3.970   3.891  0.4665  0.8171 -1.2494
  130OSM   C13F13968   2.879   3.750   3.914  0.6595 -1.2559  1.0628
  130OSM   H13F13969   2.813   3.676   3.863  0.1199 -1.4912  2.0825
  130OSM   H13G13970   2.836   3.758   4.016  2.7021  0.3634  1.8696
  130OSM   C14F13971   3.025   3.707   3.914 -0.1686 -0.0162  0.0105
  130OSM   H14F13972   3.082   3.788   3.964 -0.6985  0.8027 -0.6825
  130OSM   H14G13973   3.081   3.698   3.818  1.5986 -1.9179  1.1299
  130OSM   C15F13974   3.032   3.580   3.990 -0.1777  0.2075 -0.4236
  130OSM   H15F13975   2.966   3.499   3.953 -1.4830  0.2433  1.6548
  130OSM   H15G13976   2.978   3.593   4.086  0.7422  1.6979 -0.0793
  130OSM   C16F13977   3.178   3.543   4.007  0.3705 -0.2616  0.1294
  130OSM   H16F13978   3.233   3.630   4.050 -1.7796  0.5588  1.4263
  130OSM   H16G13979   3.222   3.512   3.910  1.8795  0.8194  0.4359
  130OSM   C17F13980   3.206   3.428   4.102  0.0897 -0.0398  0.0280
  130OSM   H17F13981   3.171   3.333   4.056  1.9842 -0.5699 -0.4292
  130OSM   H17G13982   3.149   3.448   4.195 -0.3502  0.2013 -0.2898
  130OSM   C18F13983   3.353   3.410   4.134  0.5324 -0.1562  0.4139
  130OSM   H18F13984   3.365   3.327   4.207 -4.2284 -3.2057 -1.7732
  130OSM   H18G13985   3.393   3.507   4.170  2.6091 -0.3020 -1.2554
  130OSM   H18H13986   3.401   3.366   4.044  0.2829  0.9631 -0.2910
  131OSM      N13987   2.133   0.062   2.144  0.1903  0.3765  0.3176
  131OSM    C1513988   2.240  -0.035   2.131 -0.1749 -0.4513  0.3163
  131OSM   H15A13989   2.215  -0.118   2.196 -0.7215 -0.6059 -0.0867
  131OSM   H15B13990   2.340   0.003   2.141 -0.0542 -1.1673  2.3356
  131OSM   H15C13991   2.231  -0.077   2.032  1.1710 -0.9653  0.3881
  131OSM    C1413992   2.158   0.180   2.052  0.3010  0.5445 -0.1102
  131OSM   H14A13993   2.197   0.146   1.958 -0.6395 -1.3017  0.1227
  131OSM   H14B13994   2.234   0.239   2.100 -0.3060  1.0902  0.1983
  131OSM   H14C13995   2.074   0.246   2.038 -0.2997 -0.1143  0.2909
  131OSM    C1313996   2.000   0.006   2.113 -0.2503 -0.1331 -0.2015
  131OSM   H13A13997   2.008  -0.064   2.031 -1.4388 -0.1311 -0.3382
  131OSM   H13B13998   1.927   0.079   2.080 -1.4030 -0.4748  1.4688
  131OSM   H13C13999   1.945  -0.024   2.201 -0.8624  1.1104 -0.1300
  131OSM    C1214000   2.131   0.108   2.293  0.5212  0.9948 -1.1073
  131OSM   H12A14001   2.227   0.154   2.311  0.6972  0.5742 -0.9560
  131OSM   H12B14002   2.126   0.025   2.362  0.9721  1.8139 -0.0524
  131OSM    C1114003   2.024   0.201   2.353 -0.0142  0.1854  0.0379
  131OSM   H11A14004   2.016   0.281   2.276 -1.3664 -0.8521 -0.9467
  131OSM   H11B14005   2.060   0.254   2.444  0.5781  0.3080 -0.2583
  131OSM      P14006   1.871   0.009   2.467 -0.0487  0.0495  0.5706
  131OSM    O1314007   1.736  -0.004   2.518 -0.0119  0.3406 -0.0041
  131OSM    O1414008   1.932  -0.106   2.402  0.6921 -0.1436 -0.1889
  131OSM    O1114009   1.966   0.046   2.584 -0.2832 -0.3286 -0.0214
  131OSM    O1214010   1.887   0.137   2.368 -0.1805 -0.0402  0.2568
  131OSM    C1S14011   1.934   0.175   2.652 -0.5288  0.0889 -0.3319
  131OSM    H1S14012   1.851   0.230   2.602 -1.3576  0.2578  1.1793
  131OSM    H1T14013   2.025   0.239   2.652 -0.2295 -0.2878  1.7250
  131OSM     NF14014   1.843   0.278   2.861  0.3155  0.0642  0.2551
  131OSM    HNF14015   1.897   0.310   2.938  1.4182  0.4143 -0.6488
  131OSM    C2S14016   1.877   0.154   2.793  0.0928  0.3235 -0.0690
  131OSM    H2S14017   1.786   0.092   2.777 -0.0203  0.6525 -0.7042
  131OSM    C3S14018   1.979   0.067   2.882  0.0151 -0.6642  0.2360
  131OSM    H3S14019   2.075   0.122   2.872 -0.4104  0.0771  0.1698
  131OSM     O314020   2.014  -0.064   2.833  0.3931  0.4968 -0.2313
  131OSM    HO314021   2.014  -0.052   2.738  1.3565  3.3841  0.0121
  131OSM    C4S14022   1.926   0.061   3.023  0.1838  0.2529 -0.2153
  131OSM    H4S14023   1.949   0.157   3.071  2.1052  0.7628 -1.9658
  131OSM    C5S14024   1.890  -0.045   3.096  0.0161 -0.3089 -0.0433
  131OSM    H5S14025   1.890  -0.145   3.052  0.1911 -1.0954  1.6383
  131OSM    C6S14026   1.847  -0.036   3.243  0.2612 -0.0394  0.5835
  131OSM    H6S14027   1.744  -0.079   3.242  0.8849 -1.5856 -0.3319
  131OSM    H6T14028   1.840   0.072   3.269  1.9217  0.6321 -1.5027
  131OSM    C7S14029   1.923  -0.099   3.361  0.7734 -0.0080  0.1586
  131OSM    H7S14030   2.034  -0.094   3.372  0.8404 -2.9332  1.8977
  131OSM    H7T14031   1.906  -0.208   3.355 -2.2466  0.3410  1.1497
  131OSM    C8S14032   1.861  -0.048   3.485  0.2481  0.1199 -0.2637
  131OSM    H8S14033   1.751  -0.033   3.480  0.1939  0.1735  0.7514
  131OSM    H8T14034   1.911   0.050   3.498  0.3666  0.1431 -0.8662
  131OSM    C9S14035   1.876  -0.135   3.605 -0.2193 -0.0455 -0.8842
  131OSM    H9S14036   1.986  -0.150   3.610 -0.3020 -0.7489 -1.0685
  131OSM    H9T14037   1.823  -0.232   3.587  1.0614 -0.8310 -0.5424
  131OSM   C10S14038   1.820  -0.055   3.730  0.2990  0.6131  0.5436
  131OSM   H10S14039   1.716  -0.028   3.704  0.5969  1.4797  0.1947
  131OSM   H10T14040   1.889   0.032   3.741  0.2549  0.5773  1.1635
  131OSM   C11S14041   1.838  -0.138   3.864 -0.0252  0.1995 -0.0404
  131OSM   H11S14042   1.947  -0.144   3.887  0.1203  2.9191  0.3037
  131OSM   H11T14043   1.792  -0.236   3.840  3.0095 -0.9751 -1.6803
  131OSM   C12S14044   1.761  -0.079   3.986 -0.4167 -0.0500  0.1602
  131OSM   H12S14045   1.652  -0.069   3.965 -0.1181 -0.0587 -1.5481
  131OSM   H12T14046   1.800   0.024   4.005  1.6957 -0.7512 -0.1655
  131OSM   C13S14047   1.783  -0.158   4.119 -0.2299  0.4003 -0.6169
  131OSM   H13S14048   1.840  -0.098   4.193  1.4513 -1.3642 -0.3893
  131OSM   H13T14049   1.827  -0.258   4.100 -0.8113  0.2198 -1.0534
  131OSM   C14S14050   1.650  -0.192   4.184  0.5138 -0.0991  0.3112
  131OSM   H14S14051   1.581  -0.248   4.117  2.3611 -1.0494 -0.8922
  131OSM   H14T14052   1.598  -0.098   4.212 -1.7386 -1.8786  2.5366
  131OSM   C15S14053   1.654  -0.271   4.322 -0.3593  0.4100 -0.0620
  131OSM   H15S14054   1.547  -0.274   4.353 -0.1486  2.2594  0.9350
  131OSM   H15T14055   1.701  -0.213   4.403  0.8475  1.5434 -1.5192
  131OSM   C16S14056   1.723  -0.406   4.319  0.5986 -0.1751  0.7169
  131OSM   H16S14057   1.832  -0.399   4.336  0.8848 -0.9043 -0.6598
  131OSM   H16T14058   1.716  -0.457   4.221 -0.4860  2.1408 -0.4738
  131OSM   C17S14059   1.666  -0.503   4.425  0.8804  0.5230 -0.4089
  131OSM   H17S14060   1.562  -0.523   4.391  0.9705 -0.1916 -0.2790
  131OSM   H17T14061   1.651  -0.460   4.526  1.3110  2.1362 -1.0025
  131OSM   C18S14062   1.757  -0.623   4.427  0.5903 -0.8476  0.2322
  131OSM   H18S14063   1.708  -0.705   4.484  1.3119 -1.1311  0.4548
  131OSM   H18T14064   1.842  -0.600   4.495  2.2230 -0.2201 -1.9045
  131OSM   H18U14065   1.788  -0.669   4.330  0.7711 -1.1240  0.4186
  131OSM    C1F14066   1.735   0.336   2.829 -0.0339  0.0139  0.4246
  131OSM     OF14067   1.669   0.293   2.734 -0.1545 -0.0939 -0.2803
  131OSM    C2F14068   1.682   0.445   2.912  0.0416 -0.7934 -0.0964
  131OSM    H2F14069   1.665   0.537   2.852  0.6786  0.9640  2.3219
  131OSM    H2G14070   1.749   0.464   2.997  2.0696 -1.0588 -1.5607
  131OSM    C3F14071   1.543   0.380   2.973 -1.0049 -0.3463  0.3955
  131OSM    H3F14072   1.482   0.342   2.889 -1.1011  2.2601 -0.7948
  131OSM    H3G14073   1.498   0.471   3.019  0.6062  0.7174 -0.0508
  131OSM    C4F14074   1.561   0.278   3.082 -0.0437 -0.2090 -0.5739
  131OSM    H4F14075   1.594   0.182   3.037  0.5688 -0.6432  0.7318
  131OSM    H4G14076   1.460   0.253   3.120 -0.4591  0.5297 -1.1669
  131OSM    C5F14077   1.650   0.325   3.202 -0.5618 -0.3659  0.1186
  131OSM    H5F14078   1.629   0.434   3.210  0.7813 -0.0773  0.0444
  131OSM    H5G14079   1.759   0.319   3.179  0.2719  1.3959  3.0455
  131OSM    C6F14080   1.617   0.260   3.336 -0.5073 -0.1679 -0.9350
  131OSM    H6F14081   1.706   0.246   3.401 -0.8229  0.7864 -0.2648
  131OSM    H6G14082   1.555   0.168   3.328 -0.5367 -0.1075 -1.4333
  131OSM    C7F14083   1.512   0.333   3.422 -0.3045  0.6623 -0.4045
  131OSM    H7F14084   1.412   0.344   3.373  0.4554  1.5598 -1.8322
  131OSM    H7G14085   1.553   0.429   3.460  0.7163 -0.4817  1.5429
  131OSM    C8F14086   1.479   0.252   3.552 -0.1166 -0.3565 -1.0074
  131OSM    H8F14087   1.580   0.227   3.590 -1.3125 -1.7265  1.5419
  131OSM    H8G14088   1.438   0.153   3.521 -0.6248 -0.0334 -1.3818
  131OSM    C9F14089   1.396   0.330   3.655 -0.2079  0.4703  0.0817
  131OSM    H9F14090   1.308   0.390   3.630 -0.9108 -0.7894 -0.6022
  131OSM   C10F14091   1.416   0.300   3.784  0.2324 -0.1669 -0.4560
  131OSM   H10F14092   1.371   0.354   3.869  0.6310 -0.0608 -0.3073
  131OSM   C11F14093   1.524   0.212   3.839  0.2285 -0.1036 -0.2110
  131OSM   H11F14094   1.628   0.237   3.810 -0.2482  0.1706 -1.8007
  131OSM   H11G14095   1.511   0.107   3.804  0.8726 -0.8526  1.6667
  131OSM   C12F14096   1.515   0.209   3.988 -0.1352  0.0935 -0.3519
  131OSM   H12F14097   1.526   0.310   4.032  2.9868 -0.3591  0.1117
  131OSM   H12G14098   1.607   0.160   4.028  0.2522  1.7582  0.9365
  131OSM   C13F14099   1.385   0.158   4.048  0.0262 -0.3186 -0.7535
  131OSM   H13F14100   1.373   0.054   4.010  0.6536 -0.6716 -0.0267
  131OSM   H13G14101   1.302   0.227   4.023 -0.4241 -0.9049 -0.8879
  131OSM   C14F14102   1.379   0.142   4.203 -0.5403  0.2380  0.1251
  131OSM   H14F14103   1.395   0.241   4.250 -2.2876 -0.1016  1.5764
  131OSM   H14G14104   1.464   0.074   4.225 -1.2604 -0.2898  1.4115
  131OSM   C15F14105   1.245   0.077   4.252 -0.4544 -0.3035 -0.2945
  131OSM   H15F14106   1.220  -0.013   4.193 -0.9366 -0.0587 -0.4714
  131OSM   H15G14107   1.176   0.161   4.229 -0.0288  0.1688  0.1442
  131OSM   C16F14108   1.241   0.039   4.398 -0.2695  0.2197  0.1121
  131OSM   H16F14109   1.282   0.125   4.456  0.0542  0.4641 -0.4655
  131OSM   H16G14110   1.306  -0.049   4.417 -0.3868  0.2072  0.4531
  131OSM   C17F14111   1.098   0.010   4.446 -0.2696  0.2499 -0.1264
  131OSM   H17F14112   1.117  -0.031   4.547 -0.3476 -1.7022 -0.8596
  131OSM   H17G14113   1.064  -0.073   4.381 -1.1816  0.5450 -0.0293
  131OSM   C18F14114   0.997   0.118   4.439  0.8409 -0.1193 -0.4475
  131OSM   H18F14115   0.976   0.153   4.335  2.2075  2.9803  0.2035
  131OSM   H18G14116   1.041   0.203   4.496 -1.7048  1.4093 -0.5988
  131OSM   H18H14117   0.901   0.085   4.484  0.1497  1.9834 -0.2645
  132OSM      N14118   6.084   5.770   1.605  0.5296  0.3380 -0.0107
  132OSM    C1514119   6.069   5.917   1.596 -0.6929 -0.1186 -0.3364
  132OSM   H15A14120   5.970   5.948   1.626 -0.0246 -1.1555  3.5812
  132OSM   H15B14121   6.099   5.947   1.497 -1.6050  0.7888 -0.3588
  132OSM   H15C14122   6.145   5.953   1.663 -1.2203 -0.8251  0.6699
  132OSM    C1414123   5.982   5.713   1.518 -0.0821  0.1341 -0.2486
  132OSM   H14A14124   5.879   5.725   1.549 -0.8999 -0.3941 -2.4889
  132OSM   H14B14125   6.003   5.607   1.507  0.3476 -0.0064  1.6266
  132OSM   H14C14126   5.995   5.761   1.422  0.5818  0.2113 -0.1244
  132OSM    C1314127   6.222   5.733   1.564 -0.1707  0.2149 -0.1197
  132OSM   H13A14128   6.292   5.800   1.613 -0.0497 -0.3816  0.5422
  132OSM   H13B14129   6.250   5.737   1.460 -0.2347 -0.6774 -0.1767
  132OSM   H13C14130   6.238   5.629   1.590  0.2466  0.7580  2.0604
  132OSM    C1214131   6.051   5.727   1.750  0.7883  0.4339 -0.2844
  132OSM   H12A14132   6.059   5.620   1.758  4.0261  0.6502  1.0356
  132OSM   H12B14133   5.945   5.738   1.768  0.5432 -1.0698 -0.6991
  132OSM    C1114134   6.132   5.786   1.865 -0.2126 -0.3235 -0.5067
  132OSM   H11A14135   6.240   5.777   1.841 -0.1996  1.0664 -1.0135
  132OSM   H11B14136   6.113   5.729   1.959  0.1328  2.4846  1.3792
  132OSM      P14137   5.976   5.960   1.987  0.2469  0.5342 -0.5005
  132OSM    O1314138   5.967   6.110   2.016 -0.6789 -0.1209  0.2501
  132OSM    O1414139   5.855   5.891   1.943 -0.6037  0.4604 -0.0701
  132OSM    O1114140   6.025   5.888   2.114  0.3592 -0.3143 -0.1003
  132OSM    O1214141   6.096   5.928   1.888 -0.3633  0.2415 -0.2676
  132OSM    C1S14142   5.918   5.855   2.205 -0.5585 -0.6122 -0.8147
  132OSM    H1S14143   5.859   5.768   2.168 -1.9799 -0.4247  0.8713
  132OSM    H1T14144   5.844   5.938   2.213 -1.1395 -1.0042 -1.9679
  132OSM     NF14145   5.887   5.738   2.425  0.1584  0.3893  0.1062
  132OSM    HNF14146   5.828   5.774   2.497 -2.1849 -2.2888 -0.2752
  132OSM    C2S14147   5.979   5.822   2.348  1.7071  0.2535 -0.6336
  132OSM    H2S14148   6.074   5.764   2.340  0.3108 -2.5047  1.0184
  132OSM    C3S14149   6.010   5.961   2.415 -0.0921  0.1393 -0.4378
  132OSM    H3S14150   5.917   6.021   2.405  0.0884  0.6958  1.0569
  132OSM     O314151   6.104   6.041   2.343  0.1148  0.2997  0.2561
  132OSM    HO314152   6.101   6.004   2.254  1.5586  0.0418  0.3026
  132OSM    C4S14153   6.050   5.947   2.561  0.2462  0.0126 -0.6605
  132OSM    H4S14154   5.975   5.915   2.635  1.3942  0.9991  1.0115
  132OSM    C5S14155   6.170   5.944   2.624 -0.0148  0.2908  0.6575
  132OSM    H5S14156   6.260   5.953   2.562 -0.7687  2.5738 -0.2365
  132OSM    C6S14157   6.186   5.931   2.777 -0.5899 -0.2323 -0.1027
  132OSM    H6S14158   6.272   5.866   2.804 -0.8326 -1.0731 -1.2683
  132OSM    H6T14159   6.096   5.881   2.819  0.0711 -1.7280 -0.3875
  132OSM    C7S14160   6.175   6.066   2.851 -0.3060  0.6265 -0.2030
  132OSM    H7S14161   6.075   6.114   2.852 -0.3802  0.6457  3.0591
  132OSM    H7T14162   6.242   6.138   2.800  2.0862 -1.6460 -0.4686
  132OSM    C8S14163   6.218   6.067   3.002 -0.1442  0.1048  0.1646
  132OSM    H8S14164   6.187   6.166   3.039  0.2431  0.4104 -0.3104
  132OSM    H8T14165   6.328   6.062   3.019 -0.1707 -0.8943  0.1172
  132OSM    C9S14166   6.137   5.964   3.090  0.7587 -0.2590 -0.2018
  132OSM    H9S14167   6.156   5.862   3.051  1.5918 -1.5897  3.2958
  132OSM    H9T14168   6.031   5.991   3.076  0.8369 -0.7173 -1.7954
  132OSM   C10S14169   6.194   5.971   3.237 -0.3170 -0.2286  0.0979
  132OSM   H10S14170   6.215   6.078   3.259 -0.7282 -0.1134 -0.0525
  132OSM   H10T14171   6.293   5.925   3.255  0.5481  0.8718 -1.5535
  132OSM   C11S14172   6.090   5.913   3.332  0.3419 -0.0545 -0.5058
  132OSM   H11S14173   6.098   5.802   3.334 -0.1910 -0.1065  1.8992
  132OSM   H11T14174   5.993   5.941   3.286  0.4755 -0.9137 -1.3308
  132OSM   C12S14175   6.103   5.965   3.478  0.1572  0.0006 -0.0048
  132OSM   H12S14176   6.072   6.069   3.453  0.7623  0.2821  0.3905
  132OSM   H12T14177   6.213   5.969   3.493  0.4838  1.1486 -2.2211
  132OSM   C13S14178   6.013   5.905   3.587 -0.4751  0.1533 -0.5778
  132OSM   H13S14179   6.038   5.799   3.609 -4.7238 -0.9356 -0.0691
  132OSM   H13T14180   5.910   5.899   3.544 -0.7683 -4.3548  0.2520
  132OSM   C14S14181   6.014   5.974   3.723  0.3080 -0.0777  0.1137
  132OSM   H14S14182   5.947   6.062   3.727  2.3004  1.4635  2.2263
  132OSM   H14T14183   6.113   6.022   3.736  0.4017 -0.0193 -0.7160
  132OSM   C15S14184   5.991   5.874   3.832  0.0639  0.3212  0.0170
  132OSM   H15S14185   6.086   5.824   3.857  1.2559  3.0680  1.4081
  132OSM   H15T14186   5.916   5.800   3.796  0.3390  0.6091 -1.1908
  132OSM   C16S14187   5.936   5.936   3.962 -0.0239 -0.5719  0.0474
  132OSM   H16S14188   5.892   5.860   4.031  1.2275 -1.8676 -0.5211
  132OSM   H16T14189   5.849   6.003   3.944 -0.5441 -0.8178  1.4583
  132OSM   C17S14190   6.043   6.013   4.044 -1.1006 -0.3996 -0.0198
  132OSM   H17S14191   5.999   6.082   4.119 -0.4445 -0.2831  0.2604
  132OSM   H17T14192   6.105   6.073   3.974 -0.8661 -1.4439 -0.7415
  132OSM   C18S14193   6.129   5.920   4.144  0.8086 -0.5895  0.6386
  132OSM   H18S14194   6.071   5.834   4.184 -1.7055 -0.4669 -2.3290
  132OSM   H18T14195   6.178   5.977   4.226  0.8652 -1.7061  1.3990
  132OSM   H18U14196   6.212   5.878   4.083  1.5840  1.9235 -0.1521
  132OSM    C1F14197   5.847   5.613   2.399 -0.4509 -0.3136 -0.2977
  132OSM     OF14198   5.902   5.544   2.310  0.6073  0.3636  0.1818
  132OSM    C2F14199   5.733   5.565   2.481 -0.2061  0.5109  0.1173
  132OSM    H2F14200   5.710   5.468   2.433  0.1467  0.1314  0.7101
  132OSM    H2G14201   5.638   5.623   2.488 -0.8181 -0.4660  0.0152
  132OSM    C3F14202   5.764   5.530   2.626 -0.1375 -0.3149  0.0377
  132OSM    H3F14203   5.859   5.471   2.630 -0.9170 -1.5674  0.9712
  132OSM    H3G14204   5.688   5.457   2.661 -0.4226  1.0192  2.4326
  132OSM    C4F14205   5.756   5.641   2.735  0.3338  0.0555  0.7622
  132OSM    H4F14206   5.660   5.696   2.725 -0.6276 -1.7647 -0.6195
  132OSM    H4G14207   5.842   5.709   2.718 -0.8803  1.3240 -0.5757
  132OSM    C5F14208   5.764   5.576   2.872 -0.2744 -0.8347  0.5902
  132OSM    H5F14209   5.860   5.521   2.885  0.2508 -0.1248 -0.1869
  132OSM    H5G14210   5.675   5.510   2.874 -0.9782 -0.1805 -2.7229
  132OSM    C6F14211   5.736   5.675   2.986  0.3534 -0.3773  0.2171
  132OSM    H6F14212   5.637   5.725   2.984 -0.0343 -1.0508  1.3193
  132OSM    H6G14213   5.814   5.754   2.992 -0.1082 -0.0055  3.3304
  132OSM    C7F14214   5.756   5.614   3.119 -0.2043 -0.3853 -1.1994
  132OSM    H7F14215   5.863   5.584   3.126 -0.2416 -0.9506 -2.7589
  132OSM    H7G14216   5.690   5.526   3.133 -0.5217  0.1659  1.3323
  132OSM    C8F14217   5.748   5.712   3.240 -0.6532 -0.7301  0.0347
  132OSM    H8F14218   5.641   5.740   3.249 -0.7116 -1.0252  0.2859
  132OSM    H8G14219   5.796   5.811   3.224  0.1576 -1.2902 -1.2336
  132OSM    C9F14220   5.810   5.664   3.372  0.0644  0.1012 -0.0923
  132OSM    H9F14221   5.915   5.631   3.369  0.0323  0.0542 -0.9167
  132OSM   C10F14222   5.757   5.685   3.497  0.2874 -0.3838  0.7706
  132OSM   H10F14223   5.809   5.639   3.582  1.7027  0.5470  0.4302
  132OSM   C11F14224   5.623   5.746   3.524 -0.7501 -0.0076 -0.0465
  132OSM   H11F14225   5.555   5.744   3.436 -0.8780  2.0230 -0.0309
  132OSM   H11G14226   5.648   5.852   3.545 -1.6900 -0.1979  2.3258
  132OSM   C12F14227   5.548   5.681   3.642  0.6401 -0.4412  0.6324
  132OSM   H12F14228   5.516   5.578   3.615 -0.6298  0.4958 -1.7753
  132OSM   H12G14229   5.447   5.727   3.650  0.6416 -0.5167  1.1313
  132OSM   C13F14230   5.619   5.679   3.773  0.2600 -0.0308  0.1075
  132OSM   H13F14231   5.663   5.777   3.800  0.0934 -0.3393  1.6016
  132OSM   H13G14232   5.704   5.608   3.772  3.1370  3.1635  1.1381
  132OSM   C14F14233   5.535   5.627   3.887  0.2468  0.9728 -0.0910
  132OSM   H14F14234   5.488   5.529   3.864  2.7297 -0.9045  2.1403
  132OSM   H14G14235   5.456   5.703   3.904  1.5732  2.7584 -1.5800
  132OSM   C15F14236   5.612   5.628   4.013 -0.0416  0.1671 -0.7126
  132OSM   H15F14237   5.668   5.723   4.029 -0.7610  0.4566  0.2377
  132OSM   H15G14238   5.686   5.547   4.001 -3.5645 -3.1497 -2.0395
  132OSM   C16F14239   5.542   5.589   4.149  0.8847  0.0345 -0.6674
  132OSM   H16F14240   5.618   5.550   4.220 -0.9876 -2.2687  0.2253
  132OSM   H16G14241   5.481   5.497   4.140 -0.2387  0.5413  1.2201
  132OSM   C17F14242   5.464   5.706   4.218 -0.7509  0.2824 -0.5457
  132OSM   H17F14243   5.370   5.730   4.163 -0.9867 -1.7235 -1.0993
  132OSM   H17G14244   5.533   5.793   4.220 -0.5365  0.1144  1.1553
  132OSM   C18F14245   5.409   5.669   4.359  0.1849  0.0227 -0.7710
  132OSM   H18F14246   5.486   5.625   4.426 -3.6579 -1.7905  2.9672
  132OSM   H18G14247   5.332   5.589   4.361 -0.1364  0.3236  1.1891
  132OSM   H18H14248   5.369   5.765   4.400  1.7873  1.2823 -1.9916
  133OSM      N14249   3.993   3.646   1.798  0.3652  0.0717  0.1895
  133OSM    C1514250   3.929   3.775   1.829  0.5209  0.4993  0.0627
  133OSM   H15A14251   3.996   3.845   1.878  0.2080 -0.0726  1.3707
  133OSM   H15B14252   3.838   3.765   1.886 -0.1932 -1.0746 -1.2862
  133OSM   H15C14253   3.891   3.823   1.741 -1.4573 -0.4368  0.3467
  133OSM    C1414254   3.875   3.558   1.763 -0.3059 -0.0692 -0.0838
  133OSM   H14A14255   3.830   3.594   1.672  0.1998  0.1981 -0.2351
  133OSM   H14B14256   3.797   3.568   1.837 -2.6169 -0.3599 -2.3483
  133OSM   H14C14257   3.904   3.454   1.755 -0.4482 -0.3070  1.9550
  133OSM    C1314258   4.095   3.654   1.685 -0.2232  0.4335 -0.3236
  133OSM   H13A14259   4.187   3.690   1.728 -0.5795  0.1691  0.6827
  133OSM   H13B14260   4.052   3.709   1.602 -2.3681 -2.4746 -1.3185
  133OSM   H13C14261   4.120   3.552   1.658  1.3397  0.7101 -0.0114
  133OSM    C1214262   4.063   3.592   1.925 -0.2438  0.9105 -0.1752
  133OSM   H12A14263   3.988   3.588   2.003 -0.9779 -1.9801 -0.8996
  133OSM   H12B14264   4.145   3.656   1.955  0.6954 -0.4809  0.2899
  133OSM    C1114265   4.111   3.443   1.927  0.4581 -0.2077  0.2197
  133OSM   H11A14266   4.022   3.378   1.912  0.5215 -0.1624 -0.3805
  133OSM   H11B14267   4.143   3.413   2.029  2.2297 -1.0238 -0.5319
  133OSM      P14268   4.249   3.281   1.780 -0.1925  0.3720  0.4443
  133OSM    O1314269   4.165   3.253   1.660 -0.3261  0.2845 -0.0836
  133OSM    O1414270   4.398   3.280   1.769 -0.0522 -0.3042  1.0549
  133OSM    O1114271   4.202   3.192   1.896 -0.0100 -0.1431  0.6515
  133OSM    O1214272   4.210   3.419   1.832 -0.2775 -0.6620  0.4929
  133OSM    C1S14273   4.271   3.163   2.017 -0.8546 -0.0172 -0.5659
  133OSM    H1S14274   4.330   3.252   2.047  0.3541 -1.4791  1.6245
  133OSM    H1T14275   4.333   3.070   2.010 -2.6840 -1.7783  3.4459
  133OSM     NF14276   4.224   3.156   2.269  1.0126  0.3601  0.6665
  133OSM    HNF14277   4.229   3.082   2.335 -0.7094  0.6283  1.1524
  133OSM    C2S14278   4.169   3.130   2.131 -0.1388 -0.4072  0.4926
  133OSM    H2S14279   4.091   3.206   2.108  0.8649  0.9790  1.4915
  133OSM    C3S14280   4.116   2.985   2.106 -0.1202  0.1707 -0.0971
  133OSM    H3S14281   4.199   2.911   2.109  0.2087  0.5127 -0.5730
  133OSM     O314282   4.053   2.958   1.982 -0.1299 -0.0499  0.1962
  133OSM    HO314283   4.072   3.036   1.929  1.4795 -1.5401 -1.6218
  133OSM    C4S14284   4.021   2.946   2.216 -0.4407  0.3903 -0.0530
  133OSM    H4S14285   3.921   2.991   2.209 -1.2583 -1.2175  0.6894
  133OSM    C5S14286   4.026   2.840   2.299  0.4584 -0.3596 -0.0721
  133OSM    H5S14287   4.113   2.774   2.313  0.5852 -0.0146  0.8255
  133OSM    C6S14288   3.908   2.811   2.393  0.2854 -0.4138 -0.6682
  133OSM    H6S14289   3.854   2.717   2.369 -0.7694  0.2933 -1.1185
  133OSM    H6T14290   3.829   2.889   2.403  0.3353 -0.6104  1.9866
  133OSM    C7S14291   3.951   2.802   2.540 -0.7496  0.2752  0.2671
  133OSM    H7S14292   4.019   2.882   2.575 -0.7827  1.0848 -1.3749
  133OSM    H7T14293   4.011   2.709   2.535  2.2763  2.1362 -0.3316
  133OSM    C8S14294   3.832   2.768   2.637 -0.3389 -0.3440  0.3042
  133OSM    H8S14295   3.789   2.668   2.616 -0.6009 -0.2420  0.3577
  133OSM    H8T14296   3.747   2.838   2.624  0.4897  0.3917 -1.4453
  133OSM    C9S14297   3.884   2.767   2.780 -0.2382 -0.4704  0.3513
  133OSM    H9S14298   3.938   2.861   2.805 -0.5280 -0.3707  0.6061
  133OSM    H9T14299   3.964   2.690   2.794  2.4252  2.2932  1.5773
  133OSM   C10S14300   3.772   2.750   2.878 -0.0121 -0.1134 -0.4229
  133OSM   H10S14301   3.706   2.668   2.840 -1.1190  0.4792  0.1740
  133OSM   H10T14302   3.719   2.843   2.908 -2.2289 -1.7739  1.1555
  133OSM   C11S14303   3.815   2.702   3.019  0.1549 -0.1127 -0.4641
  133OSM   H11S14304   3.920   2.735   3.037  0.0686 -0.1291  0.1023
  133OSM   H11T14305   3.825   2.592   3.031  0.2846 -0.1480 -0.9016
  133OSM   C12S14306   3.714   2.753   3.134 -0.9287 -0.0948  2.0699
  133OSM   H12S14307   3.615   2.704   3.121  0.0358 -1.3788 -1.0853
  133OSM   H12T14308   3.695   2.861   3.115  0.8981 -0.1356 -0.4089
  133OSM   C13S14309   3.770   2.736   3.272  0.5719 -0.6547 -0.6730
  133OSM   H13S14310   3.857   2.797   3.305  1.6449 -2.5944  0.2298
  133OSM   H13T14311   3.804   2.631   3.285  1.2928 -0.3447  0.0146
  133OSM   C14S14312   3.657   2.745   3.378 -0.1562 -0.4303  0.6737
  133OSM   H14S14313   3.578   2.671   3.353  0.8043 -0.5894 -2.2491
  133OSM   H14T14314   3.632   2.851   3.399  1.6394 -0.1949  1.8710
  133OSM   C15S14315   3.702   2.691   3.515  0.4326 -0.3656 -0.4352
  133OSM   H15S14316   3.737   2.586   3.500  0.9487 -0.3191  0.4017
  133OSM   H15T14317   3.610   2.690   3.577  0.2720 -1.2903 -0.6671
  133OSM   C16S14318   3.814   2.781   3.562 -0.1570 -0.0558  0.4185
  133OSM   H16S14319   3.797   2.885   3.525  0.4720  0.6504  2.0093
  133OSM   H16T14320   3.912   2.742   3.529 -0.5327 -1.9637  1.4456
  133OSM   C17S14321   3.816   2.804   3.716  0.3973  0.3391  0.5819
  133OSM   H17S14322   3.909   2.864   3.727  1.7845 -1.4667 -0.7002
  133OSM   H17T14323   3.818   2.706   3.769  2.0121  0.8419  1.5138
  133OSM   C18S14324   3.698   2.890   3.768 -0.0546  0.0268 -1.1812
  133OSM   H18S14325   3.704   2.987   3.713  0.2765  1.1181  0.6746
  133OSM   H18T14326   3.719   2.915   3.874  2.5461  1.0055 -1.8538
  133OSM   H18U14327   3.601   2.837   3.757  0.8748 -1.8262 -0.7581
  133OSM    C1F14328   4.265   3.277   2.313  0.2738 -0.2077  0.3196
  133OSM     OF14329   4.233   3.377   2.250 -0.4811  0.6676 -0.3265
  133OSM    C2F14330   4.347   3.277   2.435  0.6527  0.8005  0.1279
  133OSM    H2F14331   4.447   3.312   2.401  1.1848 -1.1742 -0.4845
  133OSM    H2G14332   4.366   3.171   2.464  1.1372  1.1785  1.2563
  133OSM    C3F14333   4.278   3.351   2.551 -0.3094  0.0678  0.0173
  133OSM    H3F14334   4.190   3.289   2.579 -1.0337  0.7086 -0.7624
  133OSM    H3G14335   4.239   3.446   2.511  0.7355  0.8884  0.8962
  133OSM    C4F14336   4.360   3.394   2.677  0.0324 -0.2290  0.1883
  133OSM    H4F14337   4.440   3.465   2.646  1.4451 -1.7648  0.1738
  133OSM    H4G14338   4.409   3.302   2.715  0.7282 -0.4053 -1.0644
  133OSM    C5F14339   4.268   3.458   2.787 -0.0580  0.2247  0.0951
  133OSM    H5F14340   4.182   3.389   2.800  0.0007  0.2773  0.8008
  133OSM    H5G14341   4.227   3.553   2.746 -1.3809 -0.8767 -1.2304
  133OSM    C6F14342   4.333   3.474   2.924 -0.3084  0.7161  0.5880
  133OSM    H6F14343   4.434   3.520   2.913  0.0405 -0.5109 -2.4104
  133OSM    H6G14344   4.354   3.373   2.964 -1.9503  0.1534  0.0914
  133OSM    C7F14345   4.245   3.544   3.029  0.0395  0.0789  0.2939
  133OSM    H7F14346   4.153   3.482   3.036  0.5555 -0.9591 -1.5127
  133OSM    H7G14347   4.216   3.647   3.000 -0.1271  0.1358  0.6635
  133OSM    C8F14348   4.311   3.548   3.165  0.6403  0.3694  0.6472
  133OSM    H8F14349   4.399   3.616   3.166  1.7489 -1.0032  0.4377
  133OSM    H8G14350   4.348   3.447   3.192 -1.2269 -0.6692 -0.4515
  133OSM    C9F14351   4.205   3.590   3.268 -0.1748  0.5660  0.2681
  133OSM    H9F14352   4.097   3.580   3.247 -0.2798 -2.2958  1.7268
  133OSM   C10F14353   4.237   3.634   3.390 -0.3924 -0.5435  0.1019
  133OSM   H10F14354   4.165   3.680   3.458  0.0072  2.3932 -1.3162
  133OSM   C11F14355   4.379   3.645   3.446 -0.3267  0.0392  0.3142
  133OSM   H11F14356   4.391   3.742   3.497  2.0302  0.6922 -1.3322
  133OSM   H11G14357   4.460   3.622   3.373  0.8842 -2.6923  2.3667
  133OSM   C12F14358   4.399   3.552   3.569  1.0508  1.1676  0.4351
  133OSM   H12F14359   4.503   3.561   3.607  0.6228 -0.8708  2.2313
  133OSM   H12G14360   4.385   3.451   3.525 -1.8208  2.3817 -1.7713
  133OSM   C13F14361   4.295   3.584   3.683  0.5334  0.6421 -0.4942
  133OSM   H13F14362   4.190   3.605   3.654  0.7267  0.7682 -1.1299
  133OSM   H13G14363   4.334   3.683   3.711 -1.9766  1.5491  0.0731
  133OSM   C14F14364   4.291   3.478   3.793  0.3118 -0.2668 -0.0713
  133OSM   H14F14365   4.395   3.460   3.828 -0.0582 -0.7644  0.8118
  133OSM   H14G14366   4.257   3.377   3.760  1.8195 -0.3347 -1.5822
  133OSM   C15F14367   4.222   3.529   3.928  0.2882  0.7274  0.3130
  133OSM   H15F14368   4.112   3.539   3.917  0.2359 -0.1022  0.0541
  133OSM   H15G14369   4.263   3.631   3.945  0.7382  0.7241 -0.6716
  133OSM   C16F14370   4.241   3.431   4.047  0.1939  0.3800  0.2619
  133OSM   H16F14371   4.348   3.431   4.076 -0.7337  1.6729  4.3693
  133OSM   H16G14372   4.209   3.330   4.013 -1.1326  1.0290 -0.4511
  133OSM   C17F14373   4.165   3.461   4.174  0.2483  0.3284 -0.1761
  133OSM   H17F14374   4.058   3.458   4.142  0.3692  1.2658 -0.7126
  133OSM   H17G14375   4.178   3.565   4.209 -1.2766 -0.1364  1.9936
  133OSM   C18F14376   4.195   3.360   4.289 -0.2168 -0.0641  0.2076
  133OSM   H18F14377   4.277   3.402   4.351 -0.9665 -0.1834  1.3165
  133OSM   H18G14378   4.230   3.270   4.235  1.1839  1.1264 -0.9827
  133OSM   H18H14379   4.103   3.339   4.347  0.4579 -0.2299  1.2447
  134OSM      N14380   4.622   5.643   1.819  0.0746  0.6013  0.4280
  134OSM    C1514381   4.508   5.553   1.778  0.3180  0.2991  0.2176
  134OSM   H15A14382   4.493   5.479   1.855  0.8755  1.2548  1.2761
  134OSM   H15B14383   4.523   5.505   1.682 -0.8468  1.0064 -0.3446
  134OSM   H15C14384   4.415   5.608   1.777  0.0353 -0.1690 -0.3663
  134OSM    C1414385   4.743   5.560   1.852  0.4470 -0.0567  0.6823
  134OSM   H14A14386   4.828   5.617   1.887  0.0122  0.9110  0.2082
  134OSM   H14B14387   4.780   5.515   1.762  2.1715  1.0794  0.7777
  134OSM   H14C14388   4.718   5.469   1.905  0.5197 -1.2355 -1.2170
  134OSM    C1314389   4.649   5.747   1.714  0.4269 -0.2603  0.2399
  134OSM   H13A14390   4.555   5.783   1.672  1.1951  0.3124 -1.0674
  134OSM   H13B14391   4.702   5.711   1.627 -0.2985  1.6131 -1.0551
  134OSM   H13C14392   4.701   5.830   1.758  0.8224  0.3493 -1.2972
  134OSM    C1214393   4.578   5.715   1.948 -0.2756 -0.2057  0.7348
  134OSM   H12A14394   4.528   5.642   2.009 -0.5581 -0.4718  0.1902
  134OSM   H12B14395   4.505   5.788   1.915  1.0044  0.7213 -0.1705
  134OSM    C1114396   4.685   5.791   2.040 -0.5304 -0.0391 -0.9162
  134OSM   H11A14397   4.725   5.700   2.090 -0.4572 -1.4843 -3.3996
  134OSM   H11B14398   4.633   5.844   2.122 -0.6319 -1.3849 -0.0809
  134OSM      P14399   4.941   5.838   2.012 -0.0153  0.1923  0.2110
  134OSM    O1314400   5.004   5.747   1.915 -0.3695  0.1288  0.4535
  134OSM    O1414401   5.005   5.967   2.034  0.7839 -0.3424  0.2438
  134OSM    O1114402   4.939   5.757   2.148 -0.4213  0.0681 -0.6803
  134OSM    O1214403   4.785   5.861   1.975 -0.1339  0.7908 -0.1144
  134OSM    C1S14404   4.910   5.828   2.272  0.3325 -1.1292 -0.2427
  134OSM    H1S14405   4.853   5.921   2.252  2.5909  0.6430  1.1026
  134OSM    H1T14406   5.000   5.861   2.329 -0.4685 -0.6166  0.7480
  134OSM     NF14407   4.839   5.804   2.516 -0.4791 -0.1505  0.3920
  134OSM    HNF14408   4.918   5.784   2.574  0.8985  0.1936 -1.2912
  134OSM    C2S14409   4.839   5.736   2.381  0.4238  0.0119  0.1581
  134OSM    H2S14410   4.736   5.716   2.345  0.4222 -2.9016  1.4418
  134OSM    C3S14411   4.903   5.598   2.396 -0.1792  0.1741 -0.8233
  134OSM    H3S14412   5.008   5.616   2.427 -0.8910 -0.3153  2.2155
  134OSM     O314413   4.921   5.525   2.273 -0.0318 -0.5071 -0.0511
  134OSM    HO314414   4.919   5.597   2.210 -0.6083 -0.8436 -0.4345
  134OSM    C4S14415   4.832   5.505   2.486  0.1915  0.2897  0.0716
  134OSM    H4S14416   4.732   5.482   2.447  1.4918 -1.2215 -2.6951
  134OSM    C5S14417   4.865   5.451   2.610  0.3603 -0.5214  0.7072
  134OSM    H5S14418   4.966   5.456   2.654  0.7200  0.3529 -0.1758
  134OSM    C6S14419   4.764   5.361   2.683  0.0431  0.8321 -0.0224
  134OSM    H6S14420   4.804   5.258   2.696 -0.7727  0.5417  0.2168
  134OSM    H6T14421   4.680   5.328   2.619  2.5281 -2.2914 -2.0305
  134OSM    C7S14422   4.708   5.423   2.818 -0.2620  0.0750  1.1392
  134OSM    H7S14423   4.798   5.447   2.879  0.3973 -0.6698  0.4999
  134OSM    H7T14424   4.650   5.344   2.870 -1.6099  1.3314  1.6254
  134OSM    C8S14425   4.618   5.554   2.809 -0.1912  0.2735  0.0445
  134OSM    H8S14426   4.676   5.621   2.742 -0.8142  3.2018  2.2766
  134OSM    H8T14427   4.607   5.602   2.909 -0.3941 -1.7268  1.0334
  134OSM    C9S14428   4.479   5.527   2.754 -0.1140 -0.1824  0.4368
  134OSM    H9S14429   4.439   5.435   2.803 -1.0204 -0.8634 -1.4739
  134OSM    H9T14430   4.499   5.495   2.649  0.0368 -2.1999  1.0249
  134OSM   C10S14431   4.391   5.650   2.752 -0.0792 -0.4290 -0.3602
  134OSM   H10S14432   4.317   5.642   2.670  0.3968  1.4444 -1.0340
  134OSM   H10T14433   4.446   5.742   2.725  3.4064 -1.9849  0.8219
  134OSM   C11S14434   4.316   5.671   2.885  0.5931 -0.0682 -0.0684
  134OSM   H11S14435   4.383   5.677   2.973 -1.0688 -4.1964  1.7111
  134OSM   H11T14436   4.247   5.586   2.901  0.5524  0.3234  2.0252
  134OSM   C12S14437   4.219   5.795   2.884 -0.0242  0.9908 -0.7070
  134OSM   H12S14438   4.137   5.770   2.812 -0.0810 -0.2053 -0.2364
  134OSM   H12T14439   4.273   5.883   2.842 -1.2650  1.2215 -1.9298
  134OSM   C13S14440   4.161   5.812   3.028  0.1308 -0.4215  0.2745
  134OSM   H13S14441   4.258   5.824   3.082  1.7604 -0.0633 -2.5503
  134OSM   H13T14442   4.120   5.711   3.051 -0.2656 -0.0140  1.4097
  134OSM   C14S14443   4.062   5.930   3.042 -0.0488  0.0859  0.4063
  134OSM   H14S14444   4.010   5.927   3.140  1.3580 -0.3370  1.1544
  134OSM   H14T14445   3.981   5.926   2.965  0.6958  1.4889 -0.5041
  134OSM   C15S14446   4.132   6.068   3.044  0.1150 -0.0456 -0.5842
  134OSM   H15S14447   4.242   6.063   3.060  0.1191  1.8284  0.1794
  134OSM   H15T14448   4.085   6.128   3.125 -0.4545 -0.7315 -0.3840
  134OSM   C16S14449   4.107   6.134   2.910  0.3872  1.0783 -0.0578
  134OSM   H16S14450   4.127   6.071   2.821  3.5691  1.2010  0.4794
  134OSM   H16T14451   4.176   6.221   2.905  4.5504 -1.7309  2.5511
  134OSM   C17S14452   3.960   6.181   2.907 -0.2490 -0.4365  0.4378
  134OSM   H17S14453   3.954   6.263   2.982  3.2055  1.6465 -1.2770
  134OSM   H17T14454   3.891   6.102   2.944 -1.0935  0.3242  0.5110
  134OSM   C18S14455   3.915   6.230   2.765 -0.3718 -0.5999 -0.0782
  134OSM   H18S14456   3.982   6.313   2.732 -0.0028 -1.3074 -1.1678
  134OSM   H18T14457   3.811   6.267   2.761 -0.0740  0.5313  1.5371
  134OSM   H18U14458   3.927   6.154   2.685  1.3431  2.0699 -2.5694
  134OSM    C1F14459   4.747   5.899   2.531  0.7836  0.4500 -0.4649
  134OSM     OF14460   4.665   5.928   2.446  0.2318  0.0397 -0.1416
  134OSM    C2F14461   4.751   5.975   2.662 -0.4994  0.5161 -0.3887
  134OSM    H2F14462   4.825   6.058   2.660 -0.6825  0.8106  2.1586
  134OSM    H2G14463   4.773   5.908   2.748  0.3384  2.0303  0.6221
  134OSM    C3F14464   4.616   6.028   2.696  0.8306 -0.5061 -0.1668
  134OSM    H3F14465   4.539   5.949   2.684  0.0275 -0.2561  2.6224
  134OSM    H3G14466   4.582   6.099   2.618 -2.0946 -0.1999  1.2331
  134OSM    C4F14467   4.601   6.093   2.831 -0.2076  0.4105 -0.0743
  134OSM    H4F14468   4.499   6.133   2.846 -0.1264  0.6317 -0.1126
  134OSM    H4G14469   4.671   6.177   2.847  1.6644 -0.7799 -1.4776
  134OSM    C5F14470   4.621   5.993   2.943 -0.2696  0.5960  0.5070
  134OSM    H5F14471   4.729   5.990   2.969  0.5585  1.7432 -2.3348
  134OSM    H5G14472   4.584   5.894   2.908  1.9535 -0.0477 -0.1905
  134OSM    C6F14473   4.547   6.023   3.071  0.5946 -0.6750  0.3944
  134OSM    H6F14474   4.438   6.040   3.054  1.1422  2.3817 -0.5851
  134OSM    H6G14475   4.574   6.124   3.107  1.3117 -1.1522  1.2374
  134OSM    C7F14476   4.561   5.923   3.187  0.1241  0.7545 -0.2574
  134OSM    H7F14477   4.665   5.941   3.224 -0.3426  0.9804  1.0031
  134OSM    H7G14478   4.559   5.819   3.150  2.4670 -0.2722  2.1045
  134OSM    C8F14479   4.463   5.946   3.305  0.2189 -0.3393  0.1531
  134OSM    H8F14480   4.494   5.868   3.378  1.7028 -1.6952 -1.8383
  134OSM    H8G14481   4.361   5.916   3.270  0.3632  0.2641 -0.8131
  134OSM    C9F14482   4.480   6.093   3.353 -0.5978  1.1490  0.1086
  134OSM    H9F14483   4.402   6.160   3.313 -3.3161 -1.5553  0.4387
  134OSM   C10F14484   4.550   6.142   3.454 -0.4188 -0.4849 -0.3178
  134OSM   H10F14485   4.557   6.252   3.453 -0.8917 -0.4182  1.0473
  134OSM   C11F14486   4.646   6.058   3.542  0.3751  0.0169  0.5698
  134OSM   H11F14487   4.743   6.111   3.537  1.0639 -1.2989 -0.3994
  134OSM   H11G14488   4.664   5.955   3.504 -0.5256  1.4694 -4.4242
  134OSM   C12F14489   4.602   6.039   3.686  0.4890 -0.9359 -0.3878
  134OSM   H12F14490   4.585   6.137   3.736 -0.0661 -1.5069  0.5901
  134OSM   H12G14491   4.689   5.994   3.738  1.2292  1.0037  0.1137
  134OSM   C13F14492   4.481   5.951   3.709  0.2274  0.0586  0.5539
  134OSM   H13F14493   4.495   5.877   3.628  1.7061  2.0069 -1.0630
  134OSM   H13G14494   4.381   5.996   3.688  0.5107  1.8733  2.6345
  134OSM   C14F14495   4.478   5.873   3.839  0.5033  0.5106  0.3354
  134OSM   H14F14496   4.476   5.938   3.929 -0.1808 -2.2016  2.4137
  134OSM   H14G14497   4.562   5.800   3.839 -0.7943 -1.0225 -0.1108
  134OSM   C15F14498   4.339   5.794   3.847 -0.1198 -0.4462  0.5845
  134OSM   H15F14499   4.259   5.857   3.803  3.3408  4.0230 -0.0042
  134OSM   H15G14500   4.315   5.781   3.954  0.1882 -0.0020  0.7119
  134OSM   C16F14501   4.340   5.669   3.762  0.1613  0.1972 -0.0311
  134OSM   H16F14502   4.441   5.625   3.744  0.2243  0.7386 -1.0779
  134OSM   H16G14503   4.315   5.698   3.657 -2.9851 -0.3394  0.4725
  134OSM   C17F14504   4.221   5.584   3.815 -0.4515  0.2533  0.1412
  134OSM   H17F14505   4.132   5.650   3.828 -0.6768  0.2991 -1.4534
  134OSM   H17G14506   4.248   5.547   3.916  0.3128 -1.8875 -0.7845
  134OSM   C18F14507   4.167   5.469   3.739  1.0210  0.2843 -0.2742
  134OSM   H18F14508   4.162   5.502   3.633 -0.9421 -1.9604 -0.9846
  134OSM   H18G14509   4.068   5.439   3.780  1.2181 -0.4893 -0.3479
  134OSM   H18H14510   4.235   5.381   3.740  0.8823  0.1800 -0.0438
  135OSM      N14511   5.976   0.391   1.519 -0.2832  0.0815  0.8935
  135OSM    C1514512   5.868   0.312   1.586 -0.4792 -0.4813 -0.7805
  135OSM   H15A14513   5.863   0.334   1.692 -2.0525  1.1516 -1.1422
  135OSM   H15B14514   5.894   0.208   1.594 -1.4349 -0.7971 -1.5684
  135OSM   H15C14515   5.776   0.335   1.535 -0.0812 -0.8121 -1.6692
  135OSM    C1414516   6.008   0.334   1.384 -0.1751  0.0457  0.0013
  135OSM   H14A14517   6.095   0.385   1.347  1.6891 -0.1416  3.7138
  135OSM   H14B14518   5.918   0.347   1.324 -0.1833  2.1637  0.3915
  135OSM   H14C14519   6.026   0.228   1.398  0.8730  0.3119  0.7646
  135OSM    C1314520   5.935   0.525   1.495 -0.0049  0.5527 -0.6327
  135OSM   H13A14521   5.888   0.573   1.580 -0.8912  0.2599 -0.9399
  135OSM   H13B14522   5.865   0.527   1.412 -2.1586  2.4175  1.0737
  135OSM   H13C14523   6.024   0.580   1.470  1.5243 -1.5365 -0.1048
  135OSM    C1214524   6.105   0.393   1.602 -0.4872  0.1853 -0.3071
  135OSM   H12A14525   6.179   0.448   1.546 -2.1399  1.1781 -1.6122
  135OSM   H12B14526   6.146   0.294   1.618  0.3793 -0.0352 -3.3802
  135OSM    C1114527   6.099   0.451   1.754  0.0047 -0.2755  0.7696
  135OSM   H11A14528   6.067   0.558   1.750 -1.4936 -0.7394 -0.6799
  135OSM   H11B14529   6.202   0.459   1.795  0.1915 -0.5448  0.3601
  135OSM      P14530   6.060   0.237   1.902  0.4547 -0.2234  0.0151
  135OSM    O1314531   5.935   0.163   1.948 -0.2724 -0.1673  0.1596
  135OSM    O1414532   6.149   0.167   1.810  0.1941 -0.1913 -0.6810
  135OSM    O1114533   6.135   0.275   2.038 -0.5515  0.2058  0.0629
  135OSM    O1214534   6.013   0.376   1.838 -0.8466  0.6663  0.0301
  135OSM    C1S14535   6.240   0.370   2.052  0.6132 -0.1864 -0.0752
  135OSM    H1S14536   6.216   0.466   2.000 -0.6959  1.1063  2.6945
  135OSM    H1T14537   6.337   0.336   2.010  2.4027  4.1491  0.0171
  135OSM     NF14538   6.369   0.503   2.198  0.1842  0.1255 -0.0589
  135OSM    HNF14539   6.461   0.466   2.197 -0.6670 -2.2274  0.8415
  135OSM    C2S14540   6.260   0.411   2.194  0.6637 -0.6393  0.2411
  135OSM    H2S14541   6.168   0.459   2.235  0.9823  0.4997 -0.3633
  135OSM    C3S14542   6.286   0.281   2.282 -0.2366 -0.6514 -0.0655
  135OSM    H3S14543   6.374   0.221   2.252  0.1526  0.3765 -1.0257
  135OSM     O314544   6.171   0.197   2.284 -0.0412 -0.0274  0.7453
  135OSM    HO314545   6.128   0.236   2.207  0.8065 -0.7797 -0.1298
  135OSM    C4S14546   6.303   0.326   2.429 -0.4763  0.3326 -0.1388
  135OSM    H4S14547   6.204   0.328   2.477 -0.6252 -0.4055 -0.4146
  135OSM    C5S14548   6.427   0.350   2.490  0.9242 -0.1384  0.2762
  135OSM    H5S14549   6.520   0.335   2.433 -1.1041  2.0498 -4.1173
  135OSM    C6S14550   6.454   0.385   2.638  0.6030  0.5552  0.3185
  135OSM    H6S14551   6.512   0.479   2.647  0.6910  0.7050 -1.4300
  135OSM    H6T14552   6.518   0.306   2.680 -1.0290 -0.6202  0.7125
  135OSM    C7S14553   6.325   0.399   2.732 -0.9545  0.3518  0.5000
  135OSM    H7S14554   6.288   0.294   2.731 -0.2226  0.0554 -1.7949
  135OSM    H7T14555   6.247   0.468   2.694  0.1486  1.0679 -0.5166
  135OSM    C8S14556   6.351   0.444   2.880 -0.4410  0.7320 -0.3642
  135OSM    H8S14557   6.279   0.400   2.952  0.2224  0.1429 -0.0449
  135OSM    H8T14558   6.343   0.554   2.875  2.4260  1.1892  1.9339
  135OSM    C9S14559   6.486   0.403   2.931 -0.4296 -0.5743  0.3519
  135OSM    H9S14560   6.568   0.441   2.867 -0.5156 -1.1227 -0.0832
  135OSM    H9T14561   6.483   0.292   2.928  1.6083 -0.7228 -4.1681
  135OSM   C10S14562   6.516   0.453   3.078  0.5257  0.0915 -0.0259
  135OSM   H10S14563   6.423   0.449   3.139 -0.1966 -1.1793 -1.1392
  135OSM   H10T14564   6.548   0.558   3.089 -0.3429  0.3233  0.4263
  135OSM   C11S14565   6.613   0.361   3.149 -0.2895 -0.1512  0.2379
  135OSM   H11S14566   6.685   0.328   3.072  1.7059  1.9130  1.1188
  135OSM   H11T14567   6.563   0.269   3.186 -0.5776 -0.7316 -1.5421
  135OSM   C12S14568   6.687   0.421   3.271  0.0454  0.0426  0.4164
  135OSM   H12S14569   6.746   0.508   3.235 -3.2107  2.9451  1.4699
  135OSM   H12T14570   6.748   0.332   3.298  0.5537 -0.8498 -3.1657
  135OSM   C13S14571   6.606   0.479   3.388 -0.6920 -0.0603  0.4207
  135OSM   H13S14572   6.550   0.398   3.439 -0.2664 -0.0457  0.9199
  135OSM   H13T14573   6.531   0.542   3.335  1.5233  1.0078 -1.6258
  135OSM   C14S14574   6.693   0.570   3.474  0.4727 -0.0254  1.2828
  135OSM   H14S14575   6.752   0.646   3.418 -1.1806  0.9707  0.8329
  135OSM   H14T14576   6.764   0.498   3.520  0.7082 -0.3038  0.4815
  135OSM   C15S14577   6.618   0.631   3.585  0.4479 -0.1659 -0.1889
  135OSM   H15S14578   6.581   0.558   3.661 -0.3969 -0.2840 -0.7028
  135OSM   H15T14579   6.529   0.683   3.543  1.0906 -0.7565 -2.4119
  135OSM   C16S14580   6.703   0.731   3.677  0.2398 -0.3953 -0.9278
  135OSM   H16S14581   6.741   0.827   3.637 -0.0710  0.7596  1.3474
  135OSM   H16T14582   6.785   0.672   3.723  1.0630  1.8432  0.7304
  135OSM   C17S14583   6.625   0.760   3.807 -0.1766 -0.0151 -0.4657
  135OSM   H17S14584   6.606   0.663   3.858  1.4896 -0.5405 -0.7960
  135OSM   H17T14585   6.526   0.804   3.780 -0.0536  0.6362  0.1416
  135OSM   C18S14586   6.691   0.875   3.885  0.0593  0.3292 -0.0026
  135OSM   H18S14587   6.794   0.838   3.906 -0.0814  0.0151  0.1323
  135OSM   H18T14588   6.636   0.897   3.979 -1.0480  3.0000 -1.1903
  135OSM   H18U14589   6.702   0.970   3.829 -2.7056  0.1867 -0.9334
  135OSM    C1F14590   6.347   0.636   2.176  0.3532 -0.1170  0.2094
  135OSM     OF14591   6.235   0.676   2.138 -0.0072 -0.6469 -0.2417
  135OSM    C2F14592   6.469   0.728   2.168 -0.4057  0.6789  0.1607
  135OSM    H2F14593   6.457   0.782   2.072 -2.7315  1.5791  0.8933
  135OSM    H2G14594   6.565   0.672   2.172  0.0085  1.4022  2.9241
  135OSM    C3F14595   6.460   0.817   2.292  0.3697  0.0435 -0.1276
  135OSM    H3F14596   6.361   0.866   2.284  1.0857  1.5083 -0.3316
  135OSM    H3G14597   6.529   0.902   2.274 -1.1726  1.4828  0.5158
  135OSM    C4F14598   6.478   0.751   2.434 -0.7386 -0.4844 -0.1307
  135OSM    H4F14599   6.581   0.709   2.425 -1.1829 -1.6284 -0.1186
  135OSM    H4G14600   6.405   0.671   2.459 -1.2090  0.5249  1.8603
  135OSM    C5F14601   6.457   0.856   2.543 -0.1438  0.0807  0.2267
  135OSM    H5F14602   6.363   0.910   2.523 -0.8995 -1.2811 -0.0460
  135OSM    H5G14603   6.546   0.922   2.537  1.1325 -1.6187 -0.7107
  135OSM    C6F14604   6.454   0.798   2.692  0.2254 -0.7367 -0.1718
  135OSM    H6F14605   6.553   0.771   2.733  0.4997 -0.7337 -0.8202
  135OSM    H6G14606   6.411   0.695   2.693  1.1874 -1.1847 -1.7851
  135OSM    C7F14607   6.384   0.903   2.781 -0.6278 -0.3951 -0.0842
  135OSM    H7F14608   6.289   0.930   2.730 -0.7375  0.6897  0.6430
  135OSM    H7G14609   6.446   0.995   2.793 -1.0797 -0.0700 -0.2379
  135OSM    C8F14610   6.345   0.854   2.920 -0.5029  0.5713 -0.3192
  135OSM    H8F14611   6.272   0.770   2.915  1.2699 -1.0624  0.2071
  135OSM    H8G14612   6.295   0.943   2.963  1.7816  1.5326  0.4820
  135OSM    C9F14613   6.470   0.811   3.000  1.0920  0.6177  0.7202
  135OSM    H9F14614   6.501   0.715   2.957  1.3942  0.6959  0.7616
  135OSM   C10F14615   6.543   0.883   3.084 -0.5608  0.0594  1.0040
  135OSM   H10F14616   6.620   0.836   3.147  1.3446  2.2833  0.4545
  135OSM   C11F14617   6.510   1.025   3.123 -0.2800 -0.1078  0.4678
  135OSM   H11F14618   6.438   1.075   3.053 -1.5977  0.6697  2.3033
  135OSM   H11G14619   6.589   1.102   3.130 -0.2868 -0.1055  0.5234
  135OSM   C12F14620   6.423   1.026   3.253 -0.4365 -0.0445  0.6696
  135OSM   H12F14621   6.331   0.980   3.212  2.4303 -0.7607 -6.2719
  135OSM   H12G14622   6.398   1.130   3.284  1.6214  0.9149 -0.6271
  135OSM   C13F14623   6.473   0.954   3.382  0.2015  0.0629 -0.5447
  135OSM   H13F14624   6.550   0.875   3.366 -0.7058 -1.7668  2.9756
  135OSM   H13G14625   6.394   0.894   3.433  2.6957 -3.3322 -0.3608
  135OSM   C14F14626   6.529   1.050   3.494 -0.5060 -0.1931  0.5687
  135OSM   H14F14627   6.557   0.999   3.589  0.3841  0.6737  0.7919
  135OSM   H14G14628   6.446   1.121   3.514  0.2458  1.1483 -0.8538
  135OSM   C15F14629   6.641   1.155   3.445 -0.1202 -0.9052  0.5969
  135OSM   H15F14630   6.589   1.229   3.380  1.4526 -0.3044 -0.0023
  135OSM   H15G14631   6.711   1.103   3.377  0.6240  0.0108  0.6553
  135OSM   C16F14632   6.713   1.234   3.560 -0.2864  0.5304 -0.2980
  135OSM   H16F14633   6.756   1.155   3.625 -1.5086 -2.2602 -2.6351
  135OSM   H16G14634   6.636   1.287   3.621  0.8456 -0.1012  1.8049
  135OSM   C17F14635   6.825   1.318   3.498  0.4017 -0.1662 -0.8317
  135OSM   H17F14636   6.781   1.397   3.433 -0.9037  1.0281  1.4001
  135OSM   H17G14637   6.901   1.259   3.443  1.6347  0.5533  0.0261
  135OSM   C18F14638   6.910   1.391   3.609 -0.2664 -0.2536  0.5473
  135OSM   H18F14639   6.995   1.447   3.565  0.8940 -0.9663  1.7941
  135OSM   H18G14640   6.964   1.310   3.662  1.7527  1.1027  0.6764
  135OSM   H18H14641   6.848   1.461   3.668 -0.8856  0.1149 -0.5038
  136OSM      N14642   3.320   5.071   1.683 -0.2428 -0.0326 -0.2814
  136OSM    C1514643   3.225   4.969   1.641 -0.4282  0.9510  0.7549
  136OSM   H15A14644   3.137   4.959   1.704  0.5574 -2.6349  1.7956
  136OSM   H15B14645   3.277   4.875   1.650 -2.7584 -0.2651  3.1259
  136OSM   H15C14646   3.206   4.991   1.537 -0.2794  0.4415  0.6203
  136OSM    C1414647   3.436   5.104   1.586 -0.7376  0.5803  0.8789
  136OSM   H14A14648   3.491   5.014   1.563 -1.0685  0.7653 -0.7721
  136OSM   H14B14649   3.503   5.185   1.610 -1.8329  1.0391  2.5090
  136OSM   H14C14650   3.409   5.133   1.485  3.2312 -1.0573 -0.8830
  136OSM    C1314651   3.250   5.193   1.697  0.4081 -0.4211  0.4854
  136OSM   H13A14652   3.318   5.265   1.740 -1.5063  1.7475  0.0851
  136OSM   H13B14653   3.162   5.183   1.758  0.0203 -0.7580 -0.1080
  136OSM   H13C14654   3.224   5.217   1.595 -2.2050 -0.4677  1.0724
  136OSM    C1214655   3.374   5.018   1.813 -0.1170  0.3372  0.2744
  136OSM   H12A14656   3.427   5.099   1.862  0.3676 -0.8061  1.6933
  136OSM   H12B14657   3.442   4.936   1.799  0.8895  1.2990 -0.6205
  136OSM    C1114658   3.266   4.988   1.927 -0.3928  0.6582  0.0109
  136OSM   H11A14659   3.209   5.081   1.945  1.0509  1.3475  1.2392
  136OSM   H11B14660   3.335   4.975   2.013  0.5733 -1.5831 -1.0012
  136OSM      P14661   3.222   4.726   1.943  0.3552 -0.5588  0.3688
  136OSM    O1314662   3.123   4.637   1.874 -0.6977 -0.1221  0.0243
  136OSM    O1414663   3.366   4.716   1.918 -0.9141 -0.6574 -0.0519
  136OSM    O1114664   3.204   4.720   2.097 -1.1292 -0.1418 -0.3225
  136OSM    O1214665   3.181   4.873   1.906 -0.2125 -0.4523  0.5230
  136OSM    C1S14666   3.137   4.819   2.175 -0.6768 -0.3162 -0.9443
  136OSM    H1S14667   3.028   4.822   2.154 -1.0574 -1.2113  0.6991
  136OSM    H1T14668   3.178   4.921   2.158  1.9620 -1.6810 -3.4250
  136OSM     NF14669   3.042   4.852   2.398 -0.3977  0.0780  0.1914
  136OSM    HNF14670   3.074   4.942   2.426 -0.3373  1.2897 -3.3007
  136OSM    C2S14671   3.142   4.773   2.328 -0.2992  0.1533 -0.5121
  136OSM    H2S14672   3.102   4.669   2.333 -0.9075  0.4431  2.8856
  136OSM    C3S14673   3.287   4.785   2.375 -0.5799  0.2980 -0.3895
  136OSM    H3S14674   3.308   4.894   2.377  0.5168  0.1234 -1.4140
  136OSM     O314675   3.380   4.723   2.282  0.1501  0.6918 -0.1320
  136OSM    HO314676   3.332   4.721   2.200  2.3160  0.6081 -1.4924
  136OSM    C4S14677   3.302   4.717   2.513  0.1623  0.6067 -0.1754
  136OSM    H4S14678   3.264   4.614   2.523  1.1342  0.0002 -2.2102
  136OSM    C5S14679   3.358   4.769   2.618 -0.0661  0.3597 -0.3166
  136OSM    H5S14680   3.419   4.861   2.615 -1.3689  1.3558  1.5435
  136OSM    C6S14681   3.364   4.699   2.750  0.6191 -0.3243 -0.3454
  136OSM    H6S14682   3.468   4.685   2.786 -0.3023 -1.4207  2.0615
  136OSM    H6T14683   3.317   4.599   2.743  0.3673 -0.2682  0.4969
  136OSM    C7S14684   3.288   4.782   2.854 -0.3764  0.2664  0.5605
  136OSM    H7S14685   3.182   4.794   2.820 -0.4355  0.3147  0.7634
  136OSM    H7T14686   3.340   4.880   2.866  0.3913  0.0298 -0.6371
  136OSM    C8S14687   3.279   4.705   2.990 -0.1253  0.8143  0.0886
  136OSM    H8S14688   3.278   4.597   2.964  1.9737  0.7370  0.1605
  136OSM    H8T14689   3.181   4.728   3.038 -1.1539 -0.9301 -1.0865
  136OSM    C9S14690   3.392   4.731   3.094  0.5223  0.8287  0.3764
  136OSM    H9S14691   3.390   4.838   3.125 -0.3830  1.0016 -0.2363
  136OSM    H9T14692   3.490   4.734   3.041  0.8549  1.5367  1.0102
  136OSM   C10S14693   3.387   4.633   3.208  0.2979 -0.3253 -0.2097
  136OSM   H10S14694   3.415   4.534   3.166 -0.5464 -1.2332  1.2922
  136OSM   H10T14695   3.290   4.626   3.261  1.3322 -0.7228  1.7134
  136OSM   C11S14696   3.491   4.657   3.316 -0.0639  0.0287 -0.1192
  136OSM   H11S14697   3.594   4.639   3.278  0.0958 -0.6294  0.6100
  136OSM   H11T14698   3.467   4.581   3.393 -1.0815  0.8342  0.3830
  136OSM   C12S14699   3.482   4.793   3.394 -0.3503  1.2250  0.0318
  136OSM   H12S14700   3.373   4.803   3.412 -1.2171 -0.5536 -3.3680
  136OSM   H12T14701   3.518   4.876   3.330  3.3936 -1.3903 -1.6521
  136OSM   C13S14702   3.541   4.794   3.539 -0.1023  0.5042  0.4438
  136OSM   H13S14703   3.529   4.892   3.590  0.7634  1.8647 -1.8203
  136OSM   H13T14704   3.650   4.796   3.516 -0.1283 -1.1153  0.0777
  136OSM   C14S14705   3.499   4.683   3.634  0.3858  0.5639  0.3036
  136OSM   H14S14706   3.522   4.581   3.598  0.8567  1.1005 -0.9592
  136OSM   H14T14707   3.388   4.681   3.641  0.3467  2.4155  0.7396
  136OSM   C15S14708   3.571   4.694   3.771  0.5320  1.5325  0.7623
  136OSM   H15S14709   3.679   4.715   3.754  1.1021 -0.1189  2.0926
  136OSM   H15T14710   3.566   4.596   3.823 -3.9269  1.5451  0.7490
  136OSM   C16S14711   3.519   4.797   3.871 -0.2869  0.3484  0.1108
  136OSM   H16S14712   3.408   4.804   3.875 -0.1916  1.3804  2.5541
  136OSM   H16T14713   3.566   4.897   3.861  0.2741  0.5578  3.5944
  136OSM   C17S14714   3.557   4.761   4.015  0.0894 -0.4522 -0.0159
  136OSM   H17S14715   3.665   4.744   4.035  0.6296  1.4730 -1.0791
  136OSM   H17T14716   3.506   4.664   4.033 -1.6966  0.5951  0.8254
  136OSM   C18S14717   3.507   4.863   4.118 -0.7729  1.0754  0.5058
  136OSM   H18S14718   3.528   4.965   4.080  1.8402  0.3845 -0.0614
  136OSM   H18T14719   3.558   4.842   4.214  0.3195 -0.6839 -0.4094
  136OSM   H18U14720   3.397   4.852   4.134 -0.7966  1.2229  0.4544
  136OSM    C1F14721   2.911   4.842   2.388 -0.2174 -0.2077  0.3556
  136OSM     OF14722   2.853   4.752   2.333 -0.1245 -0.2618 -0.2548
  136OSM    C2F14723   2.839   4.951   2.462  0.6914  1.0142  0.6086
  136OSM    H2F14724   2.782   5.013   2.388 -2.2992 -0.0139  1.8949
  136OSM    H2G14725   2.917   5.020   2.500  3.0942  0.5990 -3.0269
  136OSM    C3F14726   2.742   4.899   2.567  0.2081  0.0823 -1.3073
  136OSM    H3F14727   2.696   4.801   2.544 -2.6356  0.3542  2.3166
  136OSM    H3G14728   2.650   4.960   2.578 -0.9483 -1.8363  0.5815
  136OSM    C4F14729   2.811   4.883   2.702 -0.0601 -0.1365  0.3208
  136OSM    H4F14730   2.871   4.976   2.716 -0.1182  0.0539 -0.6165
  136OSM    H4G14731   2.884   4.800   2.691  1.8733  1.5638 -0.3675
  136OSM    C5F14732   2.714   4.871   2.818 -0.7998  0.0243 -0.0238
  136OSM    H5F14733   2.668   4.771   2.810  1.2811 -0.9439 -0.5122
  136OSM    H5G14734   2.636   4.950   2.809 -0.2770  0.8114  1.8591
  136OSM    C6F14735   2.772   4.885   2.960  0.6072  0.4244  0.5324
  136OSM    H6F14736   2.819   4.985   2.966  0.4349  0.4662  1.3140
  136OSM    H6G14737   2.851   4.810   2.982 -0.5662 -1.4685 -1.3278
  136OSM    C7F14738   2.664   4.872   3.068 -0.4685  0.3543  0.2834
  136OSM    H7F14739   2.638   4.764   3.059  1.4382 -0.0438 -1.0683
  136OSM    H7G14740   2.578   4.935   3.037 -1.9592 -0.7924  1.9515
  136OSM    C8F14741   2.715   4.908   3.204 -0.4501 -0.1046 -0.2377
  136OSM    H8F14742   2.727   5.019   3.205 -1.9032  0.0887 -1.0653
  136OSM    H8G14743   2.810   4.858   3.232 -0.4850  1.7524  4.0203
  136OSM    C9F14744   2.616   4.876   3.318  0.2176 -0.6318  0.5389
  136OSM    H9F14745   2.516   4.852   3.280 -0.3419  1.7999  0.3546
  136OSM   C10F14746   2.644   4.884   3.449 -0.2919  0.1592 -0.0387
  136OSM   H10F14747   2.561   4.868   3.519  1.1802  2.0909  2.3222
  136OSM   C11F14748   2.789   4.896   3.501  0.3751  0.1457  0.3307
  136OSM   H11F14749   2.848   4.985   3.471  0.9752 -0.9796 -2.0697
  136OSM   H11G14750   2.848   4.809   3.464  2.4559  1.2883  0.7886
  136OSM   C12F14751   2.796   4.885   3.654  0.8706  1.1431  0.1785
  136OSM   H12F14752   2.740   4.971   3.696  1.0645  0.8400  1.0874
  136OSM   H12G14753   2.905   4.890   3.672  1.1664 -0.6445 -0.8204
  136OSM   C13F14754   2.743   4.754   3.713 -0.7432  0.8046 -0.3907
  136OSM   H13F14755   2.804   4.667   3.680  0.7003  1.4185  0.5569
  136OSM   H13G14756   2.639   4.723   3.691 -0.1031 -2.2758  0.4965
  136OSM   C14F14757   2.745   4.775   3.871 -0.3999  0.4346  1.1619
  136OSM   H14F14758   2.683   4.695   3.916 -0.3299 -0.5739 -0.4633
  136OSM   H14G14759   2.686   4.867   3.888 -2.7920 -0.6954 -0.5025
  136OSM   C15F14760   2.880   4.787   3.939 -0.0670 -0.6227 -0.3762
  136OSM   H15F14761   2.869   4.799   4.049 -0.8576 -0.9908 -0.4029
  136OSM   H15G14762   2.927   4.875   3.891  0.2523 -1.9547 -2.6428
  136OSM   C16F14763   2.977   4.672   3.903 -0.1233  0.3795  0.6415
  136OSM   H16F14764   2.977   4.654   3.793 -0.3669  2.0299  0.3521
  136OSM   H16G14765   2.943   4.574   3.943  0.5537  0.0949  0.5368
  136OSM   C17F14766   3.124   4.699   3.948 -0.1901  0.1361 -0.5416
  136OSM   H17F14767   3.165   4.796   3.913  1.8495 -0.5638 -0.2131
  136OSM   H17G14768   3.193   4.626   3.902 -1.2410 -0.3152 -1.4510
  136OSM   C18F14769   3.147   4.682   4.099 -0.4719  0.1016  1.0904
  136OSM   H18F14770   3.081   4.747   4.161  0.8634  1.9625  0.6674
  136OSM   H18G14771   3.254   4.706   4.120 -0.1517  0.6550 -0.9565
  136OSM   H18H14772   3.117   4.579   4.127 -1.4954 -0.0768 -0.5650
  137OSM      N14773   6.608   1.554   2.204  0.2100 -0.5999 -0.0573
  137OSM    C1514774   6.505   1.660   2.205 -0.0675  0.7258 -0.1769
  137OSM   H15A14775   6.518   1.722   2.118 -0.4720 -0.3407 -1.0184
  137OSM   H15B14776   6.523   1.720   2.293  0.1742  0.3788  0.0108
  137OSM   H15C14777   6.404   1.623   2.210  0.0999  0.3979  1.1799
  137OSM    C1414778   6.745   1.613   2.178 -0.1108 -0.1115 -0.9666
  137OSM   H14A14779   6.761   1.616   2.071  0.0807 -5.6028 -1.3780
  137OSM   H14B14780   6.813   1.543   2.224 -2.1995 -1.0194  0.9267
  137OSM   H14C14781   6.754   1.713   2.215 -0.2130 -0.8379  1.1321
  137OSM    C1314782   6.612   1.506   2.346 -0.6378  0.0403 -0.0845
  137OSM   H13A14783   6.640   1.586   2.414  0.6484  0.7084 -1.3456
  137OSM   H13B14784   6.684   1.426   2.358 -0.3686  0.1863 -0.7109
  137OSM   H13C14785   6.519   1.468   2.386 -0.8172 -0.1023 -0.6409
  137OSM    C1214786   6.582   1.436   2.111 -0.4339  0.2943  0.0366
  137OSM   H12A14787   6.488   1.396   2.147  0.8167 -1.9232  1.0275
  137OSM   H12B14788   6.650   1.356   2.135  3.0588  2.9906 -0.0848
  137OSM    C1114789   6.579   1.461   1.957 -0.5362  0.5543 -0.0433
  137OSM   H11A14790   6.537   1.561   1.933 -0.9358  1.2807  3.2901
  137OSM   H11B14791   6.518   1.383   1.907  0.3861 -0.8200  0.9089
  137OSM      P14792   6.773   1.304   1.853  0.0563 -0.0311  0.5695
  137OSM    O1314793   6.682   1.257   1.746  0.3413 -1.0425  0.0054
  137OSM    O1414794   6.913   1.323   1.824 -0.0645 -0.3225  0.5769
  137OSM    O1114795   6.755   1.198   1.967 -0.0942  0.3968 -0.3947
  137OSM    O1214796   6.719   1.444   1.913 -0.2570  0.1503 -0.1811
  137OSM    C1S14797   6.825   1.206   2.089  0.5105  0.8809 -0.0301
  137OSM    H1S14798   6.780   1.282   2.156  1.9320  1.6855  0.0658
  137OSM    H1T14799   6.933   1.230   2.080  0.3195  1.0386 -3.2737
  137OSM     NF14800   6.828   1.073   2.307  0.1779 -0.1408 -0.1685
  137OSM    HNF14801   6.915   1.043   2.346 -0.4385 -2.8569 -0.7261
  137OSM    C2S14802   6.809   1.067   2.159  0.3390 -0.3652 -0.6357
  137OSM    H2S14803   6.703   1.039   2.141 -0.2233  1.3186 -0.1628
  137OSM    C3S14804   6.897   0.963   2.083  0.1765  0.0313  0.5891
  137OSM    H3S14805   7.001   0.999   2.097  0.9990 -1.4499 -1.2510
  137OSM     O314806   6.890   0.961   1.939  0.3318  0.0775 -0.4778
  137OSM    HO314807   6.824   1.027   1.916 -0.2342 -0.7348 -1.2185
  137OSM    C4S14808   6.877   0.822   2.137  0.9100 -0.2794  0.6291
  137OSM    H4S14809   6.792   0.761   2.103  2.4811 -2.0836 -0.2217
  137OSM    C5S14810   6.964   0.763   2.212  0.1899  0.5176  0.6117
  137OSM    H5S14811   7.057   0.813   2.243  0.0507 -0.7918  3.4125
  137OSM    C6S14812   6.955   0.624   2.270  0.0335  0.7020  0.2806
  137OSM    H6S14813   7.023   0.561   2.210 -2.1507 -0.1854 -1.4193
  137OSM    H6T14814   6.855   0.578   2.254  0.7989 -0.7446 -0.4733
  137OSM    C7S14815   6.997   0.607   2.417  0.2009  0.2942 -0.1400
  137OSM    H7S14816   7.103   0.639   2.421 -0.2221  2.0782 -1.7827
  137OSM    H7T14817   6.992   0.500   2.446 -0.7352  0.1141 -0.9089
  137OSM    C8S14818   6.908   0.688   2.521 -0.1910  0.4465  0.0995
  137OSM    H8S14819   6.801   0.658   2.512  0.4514 -1.6955 -1.2884
  137OSM    H8T14820   6.912   0.793   2.484 -1.2994 -0.3029 -2.4275
  137OSM    C9S14821   6.973   0.683   2.662 -0.1943 -0.8483 -0.7594
  137OSM    H9S14822   7.079   0.714   2.647 -1.2774  2.7248 -2.2843
  137OSM    H9T14823   6.967   0.578   2.698  2.6554 -0.6567  0.5342
  137OSM   C10S14824   6.902   0.774   2.768 -0.0057 -0.3204  0.0094
  137OSM   H10S14825   6.805   0.724   2.789 -0.1603 -0.3099 -0.6635
  137OSM   H10T14826   6.881   0.877   2.732 -1.3551 -0.0799  1.3688
  137OSM   C11S14827   6.982   0.798   2.904  0.2298  0.1120  0.6807
  137OSM   H11S14828   6.919   0.856   2.975  0.1441 -0.2906  0.9369
  137OSM   H11T14829   7.072   0.856   2.876 -0.8198  0.3304 -2.6424
  137OSM   C12S14830   7.005   0.657   2.973  0.1018  0.1150  0.0653
  137OSM   H12S14831   7.065   0.587   2.911 -1.1750 -1.4487  0.5366
  137OSM   H12T14832   6.909   0.606   2.995 -1.5751  2.9920 -0.0686
  137OSM   C13S14833   7.076   0.670   3.107 -0.4102 -0.3190 -0.5888
  137OSM   H13S14834   7.176   0.713   3.085 -1.0631  1.9001  0.4716
  137OSM   H13T14835   7.067   0.571   3.157  0.4008  0.0600  0.3453
  137OSM   C14S14836   7.010   0.778   3.199 -0.6294 -0.4193  0.1707
  137OSM   H14S14837   6.900   0.766   3.182 -0.9827  3.4040 -1.3973
  137OSM   H14T14838   7.034   0.877   3.156  0.9748 -0.3772  1.1255
  137OSM   C15S14839   7.046   0.761   3.347  0.0385  0.7130 -0.3859
  137OSM   H15S14840   7.157   0.752   3.348  0.1793  2.1661  0.9938
  137OSM   H15T14841   7.006   0.673   3.402 -0.1654  1.1755  0.2170
  137OSM   C16S14842   6.996   0.883   3.422  0.2463  0.9677  0.0664
  137OSM   H16S14843   6.885   0.893   3.421  0.1366  0.0125  0.9949
  137OSM   H16T14844   7.038   0.967   3.363  1.9489 -0.4107 -0.7486
  137OSM   C17S14845   7.051   0.882   3.564 -0.3853 -0.4629  0.4228
  137OSM   H17S14846   7.159   0.861   3.547 -0.9821 -1.8040 -2.4833
  137OSM   H17T14847   7.010   0.808   3.635  0.9195  0.1160  1.8191
  137OSM   C18S14848   7.036   1.021   3.639  0.1101  0.4829  0.4476
  137OSM   H18S14849   7.072   1.107   3.579  0.4257  0.0663  0.0346
  137OSM   H18T14850   7.097   1.018   3.732  1.1801  0.1273 -0.2525
  137OSM   H18U14851   6.928   1.036   3.660 -0.4144 -1.0317 -0.9811
  137OSM    C1F14852   6.739   1.142   2.378  0.2513 -0.1565  0.0242
  137OSM     OF14853   6.637   1.195   2.327 -0.2069 -0.6461  1.0593
  137OSM    C2F14854   6.766   1.150   2.527 -0.1163  0.0773 -0.2931
  137OSM    H2F14855   6.852   1.218   2.539  0.2216 -0.4792  0.5710
  137OSM    H2G14856   6.799   1.051   2.565  1.2669 -0.0514 -1.7380
  137OSM    C3F14857   6.659   1.209   2.624  0.6467  0.0572 -0.2480
  137OSM    H3F14858   6.570   1.144   2.637 -0.7528  1.4613 -2.1150
  137OSM    H3G14859   6.622   1.298   2.568  0.6063 -0.1825 -0.6038
  137OSM    C4F14860   6.721   1.269   2.752 -0.3479 -0.6254 -0.0997
  137OSM    H4F14861   6.641   1.328   2.802 -0.6074  0.9227 -2.1972
  137OSM    H4G14862   6.793   1.346   2.717 -1.7892  0.3029 -1.1636
  137OSM    C5F14863   6.770   1.167   2.854  0.0698 -0.1904 -0.6003
  137OSM    H5F14864   6.856   1.105   2.820  0.0943 -0.8125  0.5635
  137OSM    H5G14865   6.686   1.097   2.869 -0.8028  1.2378  1.6874
  137OSM    C6F14866   6.795   1.241   2.992 -0.6210  0.4419 -0.4713
  137OSM    H6F14867   6.848   1.177   3.065  0.2509  0.3496 -1.1635
  137OSM    H6G14868   6.702   1.266   3.045  0.8373 -2.6979  4.1979
  137OSM    C7F14869   6.876   1.368   2.984  0.0094 -0.7547 -0.3531
  137OSM    H7F14870   6.814   1.441   2.927 -0.5183 -0.3378  0.7205
  137OSM    H7G14871   6.969   1.335   2.934  1.4525  0.1593  1.5799
  137OSM    C8F14872   6.909   1.442   3.117 -0.0772  0.5115  0.3455
  137OSM    H8F14873   6.965   1.368   3.179 -0.7961 -0.3082  0.0295
  137OSM    H8G14874   6.819   1.449   3.182  0.8027 -0.4602  1.7428
  137OSM    C9F14875   6.987   1.562   3.121 -0.0881 -0.5962  0.9136
  137OSM    H9F14876   7.091   1.525   3.122  1.0574  2.3667  1.4747
  137OSM   C10F14877   6.952   1.690   3.148 -0.3039  0.5329  0.5446
  137OSM   H10F14878   7.021   1.776   3.147 -0.0433  0.3661 -2.2300
  137OSM   C11F14879   6.807   1.729   3.158 -0.1598 -0.0165  0.0011
  137OSM   H11F14880   6.745   1.637   3.144 -1.0305  0.6115 -0.3369
  137OSM   H11G14881   6.772   1.785   3.068  0.3521 -0.0951 -0.2468
  137OSM   C12F14882   6.759   1.800   3.286  0.1705 -0.3957 -0.1838
  137OSM   H12F14883   6.657   1.842   3.275  0.1074 -0.6021 -0.3903
  137OSM   H12G14884   6.831   1.883   3.306  1.1873 -1.3541  0.2382
  137OSM   C13F14885   6.770   1.714   3.414 -0.0481  0.1302  0.1412
  137OSM   H13F14886   6.871   1.720   3.459 -1.0581 -2.7329  3.2225
  137OSM   H13G14887   6.748   1.609   3.384  0.0776 -0.6066  2.3914
  137OSM   C14F14888   6.680   1.784   3.519 -0.2982 -0.3494  1.3936
  137OSM   H14F14889   6.572   1.763   3.503 -0.4329  0.7103  0.8249
  137OSM   H14G14890   6.696   1.892   3.502  1.3148 -1.0909 -3.0666
  137OSM   C15F14891   6.716   1.746   3.659 -0.4768  0.4195 -0.0459
  137OSM   H15F14892   6.827   1.745   3.666 -0.4813  1.3331  0.3169
  137OSM   H15G14893   6.699   1.637   3.670  3.7838 -0.2057  2.4004
  137OSM   C16F14894   6.654   1.805   3.786 -0.0131 -0.5182 -0.3548
  137OSM   H16F14895   6.545   1.783   3.780 -0.1754  0.6033 -2.4282
  137OSM   H16G14896   6.655   1.916   3.788 -2.7480 -0.3958 -1.7082
  137OSM   C17F14897   6.731   1.753   3.907  0.1598  0.1951  0.2670
  137OSM   H17F14898   6.831   1.801   3.909 -1.1170  3.2358 -1.4761
  137OSM   H17G14899   6.745   1.643   3.910  0.0769  0.2028  3.5127
  137OSM   C18F14900   6.663   1.794   4.043 -0.0257 -0.5122  0.0267
  137OSM   H18F14901   6.577   1.729   4.071 -1.5498  0.8525 -1.2632
  137OSM   H18G14902   6.615   1.894   4.040  1.2734  0.1210 -0.3682
  137OSM   H18H14903   6.739   1.791   4.124 -0.5580  0.8145  0.5960
  138OSM      N14904   5.229   5.520   1.981  0.2977 -0.7078  0.5368
  138OSM    C1514905   5.305   5.636   1.912 -0.3219  0.2818  0.5042
  138OSM   H15A14906   5.249   5.728   1.908 -0.2100  0.3946  1.3834
  138OSM   H15B14907   5.333   5.617   1.809 -0.5493 -1.9622  0.7941
  138OSM   H15C14908   5.397   5.652   1.966  1.4083 -2.8626 -1.1893
  138OSM    C1414909   5.123   5.472   1.897  0.0387  0.0782 -0.3419
  138OSM   H14A14910   5.073   5.391   1.947 -0.1725  0.6343  0.3701
  138OSM   H14B14911   5.151   5.431   1.801 -0.1476 -1.0322  0.0754
  138OSM   H14C14912   5.053   5.550   1.871 -1.3528 -0.5954  1.2026
  138OSM    C1314913   5.325   5.409   2.002  0.2889 -0.4839 -0.1439
  138OSM   H13A14914   5.267   5.324   2.036 -0.7543  0.2178 -0.1129
  138OSM   H13B14915   5.399   5.449   2.069 -0.7099  0.5102  0.4055
  138OSM   H13C14916   5.377   5.381   1.912 -1.0523  0.0011 -1.1047
  138OSM    C1214917   5.175   5.560   2.118 -0.5909  0.5781 -0.1351
  138OSM   H12A14918   5.106   5.488   2.160 -1.6666  3.0220  2.6792
  138OSM   H12B14919   5.112   5.646   2.097  3.5758  3.8998 -0.4573
  138OSM    C1114920   5.278   5.599   2.227  0.3232 -0.8541  0.1547
  138OSM   H11A14921   5.357   5.524   2.252  0.7131 -0.4328  0.1973
  138OSM   H11B14922   5.229   5.613   2.325 -1.1483 -0.1079 -0.6524
  138OSM      P14923   5.484   5.760   2.249  0.0673  0.1793  0.0571
  138OSM    O1314924   5.578   5.647   2.227  0.3340 -0.4275 -0.6916
  138OSM    O1414925   5.521   5.883   2.180 -0.0905 -0.1539 -0.5862
  138OSM    O1114926   5.455   5.789   2.401  0.4670 -0.6924  0.7177
  138OSM    O1214927   5.340   5.723   2.188 -0.2615 -0.0853 -0.5629
  138OSM    C1S14928   5.373   5.899   2.431  0.5797  0.1076  0.0912
  138OSM    H1S14929   5.268   5.875   2.405  0.5945 -2.0648  1.7685
  138OSM    H1T14930   5.382   5.989   2.366 -2.4460  0.2539 -0.2884
  138OSM     NF14931   5.299   6.073   2.598 -0.0124  0.1220 -0.4638
  138OSM    HNF14932   5.335   6.166   2.600 -0.6865  0.3858  1.7827
  138OSM    C2S14933   5.398   5.964   2.574 -0.1676  0.3415 -0.6542
  138OSM    H2S14934   5.376   5.885   2.649 -0.1093  0.8639 -0.0776
  138OSM    C3S14935   5.544   6.002   2.598  0.0231  0.2576  0.1938
  138OSM    H3S14936   5.573   6.085   2.530 -1.0475  1.4620  1.1623
  138OSM     O314937   5.637   5.899   2.567  0.6585  0.1663  0.1788
  138OSM    HO314938   5.579   5.847   2.510  0.5244  1.8969 -1.3510
  138OSM    C4S14939   5.577   6.061   2.731 -0.1374 -0.5489  0.3637
  138OSM    H4S14940   5.551   6.168   2.729 -0.5417 -0.6458 -1.5188
  138OSM    C5S14941   5.627   6.006   2.843 -0.1916 -0.0909 -0.0474
  138OSM    H5S14942   5.647   5.898   2.832  0.0799 -0.2166  1.4807
  138OSM    C6S14943   5.661   6.088   2.971  0.3839  0.2178  0.7561
  138OSM    H6S14944   5.634   6.194   2.955  2.5961  0.4373 -2.5938
  138OSM    H6T14945   5.768   6.074   2.998  1.1737  1.5418 -1.4508
  138OSM    C7S14946   5.587   6.032   3.092  0.8523 -0.0408 -1.0611
  138OSM    H7S14947   5.606   5.923   3.098 -1.3353 -0.5094 -1.6958
  138OSM    H7T14948   5.477   6.047   3.085  1.1120  1.7502 -1.8391
  138OSM    C8S14949   5.640   6.098   3.214  0.1257  0.1545 -0.5158
  138OSM    H8S14950   5.633   6.207   3.198  0.7357  0.7668  2.6850
  138OSM    H8T14951   5.748   6.077   3.230 -0.3467 -1.6300  0.6539
  138OSM    C9S14952   5.560   6.040   3.333  0.2688 -0.6791 -0.8262
  138OSM    H9S14953   5.598   5.938   3.353  0.3433 -0.6342 -0.7353
  138OSM    H9T14954   5.452   6.043   3.306 -0.0322 -2.5111  0.0667
  138OSM   C10S14955   5.569   6.125   3.456  0.1440 -0.0899 -0.4570
  138OSM   H10S14956   5.505   6.077   3.533  1.4186 -0.6837  0.2738
  138OSM   H10T14957   5.529   6.226   3.433  1.3194  0.1995 -1.3564
  138OSM   C11S14958   5.712   6.146   3.522 -0.1422  0.9920 -0.7729
  138OSM   H11S14959   5.782   6.184   3.444 -0.0971 -0.5084 -1.5058
  138OSM   H11T14960   5.748   6.047   3.556  1.4435  2.4035  2.0192
  138OSM   C12S14961   5.719   6.230   3.648 -0.5441 -0.1995  0.2969
  138OSM   H12S14962   5.678   6.332   3.631 -1.6786 -0.6456  0.2800
  138OSM   H12T14963   5.825   6.232   3.682 -0.9091  0.9934  1.4130
  138OSM   C13S14964   5.631   6.164   3.757  0.1475  0.4345 -0.2508
  138OSM   H13S14965   5.636   6.053   3.765  0.1538  0.5827  2.9306
  138OSM   H13T14966   5.528   6.188   3.725  0.2626  0.9026 -0.2738
  138OSM   C14S14967   5.664   6.244   3.888 -0.3748  0.1002  0.1944
  138OSM   H14S14968   5.641   6.353   3.884 -0.0542  0.2174  1.2716
  138OSM   H14T14969   5.773   6.239   3.910 -0.3874  2.1732  1.0333
  138OSM   C15S14970   5.611   6.184   4.016  0.0716  0.4870 -0.0172
  138OSM   H15S14971   5.633   6.075   4.021  1.4312  0.5073 -2.9107
  138OSM   H15T14972   5.503   6.203   4.026  0.0440  1.1867 -1.4470
  138OSM   C16S14973   5.668   6.245   4.144 -0.4984 -0.2731 -0.2941
  138OSM   H16S14974   5.646   6.352   4.167  1.5921  0.0849  0.2162
  138OSM   H16T14975   5.778   6.237   4.134 -0.5237  0.7785 -1.9038
  138OSM   C17S14976   5.633   6.164   4.266 -0.5275  0.1866  0.3677
  138OSM   H17S14977   5.640   6.060   4.229 -2.6761  0.7768 -2.0225
  138OSM   H17T14978   5.524   6.174   4.288 -0.5756 -0.5708  0.5164
  138OSM   C18S14979   5.713   6.187   4.394 -0.2355  0.5446 -0.3118
  138OSM   H18S14980   5.706   6.294   4.423 -2.1290 -0.5658  3.9228
  138OSM   H18T14981   5.821   6.161   4.382 -0.5991 -0.8062 -0.8050
  138OSM   H18U14982   5.669   6.127   4.476 -0.9520 -0.0327 -1.0981
  138OSM    C1F14983   5.171   6.050   2.615 -0.0654  0.2618 -0.3692
  138OSM     OF14984   5.121   5.941   2.602  0.1964  0.5151 -0.3392
  138OSM    C2F14985   5.089   6.154   2.648  0.2916 -0.5248  0.2006
  138OSM    H2F14986   4.995   6.153   2.589  1.3638 -0.2270 -1.5829
  138OSM    H2G14987   5.144   6.250   2.640 -2.0678  0.8847  0.0743
  138OSM    C3F14988   5.047   6.154   2.796  0.3008  0.1431 -0.5749
  138OSM    H3F14989   5.144   6.164   2.849 -0.1728 -1.2807  0.6296
  138OSM    H3G14990   4.995   6.058   2.820 -0.7301  0.6214 -0.8389
  138OSM    C4F14991   4.947   6.259   2.846  0.2054 -0.6588  0.7293
  138OSM    H4F14992   4.848   6.262   2.795  0.4625  0.7742  0.2763
  138OSM    H4G14993   4.987   6.360   2.823 -0.8216 -0.8585 -2.3973
  138OSM    C5F14994   4.914   6.253   2.997 -0.0508 -0.5080  0.1668
  138OSM    H5F14995   4.879   6.151   3.027  2.5717 -2.4758 -2.8239
  138OSM    H5G14996   4.818   6.307   3.013 -1.4392 -3.3600  2.4163
  138OSM    C6F14997   5.025   6.308   3.090 -0.4348  0.2904  0.2700
  138OSM    H6F14998   5.043   6.416   3.075 -0.8815  0.4974  1.1662
  138OSM    H6G14999   5.125   6.263   3.072 -0.2075  0.4695  1.0581
  138OSM    C7F15000   4.996   6.285   3.238  0.0343  1.0026  0.6688
  138OSM    H7F15001   5.090   6.289   3.296 -1.1934  2.8531  2.6921
  138OSM    H7G15002   4.951   6.185   3.254 -0.0037  1.3231  2.8389
  138OSM    C8F15003   4.895   6.392   3.282  0.0547 -0.4438  0.1888
  138OSM    H8F15004   4.799   6.387   3.227  0.0537 -0.4636  0.1925
  138OSM    H8G15005   4.941   6.490   3.259  0.6434 -1.4410 -3.5947
  138OSM    C9F15006   4.868   6.382   3.431 -0.6164  0.7841 -0.4087
  138OSM    H9F15007   4.790   6.309   3.459 -1.7746  2.6165  1.5061
  138OSM   C10F15008   4.913   6.468   3.525 -0.2021  0.2004  0.2877
  138OSM   H10F15009   4.873   6.462   3.627 -0.0487 -1.0262  0.2837
  138OSM   C11F15010   5.018   6.579   3.512  0.2389  0.4810  0.0455
  138OSM   H11F15011   4.984   6.659   3.580  1.3782 -0.3447  1.6294
  138OSM   H11G15012   5.019   6.623   3.410  0.3985  0.1184 -0.1127
  138OSM   C12F15013   5.157   6.537   3.546 -0.1441  0.2222  0.0815
  138OSM   H12F15014   5.220   6.627   3.529 -1.3565  0.9578 -0.6315
  138OSM   H12G15015   5.190   6.461   3.473 -0.4620  2.1177 -2.1244
  138OSM   C13F15016   5.155   6.469   3.692 -0.7419  0.2961  0.0889
  138OSM   H13F15017   5.095   6.376   3.704 -1.3072  0.9857  3.4703
  138OSM   H13G15018   5.097   6.537   3.758 -1.0261  2.2143 -2.0251
  138OSM   C14F15019   5.295   6.434   3.747  0.6810  0.4292 -0.1797
  138OSM   H14F15020   5.344   6.530   3.773  1.2289  0.1046 -0.0001
  138OSM   H14G15021   5.358   6.404   3.660  2.9608 -1.7326  2.0471
  138OSM   C15F15022   5.299   6.323   3.858 -0.5382 -0.8150 -0.6341
  138OSM   H15F15023   5.407   6.306   3.876  0.1756  3.3022  0.1323
  138OSM   H15G15024   5.241   6.235   3.822 -1.4245 -0.7766  0.6014
  138OSM   C16F15025   5.233   6.375   3.984  0.0395 -0.4084  0.3269
  138OSM   H16F15026   5.131   6.418   3.969  1.3813  3.0954  0.1961
  138OSM   H16G15027   5.300   6.457   4.018 -1.0907 -0.0337  1.8099
  138OSM   C17F15028   5.226   6.280   4.110 -1.0308 -0.2740 -0.2584
  138OSM   H17F15029   5.200   6.338   4.202  1.8105  1.9465 -0.7102
  138OSM   H17G15030   5.323   6.229   4.126  0.6642  3.1444  1.6966
  138OSM   C18F15031   5.118   6.171   4.097  0.2851 -0.2602 -0.4118
  138OSM   H18F15032   5.017   6.210   4.070  0.4162 -1.3741 -2.6727
  138OSM   H18G15033   5.106   6.113   4.191 -2.4416  0.8545  0.0173
  138OSM   H18H15034   5.143   6.099   4.016 -0.5977 -0.2244 -0.7284
  139OSM      N15035   6.863   6.857   1.592  0.3742  0.6148  0.1769
  139OSM    C1515036   6.857   6.808   1.451  0.2977 -0.7500  0.3010
  139OSM   H15A15037   6.915   6.878   1.392  0.0243 -0.5944  0.2169
  139OSM   H15B15038   6.755   6.799   1.417 -0.0518 -4.0820  1.8090
  139OSM   H15C15039   6.899   6.710   1.434 -1.8433 -1.9121  1.3007
  139OSM    C1415040   7.001   6.887   1.619 -0.0127 -0.0710 -0.0615
  139OSM   H14A15041   7.062   6.800   1.598 -0.5369 -0.8478  1.3922
  139OSM   H14B15042   7.016   6.917   1.722 -1.0139  3.4548 -0.8457
  139OSM   H14C15043   7.034   6.962   1.550 -2.1505 -0.0544 -1.1222
  139OSM    C1315044   6.784   6.980   1.614  0.0462 -0.2011 -0.3987
  139OSM   H13A15045   6.681   6.977   1.583 -0.2258 -1.0245  0.5175
  139OSM   H13B15046   6.823   7.066   1.561 -3.3159  1.6124 -0.1970
  139OSM   H13C15047   6.782   7.008   1.719  1.7475 -0.8986 -0.1422
  139OSM    C1215048   6.798   6.759   1.687  0.4790  0.7898 -0.4239
  139OSM   H12A15049   6.855   6.670   1.667 -0.0453  0.2027  0.6006
  139OSM   H12B15050   6.697   6.731   1.665  1.1991 -2.7955  0.2561
  139OSM    C1115051   6.821   6.778   1.837 -0.3979  0.3941 -0.0162
  139OSM   H11A15052   6.931   6.781   1.848 -0.1235 -0.9919 -1.8403
  139OSM   H11B15053   6.799   6.686   1.896  0.3139  0.7804  0.8732
  139OSM      P15054   6.627   6.887   1.958 -0.0204  0.0064  0.0027
  139OSM    O1315055   6.582   7.026   1.998 -0.8287  0.4894  0.3420
  139OSM    O1415056   6.533   6.816   1.871 -0.7371 -0.1334 -0.6732
  139OSM    O1115057   6.648   6.807   2.098 -0.3012  0.7386  1.1589
  139OSM    O1215058   6.773   6.893   1.896  0.1147  0.1250  0.3228
  139OSM    C1S15059   6.749   6.835   2.188  0.6417  0.2883 -0.6373
  139OSM    H1S15060   6.812   6.917   2.148  2.0446 -0.8048 -0.7380
  139OSM    H1T15061   6.810   6.743   2.202 -0.3326 -0.3231 -0.2749
  139OSM     NF15062   6.780   6.926   2.419 -0.3346  0.2226 -0.1121
  139OSM    HNF15063   6.793   6.863   2.495  2.5934  0.4987 -0.2615
  139OSM    C2S15064   6.683   6.882   2.327  1.1557 -0.2645 -0.2379
  139OSM    H2S15065   6.619   6.968   2.298  1.6326 -0.4425 -1.9439
  139OSM    C3S15066   6.584   6.766   2.372  0.2846 -0.1756 -0.4171
  139OSM    H3S15067   6.650   6.682   2.404  0.1930  0.8734  2.8913
  139OSM     O315068   6.493   6.721   2.275  0.1888  0.2460 -0.8089
  139OSM    HO315069   6.516   6.756   2.188 -1.7010  0.1164 -1.4094
  139OSM    C4S15070   6.513   6.797   2.508 -0.6783 -0.4273 -0.2421
  139OSM    H4S15071   6.579   6.784   2.596 -0.1976  1.2192 -0.3139
  139OSM    C5S15072   6.396   6.861   2.528 -0.5362  0.3128 -0.1216
  139OSM    H5S15073   6.328   6.885   2.445 -2.2041 -1.1318  0.7557
  139OSM    C6S15074   6.339   6.887   2.663  0.4067  0.1280  0.6202
  139OSM    H6S15075   6.276   6.978   2.657  1.5200  0.8220 -1.3049
  139OSM    H6T15076   6.419   6.905   2.737  0.2066  0.0572  0.8553
  139OSM    C7S15077   6.258   6.765   2.729  0.1280 -0.3553  0.0158
  139OSM    H7S15078   6.328   6.680   2.746  1.0392 -0.1475 -2.3146
  139OSM    H7T15079   6.182   6.732   2.655 -1.1816  0.2137  1.0770
  139OSM    C8S15080   6.206   6.806   2.865  1.0430 -0.3996 -0.5460
  139OSM    H8S15081   6.296   6.849   2.915  0.2781  0.8662 -0.1995
  139OSM    H8T15082   6.157   6.718   2.912  1.0321  0.1499  0.5157
  139OSM    C9S15083   6.101   6.921   2.852 -0.6785  0.4871 -0.0847
  139OSM    H9S15084   6.036   6.892   2.767  1.5548  2.3149 -2.5600
  139OSM    H9T15085   6.147   7.017   2.820 -1.6658  0.7440 -0.7590
  139OSM   C10S15086   6.017   6.943   2.975  0.1162 -0.3224 -0.9024
  139OSM   H10S15087   5.962   6.850   2.999  0.0999 -0.1726 -0.3402
  139OSM   H10T15088   5.941   7.022   2.959  0.8169  0.2792 -1.3344
  139OSM   C11S15089   6.105   6.972   3.107 -0.4260 -0.3706  0.1467
  139OSM   H11S15090   6.159   7.069   3.104 -1.5885  0.2736 -1.3287
  139OSM   H11T15091   6.190   6.901   3.115  0.4834  0.6141 -0.4610
  139OSM   C12S15092   6.030   6.967   3.243  0.0527 -0.1894 -0.3827
  139OSM   H12S15093   5.965   6.878   3.247 -0.9945  0.5952  0.6067
  139OSM   H12T15094   5.960   7.050   3.264 -0.4141 -0.9525  1.2099
  139OSM   C13S15095   6.121   6.965   3.364  0.3520 -0.2049 -0.0069
  139OSM   H13S15096   6.196   7.046   3.362  0.0365  0.1116  0.8240
  139OSM   H13T15097   6.177   6.870   3.355 -0.5350 -0.5822 -2.3809
  139OSM   C14S15098   6.055   6.942   3.504 -0.0471 -0.4143  1.0334
  139OSM   H14S15099   6.017   6.839   3.515 -1.7706  0.0586 -0.1907
  139OSM   H14T15100   5.968   7.010   3.509 -0.5428 -0.7499 -1.6172
  139OSM   C15S15101   6.161   6.963   3.609 -0.0807  0.1147  0.1848
  139OSM   H15S15102   6.199   7.068   3.610  0.7143 -0.1271  2.5995
  139OSM   H15T15103   6.253   6.901   3.597  1.2481  2.1683 -0.7804
  139OSM   C16S15104   6.093   6.937   3.742 -0.8328 -0.2024 -0.9450
  139OSM   H16S15105   6.072   6.829   3.755 -2.9470  0.2544  0.0284
  139OSM   H16T15106   5.994   6.989   3.737 -0.4795  0.6646  0.5077
  139OSM   C17S15107   6.179   6.972   3.872  0.1581 -0.2351 -0.6261
  139OSM   H17S15108   6.098   7.003   3.941  1.3290 -0.8405  1.0725
  139OSM   H17T15109   6.239   7.064   3.852 -2.7571  1.8078 -0.6726
  139OSM   C18S15110   6.256   6.852   3.934 -0.1641 -0.2160 -0.0420
  139OSM   H18S15111   6.186   6.767   3.948  1.1393 -1.7391 -2.1009
  139OSM   H18T15112   6.305   6.884   4.028  0.0222  0.9896 -0.5395
  139OSM   H18U15113   6.341   6.816   3.870 -0.5625 -0.3769 -0.4895
  139OSM    C1F15114   6.854   7.039   2.409  0.5715 -0.2501  0.5629
  139OSM     OF15115   6.825   7.116   2.322  0.8150  0.0160 -0.1832
  139OSM    C2F15116   6.939   7.072   2.521  0.1043 -0.5776 -0.0739
  139OSM    H2F15117   7.025   7.137   2.494 -0.3749 -0.1958 -0.6974
  139OSM    H2G15118   6.986   6.988   2.577 -0.2538 -0.5418  0.2804
  139OSM    C3F15119   6.861   7.159   2.628  0.0283 -0.1572 -0.0960
  139OSM    H3F15120   6.770   7.106   2.664 -1.6582  1.8671 -1.1501
  139OSM    H3G15121   6.820   7.252   2.583  0.2498 -1.1763 -2.5540
  139OSM    C4F15122   6.955   7.202   2.746 -0.5010 -0.0399  0.4957
  139OSM    H4F15123   6.902   7.276   2.811  0.0218  0.1357  0.7326
  139OSM    H4G15124   7.041   7.260   2.706 -1.1546  0.1652 -0.6408
  139OSM    C5F15125   7.009   7.082   2.824  1.2187 -0.4656 -0.5377
  139OSM    H5F15126   7.089   7.035   2.763  2.7090  0.7440  0.4167
  139OSM    H5G15127   6.919   7.016   2.827  0.8864  0.0070  0.0722
  139OSM    C6F15128   7.067   7.115   2.962 -0.6649 -0.4129 -0.2823
  139OSM    H6F15129   7.006   7.197   3.004  3.3812  2.6546  0.2117
  139OSM    H6G15130   7.156   7.181   2.954  0.2980 -1.0133  3.4395
  139OSM    C7F15131   7.094   6.989   3.050 -1.1315 -0.3498  0.1841
  139OSM    H7F15132   7.158   6.919   2.992 -0.5133  0.2101  0.1729
  139OSM    H7G15133   6.993   6.948   3.069 -2.0973  2.2810  1.1654
  139OSM    C8F15134   7.161   7.015   3.183  0.1126 -0.2143 -0.2062
  139OSM    H8F15135   7.261   7.049   3.149  0.0316 -0.3834 -0.6250
  139OSM    H8G15136   7.180   6.925   3.244 -0.0131 -0.1614 -0.0887
  139OSM    C9F15137   7.094   7.122   3.266  0.4487 -0.2640  0.2321
  139OSM    H9F15138   7.087   7.225   3.230 -1.2756  0.5137  2.5762
  139OSM   C10F15139   7.042   7.094   3.387  0.2056  0.0174  0.1080
  139OSM   H10F15140   6.993   7.180   3.436  0.6827 -0.1296  0.8491
  139OSM   C11F15141   7.002   6.967   3.461  0.2584 -0.1265 -0.3973
  139OSM   H11F15142   6.965   6.883   3.399  3.0587 -1.1818 -0.7636
  139OSM   H11G15143   6.917   6.989   3.529 -0.8433 -1.6673 -1.2293
  139OSM   C12F15144   7.102   6.903   3.565  0.5985 -0.2610 -0.1815
  139OSM   H12F15145   7.196   6.882   3.511  0.7332 -2.2516  0.7513
  139OSM   H12G15146   7.061   6.808   3.607  1.3355 -0.8790 -0.8336
  139OSM   C13F15147   7.126   6.999   3.680  0.2590 -0.4138  0.5336
  139OSM   H13F15148   7.032   7.006   3.737 -0.0995  1.6163 -0.2037
  139OSM   H13G15149   7.134   7.105   3.646  1.1354 -1.2679 -2.2364
  139OSM   C14F15150   7.258   6.968   3.760 -0.0302  0.0627 -0.3041
  139OSM   H14F15151   7.342   6.993   3.692  0.2723 -0.8007 -0.2653
  139OSM   H14G15152   7.269   6.860   3.786  2.7601  0.1719 -0.6741
  139OSM   C15F15153   7.277   7.045   3.891 -1.1788 -0.1404  0.2948
  139OSM   H15F15154   7.202   7.015   3.968 -0.5563  1.1653  1.4562
  139OSM   H15G15155   7.252   7.151   3.872  0.9671  0.1569 -1.1261
  139OSM   C16F15156   7.421   7.028   3.942  0.4786 -0.5538 -0.3432
  139OSM   H16F15157   7.490   7.068   3.864 -0.9375 -0.5396 -1.6461
  139OSM   H16G15158   7.447   6.922   3.960  2.7665 -0.3424 -2.0082
  139OSM   C17F15159   7.437   7.116   4.067  0.2357 -0.1475 -0.2581
  139OSM   H17F15160   7.427   7.220   4.029 -0.9677 -0.6146 -1.2803
  139OSM   H17G15161   7.545   7.105   4.094  0.7453  0.2068 -2.0241
  139OSM   C18F15162   7.352   7.077   4.190  0.2810  0.8279  0.0234
  139OSM   H18F15163   7.243   7.090   4.174 -0.2723 -1.3836  1.5423
  139OSM   H18G15164   7.371   7.145   4.276  0.7070 -0.3044  0.8466
  139OSM   H18H15165   7.375   6.975   4.229  2.4990  1.1655 -0.2929
  140OSM      N15166   4.173   0.425   1.750 -0.5620 -0.2495 -0.5828
  140OSM    C1515167   4.319   0.394   1.753 -0.1841  0.5263 -0.1845
  140OSM   H15A15168   4.334   0.331   1.667  0.7562  0.2267  0.1864
  140OSM   H15B15169   4.336   0.330   1.838 -1.5710  2.1751  1.4184
  140OSM   H15C15170   4.384   0.479   1.768  0.8860 -0.3713  0.4305
  140OSM    C1415171   4.136   0.508   1.629  0.2405 -0.7628  0.0259
  140OSM   H14A15172   4.035   0.544   1.639  1.2485  2.4565 -0.0315
  140OSM   H14B15173   4.153   0.453   1.538  1.5702 -0.1290 -0.1438
  140OSM   H14C15174   4.204   0.592   1.631 -0.7218  0.0998 -1.4074
  140OSM    C1315175   4.100   0.304   1.744  0.5143 -0.3854 -0.4421
  140OSM   H13A15176   4.108   0.250   1.651  0.1113  0.4255 -0.9546
  140OSM   H13B15177   3.999   0.333   1.771  0.8836  0.8218 -0.2999
  140OSM   H13C15178   4.135   0.237   1.822 -1.3431 -1.0166 -0.0840
  140OSM    C1215179   4.139   0.503   1.880 -0.7008  0.1402 -0.4086
  140OSM   H12A15180   4.216   0.574   1.906 -0.1805 -0.8025  0.7310
  140OSM   H12B15181   4.149   0.440   1.968  1.2870  1.6120  0.5068
  140OSM    C1115182   4.002   0.581   1.887 -0.1279  0.3061 -0.2383
  140OSM   H11A15183   3.998   0.673   1.825 -1.7107 -0.0400 -0.7079
  140OSM   H11B15184   3.994   0.623   1.990  2.8570 -1.2784  0.7437
  140OSM      P15185   3.740   0.562   1.861 -0.6698  0.2614 -0.3699
  140OSM    O1315186   3.728   0.691   1.790  0.1154 -0.2047 -0.1919
  140OSM    O1415187   3.637   0.465   1.817  0.8694  0.6042 -0.2278
  140OSM    O1115188   3.724   0.590   2.016  1.0824 -0.1134 -0.7456
  140OSM    O1215189   3.890   0.501   1.849 -0.2279  0.6361  0.1239
  140OSM    C1S15190   3.771   0.499   2.119  0.8146 -1.1201  0.5726
  140OSM    H1S15191   3.875   0.463   2.102  1.3272  0.1212  0.9683
  140OSM    H1T15192   3.708   0.408   2.122  0.6082 -0.9696  0.8302
  140OSM     NF15193   3.786   0.452   2.362 -0.1347  0.4307  0.3496
  140OSM    HNF15194   3.707   0.425   2.416  0.8411 -1.2848  1.0194
  140OSM    C2S15195   3.768   0.562   2.264 -0.1883  0.3591  0.3638
  140OSM    H2S15196   3.851   0.633   2.277  0.2862 -0.3624  1.4314
  140OSM    C3S15197   3.641   0.649   2.301 -0.1000 -0.0088 -0.0371
  140OSM    H3S15198   3.565   0.568   2.294 -0.2863  0.0794  0.9332
  140OSM     O315199   3.584   0.735   2.201 -0.0452 -0.3282 -0.2986
  140OSM    HO315200   3.630   0.716   2.119  1.3686  2.4183 -0.2516
  140OSM    C4S15201   3.638   0.715   2.441  0.5860 -0.4613 -0.0473
  140OSM    H4S15202   3.720   0.788   2.451  0.2350  0.0902 -1.0533
  140OSM    C5S15203   3.537   0.701   2.542 -0.6936  0.6727  0.0058
  140OSM    H5S15204   3.451   0.638   2.514  1.8487 -2.2773 -1.8291
  140OSM    C6S15205   3.529   0.764   2.676 -0.2466 -0.7017 -0.3071
  140OSM    H6S15206   3.519   0.682   2.750  0.5015  0.1732  0.7986
  140OSM    H6T15207   3.436   0.825   2.687  0.1481 -0.5181  3.2038
  140OSM    C7S15208   3.645   0.839   2.746  0.5665 -0.0082  0.0237
  140OSM    H7S15209   3.669   0.924   2.679 -1.4356 -1.1875 -2.3473
  140OSM    H7T15210   3.728   0.767   2.732  0.4089 -0.3793  0.9227
  140OSM    C8S15211   3.622   0.890   2.886 -0.3254 -0.0045 -0.2057
  140OSM    H8S15212   3.528   0.948   2.893 -0.3680 -0.0728 -0.2078
  140OSM    H8T15213   3.696   0.965   2.922 -0.2656 -0.2302  0.1497
  140OSM    C9S15214   3.608   0.770   2.985  0.3815 -0.6228 -0.4904
  140OSM    H9S15215   3.693   0.699   2.979 -0.1815 -1.4308  0.5910
  140OSM    H9T15216   3.511   0.723   2.956 -0.3935  0.4618  0.2148
  140OSM   C10S15217   3.575   0.824   3.123  0.0731  0.2137  0.2195
  140OSM   H10S15218   3.465   0.825   3.142  0.2670  3.6009  1.7053
  140OSM   H10T15219   3.616   0.927   3.128  1.5561 -0.2159 -1.7425
  140OSM   C11S15220   3.644   0.739   3.238  0.5512 -1.2343 -0.8632
  140OSM   H11S15221   3.754   0.746   3.228  0.4512  2.5116 -0.9479
  140OSM   H11T15222   3.599   0.638   3.234 -1.3819 -0.3803 -3.4243
  140OSM   C12S15223   3.598   0.794   3.376 -0.1559 -0.4130 -0.4480
  140OSM   H12S15224   3.491   0.781   3.404  0.3870 -4.1730  0.4519
  140OSM   H12T15225   3.633   0.899   3.376 -0.9913 -0.1305 -0.0169
  140OSM   C13S15226   3.674   0.733   3.495 -0.7483 -0.5017  0.6150
  140OSM   H13S15227   3.779   0.769   3.501 -1.4829  2.1449 -0.8625
  140OSM   H13T15228   3.680   0.622   3.498  2.2188 -0.4353  0.0851
  140OSM   C14S15229   3.606   0.783   3.624 -0.6407  0.2990  0.0888
  140OSM   H14S15230   3.497   0.767   3.612 -0.4978  0.0296 -1.0251
  140OSM   H14T15231   3.615   0.893   3.640 -0.1461  0.0924  1.3614
  140OSM   C15S15232   3.664   0.720   3.747 -0.0156 -0.0313  0.2150
  140OSM   H15S15233   3.772   0.745   3.750 -0.5467  2.3972  1.6714
  140OSM   H15T15234   3.640   0.611   3.743  0.2208 -0.0567 -1.4308
  140OSM   C16S15235   3.598   0.772   3.872 -0.1527 -0.7641 -0.0540
  140OSM   H16S15236   3.488   0.755   3.867 -0.2035 -1.0905  1.5974
  140OSM   H16T15237   3.620   0.879   3.890  2.6759 -1.3584  0.5353
  140OSM   C17S15238   3.637   0.703   3.996 -0.6294  0.5368 -0.2187
  140OSM   H17S15239   3.618   0.595   3.979  1.2823  0.3675 -1.5759
  140OSM   H17T15240   3.569   0.736   4.078 -0.3540 -0.9399  0.6272
  140OSM   C18S15241   3.781   0.708   4.054 -0.1357  0.5280  0.3521
  140OSM   H18S15242   3.796   0.649   4.147  0.7626  1.0489  0.5476
  140OSM   H18T15243   3.796   0.816   4.074  0.2230  0.2291  1.8032
  140OSM   H18U15244   3.857   0.666   3.984  1.0759  1.8076  0.8543
  140OSM    C1F15245   3.890   0.375   2.358  0.0570 -0.4325 -0.0990
  140OSM     OF15246   3.987   0.407   2.293  0.3006 -0.0294 -0.0173
  140OSM    C2F15247   3.886   0.261   2.452 -0.2255  0.2147 -0.2985
  140OSM    H2F15248   3.920   0.168   2.402 -1.8002 -1.3076  1.3324
  140OSM    H2G15249   3.786   0.234   2.493 -0.4967 -0.1395 -1.1773
  140OSM    C3F15250   3.976   0.289   2.577 -0.4475  0.0476  0.7916
  140OSM    H3F15251   3.931   0.384   2.615 -1.1920  0.5214 -1.1387
  140OSM    H3G15252   4.080   0.316   2.550 -1.4809  3.6617 -0.1012
  140OSM    C4F15253   3.975   0.176   2.676  0.2143 -0.3493 -0.3072
  140OSM    H4F15254   4.024   0.086   2.632  1.5994  0.2556 -0.0585
  140OSM    H4G15255   3.875   0.132   2.696  0.5803 -0.6295  0.9583
  140OSM    C5F15256   4.037   0.213   2.813 -0.6125 -0.3671  0.3502
  140OSM    H5F15257   3.988   0.301   2.860  1.8458  1.5233 -0.3711
  140OSM    H5G15258   4.137   0.257   2.792  0.7503 -2.4481  2.1021
  140OSM    C6F15259   4.062   0.089   2.897 -0.6739  0.6311  0.2291
  140OSM    H6F15260   4.105   0.006   2.837  1.2693  1.6293  0.1629
  140OSM    H6G15261   3.960   0.059   2.932 -0.3746 -0.4020  0.2656
  140OSM    C7F15262   4.152   0.109   3.018 -0.3106 -0.9952  0.0640
  140OSM    H7F15263   4.126   0.209   3.059  1.9393 -0.6221  0.7060
  140OSM    H7G15264   4.257   0.127   2.986 -0.7134 -0.3752 -0.9613
  140OSM    C8F15265   4.143   0.003   3.127 -0.2437 -0.5449  0.0904
  140OSM    H8F15266   4.175  -0.088   3.073 -0.1260 -0.6268  0.2960
  140OSM    H8G15267   4.034  -0.019   3.136 -0.5170  0.2700 -1.0111
  140OSM    C9F15268   4.208   0.035   3.257  0.5739 -0.2264 -0.2462
  140OSM    H9F15269   4.310   0.073   3.244  1.1219 -1.1305  1.1322
  140OSM   C10F15270   4.145   0.041   3.378 -0.7325  0.4501  0.6159
  140OSM   H10F15271   4.214   0.064   3.461  2.0202 -1.0288 -1.1031
  140OSM   C11F15272   4.001   0.010   3.419 -0.3057 -0.9348  0.1349
  140OSM   H11F15273   3.939  -0.023   3.334  0.7404 -0.5389 -0.8050
  140OSM   H11G15274   3.950   0.098   3.464  1.0878 -0.4700  0.8640
  140OSM   C12F15275   3.995  -0.088   3.537  0.3356  1.0112 -0.2162
  140OSM   H12F15276   4.067  -0.172   3.529 -0.6314  0.2089 -0.6982
  140OSM   H12G15277   3.902  -0.144   3.513  0.3859  1.6922 -2.2000
  140OSM   C13F15278   3.997  -0.030   3.675 -0.6733 -0.8721 -0.3455
  140OSM   H13F15279   3.908   0.037   3.685 -1.0692 -1.3917 -0.3343
  140OSM   H13G15280   4.089   0.028   3.694  0.9494 -1.0280 -5.8952
  140OSM   C14F15281   3.976  -0.145   3.785 -0.5545 -0.1373 -0.0143
  140OSM   H14F15282   4.067  -0.204   3.808 -0.3835  0.3582  0.5701
  140OSM   H14G15283   3.900  -0.208   3.734 -1.3829  2.5172 -2.3406
  140OSM   C15F15284   3.928  -0.085   3.916 -0.2226  0.1930  0.1500
  140OSM   H15F15285   3.835  -0.024   3.907 -0.9678  0.0764  4.7206
  140OSM   H15G15286   4.015  -0.025   3.953  1.9992 -0.4565 -3.5460
  140OSM   C16F15287   3.886  -0.195   4.011 -0.4919  0.1732  0.1904
  140OSM   H16F15288   3.797  -0.247   3.970  0.1920 -1.3352  0.5644
  140OSM   H16G15289   3.849  -0.139   4.100 -2.3535 -2.1601  0.9747
  140OSM   C17F15290   3.992  -0.289   4.059 -0.5144 -0.1751  0.0858
  140OSM   H17F15291   4.089  -0.242   4.085 -1.1541  0.4578  1.4206
  140OSM   H17G15292   4.029  -0.354   3.976  0.5312  2.4861 -1.6573
  140OSM   C18F15293   3.949  -0.375   4.174 -0.2278 -0.1490  0.7994
  140OSM   H18F15294   3.885  -0.451   4.123  1.0635  0.1076 -1.3291
  140OSM   H18G15295   3.899  -0.315   4.253 -0.3527 -0.6605  1.1104
  140OSM   H18H15296   4.034  -0.410   4.236 -0.8942  0.4988  2.1053
  141OSM      N15297   6.490   4.343   2.384 -0.3178 -0.0426  0.0265
  141OSM    C1515298   6.399   4.221   2.366 -0.3481  0.2396 -0.0295
  141OSM   H15A15299   6.404   4.147   2.444 -2.0318 -0.4218 -0.5211
  141OSM   H15B15300   6.421   4.184   2.267  1.6559 -2.9449  1.4575
  141OSM   H15C15301   6.301   4.265   2.366 -0.0395  0.9871  1.1486
  141OSM    C1415302   6.512   4.420   2.253  0.3470 -0.2732 -0.2564
  141OSM   H14A15303   6.571   4.509   2.266 -0.1614 -0.0353  0.4818
  141OSM   H14B15304   6.414   4.449   2.217 -0.8473 -1.8991  1.4970
  141OSM   H14C15305   6.565   4.362   2.179 -0.4684 -0.3940 -0.7620
  141OSM    C1315306   6.418   4.430   2.487 -0.1593  0.1909  0.5574
  141OSM   H13A15307   6.329   4.465   2.437 -0.1480  1.3820  1.3195
  141OSM   H13B15308   6.474   4.516   2.523 -0.0978  0.9335 -1.1984
  141OSM   H13C15309   6.395   4.374   2.576 -0.8174 -0.0893  0.2115
  141OSM    C1215310   6.623   4.308   2.447  0.0622  0.5179 -0.0676
  141OSM   H12A15311   6.614   4.241   2.531  0.6987 -0.3838 -0.6929
  141OSM   H12B15312   6.662   4.400   2.486 -0.2684  0.8665 -0.5441
  141OSM    C1115313   6.735   4.260   2.350  0.2514 -0.2724  0.2090
  141OSM   H11A15314   6.826   4.233   2.409  1.0091 -1.1922 -1.3253
  141OSM   H11B15315   6.776   4.343   2.290  0.1377  0.8762  1.6611
  141OSM      P15316   6.687   4.007   2.314 -0.0404  0.2415 -0.5559
  141OSM    O1315317   6.562   3.938   2.274 -0.5713 -0.1539  0.3816
  141OSM    O1415318   6.813   3.935   2.265 -0.0163 -0.1153 -0.1241
  141OSM    O1115319   6.683   4.032   2.471  0.1150 -0.3431  0.4000
  141OSM    O1215320   6.690   4.153   2.264  0.2367 -0.1640 -0.1750
  141OSM    C1S15321   6.784   3.974   2.545  0.1079 -0.0819 -0.7177
  141OSM    H1S15322   6.877   4.018   2.502  0.0152  0.8032 -0.0501
  141OSM    H1T15323   6.776   3.864   2.538 -0.0132 -0.1341  0.1057
  141OSM     NF15324   6.917   3.949   2.743  0.1179 -0.1322  0.5905
  141OSM    HNF15325   6.909   3.874   2.808 -0.4266  0.6924  1.5068
  141OSM    C2S15326   6.785   4.004   2.698 -1.1346  0.3510  0.1650
  141OSM    H2S15327   6.788   4.115   2.704 -1.8123  0.3402  0.9695
  141OSM    C3S15328   6.656   3.945   2.771 -0.1112 -0.2590  0.0806
  141OSM    H3S15329   6.670   3.835   2.776 -1.4354 -0.4541 -0.0568
  141OSM     O315330   6.537   3.963   2.692 -0.4304  0.3079  0.4829
  141OSM    HO315331   6.571   4.000   2.610  0.6468 -0.9464  0.3337
  141OSM    C4S15332   6.636   3.978   2.914 -0.3343 -0.2663  0.9875
  141OSM    H4S15333   6.719   3.938   2.973  1.9405 -0.2470 -1.9634
  141OSM    C5S15334   6.530   4.039   2.966  0.0512 -0.3078 -0.2513
  141OSM    H5S15335   6.451   4.075   2.898  0.6602  2.6024  0.4478
  141OSM    C6S15336   6.502   4.076   3.107 -0.5482 -0.1410  0.0608
  141OSM    H6S15337   6.409   4.023   3.137 -0.2541 -0.4827  0.3703
  141OSM    H6T15338   6.484   4.186   3.118  1.3111  0.1762  0.1395
  141OSM    C7S15339   6.601   4.031   3.216  0.1354 -0.3887  0.6860
  141OSM    H7S15340   6.565   4.068   3.315 -0.7667 -0.7252  0.4885
  141OSM    H7T15341   6.703   4.072   3.198  0.2281 -0.5978  0.7399
  141OSM    C8S15342   6.610   3.885   3.246  0.3977  0.2621 -0.5254
  141OSM    H8S15343   6.685   3.840   3.177  1.0652 -0.4305  0.6143
  141OSM    H8T15344   6.518   3.834   3.209  0.6296  0.4331 -1.3603
  141OSM    C9S15345   6.628   3.857   3.398  0.0532  0.5045 -0.0636
  141OSM    H9S15346   6.661   3.946   3.455 -0.5111 -1.1968  3.1425
  141OSM    H9T15347   6.706   3.779   3.413 -0.2454  0.2152  0.0251
  141OSM   C10S15348   6.493   3.805   3.463 -0.0609  0.6259  0.1806
  141OSM   H10S15349   6.461   3.711   3.414 -0.6871  0.1643  1.4466
  141OSM   H10T15350   6.431   3.896   3.455 -1.0997 -0.0897 -0.0999
  141OSM   C11S15351   6.511   3.779   3.616  0.3644  0.0590 -0.3965
  141OSM   H11S15352   6.407   3.777   3.655  1.6179  0.1746  3.3564
  141OSM   H11T15353   6.563   3.858   3.675  1.8649 -2.4011  1.8101
  141OSM   C12S15354   6.572   3.644   3.657  0.4310 -0.9532 -0.1071
  141OSM   H12S15355   6.676   3.628   3.621  0.9956  1.1776  0.4620
  141OSM   H12T15356   6.508   3.569   3.606  0.0269 -0.5648 -0.1714
  141OSM   C13S15357   6.564   3.610   3.806  0.9177  0.5755  0.1748
  141OSM   H13S15358   6.585   3.502   3.820 -0.7045 -0.2965 -3.0841
  141OSM   H13T15359   6.467   3.636   3.854 -0.7178 -2.6355 -1.0850
  141OSM   C14S15360   6.677   3.684   3.890 -0.4439 -0.4002 -0.0246
  141OSM   H14S15361   6.680   3.787   3.847  1.2075  0.0607  1.1076
  141OSM   H14T15362   6.774   3.640   3.860 -0.8438 -0.2591 -1.6267
  141OSM   C15S15363   6.648   3.690   4.040 -0.0524  0.6953 -0.4291
  141OSM   H15S15364   6.551   3.639   4.061 -0.5092  1.6005 -0.2872
  141OSM   H15T15365   6.622   3.792   4.076 -0.2379 -0.3984  2.9144
  141OSM   C16S15366   6.761   3.634   4.117  0.3972 -0.3297 -0.0453
  141OSM   H16S15367   6.854   3.681   4.080 -1.4420  2.7892 -1.1375
  141OSM   H16T15368   6.778   3.526   4.096  2.8696 -0.7360  3.3559
  141OSM   C17S15369   6.757   3.646   4.268 -0.3800 -0.2074 -0.2573
  141OSM   H17S15370   6.651   3.640   4.299  0.1211  1.8406  2.1583
  141OSM   H17T15371   6.813   3.733   4.310 -0.0950  0.6055 -2.2304
  141OSM   C18S15372   6.810   3.523   4.344 -0.2885 -0.2349 -0.0539
  141OSM   H18S15373   6.795   3.530   4.454  0.9622  1.6884  0.0566
  141OSM   H18T15374   6.921   3.514   4.340 -0.3017 -1.5423  1.2994
  141OSM   H18U15375   6.771   3.430   4.298  3.3496 -0.8115 -2.4457
  141OSM    C1F15376   7.037   3.979   2.693  0.8148  0.7482 -0.8926
  141OSM     OF15377   7.049   4.086   2.633  0.2333  0.0166 -0.3809
  141OSM    C2F15378   7.148   3.879   2.707 -0.4100  0.1378  0.0707
  141OSM    H2F15379   7.220   3.896   2.625 -0.6037 -2.1340 -0.6467
  141OSM    H2G15380   7.102   3.778   2.697  0.9946 -0.5477  0.3848
  141OSM    C3F15381   7.227   3.879   2.838  0.9148  0.5399  0.6155
  141OSM    H3F15382   7.152   3.840   2.911 -0.1046 -1.5743 -1.4468
  141OSM    H3G15383   7.261   3.983   2.854  1.2496  0.3806  0.9567
  141OSM    C4F15384   7.343   3.782   2.832 -0.2392 -0.9975  0.1009
  141OSM    H4F15385   7.399   3.805   2.738  1.5817  3.4280  1.9959
  141OSM    H4G15386   7.301   3.679   2.829 -1.6904 -0.4067 -0.9638
  141OSM    C5F15387   7.443   3.806   2.949  0.4602  0.5403  0.5690
  141OSM    H5F15388   7.484   3.904   2.918  1.8962 -0.2565 -0.1110
  141OSM    H5G15389   7.526   3.732   2.946  0.6667  0.8017 -0.6312
  141OSM    C6F15390   7.385   3.816   3.088  0.4446 -0.7572 -0.2174
  141OSM    H6F15391   7.334   3.720   3.110  2.1113 -1.8556 -1.0484
  141OSM    H6G15392   7.301   3.890   3.082  0.0739 -1.1250  0.3395
  141OSM    C7F15393   7.489   3.855   3.193  0.6292  0.1100  0.1785
  141OSM    H7F15394   7.563   3.928   3.154 -0.0559  0.8141  0.1884
  141OSM    H7G15395   7.536   3.759   3.224 -2.4337 -1.3933  0.5546
  141OSM    C8F15396   7.424   3.915   3.324  0.6954 -0.6742  0.3090
  141OSM    H8F15397   7.350   3.845   3.367 -1.2369 -0.1133 -1.9180
  141OSM    H8G15398   7.366   4.005   3.293 -0.5558 -0.8920  1.8947
  141OSM    C9F15399   7.528   3.955   3.427 -0.1839  0.3183  0.8748
  141OSM    H9F15400   7.635   3.938   3.409 -0.0360  0.5182  1.5682
  141OSM   C10F15401   7.493   3.997   3.549  0.6262 -0.0527  0.3174
  141OSM   H10F15402   7.565   4.033   3.624  0.6330 -3.2808  2.0511
  141OSM   C11F15403   7.351   4.023   3.590  0.2535  0.4743  0.2603
  141OSM   H11F15404   7.291   3.932   3.610  0.9904  0.1825  1.2369
  141OSM   H11G15405   7.301   4.076   3.507 -0.0297 -0.9450 -0.4939
  141OSM   C12F15406   7.347   4.094   3.728 -0.1121  0.2105 -0.5942
  141OSM   H12F15407   7.246   4.115   3.770  0.3236 -2.1767  1.8601
  141OSM   H12G15408   7.404   4.189   3.714  0.7286 -0.4287 -1.7264
  141OSM   C13F15409   7.413   4.026   3.854  0.5334 -0.0657 -0.0799
  141OSM   H13F15410   7.517   3.993   3.831  1.4599  2.2511  0.5110
  141OSM   H13G15411   7.358   3.931   3.870 -1.6063  1.0804 -0.3219
  141OSM   C14F15412   7.414   4.115   3.977  0.0623  0.0030 -0.0241
  141OSM   H14F15413   7.315   4.145   4.018  0.6373  0.1338  1.3123
  141OSM   H14G15414   7.464   4.208   3.944  1.4011 -0.8690 -0.5032
  141OSM   C15F15415   7.491   4.051   4.099  0.1017  0.5301 -0.1154
  141OSM   H15F15416   7.575   3.988   4.063  0.8022  1.1006  0.4848
  141OSM   H15G15417   7.424   3.981   4.154 -0.4204  0.1620 -1.1843
  141OSM   C16F15418   7.553   4.157   4.190 -0.5108  0.7483 -0.6096
  141OSM   H16F15419   7.480   4.224   4.240 -1.0188 -0.8767  0.9250
  141OSM   H16G15420   7.617   4.225   4.130 -0.4632  1.0813 -0.1901
  141OSM   C17F15421   7.642   4.115   4.307  0.3396  0.0163  0.4170
  141OSM   H17F15422   7.707   4.030   4.276  0.5533  0.2601  0.1946
  141OSM   H17G15423   7.572   4.077   4.384 -0.0957 -1.8369 -0.8187
  141OSM   C18F15424   7.732   4.224   4.360  0.4737  0.9896 -0.1327
  141OSM   H18F15425   7.673   4.274   4.439  0.1039  1.3349 -0.6219
  141OSM   H18G15426   7.763   4.298   4.283 -0.1284  0.7461 -0.6172
  141OSM   H18H15427   7.819   4.177   4.410 -0.3390 -0.5692 -0.1142
  142OSM      N15428   1.528   0.019   2.061 -0.1709  0.7298 -0.5361
  142OSM    C1515429   1.502   0.159   2.084 -0.1866  0.2363 -0.1092
  142OSM   H15A15430   1.478   0.216   1.995 -0.5247 -0.7167 -0.6531
  142OSM   H15B15431   1.592   0.212   2.111 -0.2181  1.5778 -2.3287
  142OSM   H15C15432   1.424   0.175   2.157  1.2892 -3.0778  2.4456
  142OSM    C1415433   1.621  -0.007   1.944 -0.2435 -0.5931 -0.5582
  142OSM   H14A15434   1.710   0.054   1.952 -0.6464 -0.2512  2.3987
  142OSM   H14B15435   1.570   0.025   1.854  1.6185 -0.4369 -1.6220
  142OSM   H14C15436   1.649  -0.111   1.942  2.2346 -0.0025  0.4243
  142OSM    C1315437   1.598  -0.038   2.179 -0.7602 -0.0632 -0.5390
  142OSM   H13A15438   1.527  -0.031   2.261 -0.7407  1.0355 -0.5981
  142OSM   H13B15439   1.685   0.021   2.202 -1.6123  0.3822  1.9326
  142OSM   H13C15440   1.636  -0.137   2.157  0.3284 -0.0952  1.2699
  142OSM    C1215441   1.399  -0.063   2.028 -0.8608  0.4597  0.4888
  142OSM   H12A15442   1.432  -0.163   2.004  2.2338  1.2340  1.0368
  142OSM   H12B15443   1.356  -0.019   1.939 -1.2396 -0.7306  0.0727
  142OSM    C1115444   1.294  -0.091   2.133  0.0786 -0.3694 -0.4052
  142OSM   H11A15445   1.211  -0.130   2.070  0.0305 -0.0461 -0.5451
  142OSM   H11B15446   1.261   0.008   2.172  0.5168  0.0001 -0.9590
  142OSM      P15447   1.378  -0.333   2.213 -0.1697 -0.3471  0.3332
  142OSM    O1315448   1.253  -0.413   2.218  0.3986  0.8018  0.2343
  142OSM    O1415449   1.462  -0.347   2.092 -0.1491  0.4161 -0.0329
  142OSM    O1115450   1.459  -0.381   2.333 -0.3380  0.7372 -0.0786
  142OSM    O1215451   1.342  -0.176   2.238  0.1224  0.0495  0.2910
  142OSM    C1S15452   1.457  -0.304   2.453  0.5426 -0.5032 -0.2175
  142OSM    H1S15453   1.356  -0.306   2.500  0.8802  0.8369  0.6281
  142OSM    H1T15454   1.487  -0.200   2.427  0.1310 -0.3291 -0.0115
  142OSM     NF15455   1.571  -0.219   2.648  0.1493 -0.1677  0.2781
  142OSM    HNF15456   1.648  -0.160   2.627  0.7980 -0.2179  2.3136
  142OSM    C2S15457   1.558  -0.341   2.562  0.3847 -0.7072  0.4377
  142OSM    H2S15458   1.531  -0.427   2.628  0.5868 -0.3781  0.9511
  142OSM    C3S15459   1.696  -0.383   2.498 -0.4468 -1.0372 -0.0638
  142OSM    H3S15460   1.727  -0.292   2.443 -1.1575 -0.3617  0.6371
  142OSM     O315461   1.683  -0.489   2.406  0.2927  0.0571  0.2800
  142OSM    HO315462   1.587  -0.484   2.396  0.3983  3.1789 -0.4744
  142OSM    C4S15463   1.799  -0.404   2.599  0.0687  0.3054  0.4052
  142OSM    H4S15464   1.852  -0.308   2.611  2.4388 -0.8422 -0.3014
  142OSM    C5S15465   1.837  -0.517   2.655  0.1561 -0.2182  0.4170
  142OSM    H5S15466   1.790  -0.609   2.617 -1.6846  1.3130 -1.3124
  142OSM    C6S15467   1.956  -0.507   2.744 -0.7698  0.0699 -0.2645
  142OSM    H6S15468   2.015  -0.412   2.745  1.7724 -1.3647  2.3583
  142OSM    H6T15469   2.026  -0.585   2.707  0.0814  1.4316 -1.7062
  142OSM    C7S15470   1.906  -0.528   2.884  0.2781  0.0733  0.6811
  142OSM    H7S15471   1.981  -0.538   2.965 -1.7056 -0.8444  2.5392
  142OSM    H7T15472   1.861  -0.630   2.882  0.0432  0.1426 -2.3005
  142OSM    C8S15473   1.803  -0.420   2.947 -0.4152  0.3186 -0.3330
  142OSM    H8S15474   1.733  -0.389   2.867  0.5808  1.7147 -0.7025
  142OSM    H8T15475   1.867  -0.332   2.972  0.7092 -1.2053  2.6621
  142OSM    C9S15476   1.734  -0.461   3.081 -0.1349  0.7061 -0.4480
  142OSM    H9S15477   1.684  -0.560   3.077  1.4278 -0.2597  1.9691
  142OSM    H9T15478   1.655  -0.387   3.109  1.1640  1.4323  1.4772
  142OSM   C10S15479   1.830  -0.480   3.194  0.2804 -0.4894  0.0304
  142OSM   H10S15480   1.888  -0.387   3.213 -0.6981  0.2012 -0.2334
  142OSM   H10T15481   1.902  -0.563   3.175 -0.7808 -0.9784 -2.2382
  142OSM   C11S15482   1.773  -0.515   3.334 -0.0853 -0.0384  0.7375
  142OSM   H11S15483   1.730  -0.617   3.324 -1.1806  0.5792 -1.5212
  142OSM   H11T15484   1.698  -0.444   3.374 -0.4665  1.5433 -2.4754
  142OSM   C12S15485   1.889  -0.534   3.443  0.0948  0.3470 -0.8921
  142OSM   H12S15486   1.965  -0.453   3.437  2.1975 -1.2622  1.6165
  142OSM   H12T15487   1.937  -0.633   3.426 -3.7630 -2.0596  0.8055
  142OSM   C13S15488   1.840  -0.536   3.587  0.1871 -0.2570  0.3047
  142OSM   H13S15489   1.781  -0.630   3.596  1.6043 -0.9918  2.6344
  142OSM   H13T15490   1.779  -0.446   3.613  3.5895  1.7430  1.9715
  142OSM   C14S15491   1.963  -0.526   3.684  0.8316  0.7488 -0.2057
  142OSM   H14S15492   1.993  -0.421   3.665 -1.5258  1.4108 -0.4726
  142OSM   H14T15493   2.029  -0.611   3.654  0.6099  0.3300  0.4674
  142OSM   C15S15494   1.939  -0.528   3.836  0.4984 -0.4222  0.2576
  142OSM   H15S15495   1.901  -0.629   3.864  0.3746 -0.2960  0.5581
  142OSM   H15T15496   1.866  -0.446   3.855  0.3744 -0.1112 -1.4242
  142OSM   C16S15497   2.062  -0.495   3.922  0.1716 -0.2635 -0.0952
  142OSM   H16S15498   2.092  -0.389   3.906 -2.0827  0.2940 -1.0722
  142OSM   H16T15499   2.153  -0.553   3.895 -0.8278 -1.9411  0.0103
  142OSM   C17S15500   2.026  -0.527   4.068  0.2286 -0.8076  0.3747
  142OSM   H17S15501   1.933  -0.470   4.089  1.3378  0.9698  0.7079
  142OSM   H17T15502   2.106  -0.475   4.125 -1.8417  1.4504  1.3805
  142OSM   C18S15503   2.013  -0.672   4.107 -0.4707  0.4608  0.6617
  142OSM   H18S15504   1.985  -0.687   4.214 -1.4746  0.3405  0.3848
  142OSM   H18T15505   2.105  -0.733   4.092  0.6936  2.3992 -0.5539
  142OSM   H18U15506   1.930  -0.710   4.044 -1.5328  0.0517  2.2316
  142OSM    C1F15507   1.483  -0.190   2.751 -0.1569 -0.7587  0.4133
  142OSM     OF15508   1.387  -0.263   2.766  0.1221  0.0923  0.0030
  142OSM    C2F15509   1.518  -0.083   2.842 -0.1743 -0.5469  0.4041
  142OSM    H2F15510   1.526   0.015   2.790 -0.0900 -1.9200 -2.3538
  142OSM    H2G15511   1.621  -0.110   2.873  0.2200 -2.2660 -2.1339
  142OSM    C3F15512   1.431  -0.066   2.968 -0.2254  0.4069  0.0255
  142OSM    H3F15513   1.325  -0.064   2.936  0.5174  3.0154 -2.7721
  142OSM    H3G15514   1.451   0.031   3.019 -0.2289  0.0451  0.7214
  142OSM    C4F15515   1.458  -0.180   3.063 -0.8686  0.6438 -0.1716
  142OSM    H4F15516   1.564  -0.157   3.086 -1.2285  2.2568  0.0307
  142OSM    H4G15517   1.459  -0.281   3.017 -0.6277  1.1630 -1.3492
  142OSM    C5F15518   1.376  -0.172   3.189 -0.5432  0.2148  0.2397
  142OSM    H5F15519   1.271  -0.207   3.172  0.2402 -1.9563 -0.5041
  142OSM    H5G15520   1.379  -0.063   3.211  1.6640 -0.0402  1.4048
  142OSM    C6F15521   1.426  -0.254   3.314  0.0271 -0.1818 -0.0161
  142OSM    H6F15522   1.524  -0.221   3.354  1.4251 -1.8585 -1.8658
  142OSM    H6G15523   1.436  -0.360   3.282 -2.0717 -0.0416 -1.2528
  142OSM    C7F15524   1.327  -0.251   3.436  0.3177  0.4379 -0.1221
  142OSM    H7F15525   1.227  -0.291   3.410  0.4553  0.7805 -1.2219
  142OSM    H7G15526   1.307  -0.145   3.465  1.2357  1.0256 -1.5020
  142OSM    C8F15527   1.377  -0.341   3.552  0.3313  0.6505  0.3482
  142OSM    H8F15528   1.433  -0.421   3.501 -1.5186  0.9507 -2.3537
  142OSM    H8G15529   1.284  -0.376   3.602 -0.7465  2.3261 -0.3806
  142OSM    C9F15530   1.475  -0.269   3.645  0.0747 -0.4715  0.0892
  142OSM    H9F15531   1.505  -0.178   3.591 -1.7657 -0.4198 -0.9445
  142OSM   C10F15532   1.496  -0.283   3.776  0.2279 -0.1877 -0.8236
  142OSM   H10F15533   1.566  -0.213   3.825 -0.1546  1.2066 -2.1990
  142OSM   C11F15534   1.453  -0.403   3.858 -0.0820 -0.0103  0.1244
  142OSM   H11F15535   1.389  -0.471   3.798  1.1925 -1.4314  0.2988
  142OSM   H11G15536   1.384  -0.375   3.941  0.1595  0.7552  0.0703
  142OSM   C12F15537   1.573  -0.487   3.915 -0.9241  0.1622 -0.4407
  142OSM   H12F15538   1.637  -0.431   3.986 -3.0499  0.1684  1.5819
  142OSM   H12G15539   1.634  -0.537   3.837 -0.0187 -0.8771  0.8820
  142OSM   C13F15540   1.519  -0.603   4.014  0.5907  0.2510  0.5298
  142OSM   H13F15541   1.433  -0.657   3.970 -0.0505  1.6605 -0.0269
  142OSM   H13G15542   1.478  -0.551   4.103  0.9090  0.7759  0.3754
  142OSM   C14F15543   1.621  -0.705   4.050 -0.5868  0.2539 -0.4018
  142OSM   H14F15544   1.706  -0.655   4.101 -0.1448 -2.1213  1.3576
  142OSM   H14G15545   1.660  -0.744   3.953 -0.3319  1.1876 -0.6784
  142OSM   C15F15546   1.558  -0.815   4.134  0.0572  0.0244 -0.3824
  142OSM   H15F15547   1.469  -0.866   4.090 -1.1541  0.7287  1.1330
  142OSM   H15G15548   1.520  -0.770   4.229  0.9495  0.6134 -0.3026
  142OSM   C16F15549   1.673  -0.921   4.160  0.1879  0.4786 -0.2287
  142OSM   H16F15550   1.748  -0.858   4.212  3.3770 -1.9198 -1.5735
  142OSM   H16G15551   1.720  -0.968   4.071 -0.0040  0.1151 -0.1411
  142OSM   C17F15552   1.628  -1.041   4.246 -0.7768 -0.2397  0.3780
  142OSM   H17F15553   1.716  -1.096   4.286 -0.0917 -0.5003 -1.4106
  142OSM   H17G15554   1.553  -1.102   4.192  0.6657 -2.4129  0.7012
  142OSM   C18F15555   1.558  -0.996   4.378 -0.3963 -0.5482  0.4386
  142OSM   H18F15556   1.465  -0.944   4.347 -0.8089 -0.6203  1.5149
  142OSM   H18G15557   1.626  -0.932   4.439 -0.9756  1.0925 -0.5544
  142OSM   H18H15558   1.519  -1.086   4.429 -1.5283  0.0366  0.6407
  143OSM      N15559   2.134   4.555   2.150  0.0736  0.2465  0.4194
  143OSM    C1515560   2.006   4.526   2.089 -0.3630  0.0466 -0.0373
  143OSM   H15A15561   2.012   4.488   1.988 -1.4460  1.4746 -0.6778
  143OSM   H15B15562   1.948   4.617   2.093 -0.1512  0.3201 -2.0425
  143OSM   H15C15563   1.947   4.457   2.147 -1.3591  1.0308  0.1567
  143OSM    C1415564   2.208   4.423   2.154  0.1351 -0.6195  0.7514
  143OSM   H14A15565   2.218   4.386   2.053  1.2291 -2.2330  1.4080
  143OSM   H14B15566   2.157   4.353   2.218  0.8793 -2.1202 -0.2530
  143OSM   H14C15567   2.311   4.432   2.185  0.8034 -0.9282 -1.2228
  143OSM    C1315568   2.216   4.658   2.072 -0.4304  0.8799  0.2769
  143OSM   H13A15569   2.167   4.749   2.100 -0.1826  1.3869 -0.8683
  143OSM   H13B15570   2.218   4.629   1.968  3.3392  0.3514  0.3241
  143OSM   H13C15571   2.316   4.661   2.113 -0.5819 -2.4348  1.2247
  143OSM    C1215572   2.119   4.611   2.293 -0.0658 -0.0925 -1.0608
  143OSM   H12A15573   2.214   4.645   2.332 -0.3193 -0.6221  0.0871
  143OSM   H12B15574   2.082   4.525   2.347 -2.6625  0.3925 -1.9361
  143OSM    C1115575   2.003   4.712   2.312 -0.0996  0.8697 -1.1017
  143OSM   H11A15576   1.996   4.744   2.418 -0.7029 -1.5169 -0.3522
  143OSM   H11B15577   1.904   4.665   2.294 -0.2079 -0.1062  1.5156
  143OSM      P15578   2.105   4.941   2.258  0.1503 -0.1381  0.1932
  143OSM    O1315579   2.200   4.916   2.368 -0.0483 -0.3217  0.0462
  143OSM    O1415580   2.160   4.994   2.129 -0.2129 -0.1362  0.1265
  143OSM    O1115581   1.996   5.046   2.317 -0.0123  0.1451 -0.1018
  143OSM    O1215582   2.018   4.816   2.219 -0.1264  0.5598 -0.0091
  143OSM    C1S15583   1.873   4.996   2.374  0.0783 -0.0538  0.1439
  143OSM    H1S15584   1.831   4.896   2.353 -1.7351 -0.0861  3.3293
  143OSM    H1T15585   1.787   5.060   2.346 -1.0933 -1.6998 -0.1699
  143OSM     NF15586   1.754   4.969   2.588  0.0563  0.3549 -0.3457
  143OSM    HNF15587   1.686   5.041   2.592  0.3378  0.5652  1.2621
  143OSM    C2S15588   1.885   5.002   2.531 -0.2073  0.0378  0.4406
  143OSM    H2S15589   1.959   4.927   2.565 -1.1725 -1.1989 -0.0519
  143OSM    C3S15590   1.943   5.138   2.576  0.3906 -0.6335 -0.5514
  143OSM    H3S15591   1.873   5.215   2.538  1.3475 -0.1721 -1.3979
  143OSM     O315592   2.073   5.166   2.527  0.3557  0.3362 -1.2572
  143OSM    HO315593   2.085   5.100   2.458  2.0708  0.1564 -0.8485
  143OSM    C4S15594   1.943   5.154   2.727  0.9347  0.4022  0.8105
  143OSM    H4S15595   1.989   5.076   2.790  1.5834  1.2885  1.4571
  143OSM    C5S15596   1.883   5.251   2.800 -0.1221  0.4406  0.0251
  143OSM    H5S15597   1.832   5.335   2.752  1.0201  0.9796 -0.2936
  143OSM    C6S15598   1.872   5.255   2.952 -0.4012  0.1851 -0.3571
  143OSM    H6S15599   1.927   5.171   2.999  0.0888  0.7780  0.1373
  143OSM    H6T15600   1.763   5.246   2.974 -0.1827 -0.6136  0.4564
  143OSM    C7S15601   1.916   5.379   3.016  0.1703  0.0526  0.2024
  143OSM    H7S15602   1.860   5.470   2.987  0.0871 -0.3146 -0.8451
  143OSM    H7T15603   2.025   5.393   3.000  0.3155 -0.2849  0.8381
  143OSM    C8S15604   1.884   5.366   3.171 -0.2704 -0.3717 -0.2426
  143OSM    H8S15605   1.930   5.269   3.201 -2.2626 -1.0358  0.9094
  143OSM    H8T15606   1.774   5.352   3.181 -0.0640 -0.6662  2.1294
  143OSM    C9S15607   1.919   5.492   3.254  0.4791 -0.0896  0.6469
  143OSM    H9S15608   1.842   5.570   3.236  0.9627  0.1205 -0.6306
  143OSM    H9T15609   2.019   5.531   3.226 -0.4339  3.1896  1.5184
  143OSM   C10S15610   1.928   5.454   3.400  0.0787 -0.0421  0.4687
  143OSM   H10S15611   2.028   5.409   3.414  0.7174 -0.5725 -4.0663
  143OSM   H10T15612   1.847   5.384   3.429  0.6022 -1.6463 -1.6712
  143OSM   C11S15613   1.901   5.577   3.488  0.6514 -0.9136 -0.0220
  143OSM   H11S15614   1.792   5.594   3.492  0.6183 -0.9439 -0.7690
  143OSM   H11T15615   1.947   5.658   3.429 -1.0859  0.4030  0.3611
  143OSM   C12S15616   1.959   5.577   3.629 -0.1845  0.1478 -0.0899
  143OSM   H12S15617   2.069   5.580   3.615  0.0431 -1.7005  1.0010
  143OSM   H12T15618   1.937   5.487   3.691  0.7628 -1.3332 -1.8277
  143OSM   C13S15619   1.914   5.707   3.689 -0.5356 -0.8379 -0.1590
  143OSM   H13S15620   1.815   5.702   3.739 -0.1450  1.1916  0.9361
  143OSM   H13T15621   1.919   5.789   3.614 -2.3179 -0.3223  0.2456
  143OSM   C14S15622   2.011   5.766   3.792 -0.4802  0.7418 -0.3909
  143OSM   H14S15623   1.968   5.860   3.832 -0.1254  0.0640  1.7663
  143OSM   H14T15624   2.106   5.793   3.742 -0.6638  0.2319 -1.0307
  143OSM   C15S15625   2.043   5.684   3.915 -0.3619  0.6079  0.0487
  143OSM   H15S15626   2.129   5.738   3.960  0.9641 -2.2159  1.1056
  143OSM   H15T15627   2.074   5.582   3.885 -1.8476  0.1781 -0.1068
  143OSM   C16S15628   1.936   5.680   4.028  0.2771 -0.0162 -0.1566
  143OSM   H16S15629   1.843   5.648   3.977  0.4496 -0.2096 -0.3527
  143OSM   H16T15630   1.909   5.782   4.062 -1.4220 -0.6123  0.3378
  143OSM   C17S15631   1.966   5.581   4.136 -0.6316  0.1721  0.8084
  143OSM   H17S15632   1.908   5.488   4.121  0.6926 -0.5560  0.0542
  143OSM   H17T15633   1.910   5.628   4.220  0.0470  0.6443  1.0120
  143OSM   C18S15634   2.111   5.552   4.185 -0.6784 -0.7812 -0.2701
  143OSM   H18S15635   2.169   5.492   4.111  0.0187 -1.6058  0.9094
  143OSM   H18T15636   2.116   5.493   4.279  2.8145 -1.1544 -0.5765
  143OSM   H18U15637   2.157   5.653   4.189  0.5473 -1.3556  0.5378
  143OSM    C1F15638   1.708   4.841   2.610  0.0417 -1.0614  0.0193
  143OSM     OF15639   1.767   4.751   2.559 -0.1016  0.1812  0.2534
  143OSM    C2F15640   1.570   4.830   2.676 -0.2805  0.0623  0.4037
  143OSM    H2F15641   1.492   4.811   2.599  0.1899 -3.9441  0.7225
  143OSM    H2G15642   1.545   4.921   2.736  1.2069  1.2549 -0.6882
  143OSM    C3F15643   1.561   4.709   2.772  0.4056  0.3014  0.1335
  143OSM    H3F15644   1.591   4.617   2.717 -1.5544 -1.2331  1.4565
  143OSM    H3G15645   1.452   4.692   2.789  0.2967  0.8310 -0.0083
  143OSM    C4F15646   1.634   4.728   2.906 -0.4990  0.2368  0.6931
  143OSM    H4F15647   1.613   4.831   2.942 -1.6091  0.6892 -1.1705
  143OSM    H4G15648   1.744   4.721   2.889 -0.5875  2.7052 -1.6370
  143OSM    C5F15649   1.593   4.624   3.013 -0.0328 -0.6562  0.3266
  143OSM    H5F15650   1.637   4.528   2.977  1.4387 -0.2279  0.8899
  143OSM    H5G15651   1.482   4.621   3.008 -0.0407  0.6613 -0.6789
  143OSM    C6F15652   1.651   4.656   3.153  0.6402 -0.4401 -0.1297
  143OSM    H6F15653   1.749   4.707   3.147  0.6362 -0.5876 -1.6664
  143OSM    H6G15654   1.667   4.556   3.201  1.1459 -0.7805 -0.9891
  143OSM    C7F15655   1.560   4.737   3.245  0.1828  0.0101 -0.8203
  143OSM    H7F15656   1.609   4.764   3.341 -1.2230  2.2012 -0.6374
  143OSM    H7G15657   1.464   4.685   3.266 -0.3491  1.8447  1.7595
  143OSM    C8F15658   1.510   4.870   3.176  0.3944 -0.0604  0.4580
  143OSM    H8F15659   1.450   4.833   3.090 -0.8427  2.9912 -0.1062
  143OSM    H8G15660   1.609   4.901   3.136 -0.8618  2.9582 -0.5920
  143OSM    C9F15661   1.445   4.975   3.257 -0.2500 -0.4365  0.5440
  143OSM    H9F15662   1.336   4.963   3.260 -0.6762  2.5367 -0.1958
  143OSM   C10F15663   1.501   5.090   3.310  0.9620  0.1914  0.5336
  143OSM   H10F15664   1.432   5.164   3.353 -0.1749  0.0491 -0.9533
  143OSM   C11F15665   1.645   5.133   3.305  0.5859 -0.1999 -0.2287
  143OSM   H11F15666   1.660   5.243   3.306 -0.6530 -0.0149  1.2390
  143OSM   H11G15667   1.685   5.094   3.209 -2.6632  1.5159 -2.4590
  143OSM   C12F15668   1.737   5.072   3.410  0.3531  0.4390  0.1435
  143OSM   H12F15669   1.842   5.079   3.377  0.5849 -2.2333  0.0963
  143OSM   H12G15670   1.712   4.964   3.401  0.9520  0.4364 -1.8212
  143OSM   C13F15671   1.711   5.121   3.545 -0.3512 -0.2913 -0.0139
  143OSM   H13F15672   1.604   5.110   3.571  0.5752 -0.9780  4.5170
  143OSM   H13G15673   1.727   5.231   3.549  0.0892 -0.3014 -1.1682
  143OSM   C14F15674   1.796   5.045   3.649 -0.2571  0.0445  0.7800
  143OSM   H14F15675   1.895   5.035   3.600 -0.1102  0.7258  0.9302
  143OSM   H14G15676   1.743   4.947   3.655  2.2806 -1.3565  2.0292
  143OSM   C15F15677   1.804   5.100   3.790 -0.0936 -0.6110 -0.2446
  143OSM   H15F15678   1.704   5.100   3.838 -0.0911  0.0474 -0.2389
  143OSM   H15G15679   1.849   5.201   3.800  2.7566 -1.6976 -0.8785
  143OSM   C16F15680   1.901   5.024   3.881 -0.0285  0.1401  0.1400
  143OSM   H16F15681   2.000   5.023   3.830  0.4495 -2.3995  0.9746
  143OSM   H16G15682   1.877   4.916   3.887 -0.1016  0.1914  0.8478
  143OSM   C17F15683   1.925   5.092   4.023  0.5449  0.2005 -0.0501
  143OSM   H17F15684   1.957   5.197   4.010 -0.2243  0.7278  1.9097
  143OSM   H17G15685   2.013   5.042   4.068 -0.4751 -0.2128  1.5712
  143OSM   C18F15686   1.800   5.089   4.113 -1.0732  0.1688 -0.3085
  143OSM   H18F15687   1.727   5.168   4.087 -1.5137 -0.5720 -1.4221
  143OSM   H18G15688   1.832   5.110   4.217 -0.3739  0.7327 -0.6245
  143OSM   H18H15689   1.741   4.996   4.100 -1.4247  0.4548 -0.8254
  144OSM      N15690   6.334   6.274   1.992 -0.0164  0.0841  0.2322
  144OSM    C1515691   6.272   6.183   1.897  0.0262 -0.4611  1.1210
  144OSM   H15A15692   6.321   6.087   1.895 -1.0704 -1.0274  0.2498
  144OSM   H15B15693   6.268   6.230   1.800  0.8547 -0.6604  0.9784
  144OSM   H15C15694   6.171   6.163   1.929 -0.2610 -0.5429  0.2006
  144OSM    C1415695   6.479   6.289   1.952 -0.8341  0.0878 -0.0170
  144OSM   H14A15696   6.529   6.345   2.030 -2.3083  2.1218 -0.4696
  144OSM   H14B15697   6.496   6.330   1.854  0.1490 -0.3977 -0.0611
  144OSM   H14C15698   6.520   6.189   1.961  2.1496  1.3401  1.7635
  144OSM    C1315699   6.259   6.397   1.991  0.5650  0.2198 -0.1202
  144OSM   H13A15700   6.168   6.395   2.048  1.9940  0.3927  2.3248
  144OSM   H13B15701   6.246   6.424   1.887  0.7649 -0.5877 -0.3607
  144OSM   H13C15702   6.309   6.481   2.037 -0.3231  0.7930 -0.1878
  144OSM    C1215703   6.331   6.216   2.135  0.1397  0.1035 -0.3114
  144OSM   H12A15704   6.230   6.233   2.167 -0.3935  2.4073 -2.8757
  144OSM   H12B15705   6.392   6.277   2.199  0.3142 -0.7350  0.3463
  144OSM    C1115706   6.369   6.065   2.140 -0.3107 -0.4963 -0.9680
  144OSM   H11A15707   6.296   5.999   2.089  0.2266 -1.7000 -0.2424
  144OSM   H11B15708   6.361   6.047   2.250  0.2467  0.0239 -0.8393
  144OSM      P15709   6.556   5.900   2.063 -0.1604  0.0756  0.0219
  144OSM    O1315710   6.520   5.875   1.918 -0.0830  0.1125 -0.1220
  144OSM    O1415711   6.698   5.888   2.103 -0.0106 -0.0958 -0.6799
  144OSM    O1115712   6.475   5.802   2.161  0.7567  0.2385 -0.3235
  144OSM    O1215713   6.502   6.040   2.095  0.1558  0.1073  0.6504
  144OSM    C1S15714   6.522   5.801   2.296 -0.4304 -0.0650 -0.8498
  144OSM    H1S15715   6.528   5.905   2.333  0.3955  0.0538 -1.2904
  144OSM    H1T15716   6.616   5.741   2.297 -0.1326  0.3501  1.5439
  144OSM     NF15717   6.493   5.705   2.524  0.4361 -0.2792  0.2907
  144OSM    HNF15718   6.525   5.611   2.534 -2.4410 -1.1569  2.2177
  144OSM    C2S15719   6.428   5.730   2.397  0.2730  0.2054  0.1046
  144OSM    H2S15720   6.346   5.803   2.412 -0.1310 -0.1381 -0.3751
  144OSM    C3S15721   6.348   5.611   2.332 -0.1892 -0.0826 -0.9119
  144OSM    H3S15722   6.422   5.532   2.307  2.4466  0.9816  2.6549
  144OSM     O315723   6.280   5.639   2.215  0.3862  0.2592 -0.1857
  144OSM    HO315724   6.326   5.711   2.173 -0.0843 -0.5933 -2.3054
  144OSM    C4S15725   6.253   5.563   2.436  0.0500  0.6966 -0.5995
  144OSM    H4S15726   6.153   5.609   2.440  0.0608  0.6338  0.9453
  144OSM    C5S15727   6.275   5.467   2.525 -0.1090 -0.2752  1.1303
  144OSM    H5S15728   6.379   5.432   2.528 -0.2363 -0.7879 -0.0374
  144OSM    C6S15729   6.166   5.423   2.618 -0.1461  0.0956  0.6550
  144OSM    H6S15730   6.191   5.322   2.659  0.5793  0.0439  0.1174
  144OSM    H6T15731   6.070   5.407   2.566  0.1293  1.6170 -0.3800
  144OSM    C7S15732   6.146   5.511   2.751  0.2881  0.0643  0.3692
  144OSM    H7S15733   6.041   5.495   2.786  0.0648  1.2587  0.3165
  144OSM    H7T15734   6.154   5.621   2.733  0.0117  0.1084  0.5047
  144OSM    C8S15735   6.241   5.469   2.858 -0.6246  0.7722  0.4597
  144OSM    H8S15736   6.343   5.472   2.813  0.0428 -0.7493  1.7713
  144OSM    H8T15737   6.222   5.371   2.905  1.6290 -0.1172 -0.3621
  144OSM    C9S15738   6.240   5.570   2.967  0.1633 -0.0607  0.1855
  144OSM    H9S15739   6.138   5.598   3.002  0.9469  0.2730  2.4151
  144OSM    H9T15740   6.300   5.657   2.933  3.0465 -1.9959 -0.0293
  144OSM   C10S15741   6.337   5.514   3.081 -0.7777 -0.6849 -0.1879
  144OSM   H10S15742   6.436   5.496   3.033 -1.2702 -4.0615 -0.1544
  144OSM   H10T15743   6.311   5.424   3.140  0.8480 -0.7925  0.4099
  144OSM   C11S15744   6.370   5.626   3.177  0.5498 -0.0598 -0.0923
  144OSM   H11S15745   6.263   5.649   3.198 -0.1249 -1.9202 -1.2768
  144OSM   H11T15746   6.421   5.714   3.132  0.8755  0.6762  1.6422
  144OSM   C12S15747   6.438   5.570   3.302  0.5411 -0.0332 -0.2570
  144OSM   H12S15748   6.544   5.550   3.276  0.0204 -1.0224 -1.7346
  144OSM   H12T15749   6.401   5.471   3.337  1.5225 -0.5334 -0.6182
  144OSM   C13S15750   6.441   5.680   3.415  0.1832 -0.1491 -0.0544
  144OSM   H13S15751   6.334   5.705   3.435 -0.7159 -1.5536 -2.6011
  144OSM   H13T15752   6.499   5.770   3.384 -0.9342  0.7674  0.4254
  144OSM   C14S15753   6.502   5.631   3.546 -0.0564  0.2969 -0.2004
  144OSM   H14S15754   6.609   5.602   3.536  0.1742 -0.2402  2.7855
  144OSM   H14T15755   6.448   5.540   3.579  1.6122 -0.4102  0.7623
  144OSM   C15S15756   6.483   5.723   3.669 -0.1682  0.2810  0.4459
  144OSM   H15S15757   6.375   5.749   3.672 -0.0712  0.8360 -0.4270
  144OSM   H15T15758   6.542   5.817   3.661  0.3992  0.1952  2.8963
  144OSM   C16S15759   6.503   5.650   3.803  0.5379 -0.4842 -0.3168
  144OSM   H16S15760   6.598   5.597   3.820  0.7101 -0.1430 -0.2007
  144OSM   H16T15761   6.429   5.567   3.801  1.0160 -0.9308  0.1465
  144OSM   C17S15762   6.470   5.737   3.928 -0.0251 -0.0698 -0.6248
  144OSM   H17S15763   6.365   5.774   3.925 -1.1258 -2.7282  0.9474
  144OSM   H17T15764   6.540   5.823   3.925 -1.6244  1.2902 -0.7254
  144OSM   C18S15765   6.486   5.657   4.064 -0.0168  0.2949  0.2973
  144OSM   H18S15766   6.418   5.570   4.075  1.7598 -1.3730 -1.1392
  144OSM   H18T15767   6.464   5.719   4.153 -2.1739 -1.0743  0.7914
  144OSM   H18U15768   6.593   5.628   4.075  0.0138  0.9217  1.8444
  144OSM    C1F15769   6.530   5.800   2.607  0.2495 -0.4227 -1.3830
  144OSM     OF15770   6.524   5.922   2.583 -0.6523  0.2125 -0.0239
  144OSM    C2F15771   6.595   5.749   2.740  0.1327 -0.2533 -0.1399
  144OSM    H2F15772   6.701   5.732   2.715 -0.6208 -1.0295 -3.3115
  144OSM    H2G15773   6.553   5.647   2.757 -0.6154 -0.0644 -0.8068
  144OSM    C3F15774   6.571   5.854   2.848  0.8259  0.0938  0.4296
  144OSM    H3F15775   6.473   5.832   2.895  1.1086  0.6444  1.3074
  144OSM    H3G15776   6.575   5.955   2.803 -1.2327 -0.7035 -1.7212
  144OSM    C4F15777   6.671   5.854   2.959  0.1527 -0.2357  0.3483
  144OSM    H4F15778   6.769   5.891   2.921 -0.5006  1.8378  0.5229
  144OSM    H4G15779   6.687   5.752   3.000 -0.8813 -1.4877 -2.1552
  144OSM    C5F15780   6.626   5.948   3.070  0.1525  0.8775 -0.0333
  144OSM    H5F15781   6.527   5.915   3.108  0.3656  3.4797  3.2810
  144OSM    H5G15782   6.607   6.054   3.042 -2.0627  0.9126  1.3106
  144OSM    C6F15783   6.716   5.954   3.191 -0.7064 -0.3639 -1.2346
  144OSM    H6F15784   6.805   6.015   3.164 -0.9384  1.2538  1.3042
  144OSM    H6G15785   6.752   5.853   3.220  0.3643 -0.1113 -1.6316
  144OSM    C7F15786   6.633   6.015   3.312 -0.0873  0.9585  0.0660
  144OSM    H7F15787   6.532   5.968   3.309  0.3470  0.0442 -0.8821
  144OSM    H7G15788   6.628   6.122   3.283  2.2300  1.1340  0.1811
  144OSM    C8F15789   6.707   6.016   3.444 -0.4588 -0.6544 -0.6865
  144OSM    H8F15790   6.709   5.912   3.484  3.0117 -0.1700  0.7942
  144OSM    H8G15791   6.653   6.077   3.519  1.8969  1.0298 -0.2378
  144OSM    C9F15792   6.852   6.060   3.446  0.3903  0.8489  0.5766
  144OSM    H9F15793   6.903   6.052   3.349 -0.5520 -0.3827  0.1555
  144OSM   C10F15794   6.913   6.112   3.552 -0.4886  0.2525  1.0104
  144OSM   H10F15795   7.019   6.139   3.539 -0.6394 -0.5221 -4.3870
  144OSM   C11F15796   6.853   6.126   3.685 -0.1347 -0.4361 -1.0295
  144OSM   H11F15797   6.825   6.027   3.728  0.4870  0.0553  0.5694
  144OSM   H11G15798   6.773   6.202   3.671  1.0733  0.9850 -0.4907
  144OSM   C12F15799   6.968   6.167   3.788 -0.0805  0.0153  0.3098
  144OSM   H12F15800   7.020   6.258   3.754  0.2635 -0.5043 -0.5697
  144OSM   H12G15801   7.049   6.091   3.789  0.0360  0.1144 -0.9902
  144OSM   C13F15802   6.913   6.178   3.934 -0.1739 -1.2465  0.2559
  144OSM   H13F15803   6.868   6.078   3.953  1.0084 -2.0275 -0.8970
  144OSM   H13G15804   6.831   6.253   3.941 -0.1793 -1.2014 -0.2281
  144OSM   C14F15805   7.033   6.208   4.021  0.0905  0.5766  0.4067
  144OSM   H14F15806   7.118   6.160   3.969 -0.7283 -0.4708 -0.0146
  144OSM   H14G15807   7.021   6.163   4.122  4.3189 -0.2808  0.6937
  144OSM   C15F15808   7.067   6.358   4.032  0.8048 -0.4457 -0.0470
  144OSM   H15F15809   6.972   6.397   4.075 -0.5022 -0.5374 -2.6543
  144OSM   H15G15810   7.076   6.394   3.927 -1.3426  2.3964  0.6328
  144OSM   C16F15811   7.185   6.386   4.123  0.8338 -0.0306  0.5656
  144OSM   H16F15812   7.273   6.360   4.060 -0.5078 -1.4077 -0.8233
  144OSM   H16G15813   7.184   6.311   4.205  2.1230 -0.4918  0.1918
  144OSM   C17F15814   7.206   6.529   4.170 -0.0351  0.0639  0.1703
  144OSM   H17F15815   7.306   6.515   4.216  0.3416  0.7864 -0.4031
  144OSM   H17G15816   7.129   6.547   4.247  0.0820  0.6194  0.1614
  144OSM   C18F15817   7.200   6.630   4.060  0.1112 -0.3236  0.2372
  144OSM   H18F15818   7.214   6.733   4.098  1.7737 -0.8223  1.0657
  144OSM   H18G15819   7.104   6.624   4.004  1.3839  0.5177 -2.1569
  144OSM   H18H15820   7.281   6.608   3.987 -0.1770 -1.2088  0.1769
  145SAPE     N15821   0.967   0.814   6.299  0.5958 -0.7020 -0.3617
  145SAPE   HN115822   0.893   0.756   6.255 -1.2968  0.0690  1.6094
  145SAPE   HN215823   0.922   0.883   6.363  0.3959  0.1051 -1.3514
  145SAPE   HN315824   0.991   0.881   6.223 -0.0684  1.0536  0.8939
  145SAPE   C1215825   1.090   0.737   6.346  0.0689  1.0862 -0.4717
  145SAPE  H12A15826   1.159   0.802   6.404  1.1995 -0.2983 -0.1979
  145SAPE  H12B15827   1.145   0.710   6.253  0.3831 -0.9887  0.2674
  145SAPE   C1115828   1.057   0.616   6.435  0.6215 -0.1859  0.0194
  145SAPE  H11A15829   1.026   0.525   6.378  1.2692 -1.6803  1.9282
  145SAPE  H11B15830   0.963   0.646   6.487  0.6399 -1.7921  1.0599
  145SAPE     P15831   1.289   0.510   6.495  0.0273 -0.1453  0.0460
  145SAPE   O1315832   1.406   0.597   6.491 -0.0419  0.1186 -0.3801
  145SAPE   O1415833   1.305   0.403   6.590 -0.0074 -0.2469  0.3307
  145SAPE   O1215834   1.155   0.586   6.531 -0.5294 -0.8200 -0.4874
  145SAPE   O1115835   1.261   0.451   6.351  0.3271 -0.5157 -0.4639
  145SAPE    C115836   1.316   0.323   6.306  0.3248 -0.2814 -0.1641
  145SAPE    HA15837   1.411   0.300   6.358  0.9127 -0.3688 -1.2493
  145SAPE    HB15838   1.244   0.241   6.330 -1.5975  1.5284  0.6082
  145SAPE    C215839   1.334   0.319   6.158  0.2285  0.2702  0.9309
  145SAPE    HS15840   1.430   0.368   6.130 -0.5758  0.0040 -2.7407
  145SAPE   O2115841   1.222   0.378   6.083 -0.2196  0.1678 -0.3634
  145SAPE   C2115842   1.238   0.504   6.050  0.4119  0.4241 -0.0086
  145SAPE   O2215843   1.339   0.573   6.070  0.2861 -0.2784 -0.8651
  145SAPE   C2215844   1.113   0.576   5.994 -0.7919  0.7173 -0.2614
  145SAPE   H2R15845   1.033   0.559   6.069  0.3468 -0.1698  0.7857
  145SAPE   H2S15846   1.125   0.687   5.987 -2.1200  0.8874 -0.2436
  145SAPE    C315847   1.348   0.166   6.115  0.0976  0.4540  0.1681
  145SAPE    HX15848   1.265   0.114   6.167  0.3236  0.2321  0.3063
  145SAPE    HY15849   1.443   0.131   6.159  0.3382 -0.3960 -0.9818
  145SAPE   O3115850   1.328   0.137   5.975 -0.0953  0.4256 -0.3974
  145SAPE   C3115851   1.423   0.185   5.893  0.3087 -0.5576  0.2435
  145SAPE   O3215852   1.519   0.252   5.929 -0.3081 -0.0627  0.7974
  145SAPE   C3215853   1.388   0.153   5.742 -0.1333  0.5029 -0.0446
  145SAPE   H2X15854   1.295   0.092   5.738 -0.5084  0.9919  0.8277
  145SAPE   H2Y15855   1.468   0.086   5.703 -1.2848  0.6517 -2.9200
  145SAPE   C2315856   1.069   0.526   5.851  0.0407  0.8630  0.1000
  145SAPE   H3R15857   1.051   0.416   5.853  0.8028  0.7444  0.9381
  145SAPE   H3S15858   1.153   0.543   5.780  0.3801  2.3741  0.8394
  145SAPE   C2415859   0.936   0.589   5.811 -0.0295  0.5918  0.4453
  145SAPE   H4R15860   0.858   0.544   5.876  0.9958 -1.7830  0.1301
  145SAPE   H4S15861   0.911   0.540   5.715 -3.1769 -0.2330  1.5666
  145SAPE   C2515862   0.919   0.739   5.816  1.0194  0.0458 -0.1076
  145SAPE   H5R15863   0.946   0.796   5.906  0.6265 -0.6262  0.4438
  145SAPE   C2615864   0.863   0.805   5.720  0.1641 -0.8771  0.1828
  145SAPE   H6R15865   0.850   0.912   5.738 -0.3722 -0.1230 -3.7613
  145SAPE   C2715866   0.812   0.768   5.579  0.3248  0.3086 -0.3679
  145SAPE   H7R15867   0.761   0.857   5.536  0.6737  1.8045  2.1250
  145SAPE   H7S15868   0.723   0.707   5.603  0.9535  0.8656  4.1775
  145SAPE   C2815869   0.913   0.707   5.482  0.6942 -0.5211  0.0104
  145SAPE   H8R15870   1.020   0.723   5.504  1.0952 -1.4050 -1.2160
  145SAPE   C2915871   0.884   0.615   5.390 -0.0963 -0.3894  0.2670
  145SAPE   H9R15872   0.964   0.581   5.322 -1.1559  1.4653 -2.0645
  145SAPE  C21015873   0.743   0.563   5.356 -0.2529 -0.0815 -0.3151
  145SAPE  H10R15874   0.675   0.643   5.321  2.7549  2.6473 -0.3336
  145SAPE  H10S15875   0.691   0.527   5.447  0.7860 -0.0595  0.3052
  145SAPE  C21115876   0.742   0.454   5.261 -0.1401 -0.4566 -0.0268
  145SAPE  H11R15877   0.823   0.381   5.275 -1.3389 -1.8492 -0.0019
  145SAPE  C21215878   0.639   0.429   5.174 -0.6544  0.4860 -1.0633
  145SAPE  H12R15879   0.647   0.352   5.096 -0.7677 -0.6035 -0.0207
  145SAPE  C21315880   0.513   0.501   5.182  0.8864  0.7201 -0.5744
  145SAPE  H13R15881   0.523   0.590   5.116 -1.8528  2.0771  0.6607
  145SAPE  H13S15882   0.488   0.539   5.283  1.0996  0.9974 -0.6245
  145SAPE  C21415883   0.404   0.405   5.137 -0.3891  0.2858 -1.2276
  145SAPE  H14R15884   0.395   0.323   5.210  1.6188 -0.8241 -2.1396
  145SAPE  C21515885   0.323   0.417   5.029 -0.3308  0.4644  0.7830
  145SAPE  H15R15886   0.250   0.337   5.014 -0.8060  1.2340 -1.4475
  145SAPE  C21615887   0.316   0.537   4.937  0.7661  0.2414 -0.0992
  145SAPE  H16R15888   0.332   0.504   4.832  0.4124  2.6765 -0.9989
  145SAPE  H16S15889   0.395   0.611   4.964  0.8021  0.5647 -1.0632
  145SAPE  C21715890   0.174   0.603   4.951  0.1644  0.5631  0.1209
  145SAPE  H17R15891   0.174   0.699   4.895  1.8346  0.1141 -0.6929
  145SAPE  H17S15892   0.151   0.617   5.058  1.2101  1.7642  0.2158
  145SAPE  C21815893   0.067   0.508   4.885  0.2687  0.3980 -0.7695
  145SAPE  H18R15894   0.074   0.405   4.926  2.4858  0.0855 -1.7796
  145SAPE  H18S15895   0.096   0.490   4.779  1.1665 -0.3627 -0.4174
  145SAPE  C21915896  -0.075   0.573   4.880  0.3665 -0.2729 -0.4467
  145SAPE  H19R15897  -0.068   0.677   4.843 -0.6451 -0.6264 -1.6960
  145SAPE  H19S15898  -0.106   0.584   4.986  2.9117 -0.8790  0.4328
  145SAPE  C22015899  -0.184   0.502   4.791  0.0276  0.2981 -0.1646
  145SAPE  H20R15900  -0.156   0.492   4.684 -1.4608  0.2072 -0.5710
  145SAPE  H20S15901  -0.281   0.557   4.795 -0.6791 -0.9786  0.5526
  145SAPE  H20T15902  -0.205   0.402   4.833 -2.9473  1.3708  1.1978
  145SAPE   C3315903   1.404   0.271   5.649  0.1246 -0.2407  0.1234
  145SAPE   H3X15904   1.515   0.277   5.652  0.3644 -0.8289 -3.1030
  145SAPE   H3Y15905   1.371   0.365   5.698 -0.8608 -1.5755  2.1651
  145SAPE   C3415906   1.360   0.251   5.503  0.6237  0.0184 -0.6160
  145SAPE   H4X15907   1.410   0.166   5.450 -0.2931 -1.7776  1.2557
  145SAPE   H4Y15908   1.400   0.341   5.452  2.7122 -0.5909 -0.1700
  145SAPE   C3515909   1.209   0.241   5.465 -1.0068 -0.0077  0.1279
  145SAPE   H5X15910   1.152   0.297   5.543 -2.0890  0.3866 -0.9176
  145SAPE   H5Y15911   1.166   0.138   5.468 -0.9122 -0.2807 -3.7336
  145SAPE   C3615912   1.167   0.314   5.336  0.4420  0.7423  0.1878
  145SAPE   H6X15913   1.174   0.425   5.343 -0.3368  1.0216 -2.4829
  145SAPE   H6Y15914   1.057   0.303   5.326  0.6707 -0.9848 -0.8212
  145SAPE   C3715915   1.230   0.258   5.208  0.3914 -0.5213 -0.3848
  145SAPE   H7X15916   1.219   0.148   5.213  0.6623 -0.5061  0.9864
  145SAPE   H7Y15917   1.335   0.294   5.203  0.4984 -0.7249  0.2804
  145SAPE   C3815918   1.155   0.309   5.084  0.5165 -0.1740 -0.7119
  145SAPE   H8X15919   1.230   0.280   5.009 -0.1425 -0.3857 -1.2970
  145SAPE   H8Y15920   1.137   0.419   5.082  0.8410 -0.0740  0.5843
  145SAPE   C3915921   1.026   0.235   5.063 -0.3854 -0.2255 -0.2781
  145SAPE   H9X15922   0.951   0.238   5.145  0.6203 -3.9998  0.9670
  145SAPE   H9Y15923   1.035   0.125   5.052 -1.0438 -0.6788  2.8362
  145SAPE  C31015924   0.980   0.279   4.925 -0.2093  0.4696  0.1820
  145SAPE  H10X15925   1.062   0.259   4.853 -1.5571  0.6428 -1.4741
  145SAPE  H10Y15926   0.949   0.385   4.937 -0.3725  0.5105 -0.5704
  145SAPE  C31115927   0.853   0.190   4.877  0.0691  0.0911 -0.7323
  145SAPE  H11X15928   0.773   0.184   4.953  0.4626  0.0764 -0.3159
  145SAPE  H11Y15929   0.908   0.094   4.869 -0.8169 -0.5885  0.8478
  145SAPE  C31215930   0.792   0.239   4.744  0.1681 -0.4459 -0.6891
  145SAPE  H12X15931   0.728   0.163   4.694 -1.5281  1.1565 -1.0668
  145SAPE  H12Y15932   0.878   0.264   4.678 -0.9841  2.3847 -1.2614
  145SAPE  C31315933   0.726   0.374   4.761  0.3932  0.4553 -0.5552
  145SAPE  H13X15934   0.794   0.444   4.813 -1.1173  2.2099 -0.8327
  145SAPE  H13Y15935   0.630   0.361   4.815  0.6269 -0.1746 -0.2793
  145SAPE  C31415936   0.687   0.433   4.625  0.3473 -0.1374  0.5286
  145SAPE  H14X15937   0.626   0.356   4.571  0.9522  1.5703 -2.9051
  145SAPE  H14Y15938   0.766   0.459   4.551 -1.0329 -0.0271 -0.9604
  145SAPE  C31515939   0.603   0.557   4.643 -0.1483 -0.0895 -0.9378
  145SAPE  H15X15940   0.521   0.535   4.715 -0.4506 -1.4799 -1.6747
  145SAPE  H15Y15941   0.549   0.588   4.551 -0.8898 -0.8469 -0.7691
  145SAPE  C31615942   0.671   0.685   4.707  0.0747 -0.4805  0.4147
  145SAPE  H16X15943   0.745   0.725   4.635 -1.4495  1.2745 -0.2752
  145SAPE  H16Y15944   0.723   0.658   4.801 -1.3533 -0.3951  1.2617
  145SAPE  C31715945   0.563   0.790   4.728  0.0511  0.0436 -0.0898
  145SAPE  H17X15946   0.482   0.761   4.798  0.7056 -0.3619  0.5189
  145SAPE  H17Y15947   0.517   0.804   4.628 -2.8146 -0.5940  1.0512
  145SAPE  C31815948   0.613   0.933   4.762  1.1693 -0.3116  0.3676
  145SAPE  H18X15949   0.522   0.996   4.756  0.6652 -1.1720 -1.9214
  145SAPE  H18Y15950   0.682   0.963   4.680 -2.0219 -0.0947 -2.4412
  145SAPE  H18Z15951   0.654   0.927   4.865 -0.1609 -4.0230  0.8402
  146SAPE     N15952   2.689   0.352   6.775  0.0115  0.0659 -0.0236
  146SAPE   HN115953   2.709   0.311   6.682 -0.4614 -1.4381  0.5107
  146SAPE   HN215954   2.588   0.361   6.797  0.2303  2.3080  0.3160
  146SAPE   HN315955   2.727   0.449   6.768  1.5054 -0.1520  3.1085
  146SAPE   C1215956   2.756   0.303   6.898 -0.2740  0.2664 -0.8442
  146SAPE  H12A15957   2.751   0.192   6.905  0.5615  0.3578  2.6816
  146SAPE  H12B15958   2.710   0.349   6.987  1.7199 -0.1058  0.4440
  146SAPE   C1115959   2.915   0.316   6.892  0.9307  0.0118  0.1893
  146SAPE  H11A15960   2.950   0.256   6.979  0.4864  0.2450  0.5389
  146SAPE  H11B15961   2.938   0.424   6.908  0.9962 -0.0088  0.2343
  146SAPE     P15962   3.114   0.259   6.730 -0.2338 -0.2004 -0.2156
  146SAPE   O1315963   3.153   0.394   6.685 -0.3210  0.9658  0.8378
  146SAPE   O1415964   3.188   0.205   6.849  0.8032 -0.0722 -0.0768
  146SAPE   O1215965   2.963   0.271   6.760  0.2653  0.2952 -0.4051
  146SAPE   O1115966   3.127   0.154   6.609 -0.1634  0.3568  0.0312
  146SAPE    C115967   3.010   0.064   6.588 -0.5122  0.1963  0.0790
  146SAPE    HA15968   3.010  -0.024   6.655 -4.0728 -1.1165 -1.4247
  146SAPE    HB15969   2.911   0.113   6.601 -1.3241 -1.5820  0.8405
  146SAPE    C215970   3.013   0.014   6.439 -0.1043  0.0808  0.3958
  146SAPE    HS15971   2.909   0.005   6.402  0.0551  0.6478 -0.2167
  146SAPE   O2115972   3.079  -0.117   6.418  0.0434 -0.8138  0.3848
  146SAPE   C2115973   3.026  -0.223   6.475  0.5021  0.5089 -0.5168
  146SAPE   O2215974   2.913  -0.222   6.525 -1.0414 -0.0562 -0.0148
  146SAPE   C2215975   3.103  -0.351   6.465 -0.1858 -0.2161 -0.1126
  146SAPE   H2R15976   3.195  -0.323   6.410 -0.7798  0.4208 -0.8084
  146SAPE   H2S15977   3.137  -0.392   6.562 -1.2176 -2.0171 -0.4725
  146SAPE    C315978   3.083   0.112   6.350  0.3423 -0.0430 -0.4932
  146SAPE    HX15979   3.185   0.121   6.392 -0.3752  0.2953  1.2328
  146SAPE    HY15980   3.033   0.212   6.354  0.0506 -0.1861 -0.5225
  146SAPE   O3115981   3.080   0.060   6.216  0.3979  0.2314  0.1521
  146SAPE   C3115982   3.134   0.120   6.119 -0.0105 -0.8709  0.3009
  146SAPE   O3215983   3.210   0.213   6.133 -0.6099  0.2263  0.1028
  146SAPE   C3215984   3.099   0.053   5.984  0.2847  0.6090 -0.2124
  146SAPE   H2X15985   2.989   0.047   5.969  0.3354  0.3178 -0.4843
  146SAPE   H2Y15986   3.139  -0.051   5.989  1.6621  1.0530 -1.2697
  146SAPE   C2315987   3.022  -0.457   6.395  0.6247  0.0070  0.2832
  146SAPE   H3R15988   2.922  -0.481   6.435  0.0921 -0.2902 -1.1581
  146SAPE   H3S15989   3.089  -0.544   6.408  1.1320  0.1465 -1.1668
  146SAPE   C2415990   2.998  -0.422   6.243  0.1632 -0.7011 -0.2847
  146SAPE   H4R15991   3.098  -0.388   6.209 -0.2387  2.1558  1.0732
  146SAPE   H4S15992   2.926  -0.337   6.235  0.1238 -0.7787 -0.7911
  146SAPE   C2515993   2.959  -0.541   6.163  0.0671  0.3113  0.5070
  146SAPE   H5R15994   2.886  -0.611   6.207 -1.7024  2.3036  0.8693
  146SAPE   C2615995   3.002  -0.566   6.034 -0.1240 -0.0012 -0.6153
  146SAPE   H6R15996   2.968  -0.655   5.978 -0.5326  1.5064 -2.9150
  146SAPE   C2715997   3.079  -0.477   5.943  0.8801  0.7981  0.1817
  146SAPE   H7R15998   3.103  -0.375   5.980 -0.0758  1.3690 -0.7237
  146SAPE   H7S15999   3.011  -0.454   5.858  0.6517  0.1889  0.2010
  146SAPE   C2816000   3.207  -0.539   5.889 -0.1029  0.3658 -0.2130
  146SAPE   H8R16001   3.262  -0.586   5.972 -2.1159  0.5036  1.2770
  146SAPE   C2916002   3.257  -0.565   5.761  0.4150  0.0521 -0.1770
  146SAPE   H9R16003   3.340  -0.634   5.741 -0.7043 -1.5197  0.4318
  146SAPE  C21016004   3.195  -0.515   5.634  0.1844 -0.2785 -0.3359
  146SAPE  H10R16005   3.269  -0.529   5.552  0.6127  0.4470 -0.0791
  146SAPE  H10S16006   3.182  -0.406   5.653 -0.4597  0.0269 -2.3538
  146SAPE  C21116007   3.063  -0.570   5.598  0.7162 -0.0435  0.1017
  146SAPE  H11R16008   3.019  -0.630   5.679  0.9163  0.6192  0.7016
  146SAPE  C21216009   3.017  -0.592   5.476 -0.3678  0.2300 -0.2740
  146SAPE  H12R16010   2.924  -0.649   5.464 -0.2024 -0.1514  0.1962
  146SAPE  C21316011   3.075  -0.536   5.347  0.4567  0.7888  0.6939
  146SAPE  H13R16012   3.160  -0.466   5.360  0.5096  0.6498  1.1088
  146SAPE  H13S16013   2.997  -0.474   5.297  1.3947  1.6612  0.2838
  146SAPE  C21416014   3.106  -0.647   5.249  0.0560  0.2288 -0.4377
  146SAPE  H14R16015   3.025  -0.721   5.241  1.8266 -2.1411  1.6806
  146SAPE  C21516016   3.220  -0.670   5.182  0.0847 -0.5897  0.1744
  146SAPE  H15R16017   3.220  -0.756   5.113 -3.8237  0.9168 -2.0323
  146SAPE  C21616018   3.334  -0.575   5.169  0.8284  0.1065  0.1063
  146SAPE  H16R16019   3.396  -0.581   5.261  0.7140 -1.9820  0.0923
  146SAPE  H16S16020   3.291  -0.472   5.164 -0.6802 -0.5046 -0.0775
  146SAPE  C21716021   3.413  -0.592   5.036  0.3347  0.1321  0.2474
  146SAPE  H17R16022   3.450  -0.697   5.033 -1.6216 -0.6013 -1.3550
  146SAPE  H17S16023   3.496  -0.521   5.019 -0.1608  0.5883 -0.3407
  146SAPE  C21816024   3.331  -0.579   4.905  0.3784 -0.3861  0.4747
  146SAPE  H18R16025   3.280  -0.482   4.893  0.5257 -0.4793 -1.1619
  146SAPE  H18S16026   3.247  -0.648   4.925  0.9020 -0.9938  0.6392
  146SAPE  C21916027   3.403  -0.620   4.770 -0.2667  0.1849 -0.4392
  146SAPE  H19R16028   3.506  -0.580   4.761  0.2476 -0.6286  1.2536
  146SAPE  H19S16029   3.343  -0.574   4.689 -0.0022  1.3597  0.0212
  146SAPE  C22016030   3.393  -0.774   4.742 -0.1258 -0.2944  0.0103
  146SAPE  H20R16031   3.288  -0.799   4.714 -0.3206  0.9375 -0.4448
  146SAPE  H20S16032   3.393  -0.837   4.834 -0.5218  0.5593  0.6131
  146SAPE  H20T16033   3.451  -0.813   4.656  0.0509  2.5826 -1.2784
  146SAPE   C3316034   3.179   0.121   5.868 -0.9000  0.1979  0.2811
  146SAPE   H3X16035   3.288   0.104   5.884 -0.5239 -0.1574 -2.2318
  146SAPE   H3Y16036   3.162   0.230   5.863  2.2223  0.7525 -0.7991
  146SAPE   C3416037   3.125   0.075   5.738 -0.6511 -0.1809  0.1767
  146SAPE   H4X16038   3.018   0.104   5.735 -0.4509  0.7376  1.0645
  146SAPE   H4Y16039   3.135  -0.035   5.733  0.1821 -0.1594  0.9622
  146SAPE   C3516040   3.203   0.142   5.622  0.4067 -0.0654 -0.5026
  146SAPE   H5X16041   3.196   0.074   5.535 -1.5810  1.0498 -1.2751
  146SAPE   H5Y16042   3.313   0.145   5.636  0.2609  1.3313  0.6425
  146SAPE   C3616043   3.147   0.283   5.589  0.7960  0.2771  0.0702
  146SAPE   H6X16044   3.186   0.358   5.660 -1.5738  0.3782  1.3625
  146SAPE   H6Y16045   3.037   0.301   5.595  0.8851  0.5029  1.0848
  146SAPE   C3716046   3.188   0.329   5.447  0.4914 -0.2481 -0.2474
  146SAPE   H7X16047   3.174   0.439   5.449  2.6914  0.0734  0.8487
  146SAPE   H7Y16048   3.111   0.286   5.380 -1.3748 -1.5085  2.5001
  146SAPE   C3816049   3.326   0.295   5.399 -0.1155  1.0560 -0.1014
  146SAPE   H8X16050   3.343   0.185   5.400 -1.5014  0.8255  0.2205
  146SAPE   H8Y16051   3.392   0.338   5.478  0.7322 -2.6145  1.4226
  146SAPE   C3916052   3.358   0.351   5.263  0.0079  0.1307  0.3628
  146SAPE   H9X16053   3.468   0.353   5.247 -0.3104  0.1306 -2.4088
  146SAPE   H9Y16054   3.296   0.444   5.260 -1.0735 -0.5617  0.6909
  146SAPE  C31016055   3.309   0.268   5.155 -0.3030 -0.3541  0.4444
  146SAPE  H10X16056   3.200   0.282   5.141  0.0259 -0.2103 -2.6310
  146SAPE  H10Y16057   3.325   0.159   5.169 -0.4934 -0.1815  2.1791
  146SAPE  C31116058   3.360   0.314   5.009 -0.2521  0.0706  0.0839
  146SAPE  H11X16059   3.470   0.326   5.020 -0.5095  1.0854  1.8915
  146SAPE  H11Y16060   3.319   0.415   4.984 -0.8894 -0.0830  0.4927
  146SAPE  C31216061   3.310   0.212   4.911 -0.1281  0.5842  0.0222
  146SAPE  H12X16062   3.200   0.209   4.918 -0.3883  2.3997 -2.2116
  146SAPE  H12Y16063   3.351   0.118   4.954 -0.9116  0.7780  1.2474
  146SAPE  C31316064   3.336   0.241   4.765  0.3195  0.2110 -0.3469
  146SAPE  H13X16065   3.443   0.224   4.743 -0.2052 -2.8220 -1.1275
  146SAPE  H13Y16066   3.313   0.348   4.748  1.1744  1.0801  3.1711
  146SAPE  C31416067   3.258   0.154   4.668  0.3499 -0.8761 -0.5286
  146SAPE  H14X16068   3.263   0.189   4.563  3.3112 -2.4413 -1.0210
  146SAPE  H14Y16069   3.152   0.161   4.703  0.6257 -0.4855  0.2549
  146SAPE  C31516070   3.312   0.011   4.666  0.4481  0.1636  0.7257
  146SAPE  H15X16071   3.350  -0.030   4.762 -0.5012 -1.8835  0.2759
  146SAPE  H15Y16072   3.393   0.004   4.590 -0.0984  5.0621 -0.6589
  146SAPE  C31616073   3.200  -0.085   4.629  0.0955  0.3027  0.3474
  146SAPE  H16X16074   3.179  -0.086   4.520 -0.8267 -1.3520  0.4989
  146SAPE  H16Y16075   3.111  -0.065   4.693 -0.0022 -0.9271  0.6165
  146SAPE  C31716076   3.260  -0.215   4.665 -0.3910 -0.4982  0.2021
  146SAPE  H17X16077   3.270  -0.223   4.776 -0.5713 -2.1910  0.1239
  146SAPE  H17Y16078   3.352  -0.227   4.603 -0.5180  2.8346 -0.8203
  146SAPE  C31816079   3.165  -0.325   4.626  0.5568 -0.5875 -0.1349
  146SAPE  H18X16080   3.177  -0.344   4.517 -1.4509 -0.5988 -0.3949
  146SAPE  H18Y16081   3.057  -0.308   4.642  0.7789 -0.2162  1.0645
  146SAPE  H18Z16082   3.188  -0.418   4.683 -3.1884 -0.5982  1.6206
  147SAPE     N16083   5.301   4.345   6.599 -0.0774  0.4416 -0.3501
  147SAPE   HN116084   5.310   4.415   6.676  0.5835 -0.6563  0.6019
  147SAPE   HN216085   5.306   4.396   6.509  2.0072 -0.2765 -0.7034
  147SAPE   HN316086   5.207   4.301   6.605  1.1171 -2.1787  1.1982
  147SAPE   C1216087   5.387   4.222   6.600 -0.5103  0.3385 -0.3283
  147SAPE  H12A16088   5.379   4.187   6.704 -2.5653  1.9860  0.1321
  147SAPE  H12B16089   5.493   4.257   6.603  0.9102 -3.5505  2.6781
  147SAPE   C1116090   5.354   4.117   6.496  0.3967  0.2459  0.2467
  147SAPE  H11A16091   5.443   4.051   6.484  0.3474  0.2506 -0.1467
  147SAPE  H11B16092   5.327   4.157   6.397  2.5855  0.2116 -0.4198
  147SAPE     P16093   5.102   4.059   6.529  0.6230 -0.1270 -0.0096
  147SAPE   O1316094   5.035   3.937   6.587 -0.1820  0.6283 -0.3977
  147SAPE   O1416095   5.066   4.194   6.586  0.9162 -1.1843  0.0722
  147SAPE   O1216096   5.249   4.035   6.552  0.0513 -0.2236  0.6026
  147SAPE   O1116097   5.094   4.071   6.367 -0.4178 -0.1085  0.4620
  147SAPE    C116098   5.003   3.982   6.296  0.1578  0.1588 -0.5133
  147SAPE    HA16099   4.966   3.898   6.358  1.1387 -0.4087 -0.6801
  147SAPE    HB16100   4.917   4.043   6.260 -0.8341 -1.2367 -0.5594
  147SAPE    C216101   5.066   3.928   6.166 -0.7879 -0.2952  0.1782
  147SAPE    HS16102   5.148   3.860   6.199 -0.3128  0.2854  0.2021
  147SAPE   O2116103   5.121   4.041   6.093 -0.2301 -0.1570 -0.3131
  147SAPE   C2116104   5.241   4.063   6.088  0.1258 -0.2354 -0.4604
  147SAPE   O2216105   5.334   3.999   6.140  0.0035  0.0169 -0.3636
  147SAPE   C2216106   5.269   4.180   5.996 -0.0545  0.4733 -0.8411
  147SAPE   H2R16107   5.226   4.273   6.039 -0.0428 -0.6598  1.8099
  147SAPE   H2S16108   5.376   4.208   5.979 -0.5243  2.3162 -1.0226
  147SAPE    C316109   4.971   3.858   6.075  0.2914 -0.6056 -0.3791
  147SAPE    HX16110   4.906   3.936   6.030 -0.4025 -1.0325 -0.1263
  147SAPE    HY16111   4.908   3.791   6.136  0.8278  1.1622  2.2890
  147SAPE   O3116112   5.041   3.786   5.972 -0.4081 -0.5663 -0.2335
  147SAPE   C3116113   4.957   3.711   5.889  0.4428 -0.7793  0.2518
  147SAPE   O3216114   4.838   3.717   5.893  0.1774 -0.2355  0.2042
  147SAPE   C3216115   5.036   3.629   5.790 -0.4941  0.3261  0.2549
  147SAPE   H2X16116   5.045   3.527   5.834  1.8829  0.4936  0.3109
  147SAPE   H2Y16117   5.137   3.674   5.780 -0.6684  1.4304  2.6358
  147SAPE   C2316118   5.218   4.151   5.854 -0.6872  0.1308 -0.1609
  147SAPE   H3R16119   5.109   4.137   5.842 -0.3531 -2.3673 -0.8556
  147SAPE   H3S16120   5.269   4.056   5.826 -0.4725  0.3723 -0.5993
  147SAPE   C2416121   5.273   4.256   5.748 -1.1346  0.5208 -0.1812
  147SAPE   H4R16122   5.382   4.262   5.768 -1.1626 -0.8629  0.5505
  147SAPE   H4S16123   5.235   4.355   5.779 -1.4298  0.2765  0.2531
  147SAPE   C2516124   5.246   4.212   5.614  0.2852  0.4267  0.4403
  147SAPE   H5R16125   5.296   4.119   5.584  1.7825  1.0071  1.0713
  147SAPE   C2616126   5.155   4.266   5.528 -0.4690  0.1695 -0.5699
  147SAPE   H6R16127   5.147   4.223   5.427  2.0311 -0.7798 -0.4230
  147SAPE   C2716128   5.078   4.398   5.537 -0.2056 -0.2411  0.1571
  147SAPE   H7R16129   5.064   4.427   5.643  0.8354 -1.5271  0.6690
  147SAPE   H7S16130   4.980   4.371   5.491 -0.6500  1.3923  0.0985
  147SAPE   C2816131   5.155   4.498   5.458 -0.3763 -0.0885  0.1591
  147SAPE   H8R16132   5.230   4.550   5.518  2.5567 -3.1617 -0.5975
  147SAPE   C2916133   5.141   4.525   5.327  0.3061 -0.3868 -0.5947
  147SAPE   H9R16134   5.220   4.586   5.282  0.6386  0.2273  0.7785
  147SAPE  C21016135   5.038   4.465   5.237  0.0780 -0.4833 -0.1111
  147SAPE  H10R16136   4.958   4.539   5.218 -0.5724 -0.3979  2.5783
  147SAPE  H10S16137   4.998   4.377   5.293  1.8713 -0.3197  1.5654
  147SAPE  C21116138   5.090   4.401   5.112  0.5914 -0.3141 -0.0560
  147SAPE  H11R16139   5.164   4.323   5.132  0.5759 -0.0920  0.8946
  147SAPE  C21216140   5.031   4.409   4.995  0.2361  0.0186  0.4893
  147SAPE  H12R16141   5.073   4.348   4.914 -0.5144  0.5652 -0.3235
  147SAPE  C21316142   4.909   4.487   4.955 -0.5346  0.1864 -0.9190
  147SAPE  H13R16143   4.921   4.597   4.964  0.8929 -0.1076  1.7381
  147SAPE  H13S16144   4.833   4.467   5.033 -2.2466  0.9661 -2.3161
  147SAPE  C21416145   4.852   4.450   4.824  0.3129  0.1362  0.2060
  147SAPE  H14R16146   4.763   4.385   4.831 -0.4946  1.3709  2.6908
  147SAPE  C21516147   4.890   4.489   4.702  0.1743 -0.7676 -0.0677
  147SAPE  H15R16148   4.829   4.452   4.619 -0.2076 -1.9447  0.7118
  147SAPE  C21616149   5.005   4.578   4.679  0.4885  0.2413  0.1468
  147SAPE  H16R16150   5.086   4.515   4.635 -0.2142 -0.0388 -0.7706
  147SAPE  H16S16151   5.039   4.622   4.775  0.3190  1.2984 -0.2652
  147SAPE  C21716152   4.977   4.692   4.584 -0.1053 -0.2607  0.6150
  147SAPE  H17R16153   4.932   4.667   4.486 -1.9765  0.9962  1.0927
  147SAPE  H17S16154   5.068   4.750   4.558 -0.8625  1.7044  2.0262
  147SAPE  C21816155   4.891   4.800   4.654  0.7421 -0.7505 -0.1250
  147SAPE  H18R16156   4.949   4.844   4.738 -2.0685  2.1574  0.5074
  147SAPE  H18S16157   4.783   4.776   4.665 -0.6142  3.6022 -1.8281
  147SAPE  C21916158   4.885   4.925   4.563 -0.1907  0.5068 -0.3475
  147SAPE  H19R16159   4.993   4.941   4.538 -0.0500 -1.3851 -1.0744
  147SAPE  H19S16160   4.845   5.014   4.616 -0.6712  1.4466 -2.1973
  147SAPE  C22016161   4.787   4.908   4.447 -0.2937  0.3013 -0.4123
  147SAPE  H20R16162   4.684   4.884   4.481  0.3792 -0.4010  1.2346
  147SAPE  H20S16163   4.841   4.832   4.386 -2.2524 -1.1517 -0.4347
  147SAPE  H20T16164   4.774   5.002   4.390  0.7239  1.4575  1.2073
  147SAPE   C3316165   4.974   3.625   5.646  0.3236 -0.0166 -0.3931
  147SAPE   H3X16166   5.050   3.581   5.578  0.5150 -1.7176  0.8594
  147SAPE   H3Y16167   4.959   3.730   5.612 -0.0167  0.0219 -0.1239
  147SAPE   C3416168   4.856   3.534   5.624  0.0941  0.1789 -0.8510
  147SAPE   H4X16169   4.779   3.552   5.703 -0.8750 -2.1548 -1.1865
  147SAPE   H4Y16170   4.887   3.433   5.655  0.2752  0.5401  0.1999
  147SAPE   C3516171   4.795   3.543   5.489 -0.1544 -0.2476  0.1467
  147SAPE   H5X16172   4.765   3.646   5.461  1.1755  0.1510  0.1571
  147SAPE   H5Y16173   4.704   3.479   5.483  0.4376 -1.1584  0.6281
  147SAPE   C3616174   4.882   3.493   5.378 -0.3487  0.0789 -0.2678
  147SAPE   H6X16175   4.928   3.393   5.398 -0.0623  0.2927  0.1778
  147SAPE   H6Y16176   4.962   3.569   5.363  0.6119 -0.4334  1.7781
  147SAPE   C3716177   4.808   3.472   5.240 -0.2058 -0.0370 -0.7697
  147SAPE   H7X16178   4.749   3.563   5.216  1.9488  1.0732 -2.1195
  147SAPE   H7Y16179   4.737   3.387   5.250  1.2780 -1.1170  1.2887
  147SAPE   C3816180   4.901   3.435   5.129  0.2632  0.4382  0.4701
  147SAPE   H8X16181   4.947   3.337   5.158  0.2431  0.3527  0.2170
  147SAPE   H8Y16182   4.986   3.507   5.128  0.6345  0.0142  0.9026
  147SAPE   C3916183   4.840   3.408   4.997 -0.1132 -0.5956  0.2146
  147SAPE   H9X16184   4.781   3.495   4.961  2.3975  1.0587 -0.1231
  147SAPE   H9Y16185   4.762   3.329   5.006 -1.0646  0.3146  0.1541
  147SAPE  C31016186   4.943   3.357   4.902 -0.5530  0.2426 -0.4389
  147SAPE  H10X16187   4.901   3.293   4.821  1.3452 -0.0999 -1.2206
  147SAPE  H10Y16188   5.016   3.286   4.949 -0.3505  0.9077  0.2792
  147SAPE  C31116189   5.017   3.469   4.838  0.0803  0.0473  0.2638
  147SAPE  H11X16190   5.098   3.514   4.899  0.1759 -0.1824  0.3108
  147SAPE  H11Y16191   4.952   3.556   4.815  0.8628 -0.4008 -4.8838
  147SAPE  C31216192   5.073   3.433   4.697  0.3246  0.2645 -0.0785
  147SAPE  H12X16193   4.986   3.389   4.644 -0.0199 -0.5221  1.1023
  147SAPE  H12Y16194   5.144   3.348   4.701 -0.7833 -0.6437  1.2475
  147SAPE  C31316195   5.135   3.558   4.633 -0.7981  0.5261  0.0402
  147SAPE  H13X16196   5.204   3.594   4.713 -0.6540 -0.9594  0.6160
  147SAPE  H13Y16197   5.063   3.636   4.599 -1.1967 -0.4831 -1.5547
  147SAPE  C31416198   5.224   3.524   4.510 -0.0126  0.5400 -0.7054
  147SAPE  H14X16199   5.151   3.500   4.429 -1.0782  2.4933 -0.3849
  147SAPE  H14Y16200   5.280   3.430   4.530  0.4922  0.7345 -1.1669
  147SAPE  C31516201   5.310   3.642   4.460 -0.2814 -0.6517  0.5064
  147SAPE  H15X16202   5.258   3.737   4.484  0.6360  0.0370 -0.1596
  147SAPE  H15Y16203   5.330   3.640   4.351 -1.2004 -0.5898  0.3300
  147SAPE  C31616204   5.450   3.631   4.524 -0.5180  0.1315  0.0375
  147SAPE  H16X16205   5.498   3.541   4.479  1.1426 -0.0102  1.9744
  147SAPE  H16Y16206   5.457   3.591   4.627 -1.1802  1.9326  0.8076
  147SAPE  C31716207   5.541   3.755   4.506 -0.1945  0.9463  0.6185
  147SAPE  H17X16208   5.637   3.733   4.557  1.4346  1.6873 -1.9013
  147SAPE  H17Y16209   5.500   3.850   4.546  1.6174  1.8226  0.5099
  147SAPE  C31816210   5.566   3.770   4.355 -0.0273  0.3968 -1.0275
  147SAPE  H18X16211   5.582   3.667   4.315 -0.3277 -0.4303  0.8397
  147SAPE  H18Y16212   5.657   3.833   4.348  1.3463 -1.2805  0.4521
  147SAPE  H18Z16213   5.488   3.820   4.295 -0.5293  0.4066 -0.3722
  148SAPE     N16214   1.922   6.371   6.661  0.0854 -0.2937 -0.4484
  148SAPE   HN116215   1.916   6.290   6.725  2.9868 -0.3587 -0.1115
  148SAPE   HN216216   2.023   6.387   6.640  0.7138 -0.3866  2.1854
  148SAPE   HN316217   1.888   6.456   6.710  0.5444 -0.7001  0.6072
  148SAPE   C1216218   1.838   6.371   6.535  0.4418 -0.2933 -0.6351
  148SAPE  H12A16219   1.856   6.272   6.488 -0.1927 -1.1939  0.9505
  148SAPE  H12B16220   1.887   6.456   6.483  1.2074 -1.0779 -1.2301
  148SAPE   C1116221   1.686   6.386   6.559 -0.4382  0.1394 -0.3220
  148SAPE  H11A16222   1.648   6.365   6.457 -0.5035 -2.4138  0.1626
  148SAPE  H11B16223   1.659   6.489   6.592  2.8656  1.5117 -1.5047
  148SAPE     P16224   1.481   6.264   6.632 -0.4601  0.2333 -0.0532
  148SAPE   O1316225   1.448   6.140   6.705  0.1099 -0.2407  0.1355
  148SAPE   O1416226   1.412   6.394   6.660 -0.6402  0.4046  0.4359
  148SAPE   O1216227   1.637   6.287   6.650 -0.5895  0.1845 -0.2490
  148SAPE   O1116228   1.466   6.239   6.476 -0.2105  0.3478  0.1676
  148SAPE    C116229   1.496   6.110   6.422  0.2810 -0.4269 -0.4976
  148SAPE    HA16230   1.604   6.096   6.444 -0.1893 -2.3925  0.8519
  148SAPE    HB16231   1.434   6.032   6.469  0.5528  0.4224  1.3654
  148SAPE    C216232   1.471   6.104   6.271 -0.7986 -0.0201  0.0250
  148SAPE    HS16233   1.535   6.022   6.232  1.5301  1.6528  0.1265
  148SAPE   O2116234   1.512   6.225   6.203 -0.0875  0.2440 -0.7017
  148SAPE   C2116235   1.637   6.252   6.203 -1.1635  0.0117  0.1965
  148SAPE   O2216236   1.731   6.178   6.238 -0.1523  0.1146 -0.3460
  148SAPE   C2216237   1.656   6.398   6.146  0.1750 -0.3567  0.0123
  148SAPE   H2R16238   1.597   6.469   6.208  2.2822  0.9396  0.6150
  148SAPE   H2S16239   1.763   6.426   6.141  0.3618 -0.8987  0.8522
  148SAPE    C316240   1.329   6.069   6.232  0.4434 -0.0511 -1.0447
  148SAPE    HX16241   1.265   6.146   6.280  0.4616  0.5063 -1.8933
  148SAPE    HY16242   1.317   5.974   6.288  0.8964  0.5625  0.1177
  148SAPE   O3116243   1.302   6.051   6.090 -0.0712  0.1814  0.2118
  148SAPE   C3116244   1.254   6.166   6.029 -0.1434  0.6077 -0.8201
  148SAPE   O3216245   1.234   6.270   6.086 -0.1481 -0.1915  0.0611
  148SAPE   C3216246   1.230   6.138   5.879  0.1905  0.1812 -0.1323
  148SAPE   H2X16247   1.176   6.041   5.884  2.8984 -1.4036  1.2464
  148SAPE   H2Y16248   1.334   6.120   5.844 -0.7834 -2.0983 -2.1625
  148SAPE   C2316249   1.585   6.410   6.010  0.3881  0.2645  0.2719
  148SAPE   H3R16250   1.572   6.519   5.990 -0.0860  0.2550  0.4985
  148SAPE   H3S16251   1.485   6.361   6.019  0.3431  0.2842 -0.1100
  148SAPE   C2416252   1.662   6.350   5.895 -0.5736  0.6010  0.4647
  148SAPE   H4R16253   1.767   6.387   5.904 -0.2532 -0.3569  0.8256
  148SAPE   H4S16254   1.628   6.395   5.799 -0.0792  0.5056  0.2375
  148SAPE   C2516255   1.674   6.194   5.879  0.2189  0.3773 -0.5054
  148SAPE   H5R16256   1.674   6.133   5.971 -1.9919 -0.1256 -0.7966
  148SAPE   C2616257   1.673   6.116   5.770  0.0068  0.1625  0.2697
  148SAPE   H6R16258   1.697   6.008   5.774 -0.1416  0.1409  0.5928
  148SAPE   C2716259   1.667   6.181   5.634  0.1057 -0.1802  0.1841
  148SAPE   H7R16260   1.770   6.208   5.604  0.9384 -1.6666  1.5211
  148SAPE   H7S16261   1.599   6.269   5.629 -1.0917 -1.1180 -1.1027
  148SAPE   C2816262   1.604   6.079   5.539 -0.7958 -0.8367  0.0154
  148SAPE   H8R16263   1.505   6.049   5.577 -1.1549  0.6858  0.3254
  148SAPE   C2916264   1.653   6.032   5.423  0.2883  0.2245  0.0154
  148SAPE   H9R16265   1.599   5.961   5.358  2.2869  0.2409 -1.7821
  148SAPE  C21016266   1.773   6.068   5.350 -0.2614  0.2705  1.0932
  148SAPE  H10R16267   1.847   6.098   5.427 -0.5996  2.7517  0.5297
  148SAPE  H10S16268   1.749   6.156   5.287  0.5139 -2.5102 -3.6288
  148SAPE  C21116269   1.829   5.966   5.257  0.4879 -0.7994 -0.0777
  148SAPE  H11R16270   1.919   5.918   5.298  2.0826  3.2513  1.6435
  148SAPE  C21216271   1.776   5.936   5.137 -0.3041  1.0407  0.2760
  148SAPE  H12R16272   1.822   5.851   5.084  0.6344  1.1352  0.9314
  148SAPE  C21316273   1.663   6.005   5.058  0.6692 -0.1196 -0.3363
  148SAPE  H13R16274   1.724   6.059   4.983  1.8418 -1.6247 -0.5229
  148SAPE  H13S16275   1.616   6.089   5.113  2.8044  1.3668 -0.6401
  148SAPE  C21416276   1.562   5.900   5.010  0.3797 -0.2165  0.2601
  148SAPE  H14R16277   1.593   5.795   5.016  1.0999  0.0485  1.6084
  148SAPE  C21516278   1.443   5.925   4.957  0.1595 -0.3478  0.0058
  148SAPE  H15R16279   1.373   5.844   4.933 -2.1176  2.3747 -3.7686
  148SAPE  C21616280   1.392   6.064   4.940 -0.1454 -0.1568  0.3021
  148SAPE  H16R16281   1.469   6.138   4.970  0.1386  0.3492 -1.5921
  148SAPE  H16S16282   1.298   6.077   4.999 -0.2983 -2.1640  0.5575
  148SAPE  C21716283   1.354   6.097   4.792  0.7554 -0.1018 -0.2028
  148SAPE  H17R16284   1.275   6.029   4.752  0.6806 -0.4480  0.5038
  148SAPE  H17S16285   1.452   6.089   4.740 -0.3970 -0.5148 -2.4304
  148SAPE  C21816286   1.306   6.242   4.780 -0.1212  0.0636  0.2419
  148SAPE  H18R16287   1.368   6.295   4.855 -0.9978  0.2318  0.8634
  148SAPE  H18S16288   1.198   6.253   4.802 -0.5022 -0.6085 -1.1270
  148SAPE  C21916289   1.334   6.312   4.651  0.2776 -0.1523  0.5080
  148SAPE  H19R16290   1.268   6.264   4.575 -0.9387  4.1170 -1.4289
  148SAPE  H19S16291   1.441   6.301   4.625  0.2977  1.7206 -0.4089
  148SAPE  C22016292   1.303   6.466   4.646 -0.0718  0.5642  0.2427
  148SAPE  H20R16293   1.198   6.465   4.682 -0.7631 -2.1535 -1.5952
  148SAPE  H20S16294   1.318   6.500   4.541 -0.7140  3.7106  1.0791
  148SAPE  H20T16295   1.380   6.521   4.704  1.3207  0.7061 -1.6655
  148SAPE   C3316296   1.172   6.260   5.798  0.0502  0.1437 -0.1762
  148SAPE   H3X16297   1.222   6.355   5.826  0.0888  0.3506 -0.9245
  148SAPE   H3Y16298   1.065   6.266   5.825 -0.0115 -2.4616  0.4545
  148SAPE   C3416299   1.201   6.242   5.644  0.4862  0.0297  0.0352
  148SAPE   H4X16300   1.311   6.254   5.631  0.5821 -0.9737 -0.2286
  148SAPE   H4Y16301   1.165   6.312   5.566  0.4172  1.1762  1.0843
  148SAPE   C3516302   1.143   6.107   5.594  0.0617  0.9451  0.1234
  148SAPE   H5X16303   1.035   6.101   5.621  0.0652  1.2194  0.1939
  148SAPE   H5Y16304   1.197   6.025   5.646 -0.4040  0.5322 -0.0266
  148SAPE   C3616305   1.162   6.077   5.449  0.4774 -0.2124 -0.0204
  148SAPE   H6X16306   1.178   5.969   5.428  2.2565 -0.3977  1.8568
  148SAPE   H6Y16307   1.260   6.119   5.419  0.7549 -0.9798 -0.2150
  148SAPE   C3716308   1.052   6.131   5.357 -0.2829  0.7746 -0.0576
  148SAPE   H7X16309   1.018   6.236   5.368 -0.2270  0.7635  0.2267
  148SAPE   H7Y16310   0.960   6.072   5.378  0.0809 -0.3064 -1.3227
  148SAPE   C3816311   1.088   6.114   5.209 -0.3207 -0.7895  0.4438
  148SAPE   H8X16312   1.182   6.056   5.200 -0.4289 -0.6563 -3.3760
  148SAPE   H8Y16313   1.118   6.217   5.179  0.5271 -1.1614 -0.0118
  148SAPE   C3916314   0.974   6.065   5.119  0.1398 -0.1606 -0.2025
  148SAPE   H9X16315   0.977   6.117   5.021 -1.3214  1.6131  0.6246
  148SAPE   H9Y16316   0.878   6.111   5.149  0.4437  0.4440 -0.1244
  148SAPE  C31016317   0.952   5.907   5.101  0.1982 -0.1427  0.2979
  148SAPE  H10X16318   0.922   5.869   5.201 -0.0499  0.0190  0.2865
  148SAPE  H10Y16319   1.051   5.862   5.080 -0.6574 -0.7750 -3.0024
  148SAPE  C31116320   0.850   5.863   5.000 -0.3071 -0.9438 -0.4758
  148SAPE  H11X16321   0.828   5.755   5.006 -0.4999 -0.8105  1.9755
  148SAPE  H11Y16322   0.892   5.873   4.897 -0.0720  0.4459 -0.2723
  148SAPE  C31216323   0.726   5.947   4.996  0.3097 -0.0906 -0.2855
  148SAPE  H12X16324   0.746   6.057   4.991  2.0984 -0.4120 -0.8353
  148SAPE  H12Y16325   0.670   5.939   5.091  0.7249 -1.5203 -0.1406
  148SAPE  C31316326   0.629   5.903   4.884  0.2744  0.3660  0.1166
  148SAPE  H13X16327   0.683   5.916   4.787 -1.1715  0.4798 -0.7053
  148SAPE  H13Y16328   0.548   5.978   4.882  0.6085  0.7236 -1.7397
  148SAPE  C31416329   0.573   5.764   4.887 -0.4937  0.5366 -0.3269
  148SAPE  H14X16330   0.510   5.766   4.979 -0.2712  0.8935 -0.1820
  148SAPE  H14Y16331   0.648   5.683   4.905 -0.6309  0.8071  1.6343
  148SAPE  C31516332   0.488   5.716   4.766  0.3817  0.3492 -0.3339
  148SAPE  H15X16333   0.407   5.791   4.757  2.1630  2.7440  2.1114
  148SAPE  H15Y16334   0.455   5.614   4.796  0.1214  0.9172  1.4511
  148SAPE  C31616335   0.571   5.690   4.637  0.4252  0.3500  0.2091
  148SAPE  H16X16336   0.670   5.652   4.669 -0.3348 -1.6457  0.2964
  148SAPE  H16Y16337   0.581   5.792   4.595 -1.4241  0.9552  1.1113
  148SAPE  C31716338   0.503   5.584   4.537 -0.2938  0.3399 -0.5345
  148SAPE  H17X16339   0.496   5.490   4.596 -0.1417  0.1035 -0.8885
  148SAPE  H17Y16340   0.563   5.569   4.444 -1.7590  0.3397 -1.5181
  148SAPE  C31816341   0.365   5.623   4.490 -0.4826 -0.5821 -0.5166
  148SAPE  H18X16342   0.295   5.648   4.572 -0.4657  2.3894 -1.3094
  148SAPE  H18Y16343   0.320   5.538   4.435 -1.5429 -2.4577  2.9557
  148SAPE  H18Z16344   0.370   5.709   4.420  0.1625 -1.0704 -1.0832
  149SAPE     N16345   1.612   1.590   6.806 -0.1308  0.0819 -0.0641
  149SAPE   HN116346   1.526   1.638   6.774 -0.6871 -0.0689  1.1365
  149SAPE   HN216347   1.630   1.615   6.905  1.6732  0.2062 -0.3907
  149SAPE   HN316348   1.694   1.606   6.743 -0.1346 -0.1478 -0.1270
  149SAPE   C1216349   1.555   1.454   6.798 -0.3511  0.6989 -0.0959
  149SAPE  H12A16350   1.504   1.431   6.894  0.1627 -1.7262 -0.3446
  149SAPE  H12B16351   1.648   1.395   6.784 -0.2066  0.3245  2.1618
  149SAPE   C1116352   1.465   1.425   6.681  0.3024  0.0745  0.2107
  149SAPE  H11A16353   1.455   1.317   6.655  2.5156 -0.0569 -0.3057
  149SAPE  H11B16354   1.501   1.475   6.588 -1.9816  0.9754 -0.2424
  149SAPE     P16355   1.293   1.624   6.659 -0.2039 -0.4648 -0.0965
  149SAPE   O1316356   1.163   1.658   6.715 -0.5998  0.1560 -0.2976
  149SAPE   O1416357   1.400   1.721   6.688 -0.5263 -0.0668  0.1632
  149SAPE   O1216358   1.334   1.485   6.709  0.2968  0.6360 -0.0249
  149SAPE   O1116359   1.279   1.593   6.503 -0.1083 -0.4929  0.1192
  149SAPE    C116360   1.210   1.475   6.458 -0.7016 -0.4145  1.2813
  149SAPE    HA16361   1.280   1.389   6.464  2.0596  1.4529 -0.9488
  149SAPE    HB16362   1.117   1.463   6.517 -0.7921  0.2341  1.2754
  149SAPE    C216363   1.159   1.487   6.308  0.4031 -0.0077  0.4310
  149SAPE    HS16364   1.098   1.398   6.281 -0.6027  0.1895  1.9408
  149SAPE   O2116365   1.263   1.502   6.214 -0.0294 -0.3545  0.1066
  149SAPE   C2116366   1.347   1.400   6.207 -0.0474  0.0875 -0.0866
  149SAPE   O2216367   1.324   1.286   6.243  0.3573  0.0928 -0.1812
  149SAPE   C2216368   1.462   1.447   6.112 -0.0863  0.8601  0.7637
  149SAPE   H2R16369   1.408   1.478   6.020  0.6590 -0.6872 -0.2328
  149SAPE   H2S16370   1.526   1.530   6.151  0.3503  2.1582 -2.4088
  149SAPE    C316371   1.064   1.618   6.288 -0.5084  0.4253 -0.0437
  149SAPE    HX16372   1.129   1.709   6.282 -1.5546  1.0941 -1.8166
  149SAPE    HY16373   1.000   1.633   6.378  0.1917  2.3954  0.1789
  149SAPE   O3116374   0.987   1.595   6.174 -0.6910 -0.7042  1.0776
  149SAPE   C3116375   0.856   1.609   6.183 -0.1498 -0.6726 -0.4787
  149SAPE   O3216376   0.792   1.636   6.286 -0.0322 -0.0353 -0.0585
  149SAPE   C3216377   0.797   1.600   6.045 -0.4768 -1.1071  0.4161
  149SAPE   H2X16378   0.828   1.510   5.987 -0.8217 -0.9075 -0.0887
  149SAPE   H2Y16379   0.842   1.677   5.979  1.5488 -2.7974 -0.2852
  149SAPE   C2316380   1.556   1.321   6.076  0.4565  0.1636 -0.0707
  149SAPE   H3R16381   1.490   1.243   6.032 -1.5071  0.6130  1.8689
  149SAPE   H3S16382   1.606   1.283   6.168  4.0291  0.4860 -1.7311
  149SAPE   C2416383   1.664   1.366   5.985 -0.2641 -0.3184  0.0585
  149SAPE   H4R16384   1.723   1.444   6.039  0.4554  1.1841 -2.7011
  149SAPE   H4S16385   1.618   1.418   5.898  0.3027  0.1840  0.0483
  149SAPE   C2516386   1.764   1.249   5.956  0.2146 -0.3464 -0.3941
  149SAPE   H5R16387   1.826   1.208   6.037  0.2179 -2.0891 -1.2271
  149SAPE   C2616388   1.798   1.207   5.834  0.6033  0.2655 -0.5330
  149SAPE   H6R16389   1.866   1.120   5.825  1.4663  0.8518  0.1238
  149SAPE   C2716390   1.735   1.257   5.706  0.3589  0.2336 -0.1881
  149SAPE   H7R16391   1.702   1.363   5.717 -0.3757  0.0224 -0.3093
  149SAPE   H7S16392   1.647   1.195   5.677  2.2817 -1.5071 -2.7244
  149SAPE   C2816393   1.826   1.255   5.583  0.1933 -0.4929  0.6055
  149SAPE   H8R16394   1.877   1.351   5.563  2.2086 -1.1781  2.1145
  149SAPE   C2916395   1.837   1.161   5.485 -0.3965 -0.0920 -0.2499
  149SAPE   H9R16396   1.901   1.180   5.398  2.0425 -0.0155  1.4583
  149SAPE  C21016397   1.757   1.037   5.496 -0.1078 -0.2331  0.3241
  149SAPE  H10R16398   1.651   1.067   5.478  0.2185  1.2700  0.7148
  149SAPE  H10S16399   1.773   0.996   5.598  1.2828  1.2349  0.7370
  149SAPE  C21116400   1.788   0.940   5.383 -0.0925  0.2815 -0.1724
  149SAPE  H11R16401   1.823   0.841   5.415  0.4052  0.6315  0.3705
  149SAPE  C21216402   1.768   0.948   5.251  0.1768  0.0022 -0.2724
  149SAPE  H12R16403   1.801   0.859   5.196  0.9583  0.4975 -0.6250
  149SAPE  C21316404   1.726   1.068   5.169  0.9033  0.3035  0.4042
  149SAPE  H13R16405   1.800   1.070   5.086  0.9995 -0.0618  0.4800
  149SAPE  H13S16406   1.758   1.156   5.229 -1.0696  1.5349 -0.2660
  149SAPE  C21416407   1.584   1.085   5.132 -0.0829 -0.2263 -0.9000
  149SAPE  H14R16408   1.513   1.094   5.215 -0.4692 -1.3064 -1.0935
  149SAPE  C21516409   1.536   1.082   5.004 -0.2322 -0.4667 -0.9956
  149SAPE  H15R16410   1.429   1.099   4.984 -0.1552 -0.0653 -1.0677
  149SAPE  C21616411   1.616   1.062   4.883 -0.4437  0.1930 -0.3225
  149SAPE  H16R16412   1.691   0.983   4.904  1.0835  1.1585 -1.8764
  149SAPE  H16S16413   1.684   1.148   4.864  0.5984 -0.9935 -2.3263
  149SAPE  C21716414   1.546   1.025   4.748  0.4005 -0.4027 -0.9430
  149SAPE  H17R16415   1.449   0.975   4.772  0.0812  0.1126 -1.1472
  149SAPE  H17S16416   1.598   0.954   4.680  0.1897 -0.4068 -1.1003
  149SAPE  C21816417   1.517   1.149   4.666  0.6798 -0.6815  0.1028
  149SAPE  H18R16418   1.622   1.181   4.645  1.1422 -0.9222  1.8739
  149SAPE  H18S16419   1.468   1.233   4.719  0.1277 -0.8089 -0.2008
  149SAPE  C21916420   1.459   1.129   4.520 -0.4262 -0.1219  0.0382
  149SAPE  H19R16421   1.354   1.165   4.513 -0.3462  0.2185  0.5546
  149SAPE  H19S16422   1.461   1.021   4.494 -2.1945  0.1573 -1.4776
  149SAPE  C22016423   1.542   1.197   4.401  0.9106  0.0754 -0.0015
  149SAPE  H20R16424   1.559   1.306   4.413  0.8422  0.2052 -0.9488
  149SAPE  H20S16425   1.480   1.191   4.309  0.8037  2.3153 -0.1224
  149SAPE  H20T16426   1.639   1.142   4.406 -0.1058 -1.9496 -1.1289
  149SAPE   C3316427   0.643   1.596   6.038  0.3092  0.5493 -0.9059
  149SAPE   H3X16428   0.606   1.538   6.126  0.5406  1.7174 -0.0255
  149SAPE   H3Y16429   0.605   1.541   5.949  1.3884  0.1881 -1.1493
  149SAPE   C3416430   0.584   1.733   6.042 -0.3976  0.3795 -0.2961
  149SAPE   H4X16431   0.627   1.787   6.129  1.2953  0.7319 -1.2893
  149SAPE   H4Y16432   0.478   1.722   6.071 -0.3164  0.7336  0.1378
  149SAPE   C3516433   0.581   1.812   5.913  0.1724  0.9769  0.2732
  149SAPE   H5X16434   0.536   1.739   5.842 -0.3415  0.8459  0.7210
  149SAPE   H5Y16435   0.673   1.847   5.861 -0.3964 -0.5537 -1.9025
  149SAPE   C3616436   0.489   1.933   5.911 -0.1144 -0.1308 -0.9371
  149SAPE   H6X16437   0.556   2.021   5.903  0.7653 -0.6322  0.4614
  149SAPE   H6Y16438   0.438   1.938   6.010 -2.3706  0.1365 -2.0484
  149SAPE   C3716439   0.390   1.932   5.799 -0.6104  0.1437  0.4393
  149SAPE   H7X16440   0.324   2.018   5.823  2.3881  2.4359  1.1722
  149SAPE   H7Y16441   0.339   1.835   5.783 -0.6640  0.4536 -1.5383
  149SAPE   C3816442   0.469   1.975   5.668  0.0624  0.5135 -0.9935
  149SAPE   H8X16443   0.557   1.908   5.659 -0.9468 -0.9691 -0.1706
  149SAPE   H8Y16444   0.508   2.079   5.674 -3.5421  2.0209 -1.0651
  149SAPE   C3916445   0.376   1.971   5.544 -0.3679 -0.3966 -0.0081
  149SAPE   H9X16446   0.292   2.043   5.555 -0.5710 -0.6109 -0.1215
  149SAPE   H9Y16447   0.323   1.874   5.531  0.6103 -0.7862 -1.3593
  149SAPE  C31016448   0.448   1.996   5.411 -0.6387  0.7510 -0.5349
  149SAPE  H10X16449   0.532   1.925   5.398  0.0673  1.0551  1.8810
  149SAPE  H10Y16450   0.491   2.098   5.423  1.0554 -0.1602  2.0304
  149SAPE  C31116451   0.356   1.984   5.290 -0.5628  0.7985  0.4021
  149SAPE  H11X16452   0.271   2.055   5.300 -0.6635  1.1382 -2.3087
  149SAPE  H11Y16453   0.319   1.879   5.290 -0.5905  0.7987 -0.6512
  149SAPE  C31216454   0.425   2.016   5.148  0.2910  0.4136 -0.6567
  149SAPE  H12X16455   0.524   1.965   5.147  0.3241  0.4745 -0.3879
  149SAPE  H12Y16456   0.427   2.126   5.135 -3.9950  0.5916 -0.9131
  149SAPE  C31316457   0.343   1.952   5.033  0.1703  0.1093 -0.9516
  149SAPE  H13X16458   0.241   1.996   5.031  1.1741  2.5454 -2.1432
  149SAPE  H13Y16459   0.324   1.844   5.051 -0.0258  0.2175 -0.5032
  149SAPE  C31416460   0.393   1.981   4.894 -0.7145 -0.1581  0.7949
  149SAPE  H14X16461   0.495   1.938   4.878 -0.0797  1.0125  1.5536
  149SAPE  H14Y16462   0.406   2.090   4.879 -0.2745 -0.4430 -1.2206
  149SAPE  C31516463   0.288   1.928   4.791  0.5989 -0.2167  1.3068
  149SAPE  H15X16464   0.209   2.006   4.800  2.1677  1.4392  1.2761
  149SAPE  H15Y16465   0.257   1.824   4.815  1.6128 -1.0840 -0.8888
  149SAPE  C31616466   0.342   1.925   4.648  0.1801  0.5347  0.3853
  149SAPE  H16X16467   0.419   1.844   4.643  0.6466  1.0282 -0.6318
  149SAPE  H16Y16468   0.382   2.027   4.633  1.2409  0.5912  2.9866
  149SAPE  C31716469   0.241   1.894   4.535  0.1129  0.7066 -0.0223
  149SAPE  H17X16470   0.162   1.971   4.548  0.1266  1.1065 -2.0632
  149SAPE  H17Y16471   0.200   1.791   4.541 -1.2830  1.2331 -0.2692
  149SAPE  C31816472   0.305   1.897   4.398 -0.4526  0.6165 -0.4775
  149SAPE  H18X16473   0.353   1.997   4.391 -0.3365  0.7735  1.9539
  149SAPE  H18Y16474   0.235   1.875   4.314  0.1484 -0.2533 -0.7607
  149SAPE  H18Z16475   0.380   1.815   4.401 -1.1016  0.0211 -0.3203
  150SAPE     N16476   3.873   1.214   6.395  0.8892  0.0579 -0.6688
  150SAPE   HN116477   3.922   1.162   6.471  1.5824  1.7829  0.1311
  150SAPE   HN216478   3.826   1.290   6.449 -1.2921  0.1561 -2.5703
  150SAPE   HN316479   3.804   1.149   6.354 -1.2127  2.3462 -0.9708
  150SAPE   C1216480   3.969   1.289   6.306 -0.1092  0.6953  0.0894
  150SAPE  H12A16481   3.924   1.384   6.271 -3.5617 -1.3279 -1.5016
  150SAPE  H12B16482   3.976   1.223   6.216 -0.3477  0.9422 -0.1127
  150SAPE   C1116483   4.105   1.310   6.374 -0.6228  0.4732  0.2077
  150SAPE  H11A16484   4.076   1.378   6.458 -3.6729 -0.4363  0.0272
  150SAPE  H11B16485   4.166   1.351   6.292  1.1502 -3.8973 -0.9486
  150SAPE     P16486   4.257   1.169   6.529 -0.2149 -0.3771 -0.3149
  150SAPE   O1316487   4.218   1.263   6.629 -0.3542  0.2091 -0.0958
  150SAPE   O1416488   4.271   1.031   6.581  0.0502 -0.0069  0.2090
  150SAPE   O1216489   4.158   1.180   6.408  0.3284  0.2054 -0.6375
  150SAPE   O1116490   4.390   1.227   6.482 -0.0191 -0.0696 -0.5559
  150SAPE    C116491   4.485   1.155   6.406  0.1302  0.3986 -0.3766
  150SAPE    HA16492   4.589   1.181   6.436  0.6605  0.3541 -2.0675
  150SAPE    HB16493   4.478   1.044   6.419 -1.6285  0.7030  2.0114
  150SAPE    C216494   4.480   1.194   6.258 -0.3514  0.1105 -1.0328
  150SAPE    HS16495   4.455   1.302   6.247 -1.4769 -0.3012 -2.9382
  150SAPE   O2116496   4.384   1.109   6.200  0.0749  0.4123 -0.2491
  150SAPE   C2116497   4.316   1.165   6.106  0.1856 -0.9837 -0.1822
  150SAPE   O2216498   4.308   1.285   6.075 -0.1598  0.5419 -0.4729
  150SAPE   C2216499   4.233   1.064   6.037  0.3319  0.1271  0.4325
  150SAPE   H2R16500   4.299   1.004   5.971  0.7150  1.5053 -0.4790
  150SAPE   H2S16501   4.184   1.001   6.115  0.6789 -1.5824 -0.6647
  150SAPE    C316502   4.622   1.164   6.200  0.1113  0.1786  0.0813
  150SAPE    HX16503   4.648   1.066   6.244 -0.2042  0.3321  0.6181
  150SAPE    HY16504   4.688   1.245   6.237 -0.9376  0.7476  0.7606
  150SAPE   O3116505   4.611   1.188   6.056  0.0763 -0.2454 -0.6512
  150SAPE   C3116506   4.685   1.114   5.975 -0.2467  0.5709 -0.2840
  150SAPE   O3216507   4.770   1.038   6.016  0.6207 -0.0110 -0.1042
  150SAPE   C3216508   4.664   1.151   5.831 -0.2352  0.1060  0.4009
  150SAPE   H2X16509   4.718   1.073   5.773  1.7643  1.1119  0.8226
  150SAPE   H2Y16510   4.714   1.247   5.809 -1.6742  0.9497  0.6956
  150SAPE   C2316511   4.118   1.107   5.947  0.4195 -0.7450 -0.2836
  150SAPE   H3R16512   4.165   1.162   5.862 -0.7004 -1.8840 -1.6835
  150SAPE   H3S16513   4.054   1.185   5.994  2.7314  3.0938 -2.8710
  150SAPE   C2416514   4.042   0.990   5.884 -0.5534  0.3737 -0.3563
  150SAPE   H4R16515   4.038   0.903   5.953  1.0551 -0.3550 -1.1498
  150SAPE   H4S16516   4.092   0.957   5.791  0.9184  0.1124  0.4908
  150SAPE   C2516517   3.902   1.009   5.843 -0.1885 -0.1452 -0.3562
  150SAPE   H5R16518   3.836   0.954   5.911  1.1046 -0.9650  0.2838
  150SAPE   C2616519   3.843   1.060   5.739  0.2183 -0.4519  0.5140
  150SAPE   H6R16520   3.733   1.055   5.732 -0.0545 -2.7892  3.8731
  150SAPE   C2716521   3.918   1.126   5.618  1.0745 -0.1309 -0.7705
  150SAPE   H7R16522   4.007   1.174   5.663 -1.3168  0.7826  3.5130
  150SAPE   H7S16523   3.863   1.212   5.573  2.6043  1.5450  0.4229
  150SAPE   C2816524   3.978   1.035   5.518 -0.0243  0.1973  0.0267
  150SAPE   H8R16525   4.050   0.969   5.568 -1.0749 -0.0036  1.3398
  150SAPE   C2916526   3.955   1.036   5.380 -0.1105 -0.2836 -0.2276
  150SAPE   H9R16527   4.027   0.968   5.331  2.4182  0.9845  1.5243
  150SAPE  C21016528   3.873   1.134   5.298  0.5335  0.3104  0.1837
  150SAPE  H10R16529   3.932   1.221   5.262  0.8062  0.5765  1.2630
  150SAPE  H10S16530   3.792   1.165   5.368  2.2776 -0.0129  2.4279
  150SAPE  C21116531   3.815   1.057   5.177 -0.0559 -0.7388  0.3504
  150SAPE  H11R16532   3.779   0.955   5.193 -1.8688  0.2542  3.3379
  150SAPE  C21216533   3.792   1.116   5.055  0.8766 -0.4678  0.1718
  150SAPE  H12R16534   3.751   1.051   4.977 -1.2534  0.1317  0.7212
  150SAPE  C21316535   3.831   1.255   5.010  0.5416  0.0128  0.7805
  150SAPE  H13R16536   3.940   1.262   4.991  0.5323  0.9739  1.0296
  150SAPE  H13S16537   3.815   1.328   5.092 -0.3629 -1.3486  1.8680
  150SAPE  C21416538   3.771   1.292   4.880  0.1993  0.8774 -0.0319
  150SAPE  H14R16539   3.682   1.355   4.894  0.4654  1.0118  1.2229
  150SAPE  C21516540   3.832   1.269   4.761  0.2063  0.1223  0.2815
  150SAPE  H15R16541   3.783   1.303   4.668 -0.8910 -1.5222  0.2053
  150SAPE  C21616542   3.956   1.189   4.736 -0.5242  0.3554 -0.1264
  150SAPE  H16R16543   3.981   1.121   4.819  1.4823  0.5663 -0.5021
  150SAPE  H16S16544   4.042   1.259   4.729 -0.3976  0.2015 -0.0936
  150SAPE  C21716545   3.964   1.093   4.613 -0.0501  0.5936  0.2803
  150SAPE  H17R16546   3.882   1.018   4.613 -0.4422  0.9617 -1.8842
  150SAPE  H17S16547   4.059   1.036   4.619 -0.8366 -0.6710  1.2060
  150SAPE  C21816548   3.959   1.164   4.477  0.4090 -0.0983 -0.7066
  150SAPE  H18R16549   4.039   1.241   4.480 -0.7086  1.1429 -1.3685
  150SAPE  H18S16550   3.867   1.227   4.466  0.3523  0.7590  3.0765
  150SAPE  C21916551   3.984   1.075   4.354  0.4160  0.4292  0.4621
  150SAPE  H19R16552   4.042   0.984   4.380  0.7216  0.9317  1.6186
  150SAPE  H19S16553   4.042   1.131   4.278 -0.5014  0.3746 -0.3006
  150SAPE  C22016554   3.845   1.026   4.295 -0.6990 -0.5229  0.3756
  150SAPE  H20R16555   3.778   0.997   4.378  2.2747 -1.2043  2.7393
  150SAPE  H20S16556   3.868   0.938   4.231  1.2403  0.1681  0.0459
  150SAPE  H20T16557   3.795   1.100   4.230 -1.3828 -1.4134 -0.1252
  150SAPE   C3316558   4.523   1.165   5.787  1.1415  0.2130 -0.2114
  150SAPE   H3X16559   4.503   1.243   5.711 -0.1665 -0.1775 -0.2969
  150SAPE   H3Y16560   4.450   1.197   5.864  1.3666  2.0614 -0.7276
  150SAPE   C3416561   4.463   1.028   5.730 -0.3576 -1.4576  0.1677
  150SAPE   H4X16562   4.425   0.988   5.826  1.0383 -0.3961  1.2230
  150SAPE   H4Y16563   4.545   0.957   5.708  2.6076  2.0309 -1.1766
  150SAPE   C3516564   4.366   1.035   5.625 -0.3101 -0.4386  0.0562
  150SAPE   H5X16565   4.280   1.102   5.648 -0.4764 -1.1097  1.4598
  150SAPE   H5Y16566   4.342   0.927   5.614 -0.0086 -0.4734 -0.2872
  150SAPE   C3616567   4.416   1.076   5.483  0.8506 -0.4744  0.5689
  150SAPE   H6X16568   4.513   1.035   5.447  0.8557  0.2047 -0.2362
  150SAPE   H6Y16569   4.423   1.187   5.484 -3.4473 -0.0446  1.3300
  150SAPE   C3716570   4.312   1.044   5.379  0.8529 -0.1732  0.9884
  150SAPE   H7X16571   4.231   1.116   5.402 -0.2420 -1.2900  0.7710
  150SAPE   H7Y16572   4.271   0.941   5.381  1.8159 -0.5890  0.1954
  150SAPE   C3816573   4.359   1.074   5.237 -0.0839 -0.0771 -0.3702
  150SAPE   H8X16574   4.452   1.016   5.220 -0.1290 -0.7927  1.5775
  150SAPE   H8Y16575   4.396   1.178   5.249 -3.4507  1.0395  2.1189
  150SAPE   C3916576   4.258   1.069   5.124 -0.5322 -0.3742 -0.5004
  150SAPE   H9X16577   4.173   1.133   5.154  1.8818  2.7097  0.3194
  150SAPE   H9Y16578   4.221   0.965   5.131  0.5365 -0.8352 -1.3778
  150SAPE  C31016579   4.301   1.123   4.983  0.3904  0.1988 -0.2217
  150SAPE  H10X16580   4.326   1.230   4.993  2.2803 -0.3540  1.4412
  150SAPE  H10Y16581   4.213   1.106   4.916  1.0097 -0.2868 -0.9386
  150SAPE  C31116582   4.417   1.039   4.929 -0.2640 -0.3149 -0.4798
  150SAPE  H11X16583   4.394   0.931   4.944  1.1011 -0.7106 -1.0951
  150SAPE  H11Y16584   4.494   1.066   5.005 -1.1867  0.9105  0.0631
  150SAPE  C31216585   4.466   1.073   4.786 -0.9034 -0.2627  0.0748
  150SAPE  H12X16586   4.573   1.043   4.787 -0.9013 -0.3031  1.5688
  150SAPE  H12Y16587   4.450   1.183   4.781 -0.9868 -0.3439 -3.4929
  150SAPE  C31316588   4.393   0.997   4.672  0.0406  0.4183 -0.8198
  150SAPE  H13X16589   4.286   1.029   4.675 -0.3823 -0.4689 -3.5959
  150SAPE  H13Y16590   4.379   0.892   4.705 -1.0364  0.5152 -0.9150
  150SAPE  C31416591   4.449   1.009   4.529  0.0729  0.0689  0.1724
  150SAPE  H14X16592   4.379   0.974   4.451  0.0338  0.8171 -0.1344
  150SAPE  H14Y16593   4.536   0.940   4.527 -1.4529 -2.0173  1.5761
  150SAPE  C31516594   4.500   1.149   4.495 -0.3654 -0.2154 -0.0105
  150SAPE  H15X16595   4.569   1.145   4.408  0.2875  0.2063  0.4740
  150SAPE  H15Y16596   4.551   1.201   4.579 -0.1004 -2.3547  1.2028
  150SAPE  C31616597   4.381   1.244   4.471  0.1605 -0.1662  0.3792
  150SAPE  H16X16598   4.309   1.241   4.555 -1.6481  2.5325 -0.9389
  150SAPE  H16Y16599   4.326   1.195   4.388  2.2581 -1.2010 -0.4741
  150SAPE  C31716600   4.428   1.379   4.449  0.0779 -0.1643 -0.0225
  150SAPE  H17X16601   4.493   1.379   4.360 -0.5818  3.4569 -0.6727
  150SAPE  H17Y16602   4.482   1.429   4.533  0.0633  1.4035 -0.9008
  150SAPE  C31816603   4.308   1.468   4.409  0.0130 -0.2766 -0.2926
  150SAPE  H18X16604   4.236   1.469   4.494 -0.8912 -0.4054 -1.0442
  150SAPE  H18Y16605   4.255   1.425   4.321 -0.9606  0.7732 -0.2352
  150SAPE  H18Z16606   4.330   1.576   4.400  1.2243 -0.5763 -1.2075
  151SAPE     N16607   3.363   0.004   6.576  0.6610 -0.0128  0.5007
  151SAPE   HN116608   3.326  -0.073   6.635 -0.5045  0.3046  0.2085
  151SAPE   HN216609   3.450   0.044   6.616  0.1448  1.1715  0.4740
  151SAPE   HN316610   3.288   0.076   6.570  0.0853 -0.7161 -1.8087
  151SAPE   C1216611   3.409  -0.042   6.442 -0.2197 -0.2202  0.3371
  151SAPE  H12A16612   3.320  -0.059   6.377  1.5080 -2.5097 -1.6119
  151SAPE  H12B16613   3.445  -0.146   6.458 -0.8116 -0.1365  2.4140
  151SAPE   C1116614   3.512   0.055   6.388  0.1465 -0.5780 -0.4034
  151SAPE  H11A16615   3.460   0.152   6.368 -1.2198 -0.7870  1.8472
  151SAPE  H11B16616   3.568   0.014   6.301 -0.3520 -0.2330 -0.8968
  151SAPE     P16617   3.718   0.188   6.488 -0.1195 -0.1337  0.0172
  151SAPE   O1316618   3.656   0.319   6.448  0.2996  0.2490  0.1609
  151SAPE   O1416619   3.792   0.186   6.619  0.5595  0.2951 -0.0868
  151SAPE   O1216620   3.607   0.076   6.495 -0.2973 -0.2858 -0.6147
  151SAPE   O1116621   3.820   0.147   6.371 -0.2807 -0.0980  0.0881
  151SAPE    C116622   3.870   0.016   6.353 -0.1310 -0.4681 -0.0518
  151SAPE    HA16623   3.942  -0.002   6.436  0.3037  3.5614  0.6875
  151SAPE    HB16624   3.787  -0.057   6.358 -1.8371  1.3339 -0.7084
  151SAPE    C216625   3.947  -0.008   6.216  0.3887 -0.0396  0.7054
  151SAPE    HS16626   4.029   0.066   6.206 -1.0074  1.3301 -1.3728
  151SAPE   O2116627   3.855   0.000   6.109 -0.1359  0.5425  0.4983
  151SAPE   C2116628   3.838   0.120   6.057  0.3673  0.7036 -0.0613
  151SAPE   O2216629   3.900   0.225   6.083  0.1078  0.0243  0.4711
  151SAPE   C2216630   3.725   0.103   5.945 -0.7285  0.7469 -0.8386
  151SAPE   H2R16631   3.768   0.037   5.866 -1.8220  0.0776 -0.8797
  151SAPE   H2S16632   3.637   0.055   5.992 -0.7291  1.5345 -0.0146
  151SAPE    C316633   4.003  -0.153   6.208 -0.6957 -0.7273  0.0432
  151SAPE    HX16634   3.926  -0.226   6.242 -0.3121 -1.3930 -0.4873
  151SAPE    HY16635   4.085  -0.148   6.282 -1.8796  0.0177  1.3534
  151SAPE   O3116636   4.062  -0.187   6.074 -0.3224  0.1092  0.0663
  151SAPE   C3116637   3.977  -0.248   5.992  0.0788 -0.0243  0.1323
  151SAPE   O3216638   3.856  -0.265   6.011 -0.4383 -0.2804  0.4922
  151SAPE   C3216639   4.042  -0.289   5.862 -0.2965  0.2020 -0.3489
  151SAPE   H2X16640   4.021  -0.398   5.852 -0.8510  0.3218 -0.4756
  151SAPE   H2Y16641   4.151  -0.265   5.859 -0.0149 -0.2208  3.1516
  151SAPE   C2316642   3.714   0.239   5.875 -0.1143  1.0475  0.2106
  151SAPE   H3R16643   3.803   0.246   5.809  0.8122 -1.5763  1.0507
  151SAPE   H3S16644   3.707   0.322   5.948 -1.5669  1.0556  0.0994
  151SAPE   C2416645   3.591   0.250   5.781  0.1219  0.6173 -0.2140
  151SAPE   H4R16646   3.506   0.270   5.849 -0.3669  1.8462 -1.1563
  151SAPE   H4S16647   3.580   0.154   5.725 -0.2072  1.4648 -1.6501
  151SAPE   C2516648   3.609   0.357   5.679 -0.1149  0.7320 -0.4538
  151SAPE   H5R16649   3.561   0.451   5.713  1.5594  1.1882  0.8021
  151SAPE   C2616650   3.661   0.352   5.551 -0.6563  0.4998  0.3622
  151SAPE   H6R16651   3.667   0.450   5.501  1.4955  1.4358  2.3024
  151SAPE   C2716652   3.718   0.231   5.494 -0.0316  0.0873  0.2572
  151SAPE   H7R16653   3.643   0.185   5.426  0.2457  0.4744 -0.3136
  151SAPE   H7S16654   3.746   0.157   5.572 -1.0885 -1.6979 -0.9757
  151SAPE   C2816655   3.841   0.258   5.413 -0.5054 -0.2697  0.6987
  151SAPE   H8R16656   3.932   0.272   5.473  0.4408 -1.9059 -0.2836
  151SAPE   C2916657   3.856   0.271   5.277  0.7754  0.6789 -0.2013
  151SAPE   H9R16658   3.955   0.288   5.231  1.1332  1.0525  0.6883
  151SAPE  C21016659   3.745   0.257   5.175 -0.5579 -0.3574 -0.3233
  151SAPE  H10R16660   3.648   0.216   5.211 -1.0669  1.6024  0.6524
  151SAPE  H10S16661   3.786   0.182   5.103 -1.8868 -0.8281 -0.6253
  151SAPE  C21116662   3.720   0.388   5.101 -0.2350  0.4217 -0.2782
  151SAPE  H11R16663   3.640   0.453   5.139 -0.2449  0.4440 -0.3366
  151SAPE  C21216664   3.775   0.425   4.983  1.1422  0.6033  0.3271
  151SAPE  H12R16665   3.756   0.520   4.930 -1.1063  0.1969  0.3092
  151SAPE  C21316666   3.883   0.343   4.903 -0.3443 -0.6168  0.7541
  151SAPE  H13R16667   3.968   0.314   4.967 -1.8021 -1.0876  2.5679
  151SAPE  H13S16668   3.918   0.418   4.829 -1.4315 -1.6141 -0.8239
  151SAPE  C21416669   3.838   0.225   4.819  0.5311  0.0425  0.3318
  151SAPE  H14R16670   3.823   0.132   4.876 -4.6608 -0.9804 -2.1459
  151SAPE  C21516671   3.820   0.220   4.681 -0.9414  0.6725  0.7889
  151SAPE  H15R16672   3.797   0.123   4.633  1.3109  1.2320 -1.6099
  151SAPE  C21616673   3.825   0.338   4.586  0.6723  1.1355 -0.0717
  151SAPE  H16R16674   3.906   0.324   4.511  0.8583  0.0297  0.3165
  151SAPE  H16S16675   3.830   0.440   4.631  0.9524  1.1859 -0.2116
  151SAPE  C21716676   3.691   0.342   4.498  0.0623 -0.0985  0.0325
  151SAPE  H17R16677   3.609   0.351   4.573  1.2242  0.3708  1.2947
  151SAPE  H17S16678   3.676   0.251   4.436 -2.1887  0.4486 -0.3184
  151SAPE  C21816679   3.677   0.458   4.400  0.4657  0.6009  0.0432
  151SAPE  H18R16680   3.595   0.433   4.329  2.1404 -0.8898 -1.4553
  151SAPE  H18S16681   3.767   0.476   4.338 -0.0799  3.1897 -0.1220
  151SAPE  C21916682   3.638   0.594   4.465 -0.1940 -0.3041 -0.4776
  151SAPE  H19R16683   3.720   0.608   4.539 -0.0320 -2.3990 -0.2039
  151SAPE  H19S16684   3.546   0.575   4.523 -0.0808 -0.4194 -0.3367
  151SAPE  C22016685   3.630   0.722   4.384 -0.2732  0.0654 -0.2064
  151SAPE  H20R16686   3.619   0.801   4.462  0.7525 -0.7759  0.8360
  151SAPE  H20S16687   3.546   0.707   4.313  0.2826 -2.1332 -0.4454
  151SAPE  H20T16688   3.727   0.729   4.330 -0.7513 -0.6836 -1.1829
  151SAPE   C3316689   3.968  -0.212   5.744  0.1407 -0.5205  0.1776
  151SAPE   H3X16690   3.964  -0.105   5.774  0.6409 -0.9695  1.9493
  151SAPE   H3Y16691   3.862  -0.246   5.732  1.1389 -3.5906 -0.8880
  151SAPE   C3416692   4.031  -0.236   5.604 -0.2311 -0.0690 -0.0864
  151SAPE   H4X16693   4.015  -0.336   5.559 -0.8255  0.2755 -0.6647
  151SAPE   H4Y16694   4.142  -0.226   5.602 -0.1196 -1.2395 -0.1800
  151SAPE   C3516695   3.990  -0.143   5.493  0.7466 -0.1650 -0.3738
  151SAPE   H5X16696   3.966  -0.044   5.537 -2.5158 -1.6591  1.5770
  151SAPE   H5Y16697   3.896  -0.185   5.451  0.3725 -0.8554  1.0891
  151SAPE   C3616698   4.096  -0.137   5.381 -0.3840  0.8545  0.4154
  151SAPE   H6X16699   4.187  -0.197   5.406 -2.0556 -1.3063  1.6963
  151SAPE   H6Y16700   4.133  -0.033   5.370 -2.1754  1.2565 -3.3674
  151SAPE   C3716701   4.040  -0.172   5.243  0.2939  0.0976  0.2389
  151SAPE   H7X16702   3.940  -0.124   5.231 -1.1700 -2.4298  1.5648
  151SAPE   H7Y16703   4.020  -0.281   5.244 -0.5732  0.2444  0.0241
  151SAPE   C3816704   4.140  -0.141   5.134  0.0974 -0.2665 -0.4159
  151SAPE   H8X16705   4.247  -0.161   5.155  0.9369  1.5340 -2.4802
  151SAPE   H8Y16706   4.125  -0.031   5.123 -0.8831 -0.3960 -0.4439
  151SAPE   C3916707   4.117  -0.204   4.999  0.6998  0.0559  0.1061
  151SAPE   H9X16708   4.017  -0.172   4.965  0.5784 -1.4552 -1.0462
  151SAPE   H9Y16709   4.124  -0.315   4.992 -2.2844 -0.4025  2.4973
  151SAPE  C31016710   4.210  -0.139   4.897  0.0590 -0.9074  0.8389
  151SAPE  H10X16711   4.216  -0.030   4.917 -2.4166 -0.4237 -0.6303
  151SAPE  H10Y16712   4.157  -0.151   4.800 -0.7694  2.7859  0.6795
  151SAPE  C31116713   4.345  -0.211   4.879 -0.0980  0.2385  0.2096
  151SAPE  H11X16714   4.336  -0.318   4.905  0.6719 -0.2287 -1.3638
  151SAPE  H11Y16715   4.410  -0.160   4.954 -0.2400  2.3906 -1.0599
  151SAPE  C31216716   4.405  -0.193   4.740  0.1149 -0.6083  0.2732
  151SAPE  H12X16717   4.403  -0.088   4.703  0.2795 -0.3632  0.9573
  151SAPE  H12Y16718   4.350  -0.257   4.668  1.2308 -1.3523  0.0521
  151SAPE  C31316719   4.547  -0.244   4.729 -0.4999  0.6191  0.2273
  151SAPE  H13X16720   4.539  -0.355   4.727 -0.2770  0.5451  2.0041
  151SAPE  H13Y16721   4.607  -0.209   4.816  2.3114  1.0378 -1.7439
  151SAPE  C31416722   4.622  -0.197   4.598 -0.0615 -0.4469  0.9767
  151SAPE  H14X16723   4.640  -0.088   4.595 -1.2570 -0.2524 -1.3483
  151SAPE  H14Y16724   4.555  -0.216   4.512  0.6255  0.4441  0.2220
  151SAPE  C31516725   4.764  -0.269   4.584  0.0933 -0.6471 -0.1337
  151SAPE  H15X16726   4.818  -0.251   4.679 -0.0277  0.6400 -0.2837
  151SAPE  H15Y16727   4.814  -0.200   4.512 -3.3311  2.7730  0.4109
  151SAPE  C31616728   4.760  -0.417   4.547 -0.3965 -1.0578 -0.2043
  151SAPE  H16X16729   4.686  -0.424   4.464 -0.3135 -0.2253 -0.3536
  151SAPE  H16Y16730   4.709  -0.478   4.624 -1.1403  1.9687  1.8564
  151SAPE  C31716731   4.891  -0.471   4.502 -0.2029  0.5979 -0.5128
  151SAPE  H17X16732   4.957  -0.499   4.587 -2.2085 -1.2713  0.5022
  151SAPE  H17Y16733   4.938  -0.387   4.446 -0.1799  0.6936 -0.3520
  151SAPE  C31816734   4.891  -0.599   4.413 -0.0727  0.0618  0.0045
  151SAPE  H18X16735   4.828  -0.680   4.457 -0.9936  0.1054 -1.1989
  151SAPE  H18Y16736   4.999  -0.627   4.413  0.3034  1.4021 -1.8289
  151SAPE  H18Z16737   4.849  -0.578   4.313 -0.4962 -2.3351 -0.3769
  152SAPE     N16738   6.280   1.059   6.397 -0.1671 -0.3450 -0.2245
  152SAPE   HN116739   6.272   1.045   6.499  1.2005  0.5452  0.0286
  152SAPE   HN216740   6.194   1.028   6.346  1.0472 -2.3463 -1.2295
  152SAPE   HN316741   6.360   0.997   6.372  1.9592  0.7541  3.1812
  152SAPE   C1216742   6.303   1.203   6.366 -0.0074  0.1973 -0.5759
  152SAPE  H12A16743   6.216   1.254   6.411  0.2358 -1.1252  1.5123
  152SAPE  H12B16744   6.300   1.224   6.257  1.7760 -2.8397 -1.3156
  152SAPE   C1116745   6.429   1.276   6.422  0.1703  0.7280  0.4434
  152SAPE  H11A16746   6.409   1.307   6.526  0.7796  1.2151  0.4208
  152SAPE  H11B16747   6.436   1.360   6.349 -1.2455 -0.3069 -0.9548
  152SAPE     P16748   6.682   1.260   6.469 -0.2698 -0.2576  0.4715
  152SAPE   O1316749   6.658   1.386   6.545 -0.1135 -0.0002  0.0104
  152SAPE   O1416750   6.786   1.170   6.535 -0.2426 -0.5045  0.2132
  152SAPE   O1216751   6.545   1.188   6.428 -0.4331 -0.1029  0.3104
  152SAPE   O1116752   6.740   1.291   6.323  0.9051 -0.1457 -0.0609
  152SAPE    C116753   6.744   1.192   6.217 -0.2282 -0.2455  0.2652
  152SAPE    HA16754   6.842   1.140   6.223  0.7418  1.2204 -1.6418
  152SAPE    HB16755   6.661   1.121   6.233 -1.1714  1.0311  1.2336
  152SAPE    C216756   6.720   1.249   6.074 -0.4453  0.1123 -0.1852
  152SAPE    HS16757   6.808   1.291   6.021 -0.6396 -0.0226 -0.6180
  152SAPE   O2116758   6.609   1.342   6.086 -0.2441  0.5166  0.3403
  152SAPE   C2116759   6.638   1.471   6.088  0.1133  0.4122 -0.4260
  152SAPE   O2216760   6.746   1.517   6.074  0.4488 -0.4570  0.5597
  152SAPE   C2216761   6.511   1.549   6.121 -0.0755 -0.5845 -0.2052
  152SAPE   H2R16762   6.485   1.526   6.226 -0.4710 -0.1639 -0.2122
  152SAPE   H2S16763   6.530   1.655   6.095 -2.6943 -0.6349 -2.8153
  152SAPE    C316764   6.657   1.128   5.991 -0.1581  0.0447 -0.3941
  152SAPE    HX16765   6.552   1.111   6.022 -0.6811  1.0553 -1.5337
  152SAPE    HY16766   6.713   1.032   6.000  0.3590  0.1102 -2.4669
  152SAPE   O3116767   6.650   1.162   5.850  0.6557 -0.6578  0.6398
  152SAPE   C3116768   6.759   1.128   5.782 -0.2889  0.1000  0.4709
  152SAPE   O3216769   6.858   1.085   5.827  0.4218 -0.2232  0.2567
  152SAPE   C3216770   6.736   1.177   5.640  0.7443 -0.2803 -0.3151
  152SAPE   H2X16771   6.681   1.274   5.645 -0.1580 -0.8345  0.7769
  152SAPE   H2Y16772   6.671   1.113   5.577 -0.4748 -0.8838  1.5131
  152SAPE   C2316773   6.399   1.509   6.025  0.1438 -0.3142  0.5134
  152SAPE   H3R16774   6.298   1.520   6.070  0.5421  2.6922  0.8579
  152SAPE   H3S16775   6.422   1.405   5.993  2.4456  0.5587 -0.9036
  152SAPE   C2416776   6.399   1.590   5.899 -0.2401  0.0146  0.6450
  152SAPE   H4R16777   6.503   1.593   5.859 -0.1339 -1.2937  0.7833
  152SAPE   H4S16778   6.360   1.694   5.907 -0.0137  0.3053 -1.4022
  152SAPE   C2516779   6.316   1.528   5.792  0.0901  0.1646 -0.4894
  152SAPE   H5R16780   6.244   1.453   5.827  0.8327  1.1126  3.5429
  152SAPE   C2616781   6.342   1.538   5.656 -0.3884  0.5927  0.2446
  152SAPE   H6R16782   6.273   1.487   5.587 -1.5005  0.2277  1.5888
  152SAPE   C2716783   6.450   1.621   5.583 -0.0438  0.8287  0.3845
  152SAPE   H7R16784   6.521   1.575   5.511  0.0724  1.0857  0.3333
  152SAPE   H7S16785   6.520   1.672   5.653 -1.1922  1.9606  0.7400
  152SAPE   C2816786   6.374   1.736   5.525  0.7666 -0.4988 -0.6897
  152SAPE   H8R16787   6.353   1.818   5.595  0.7646  0.1132 -1.3984
  152SAPE   C2916788   6.355   1.756   5.392  0.5625  0.2183  0.2372
  152SAPE   H9R16789   6.313   1.854   5.365 -1.4688  0.1097  2.6890
  152SAPE  C21016790   6.396   1.672   5.275 -0.4425 -0.1746 -0.2809
  152SAPE  H10R16791   6.343   1.576   5.263 -1.6790  0.6022 -1.2907
  152SAPE  H10S16792   6.502   1.643   5.292  0.3537  1.4463 -2.0322
  152SAPE  C21116793   6.389   1.761   5.149 -0.1683  0.1621 -0.4339
  152SAPE  H11R16794   6.437   1.860   5.156  0.9589 -0.3297 -0.8864
  152SAPE  C21216795   6.359   1.722   5.026 -0.3025 -0.4289  0.1091
  152SAPE  H12R16796   6.361   1.801   4.949 -0.6784  1.4681  1.9605
  152SAPE  C21316797   6.322   1.582   4.986 -0.3095  0.4754 -0.1192
  152SAPE  H13R16798   6.217   1.580   4.949 -0.4685  1.1929  0.2772
  152SAPE  H13S16799   6.320   1.521   5.079 -0.3463 -0.6056 -0.8094
  152SAPE  C21416800   6.394   1.513   4.868  0.0289  0.0900  0.2451
  152SAPE  H14R16801   6.437   1.580   4.792 -1.0308 -0.5364 -0.9481
  152SAPE  C21516802   6.419   1.379   4.854  0.1316 -0.4810  0.2970
  152SAPE  H15R16803   6.482   1.341   4.772 -0.2557 -0.3292 -0.0762
  152SAPE  C21616804   6.353   1.284   4.945 -0.2421  0.1781 -0.1873
  152SAPE  H16R16805   6.337   1.183   4.900  3.3624 -0.4301 -0.3420
  152SAPE  H16S16806   6.253   1.319   4.980  1.0337  1.5229  2.4075
  152SAPE  C21716807   6.437   1.272   5.074 -0.3437 -0.3078  0.1731
  152SAPE  H17R16808   6.469   1.370   5.114  0.1815 -0.5436  0.3380
  152SAPE  H17S16809   6.526   1.211   5.049 -0.4128 -0.4003  0.1508
  152SAPE  C21816810   6.348   1.191   5.171  0.1709  0.3965 -0.3748
  152SAPE  H18R16811   6.315   1.091   5.135 -1.5488 -0.2380  2.6385
  152SAPE  H18S16812   6.253   1.244   5.192 -0.0949 -0.2805  0.2225
  152SAPE  C21916813   6.432   1.172   5.301 -0.0926  0.0941  0.1060
  152SAPE  H19R16814   6.453   1.277   5.329  2.0410  0.5365 -2.6524
  152SAPE  H19S16815   6.523   1.114   5.273 -1.9918 -2.1301 -1.9257
  152SAPE  C22016816   6.352   1.099   5.415 -0.1046  0.4175 -0.4545
  152SAPE  H20R16817   6.259   1.160   5.425 -0.5612 -0.5873  2.4405
  152SAPE  H20S16818   6.398   1.090   5.516 -1.6634 -1.3766  0.1592
  152SAPE  H20T16819   6.324   1.000   5.375 -0.4625 -0.0488  0.8812
  152SAPE   C3316820   6.867   1.209   5.560 -0.4694  0.3088 -0.2926
  152SAPE   H3X16821   6.919   1.111   5.549  1.0352  1.0552 -0.1285
  152SAPE   H3Y16822   6.927   1.284   5.616 -1.6027  0.6364  0.5071
  152SAPE   C3416823   6.848   1.253   5.413 -0.0696 -0.3764 -0.2399
  152SAPE   H4X16824   6.774   1.183   5.367 -2.1143  2.0425 -0.8634
  152SAPE   H4Y16825   6.946   1.253   5.361  0.0734  2.9490 -0.1534
  152SAPE   C3516826   6.779   1.397   5.410 -0.6455 -0.2821 -1.1174
  152SAPE   H5X16827   6.858   1.461   5.456  0.0141 -3.6116  3.0839
  152SAPE   H5Y16828   6.694   1.410   5.480 -0.5760 -2.5208 -0.5300
  152SAPE   C3616829   6.728   1.442   5.270 -0.0534  0.5264  0.3675
  152SAPE   H6X16830   6.717   1.553   5.272  0.5551  0.5831  2.0804
  152SAPE   H6Y16831   6.628   1.400   5.246 -0.0038  0.8851 -0.5315
  152SAPE   C3716832   6.827   1.406   5.161 -0.0767 -0.4298  0.4583
  152SAPE   H7X16833   6.794   1.302   5.144 -2.1093 -0.3557  3.2274
  152SAPE   H7Y16834   6.935   1.406   5.188  0.8556 -0.6351 -2.8577
  152SAPE   C3816835   6.815   1.503   5.048  0.1852  0.2499 -0.0966
  152SAPE   H8X16836   6.861   1.601   5.072  0.7521  0.1414 -0.7169
  152SAPE   H8Y16837   6.708   1.535   5.045 -0.1121 -0.1975  2.8220
  152SAPE   C3916838   6.882   1.459   4.916  0.3974 -0.1091  0.2134
  152SAPE   H9X16839   6.825   1.374   4.872 -0.9882  1.1425 -0.4878
  152SAPE   H9Y16840   6.978   1.407   4.937 -0.5597 -0.9720  2.9230
  152SAPE  C31016841   6.885   1.579   4.819  0.0538 -0.4190  0.8163
  152SAPE  H10X16842   6.941   1.544   4.730 -2.2216 -3.1399  0.3157
  152SAPE  H10Y16843   6.943   1.655   4.876  2.4000 -0.6298 -1.1430
  152SAPE  C31116844   6.754   1.636   4.771  0.3778  0.5086  0.9224
  152SAPE  H11X16845   6.695   1.682   4.853 -1.5568 -1.9728  1.0294
  152SAPE  H11Y16846   6.688   1.562   4.721  0.1281  2.3614 -1.6884
  152SAPE  C31216847   6.773   1.727   4.649  0.3441  0.1529  0.6348
  152SAPE  H12X16848   6.830   1.675   4.569 -1.2708 -2.6069  1.1518
  152SAPE  H12Y16849   6.831   1.816   4.681 -0.1718  1.1674 -1.1227
  152SAPE  C31316850   6.639   1.775   4.583  0.0736  0.6007  0.0637
  152SAPE  H13X16851   6.665   1.857   4.512  2.0168  0.5620  0.6662
  152SAPE  H13Y16852   6.578   1.833   4.655 -1.9067  0.5105 -1.4577
  152SAPE  C31416853   6.564   1.665   4.508 -0.2247 -0.7564 -0.0306
  152SAPE  H14X16854   6.505   1.608   4.583  0.7298 -0.2020  1.1874
  152SAPE  H14Y16855   6.647   1.610   4.458  2.2245  2.1613  0.5463
  152SAPE  C31516856   6.459   1.704   4.406  0.9996  0.0797 -0.3114
  152SAPE  H15X16857   6.503   1.735   4.310  1.5471 -1.2882 -0.5291
  152SAPE  H15Y16858   6.414   1.797   4.449  1.2185  0.2102 -0.3657
  152SAPE  C31616859   6.349   1.596   4.389 -0.3138  1.5955 -0.3158
  152SAPE  H16X16860   6.313   1.562   4.489  0.2533 -0.6275 -0.8144
  152SAPE  H16Y16861   6.407   1.509   4.351  0.4688  0.6140  2.8029
  152SAPE  C31716862   6.242   1.628   4.297 -0.1206  0.3025  0.7457
  152SAPE  H17X16863   6.289   1.656   4.200 -0.5483 -0.7950  0.1979
  152SAPE  H17Y16864   6.187   1.713   4.342 -1.5685  0.3870 -1.0252
  152SAPE  C31816865   6.142   1.508   4.269  0.3175 -0.4658  0.3762
  152SAPE  H18X16866   6.082   1.525   4.178  1.1697 -2.5149 -0.6295
  152SAPE  H18Y16867   6.079   1.484   4.358  0.2716 -0.9107  0.2259
  152SAPE  H18Z16868   6.196   1.415   4.242  1.1222 -0.0240  0.4427
  153SAPE     N16869   5.620   0.024   6.746 -0.1994 -0.3375 -0.1707
  153SAPE   HN116870   5.676  -0.063   6.763 -0.1188 -0.2001  0.2677
  153SAPE   HN216871   5.659   0.096   6.810 -1.2185 -0.8801  1.1093
  153SAPE   HN316872   5.523   0.007   6.777  0.5170  0.2041  2.6167
  153SAPE   C1216873   5.633   0.045   6.600 -0.2116 -0.6095  0.5764
  153SAPE  H12A16874   5.625  -0.057   6.556  1.9045 -2.0609  3.2244
  153SAPE  H12B16875   5.738   0.076   6.582 -0.0735 -1.3993 -0.0100
  153SAPE   C1116876   5.528   0.151   6.544  0.3221  0.5924  0.1086
  153SAPE  H11A16877   5.445   0.094   6.497  3.5510 -2.8039 -2.0597
  153SAPE  H11B16878   5.574   0.192   6.451 -1.0708  1.0214 -0.4082
  153SAPE     P16879   5.346   0.244   6.705 -0.0110  0.0131  0.4321
  153SAPE   O1316880   5.342   0.105   6.754  0.0747  0.4252  0.0743
  153SAPE   O1416881   5.335   0.353   6.804  0.4308 -0.0087  0.0512
  153SAPE   O1216882   5.491   0.255   6.630 -0.1365 -0.2993  0.0890
  153SAPE   O1116883   5.248   0.255   6.588  0.0681  0.0229 -0.1341
  153SAPE    C116884   5.250   0.350   6.485  0.0859 -0.5908 -0.5586
  153SAPE    HA16885   5.171   0.427   6.496  2.4706  1.9897 -0.5950
  153SAPE    HB16886   5.343   0.411   6.481 -0.9041  0.9294 -1.5936
  153SAPE    C216887   5.243   0.282   6.349  0.7228 -0.9513 -0.3671
  153SAPE    HS16888   5.345   0.247   6.319  0.5245 -1.9842  0.1311
  153SAPE   O2116889   5.214   0.390   6.255  0.1306  0.8998 -0.1297
  153SAPE   C2116890   5.276   0.385   6.140  0.5673 -1.3030 -0.6107
  153SAPE   O2216891   5.364   0.310   6.108 -0.4088  0.6080 -0.2629
  153SAPE   C2216892   5.205   0.490   6.044  0.5132 -0.2950  0.0795
  153SAPE   H2R16893   5.096   0.497   6.061  0.8092  0.0417  2.2039
  153SAPE   H2S16894   5.231   0.598   6.058 -1.7916  0.2663  0.3502
  153SAPE    C316895   5.136   0.171   6.335 -0.3290 -0.0921  0.0554
  153SAPE    HX16896   5.037   0.221   6.338 -2.4819 -3.8666 -0.4449
  153SAPE    HY16897   5.135   0.100   6.420 -0.6219  2.3699  2.2208
  153SAPE   O3116898   5.143   0.107   6.203  0.6592 -0.1448  0.3379
  153SAPE   C3116899   5.221   0.002   6.197 -0.2596  0.6331 -0.0833
  153SAPE   O3216900   5.285  -0.046   6.293  0.4712 -0.2171 -0.2906
  153SAPE   C3216901   5.192  -0.066   6.057 -0.2041 -0.3231 -0.6092
  153SAPE   H2X16902   5.254  -0.158   6.050  0.2131 -0.1116  0.1405
  153SAPE   H2Y16903   5.229   0.004   5.979 -3.1169  2.4711  0.2657
  153SAPE   C2316904   5.230   0.460   5.895 -0.2667  0.3125  0.0306
  153SAPE   H3R16905   5.335   0.433   5.871 -0.8473 -2.9011  0.6635
  153SAPE   H3S16906   5.206   0.558   5.848  0.6431  0.9396  0.8378
  153SAPE   C2416907   5.137   0.362   5.827  0.2958 -0.4159  0.1713
  153SAPE   H4R16908   5.033   0.400   5.836  0.4313  0.9075 -2.6946
  153SAPE   H4S16909   5.117   0.264   5.875 -1.2251 -0.3812 -0.3417
  153SAPE   C2516910   5.173   0.344   5.679 -0.2661 -0.0306 -0.0111
  153SAPE   H5R16911   5.240   0.259   5.660  0.3602  0.5367 -0.3914
  153SAPE   C2616912   5.118   0.403   5.576  0.9032 -0.0226  0.2095
  153SAPE   H6R16913   5.149   0.378   5.473  0.1466 -1.1473  0.2302
  153SAPE   C2716914   5.007   0.517   5.590 -0.9718 -0.5484 -0.2781
  153SAPE   H7R16915   4.943   0.497   5.679 -0.0072 -0.7318  0.3896
  153SAPE   H7S16916   4.937   0.503   5.505 -0.3153  1.3287 -1.1882
  153SAPE   C2816917   5.061   0.659   5.603  0.0277 -0.1720 -0.0066
  153SAPE   H8R16918   5.091   0.699   5.701 -0.0737  0.3028 -0.1638
  153SAPE   C2916919   5.060   0.750   5.500  0.0346 -0.2282  0.1203
  153SAPE   H9R16920   5.093   0.854   5.516  0.2592 -0.2044 -0.4706
  153SAPE  C21016921   5.006   0.734   5.359 -0.3198  0.2189 -0.1657
  153SAPE  H10R16922   4.964   0.631   5.350 -0.0573  0.1175 -0.2254
  153SAPE  H10S16923   5.091   0.750   5.289  0.8414  1.5798  1.4756
  153SAPE  C21116924   4.889   0.827   5.346  0.8076  0.4514  0.0537
  153SAPE  H11R16925   4.821   0.820   5.432  0.3632 -0.9278 -0.3825
  153SAPE  C21216926   4.866   0.906   5.242  0.2834 -0.1110 -0.2773
  153SAPE  H12R16927   4.785   0.976   5.266  0.4917 -0.0854  0.3685
  153SAPE  C21316928   4.930   0.932   5.105  0.7654 -0.8370 -0.2724
  153SAPE  H13R16929   5.011   0.857   5.090  1.3624  0.2110 -2.8759
  153SAPE  H13S16930   4.982   1.030   5.103  0.6148 -0.7577 -1.6962
  153SAPE  C21416931   4.845   0.918   4.981  0.3184 -0.3416 -0.0458
  153SAPE  H14R16932   4.756   0.854   4.997 -0.4743 -0.2148 -3.1464
  153SAPE  C21516933   4.852   0.998   4.868  0.5790  0.4340 -0.5388
  153SAPE  H15R16934   4.785   0.968   4.786  1.1812 -4.9485  0.5971
  153SAPE  C21616935   4.958   1.097   4.836  0.6483 -0.4417 -0.0502
  153SAPE  H16R16936   5.042   1.094   4.910  0.7060  1.5896 -0.0008
  153SAPE  H16S16937   4.919   1.198   4.857 -2.4811 -1.9492  2.2293
  153SAPE  C21716938   5.017   1.094   4.690 -0.0918  0.7085 -0.3462
  153SAPE  H17R16939   5.078   1.002   4.676 -0.5348 -0.0952  2.3969
  153SAPE  H17S16940   5.077   1.187   4.686 -0.4663  1.0798  1.7417
  153SAPE  C21816941   4.917   1.098   4.573 -0.2864 -0.1124 -0.8242
  153SAPE  H18R16942   4.883   1.204   4.563 -1.5244 -0.3585  0.4705
  153SAPE  H18S16943   4.825   1.042   4.599  0.1702  0.0297  1.3001
  153SAPE  C21916944   4.963   1.073   4.427 -0.2067 -0.5295 -0.3519
  153SAPE  H19R16945   5.006   0.971   4.424 -0.9173 -1.0168  2.5409
  153SAPE  H19S16946   5.045   1.144   4.403 -0.2747 -0.8808 -1.6642
  153SAPE  C22016947   4.847   1.079   4.320  0.0598 -0.1972  0.0924
  153SAPE  H20R16948   4.789   1.174   4.325 -0.2758 -0.3930 -0.1092
  153SAPE  H20S16949   4.785   0.988   4.329  0.4442 -0.3026  2.4868
  153SAPE  H20T16950   4.903   1.067   4.225 -0.9657  1.1720 -0.7155
  153SAPE   C3316951   5.045  -0.089   6.004 -0.2569 -0.1715  0.2502
  153SAPE   H3X16952   4.986   0.005   5.996 -0.6480 -0.5807 -2.3840
  153SAPE   H3Y16953   5.001  -0.155   6.081 -1.6198  0.8047  0.3454
  153SAPE   C3416954   5.046  -0.154   5.873  0.5228 -0.0107 -0.6538
  153SAPE   H4X16955   4.945  -0.182   5.838  1.0628 -1.3172 -1.2431
  153SAPE   H4Y16956   5.093  -0.254   5.880 -1.6617 -1.1154 -0.9475
  153SAPE   C3516957   5.098  -0.073   5.747 -0.9492  0.3660  0.5236
  153SAPE   H5X16958   5.208  -0.060   5.754 -0.9486  0.9815 -0.4716
  153SAPE   H5Y16959   5.060   0.031   5.751 -0.8618  0.4035  0.3934
  153SAPE   C3616960   5.067  -0.139   5.608  0.3812 -0.0798 -0.0351
  153SAPE   H6X16961   4.963  -0.177   5.603  0.4125 -0.0787 -0.8089
  153SAPE   H6Y16962   5.130  -0.230   5.603  0.9223  0.3108 -0.5681
  153SAPE   C3716963   5.083  -0.048   5.482  0.0978  0.0457 -0.3661
  153SAPE   H7X16964   5.183  -0.001   5.489  0.0776 -0.1136  1.4664
  153SAPE   H7Y16965   5.019   0.043   5.480  0.3687  0.2212 -1.0040
  153SAPE   C3816966   5.064  -0.123   5.350  0.0905 -0.2096  0.4517
  153SAPE   H8X16967   4.953  -0.124   5.342 -0.1238  0.6176  2.6851
  153SAPE   H8Y16968   5.092  -0.230   5.343  1.0436  0.1090 -0.8638
  153SAPE   C3916969   5.121  -0.044   5.229 -0.3080 -1.0015 -1.0357
  153SAPE   H9X16970   5.218  -0.003   5.262 -0.4067 -1.5288 -0.0416
  153SAPE   H9Y16971   5.064   0.049   5.207  1.9530  0.4090 -1.1638
  153SAPE  C31016972   5.130  -0.139   5.108  0.2906 -0.0561 -0.7389
  153SAPE  H10X16973   5.026  -0.164   5.078  0.4512 -0.4469 -0.9810
  153SAPE  H10Y16974   5.182  -0.223   5.159 -1.2959  0.3433  1.7284
  153SAPE  C31116975   5.196  -0.078   4.982 -0.4483  0.1972  0.1140
  153SAPE  H11X16976   5.306  -0.083   4.997 -0.3242 -2.0052 -1.1009
  153SAPE  H11Y16977   5.154   0.022   4.956  2.5841  1.6347  0.1784
  153SAPE  C31216978   5.168  -0.181   4.869 -0.1612  0.1818  0.2393
  153SAPE  H12X16979   5.059  -0.186   4.852  0.2795 -0.1254 -3.3570
  153SAPE  H12Y16980   5.204  -0.282   4.900 -0.3647 -0.0828 -0.3773
  153SAPE  C31316981   5.226  -0.130   4.739  0.9242  0.3168  0.1260
  153SAPE  H13X16982   5.323  -0.183   4.729  0.0231 -1.4697  0.3564
  153SAPE  H13Y16983   5.250  -0.022   4.739  0.0044  0.5663 -1.9697
  153SAPE  C31416984   5.144  -0.172   4.610  0.0587  0.4877  0.1767
  153SAPE  H14X16985   5.052  -0.111   4.608 -0.7353 -0.6521 -3.0706
  153SAPE  H14Y16986   5.106  -0.276   4.622 -0.7762  1.0067  2.5188
  153SAPE  C31516987   5.221  -0.150   4.473  0.2459  0.3057  0.3510
  153SAPE  H15X16988   5.253  -0.046   4.452 -1.2089  0.5913 -0.6544
  153SAPE  H15Y16989   5.145  -0.167   4.394  1.7673  0.0920 -1.1367
  153SAPE  C31616990   5.338  -0.233   4.445  0.0964  0.0817 -0.0019
  153SAPE  H16X16991   5.314  -0.339   4.467  0.8479  0.0489  0.7013
  153SAPE  H16Y16992   5.414  -0.202   4.520 -0.6373  2.0555 -0.0233
  153SAPE  C31716993   5.398  -0.205   4.304 -0.1577 -0.5356 -0.6771
  153SAPE  H17X16994   5.337  -0.251   4.224 -2.2776 -0.9155  1.0798
  153SAPE  H17Y16995   5.485  -0.274   4.296 -0.0295 -0.1542 -3.1252
  153SAPE  C31816996   5.445  -0.062   4.276 -0.2846  0.1601  0.0679
  153SAPE  H18X16997   5.501  -0.029   4.365  0.4702 -1.1655  0.1154
  153SAPE  H18Y16998   5.357   0.007   4.275  0.9241  1.7727 -1.2544
  153SAPE  H18Z16999   5.502  -0.049   4.181 -0.2359  1.7038  0.2852
  154SAPE     N17000   0.193   6.511   6.292 -0.1226  0.2576  0.4715
  154SAPE   HN117001   0.256   6.481   6.214 -0.0926  1.9174 -0.1767
  154SAPE   HN217002   0.226   6.453   6.372  0.6075 -1.1174 -0.7774
  154SAPE   HN317003   0.101   6.464   6.288  0.3534 -0.6387 -0.6341
  154SAPE   C1217004   0.194   6.660   6.314  0.2197  0.3180 -0.3678
  154SAPE  H12A17005   0.134   6.668   6.407 -0.8194 -1.5825 -0.8062
  154SAPE  H12B17006   0.134   6.711   6.235 -0.6297 -1.6074 -1.0285
  154SAPE   C1117007   0.334   6.706   6.323 -0.8978 -0.2156 -0.8363
  154SAPE  H11A17008   0.327   6.816   6.338 -0.4072 -0.4159  1.1031
  154SAPE  H11B17009   0.394   6.685   6.232  0.7573 -0.7568  0.3386
  154SAPE     P17010   0.551   6.688   6.463  0.2971  0.0843 -0.1016
  154SAPE   O1317011   0.547   6.834   6.448 -0.0883 -0.1125 -0.3671
  154SAPE   O1417012   0.605   6.631   6.588  0.6851  0.0615 -0.4408
  154SAPE   O1217013   0.404   6.643   6.438 -0.0400 -0.3876 -0.1677
  154SAPE   O1117014   0.634   6.633   6.345 -0.4431  0.0818 -0.2388
  154SAPE    C117015   0.628   6.497   6.305 -0.1883  0.6671 -0.6322
  154SAPE    HA17016   0.723   6.452   6.340 -0.9191  1.8341  3.3232
  154SAPE    HB17017   0.556   6.433   6.360  1.0665 -0.2185  0.0457
  154SAPE    C217018   0.603   6.488   6.151  0.7282  0.1924 -0.2229
  154SAPE    HS17019   0.512   6.545   6.124  0.8851  0.3526 -0.4153
  154SAPE   O2117020   0.585   6.348   6.112  0.1878  0.0352 -0.4395
  154SAPE   C2117021   0.456   6.309   6.110  0.4030  0.3732 -0.0165
  154SAPE   O2217022   0.362   6.375   6.143 -0.4630 -0.0855 -0.0023
  154SAPE   C2217023   0.450   6.162   6.080 -0.3743  0.3700  0.2718
  154SAPE   H2R17024   0.555   6.128   6.075 -1.4143 -3.2640  0.1144
  154SAPE   H2S17025   0.397   6.113   6.165 -0.5451  0.8801  0.4628
  154SAPE    C317026   0.721   6.543   6.081 -0.1428  0.7116 -0.0330
  154SAPE    HX17027   0.815   6.488   6.100  0.6419  0.1147 -4.5811
  154SAPE    HY17028   0.737   6.645   6.122  3.7049 -0.1129  0.8922
  154SAPE   O3117029   0.688   6.553   5.932 -0.3537  0.3159  0.2384
  154SAPE   C3117030   0.769   6.502   5.851 -0.7084 -0.1121 -0.1920
  154SAPE   O3217031   0.878   6.447   5.880  0.1182 -0.5928 -0.1018
  154SAPE   C3217032   0.712   6.525   5.714 -0.0335 -0.7124 -0.1400
  154SAPE   H2X17033   0.775   6.604   5.667 -0.4979 -0.1286  0.2057
  154SAPE   H2Y17034   0.607   6.561   5.711  0.3024  0.3200  0.1660
  154SAPE   C2317035   0.380   6.132   5.945  0.8090 -0.4899 -0.1591
  154SAPE   H3R17036   0.391   6.027   5.910 -1.2248 -1.0943  0.8794
  154SAPE   H3S17037   0.420   6.191   5.860 -0.5600 -0.9018 -1.1193
  154SAPE   C2417038   0.227   6.145   5.943 -0.4016  0.8030  0.4572
  154SAPE   H4R17039   0.188   6.106   5.847  0.2422 -0.3978  0.6716
  154SAPE   H4S17040   0.195   6.249   5.968 -1.1536  1.1869 -1.9302
  154SAPE   C2517041   0.163   6.058   6.051 -0.3227  0.7016 -0.0690
  154SAPE   H5R17042   0.162   6.108   6.149 -1.3236  1.9063 -0.6694
  154SAPE   C2617043   0.105   5.936   6.046  0.3836 -0.1883 -0.3806
  154SAPE   H6R17044   0.085   5.877   6.136 -0.5562 -1.2317 -1.2433
  154SAPE   C2717045   0.091   5.862   5.917 -0.4791 -0.1082  0.4712
  154SAPE   H7R17046   0.108   5.928   5.830  0.3591  0.5871  1.1418
  154SAPE   H7S17047  -0.013   5.824   5.908  0.3248 -2.3650 -0.0721
  154SAPE   C2817048   0.182   5.740   5.913  0.5081 -0.1291  0.2344
  154SAPE   H8R17049   0.214   5.710   6.014  0.8032  1.3289  0.6049
  154SAPE   C2917050   0.225   5.670   5.804 -0.2316 -0.6094  0.5687
  154SAPE   H9R17051   0.272   5.571   5.815 -0.9271 -0.9845  0.2589
  154SAPE  C21017052   0.178   5.699   5.659  0.3650 -0.1472 -0.2601
  154SAPE  H10R17053   0.254   5.740   5.589 -0.0048 -0.9688 -1.1680
  154SAPE  H10S17054   0.122   5.794   5.661 -0.1395 -0.4525  0.5830
  154SAPE  C21117055   0.086   5.594   5.608  0.1702  0.7726  0.8791
  154SAPE  H11R17056   0.047   5.522   5.681  2.4498 -3.3265 -1.5447
  154SAPE  C21217057   0.047   5.587   5.480 -0.2651  0.4500  0.1023
  154SAPE  H12R17058  -0.030   5.511   5.460 -1.6066  2.0168 -0.8601
  154SAPE  C21317059   0.095   5.679   5.369  0.0036  1.2954 -0.5960
  154SAPE  H13R17060   0.197   5.642   5.347  0.5387  0.1413  3.1650
  154SAPE  H13S17061   0.106   5.777   5.420  1.4451  0.1756  1.3895
  154SAPE  C21417062   0.011   5.671   5.246 -0.3674 -0.4875  0.1382
  154SAPE  H14R17063  -0.092   5.632   5.257  0.3496 -2.5729 -0.0961
  154SAPE  C21517064   0.053   5.709   5.129  0.0029 -0.7535  0.5601
  154SAPE  H15R17065  -0.006   5.698   5.037 -0.3497 -0.7127  0.7791
  154SAPE  C21617066   0.190   5.767   5.111 -0.2329 -0.4294 -0.0087
  154SAPE  H16R17067   0.246   5.732   5.022 -0.3478  0.6114 -0.5137
  154SAPE  H16S17068   0.274   5.741   5.178  0.4655  0.7389 -0.4038
  154SAPE  C21717069   0.172   5.920   5.094  0.3491 -0.0828  0.3786
  154SAPE  H17R17070   0.129   5.985   5.173 -2.2811 -0.4517 -0.6351
  154SAPE  H17S17071   0.094   5.938   5.017  0.8442 -1.8692 -0.6123
  154SAPE  C21817072   0.300   5.989   5.048 -1.0018 -0.3586 -0.8182
  154SAPE  H18R17073   0.328   5.933   4.957 -1.4537 -1.2836 -0.4004
  154SAPE  H18S17074   0.382   5.974   5.122 -0.0673  0.6641 -1.6225
  154SAPE  C21917075   0.275   6.142   5.027 -0.2471 -0.3443 -0.3345
  154SAPE  H19R17076   0.169   6.144   4.994 -0.4906  0.0400  0.4368
  154SAPE  H19S17077   0.352   6.187   4.962 -1.2196  1.7796 -0.1006
  154SAPE  C22017078   0.283   6.220   5.164 -0.2885 -0.0507 -0.1129
  154SAPE  H20R17079   0.195   6.193   5.226  2.4976 -0.0478  4.2014
  154SAPE  H20S17080   0.289   6.328   5.141  0.1895  0.3019  1.5671
  154SAPE  H20T17081   0.366   6.178   5.224  0.6356  0.9364 -0.6736
  154SAPE   C3317082   0.728   6.418   5.606  0.0883  0.9254  0.6380
  154SAPE   H3X17083   0.659   6.332   5.622 -0.5018  1.3191  0.2684
  154SAPE   H3Y17084   0.833   6.381   5.603 -0.1048  0.2658  1.4497
  154SAPE   C3417085   0.698   6.477   5.464  0.5424 -0.1474  0.3221
  154SAPE   H4X17086   0.764   6.564   5.441 -1.2703  0.8471 -1.3606
  154SAPE   H4Y17087   0.595   6.518   5.472 -0.1476 -1.8249  0.3462
  154SAPE   C3517088   0.706   6.372   5.348 -0.9293 -0.0450  0.1002
  154SAPE   H5X17089   0.647   6.288   5.391 -2.2531  0.2832 -0.9977
  154SAPE   H5Y17090   0.814   6.347   5.336 -1.1117 -0.0236 -1.8739
  154SAPE   C3617091   0.655   6.428   5.217 -0.0935 -0.1457 -0.0644
  154SAPE   H6X17092   0.728   6.504   5.183  0.5397 -0.6982  0.0431
  154SAPE   H6Y17093   0.556   6.476   5.234 -1.1018 -2.2352  0.3330
  154SAPE   C3717094   0.636   6.326   5.108 -0.1082 -0.3334 -0.3414
  154SAPE   H7X17095   0.569   6.244   5.140  1.2894 -1.3368  0.1171
  154SAPE   H7Y17096   0.730   6.270   5.087  0.4694  0.3234  0.4027
  154SAPE   C3817097   0.578   6.376   4.972  0.1266 -0.3040 -0.4536
  154SAPE   H8X17098   0.618   6.479   4.963  0.3587 -0.4836 -1.6099
  154SAPE   H8Y17099   0.467   6.386   4.976  0.1591  1.0867 -2.1690
  154SAPE   C3917100   0.612   6.297   4.853  0.4782 -0.2491  0.4576
  154SAPE   H9X17101   0.568   6.330   4.756  0.6252 -1.0511  0.1042
  154SAPE   H9Y17102   0.573   6.194   4.866  2.1273 -0.7280  1.9734
  154SAPE  C31017103   0.764   6.281   4.818  0.2383  0.6067  0.1444
  154SAPE  H10X17104   0.818   6.232   4.902  0.3901 -1.4573 -1.0666
  154SAPE  H10Y17105   0.818   6.378   4.819  3.5764 -1.0896  0.3064
  154SAPE  C31117106   0.793   6.213   4.680 -0.2789  0.2858  0.7522
  154SAPE  H11X17107   0.758   6.279   4.598  1.7099  0.4255 -0.0136
  154SAPE  H11Y17108   0.730   6.121   4.676  0.4346 -0.1867  0.1752
  154SAPE  C31217109   0.934   6.162   4.654 -0.1366  0.2911 -0.7070
  154SAPE  H12X17110   0.965   6.098   4.740 -0.4923  1.4118  0.2790
  154SAPE  H12Y17111   0.999   6.252   4.659  0.8132 -0.4379  2.1803
  154SAPE  C31317112   0.941   6.075   4.520  0.4310 -1.2377 -0.5180
  154SAPE  H13X17113   1.047   6.051   4.501  1.0790  1.3009 -0.4408
  154SAPE  H13Y17114   0.910   6.141   4.437 -1.0430  0.5007  1.3203
  154SAPE  C31417115   0.873   5.940   4.518  0.0621  0.3525  0.0447
  154SAPE  H14X17116   0.763   5.947   4.533 -0.5845 -3.4370 -1.5170
  154SAPE  H14Y17117   0.912   5.890   4.609 -1.8811  1.3251  1.4740
  154SAPE  C31517118   0.924   5.870   4.394 -0.4299  0.0776  0.2051
  154SAPE  H15X17119   1.030   5.846   4.415 -0.4065  0.4393  0.5047
  154SAPE  H15Y17120   0.914   5.932   4.303 -1.7971 -2.4918 -1.5128
  154SAPE  C31617121   0.848   5.749   4.362 -0.5027  0.0149 -0.2258
  154SAPE  H16X17122   0.742   5.777   4.344  0.0674  2.2793 -0.3607
  154SAPE  H16Y17123   0.852   5.671   4.441 -1.4335  0.2704  0.0860
  154SAPE  C31717124   0.892   5.681   4.229 -0.1296  0.7240  0.5916
  154SAPE  H17X17125   1.003   5.685   4.223 -0.1805  1.3705  0.0185
  154SAPE  H17Y17126   0.847   5.746   4.151  1.6526  0.4640 -0.7037
  154SAPE  C31817127   0.835   5.537   4.213 -0.3298  0.9052  0.2479
  154SAPE  H18X17128   0.880   5.484   4.127 -0.1391  2.9351 -0.9937
  154SAPE  H18Y17129   0.724   5.541   4.202 -0.6784 -0.5981  2.5845
  154SAPE  H18Z17130   0.853   5.474   4.302 -0.9304  0.1854 -0.1365
  155SAPE     N17131   4.260   4.528   6.944 -0.5931  0.2198  0.1178
  155SAPE   HN117132   4.219   4.594   6.875 -2.1626 -2.4287 -1.6870
  155SAPE   HN217133   4.243   4.427   6.923 -2.1165  0.5425 -0.3132
  155SAPE   HN317134   4.221   4.548   7.038  1.0183 -0.4268  0.9703
  155SAPE   C1217135   4.414   4.559   6.947  0.3345  0.0676 -0.6946
  155SAPE  H12A17136   4.467   4.480   6.891  1.5190 -1.4262  2.2752
  155SAPE  H12B17137   4.443   4.535   7.052 -1.9368  0.4640  0.0661
  155SAPE   C1117138   4.430   4.700   6.894  0.0748  0.1594  0.0030
  155SAPE  H11A17139   4.539   4.721   6.887  0.4364 -0.4637  2.6238
  155SAPE  H11B17140   4.372   4.774   6.953  0.3084  0.7567 -0.5153
  155SAPE     P17141   4.389   4.802   6.657 -0.1160  0.2100  0.3532
  155SAPE   O1317142   4.286   4.901   6.680 -0.1556 -0.1256 -0.0056
  155SAPE   O1417143   4.535   4.846   6.651  0.0480  0.1789 -0.1075
  155SAPE   O1217144   4.378   4.686   6.765 -0.3457 -0.9639  0.4704
  155SAPE   O1117145   4.363   4.726   6.519  0.6221  1.1322 -0.0806
  155SAPE    C117146   4.333   4.590   6.524  0.6006  1.3125 -0.4925
  155SAPE    HA17147   4.406   4.534   6.586 -1.3167  1.0926  1.7462
  155SAPE    HB17148   4.232   4.590   6.572 -0.3227  0.9354 -2.3645
  155SAPE    C217149   4.330   4.537   6.375  0.3277 -0.2544  0.3483
  155SAPE    HS17150   4.345   4.427   6.384  3.4514  0.0548  0.0862
  155SAPE   O2117151   4.438   4.599   6.296  0.0795  0.0520  0.7064
  155SAPE   C2117152   4.561   4.567   6.334  0.0318  0.3323 -0.2274
  155SAPE   O2217153   4.594   4.475   6.409  0.2635  0.4695  0.6934
  155SAPE   C2217154   4.664   4.649   6.257  0.5447 -0.5652 -0.0376
  155SAPE   H2R17155   4.766   4.605   6.245  1.0589  1.0232 -2.0917
  155SAPE   H2S17156   4.619   4.656   6.156 -0.5312  0.4853  0.4982
  155SAPE    C317157   4.184   4.565   6.318  0.5462 -0.3567  0.2683
  155SAPE    HX17158   4.171   4.675   6.319  2.0205  0.0921 -4.2162
  155SAPE    HY17159   4.112   4.516   6.387 -0.4248  0.2432 -0.3064
  155SAPE   O3117160   4.157   4.533   6.186 -0.7435  0.0383 -0.3067
  155SAPE   C3117161   4.158   4.405   6.145  0.6962  0.2946 -0.3202
  155SAPE   O3217162   4.181   4.309   6.216  0.8037  0.0346 -0.0979
  155SAPE   C3217163   4.116   4.409   6.001 -0.3239 -0.0665 -0.6003
  155SAPE   H2X17164   4.213   4.421   5.949 -0.1909 -1.5614 -0.7595
  155SAPE   H2Y17165   4.042   4.488   5.975  0.4867  1.1655  0.7601
  155SAPE   C2317166   4.700   4.785   6.320 -0.4587  0.4946  0.0108
  155SAPE   H3R17167   4.722   4.771   6.428  1.2521  0.9180 -0.2507
  155SAPE   H3S17168   4.608   4.846   6.321 -0.3661  0.6652  2.1240
  155SAPE   C2417169   4.812   4.871   6.251  0.0641  0.5537 -0.2500
  155SAPE   H4R17170   4.833   4.957   6.317 -1.7910 -1.3492  3.1383
  155SAPE   H4S17171   4.777   4.919   6.157 -0.9251  0.0244 -0.1613
  155SAPE   C2517172   4.944   4.814   6.212  0.0719  0.5557  0.0537
  155SAPE   H5R17173   5.014   4.830   6.295 -0.4705  0.1837  0.5971
  155SAPE   C2617174   4.993   4.767   6.093 -0.3348 -0.2174 -0.1864
  155SAPE   H6R17175   5.102   4.758   6.090 -0.0156  1.7210  2.0584
  155SAPE   C2717176   4.906   4.777   5.966  0.2665 -0.3392 -0.3835
  155SAPE   H7R17177   4.851   4.872   5.954 -4.5198 -2.6512  0.7657
  155SAPE   H7S17178   4.828   4.699   5.977  0.9585 -1.3816 -2.3483
  155SAPE   C2817179   4.984   4.744   5.846 -0.2664 -0.0549  0.4790
  155SAPE   H8R17180   5.076   4.688   5.865  0.2467  0.8903  0.8652
  155SAPE   C2917181   4.945   4.763   5.716 -0.5676 -0.2691 -0.3864
  155SAPE   H9R17182   5.012   4.744   5.631 -0.6214 -1.8877 -0.1087
  155SAPE  C21017183   4.819   4.830   5.678  0.5793 -0.6745 -0.4106
  155SAPE  H10R17184   4.774   4.888   5.762  0.9344 -0.9253 -0.0472
  155SAPE  H10S17185   4.729   4.772   5.648 -1.2054  1.8206 -0.2825
  155SAPE  C21117186   4.849   4.959   5.588  0.0441  0.4886  0.1331
  155SAPE  H11R17187   4.906   5.040   5.635 -0.5559  0.5459  0.7687
  155SAPE  C21217188   4.790   4.985   5.470 -0.4834 -0.4182  0.7802
  155SAPE  H12R17189   4.811   5.075   5.411 -0.0590 -1.4117 -0.6281
  155SAPE  C21317190   4.705   4.895   5.389 -0.0455 -0.1772  0.5434
  155SAPE  H13R17191   4.629   4.963   5.347 -1.5727 -1.6340  0.8501
  155SAPE  H13S17192   4.646   4.815   5.439  1.1004 -2.0464 -0.9252
  155SAPE  C21417193   4.775   4.831   5.274  0.5320 -0.1458  0.1488
  155SAPE  H14R17194   4.842   4.748   5.299  1.0939 -0.7879 -3.0249
  155SAPE  C21517195   4.749   4.843   5.139 -0.1515 -0.3242 -0.4603
  155SAPE  H15R17196   4.823   4.801   5.069  0.0132  1.0502 -1.1421
  155SAPE  C21617197   4.651   4.946   5.079 -0.1124  0.3902  0.0645
  155SAPE  H16R17198   4.711   5.026   5.032  1.9844 -0.4648  1.1130
  155SAPE  H16S17199   4.600   4.995   5.165 -0.2487 -1.7353  1.2891
  155SAPE  C21717200   4.543   4.899   4.990  0.9747 -0.5449 -0.5890
  155SAPE  H17R17201   4.471   4.980   4.967  1.4415 -0.3026 -1.2237
  155SAPE  H17S17202   4.482   4.827   5.049  0.1345  1.2118  0.7448
  155SAPE  C21817203   4.595   4.846   4.859 -0.1414 -0.2179  0.4147
  155SAPE  H18R17204   4.655   4.757   4.888  0.3320  0.9139  3.2242
  155SAPE  H18S17205   4.659   4.930   4.823 -1.1220  0.7327  0.8537
  155SAPE  C21917206   4.483   4.798   4.768  0.0601  0.5171 -0.2494
  155SAPE  H19R17207   4.415   4.749   4.841  1.8416  1.2625  2.0588
  155SAPE  H19S17208   4.528   4.728   4.694  2.7821  1.3128  0.5102
  155SAPE  C22017209   4.410   4.906   4.684  0.0433  0.4761 -0.5812
  155SAPE  H20R17210   4.348   4.852   4.609 -2.0503  1.6192  0.2237
  155SAPE  H20S17211   4.472   4.974   4.622 -0.0117  2.2437  1.1781
  155SAPE  H20T17212   4.337   4.954   4.753 -0.0167 -3.0960  2.1482
  155SAPE   C3317213   4.053   4.274   5.951 -0.8490  0.6390  0.1991
  155SAPE   H3X17214   3.942   4.274   5.962 -0.9127 -1.8768  0.1506
  155SAPE   H3Y17215   4.101   4.191   6.007  0.2261  1.1483  0.0522
  155SAPE   C3417216   4.094   4.265   5.808  0.2083 -0.1155  0.5608
  155SAPE   H4X17217   4.203   4.241   5.798  0.2922  0.1724  0.7706
  155SAPE   H4Y17218   4.083   4.357   5.747 -0.0483 -0.7537 -0.3906
  155SAPE   C3517219   4.024   4.148   5.731  0.1241 -0.2191  0.9476
  155SAPE   H5X17220   3.913   4.155   5.730  0.0022 -1.7605  0.0839
  155SAPE   H5Y17221   4.050   4.059   5.792  1.4890 -1.8375 -1.8272
  155SAPE   C3617222   4.076   4.141   5.587 -0.2500  0.6066  0.3418
  155SAPE   H6X17223   4.175   4.190   5.579 -0.2127  0.4080 -0.4802
  155SAPE   H6Y17224   4.003   4.198   5.525  0.5873  0.9885 -0.3196
  155SAPE   C3717225   4.089   3.995   5.524 -0.2738  0.8236 -0.1174
  155SAPE   H7X17226   3.986   3.953   5.532 -0.7584  1.2786 -2.9312
  155SAPE   H7Y17227   4.158   3.932   5.585  0.1922 -0.2059 -1.6485
  155SAPE   C3817228   4.152   3.986   5.382  0.9140 -0.5870  0.5185
  155SAPE   H8X17229   4.167   3.882   5.347 -0.2864 -0.6111  0.0390
  155SAPE   H8Y17230   4.248   4.041   5.384  3.5006 -4.4507 -2.9992
  155SAPE   C3917231   4.066   4.060   5.277  0.1212  0.1283  0.4729
  155SAPE   H9X17232   4.061   4.169   5.295  0.4889  0.3046 -0.4888
  155SAPE   H9Y17233   3.960   4.028   5.288  0.6810 -1.7201  0.8650
  155SAPE  C31017234   4.119   4.036   5.132 -0.3425 -0.2698  0.2498
  155SAPE  H10X17235   4.103   3.928   5.110  1.0979 -0.7127  1.2339
  155SAPE  H10Y17236   4.227   4.056   5.121  0.3553 -2.8912  1.5298
  155SAPE  C31117237   4.036   4.134   5.030 -0.0279  0.3398  0.2929
  155SAPE  H11X17238   4.085   4.233   5.042  3.0474 -1.0861  0.4816
  155SAPE  H11Y17239   3.928   4.126   5.056  0.1915 -0.7321  0.9712
  155SAPE  C31217240   4.042   4.078   4.887 -0.9521 -0.6722  0.2835
  155SAPE  H12X17241   3.997   3.976   4.889 -0.2368 -0.9854  2.3095
  155SAPE  H12Y17242   4.148   4.062   4.859 -1.3028 -0.8183 -1.0566
  155SAPE  C31317243   3.962   4.171   4.796  0.6846 -0.4982 -0.3649
  155SAPE  H13X17244   4.007   4.272   4.794  2.2190 -1.1011  1.2321
  155SAPE  H13Y17245   3.866   4.186   4.849  0.6162 -0.1385 -0.5847
  155SAPE  C31417246   3.925   4.113   4.656 -0.8150 -0.4319 -0.2780
  155SAPE  H14X17247   3.892   4.007   4.656  1.9174 -1.4075 -2.6832
  155SAPE  H14Y17248   4.019   4.112   4.597  0.1232 -1.8804  1.1504
  155SAPE  C31517249   3.814   4.199   4.596  0.2634  0.1390 -0.9768
  155SAPE  H15X17250   3.727   4.212   4.665  0.6554 -2.1300  0.0259
  155SAPE  H15Y17251   3.774   4.144   4.508 -2.6905  2.8954 -1.5478
  155SAPE  C31617252   3.856   4.334   4.539 -0.1660  0.3791  0.0149
  155SAPE  H16X17253   3.949   4.329   4.479 -0.4523 -0.7188 -0.3574
  155SAPE  H16Y17254   3.881   4.390   4.632  1.4803 -1.4490  0.7456
  155SAPE  C31717255   3.750   4.396   4.444  0.7684  0.6825  0.6441
  155SAPE  H17X17256   3.649   4.395   4.491  0.8228  1.6123  0.7973
  155SAPE  H17Y17257   3.753   4.318   4.365  0.8577  0.7240  0.6056
  155SAPE  C31817258   3.790   4.532   4.386 -0.1837 -0.3386 -0.9483
  155SAPE  H18X17259   3.733   4.547   4.292 -1.2187  0.5832 -0.2034
  155SAPE  H18Y17260   3.900   4.537   4.375 -0.3389  0.5198 -2.3460
  155SAPE  H18Z17261   3.759   4.608   4.461 -0.9151 -0.7504 -0.8248
  156SAPE     N17262   6.339   6.699   6.678 -0.3074 -0.8497 -0.3122
  156SAPE   HN117263   6.309   6.686   6.777  1.0799  0.3383  0.3185
  156SAPE   HN217264   6.252   6.712   6.624 -2.1924 -3.6254  1.7821
  156SAPE   HN317265   6.394   6.615   6.651  1.8144  1.0495 -2.4060
  156SAPE   C1217266   6.426   6.817   6.669 -0.1367  0.1975 -0.6849
  156SAPE  H12A17267   6.387   6.888   6.745 -2.6486 -3.5199  1.8277
  156SAPE  H12B17268   6.404   6.865   6.572 -0.9447  1.6847  0.2049
  156SAPE   C1117269   6.566   6.773   6.679 -0.5966 -0.3472 -0.6865
  156SAPE  H11A17270   6.593   6.721   6.774  2.8277 -1.2780 -2.0346
  156SAPE  H11B17271   6.630   6.864   6.691 -1.8034  0.3092  1.4459
  156SAPE     P17272   6.751   6.648   6.545  0.2436  0.5796  0.1249
  156SAPE   O1317273   6.838   6.748   6.609  0.2081  0.1703  0.5167
  156SAPE   O1417274   6.778   6.504   6.578 -0.2429 -0.1519 -0.3775
  156SAPE   O1217275   6.598   6.681   6.575 -0.7445 -0.5129  0.5341
  156SAPE   O1117276   6.768   6.667   6.388 -0.1747  0.0086 -0.5424
  156SAPE    C117277   6.712   6.786   6.324  0.2362  0.8357  0.1459
  156SAPE    HA17278   6.702   6.877   6.387 -0.1190  0.4492  0.6556
  156SAPE    HB17279   6.782   6.822   6.245 -0.5087  0.5475 -0.6602
  156SAPE    C217280   6.575   6.747   6.258 -0.1195 -0.4565 -1.0179
  156SAPE    HS17281   6.513   6.702   6.338  0.7215 -1.5428 -0.9390
  156SAPE   O2117282   6.599   6.640   6.167  0.0076 -0.0402 -0.3526
  156SAPE   C2117283   6.558   6.511   6.187  0.0039 -0.5172 -0.1051
  156SAPE   O2217284   6.505   6.470   6.289 -0.3015  0.5551 -0.8381
  156SAPE   C2217285   6.605   6.440   6.073  0.4301 -0.2555  0.4873
  156SAPE   H2R17286   6.628   6.509   5.989  2.4773 -0.6235  0.6851
  156SAPE   H2S17287   6.699   6.385   6.094  1.2559  0.1587 -1.8159
  156SAPE    C317288   6.513   6.875   6.191  0.1902 -1.2391 -0.7622
  156SAPE    HX17289   6.510   6.955   6.268  1.8471  0.7331 -2.6136
  156SAPE    HY17290   6.407   6.851   6.166  0.2062 -1.6099 -0.4825
  156SAPE   O3117291   6.593   6.911   6.068 -0.4376 -0.3468 -0.3060
  156SAPE   C3117292   6.569   7.039   6.030  0.2269  0.1785 -0.1503
  156SAPE   O3217293   6.483   7.107   6.080  0.2135  0.0751 -0.1226
  156SAPE   C3217294   6.663   7.072   5.916 -0.2400  0.3356  0.4342
  156SAPE   H2X17295   6.672   6.978   5.857  2.3346 -0.3331  1.7618
  156SAPE   H2Y17296   6.767   7.100   5.945  0.1232  0.5990 -1.0366
  156SAPE   C2317297   6.505   6.323   6.027  1.1565 -0.3499  0.4868
  156SAPE   H3R17298   6.443   6.366   5.945  2.3174  0.2181 -0.1175
  156SAPE   H3S17299   6.441   6.282   6.107  1.1649 -0.6225  0.3539
  156SAPE   C2417300   6.582   6.210   5.953 -0.8397 -0.0366 -0.6181
  156SAPE   H4R17301   6.502   6.140   5.922  0.1153 -0.9609 -1.0404
  156SAPE   H4S17302   6.640   6.159   6.033 -0.4748  1.1582 -0.1001
  156SAPE   C2517303   6.679   6.243   5.845  0.0634 -0.8118 -0.0399
  156SAPE   H5R17304   6.760   6.311   5.876 -0.5964 -0.4934  1.0456
  156SAPE   C2617305   6.688   6.208   5.713  0.8641 -0.0109  0.4795
  156SAPE   H6R17306   6.779   6.234   5.657  0.3083  0.6796 -0.1321
  156SAPE   C2717307   6.604   6.111   5.630  0.4418 -0.2271 -1.2223
  156SAPE   H7R17308   6.550   6.160   5.547 -0.3343 -1.4757 -1.4793
  156SAPE   H7S17309   6.511   6.084   5.685  0.8512 -0.4979 -0.6454
  156SAPE   C2817310   6.675   5.985   5.583  0.3617 -0.0605 -0.8111
  156SAPE   H8R17311   6.709   5.925   5.668 -1.7124  1.1425  0.9737
  156SAPE   C2917312   6.726   5.947   5.467  0.2053 -0.8072  0.2853
  156SAPE   H9R17313   6.782   5.853   5.476 -2.5532 -2.9931 -3.0045
  156SAPE  C21017314   6.732   6.032   5.340  0.6252  0.1866 -0.6250
  156SAPE  H10R17315   6.838   6.065   5.335  0.7535 -0.4147 -2.5057
  156SAPE  H10S17316   6.670   6.124   5.345 -0.4095 -0.3600 -2.3571
  156SAPE  C21117317   6.691   5.960   5.214 -0.5701 -0.4928 -0.1836
  156SAPE  H11R17318   6.658   5.855   5.213 -1.0961 -0.4088  2.5039
  156SAPE  C21217319   6.696   6.030   5.100 -0.6572  0.7266  0.1378
  156SAPE  H12R17320   6.685   5.968   5.010  0.6710  0.9701 -0.2082
  156SAPE  C21317321   6.734   6.173   5.068 -0.0484  0.1455 -0.5293
  156SAPE  H13R17322   6.738   6.188   4.958  0.6648 -0.1094 -0.5421
  156SAPE  H13S17323   6.827   6.206   5.119  0.1558 -1.9855  0.5811
  156SAPE  C21417324   6.623   6.274   5.098  0.4711 -0.1043 -0.6232
  156SAPE  H14R17325   6.608   6.283   5.206  0.0512 -3.6498 -0.2631
  156SAPE  C21517326   6.534   6.338   5.020 -0.2622 -0.5037  0.2703
  156SAPE  H15R17327   6.466   6.413   5.063  1.5136  0.8899  0.8092
  156SAPE  C21617328   6.532   6.333   4.873  0.0192  0.9193  0.5904
  156SAPE  H16R17329   6.434   6.291   4.841 -1.0124 -0.1429  4.5811
  156SAPE  H16S17330   6.619   6.283   4.827  0.2212  1.0210  0.8546
  156SAPE  C21717331   6.546   6.476   4.812  0.2717 -0.2328  0.3016
  156SAPE  H17R17332   6.656   6.494   4.821 -0.1888  2.6804  0.9128
  156SAPE  H17S17333   6.487   6.559   4.855 -2.7049 -0.6943 -2.5737
  156SAPE  C21817334   6.498   6.471   4.672  0.2843 -0.0856 -0.8167
  156SAPE  H18R17335   6.390   6.443   4.669  0.2651 -0.2779  0.7529
  156SAPE  H18S17336   6.546   6.390   4.612  1.7775 -0.7315  1.1504
  156SAPE  C21917337   6.511   6.605   4.598 -0.3073  0.2625  0.5655
  156SAPE  H19R17338   6.612   6.639   4.632  0.9743 -2.0905 -0.5857
  156SAPE  H19S17339   6.430   6.671   4.634  0.1313  0.5166  1.1025
  156SAPE  C22017340   6.503   6.592   4.442 -0.1475  0.4932  0.5217
  156SAPE  H20R17341   6.401   6.563   4.407 -0.0164 -0.1952  0.6902
  156SAPE  H20S17342   6.562   6.502   4.414  0.5346  0.8734  0.7266
  156SAPE  H20T17343   6.543   6.679   4.387  0.2423  0.2072  0.3483
  156SAPE   C3317344   6.625   7.186   5.812 -0.0717  0.3571  0.1370
  156SAPE   H3X17345   6.719   7.237   5.782 -0.1647  0.1699 -0.4902
  156SAPE   H3Y17346   6.573   7.269   5.865 -2.3044 -1.0627  0.2951
  156SAPE   C3417347   6.542   7.144   5.692  0.1426 -0.5067  0.0512
  156SAPE   H4X17348   6.443   7.113   5.731  0.7662 -3.1884 -0.3021
  156SAPE   H4Y17349   6.590   7.059   5.640  0.9374 -1.2265  1.8809
  156SAPE   C3517350   6.520   7.263   5.590 -0.3147  0.1438 -0.1604
  156SAPE   H5X17351   6.616   7.307   5.557 -0.3269 -0.4477 -1.0300
  156SAPE   H5Y17352   6.469   7.350   5.636 -0.1109  0.9483 -1.4014
  156SAPE   C3617353   6.444   7.221   5.466  0.1762  0.0393  0.6494
  156SAPE   H6X17354   6.352   7.169   5.501  0.3875 -0.6587  0.2086
  156SAPE   H6Y17355   6.500   7.151   5.400 -1.4406 -0.8507  0.1696
  156SAPE   C3717356   6.414   7.345   5.383 -0.3190 -0.6486  0.1279
  156SAPE   H7X17357   6.507   7.398   5.355 -1.7197  2.4609  0.9064
  156SAPE   H7Y17358   6.360   7.422   5.443  1.2932 -0.1651  1.0252
  156SAPE   C3817359   6.334   7.323   5.252 -1.1347  0.2038 -0.7924
  156SAPE   H8X17360   6.228   7.353   5.266 -1.4174  0.0189 -2.2959
  156SAPE   H8Y17361   6.333   7.214   5.230  0.5228  0.3093 -1.5864
  156SAPE   C3917362   6.404   7.401   5.147 -0.2082 -0.4204 -0.1217
  156SAPE   H9X17363   6.488   7.341   5.105  1.8933  2.0353  0.3684
  156SAPE   H9Y17364   6.437   7.499   5.187 -1.4359 -1.3417  3.5475
  156SAPE  C31017365   6.306   7.438   5.038  0.6501 -0.4631  0.6363
  156SAPE  H10X17366   6.360   7.498   4.961 -0.2423  1.7829  1.6692
  156SAPE  H10Y17367   6.229   7.501   5.088 -1.1009 -2.6792  0.9073
  156SAPE  C31117368   6.240   7.319   4.957 -0.3677 -0.6834 -0.3139
  156SAPE  H11X17369   6.147   7.342   4.901 -0.8176  0.7104  0.9218
  156SAPE  H11Y17370   6.216   7.246   5.037 -1.3454  1.4405  1.4560
  156SAPE  C31217371   6.341   7.251   4.863 -0.0624  0.2984  0.8343
  156SAPE  H12X17372   6.433   7.233   4.922  0.0264 -0.6837  0.4032
  156SAPE  H12Y17373   6.368   7.316   4.777 -2.2563 -0.6575 -0.6517
  156SAPE  C31317374   6.279   7.119   4.799  0.0952  0.2290  0.1490
  156SAPE  H13X17375   6.201   7.146   4.725  2.6725  1.8531 -2.1088
  156SAPE  H13Y17376   6.222   7.071   4.883 -0.2286 -0.2814 -0.3495
  156SAPE  C31417377   6.376   7.020   4.735  0.4092 -0.2638 -0.9691
  156SAPE  H14X17378   6.331   6.921   4.712  0.5969 -0.3888 -0.7944
  156SAPE  H14Y17379   6.456   7.007   4.811  1.0806  0.9476 -1.4423
  156SAPE  C31517380   6.450   7.079   4.610  0.3850  0.5126 -0.3134
  156SAPE  H15X17381   6.501   7.173   4.638  1.1276  0.3039 -0.9147
  156SAPE  H15Y17382   6.376   7.119   4.537 -1.8140 -0.5186  1.2329
  156SAPE  C31617383   6.544   6.966   4.555  0.4439 -0.0923 -0.0097
  156SAPE  H16X17384   6.470   6.884   4.539 -2.1905  1.8637  1.4132
  156SAPE  H16Y17385   6.617   6.929   4.631 -1.0948 -2.2221  0.5456
  156SAPE  C31717386   6.606   7.009   4.420  0.2365 -1.1686  0.3575
  156SAPE  H17X17387   6.694   6.944   4.397  0.8131  0.1554 -1.3511
  156SAPE  H17Y17388   6.634   7.115   4.435  0.7202 -1.0886 -0.9473
  156SAPE  C31817389   6.503   7.012   4.304  0.1634 -0.4217  0.6428
  156SAPE  H18X17390   6.538   7.069   4.215 -0.6432  0.3431  0.8046
  156SAPE  H18Y17391   6.412   7.066   4.336 -1.8785 -2.3816 -1.4309
  156SAPE  H18Z17392   6.473   6.916   4.257 -1.1323  0.8009 -1.1707
  157SAPE     N17393   6.297   0.346   6.228 -0.1475  0.1685 -0.4404
  157SAPE   HN117394   6.391   0.347   6.272 -0.5780 -1.4606  0.5908
  157SAPE   HN217395   6.276   0.267   6.163  0.0074  0.3766 -0.7445
  157SAPE   HN317396   6.292   0.428   6.164 -0.7595  0.7748  0.3606
  157SAPE   C1217397   6.192   0.345   6.335  0.3754 -0.1466 -0.0996
  157SAPE  H12A17398   6.096   0.305   6.297 -1.7985  2.9474  1.7249
  157SAPE  H12B17399   6.183   0.450   6.368  2.2166  0.0816 -0.1923
  157SAPE   C1117400   6.233   0.264   6.457 -1.0289 -0.1557  0.7029
  157SAPE  H11A17401   6.156   0.269   6.537 -3.5612 -0.3465 -1.5654
  157SAPE  H11B17402   6.329   0.294   6.503  0.6014 -1.0468 -1.9456
  157SAPE     P17403   6.129   0.024   6.425 -0.2235 -0.0037 -0.0212
  157SAPE   O1317404   6.156  -0.092   6.520  0.2787  0.0471 -0.3297
  157SAPE   O1417405   6.000   0.093   6.428  0.1730 -0.4664 -0.0579
  157SAPE   O1217406   6.252   0.129   6.423  1.0354  0.3750 -0.3017
  157SAPE   O1117407   6.134  -0.030   6.278 -0.2694 -0.3955  0.1123
  157SAPE    C117408   6.136  -0.167   6.237  1.3346  0.6211  0.1595
  157SAPE    HA17409   6.230  -0.223   6.255 -0.5415 -3.0293 -0.4165
  157SAPE    HB17410   6.061  -0.225   6.295  2.9222 -0.9100  0.7405
  157SAPE    C217411   6.096  -0.171   6.085 -0.1589  0.7914 -0.5494
  157SAPE    HS17412   6.081  -0.277   6.056  2.8029 -0.4234  1.8411
  157SAPE   O2117413   6.191  -0.108   6.004  0.0333  0.0029 -0.5077
  157SAPE   C2117414   6.284  -0.192   5.950  0.5800  0.4689  0.2499
  157SAPE   O2217415   6.297  -0.307   5.988  0.0466  0.4447 -0.2379
  157SAPE   C2217416   6.373  -0.118   5.851  0.1770  1.0278  0.5869
  157SAPE   H2R17417   6.307  -0.091   5.766 -0.7098 -2.0227  0.1620
  157SAPE   H2S17418   6.409  -0.019   5.887  1.2320  0.9043 -0.0924
  157SAPE    C317419   5.956  -0.102   6.060  0.1893 -0.0091  0.1586
  157SAPE    HX17420   5.960  -0.001   6.108 -0.6029  0.2900 -0.3939
  157SAPE    HY17421   5.883  -0.154   6.124 -0.7945  0.5813 -0.4608
  157SAPE   O3117422   5.928  -0.107   5.916  0.4140  0.4495 -0.0149
  157SAPE   C3117423   5.907   0.007   5.855 -0.6058 -0.9081 -0.3769
  157SAPE   O3217424   5.939   0.117   5.899  0.5221 -0.4213 -0.3006
  157SAPE   C3217425   5.878  -0.016   5.714  0.0477  0.2855 -0.4213
  157SAPE   H2X17426   5.767  -0.007   5.704 -0.2998  1.8479  3.2504
  157SAPE   H2Y17427   5.904  -0.117   5.676 -2.0564 -0.6639  0.4808
  157SAPE   C2317428   6.493  -0.200   5.790  0.1123  0.7410  0.3541
  157SAPE   H3R17429   6.467  -0.305   5.769 -0.0655  1.1917 -1.9596
  157SAPE   H3S17430   6.573  -0.213   5.866  0.6852 -0.5290 -0.4338
  157SAPE   C2417431   6.550  -0.137   5.665 -0.1244 -0.2857 -0.3271
  157SAPE   H4R17432   6.545  -0.027   5.683  1.9317 -0.1186 -0.5289
  157SAPE   H4S17433   6.494  -0.153   5.571 -0.3692 -0.6711 -0.1177
  157SAPE   C2517434   6.692  -0.181   5.648 -0.5078 -0.2820  0.4513
  157SAPE   H5R17435   6.755  -0.156   5.735  0.5667 -2.8961  0.5065
  157SAPE   C2617436   6.752  -0.242   5.544 -0.2065 -0.4092 -0.2711
  157SAPE   H6R17437   6.860  -0.254   5.562 -0.3928 -0.2828  1.0496
  157SAPE   C2717438   6.692  -0.292   5.414 -0.4495 -0.0782 -0.5529
  157SAPE   H7R17439   6.705  -0.209   5.342  2.1640 -0.6031 -0.7934
  157SAPE   H7S17440   6.589  -0.325   5.437  0.0772 -1.5854 -0.2298
  157SAPE   C2817441   6.782  -0.404   5.369 -0.2360 -0.1318  0.6654
  157SAPE   H8R17442   6.742  -0.505   5.386 -1.7609  0.0131 -1.5906
  157SAPE   C2917443   6.875  -0.399   5.273  0.5606  0.2579  0.5230
  157SAPE   H9R17444   6.933  -0.490   5.253  0.4907  0.3348 -0.0660
  157SAPE  C21017445   6.913  -0.266   5.214  0.2625 -0.0748 -0.0929
  157SAPE  H10R17446   6.902  -0.182   5.286 -0.5300 -0.5150  0.3111
  157SAPE  H10S17447   6.850  -0.239   5.127  0.0044  0.5102  0.2726
  157SAPE  C21117448   7.059  -0.264   5.184 -0.4656  0.8282 -0.0134
  157SAPE  H11R17449   7.131  -0.260   5.266 -0.2175  0.1461 -0.1843
  157SAPE  C21217450   7.104  -0.277   5.055 -0.0927 -1.2040 -0.1477
  157SAPE  H12R17451   7.214  -0.278   5.045 -0.0966 -0.0419 -0.3801
  157SAPE  C21317452   7.037  -0.279   4.926  0.1800 -0.4261  0.6729
  157SAPE  H13R17453   7.116  -0.265   4.849 -0.2577 -0.7828  0.1508
  157SAPE  H13S17454   6.971  -0.190   4.929  0.4133 -0.2826  1.6419
  157SAPE  C21417455   6.958  -0.410   4.901  0.3106 -0.3626 -0.3188
  157SAPE  H14R17456   6.924  -0.466   4.989 -0.1174 -3.1392 -2.1306
  157SAPE  C21517457   6.927  -0.467   4.785 -0.9030 -0.3792 -0.8497
  157SAPE  H15R17458   6.857  -0.551   4.793 -1.9256  0.4872 -0.4498
  157SAPE  C21617459   6.967  -0.427   4.650 -0.6678 -0.2348 -0.0425
  157SAPE  H16R17460   7.054  -0.358   4.645  0.3565 -1.5230 -0.2240
  157SAPE  H16S17461   6.874  -0.387   4.603 -0.5689  0.7504  0.5601
  157SAPE  C21717462   7.004  -0.554   4.571 -0.1340  0.5849  0.3116
  157SAPE  H17R17463   7.014  -0.538   4.461 -1.4421  3.6900  0.5304
  157SAPE  H17S17464   6.924  -0.631   4.575 -0.0170  0.4338 -0.2063
  157SAPE  C21817465   7.142  -0.612   4.624 -0.0346  0.4859 -0.0654
  157SAPE  H18R17466   7.140  -0.619   4.735  1.0473 -0.1057 -0.0616
  157SAPE  H18S17467   7.223  -0.540   4.598 -1.1310  1.3872 -1.0635
  157SAPE  C21917468   7.167  -0.747   4.554  0.7937  0.7135 -0.1147
  157SAPE  H19R17469   7.168  -0.722   4.446  0.1330  1.1226 -0.0305
  157SAPE  H19S17470   7.087  -0.820   4.577  1.2231 -0.4386 -2.0817
  157SAPE  C22017471   7.301  -0.806   4.587 -0.5708  0.0290 -0.1993
  157SAPE  H20R17472   7.383  -0.731   4.596 -0.5829  0.0802 -0.5049
  157SAPE  H20S17473   7.339  -0.878   4.512  2.0623 -0.4361  1.4473
  157SAPE  H20T17474   7.297  -0.866   4.681  0.6773  2.6472  1.6820
  157SAPE   C3317475   5.951   0.091   5.620 -0.0005  0.3013  0.3481
  157SAPE   H3X17476   5.948   0.197   5.656  1.6109  0.9992 -1.4062
  157SAPE   H3Y17477   5.903   0.091   5.520  2.5617  3.6090 -1.0906
  157SAPE   C3417478   6.093   0.049   5.577 -0.4883 -0.1274 -0.4015
  157SAPE   H4X17479   6.129  -0.014   5.662 -0.5285 -0.2787 -0.4963
  157SAPE   H4Y17480   6.156   0.140   5.578 -0.2292 -0.3032  0.0487
  157SAPE   C3517481   6.122  -0.025   5.445 -0.6519 -0.6085  0.0468
  157SAPE   H5X17482   6.226  -0.019   5.408 -1.6245  0.6249 -2.7037
  157SAPE   H5Y17483   6.071   0.029   5.362 -0.2670 -0.2761  0.0244
  157SAPE   C3617484   6.065  -0.170   5.438 -0.3022 -0.4076  0.1653
  157SAPE   H6X17485   6.076  -0.212   5.336 -2.4403  0.3986 -0.4611
  157SAPE   H6Y17486   5.955  -0.158   5.444 -0.0792  1.1195  2.8750
  157SAPE   C3717487   6.115  -0.272   5.545 -0.2890 -0.0752  0.7082
  157SAPE   H7X17488   6.027  -0.333   5.575  0.7226 -1.4126  1.0689
  157SAPE   H7Y17489   6.152  -0.231   5.641  0.1008 -2.0351  1.4464
  157SAPE   C3817490   6.227  -0.362   5.491 -0.2219  0.3446  0.0959
  157SAPE   H8X17491   6.323  -0.307   5.479  0.3782 -0.9193 -1.1083
  157SAPE   H8Y17492   6.190  -0.401   5.394 -2.5540 -2.3047  1.8860
  157SAPE   C3917493   6.263  -0.479   5.582  0.3423 -1.3017 -0.0878
  157SAPE   H9X17494   6.277  -0.447   5.687  1.3453 -2.4704  0.1476
  157SAPE   H9Y17495   6.341  -0.540   5.532 -1.4218 -0.5892 -4.1042
  157SAPE  C31017496   6.141  -0.573   5.606 -0.0650  0.4374  0.2309
  157SAPE  H10X17497   6.105  -0.617   5.511  2.0728 -1.7363  0.3348
  157SAPE  H10Y17498   6.064  -0.516   5.663  0.4930  0.4672  0.9664
  157SAPE  C31117499   6.171  -0.688   5.705 -0.1239  0.1987 -0.1256
  157SAPE  H11X17500   6.192  -0.643   5.805 -1.2498 -1.1559  0.7616
  157SAPE  H11Y17501   6.250  -0.757   5.669 -0.9615  0.2967 -2.3167
  157SAPE  C31217502   6.038  -0.769   5.740 -0.3114  0.4797  0.6228
  157SAPE  H12X17503   5.991  -0.801   5.645 -2.0603  3.1537  0.5007
  157SAPE  H12Y17504   5.967  -0.701   5.791 -3.5387 -1.8622 -0.4697
  157SAPE  C31317505   6.077  -0.881   5.838  0.2513  0.1725  0.1501
  157SAPE  H13X17506   5.983  -0.930   5.872  0.5221 -0.1199  0.4720
  157SAPE  H13Y17507   6.130  -0.839   5.926  0.3513  0.8012 -0.2019
  157SAPE  C31417508   6.140  -1.007   5.782  0.5841 -0.0357 -0.2059
  157SAPE  H14X17509   6.150  -1.082   5.864  0.4603  2.1098  1.8909
  157SAPE  H14Y17510   6.239  -0.972   5.746  0.0486  0.1203 -1.5855
  157SAPE  C31517511   6.054  -1.089   5.681  0.0850  0.7697 -0.6941
  157SAPE  H15X17512   6.122  -1.176   5.663 -0.7009 -0.7164  2.7028
  157SAPE  H15Y17513   6.034  -1.036   5.585  2.1425 -0.3931 -1.8567
  157SAPE  C31617514   5.929  -1.155   5.734  0.3584  0.2709 -0.1485
  157SAPE  H16X17515   5.853  -1.085   5.773  0.0974  0.0150 -0.1954
  157SAPE  H16Y17516   5.952  -1.217   5.824 -0.1596 -0.0540 -0.2345
  157SAPE  C31717517   5.857  -1.247   5.635  0.6688  0.2424 -0.2814
  157SAPE  H17X17518   5.938  -1.281   5.567  1.5779  3.1828 -0.8239
  157SAPE  H17Y17519   5.787  -1.198   5.564  0.9212 -0.8372 -1.3039
  157SAPE  C31817520   5.772  -1.362   5.710  0.3718  0.0699 -0.1477
  157SAPE  H18X17521   5.736  -1.443   5.643  1.6441 -1.5123  0.9947
  157SAPE  H18Y17522   5.682  -1.309   5.749  0.4405  0.0814 -0.0032
  157SAPE  H18Z17523   5.824  -1.404   5.798 -0.0831  1.2530  0.7064
  158SAPE     N17524   1.206   3.561   6.471  0.4287  0.5592 -0.1878
  158SAPE   HN117525   1.163   3.574   6.377  0.7699  2.3674 -0.1254
  158SAPE   HN217526   1.242   3.463   6.475  0.0270  0.4500  2.4948
  158SAPE   HN317527   1.134   3.555   6.545  2.5540 -0.4835  1.9339
  158SAPE   C1217528   1.290   3.683   6.508 -0.4312  0.7164 -0.0248
  158SAPE  H12A17529   1.311   3.669   6.616 -0.5400 -1.3509 -0.2190
  158SAPE  H12B17530   1.230   3.772   6.483  1.5509  2.3265  0.6806
  158SAPE   C1117531   1.425   3.677   6.429  0.1720 -0.6604 -1.0327
  158SAPE  H11A17532   1.483   3.766   6.461 -3.3812  1.5415 -0.1350
  158SAPE  H11B17533   1.416   3.694   6.319 -2.2898  0.0088 -0.7869
  158SAPE     P17534   1.639   3.520   6.461  0.6896 -0.2819  0.5494
  158SAPE   O1317535   1.718   3.639   6.494 -0.5632  0.0589 -0.2855
  158SAPE   O1417536   1.661   3.392   6.530 -0.5623 -0.2024  0.1268
  158SAPE   O1217537   1.485   3.551   6.466 -0.2296 -0.2661 -0.0949
  158SAPE   O1117538   1.676   3.480   6.311 -0.4415 -0.1192  0.0350
  158SAPE    C117539   1.639   3.550   6.185 -0.1196 -0.2622 -0.0251
  158SAPE    HA17540   1.628   3.484   6.097 -0.0154 -0.7862  0.3518
  158SAPE    HB17541   1.532   3.582   6.191 -0.2370 -0.8379  1.3478
  158SAPE    C217542   1.729   3.670   6.157  0.0560 -0.0636 -0.4435
  158SAPE    HS17543   1.753   3.728   6.248 -2.5280  0.2635  0.1118
  158SAPE   O2117544   1.646   3.756   6.074 -0.2263  0.3128 -0.2138
  158SAPE   C2117545   1.664   3.881   6.090  0.2702 -0.0147  0.1887
  158SAPE   O2217546   1.734   3.935   6.174 -0.0152  0.8359  0.4238
  158SAPE   C2217547   1.595   3.960   5.976 -1.0800 -0.4556 -0.2118
  158SAPE   H2R17548   1.655   3.933   5.887 -2.3592 -2.5331 -0.4855
  158SAPE   H2S17549   1.492   3.926   5.952 -0.5701 -0.9396 -1.7849
  158SAPE    C317550   1.865   3.640   6.085 -0.7286  0.2961 -0.4400
  158SAPE    HX17551   1.931   3.597   6.163 -1.6495 -0.4387 -0.0422
  158SAPE    HY17552   1.906   3.736   6.047 -0.0415 -0.1771 -0.9348
  158SAPE   O3117553   1.845   3.545   5.976 -0.7843  0.1862 -0.3181
  158SAPE   C3117554   1.950   3.518   5.897  0.7569  0.1054 -0.3523
  158SAPE   O3217555   2.063   3.563   5.911 -0.0279  0.1271  0.3748
  158SAPE   C3217556   1.907   3.444   5.768 -0.7767 -0.1571  0.0217
  158SAPE   H2X17557   1.864   3.520   5.699  0.0263  1.0672  0.8349
  158SAPE   H2Y17558   1.834   3.370   5.807  1.9176 -1.7703  2.3884
  158SAPE   C2317559   1.620   4.111   6.001  0.7189 -0.9806 -0.4713
  158SAPE   H3R17560   1.717   4.149   6.039  0.7948 -0.9150 -0.7318
  158SAPE   H3S17561   1.542   4.138   6.076  1.1737  0.4827 -0.5019
  158SAPE   C2417562   1.588   4.201   5.877 -0.4018  1.1127 -0.5446
  158SAPE   H4R17563   1.504   4.150   5.824  0.7639 -1.4728 -0.0139
  158SAPE   H4S17564   1.665   4.205   5.797  0.0435  2.3668 -0.0781
  158SAPE   C2517565   1.567   4.344   5.918 -0.6170 -0.0905 -0.2051
  158SAPE   H5R17566   1.645   4.384   5.984 -1.0267 -0.3255  0.4385
  158SAPE   C2617567   1.465   4.416   5.879  0.5376  0.2849  1.0437
  158SAPE   H6R17568   1.467   4.525   5.892 -2.0946  0.6157 -0.3885
  158SAPE   C2717569   1.349   4.372   5.795  0.5696 -0.3615 -0.2082
  158SAPE   H7R17570   1.252   4.416   5.826  0.7480 -0.1145  0.0106
  158SAPE   H7S17571   1.316   4.267   5.810 -3.6531  1.0608  2.4836
  158SAPE   C2817572   1.380   4.396   5.644  0.5790 -0.5210  0.0964
  158SAPE   H8R17573   1.409   4.501   5.635  1.1278 -0.6602  0.2181
  158SAPE   C2917574   1.367   4.314   5.533  0.9391 -0.5757  0.0034
  158SAPE   H9R17575   1.388   4.360   5.436 -2.1940 -0.1248 -0.5884
  158SAPE  C21017576   1.317   4.176   5.521  0.4932 -0.5853  0.1378
  158SAPE  H10R17577   1.210   4.175   5.491  0.8128 -0.1744 -1.0412
  158SAPE  H10S17578   1.304   4.148   5.628 -1.2593  0.0848  0.1279
  158SAPE  C21117579   1.414   4.077   5.452  0.8240 -0.3265  0.0109
  158SAPE  H11R17580   1.476   4.021   5.524  0.7766 -1.1368 -0.5586
  158SAPE  C21217581   1.415   4.039   5.319  0.1138 -0.4784 -0.6757
  158SAPE  H12R17582   1.491   3.961   5.303  0.8036  0.6417 -3.4416
  158SAPE  C21317583   1.332   4.077   5.206 -0.3729 -0.4955  0.2573
  158SAPE  H13R17584   1.261   4.158   5.231 -0.3169 -0.2263 -0.4496
  158SAPE  H13S17585   1.273   3.988   5.175 -0.1205 -0.0927 -1.4627
  158SAPE  C21417586   1.409   4.112   5.087 -0.7654  0.6574  0.9947
  158SAPE  H14R17587   1.501   4.169   5.106  1.6284 -0.4593 -4.9610
  158SAPE  C21517588   1.383   4.091   4.950 -0.1628  0.3539  0.2759
  158SAPE  H15R17589   1.455   4.119   4.873 -1.9371  2.8902 -0.6121
  158SAPE  C21617590   1.249   4.040   4.910  0.5681  0.2254 -0.3677
  158SAPE  H16R17591   1.172   4.120   4.903 -0.4927 -0.8503 -1.5768
  158SAPE  H16S17592   1.218   3.961   4.982  0.4290 -0.2132 -0.8999
  158SAPE  C21717593   1.252   3.981   4.768  0.2194  0.8131  0.0340
  158SAPE  H17R17594   1.335   3.906   4.763 -1.9611 -1.8625  1.3556
  158SAPE  H17S17595   1.270   4.062   4.694 -1.5514  0.6379 -0.6247
  158SAPE  C21817596   1.118   3.905   4.723 -0.3122 -0.3388  0.2997
  158SAPE  H18R17597   1.137   3.862   4.622  0.8311 -2.5388  1.3589
  158SAPE  H18S17598   1.033   3.976   4.726 -0.6075 -0.6237 -0.9065
  158SAPE  C21917599   1.091   3.787   4.815  0.4485 -0.0136 -0.6744
  158SAPE  H19R17600   1.070   3.815   4.920  0.3537  1.1793 -0.9905
  158SAPE  H19S17601   1.181   3.723   4.810  1.0089  0.7264 -0.2293
  158SAPE  C22017602   0.965   3.704   4.772  0.1903 -0.4194 -0.2415
  158SAPE  H20R17603   0.975   3.664   4.669  2.8351 -0.4714 -0.0209
  158SAPE  H20S17604   0.889   3.786   4.766 -0.6061 -1.2716 -2.7802
  158SAPE  H20T17605   0.940   3.621   4.842  0.8123 -1.5557 -1.3368
  158SAPE   C3317606   2.035   3.376   5.703  0.2723 -0.0842 -0.2343
  158SAPE   H3X17607   2.077   3.301   5.774 -0.5531  0.1550  0.5312
  158SAPE   H3Y17608   2.119   3.445   5.681 -0.7599  0.4633 -2.7414
  158SAPE   C3417609   2.003   3.301   5.574  0.5026 -0.0438 -0.3536
  158SAPE   H4X17610   1.923   3.239   5.620 -0.4808  1.7581  0.4265
  158SAPE   H4Y17611   2.094   3.239   5.561  1.0686  0.7154 -0.0627
  158SAPE   C3517612   1.969   3.395   5.458  0.1594 -0.4966  0.2048
  158SAPE   H5X17613   2.041   3.479   5.453  0.0929 -0.4317  0.3315
  158SAPE   H5Y17614   1.868   3.441   5.474  0.1528 -0.8007  1.0265
  158SAPE   C3617615   1.975   3.317   5.325  1.0317  0.1655  0.7791
  158SAPE   H6X17616   1.901   3.234   5.338 -0.1582  1.3162  1.5603
  158SAPE   H6Y17617   2.079   3.285   5.306  0.3016 -0.1810 -3.9466
  158SAPE   C3717618   1.942   3.400   5.197 -0.0755 -0.3996  0.5427
  158SAPE   H7X17619   2.027   3.471   5.182 -1.3942  1.3195  0.9360
  158SAPE   H7Y17620   1.849   3.460   5.210  0.7397  0.6165  2.0365
  158SAPE   C3817621   1.927   3.312   5.078  0.8218 -0.3093  0.2333
  158SAPE   H8X17622   1.838   3.249   5.103  0.3281 -0.5525 -1.9647
  158SAPE   H8Y17623   2.016   3.248   5.058 -0.1865 -0.8508 -3.2125
  158SAPE   C3917624   1.876   3.384   4.953  0.1064  0.0780  0.0944
  158SAPE   H9X17625   1.925   3.482   4.934  1.9410 -0.2776  2.4396
  158SAPE   H9Y17626   1.770   3.408   4.977  0.5240  0.1988  1.9399
  158SAPE  C31017627   1.886   3.311   4.820  0.7152  0.0234 -0.4222
  158SAPE  H10X17628   1.799   3.343   4.759 -0.6636  2.2421  2.4508
  158SAPE  H10Y17629   1.865   3.205   4.846 -0.0911  0.1523 -0.5031
  158SAPE  C31117630   2.018   3.334   4.743 -0.3928 -0.0572 -1.1209
  158SAPE  H11X17631   2.011   3.276   4.648  0.2787 -0.9227 -0.6585
  158SAPE  H11Y17632   2.107   3.302   4.802 -1.0529  0.3859  0.1551
  158SAPE  C31217633   2.044   3.479   4.699  0.1124  0.6762 -0.4700
  158SAPE  H12X17634   2.064   3.540   4.790 -1.3243  0.2019  0.2008
  158SAPE  H12Y17635   1.948   3.519   4.660 -1.4565  0.1106  2.5377
  158SAPE  C31317636   2.167   3.492   4.602 -0.0991  0.5114  0.1347
  158SAPE  H13X17637   2.138   3.480   4.495  1.7322  2.4603 -0.6569
  158SAPE  H13Y17638   2.249   3.420   4.623 -0.8959 -0.6734 -0.6791
  158SAPE  C31417639   2.205   3.636   4.617  0.0829  0.2989 -0.1228
  158SAPE  H14X17640   2.241   3.648   4.722 -0.4292 -1.6733  0.3169
  158SAPE  H14Y17641   2.115   3.702   4.614  0.1960  0.8014  3.2631
  158SAPE  C31517642   2.322   3.681   4.516 -0.1999 -0.4125  0.2852
  158SAPE  H15X17643   2.285   3.663   4.413  1.0479 -4.6366  0.3593
  158SAPE  H15Y17644   2.407   3.610   4.529  0.0875  0.1454  1.6020
  158SAPE  C31617645   2.368   3.822   4.536 -0.0794  0.3693 -0.8207
  158SAPE  H16X17646   2.471   3.833   4.497  0.4478 -0.8173  0.1410
  158SAPE  H16Y17647   2.375   3.841   4.646 -1.4318 -0.1972 -0.6075
  158SAPE  C31717648   2.276   3.919   4.470  0.2072  0.0646 -0.8455
  158SAPE  H17X17649   2.183   3.913   4.531  0.9772 -2.1216  0.2394
  158SAPE  H17Y17650   2.267   3.888   4.363  2.0949 -1.1893 -0.6838
  158SAPE  C31817651   2.326   4.062   4.473 -0.0631 -0.6016 -0.1400
  158SAPE  H18X17652   2.268   4.133   4.409  0.2034  0.6050  0.9141
  158SAPE  H18Y17653   2.432   4.079   4.441  0.1237  0.8226  1.1382
  158SAPE  H18Z17654   2.319   4.100   4.577  4.1256  2.3256 -0.6294
  159SAPE     N17655   4.939   4.546   2.068 -0.3047 -0.4164  0.2453
  159SAPE   HN117656   4.920   4.449   2.036 -3.3104  0.0403  0.3901
  159SAPE   HN217657   4.899   4.607   1.995 -2.6092 -1.4479  0.5714
  159SAPE   HN317658   5.042   4.556   2.076 -0.1916 -0.4830 -0.8854
  159SAPE   C1217659   4.879   4.565   2.199 -0.1510 -0.4461  0.2687
  159SAPE  H12A17660   4.768   4.572   2.201 -0.1892  0.3773 -2.0432
  159SAPE  H12B17661   4.918   4.660   2.244  1.5801  0.4197 -2.7920
  159SAPE   C1117662   4.931   4.456   2.290  0.0003  0.4308  0.6201
  159SAPE  H11A17663   4.900   4.354   2.258  2.3658 -0.1901  0.1414
  159SAPE  H11B17664   4.893   4.466   2.394  3.3698 -0.8621  2.0951
  159SAPE     P17665   5.161   4.540   2.411  0.1791 -0.1065 -0.0251
  159SAPE   O1317666   5.256   4.630   2.348 -0.2037  0.2333  0.4694
  159SAPE   O1417667   5.075   4.595   2.520  0.5025 -0.6950 -0.4119
  159SAPE   O1217668   5.070   4.473   2.295 -0.0706  0.1172  0.1205
  159SAPE   O1117669   5.244   4.415   2.475 -0.2328  0.2281 -0.3913
  159SAPE    C117670   5.175   4.291   2.492 -0.0155 -0.1689 -0.2859
  159SAPE    HA17671   5.067   4.301   2.517 -0.3153  4.7831 -2.4913
  159SAPE    HB17672   5.180   4.244   2.391  0.9829 -1.2831  0.2569
  159SAPE    C217673   5.256   4.182   2.576  0.2117 -0.2882  0.9562
  159SAPE    HS17674   5.249   4.078   2.537 -1.4979  0.3152 -0.4849
  159SAPE   O2117675   5.207   4.186   2.712  0.2831  0.4172 -0.0463
  159SAPE   C2117676   5.086   4.132   2.725  0.5661 -0.6137  0.3337
  159SAPE   O2217677   5.022   4.076   2.637  0.6609  0.1515  0.4329
  159SAPE   C2217678   5.046   4.150   2.868 -0.3484 -0.2903 -0.2618
  159SAPE   H2R17679   5.122   4.101   2.933  0.4134  0.7043 -0.3831
  159SAPE   H2S17680   5.052   4.257   2.899  2.5868 -0.1920 -0.8990
  159SAPE    C317681   5.411   4.214   2.576  0.1933  0.5737  0.6231
  159SAPE    HX17682   5.403   4.324   2.591 -2.0695  0.6233 -0.5482
  159SAPE    HY17683   5.455   4.194   2.476  1.5848 -0.9411  1.4780
  159SAPE   O3117684   5.485   4.148   2.681  0.2457 -0.1346 -0.4256
  159SAPE   C3117685   5.619   4.178   2.671 -0.3894 -0.5903 -0.2362
  159SAPE   O3217686   5.668   4.246   2.584  0.0231 -0.0370 -0.1513
  159SAPE   C3217687   5.710   4.116   2.778  0.1238 -0.5773 -0.3757
  159SAPE   H2X17688   5.785   4.059   2.720  0.4620 -0.3651 -0.1508
  159SAPE   H2Y17689   5.646   4.045   2.835 -2.1018  0.4286 -1.4765
  159SAPE   C2317690   4.902   4.083   2.899 -0.9262 -0.0672  0.4563
  159SAPE   H3R17691   4.921   3.975   2.879 -0.6203  0.3046 -1.4798
  159SAPE   H3S17692   4.825   4.123   2.830 -0.2964 -0.4599 -0.5154
  159SAPE   C2417693   4.853   4.099   3.047 -0.6621 -0.2208 -0.4359
  159SAPE   H4R17694   4.759   4.042   3.065 -1.2111  0.9578  0.6626
  159SAPE   H4S17695   4.827   4.205   3.072  0.6613  0.0417 -0.1026
  159SAPE   C2517696   4.961   4.044   3.137 -0.4750  1.3053  0.3095
  159SAPE   H5R17697   5.043   3.984   3.096 -1.9511  0.2945 -1.3085
  159SAPE   C2617698   4.942   4.049   3.273  0.5363  0.6452 -0.0091
  159SAPE   H6R17699   5.009   3.989   3.336  0.5154  0.6214 -0.0093
  159SAPE   C2717700   4.833   4.126   3.353 -0.7840  0.9242  0.3801
  159SAPE   H7R17701   4.769   4.185   3.283 -2.4544 -1.7671 -0.5106
  159SAPE   H7S17702   4.888   4.199   3.417  0.5140  1.6465 -1.4831
  159SAPE   C2817703   4.746   4.034   3.437  0.2022 -0.3156  0.5514
  159SAPE   H8R17704   4.690   3.962   3.375  1.1688  0.4332 -1.2494
  159SAPE   C2917705   4.726   4.036   3.571 -0.2071 -0.4733  0.3075
  159SAPE   H9R17706   4.664   3.959   3.619 -1.0511  1.1375  1.9657
  159SAPE  C21017707   4.795   4.132   3.671  0.2060 -0.0557  0.0574
  159SAPE  H10R17708   4.790   4.237   3.635  2.0910  0.0789  0.0733
  159SAPE  H10S17709   4.906   4.127   3.676  0.1979 -0.1018  4.6838
  159SAPE  C21117710   4.773   4.124   3.821 -0.2787  0.1953  0.2986
  159SAPE  H11R17711   4.768   4.225   3.864  1.4501  0.4682 -0.0680
  159SAPE  C21217712   4.775   4.020   3.907  0.2594 -0.1342  0.8709
  159SAPE  H12R17713   4.776   4.055   4.011  1.3474  1.9833  0.2007
  159SAPE  C21317714   4.794   3.874   3.879  0.1418 -0.7388  0.3287
  159SAPE  H13R17715   4.857   3.829   3.958 -1.5951 -0.1652  2.1261
  159SAPE  H13S17716   4.841   3.859   3.780 -0.3981  0.4712 -0.1389
  159SAPE  C21417717   4.666   3.799   3.876  0.6212  0.2731  0.3517
  159SAPE  H14R17718   4.620   3.792   3.776  1.5526 -1.9536  0.0057
  159SAPE  C21517719   4.603   3.722   3.974  0.4215  0.2287 -0.3131
  159SAPE  H15R17720   4.511   3.666   3.951  0.1405  0.8935 -0.8730
  159SAPE  C21617721   4.623   3.727   4.122 -0.0379 -0.2459  0.2120
  159SAPE  H16R17722   4.526   3.765   4.159  0.7453  1.4865  0.5933
  159SAPE  H16S17723   4.702   3.799   4.153  1.3584 -2.1793  1.3455
  159SAPE  C21717724   4.639   3.596   4.200 -0.0155 -0.0135 -0.5184
  159SAPE  H17R17725   4.740   3.553   4.180  1.2085  2.4183  0.0154
  159SAPE  H17S17726   4.560   3.528   4.161 -2.4674  2.2092  0.3062
  159SAPE  C21817727   4.627   3.620   4.352 -0.4720 -0.1175  0.2003
  159SAPE  H18R17728   4.627   3.521   4.402 -1.4482  0.1846  0.8239
  159SAPE  H18S17729   4.528   3.657   4.386 -1.6288 -4.2135  1.8966
  159SAPE  C21917730   4.740   3.703   4.415  0.0069 -0.1217  0.1021
  159SAPE  H19R17731   4.742   3.805   4.372 -2.2823 -0.1309 -0.1659
  159SAPE  H19S17732   4.840   3.656   4.398  1.7481  1.1635  5.0632
  159SAPE  C22017733   4.734   3.712   4.570 -0.3430 -0.0171 -0.2042
  159SAPE  H20R17734   4.818   3.780   4.596  0.0929 -0.5654 -0.1734
  159SAPE  H20S17735   4.764   3.617   4.617  1.4809  1.2929  1.4329
  159SAPE  H20T17736   4.641   3.756   4.611  0.0148  1.0977 -0.5356
  159SAPE   C3317737   5.781   4.219   2.870 -0.9597 -0.5291 -0.7611
  159SAPE   H3X17738   5.832   4.294   2.806  0.4825 -1.0693 -0.2737
  159SAPE   H3Y17739   5.865   4.175   2.927 -1.1631 -0.2076 -0.2123
  159SAPE   C3417740   5.680   4.290   2.959 -0.0934  0.2762 -0.5796
  159SAPE   H4X17741   5.617   4.212   3.006  0.8658  0.5149  1.1664
  159SAPE   H4Y17742   5.613   4.351   2.895 -0.9684  1.0560  1.0435
  159SAPE   C3517743   5.730   4.383   3.067  0.5223 -0.1706 -0.1092
  159SAPE   H5X17744   5.652   4.447   3.115  0.6472 -0.9562  1.1909
  159SAPE   H5Y17745   5.799   4.459   3.025 -1.3994  1.5155 -0.4072
  159SAPE   C3617746   5.793   4.316   3.186  0.0537 -0.1331 -0.3180
  159SAPE   H6X17747   5.885   4.366   3.224 -0.3058 -0.1273  0.5686
  159SAPE   H6Y17748   5.821   4.213   3.158  0.4879  0.4296 -2.0868
  159SAPE   C3717749   5.697   4.308   3.311 -0.2918 -0.8550 -0.3973
  159SAPE   H7X17750   5.611   4.241   3.292 -1.4821  0.3535  0.4928
  159SAPE   H7Y17751   5.658   4.410   3.334 -0.1364 -1.0048  0.6044
  159SAPE   C3817752   5.772   4.261   3.436  0.1255 -0.1385  0.4087
  159SAPE   H8X17753   5.862   4.324   3.451 -0.7671  1.7844 -1.6064
  159SAPE   H8Y17754   5.809   4.157   3.421 -1.2341 -0.4264 -1.3810
  159SAPE   C3917755   5.689   4.266   3.564  0.5521 -0.0250 -0.0323
  159SAPE   H9X17756   5.597   4.206   3.542 -0.3091  1.0848  0.4389
  159SAPE   H9Y17757   5.662   4.372   3.581 -1.2846 -0.4537  0.0419
  159SAPE  C31017758   5.767   4.215   3.683 -0.3740  0.2739 -0.4893
  159SAPE  H10X17759   5.873   4.245   3.669 -0.4251  1.7923  1.8474
  159SAPE  H10Y17760   5.776   4.106   3.664 -1.9321 -0.2960  1.6309
  159SAPE  C31117761   5.704   4.236   3.822 -0.5418  0.0618  0.3255
  159SAPE  H11X17762   5.772   4.185   3.894 -0.1224  0.2914  0.0927
  159SAPE  H11Y17763   5.623   4.163   3.843  1.2872 -2.2593 -0.1584
  159SAPE  C31217764   5.671   4.380   3.855 -0.8427 -0.4670  0.3282
  159SAPE  H12X17765   5.574   4.401   3.805 -0.2043  1.8065 -0.0806
  159SAPE  H12Y17766   5.743   4.451   3.809  0.1006 -1.8075 -0.3095
  159SAPE  C31317767   5.669   4.425   4.009 -0.1879 -0.3636  0.8003
  159SAPE  H13X17768   5.752   4.374   4.062  0.4318  0.8879  1.0679
  159SAPE  H13Y17769   5.565   4.398   4.039 -0.8484 -0.1560 -1.1009
  159SAPE  C31417770   5.700   4.572   4.024 -0.1472  0.2763 -0.1054
  159SAPE  H14X17771   5.623   4.619   3.960 -0.2716  2.0472  1.2530
  159SAPE  H14Y17772   5.804   4.595   3.991  0.2901 -1.9978 -0.5032
  159SAPE  C31517773   5.684   4.620   4.176 -0.3674 -0.5200 -0.4651
  159SAPE  H15X17774   5.615   4.552   4.230 -0.3102 -1.1518 -1.1612
  159SAPE  H15Y17775   5.652   4.725   4.189  0.2511 -0.4498  0.6135
  159SAPE  C31617776   5.819   4.616   4.253 -0.5463  0.3439  0.2993
  159SAPE  H16X17777   5.899   4.678   4.207  0.5184 -1.7788 -0.8992
  159SAPE  H16Y17778   5.842   4.507   4.250 -0.9126  0.1948  1.9858
  159SAPE  C31717779   5.800   4.638   4.405 -0.3090 -0.1236  0.1620
  159SAPE  H17X17780   5.738   4.557   4.448  0.9043 -0.6122  1.0701
  159SAPE  H17Y17781   5.741   4.731   4.420 -2.7106 -1.8295  2.0712
  159SAPE  C31817782   5.941   4.628   4.476 -0.5727 -0.0283 -0.3693
  159SAPE  H18X17783   6.014   4.704   4.440  0.8774 -1.6412 -0.9547
  159SAPE  H18Y17784   6.001   4.535   4.467 -0.7254 -0.1901  0.2494
  159SAPE  H18Z17785   5.933   4.646   4.586 -0.5557  0.1038 -0.3895
  160SAPE     N17786   3.886   2.679   1.862  0.7106  0.2420 -0.5801
  160SAPE   HN117787   3.988   2.667   1.880  0.5312  0.9291  1.0407
  160SAPE   HN217788   3.838   2.602   1.811  0.4843  0.3926 -0.5937
  160SAPE   HN317789   3.862   2.765   1.809 -1.0046  0.4206  0.4504
  160SAPE   C1217790   3.817   2.701   1.992  0.7020 -0.7460 -0.3138
  160SAPE  H12A17791   3.708   2.707   1.971  0.4403 -1.1111  0.8502
  160SAPE  H12B17792   3.831   2.805   2.029 -0.8173 -0.0138 -1.6547
  160SAPE   C1117793   3.838   2.582   2.088 -0.2758  0.6477  0.3237
  160SAPE  H11A17794   3.805   2.596   2.193  0.8644 -0.0909  0.8106
  160SAPE  H11B17795   3.947   2.574   2.108 -0.2807 -0.6229 -0.0976
  160SAPE     P17796   3.671   2.378   2.099 -0.3334 -0.2031 -0.0004
  160SAPE   O1317797   3.569   2.469   2.166  0.4503 -0.1549  0.5993
  160SAPE   O1417798   3.622   2.279   1.998 -0.2925  0.5883 -0.2618
  160SAPE   O1217799   3.782   2.462   2.036 -0.2792  0.2553  0.5427
  160SAPE   O1117800   3.745   2.298   2.213  0.3836  0.4949 -0.2329
  160SAPE    C117801   3.888   2.274   2.205  0.4024  1.2607  0.4370
  160SAPE    HA17802   3.902   2.173   2.161  0.2788  1.3414  0.2085
  160SAPE    HB17803   3.935   2.340   2.129  0.4715  0.8939  0.1559
  160SAPE    C217804   3.965   2.289   2.342  0.6419  0.1129  0.7805
  160SAPE    HS17805   4.072   2.303   2.318  0.1569  0.0477 -1.6028
  160SAPE   O2117806   3.940   2.173   2.424  0.5100  0.0685  0.0721
  160SAPE   C2117807   4.002   2.062   2.386  0.3802 -0.2883 -0.2385
  160SAPE   O2217808   4.075   2.054   2.289 -0.1397  0.4201 -0.8201
  160SAPE   C2217809   3.969   1.950   2.491  0.1053  0.0997 -0.0581
  160SAPE   H2R17810   3.899   1.988   2.568  1.1483  1.2154  0.3746
  160SAPE   H2S17811   3.927   1.863   2.436  1.5583 -0.9413  0.4048
  160SAPE    C317812   3.904   2.420   2.413 -0.9634 -0.5691  0.6012
  160SAPE    HX17813   3.794   2.406   2.407 -0.8845 -0.9286 -0.2046
  160SAPE    HY17814   3.926   2.515   2.360 -0.4081  0.2331  2.1986
  160SAPE   O3117815   3.959   2.433   2.545  0.3191 -0.0336  0.2002
  160SAPE   C3117816   3.889   2.376   2.646  0.1464  0.6843  1.2379
  160SAPE   O3217817   3.770   2.362   2.640 -0.7183  0.0410  0.5684
  160SAPE   C3217818   3.982   2.340   2.761  0.1847  0.2319 -0.2226
  160SAPE   H2X17819   4.026   2.435   2.796  0.9485 -0.5336  0.9662
  160SAPE   H2Y17820   4.057   2.266   2.724  0.5222  0.1054  0.6953
  160SAPE   C2317821   4.101   1.909   2.559  0.0128  0.2556 -0.3122
  160SAPE   H3R17822   4.142   1.995   2.616  4.2889 -1.1355 -0.9359
  160SAPE   H3S17823   4.176   1.877   2.483  2.1867  0.0904  1.7792
  160SAPE   C2417824   4.080   1.801   2.670  0.0720  0.6940 -0.2175
  160SAPE   H4R17825   4.017   1.718   2.630 -0.0783  0.1511  1.0852
  160SAPE   H4S17826   4.026   1.856   2.750  0.4786  0.5716  0.1500
  160SAPE   C2517827   4.219   1.755   2.723  0.1808  0.3285  1.0487
  160SAPE   H5R17828   4.307   1.775   2.660 -0.4564  0.6003  0.2351
  160SAPE   C2617829   4.234   1.712   2.854  0.4715 -0.8638 -0.2689
  160SAPE   H6R17830   4.337   1.692   2.886  1.0281  0.4835 -1.1095
  160SAPE   C2717831   4.122   1.704   2.962  0.4961 -0.0830  0.1793
  160SAPE   H7R17832   4.133   1.611   3.022 -0.7159 -0.7666 -0.6323
  160SAPE   H7S17833   4.025   1.695   2.910 -0.1739 -1.4742  1.6018
  160SAPE   C2817834   4.123   1.826   3.055 -0.4451 -0.2150 -0.0619
  160SAPE   H8R17835   4.091   1.924   3.018 -0.7969  0.0380  0.8795
  160SAPE   C2917836   4.167   1.832   3.181 -0.1137 -0.6099  0.1397
  160SAPE   H9R17837   4.161   1.923   3.243  0.6106  1.0395 -2.0825
  160SAPE  C21017838   4.236   1.725   3.260  0.0147 -0.7829  0.2947
  160SAPE  H10R17839   4.324   1.772   3.309  0.1954 -1.0241  0.2059
  160SAPE  H10S17840   4.268   1.640   3.196  0.0448 -1.2159  0.8743
  160SAPE  C21117841   4.154   1.643   3.353 -0.1581 -0.0523  0.3710
  160SAPE  H11R17842   4.087   1.573   3.301 -1.8007  0.6373  1.4715
  160SAPE  C21217843   4.137   1.660   3.482  1.0200  0.3725  0.0103
  160SAPE  H12R17844   4.081   1.582   3.536  1.5042 -0.2011 -0.3011
  160SAPE  C21317845   4.196   1.760   3.571 -0.3745  0.0818  0.0039
  160SAPE  H13R17846   4.130   1.850   3.576  0.7914  0.8968  1.1824
  160SAPE  H13S17847   4.295   1.792   3.532  0.7865 -2.3837  0.7208
  160SAPE  C21417848   4.224   1.696   3.706 -0.1622 -0.2828  0.2091
  160SAPE  H14R17849   4.275   1.599   3.698 -0.3277 -0.2658 -1.3992
  160SAPE  C21517850   4.197   1.741   3.829 -0.0567  0.1031 -0.1360
  160SAPE  H15R17851   4.232   1.687   3.918 -1.7138 -1.0553 -0.1428
  160SAPE  C21617852   4.118   1.870   3.863  0.2306  0.1672  0.0571
  160SAPE  H16R17853   4.045   1.886   3.781  1.5436 -1.8969 -1.6479
  160SAPE  H16S17854   4.183   1.959   3.877  0.9074 -0.1670 -0.8694
  160SAPE  C21717855   4.039   1.845   3.990  0.0650  0.2301 -0.4006
  160SAPE  H17R17856   4.107   1.838   4.077 -1.3954  0.0469  0.7579
  160SAPE  H17S17857   3.993   1.744   3.987  1.5015 -0.5323  1.4969
  160SAPE  C21817858   3.936   1.954   4.005  0.0723  0.1525 -0.1059
  160SAPE  H18R17859   3.854   1.966   3.930 -1.3887 -0.7948  1.2847
  160SAPE  H18S17860   3.995   2.049   4.001  0.5598 -0.1738 -2.1288
  160SAPE  C21917861   3.852   1.952   4.133 -0.1939 -0.2546 -0.3868
  160SAPE  H19R17862   3.904   1.921   4.226 -1.4768 -0.9687  0.1163
  160SAPE  H19S17863   3.766   1.884   4.118  0.2550 -0.9732  0.2436
  160SAPE  C22017864   3.797   2.088   4.174  0.1439 -0.5451  0.0028
  160SAPE  H20R17865   3.730   2.061   4.258 -2.3047 -0.5989 -1.8632
  160SAPE  H20S17866   3.729   2.137   4.102 -1.5264 -0.7358  1.3882
  160SAPE  H20T17867   3.878   2.158   4.206 -1.6590  1.7734 -0.2185
  160SAPE   C3317868   3.893   2.274   2.864 -0.6757 -0.2858 -0.1647
  160SAPE   H3X17869   3.849   2.183   2.818  1.0906 -1.2411 -0.0303
  160SAPE   H3Y17870   3.812   2.339   2.904 -1.9031 -1.6454 -0.3381
  160SAPE   C3417871   3.978   2.247   2.992  1.2336  0.2738  0.6534
  160SAPE   H4X17872   4.004   2.340   3.047  2.2877  0.4497 -0.1240
  160SAPE   H4Y17873   4.075   2.205   2.959  0.8542 -0.4134  0.3858
  160SAPE   C3517874   3.920   2.154   3.100 -0.0606 -0.7377 -0.9318
  160SAPE   H5X17875   3.918   2.046   3.075  0.0432 -1.6316  2.3666
  160SAPE   H5Y17876   3.810   2.169   3.095 -0.1044  1.1718  2.5251
  160SAPE   C3617877   3.964   2.185   3.240 -0.5127  0.2312  0.0905
  160SAPE   H6X17878   3.952   2.292   3.268  0.6683 -0.0205  1.7176
  160SAPE   H6Y17879   4.073   2.170   3.256 -0.1532 -0.7282 -2.7231
  160SAPE   C3717880   3.899   2.096   3.344  0.9877  0.4788 -0.8056
  160SAPE   H7X17881   3.891   1.988   3.320  1.4910  0.0671  0.7746
  160SAPE   H7Y17882   3.793   2.129   3.345  0.4146 -1.2728 -0.2496
  160SAPE   C3817883   3.965   2.104   3.484 -0.0069  0.4247  0.0092
  160SAPE   H8X17884   4.071   2.073   3.476  0.2298  0.7853  1.4652
  160SAPE   H8Y17885   3.912   2.033   3.551 -0.2954 -0.5970 -1.2599
  160SAPE   C3917886   3.952   2.240   3.558 -0.5999 -0.4930 -1.2823
  160SAPE   H9X17887   3.845   2.269   3.555 -0.3649  0.9265  1.1246
  160SAPE   H9Y17888   4.023   2.305   3.503 -0.5081  0.2376 -0.3322
  160SAPE  C31017889   3.969   2.228   3.707 -0.2894  0.1028  0.7612
  160SAPE  H10X17890   4.077   2.210   3.726  0.1590  2.6812  0.9456
  160SAPE  H10Y17891   3.906   2.152   3.758  0.1206  0.2648  1.5237
  160SAPE  C31117892   3.934   2.363   3.778 -0.2276  0.2071  0.3319
  160SAPE  H11X17893   3.827   2.394   3.766 -0.5908 -1.5387 -1.5093
  160SAPE  H11Y17894   3.990   2.443   3.726 -2.3150  0.9760 -0.8872
  160SAPE  C31217895   3.981   2.350   3.916  0.0883 -0.2365 -0.0941
  160SAPE  H12X17896   4.092   2.357   3.914  0.1930  0.9478  3.2466
  160SAPE  H12Y17897   3.957   2.253   3.964  0.8147 -0.3155  0.1250
  160SAPE  C31317898   3.937   2.460   4.013 -0.2155 -0.5686  0.1604
  160SAPE  H13X17899   3.827   2.451   4.025 -0.0319 -0.6193  2.1296
  160SAPE  H13Y17900   3.962   2.564   3.983 -2.3561  0.8885  2.9468
  160SAPE  C31417901   3.995   2.452   4.156  0.3228  0.3719  0.2156
  160SAPE  H14X17902   4.105   2.448   4.142  0.1141  1.2870 -2.3852
  160SAPE  H14Y17903   3.955   2.355   4.192 -0.9007  1.1686  1.0782
  160SAPE  C31517904   3.969   2.575   4.239 -0.3119 -0.6055 -0.0467
  160SAPE  H15X17905   3.987   2.659   4.168 -0.3233 -0.8032 -0.2876
  160SAPE  H15Y17906   4.050   2.579   4.315  0.7687 -3.7538 -0.8609
  160SAPE  C31617907   3.833   2.575   4.306  0.0387  0.4575 -0.0399
  160SAPE  H16X17908   3.831   2.504   4.391  1.1454  0.7331  0.2293
  160SAPE  H16Y17909   3.756   2.545   4.232 -0.3320 -0.7758  0.8193
  160SAPE  C31717910   3.802   2.713   4.368  0.2364  0.2893 -0.3088
  160SAPE  H17X17911   3.886   2.740   4.435  1.8654  0.7871 -2.4556
  160SAPE  H17Y17912   3.712   2.699   4.432 -0.1156  0.1158 -0.8351
  160SAPE  C31817913   3.792   2.829   4.269 -0.2742 -0.8940 -0.5639
  160SAPE  H18X17914   3.887   2.862   4.220 -0.3411  1.3499  0.6647
  160SAPE  H18Y17915   3.737   2.916   4.311 -0.1146 -1.2849  0.4977
  160SAPE  H18Z17916   3.736   2.800   4.178 -0.2487 -0.8770 -0.5848
  161SAPE     N17917   2.867   3.775   2.114  0.4934 -0.3181  0.1478
  161SAPE   HN117918   2.766   3.781   2.092  1.0371  0.4429 -2.6194
  161SAPE   HN217919   2.923   3.843   2.057 -0.3825  0.1772 -0.1391
  161SAPE   HN317920   2.901   3.682   2.083  0.6427 -0.3305  0.3467
  161SAPE   C1217921   2.898   3.805   2.254  0.2918 -0.5642  0.4981
  161SAPE  H12A17922   3.006   3.782   2.265  0.5699  0.2710 -0.3050
  161SAPE  H12B17923   2.834   3.747   2.323 -0.3412  0.0245  0.4153
  161SAPE   C1117924   2.872   3.962   2.267 -0.1769 -0.0419  0.4039
  161SAPE  H11A17925   2.922   3.995   2.361 -0.3161  2.0890 -0.2257
  161SAPE  H11B17926   2.764   3.980   2.288 -0.5604  0.3861 -1.6847
  161SAPE     P17927   2.888   4.189   2.154 -0.0021 -0.7111 -0.1507
  161SAPE   O1317928   2.971   4.266   2.063  0.0990  0.1297 -0.0346
  161SAPE   O1417929   2.745   4.218   2.162 -0.1932 -0.1140 -0.0939
  161SAPE   O1217930   2.919   4.034   2.149  0.1779  0.5426  0.1672
  161SAPE   O1117931   2.942   4.223   2.296 -0.5143 -0.2744  0.1786
  161SAPE    C117932   2.934   4.364   2.346 -0.0987  0.3378 -0.3678
  161SAPE    HA17933   3.030   4.418   2.332  0.7514 -1.7167 -3.4243
  161SAPE    HB17934   2.859   4.426   2.291  1.2101  1.2797 -1.1759
  161SAPE    C217935   2.903   4.373   2.498  0.2348  0.1922  0.5914
  161SAPE    HS17936   2.995   4.335   2.548  1.2608  1.0611 -0.5641
  161SAPE   O2117937   2.784   4.304   2.538  0.1051 -0.3406 -0.6548
  161SAPE   C2117938   2.801   4.188   2.589 -0.1790  0.4478  0.4254
  161SAPE   O2217939   2.908   4.128   2.608 -0.3663  0.4890 -0.1842
  161SAPE   C2217940   2.670   4.148   2.655  0.8806 -0.2737  0.3269
  161SAPE   H2R17941   2.652   4.215   2.742 -0.6847  0.0996 -0.2676
  161SAPE   H2S17942   2.584   4.177   2.592  0.5026 -1.4440  0.2795
  161SAPE    C317943   2.883   4.516   2.552  0.1327  0.1276  0.9363
  161SAPE    HX17944   2.775   4.540   2.554  0.3387  1.0355  1.4471
  161SAPE    HY17945   2.929   4.580   2.473 -1.0952 -1.4925 -1.2115
  161SAPE   O3117946   2.945   4.535   2.683  0.2876 -0.8766  0.5272
  161SAPE   C3117947   2.866   4.473   2.782  0.2916 -0.1119 -0.0748
  161SAPE   O3217948   2.748   4.446   2.767 -0.3994 -0.1936 -0.0086
  161SAPE   C3217949   2.958   4.446   2.902 -0.4353  0.2086 -0.4053
  161SAPE   H2X17950   2.980   4.544   2.950 -2.2140 -0.3489  1.6947
  161SAPE   H2Y17951   3.055   4.397   2.878  0.5216  0.9755  1.6716
  161SAPE   C2317952   2.665   4.006   2.704 -0.3727 -0.2083  0.5761
  161SAPE   H3R17953   2.752   3.970   2.763  1.9682  2.4094 -1.0287
  161SAPE   H3S17954   2.653   3.934   2.620 -0.0718  1.6519 -1.1331
  161SAPE   C2417955   2.531   3.988   2.781 -0.3677 -0.4593  0.2120
  161SAPE   H4R17956   2.448   4.014   2.713 -0.1293 -0.7515 -0.1939
  161SAPE   H4S17957   2.525   4.052   2.871 -3.8111 -0.5279  0.1346
  161SAPE   C2517958   2.516   3.846   2.813  0.8799 -0.4002  0.4082
  161SAPE   H5R17959   2.521   3.781   2.724 -1.7099  0.8097 -0.7135
  161SAPE   C2617960   2.522   3.793   2.936  0.3966  0.1543  0.8015
  161SAPE   H6R17961   2.511   3.685   2.951  1.6213 -0.1091 -0.0602
  161SAPE   C2717962   2.545   3.860   3.067  0.1581  0.1457 -0.8479
  161SAPE   H7R17963   2.582   3.963   3.047 -2.4180  0.8142 -2.7466
  161SAPE   H7S17964   2.629   3.806   3.115 -1.0923  0.3354  1.7451
  161SAPE   C2817965   2.425   3.869   3.161  0.0632  0.5290 -0.0862
  161SAPE   H8R17966   2.336   3.808   3.142  0.8037 -1.3350  2.0450
  161SAPE   C2917967   2.436   3.919   3.286  0.2242 -0.8231  0.8147
  161SAPE   H9R17968   2.342   3.932   3.341 -0.5319  1.2894 -0.8525
  161SAPE  C21017969   2.563   3.972   3.348  0.0942  0.6017  0.6539
  161SAPE  H10R17970   2.644   3.965   3.272 -0.6799  0.3963 -0.1634
  161SAPE  H10S17971   2.596   3.905   3.431 -1.2974 -0.6719  0.2330
  161SAPE  C21117972   2.553   4.111   3.393  0.2786  0.2629  0.6313
  161SAPE  H11R17973   2.540   4.182   3.310 -2.0069 -0.8500 -0.0370
  161SAPE  C21217974   2.545   4.150   3.519  0.0616 -0.3436 -0.7363
  161SAPE  H12R17975   2.536   4.257   3.544 -0.1552 -0.2542 -1.1891
  161SAPE  C21317976   2.555   4.063   3.642 -0.3352  0.2792  0.0285
  161SAPE  H13R17977   2.647   4.096   3.696  0.0620 -0.5584 -0.1196
  161SAPE  H13S17978   2.565   3.956   3.613 -1.7728  0.0776  0.2090
  161SAPE  C21417979   2.443   4.074   3.746 -0.1915  0.2534  0.2684
  161SAPE  H14R17980   2.478   4.096   3.848 -0.9231  1.9121  0.1902
  161SAPE  C21517981   2.306   4.067   3.735  0.4027  0.4541 -0.2544
  161SAPE  H15R17982   2.248   4.071   3.828 -0.3987 -0.3621 -0.7059
  161SAPE  C21617983   2.230   4.033   3.611  0.4939 -0.1769  0.4366
  161SAPE  H16R17984   2.290   3.979   3.535 -1.0237  1.0147 -1.7257
  161SAPE  H16S17985   2.197   4.131   3.569  0.7341 -0.5628 -0.6770
  161SAPE  C21717986   2.093   3.950   3.627 -0.6325 -0.1076 -0.0755
  161SAPE  H17R17987   2.020   4.007   3.688 -0.0005  1.5335 -0.7990
  161SAPE  H17S17988   2.133   3.863   3.684  1.0346  1.4101  1.1488
  161SAPE  C21817989   2.021   3.906   3.496 -0.1310 -0.7191  0.0872
  161SAPE  H18R17990   2.007   3.996   3.432  0.6788  2.3568  3.8718
  161SAPE  H18S17991   1.916   3.881   3.522 -0.6685  0.4558 -0.8656
  161SAPE  C21917992   2.085   3.778   3.438 -0.1178  0.0237 -0.6000
  161SAPE  H19R17993   2.111   3.706   3.518 -3.9522 -1.5960 -0.6081
  161SAPE  H19S17994   2.183   3.806   3.396 -0.3808 -0.8579 -1.8264
  161SAPE  C22017995   2.000   3.692   3.349  0.0536 -0.2680 -0.0723
  161SAPE  H20R17996   1.918   3.662   3.418  0.0331  1.2139  0.5981
  161SAPE  H20S17997   2.059   3.601   3.327 -0.9042 -0.4679 -1.9614
  161SAPE  H20T17998   1.968   3.748   3.258  2.8784  1.7899  0.0593
  161SAPE   C3317999   2.885   4.380   3.023 -0.0623 -0.6157 -0.1081
  161SAPE   H3X18000   2.859   4.276   2.997  0.7399 -1.0288  0.6695
  161SAPE   H3Y18001   2.795   4.437   3.056  0.1982 -0.4512  0.3426
  161SAPE   C3418002   2.985   4.367   3.143 -0.4394 -0.7002 -0.1852
  161SAPE   H4X18003   3.079   4.323   3.105  0.0937  0.4432 -0.2178
  161SAPE   H4Y18004   2.943   4.283   3.202 -0.6122  0.7094  1.7891
  161SAPE   C3518005   3.010   4.488   3.223 -0.6859 -0.2203 -0.2825
  161SAPE   H5X18006   3.049   4.580   3.175 -1.3940  0.1806 -0.0939
  161SAPE   H5Y18007   3.089   4.462   3.297  0.5123 -0.4606 -1.5990
  161SAPE   C3618008   2.893   4.546   3.308  0.0754 -0.3899  0.0151
  161SAPE   H6X18009   2.810   4.578   3.242  0.3481  5.0808  1.8304
  161SAPE   H6Y18010   2.930   4.643   3.349 -0.5257  0.4804 -1.4257
  161SAPE   C3718011   2.840   4.449   3.422 -0.5536  0.0546  0.8111
  161SAPE   H7X18012   2.778   4.366   3.383 -1.7765  1.6512 -0.8322
  161SAPE   H7Y18013   2.764   4.519   3.465  1.9124  1.6450  2.8530
  161SAPE   C3818014   2.945   4.428   3.536 -0.3148  0.0109  0.5268
  161SAPE   H8X18015   2.967   4.528   3.580 -2.2990  0.7843 -0.1400
  161SAPE   H8Y18016   3.040   4.400   3.485  0.9295  1.9063  1.6497
  161SAPE   C3918017   2.913   4.336   3.652  0.4781  0.3947  0.1542
  161SAPE   H9X18018   3.005   4.330   3.715  0.8847  0.6212 -0.4090
  161SAPE   H9Y18019   2.889   4.241   3.600  0.0495  1.1224 -1.0447
  161SAPE  C31018020   2.786   4.369   3.731 -0.1673  0.2538 -0.0686
  161SAPE  H10X18021   2.701   4.344   3.664  0.0518  0.5690 -0.4692
  161SAPE  H10Y18022   2.792   4.480   3.737 -0.1308  0.2522 -0.0789
  161SAPE  C31118023   2.777   4.310   3.870 -0.3943  0.0262 -0.1640
  161SAPE  H11X18024   2.859   4.361   3.924 -0.2660  0.6741 -0.9523
  161SAPE  H11Y18025   2.782   4.199   3.869 -1.2865 -0.1073  2.3431
  161SAPE  C31218026   2.645   4.350   3.937  0.4023 -0.3421 -0.1489
  161SAPE  H12X18027   2.561   4.353   3.864  1.5679  2.8613 -1.5431
  161SAPE  H12Y18028   2.648   4.452   3.982 -1.3060  0.1652 -1.0893
  161SAPE  C31318029   2.600   4.255   4.052  0.3752 -0.1356 -0.7133
  161SAPE  H13X18030   2.672   4.276   4.134  0.4532 -0.3709 -0.7208
  161SAPE  H13Y18031   2.618   4.152   4.013 -0.0816 -1.1763  1.6713
  161SAPE  C31418032   2.454   4.267   4.101  0.3094  0.1122  0.4667
  161SAPE  H14X18033   2.438   4.211   4.195 -3.1444 -0.9151 -0.5922
  161SAPE  H14Y18034   2.384   4.229   4.024 -0.7128  1.5592  0.6334
  161SAPE  C31518035   2.415   4.412   4.122  0.5734  0.0745 -0.0719
  161SAPE  H15X18036   2.347   4.445   4.041  0.3285 -2.2941 -0.8820
  161SAPE  H15Y18037   2.496   4.488   4.136 -0.5064  1.0291  1.2140
  161SAPE  C31618038   2.329   4.429   4.243  0.0015  0.3698 -0.8577
  161SAPE  H16X18039   2.305   4.534   4.274  1.4617  0.6085 -0.4780
  161SAPE  H16Y18040   2.385   4.384   4.327 -1.1385 -1.4616 -1.0261
  161SAPE  C31718041   2.191   4.362   4.235  0.7125  0.1638 -0.0582
  161SAPE  H17X18042   2.211   4.253   4.239  0.4417  0.1408  1.1157
  161SAPE  H17Y18043   2.145   4.386   4.137  1.1957  3.5503  0.4402
  161SAPE  C31818044   2.091   4.397   4.353 -0.1870  0.2812  0.5142
  161SAPE  H18X18045   2.065   4.505   4.353 -0.1153  0.3590  2.9253
  161SAPE  H18Y18046   2.152   4.380   4.444  1.6933 -1.0122 -0.9137
  161SAPE  H18Z18047   2.006   4.329   4.374 -1.0277  1.7959  2.2553
  162SAPE     N18048   1.180   5.881   2.070  0.4888 -0.2254  0.2305
  162SAPE   HN118049   1.255   5.852   2.005 -0.9769  0.4895 -1.9086
  162SAPE   HN218050   1.119   5.797   2.072  0.3995 -0.1510  0.9600
  162SAPE   HN318051   1.126   5.956   2.022  1.7968  0.7033  0.1498
  162SAPE   C1218052   1.256   5.913   2.198  0.8070 -0.6054 -0.1671
  162SAPE  H12A18053   1.188   5.977   2.259  2.7396 -0.4758  1.9440
  162SAPE  H12B18054   1.351   5.963   2.170  0.4454  1.5295  2.0380
  162SAPE   C1118055   1.291   5.784   2.278 -0.1883 -0.0069  0.2541
  162SAPE  H11A18056   1.201   5.719   2.289  1.1923 -1.7227  2.0927
  162SAPE  H11B18057   1.320   5.824   2.378 -0.8305  1.6621 -0.2110
  162SAPE     P18058   1.541   5.720   2.232 -0.1760  0.0909 -0.0035
  162SAPE   O1318059   1.599   5.605   2.305  0.2117  0.1387 -0.2586
  162SAPE   O1418060   1.609   5.765   2.108 -0.6164 -0.0373 -0.4664
  162SAPE   O1218061   1.383   5.702   2.204 -0.6396 -0.3307 -0.7759
  162SAPE   O1118062   1.535   5.851   2.330 -0.3569 -0.3264 -0.0277
  162SAPE    C118063   1.615   5.854   2.452 -0.7704 -0.2502 -0.3230
  162SAPE    HA18064   1.640   5.753   2.492  0.5635  0.3915  0.5469
  162SAPE    HB18065   1.712   5.901   2.425 -1.5303  0.0608 -2.7854
  162SAPE    C218066   1.537   5.919   2.570 -0.1390 -0.3667 -0.4071
  162SAPE    HS18067   1.602   5.914   2.660  0.5178 -0.4799 -0.8756
  162SAPE   O2118068   1.413   5.851   2.587 -0.1332 -0.5644  0.2378
  162SAPE   C2118069   1.402   5.736   2.638 -0.7969 -0.4236 -0.3411
  162SAPE   O2218070   1.490   5.673   2.689 -0.6875  0.0511  0.3426
  162SAPE   C2218071   1.254   5.686   2.629 -0.4762 -0.2567 -0.6266
  162SAPE   H2R18072   1.193   5.757   2.570 -0.2916  1.5885  1.2736
  162SAPE   H2S18073   1.254   5.587   2.579 -0.0816 -0.1221 -0.8981
  162SAPE    C318074   1.522   6.071   2.536  0.2780 -0.3421  0.3635
  162SAPE    HX18075   1.456   6.069   2.447  0.3083 -0.1613  0.3366
  162SAPE    HY18076   1.618   6.117   2.501 -1.1685 -0.1118 -3.8522
  162SAPE   O3118077   1.474   6.152   2.651 -0.0526  0.5348  0.0711
  162SAPE   C3118078   1.344   6.168   2.650 -0.1341  0.2171 -0.0107
  162SAPE   O3218079   1.270   6.155   2.554  0.6181 -0.0383  0.5129
  162SAPE   C3218080   1.308   6.224   2.785 -0.3506  0.0915  0.1464
  162SAPE   H2X18081   1.308   6.333   2.763 -1.6277 -0.0389 -0.6508
  162SAPE   H2Y18082   1.387   6.210   2.862  0.1928  2.2652  0.0603
  162SAPE   C2318083   1.187   5.684   2.768 -0.3264  0.8544 -0.6750
  162SAPE   H3R18084   1.214   5.773   2.829  1.3552  0.3399 -0.6146
  162SAPE   H3S18085   1.207   5.588   2.819 -2.2698 -0.3506 -2.0664
  162SAPE   C2418086   1.035   5.685   2.754  0.2549 -0.4030 -0.2535
  162SAPE   H4R18087   0.980   5.636   2.837 -1.6679  1.9264 -0.0406
  162SAPE   H4S18088   1.017   5.606   2.678  1.7232 -1.2803  0.2902
  162SAPE   C2518089   0.977   5.820   2.722 -0.6436 -0.1131 -0.2114
  162SAPE   H5R18090   1.002   5.854   2.620  2.1466  3.6592  1.4869
  162SAPE   C2618091   0.926   5.906   2.808  0.5269 -0.3973 -0.0396
  162SAPE   H6R18092   0.904   6.008   2.774  2.7783 -0.2986 -1.4688
  162SAPE   C2718093   0.900   5.867   2.949  0.5150 -0.0027  0.4508
  162SAPE   H7R18094   1.000   5.860   2.997  0.1857  0.3996  1.2069
  162SAPE   H7S18095   0.851   5.768   2.960 -0.9847  0.5714 -0.7091
  162SAPE   C2818096   0.818   5.976   3.022 -0.1691  0.4963 -0.4080
  162SAPE   H8R18097   0.796   6.076   2.980  0.7027  0.9286  0.1227
  162SAPE   C2918098   0.779   5.953   3.151  0.2336 -0.4268  0.3954
  162SAPE   H9R18099   0.726   6.031   3.208  2.3582 -0.1401  2.0672
  162SAPE  C21018100   0.797   5.831   3.237  0.0738 -0.1490  0.7609
  162SAPE  H10R18101   0.801   5.851   3.346 -0.3620 -2.0227  1.1647
  162SAPE  H10S18102   0.896   5.788   3.211 -0.0568 -0.9644  1.5411
  162SAPE  C21118103   0.697   5.725   3.194  0.5503  0.5061  0.3462
  162SAPE  H11R18104   0.679   5.718   3.085 -3.8491 -1.8366  0.9714
  162SAPE  C21218105   0.638   5.634   3.272 -0.1686  0.0322 -0.1193
  162SAPE  H12R18106   0.563   5.570   3.223  0.0086  1.2556 -2.1023
  162SAPE  C21318107   0.667   5.615   3.420  0.6704 -0.1146  0.0607
  162SAPE  H13R18108   0.777   5.617   3.439  0.6330  1.3203  0.2453
  162SAPE  H13S18109   0.634   5.517   3.461  0.0424  0.2669  0.4835
  162SAPE  C21418110   0.593   5.731   3.493 -0.5796 -0.9347  0.2813
  162SAPE  H14R18111   0.529   5.801   3.438  2.3643  1.0010 -0.9359
  162SAPE  C21518112   0.612   5.763   3.622  0.5071 -0.0745 -0.3694
  162SAPE  H15R18113   0.544   5.837   3.667 -0.3711 -1.1246  0.0462
  162SAPE  C21618114   0.708   5.704   3.720 -0.0482  0.0939  0.5980
  162SAPE  H16R18115   0.805   5.682   3.671 -0.1685  0.3818  0.2220
  162SAPE  H16S18116   0.664   5.608   3.755  0.3825 -0.1636  0.4382
  162SAPE  C21718117   0.736   5.787   3.846  0.5847  0.6864  0.8109
  162SAPE  H17R18118   0.754   5.885   3.796  0.1439 -0.5584 -1.9389
  162SAPE  H17S18119   0.830   5.760   3.899  1.0730  0.0456 -0.3444
  162SAPE  C21818120   0.620   5.778   3.943  0.7020 -0.3109 -0.1624
  162SAPE  H18R18121   0.629   5.677   3.988  2.4184 -0.5715 -0.9793
  162SAPE  H18S18122   0.523   5.791   3.892  1.1900  0.1416 -1.0002
  162SAPE  C21918123   0.619   5.883   4.057  0.5319 -0.0247  0.0223
  162SAPE  H19R18124   0.581   5.983   4.027  1.0544  0.7065  1.6730
  162SAPE  H19S18125   0.718   5.890   4.107 -0.2710 -0.4229  1.7556
  162SAPE  C22018126   0.526   5.836   4.171 -0.1987 -0.0095 -0.0823
  162SAPE  H20R18127   0.545   5.906   4.256  0.0236 -1.0730  0.7622
  162SAPE  H20S18128   0.548   5.733   4.207 -2.7003 -0.3921  0.6049
  162SAPE  H20T18129   0.419   5.840   4.140 -0.3415 -0.1241  0.3846
  162SAPE   C3318130   1.167   6.184   2.834  0.3697  0.3968 -0.1237
  162SAPE   H3X18131   1.151   6.074   2.832  3.7422 -0.2377  0.6124
  162SAPE   H3Y18132   1.085   6.228   2.774 -0.2018  0.6665  0.8319
  162SAPE   C3418133   1.146   6.228   2.979 -0.1453  0.4988 -0.3684
  162SAPE   H4X18134   1.222   6.185   3.047  0.2130  0.3713 -0.8455
  162SAPE   H4Y18135   1.048   6.198   3.021  0.0021  1.9509  1.0989
  162SAPE   C3518136   1.130   6.385   2.978  0.7077  0.2044 -0.7257
  162SAPE   H5X18137   1.054   6.422   2.906  0.7718  0.4294 -0.6797
  162SAPE   H5Y18138   1.227   6.428   2.945  2.2061 -0.1983  2.6583
  162SAPE   C3618139   1.085   6.435   3.128 -0.5564 -0.3878 -0.2050
  162SAPE   H6X18140   1.157   6.518   3.143 -0.5592 -0.2296 -1.0277
  162SAPE   H6Y18141   1.114   6.342   3.180 -2.0546 -1.7162 -1.6081
  162SAPE   C3718142   0.935   6.457   3.145  0.0979 -0.0566  1.1494
  162SAPE   H7X18143   0.887   6.363   3.109  0.0244  0.6415 -0.6885
  162SAPE   H7Y18144   0.907   6.548   3.088  2.1495 -0.2659 -0.3291
  162SAPE   C3818145   0.888   6.480   3.283  0.1129  0.5036  0.4331
  162SAPE   H8X18146   0.779   6.493   3.263  0.1280 -1.3490 -1.2152
  162SAPE   H8Y18147   0.922   6.573   3.333  0.0846  1.2299 -0.8464
  162SAPE   C3918148   0.898   6.367   3.393  0.0667 -0.5239  0.3041
  162SAPE   H9X18149   0.821   6.383   3.472  0.3593 -1.6787  0.8535
  162SAPE   H9Y18150   0.996   6.374   3.445 -0.2018  2.0982  0.5483
  162SAPE  C31018151   0.867   6.226   3.352 -0.2509  0.2657 -0.1656
  162SAPE  H10X18152   0.931   6.192   3.269  1.8587  0.6501  1.2402
  162SAPE  H10Y18153   0.760   6.232   3.322 -0.4880  0.7425  0.7315
  162SAPE  C31118154   0.873   6.127   3.470  0.0703  0.3507 -0.9899
  162SAPE  H11X18155   0.793   6.050   3.477  1.1825 -0.7218  0.8187
  162SAPE  H11Y18156   0.846   6.195   3.554  2.4449  0.1905 -0.0272
  162SAPE  C31218157   1.011   6.071   3.511 -0.0349 -1.0238 -0.1745
  162SAPE  H12X18158   1.080   6.154   3.536 -0.3594 -0.2025 -1.8228
  162SAPE  H12Y18159   1.056   6.021   3.422 -0.3505 -1.7029  0.0389
  162SAPE  C31318160   1.000   5.971   3.627  0.3205  0.2709 -0.6870
  162SAPE  H13X18161   0.957   5.872   3.602  1.1892 -0.6605  1.2782
  162SAPE  H13Y18162   0.939   6.022   3.704  0.7427 -0.4734  0.1564
  162SAPE  C31418163   1.133   5.941   3.692  0.2082  0.0839 -0.4557
  162SAPE  H14X18164   1.192   6.035   3.692  0.8541 -0.2986  1.2172
  162SAPE  H14Y18165   1.184   5.868   3.625 -0.0350  0.5790 -1.2039
  162SAPE  C31518166   1.116   5.865   3.824 -0.0211 -0.2324  0.4418
  162SAPE  H15X18167   1.060   5.769   3.814 -4.4318  2.3422 -2.9596
  162SAPE  H15Y18168   1.048   5.920   3.892  0.4803 -1.3306  1.9154
  162SAPE  C31618169   1.248   5.848   3.905 -0.1902 -0.0509  0.0202
  162SAPE  H16X18170   1.310   5.940   3.898  2.3479 -1.7857 -3.9024
  162SAPE  H16Y18171   1.308   5.781   3.840 -0.6705  0.8326 -1.3819
  162SAPE  C31718172   1.245   5.787   4.039  0.4689 -0.8774 -0.6397
  162SAPE  H17X18173   1.172   5.844   4.100 -0.5311 -1.7890 -0.9663
  162SAPE  H17Y18174   1.345   5.802   4.084  0.8526 -0.8978 -1.4533
  162SAPE  C31818175   1.200   5.643   4.051  0.8929 -0.2427  0.3086
  162SAPE  H18X18176   1.092   5.635   4.026  0.8001  0.0762  0.5973
  162SAPE  H18Y18177   1.188   5.608   4.156  0.2094 -1.4272 -0.1427
  162SAPE  H18Z18178   1.277   5.578   4.004  1.1061 -0.3955  0.8688
  163SAPE     N18179   0.409   4.209   2.580  1.1548  0.2993 -0.3741
  163SAPE   HN118180   0.479   4.209   2.657  1.8581  0.0244 -0.9974
  163SAPE   HN218181   0.390   4.306   2.550 -0.6610  0.1091  0.0597
  163SAPE   HN318182   0.320   4.178   2.625  1.8963  1.9853  2.5193
  163SAPE   C1218183   0.427   4.130   2.455 -0.3015 -0.0417  0.0792
  163SAPE  H12A18184   0.328   4.095   2.420 -0.8303  0.0102  1.4674
  163SAPE  H12B18185   0.491   4.043   2.482 -2.1298 -1.4164  0.1334
  163SAPE   C1118186   0.483   4.209   2.327 -0.6300  1.4067 -0.1071
  163SAPE  H11A18187   0.421   4.297   2.298 -1.6157  0.9930  0.6917
  163SAPE  H11B18188   0.485   4.139   2.242 -0.7654  1.4645 -0.1591
  163SAPE     P18189   0.739   4.160   2.333 -0.0380  0.0416  0.7512
  163SAPE   O1318190   0.700   4.018   2.323 -0.1657 -0.8029 -0.0278
  163SAPE   O1418191   0.811   4.222   2.218  0.5200 -0.3585 -0.5646
  163SAPE   O1218192   0.613   4.255   2.364  0.3124  0.0483 -0.3065
  163SAPE   O1118193   0.830   4.173   2.459  0.1174 -0.2479 -0.0748
  163SAPE    C118194   0.870   4.299   2.500  0.5411  0.3641 -0.6459
  163SAPE    HA18195   0.934   4.348   2.424 -0.0838 -1.2318 -2.2734
  163SAPE    HB18196   0.780   4.357   2.527  1.5317  1.7933 -0.3229
  163SAPE    C218197   0.967   4.291   2.623  0.1822 -0.0670 -0.2532
  163SAPE    HS18198   1.071   4.258   2.605  0.5627 -2.0955  4.2054
  163SAPE   O2118199   0.906   4.201   2.731 -0.2775 -0.0287 -0.0770
  163SAPE   C2118200   0.962   4.086   2.738 -0.5829  0.0652  0.4161
  163SAPE   O2218201   1.051   4.036   2.665 -0.2788  0.4750  0.6530
  163SAPE   C2218202   0.882   4.002   2.830  0.2143  0.3473  0.0742
  163SAPE   H2R18203   0.779   4.040   2.818  0.3795  0.2920 -1.8351
  163SAPE   H2S18204   0.880   3.900   2.788  0.4310  0.7926 -1.0622
  163SAPE    C318205   0.997   4.436   2.678 -0.4225 -0.0718 -0.4994
  163SAPE    HX18206   0.903   4.491   2.698  0.4408  1.1487  0.3071
  163SAPE    HY18207   1.047   4.488   2.593 -2.5633  1.0059 -1.1750
  163SAPE   O3118208   1.081   4.430   2.797  0.4668 -0.2729  0.1213
  163SAPE   C3118209   1.103   4.554   2.853  0.5263  0.2030  1.2163
  163SAPE   O3218210   1.062   4.659   2.808  0.4001 -0.6184  0.3884
  163SAPE   C3218211   1.192   4.540   2.968 -0.5801  0.4946  0.1420
  163SAPE   H2X18212   1.297   4.554   2.933 -0.5668 -1.3284 -0.6714
  163SAPE   H2Y18213   1.180   4.440   3.015  1.8617  0.1060  0.0614
  163SAPE   C2318214   0.924   4.004   2.975 -0.9257 -0.2050 -0.2840
  163SAPE   H3R18215   0.844   3.950   3.030  0.4348 -0.0728  1.9486
  163SAPE   H3S18216   0.932   4.108   3.014 -1.2208  0.9431 -3.0830
  163SAPE   C2418217   1.058   3.926   2.998 -0.3076  0.0562 -0.4077
  163SAPE   H4R18218   1.093   3.945   3.102  2.0643  0.1501 -1.1664
  163SAPE   H4S18219   1.136   3.971   2.934 -0.4359 -0.7597 -1.1550
  163SAPE   C2518220   1.036   3.781   2.963  0.3763  0.7901 -0.0175
  163SAPE   H5R18221   1.053   3.745   2.861 -4.5860 -0.0892 -0.8016
  163SAPE   C2618222   0.994   3.685   3.054 -0.4752 -0.0697 -0.8269
  163SAPE   H6R18223   0.970   3.582   3.026 -1.5717  0.2040 -0.9409
  163SAPE   C2718224   0.943   3.702   3.192 -0.6718 -0.6268 -0.6732
  163SAPE   H7R18225   0.846   3.649   3.200 -0.9533  0.0936  1.0859
  163SAPE   H7S18226   0.928   3.808   3.220 -1.5228 -1.1552  0.9352
  163SAPE   C2818227   1.054   3.650   3.280  0.1030  0.0362  0.3551
  163SAPE   H8R18228   1.154   3.653   3.236  0.3777 -1.6882  0.7890
  163SAPE   C2918229   1.047   3.618   3.414  0.1710 -0.0781 -0.3275
  163SAPE   H9R18230   1.136   3.590   3.471 -1.7817 -1.2850  2.3153
  163SAPE  C21018231   0.919   3.625   3.499  0.4213 -0.0177 -0.2928
  163SAPE  H10R18232   0.862   3.711   3.458 -0.3043 -0.1947  0.3305
  163SAPE  H10S18233   0.950   3.654   3.601  0.3428  0.6045 -0.4383
  163SAPE  C21118234   0.814   3.513   3.498  0.1033  0.3816 -0.0152
  163SAPE  H11R18235   0.728   3.542   3.436 -0.2668  0.2615  0.4452
  163SAPE  C21218236   0.826   3.400   3.569 -0.1124 -0.1812  0.0099
  163SAPE  H12R18237   0.754   3.317   3.562  0.4931 -0.5568 -2.6415
  163SAPE  C21318238   0.943   3.378   3.667  0.0530 -0.3107 -0.3132
  163SAPE  H13R18239   1.018   3.461   3.663 -0.0377 -0.0469  2.1177
  163SAPE  H13S18240   0.998   3.284   3.646 -2.1098 -1.9735  1.1726
  163SAPE  C21418241   0.898   3.366   3.814  0.8834 -0.1763 -0.4949
  163SAPE  H14R18242   0.809   3.301   3.813  1.7739 -1.7148  3.1791
  163SAPE  C21518243   0.952   3.393   3.929  0.6839  0.7627 -0.1046
  163SAPE  H15R18244   0.895   3.383   4.022  1.1052  2.4840  0.3822
  163SAPE  C21618245   1.086   3.456   3.945 -0.1201  0.5081 -0.1980
  163SAPE  H16R18246   1.067   3.544   4.010  0.8725  0.7626 -0.2437
  163SAPE  H16S18247   1.124   3.499   3.850  1.4278 -2.0655 -0.8418
  163SAPE  C21718248   1.191   3.359   3.998 -0.5860 -0.1144  0.7495
  163SAPE  H17R18249   1.227   3.290   3.919 -0.1250  0.7644  0.1724
  163SAPE  H17S18250   1.159   3.294   4.082 -0.8258  0.3578  1.0256
  163SAPE  C21818251   1.313   3.452   4.030  0.2194  0.5538 -0.2561
  163SAPE  H18R18252   1.288   3.506   4.123  1.3861 -0.8585  0.9264
  163SAPE  H18S18253   1.325   3.531   3.952 -1.5587 -0.0093 -1.1373
  163SAPE  C21918254   1.446   3.382   4.048  0.4970  0.6611  0.3157
  163SAPE  H19R18255   1.468   3.336   3.949  0.6908  3.6002 -1.1079
  163SAPE  H19S18256   1.441   3.305   4.128  1.8217  0.8331  0.5833
  163SAPE  C22018257   1.549   3.486   4.089 -0.2406 -0.1193  0.1725
  163SAPE  H20R18258   1.653   3.450   4.107 -0.0245  1.7296  3.5587
  163SAPE  H20S18259   1.524   3.511   4.195  0.5077 -0.0278  0.3346
  163SAPE  H20T18260   1.553   3.573   4.021  0.4772 -1.5647 -1.7161
  163SAPE   C3318261   1.159   4.648   3.081  0.0302 -0.5258 -0.0112
  163SAPE   H3X18262   1.165   4.750   3.036  0.8812 -1.1775 -1.4614
  163SAPE   H3Y18263   1.248   4.629   3.146  0.5791 -1.1601 -0.9214
  163SAPE   C3418264   1.030   4.619   3.166 -0.3951 -0.0533  0.6723
  163SAPE   H4X18265   1.035   4.511   3.191  2.2456 -0.0119  0.6224
  163SAPE   H4Y18266   0.953   4.646   3.090  2.3824  0.7919 -2.0144
  163SAPE   C3518267   1.005   4.718   3.283 -0.0885  0.4330  0.6105
  163SAPE   H5X18268   0.918   4.698   3.349 -1.0349  2.1706 -0.0498
  163SAPE   H5Y18269   1.000   4.821   3.241 -2.7350  0.7642  1.5790
  163SAPE   C3618270   1.129   4.740   3.377 -0.3446  0.2267  0.4897
  163SAPE   H6X18271   1.219   4.746   3.312 -0.1086 -1.2758  0.6413
  163SAPE   H6Y18272   1.129   4.644   3.433  3.4464 -0.3966 -0.3138
  163SAPE   C3718273   1.115   4.856   3.473 -0.0010 -0.2240 -0.4027
  163SAPE   H7X18274   1.025   4.851   3.538  0.9709 -0.7421  0.9600
  163SAPE   H7Y18275   1.114   4.950   3.414 -1.1896  0.4872  0.6857
  163SAPE   C3818276   1.238   4.872   3.564 -0.1681 -0.8729  0.9909
  163SAPE   H8X18277   1.329   4.890   3.502 -0.3545  1.2538  1.2463
  163SAPE   H8Y18278   1.256   4.778   3.620 -1.8709 -1.4856  0.5770
  163SAPE   C3918279   1.211   4.992   3.664 -0.4984  0.3838 -0.0079
  163SAPE   H9X18280   1.114   4.968   3.712 -1.3645  1.0667 -1.3667
  163SAPE   H9Y18281   1.209   5.087   3.607  0.4370 -0.0901 -0.8567
  163SAPE  C31018282   1.334   5.003   3.759  0.3752 -0.4968 -0.1801
  163SAPE  H10X18283   1.422   5.021   3.693 -0.2053 -0.8448 -1.0759
  163SAPE  H10Y18284   1.351   4.906   3.810  2.8017 -2.1605 -3.6991
  163SAPE  C31118285   1.338   5.126   3.853 -0.4073  0.3493  0.3927
  163SAPE  H11X18286   1.303   5.217   3.801  0.6689 -0.3364 -1.6599
  163SAPE  H11Y18287   1.444   5.142   3.882 -0.0860 -0.0179 -0.5410
  163SAPE  C31218288   1.255   5.101   3.975  0.3176  0.2939  0.1581
  163SAPE  H12X18289   1.288   5.008   4.026 -0.4634 -0.4957 -0.7468
  163SAPE  H12Y18290   1.152   5.069   3.948  0.4076 -1.1651  1.4185
  163SAPE  C31318291   1.270   5.203   4.085 -0.1025 -0.3834 -0.2518
  163SAPE  H13X18292   1.240   5.309   4.069  0.1893 -0.2583  0.0182
  163SAPE  H13Y18293   1.380   5.209   4.099 -0.0343 -0.0169 -0.9060
  163SAPE  C31418294   1.206   5.156   4.218 -0.1858 -0.3595 -0.4829
  163SAPE  H14X18295   1.235   5.049   4.228 -0.5070 -0.2874  1.5160
  163SAPE  H14Y18296   1.097   5.157   4.196 -1.5123  0.3030  4.8642
  163SAPE  C31518297   1.233   5.242   4.338 -0.7166 -0.4977  0.5784
  163SAPE  H15X18298   1.341   5.268   4.336 -0.4992 -1.2486 -2.5933
  163SAPE  H15Y18299   1.210   5.183   4.430 -1.8588 -1.5720 -0.3553
  163SAPE  C31618300   1.139   5.365   4.334 -0.1344 -0.1374  0.8563
  163SAPE  H16X18301   1.037   5.332   4.305  0.5402 -0.9515 -0.7067
  163SAPE  H16Y18302   1.178   5.433   4.255 -0.6067  0.1127  0.8344
  163SAPE  C31718303   1.126   5.449   4.460 -0.4441  0.7117  0.4291
  163SAPE  H17X18304   1.066   5.384   4.528  2.6679 -0.2660  2.4931
  163SAPE  H17Y18305   1.071   5.543   4.443  0.1951  0.9164 -0.5999
  163SAPE  C31818306   1.254   5.489   4.536  0.3983  0.3397 -0.2734
  163SAPE  H18X18307   1.322   5.401   4.544 -0.2260 -0.1513 -0.2047
  163SAPE  H18Y18308   1.232   5.517   4.641 -1.0246 -3.4585  0.6097
  163SAPE  H18Z18309   1.296   5.569   4.472  1.9930  0.7728  1.2407
  164SAPE     N18310   6.631   3.491   2.183 -0.4595  0.1819 -0.0658
  164SAPE   HN118311   6.588   3.406   2.142  1.2988 -0.4797 -0.6332
  164SAPE   HN218312   6.611   3.580   2.132 -1.2969  0.0589  0.0347
  164SAPE   HN318313   6.732   3.466   2.177  0.4564  2.8659  1.8815
  164SAPE   C1218314   6.592   3.501   2.327  0.4521  0.3263  0.0958
  164SAPE  H12A18315   6.626   3.403   2.366 -3.0832 -1.3621 -0.6845
  164SAPE  H12B18316   6.482   3.506   2.336  0.4832 -0.0849  0.7909
  164SAPE   C1118317   6.670   3.616   2.399 -0.1259 -0.3203 -0.5906
  164SAPE  H11A18318   6.647   3.613   2.508  3.2701  0.3461  0.2513
  164SAPE  H11B18319   6.627   3.713   2.368  0.8695  0.4661  0.4188
  164SAPE     P18320   6.922   3.537   2.444  0.2724  0.1391  0.1490
  164SAPE   O1318321   6.925   3.403   2.385  0.1439 -0.3003  0.1652
  164SAPE   O1418322   7.056   3.602   2.443 -0.1043 -0.9254 -0.0925
  164SAPE   O1218323   6.812   3.612   2.371 -0.3428 -0.0280 -0.0189
  164SAPE   O1118324   6.856   3.548   2.589  0.4418  0.2962 -0.6067
  164SAPE    C118325   6.918   3.518   2.712 -0.5342  0.7835  0.7207
  164SAPE    HA18326   6.966   3.418   2.719  1.2400  1.6889  2.2631
  164SAPE    HB18327   7.002   3.588   2.729 -1.0397  1.5900 -0.0523
  164SAPE    C218328   6.820   3.523   2.828  0.4013 -0.3238  0.2582
  164SAPE    HS18329   6.760   3.614   2.808  0.6500 -0.8319 -3.3357
  164SAPE   O2118330   6.881   3.535   2.956  0.2184 -0.0066  0.0621
  164SAPE   C2118331   6.917   3.649   3.002  0.1225 -0.7741  0.0931
  164SAPE   O2218332   6.917   3.756   2.941  0.1481  0.4169 -0.8279
  164SAPE   C2218333   6.961   3.630   3.147 -0.3051 -0.3242  0.0808
  164SAPE   H2R18334   6.870   3.598   3.201 -1.1314 -0.5068 -1.3719
  164SAPE   H2S18335   7.044   3.556   3.153  0.9061  1.0325  0.8075
  164SAPE    C318336   6.721   3.401   2.833 -0.2441 -0.2144 -0.0168
  164SAPE    HX18337   6.781   3.320   2.880  1.8287  0.4649 -1.3459
  164SAPE    HY18338   6.684   3.359   2.737  0.0975 -0.4988 -0.0249
  164SAPE   O3118339   6.605   3.437   2.908 -0.4559 -0.4518 -0.4442
  164SAPE   C3118340   6.508   3.499   2.848  0.4561  0.7627 -1.0878
  164SAPE   O3218341   6.504   3.525   2.732  0.0423  0.2982 -0.3816
  164SAPE   C3218342   6.430   3.553   2.971  0.8914  1.1236 -0.7290
  164SAPE   H2X18343   6.508   3.593   3.039  1.3250 -0.2037 -0.4272
  164SAPE   H2Y18344   6.380   3.468   3.022  2.3998 -0.4843 -1.8200
  164SAPE   C2318345   7.003   3.764   3.216 -0.2943  0.0122 -0.2788
  164SAPE   H3R18346   6.918   3.820   3.260  2.4044  2.5697  2.0981
  164SAPE   H3S18347   7.057   3.831   3.146 -0.3118  0.3775  0.0567
  164SAPE   C2418348   7.091   3.743   3.346  0.1707 -0.9594  0.0239
  164SAPE   H4R18349   7.115   3.845   3.383 -0.4773  0.1546 -2.4465
  164SAPE   H4S18350   7.186   3.689   3.326  0.3443 -0.6023 -0.1320
  164SAPE   C2518351   7.008   3.669   3.448  0.1621  0.3100  0.3300
  164SAPE   H5R18352   6.991   3.562   3.427  1.1531  0.4089 -1.0491
  164SAPE   C2618353   6.961   3.721   3.562  0.5000 -0.5948  0.5246
  164SAPE   H6R18354   6.911   3.654   3.633 -1.4852  0.7907  0.5057
  164SAPE   C2718355   6.981   3.862   3.609 -0.2565  0.2534 -0.3825
  164SAPE   H7R18356   6.914   3.922   3.543 -2.3392 -1.6212 -0.0881
  164SAPE   H7S18357   7.081   3.900   3.579  0.1511  0.4428  1.1552
  164SAPE   C2818358   6.960   3.885   3.760  0.1679  0.1074  0.5598
  164SAPE   H8R18359   6.884   3.961   3.782 -0.2331  1.0719 -3.3889
  164SAPE   C2918360   7.011   3.807   3.859  0.0022 -0.0478 -0.0942
  164SAPE   H9R18361   6.975   3.811   3.963  1.7382  0.3540  0.5335
  164SAPE  C21018362   7.121   3.706   3.839  0.5181  0.9553 -0.4937
  164SAPE  H10R18363   7.207   3.740   3.901  0.6818 -4.3522  2.7493
  164SAPE  H10S18364   7.141   3.702   3.729 -0.0740  2.9288 -0.7215
  164SAPE  C21118365   7.082   3.567   3.892  0.1691 -1.1477  0.3636
  164SAPE  H11R18366   6.980   3.536   3.866  0.2150  0.1119 -1.5108
  164SAPE  C21218367   7.159   3.482   3.957  0.6103  0.6788  0.6580
  164SAPE  H12R18368   7.122   3.383   3.988  1.5823  0.8437  2.5054
  164SAPE  C21318369   7.300   3.509   3.991  0.0713 -0.2932  0.1492
  164SAPE  H13R18370   7.342   3.450   4.075  1.3160  0.9279  0.4151
  164SAPE  H13S18371   7.306   3.608   4.040  2.1089 -1.0032  1.4911
  164SAPE  C21418372   7.400   3.500   3.867 -0.0498  0.0888 -0.6620
  164SAPE  H14R18373   7.376   3.424   3.791  3.5473  1.2191 -3.1912
  164SAPE  C21518374   7.501   3.586   3.849 -0.4112 -0.2049  0.5073
  164SAPE  H15R18375   7.584   3.570   3.778 -0.4564 -0.1866  0.4501
  164SAPE  C21618376   7.543   3.678   3.955 -0.6362 -0.1926  0.1333
  164SAPE  H16R18377   7.469   3.753   3.990 -0.4881 -0.6795  1.5779
  164SAPE  H16S18378   7.636   3.723   3.913 -0.4971 -1.9828 -1.6456
  164SAPE  C21718379   7.594   3.623   4.085  0.1724 -0.3849 -0.8068
  164SAPE  H17R18380   7.693   3.575   4.075 -0.0960 -1.0968 -0.1241
  164SAPE  H17S18381   7.528   3.541   4.120 -0.2271 -0.0083 -0.6725
  164SAPE  C21818382   7.606   3.723   4.205  0.1287 -0.0606 -0.5842
  164SAPE  H18R18383   7.505   3.762   4.226 -0.2565 -0.3109 -1.8715
  164SAPE  H18S18384   7.673   3.804   4.170 -0.7780  1.6564  1.4896
  164SAPE  C21918385   7.669   3.669   4.337 -0.1403  0.3584 -0.7932
  164SAPE  H19R18386   7.777   3.660   4.313 -0.5722  0.1619 -2.8330
  164SAPE  H19S18387   7.621   3.570   4.354 -2.3886  1.5088 -0.1004
  164SAPE  C22018388   7.659   3.758   4.459 -0.0901  0.6013 -0.4576
  164SAPE  H20R18389   7.563   3.813   4.449 -0.7225  0.1418  2.2922
  164SAPE  H20S18390   7.745   3.826   4.476 -0.0277  0.6874 -1.0989
  164SAPE  H20T18391   7.639   3.692   4.546 -1.3971  0.1204 -1.1048
  164SAPE   C3318392   6.339   3.672   2.938 -0.1963 -1.0240 -0.1587
  164SAPE   H3X18393   6.266   3.644   2.859 -0.6651 -2.3204  0.7063
  164SAPE   H3Y18394   6.395   3.761   2.902  0.0105 -0.6042  1.1477
  164SAPE   C3418395   6.257   3.720   3.053  0.1588 -0.4337 -0.7410
  164SAPE   H4X18396   6.314   3.764   3.137 -1.0825  1.6714 -0.9261
  164SAPE   H4Y18397   6.207   3.633   3.101  1.5161 -1.1477 -0.5904
  164SAPE   C3518398   6.157   3.819   2.997 -0.6295  0.6552  0.6981
  164SAPE   H5X18399   6.124   3.790   2.895 -1.7927  0.3738  1.1309
  164SAPE   H5Y18400   6.216   3.913   2.999  1.1369 -0.3522 -0.8966
  164SAPE   C3618401   6.029   3.840   3.071 -0.3050  0.5895 -0.5548
  164SAPE   H6X18402   5.970   3.746   3.074 -0.3957  0.5734  3.7639
  164SAPE   H6Y18403   5.953   3.911   3.030 -0.5682  0.8824  0.3992
  164SAPE   C3718404   6.041   3.873   3.228 -0.0033  0.5685 -0.5981
  164SAPE   H7X18405   6.078   3.781   3.278  0.0374  1.0688  0.3165
  164SAPE   H7Y18406   5.943   3.904   3.270  1.0282  0.3749  2.1647
  164SAPE   C3818407   6.139   3.989   3.245 -0.1860 -0.3449 -0.9099
  164SAPE   H8X18408   6.113   4.068   3.171  2.1893  1.4557  0.0091
  164SAPE   H8Y18409   6.241   3.950   3.223 -0.5918 -0.3146 -3.0880
  164SAPE   C3918410   6.146   4.044   3.391  0.4444  0.0745 -1.1196
  164SAPE   H9X18411   6.059   4.113   3.397  0.1748 -0.3645  0.8732
  164SAPE   H9Y18412   6.229   4.113   3.420 -0.5715  0.6902  0.4710
  164SAPE  C31018413   6.112   3.936   3.501 -0.0926 -0.2740 -0.2418
  164SAPE  H10X18414   6.158   3.841   3.466  2.4506  0.7711  0.0859
  164SAPE  H10Y18415   6.003   3.917   3.494  0.0413 -0.9784 -0.4690
  164SAPE  C31118416   6.132   3.983   3.649 -0.0731 -0.3891 -0.1392
  164SAPE  H11X18417   6.074   4.073   3.678 -0.2849 -0.4823 -0.2817
  164SAPE  H11Y18418   6.236   4.021   3.662 -0.1194 -0.7962  1.7000
  164SAPE  C31218419   6.123   3.871   3.757 -0.0270 -0.1899 -0.4570
  164SAPE  H12X18420   6.191   3.788   3.729  0.8765  0.3580  0.0722
  164SAPE  H12Y18421   6.015   3.844   3.753 -0.0098 -0.1559 -1.1805
  164SAPE  C31318422   6.152   3.918   3.902 -0.1035 -0.1934  0.7167
  164SAPE  H13X18423   6.248   3.974   3.908  1.1960 -1.9142 -2.1216
  164SAPE  H13Y18424   6.168   3.837   3.976 -0.5565 -0.3196  0.6775
  164SAPE  C31418425   6.044   4.010   3.962 -0.2886  0.0426 -0.4344
  164SAPE  H14X18426   5.947   3.958   3.947 -0.4156 -0.7028  2.2801
  164SAPE  H14Y18427   6.048   4.109   3.911 -0.5362 -0.5096 -1.5466
  164SAPE  C31518428   6.053   4.021   4.113  0.4977  0.1370  0.7219
  164SAPE  H15X18429   6.143   4.078   4.142  1.1684 -0.5379  0.0184
  164SAPE  H15Y18430   6.054   3.926   4.170  2.9014  0.6212  1.5749
  164SAPE  C31618431   5.925   4.079   4.170 -0.6505  0.3726  0.7426
  164SAPE  H16X18432   5.843   4.004   4.176 -0.2533 -0.1302  0.0224
  164SAPE  H16Y18433   5.883   4.165   4.114 -0.7671 -0.2585 -0.1712
  164SAPE  C31718434   5.942   4.115   4.313  0.4314  0.0554 -0.3773
  164SAPE  H17X18435   6.014   4.199   4.309  1.2896 -0.6697 -0.4550
  164SAPE  H17Y18436   5.976   4.038   4.385 -0.7220 -0.3886 -0.2838
  164SAPE  C31818437   5.815   4.168   4.368 -0.1585  0.1641 -1.0008
  164SAPE  H18X18438   5.777   4.255   4.310 -0.7386 -0.2213 -1.2176
  164SAPE  H18Y18439   5.835   4.209   4.469  1.1749 -1.4043 -0.5906
  164SAPE  H18Z18440   5.739   4.087   4.369  1.3236 -1.2518  0.1236
  165SAPE     N18441   4.947   6.727   2.160 -0.8214  0.1336  0.1607
  165SAPE   HN118442   4.996   6.819   2.160 -2.1900  0.9105  1.6822
  165SAPE   HN218443   4.988   6.676   2.079 -1.5235  0.9009 -0.7054
  165SAPE   HN318444   4.851   6.751   2.130 -0.6603 -0.6490 -1.0358
  165SAPE   C1218445   4.944   6.645   2.284  0.1985  0.7960  0.3344
  165SAPE  H12A18446   5.023   6.568   2.294 -0.2756  0.4962  2.2311
  165SAPE  H12B18447   4.850   6.584   2.286  0.7096  0.0039  0.7194
  165SAPE   C1118448   4.940   6.730   2.402 -0.0326  0.0798 -0.5143
  165SAPE  H11A18449   5.029   6.795   2.414 -0.1037  0.2776 -1.0283
  165SAPE  H11B18450   4.933   6.662   2.490  1.0983 -0.7187 -1.0236
  165SAPE     P18451   4.734   6.842   2.520  0.0640  0.0573  0.3363
  165SAPE   O1318452   4.694   6.986   2.496  0.1261 -0.0967 -0.1321
  165SAPE   O1418453   4.620   6.751   2.548 -0.3984  0.8304  0.0824
  165SAPE   O1218454   4.820   6.804   2.389  0.3688  0.2185  0.0132
  165SAPE   O1118455   4.832   6.842   2.644 -0.4407 -0.9583  0.5563
  165SAPE    C118456   4.798   6.844   2.782 -0.3243  0.1507  0.0235
  165SAPE    HA18457   4.885   6.892   2.831 -0.1563 -0.0063 -0.1251
  165SAPE    HB18458   4.715   6.917   2.794  0.6955  1.3599 -0.0882
  165SAPE    C218459   4.765   6.709   2.852  0.6959 -0.1877 -0.0542
  165SAPE    HS18460   4.684   6.653   2.800  0.4715 -1.5778  1.7201
  165SAPE   O2118461   4.725   6.714   2.989  0.4733 -0.4068  0.2016
  165SAPE   C2118462   4.598   6.765   3.001  0.4459  0.2760 -0.3114
  165SAPE   O2218463   4.526   6.797   2.909 -0.0165 -0.0813  0.5241
  165SAPE   C2218464   4.560   6.788   3.155 -0.9379 -0.1283  0.1554
  165SAPE   H2R18465   4.600   6.887   3.186 -0.1103  0.7829 -3.3842
  165SAPE   H2S18466   4.451   6.809   3.160 -1.0050  0.7240 -2.7603
  165SAPE    C318467   4.887   6.606   2.847  0.3173 -0.5436 -0.2587
  165SAPE    HX18468   4.921   6.611   2.741  1.4319 -1.9512  0.0164
  165SAPE    HY18469   4.840   6.508   2.870 -0.5443  0.3692  2.2160
  165SAPE   O3118470   4.983   6.652   2.945  0.4021  0.1115  0.1502
  165SAPE   C3118471   5.108   6.626   2.914  0.1828 -0.1710 -0.0022
  165SAPE   O3218472   5.146   6.562   2.818 -0.8198  0.0945 -0.0902
  165SAPE   C3218473   5.205   6.674   3.024  0.2612  0.0919  0.1259
  165SAPE   H2X18474   5.140   6.694   3.112 -1.6334  0.8627 -1.3807
  165SAPE   H2Y18475   5.247   6.771   2.990 -1.5152  0.6495 -0.5594
  165SAPE   C2318476   4.593   6.671   3.246  0.3521 -0.0440  0.2459
  165SAPE   H3R18477   4.703   6.660   3.260  0.0907  0.6300  3.6976
  165SAPE   H3S18478   4.559   6.582   3.188  0.4263  1.0750 -1.5834
  165SAPE   C2418479   4.520   6.667   3.372 -0.1364  0.1932 -0.4214
  165SAPE   H4R18480   4.516   6.562   3.406 -1.0294  0.3609  0.0288
  165SAPE   H4S18481   4.418   6.693   3.337 -0.1582  2.2425  0.9673
  165SAPE   C2518482   4.580   6.759   3.473 -0.1617 -0.3732 -0.2680
  165SAPE   H5R18483   4.688   6.771   3.461 -0.0013 -0.3698  1.0492
  165SAPE   C2618484   4.521   6.828   3.573 -0.4820  0.2153  0.0297
  165SAPE   H6R18485   4.586   6.880   3.644 -0.3274  0.8766 -0.5882
  165SAPE   C2718486   4.379   6.821   3.614  0.0847 -0.3723  0.5631
  165SAPE   H7R18487   4.322   6.774   3.531 -1.9309  2.8569 -0.0258
  165SAPE   H7S18488   4.333   6.920   3.630 -0.0643 -0.2089 -0.7668
  165SAPE   C2818489   4.376   6.731   3.729 -0.0852 -0.4538 -0.1687
  165SAPE   H8R18490   4.399   6.630   3.693 -1.8279 -0.5707 -1.0609
  165SAPE   C2918491   4.340   6.753   3.856 -0.0967 -1.2560 -0.3129
  165SAPE   H9R18492   4.353   6.669   3.925  1.0510 -1.2659 -0.5350
  165SAPE  C21018493   4.313   6.883   3.921 -0.2935 -0.2703  0.1816
  165SAPE  H10R18494   4.239   6.862   4.001 -1.8404 -2.2604 -1.6376
  165SAPE  H10S18495   4.261   6.958   3.857  1.0483 -0.5992 -1.3656
  165SAPE  C21118496   4.430   6.966   3.980  0.0591  0.3788  1.6847
  165SAPE  H11R18497   4.421   7.070   3.946  1.0364 -0.4622 -1.4845
  165SAPE  C21218498   4.531   6.932   4.062 -0.1065  0.8638 -0.2370
  165SAPE  H12R18499   4.609   7.003   4.092  0.5342  0.9604 -2.0373
  165SAPE  C21318500   4.547   6.797   4.120 -0.0268 -0.1858 -0.0928
  165SAPE  H13R18501   4.625   6.809   4.199 -0.8597 -0.1395  0.7334
  165SAPE  H13S18502   4.592   6.739   4.037 -0.4164 -1.9906  0.9067
  165SAPE  C21418503   4.439   6.727   4.190  0.0101  0.2073 -0.4322
  165SAPE  H14R18504   4.365   6.790   4.242  1.0811  1.7853 -0.7745
  165SAPE  C21518505   4.433   6.594   4.183 -0.5399 -0.5827 -0.4184
  165SAPE  H15R18506   4.352   6.550   4.244 -1.0881  0.6314 -0.2461
  165SAPE  C21618507   4.532   6.493   4.126  0.1766  0.1471  0.1738
  165SAPE  H16R18508   4.635   6.534   4.135  0.1044  0.8397 -1.7428
  165SAPE  H16S18509   4.528   6.475   4.017  1.8876 -3.1176  0.5173
  165SAPE  C21718510   4.514   6.353   4.184 -0.0573  0.2274 -0.0954
  165SAPE  H17R18511   4.411   6.320   4.158  0.3457  0.0108 -1.5011
  165SAPE  H17S18512   4.511   6.348   4.295  0.6103 -2.3279 -0.1349
  165SAPE  C21818513   4.615   6.250   4.123  0.4142  0.0859 -0.2048
  165SAPE  H18R18514   4.716   6.288   4.150  1.1839  0.5368 -3.2826
  165SAPE  H18S18515   4.617   6.243   4.012  1.5379 -2.4716 -0.1048
  165SAPE  C21918516   4.591   6.097   4.168  0.6353  0.4360 -0.5829
  165SAPE  H19R18517   4.507   6.061   4.105  1.6066 -0.6269 -1.3236
  165SAPE  H19S18518   4.560   6.094   4.274  0.0877 -1.7471 -0.7696
  165SAPE  C22018519   4.718   6.013   4.158  1.0819  0.1258  0.1877
  165SAPE  H20R18520   4.700   5.908   4.192  0.9319 -0.7694 -2.4114
  165SAPE  H20S18521   4.803   6.051   4.218  0.5989  0.5196  0.6226
  165SAPE  H20T18522   4.740   6.007   4.049  0.1533 -0.1592  0.0045
  165SAPE   C3318523   5.321   6.575   3.055 -0.1644 -0.6149  0.3598
  165SAPE   H3X18524   5.392   6.591   2.970 -1.8401  1.9340 -0.6903
  165SAPE   H3Y18525   5.296   6.467   3.063  0.5522 -0.7387  0.9478
  165SAPE   C3418526   5.401   6.623   3.181  0.2379  0.3522  0.1608
  165SAPE   H4X18527   5.335   6.638   3.269  1.1604 -0.8139  1.0986
  165SAPE   H4Y18528   5.455   6.719   3.167  1.9224 -0.7767 -1.8315
  165SAPE   C3518529   5.508   6.518   3.224 -1.1743 -0.5375 -0.2137
  165SAPE   H5X18530   5.568   6.516   3.130 -0.6653  0.2008  0.0843
  165SAPE   H5Y18531   5.455   6.421   3.220 -0.2157 -1.0719 -0.3157
  165SAPE   C3618532   5.579   6.558   3.351 -0.3440  0.2409  0.2469
  165SAPE   H6X18533   5.657   6.483   3.376  0.4574  1.5095  1.7388
  165SAPE   H6Y18534   5.504   6.564   3.432 -0.4447  1.0553  0.0995
  165SAPE   C3718535   5.651   6.696   3.355  0.2358  0.0459  0.1120
  165SAPE   H7X18536   5.581   6.781   3.343 -0.2039 -0.5883 -2.2088
  165SAPE   H7Y18537   5.733   6.699   3.280 -1.3412 -0.5693 -1.6950
  165SAPE   C3818538   5.738   6.719   3.486 -0.0185  0.1340 -0.0812
  165SAPE   H8X18539   5.789   6.817   3.495  1.4779 -0.5311 -0.8617
  165SAPE   H8Y18540   5.817   6.641   3.481 -0.1261 -0.1633  2.1431
  165SAPE   C3918541   5.659   6.689   3.614 -0.2808  0.2609  0.0454
  165SAPE   H9X18542   5.614   6.587   3.613 -0.1662  0.2106 -0.1530
  165SAPE   H9Y18543   5.568   6.753   3.619 -0.9542 -0.5414 -1.2335
  165SAPE  C31018544   5.742   6.701   3.745 -0.6172  0.3038 -0.2644
  165SAPE  H10X18545   5.774   6.807   3.747  3.1153 -0.5798 -2.6271
  165SAPE  H10Y18546   5.835   6.642   3.728 -1.2471 -0.6067 -0.6706
  165SAPE  C31118547   5.662   6.658   3.870  0.3033 -0.0336  0.7959
  165SAPE  H11X18548   5.619   6.559   3.845  0.6813 -0.3496  1.3591
  165SAPE  H11Y18549   5.572   6.719   3.892 -0.9695 -1.2075 -0.9319
  165SAPE  C31218550   5.746   6.657   3.993  0.0283  0.4677 -1.1323
  165SAPE  H12X18551   5.838   6.599   3.969 -1.1293 -0.5385 -3.3961
  165SAPE  H12Y18552   5.692   6.610   4.079  1.1115  2.9644  1.0706
  165SAPE  C31318553   5.793   6.791   4.052 -0.4187 -0.1324 -0.0712
  165SAPE  H13X18554   5.696   6.837   4.081 -1.3450 -0.2827 -2.7079
  165SAPE  H13Y18555   5.833   6.852   3.968 -0.1130 -0.7860 -0.4034
  165SAPE  C31418556   5.895   6.795   4.172  0.1169 -0.3688 -0.4137
  165SAPE  H14X18557   5.992   6.774   4.121 -0.7373 -0.4078 -2.0583
  165SAPE  H14Y18558   5.870   6.721   4.251 -0.4871  1.2914  1.0174
  165SAPE  C31518559   5.911   6.930   4.233 -0.0359 -0.6943 -0.5069
  165SAPE  H15X18560   5.815   6.959   4.281 -0.8773 -2.2550 -1.1855
  165SAPE  H15Y18561   5.937   7.014   4.164 -0.3124 -0.2655 -0.1002
  165SAPE  C31618562   6.032   6.930   4.332 -0.6725  0.3772 -0.6995
  165SAPE  H16X18563   6.120   6.900   4.270 -1.1345 -2.4168 -0.1437
  165SAPE  H16Y18564   6.018   6.853   4.411  1.1744 -1.9181 -2.4518
  165SAPE  C31718565   6.072   7.063   4.413 -0.0682  1.0994 -0.1739
  165SAPE  H17X18566   6.101   7.126   4.326  1.7358 -0.9725 -1.1603
  165SAPE  H17Y18567   6.165   7.034   4.466  0.3425  0.4674 -1.2111
  165SAPE  C31818568   5.960   7.112   4.507  0.5951  0.0096 -0.4802
  165SAPE  H18X18569   5.867   7.124   4.447  0.4584 -1.3393 -0.5885
  165SAPE  H18Y18570   5.986   7.204   4.563  0.5061  0.3557 -1.0085
  165SAPE  H18Z18571   5.944   7.028   4.579 -0.8640  0.1684 -0.5958
  166SAPE     N18572   6.103   5.155   2.177  0.1453  0.5841  0.2789
  166SAPE   HN118573   6.019   5.204   2.140  1.3476  1.1368 -1.9358
  166SAPE   HN218574   6.186   5.177   2.118 -2.6497  2.6261 -3.3554
  166SAPE   HN318575   6.074   5.057   2.162 -1.7932  1.0836  0.5550
  166SAPE   C1218576   6.111   5.185   2.325 -0.2950  0.5442  0.4904
  166SAPE  H12A18577   6.024   5.126   2.360 -0.5973 -1.2489 -2.8344
  166SAPE  H12B18578   6.095   5.293   2.347 -2.9543 -0.1553  2.4196
  166SAPE   C1118579   6.240   5.112   2.380  0.6550  0.5865 -0.0245
  166SAPE  H11A18580   6.250   5.005   2.353 -0.2950  0.0810  1.5115
  166SAPE  H11B18581   6.227   5.121   2.490  0.8928  2.1954 -0.1070
  166SAPE     P18582   6.506   5.129   2.328  0.1479  0.3519 -0.8039
  166SAPE   O1318583   6.528   5.085   2.190 -0.6820 -0.2336 -0.5348
  166SAPE   O1418584   6.592   5.243   2.367  0.3861 -0.1257 -0.1163
  166SAPE   O1218585   6.354   5.177   2.339  0.3616  0.2528 -0.0159
  166SAPE   O1118586   6.531   5.012   2.431 -0.3236  0.3160  0.3636
  166SAPE    C118587   6.544   5.022   2.568  0.8558  0.3557 -0.0689
  166SAPE    HA18588   6.645   5.053   2.602  0.5970  0.1280  0.9552
  166SAPE    HB18589   6.482   5.103   2.613 -1.0847 -0.4458 -1.1830
  166SAPE    C218590   6.509   4.899   2.650 -0.6574 -0.0866  0.1233
  166SAPE    HS18591   6.567   4.813   2.611 -2.3129 -1.1529 -0.0769
  166SAPE   O2118592   6.365   4.876   2.661  0.9977  0.0426  0.4836
  166SAPE   C2118593   6.318   4.753   2.649  0.3231  0.0251 -0.7548
  166SAPE   O2218594   6.389   4.651   2.665  0.3009  0.4509  0.4827
  166SAPE   C2218595   6.168   4.760   2.606 -0.0909 -1.3118 -0.5785
  166SAPE   H2R18596   6.148   4.862   2.569  0.2865 -0.6770  0.8864
  166SAPE   H2S18597   6.158   4.697   2.515 -1.8664 -0.9735 -0.6476
  166SAPE    C318598   6.558   4.901   2.802 -0.3399 -0.3437 -0.0038
  166SAPE    HX18599   6.668   4.889   2.800 -0.4304 -1.6632 -3.3905
  166SAPE    HY18600   6.522   4.802   2.839  0.0414  0.2029  1.9697
  166SAPE   O3118601   6.503   5.010   2.871  0.5617  0.3524 -0.1153
  166SAPE   C3118602   6.540   5.023   2.988 -0.4569  0.5973 -0.0067
  166SAPE   O3218603   6.603   4.940   3.052  0.1567  0.0734  0.1047
  166SAPE   C3218604   6.491   5.159   3.049  0.2492  0.5679 -0.3117
  166SAPE   H2X18605   6.404   5.146   3.116 -0.0161 -0.3745 -0.8184
  166SAPE   H2Y18606   6.447   5.211   2.961  0.9828  0.2285 -0.8913
  166SAPE   C2318607   6.059   4.709   2.712 -0.4415  0.0062 -0.0846
  166SAPE   H3R18608   6.042   4.600   2.703 -2.6656  0.2169  0.9617
  166SAPE   H3S18609   5.957   4.745   2.686 -1.6562 -2.0989  1.4100
  166SAPE   C2418610   6.089   4.728   2.864  0.0175  0.0605 -0.0083
  166SAPE   H4R18611   6.195   4.696   2.874  0.0422 -0.0147 -0.5152
  166SAPE   H4S18612   6.023   4.661   2.924 -1.2694  0.8488 -0.5224
  166SAPE   C2518613   6.070   4.871   2.907  0.9861 -0.6539 -0.0634
  166SAPE   H5R18614   6.044   4.944   2.829 -0.8878 -0.6676  0.4960
  166SAPE   C2618615   6.087   4.915   3.026  0.1913 -0.7081 -0.7581
  166SAPE   H6R18616   6.090   5.023   3.042  3.0372 -0.8553  0.1010
  166SAPE   C2718617   6.138   4.833   3.143 -0.4038 -0.5142 -0.3871
  166SAPE   H7R18618   6.096   4.732   3.123 -1.2077 -0.2803  0.0691
  166SAPE   H7S18619   6.100   4.871   3.240  1.9809  1.6839 -0.1889
  166SAPE   C2818620   6.288   4.824   3.153 -0.2111  0.1761  0.4683
  166SAPE   H8R18621   6.335   4.769   3.069  0.8877  0.1665  1.0675
  166SAPE   C2918622   6.362   4.854   3.264  0.5836 -0.7766 -0.2615
  166SAPE   H9R18623   6.471   4.860   3.250  0.5656  0.3042 -0.0069
  166SAPE  C21018624   6.303   4.942   3.380 -0.1537  1.1883  0.5539
  166SAPE  H10R18625   6.244   5.023   3.333  3.7367  2.2198 -3.1794
  166SAPE  H10S18626   6.393   4.978   3.434  1.7428 -1.9140 -0.2778
  166SAPE  C21118627   6.216   4.863   3.488  0.0422 -0.3482  0.3930
  166SAPE  H11R18628   6.182   4.762   3.461  2.5820 -1.0710 -0.4141
  166SAPE  C21218629   6.175   4.910   3.606 -0.1218 -0.2429  0.0866
  166SAPE  H12R18630   6.120   4.852   3.681  0.7651 -0.1128  0.8551
  166SAPE  C21318631   6.200   5.052   3.660 -0.7532 -0.4977 -0.2334
  166SAPE  H13R18632   6.103   5.092   3.696  1.0343  2.4775  1.6982
  166SAPE  H13S18633   6.234   5.124   3.583  2.5647 -1.1852  0.4303
  166SAPE  C21418634   6.305   5.064   3.773  0.6477  0.5606 -0.3019
  166SAPE  H14R18635   6.411   5.080   3.749  1.5093 -1.5094  1.7133
  166SAPE  C21518636   6.289   5.020   3.902 -0.6513  0.0865 -0.4162
  166SAPE  H15R18637   6.375   5.031   3.969  0.0645  1.4512 -1.5096
  166SAPE  C21618638   6.163   4.973   3.968  0.4008  0.2378  0.0831
  166SAPE  H16R18639   6.132   4.894   3.897  1.0347  0.7032 -0.7338
  166SAPE  H16S18640   6.086   5.052   3.956  0.8940  0.5414 -1.3758
  166SAPE  C21718641   6.165   4.914   4.106 -0.2725  0.0797 -0.2369
  166SAPE  H17R18642   6.265   4.871   4.129 -0.0506  0.8772  0.3657
  166SAPE  H17S18643   6.091   4.832   4.117  0.1479 -0.2439  0.2219
  166SAPE  C21818644   6.138   5.025   4.211 -0.8731 -0.1186 -0.0449
  166SAPE  H18R18645   6.036   5.067   4.202 -0.5439  0.9308  0.8314
  166SAPE  H18S18646   6.213   5.106   4.197  0.9828 -1.6650  0.5384
  166SAPE  C21918647   6.176   4.972   4.355  0.7842 -0.1940  0.3632
  166SAPE  H19R18648   6.276   4.924   4.359  0.0768 -1.8264 -0.3171
  166SAPE  H19S18649   6.106   4.886   4.368  1.9302 -0.7908  3.1525
  166SAPE  C22018650   6.142   5.067   4.471 -0.2314  0.1654 -0.5245
  166SAPE  H20R18651   6.033   5.073   4.494  0.2160 -0.8125  2.2105
  166SAPE  H20S18652   6.204   5.158   4.466  1.6885 -0.6268  4.0837
  166SAPE  H20T18653   6.174   5.008   4.559 -2.2413 -0.3487 -0.0701
  166SAPE   C3318654   6.604   5.235   3.120  0.1071 -0.2942  0.0417
  166SAPE   H3X18655   6.558   5.335   3.130 -0.2663 -0.6124  1.8915
  166SAPE   H3Y18656   6.689   5.266   3.055 -1.6581  3.7482 -0.6329
  166SAPE   C3418657   6.630   5.190   3.262  0.9577 -1.0405 -0.0912
  166SAPE   H4X18658   6.635   5.080   3.271  1.7844 -1.0978 -1.0916
  166SAPE   H4Y18659   6.543   5.231   3.317  1.3935  1.3847 -1.0426
  166SAPE   C3518660   6.751   5.260   3.324 -0.1972 -0.0594  0.6555
  166SAPE   H5X18661   6.759   5.366   3.290  0.5161 -0.5650 -0.8559
  166SAPE   H5Y18662   6.838   5.213   3.274 -2.0661 -1.2015 -1.7380
  166SAPE   C3618663   6.756   5.238   3.470  0.1611 -0.4718 -0.5903
  166SAPE   H6X18664   6.668   5.286   3.518 -1.2442 -0.4877 -2.9938
  166SAPE   H6Y18665   6.847   5.283   3.516 -0.6316  0.3322  0.2472
  166SAPE   C3718666   6.774   5.096   3.518 -0.0642  0.2590 -0.3266
  166SAPE   H7X18667   6.860   5.059   3.459 -0.0351  0.3210 -0.3226
  166SAPE   H7Y18668   6.687   5.033   3.488 -0.4855  1.0666 -0.8489
  166SAPE   C3818669   6.822   5.073   3.664 -0.2598 -0.1108  1.1122
  166SAPE   H8X18670   6.910   5.140   3.681 -0.1679  0.3471 -0.8733
  166SAPE   H8Y18671   6.862   4.969   3.663  1.2300  0.4304  0.8800
  166SAPE   C3918672   6.724   5.085   3.769  0.2246  0.3706 -0.5794
  166SAPE   H9X18673   6.639   5.017   3.748  1.1901 -0.4302 -2.1151
  166SAPE   H9Y18674   6.678   5.186   3.773 -1.7043 -0.4406 -1.0089
  166SAPE  C31018675   6.796   5.064   3.907  0.1631 -0.0898  0.4060
  166SAPE  H10X18676   6.853   5.154   3.939 -2.5780  2.1100 -0.5595
  166SAPE  H10Y18677   6.869   4.980   3.911  1.2580  0.7168 -1.3523
  166SAPE  C31118678   6.695   5.044   4.019 -0.1094  0.3941  0.2216
  166SAPE  H11X18679   6.750   5.010   4.109  0.1055  1.4414  0.5026
  166SAPE  H11Y18680   6.611   4.975   4.000 -2.0798  2.0825  2.1876
  166SAPE  C31218681   6.631   5.180   4.042  0.0809 -0.5099 -0.2782
  166SAPE  H12X18682   6.553   5.196   3.964  1.5594  4.2108 -1.0614
  166SAPE  H12Y18683   6.701   5.266   4.040 -0.1981 -0.2242  1.3018
  166SAPE  C31318684   6.559   5.194   4.178  0.5827 -0.6216 -0.0366
  166SAPE  H13X18685   6.512   5.099   4.211  0.0369 -0.1076  0.7298
  166SAPE  H13Y18686   6.470   5.260   4.169  1.4568  0.3948 -1.7202
  166SAPE  C31418687   6.649   5.250   4.289 -0.3711  0.0560  0.0433
  166SAPE  H14X18688   6.660   5.360   4.281  0.8613 -0.0725 -0.2508
  166SAPE  H14Y18689   6.753   5.215   4.271 -0.3578  1.3730 -3.1082
  166SAPE  C31518690   6.607   5.209   4.429 -0.9008  0.0912  0.0227
  166SAPE  H15X18691   6.705   5.187   4.477 -0.4618 -1.2369 -1.3932
  166SAPE  H15Y18692   6.553   5.113   4.417 -0.8249  0.2072 -1.4773
  166SAPE  C31618693   6.526   5.313   4.509  0.3843 -0.7209  0.4857
  166SAPE  H16X18694   6.437   5.332   4.446  1.7552 -0.1138 -1.3674
  166SAPE  H16Y18695   6.576   5.407   4.542 -2.5080  1.2058 -0.2355
  166SAPE  C31718696   6.486   5.252   4.651 -0.9882  0.2989  0.1820
  166SAPE  H17X18697   6.577   5.245   4.714  0.6630  0.8847 -2.0035
  166SAPE  H17Y18698   6.454   5.149   4.627  1.0608 -0.4407  0.3950
  166SAPE  C31818699   6.382   5.332   4.713  0.0005 -0.0717 -0.3561
  166SAPE  H18X18700   6.305   5.364   4.639  0.4220  0.9410 -0.3691
  166SAPE  H18Y18701   6.428   5.425   4.752 -0.7344  0.0790  0.1794
  166SAPE  H18Z18702   6.326   5.289   4.799 -0.7851  1.5626  0.0052
  167SAPE     N18703   5.249   3.739   2.008 -0.2274  0.2185 -0.4389
  167SAPE   HN118704   5.145   3.738   2.013 -0.3580  1.9912 -1.9269
  167SAPE   HN218705   5.285   3.662   2.067 -0.0748 -0.0575 -0.8837
  167SAPE   HN318706   5.278   3.833   2.042  0.1283 -0.5826  1.6344
  167SAPE   C1218707   5.313   3.731   1.872  0.4148 -0.2547 -0.3476
  167SAPE  H12A18708   5.267   3.811   1.811  3.6249  1.9104 -0.1564
  167SAPE  H12B18709   5.290   3.637   1.817 -1.5476  0.0777 -0.1680
  167SAPE   C1118710   5.470   3.735   1.878  0.6102 -0.4608  0.0092
  167SAPE  H11A18711   5.494   3.829   1.933 -0.6580  0.7503 -1.4161
  167SAPE  H11B18712   5.501   3.744   1.771 -1.6408  0.1072 -0.6398
  167SAPE     P18713   5.670   3.595   1.961 -0.1323  0.1355 -0.1814
  167SAPE   O1318714   5.705   3.476   2.039  0.1809  0.4736  0.2008
  167SAPE   O1418715   5.736   3.603   1.831  0.1171 -0.4571 -0.0288
  167SAPE   O1218716   5.515   3.623   1.948 -0.1721  0.3400  0.0549
  167SAPE   O1118717   5.722   3.712   2.045 -0.2245  0.8216  0.2066
  167SAPE    C118718   5.666   3.747   2.172 -0.3960 -0.6983  0.6223
  167SAPE    HA18719   5.605   3.839   2.163 -0.5552 -1.0210 -3.8759
  167SAPE    HB18720   5.595   3.674   2.215 -0.6594 -1.4416 -0.9684
  167SAPE    C218721   5.780   3.781   2.277  0.4525 -0.3147  0.1354
  167SAPE    HS18722   5.852   3.846   2.224 -0.8460 -0.0312 -1.3531
  167SAPE   O2118723   5.833   3.654   2.314 -0.2665  0.7113  0.1327
  167SAPE   C2118724   5.933   3.614   2.245  0.0129 -0.2893  0.1791
  167SAPE   O2218725   6.012   3.686   2.187 -0.4716 -0.4446  1.2454
  167SAPE   C2218726   5.946   3.458   2.239  0.0711  0.5759 -0.3889
  167SAPE   H2R18727   5.853   3.414   2.281  0.8727  0.1900  1.0969
  167SAPE   H2S18728   5.951   3.451   2.128 -1.7769  1.1439 -0.5344
  167SAPE    C318729   5.742   3.856   2.410 -0.3900  0.2258 -0.0897
  167SAPE    HX18730   5.650   3.800   2.435 -0.4374 -0.1151 -0.9975
  167SAPE    HY18731   5.711   3.963   2.406 -0.1146  0.3376  0.6515
  167SAPE   O3118732   5.836   3.848   2.517  0.2364  0.1692 -0.6941
  167SAPE   C3118733   5.947   3.910   2.494  0.3116  0.2052  0.2371
  167SAPE   O3218734   5.958   3.996   2.409 -0.3601 -0.2375 -1.0025
  167SAPE   C3218735   6.056   3.860   2.595  0.2760  0.4169 -0.5114
  167SAPE   H2X18736   6.100   3.766   2.556  1.3690  0.8249 -0.2999
  167SAPE   H2Y18737   6.010   3.847   2.696  1.7552 -1.2989 -0.0010
  167SAPE   C2318738   6.077   3.415   2.312  0.3449  0.4948 -0.4555
  167SAPE   H3R18739   6.154   3.485   2.271  0.6602 -0.2141 -1.0892
  167SAPE   H3S18740   6.111   3.311   2.294 -1.8296 -0.2760 -0.3102
  167SAPE   C2418741   6.070   3.434   2.459  0.7795 -0.3356 -0.2868
  167SAPE   H4R18742   5.979   3.379   2.493 -0.4149  1.8041  0.1556
  167SAPE   H4S18743   6.031   3.535   2.485  0.8273  0.7023 -3.7396
  167SAPE   C2518744   6.203   3.410   2.524  0.0383 -0.8854 -0.4902
  167SAPE   H5R18745   6.288   3.468   2.484 -0.7540  1.5002  1.0460
  167SAPE   C2618746   6.216   3.359   2.650  0.4233  0.3373 -0.5552
  167SAPE   H6R18747   6.320   3.346   2.686  0.3340  2.9695  0.9170
  167SAPE   C2718748   6.105   3.298   2.739 -0.6177  0.3199 -0.4225
  167SAPE   H7R18749   6.151   3.257   2.831 -0.6805 -2.2038 -1.4429
  167SAPE   H7S18750   6.057   3.214   2.684  2.1429 -2.6324  1.3410
  167SAPE   C2818751   6.003   3.404   2.786 -0.0132  0.6358  0.6699
  167SAPE   H8R18752   5.956   3.455   2.701  0.8519  0.0403 -0.1789
  167SAPE   C2918753   5.979   3.452   2.909 -0.6712 -0.2786 -1.1838
  167SAPE   H9R18754   5.908   3.535   2.916  0.4964  0.7661 -1.4080
  167SAPE  C21018755   6.039   3.405   3.039  0.2441 -0.5317  0.1496
  167SAPE  H10R18756   6.145   3.437   3.042  0.1781 -0.4030  1.9661
  167SAPE  H10S18757   6.060   3.295   3.040  0.0309 -0.5660  1.2804
  167SAPE  C21118758   5.964   3.447   3.166 -0.3517  0.3375 -0.1307
  167SAPE  H11R18759   5.864   3.490   3.148 -0.7964 -0.3773  0.6076
  167SAPE  C21218760   6.012   3.464   3.294  0.6665  0.6365  0.0087
  167SAPE  H12R18761   5.944   3.491   3.376  0.9337  0.5160  0.2724
  167SAPE  C21318762   6.146   3.418   3.344  0.3333  0.6364 -0.2284
  167SAPE  H13R18763   6.215   3.413   3.257  0.1701  0.2758 -0.3367
  167SAPE  H13S18764   6.136   3.313   3.378 -2.2495  0.2975 -1.8230
  167SAPE  C21418765   6.204   3.501   3.459  0.9942  0.0198  0.2726
  167SAPE  H14R18766   6.283   3.570   3.427  0.8696 -0.0810 -0.2640
  167SAPE  C21518767   6.171   3.515   3.589  0.5883  0.5251 -0.5250
  167SAPE  H15R18768   6.241   3.582   3.642  1.5649 -0.9973  0.1983
  167SAPE  C21618769   6.077   3.436   3.682  0.3437  0.6848 -0.2231
  167SAPE  H16R18770   6.135   3.410   3.773  0.9274  2.5309 -0.0297
  167SAPE  H16S18771   6.030   3.349   3.631  0.0433 -1.1627  2.9607
  167SAPE  C21718772   5.958   3.525   3.728 -0.3606 -0.4333 -0.5034
  167SAPE  H17R18773   5.900   3.555   3.638 -1.9883  0.8958  0.9298
  167SAPE  H17S18774   6.009   3.617   3.764  1.9222 -1.2643 -1.4292
  167SAPE  C21818775   5.877   3.461   3.842  0.5466 -0.7004 -0.2073
  167SAPE  H18R18776   5.947   3.430   3.921  1.6419  1.2046 -0.3539
  167SAPE  H18S18777   5.805   3.384   3.807  0.7846 -1.9401  1.9111
  167SAPE  C21918778   5.795   3.575   3.916  0.1543 -0.3072  0.3349
  167SAPE  H19R18779   5.736   3.629   3.839  0.9516 -0.8596 -0.6916
  167SAPE  H19S18780   5.844   3.659   3.970 -0.1064  1.3986 -1.9389
  167SAPE  C22018781   5.691   3.530   4.023 -0.3572  0.4408  0.0666
  167SAPE  H20R18782   5.627   3.449   3.981  0.9040 -0.7797  0.4410
  167SAPE  H20S18783   5.625   3.611   4.061 -2.7585 -0.6015 -1.6290
  167SAPE  H20T18784   5.740   3.478   4.108  0.6650 -1.6419 -1.7341
  167SAPE   C3318785   6.167   3.968   2.613  0.1566  0.1397  0.5666
  167SAPE   H3X18786   6.213   4.006   2.520 -0.8556  0.4805  0.1941
  167SAPE   H3Y18787   6.251   3.926   2.673  0.1336  1.3938  1.5177
  167SAPE   C3418788   6.106   4.090   2.687 -0.5381  0.1228  0.0914
  167SAPE   H4X18789   6.063   4.052   2.782  1.4312 -2.4760  0.0710
  167SAPE   H4Y18790   6.026   4.138   2.627  0.4563  0.8170 -0.7091
  167SAPE   C3518791   6.211   4.198   2.715 -0.8655 -0.3926 -0.3141
  167SAPE   H5X18792   6.227   4.228   2.609  0.1361 -3.3571 -1.0929
  167SAPE   H5Y18793   6.308   4.158   2.752 -1.2985 -0.0426  1.2852
  167SAPE   C3618794   6.168   4.317   2.800  1.0445  0.3084 -0.2400
  167SAPE   H6X18795   6.064   4.347   2.773  0.6796 -1.6896 -1.2229
  167SAPE   H6Y18796   6.239   4.396   2.767 -0.5949  1.2803 -1.6379
  167SAPE   C3718797   6.197   4.290   2.955 -0.6520 -0.5504  0.2884
  167SAPE   H7X18798   6.303   4.257   2.963  0.0398  1.4186 -0.0022
  167SAPE   H7Y18799   6.139   4.207   3.000  1.7478 -1.8108  1.2462
  167SAPE   C3818800   6.185   4.415   3.047 -0.2779  0.0543  0.6770
  167SAPE   H8X18801   6.081   4.452   3.037  0.3833  1.6151 -0.9698
  167SAPE   H8Y18802   6.258   4.493   3.016  0.8713 -1.6211 -1.0443
  167SAPE   C3918803   6.209   4.372   3.191  0.9744 -0.0966 -0.1841
  167SAPE   H9X18804   6.306   4.326   3.218  0.9543 -0.9477 -1.4721
  167SAPE   H9Y18805   6.126   4.300   3.212  0.7490  0.2779  0.2243
  167SAPE  C31018806   6.191   4.484   3.297 -0.1819  0.9825 -0.0107
  167SAPE  H10X18807   6.105   4.548   3.270 -1.0127 -0.9478 -2.2572
  167SAPE  H10Y18808   6.285   4.537   3.323 -0.8935  2.1172  0.2894
  167SAPE  C31118809   6.152   4.426   3.431 -0.2775  0.8106 -0.4897
  167SAPE  H11X18810   6.226   4.344   3.446  0.8289  1.9248  0.3349
  167SAPE  H11Y18811   6.062   4.361   3.417  0.3615 -0.2512  0.1513
  167SAPE  C31218812   6.145   4.530   3.542  0.1373 -0.2007  0.3497
  167SAPE  H12X18813   6.058   4.597   3.523  0.4006 -0.3824 -1.7016
  167SAPE  H12Y18814   6.242   4.585   3.548  0.8281 -1.4356  0.7601
  167SAPE  C31318815   6.121   4.467   3.687  0.3177 -0.0683 -0.2259
  167SAPE  H13X18816   6.221   4.419   3.699  0.2464 -0.5663 -1.3985
  167SAPE  H13Y18817   6.039   4.393   3.674 -1.1153  1.2410  0.9884
  167SAPE  C31418818   6.098   4.568   3.799 -0.2298 -0.2847  0.5588
  167SAPE  H14X18819   6.008   4.625   3.769 -0.4671 -1.8636 -2.0172
  167SAPE  H14Y18820   6.191   4.628   3.788 -0.5725 -0.0826 -1.6821
  167SAPE  C31518821   6.073   4.505   3.941  0.1233  0.0694  0.8945
  167SAPE  H15X18822   5.994   4.426   3.938 -0.0427  0.1725  2.2053
  167SAPE  H15Y18823   6.035   4.583   4.010  1.5763  1.1479  0.4997
  167SAPE  C31618824   6.201   4.442   4.006  0.5496  0.0940 -0.1444
  167SAPE  H16X18825   6.272   4.526   3.992  3.9829 -2.1494  2.4264
  167SAPE  H16Y18826   6.246   4.368   3.938  2.5962 -0.1702  1.4235
  167SAPE  C31718827   6.205   4.405   4.156  0.1553  0.0097  0.0415
  167SAPE  H17X18828   6.248   4.304   4.172 -2.6586 -1.3926 -0.6099
  167SAPE  H17Y18829   6.103   4.391   4.197 -0.0035 -0.9805 -0.6469
  167SAPE  C31818830   6.273   4.510   4.247  0.2211  0.2325  0.0974
  167SAPE  H18X18831   6.380   4.527   4.222 -0.1673  2.5915 -0.1794
  167SAPE  H18Y18832   6.265   4.486   4.355  1.2489 -1.0879 -0.0877
  167SAPE  H18Z18833   6.227   4.611   4.235  0.3410  0.0928 -2.1089
  168SAPE     N18834   1.759   5.675   1.915  0.3967 -0.3399 -0.2661
  168SAPE   HN118835   1.702   5.600   1.871 -0.4712 -1.6278  2.7856
  168SAPE   HN218836   1.845   5.630   1.952 -0.0419 -0.8806  0.1061
  168SAPE   HN318837   1.710   5.727   1.991  0.1202  0.4558 -0.9675
  168SAPE   C1218838   1.800   5.771   1.807 -0.2966  0.2008  0.0564
  168SAPE  H12A18839   1.710   5.831   1.779  0.3265  2.3081  2.2274
  168SAPE  H12B18840   1.836   5.714   1.720 -0.2610  1.0405 -0.4942
  168SAPE   C1118841   1.904   5.875   1.865  0.4662 -0.8747  0.6208
  168SAPE  H11A18842   1.924   5.945   1.781 -0.5689 -1.3498 -0.0418
  168SAPE  H11B18843   1.994   5.812   1.879  1.4533 -0.6096 -3.2966
  168SAPE     P18844   1.984   6.015   2.050  0.6673  0.1045  0.5904
  168SAPE   O1318845   2.082   6.054   1.946 -0.5079 -0.3606 -0.0897
  168SAPE   O1418846   1.920   6.128   2.125  0.4077 -0.5702  0.0381
  168SAPE   O1218847   1.864   5.942   1.982  0.1958 -0.4275 -0.1347
  168SAPE   O1118848   2.031   5.903   2.146 -0.2151  0.1203 -0.1153
  168SAPE    C118849   1.949   5.842   2.250  0.0604 -0.1046  0.0730
  168SAPE    HA18850   1.857   5.904   2.260  0.9859  1.5854 -1.2414
  168SAPE    HB18851   1.923   5.738   2.224  0.8068 -0.6513  1.3971
  168SAPE    C218852   2.013   5.864   2.393  0.0439 -0.0304  0.0758
  168SAPE    HS18853   2.113   5.814   2.395  0.0188 -0.2268 -2.0194
  168SAPE   O2118854   1.928   5.813   2.501 -0.2221 -0.5130  0.3155
  168SAPE   C2118855   1.927   5.682   2.509  0.3830 -1.1166  0.5169
  168SAPE   O2218856   1.988   5.606   2.437  0.1048 -0.4067  0.1419
  168SAPE   C2218857   1.859   5.638   2.633 -0.3323  0.4048  0.4276
  168SAPE   H2R18858   1.782   5.717   2.645  1.3986  2.3769 -0.6675
  168SAPE   H2S18859   1.806   5.544   2.609 -0.6599  1.1634 -2.1047
  168SAPE    C318860   2.047   6.015   2.412 -0.3306  0.0381 -0.0733
  168SAPE    HX18861   1.967   6.081   2.373  1.2561  0.6277 -2.5602
  168SAPE    HY18862   2.134   6.045   2.349 -0.7805  3.0594  0.6126
  168SAPE   O3118863   2.074   6.049   2.549  0.0647  0.5570  0.2451
  168SAPE   C3118864   2.203   6.025   2.582 -0.5913 -0.4042  0.3065
  168SAPE   O3218865   2.283   5.973   2.509 -0.8198  0.0554  0.1805
  168SAPE   C3218866   2.230   6.073   2.725  0.2926 -0.6123 -0.4528
  168SAPE   H2X18867   2.256   5.989   2.793 -1.7544  0.8985  2.4541
  168SAPE   H2Y18868   2.141   6.122   2.771  1.1362 -0.2238  0.8289
  168SAPE   C2318869   1.968   5.619   2.737  0.0333  0.4440  0.8732
  168SAPE   H3R18870   2.064   5.572   2.708  0.3310  0.4784  1.7603
  168SAPE   H3S18871   1.934   5.559   2.823 -1.6746 -0.4221 -0.3670
  168SAPE   C2418872   2.009   5.757   2.803  0.5406  0.2746  0.4599
  168SAPE   H4R18873   1.942   5.761   2.892 -1.5086 -1.8296 -0.8654
  168SAPE   H4S18874   1.980   5.834   2.728 -2.1439 -2.8707 -2.0329
  168SAPE   C2518875   2.151   5.757   2.845  0.9813  0.0021  0.2675
  168SAPE   H5R18876   2.223   5.735   2.764  2.8574  0.0083  1.8631
  168SAPE   C2618877   2.194   5.758   2.969  0.2666 -0.1992 -0.1911
  168SAPE   H6R18878   2.301   5.754   2.995 -0.2831  0.2705  2.4106
  168SAPE   C2718879   2.102   5.775   3.094 -0.5143  0.0046 -0.3436
  168SAPE   H7R18880   2.160   5.738   3.181 -1.8305 -0.4165  0.3843
  168SAPE   H7S18881   2.019   5.702   3.092 -0.7343  0.2508 -0.2223
  168SAPE   C2818882   2.063   5.924   3.120  0.9989 -0.0156 -0.3190
  168SAPE   H8R18883   2.145   5.992   3.094  1.6351 -0.8656 -0.5673
  168SAPE   C2918884   1.941   5.981   3.159 -0.3291  0.3587 -0.0659
  168SAPE   H9R18885   1.940   6.088   3.183 -2.2586  0.2516  0.4746
  168SAPE  C21018886   1.810   5.909   3.183  0.9944  0.2319 -0.5062
  168SAPE  H10R18887   1.757   5.956   3.268  0.8784 -1.4462  0.3883
  168SAPE  H10S18888   1.816   5.800   3.205 -0.5891 -0.3643 -2.6889
  168SAPE  C21118889   1.737   5.903   3.052  0.5743 -0.2578 -0.5275
  168SAPE  H11R18890   1.781   5.831   2.982  0.5490 -1.3351  0.5309
  168SAPE  C21218891   1.611   5.948   3.024 -0.7889  0.5551  0.4460
  168SAPE  H12R18892   1.595   5.944   2.915  4.0840 -0.7604 -0.4754
  168SAPE  C21318893   1.535   6.045   3.104  0.0931  0.5957  0.2421
  168SAPE  H13R18894   1.504   6.133   3.043  0.1675  1.2495  1.1346
  168SAPE  H13S18895   1.601   6.095   3.177  0.0510  2.3376 -0.8595
  168SAPE  C21418896   1.414   5.991   3.165 -0.6890 -0.1711  0.1187
  168SAPE  H14R18897   1.394   5.891   3.122 -1.4989  1.0918 -2.7032
  168SAPE  C21518898   1.338   6.036   3.264  0.3075 -0.4077 -0.1680
  168SAPE  H15R18899   1.256   5.969   3.292  0.8742 -0.9586  0.1787
  168SAPE  C21618900   1.366   6.170   3.335  0.7158  0.0610  0.4379
  168SAPE  H16R18901   1.271   6.226   3.323  0.2428 -0.5940  1.0025
  168SAPE  H16S18902   1.447   6.231   3.290  1.4664 -0.6846  0.7542
  168SAPE  C21718903   1.381   6.159   3.487 -0.0963 -0.2856 -0.4976
  168SAPE  H17R18904   1.301   6.091   3.524 -0.2741 -0.1496 -0.6311
  168SAPE  H17S18905   1.371   6.257   3.539 -1.8969 -0.1398 -1.0402
  168SAPE  C21818906   1.502   6.082   3.521 -0.0775  0.4023 -1.3640
  168SAPE  H18R18907   1.589   6.138   3.482  1.1125  0.5933  1.3219
  168SAPE  H18S18908   1.501   5.977   3.483  2.9107 -0.0781 -0.3645
  168SAPE  C21918909   1.530   6.059   3.676  0.0513  0.5290  0.8498
  168SAPE  H19R18910   1.432   6.033   3.721 -0.3244  3.3828  1.9072
  168SAPE  H19S18911   1.559   6.153   3.727  0.0436  0.3257  1.2315
  168SAPE  C22018912   1.636   5.959   3.715  0.4093 -0.4969 -0.7845
  168SAPE  H20R18913   1.615   5.851   3.693 -0.0329 -0.2977 -1.3757
  168SAPE  H20S18914   1.646   5.964   3.825 -0.1152 -1.0216 -0.7063
  168SAPE  H20T18915   1.735   5.979   3.669  0.4525 -1.6351 -1.2319
  168SAPE   C3318916   2.349   6.171   2.733 -0.2661  0.2613  0.2136
  168SAPE   H3X18917   2.332   6.259   2.668  0.3858 -0.7751 -1.4303
  168SAPE   H3Y18918   2.441   6.126   2.692  1.3330  1.5626  2.2105
  168SAPE   C3418919   2.377   6.218   2.876 -0.4170  0.2341 -0.0693
  168SAPE   H4X18920   2.467   6.282   2.866 -2.2023  2.4899 -3.3614
  168SAPE   H4Y18921   2.400   6.141   2.952 -0.5157  0.8423  0.5930
  168SAPE   C3518922   2.264   6.305   2.935 -0.6993  0.1045  0.3360
  168SAPE   H5X18923   2.162   6.263   2.929 -0.4156 -0.5591  0.1309
  168SAPE   H5Y18924   2.269   6.401   2.878  1.3107  0.5788  1.2008
  168SAPE   C3618925   2.299   6.342   3.084 -0.4287  0.2739  0.5596
  168SAPE   H6X18926   2.229   6.423   3.111 -1.7503 -0.8183  0.4909
  168SAPE   H6Y18927   2.403   6.381   3.097 -0.1661 -0.0558 -0.4595
  168SAPE   C3718928   2.269   6.230   3.190  0.2688  0.1220  0.8905
  168SAPE   H7X18929   2.333   6.141   3.174  0.1063 -0.0781  1.3237
  168SAPE   H7Y18930   2.160   6.207   3.191  0.1117  0.8138  0.5517
  168SAPE   C3818931   2.288   6.271   3.339 -0.4574 -0.9976  0.2646
  168SAPE   H8X18932   2.209   6.346   3.364 -0.6732 -0.6622 -1.3072
  168SAPE   H8Y18933   2.388   6.313   3.363 -1.5492  2.2680 -0.4402
  168SAPE   C3918934   2.259   6.156   3.437  0.6241 -0.8473 -1.2592
  168SAPE   H9X18935   2.331   6.081   3.399  0.2419 -1.2352 -1.2215
  168SAPE   H9Y18936   2.156   6.122   3.415 -0.3193 -0.0743  1.5528
  168SAPE  C31018937   2.291   6.189   3.584  0.3182 -0.8530 -0.5087
  168SAPE  H10X18938   2.223   6.269   3.619 -0.8241 -0.0682 -4.1110
  168SAPE  H10Y18939   2.392   6.235   3.596 -0.6333  1.8135 -2.0094
  168SAPE  C31118940   2.266   6.069   3.674 -0.1281  0.0548 -0.3475
  168SAPE  H11X18941   2.324   5.990   3.621  1.5431  0.8959  0.1917
  168SAPE  H11Y18942   2.157   6.048   3.663 -1.1101  4.1933 -0.1902
  168SAPE  C31218943   2.317   6.085   3.819 -0.7376  0.8203 -0.3738
  168SAPE  H12X18944   2.254   6.167   3.859 -0.1180  2.0536 -1.8390
  168SAPE  H12Y18945   2.420   6.123   3.803  0.2451 -1.4947 -0.0595
  168SAPE  C31318946   2.300   5.962   3.905  0.6066  0.1402  0.4587
  168SAPE  H13X18947   2.317   5.874   3.840 -0.0955  0.9164 -0.8292
  168SAPE  H13Y18948   2.194   5.954   3.940  0.0851 -0.4817 -1.1624
  168SAPE  C31418949   2.391   5.954   4.025  0.0798  0.6175 -0.0096
  168SAPE  H14X18950   2.383   6.050   4.081  0.4248  1.8268 -1.9394
  168SAPE  H14Y18951   2.496   5.939   3.995 -0.7477  0.1870 -3.0248
  168SAPE  C31518952   2.351   5.836   4.118  0.4418  0.8343 -0.2739
  168SAPE  H15X18953   2.338   5.752   4.046 -0.6622  0.4028  0.3984
  168SAPE  H15Y18954   2.255   5.846   4.174  0.4198 -1.9341  0.3407
  168SAPE  C31618955   2.458   5.807   4.226 -0.1647 -0.3036  0.5311
  168SAPE  H16X18956   2.439   5.891   4.296 -0.9469 -0.3196  0.3544
  168SAPE  H16Y18957   2.562   5.813   4.187  1.5026  0.7281  4.6409
  168SAPE  C31718958   2.433   5.684   4.321  0.1155 -0.5441 -0.5043
  168SAPE  H17X18959   2.336   5.682   4.375 -0.5781  1.3040 -1.5979
  168SAPE  H17Y18960   2.515   5.689   4.396  0.8472  0.6901 -1.3303
  168SAPE  C31818961   2.456   5.561   4.242  0.0598 -0.1100 -0.0059
  168SAPE  H18X18962   2.559   5.559   4.201  0.0232 -1.0573 -0.0654
  168SAPE  H18Y18963   2.388   5.546   4.156  0.1076 -1.4820  0.1731
  168SAPE  H18Z18964   2.451   5.471   4.306 -1.5030  0.0676  0.1759
  169SAPE     N18965   0.165   1.528   1.699 -0.0477  0.4584  0.3013
  169SAPE   HN118966   0.080   1.582   1.671 -0.3544  0.4673  1.1995
  169SAPE   HN218967   0.210   1.484   1.617  0.9612  1.7974  0.1158
  169SAPE   HN318968   0.129   1.448   1.756 -0.4406 -0.7821 -1.5801
  169SAPE   C1218969   0.275   1.594   1.789  0.5432  0.2977 -0.3406
  169SAPE  H12A18970   0.227   1.586   1.889  1.0560 -0.0194 -0.1208
  169SAPE  H12B18971   0.283   1.702   1.763 -0.9464  0.3500 -0.7041
  169SAPE   C1118972   0.413   1.529   1.786 -0.3175 -0.4107  0.3184
  169SAPE  H11A18973   0.485   1.571   1.859  1.3825 -2.8727  0.1769
  169SAPE  H11B18974   0.442   1.550   1.680 -2.7474  0.3213 -0.2762
  169SAPE     P18975   0.508   1.304   1.886  0.2406 -0.3396  0.0140
  169SAPE   O1318976   0.474   1.164   1.849  0.1006  0.7124  0.6433
  169SAPE   O1418977   0.650   1.355   1.863 -0.5627  0.2518  0.2463
  169SAPE   O1218978   0.405   1.389   1.802  0.0045 -0.2060  0.3004
  169SAPE   O1118979   0.466   1.334   2.034  0.0088  0.1889  0.2735
  169SAPE    C118980   0.331   1.282   2.071 -0.5663 -0.3823 -0.1301
  169SAPE    HA18981   0.255   1.354   2.034  0.8468 -0.2543 -3.0549
  169SAPE    HB18982   0.314   1.184   2.022  3.4564 -1.1249 -0.3652
  169SAPE    C218983   0.333   1.260   2.224  0.6437  0.1860 -0.0045
  169SAPE    HS18984   0.235   1.216   2.252  0.2780 -0.0260 -1.5553
  169SAPE   O2118985   0.356   1.384   2.298 -0.3331 -0.5070  0.2094
  169SAPE   C2118986   0.262   1.477   2.283  0.3964 -0.2860 -0.2547
  169SAPE   O2218987   0.154   1.455   2.238  0.3175  0.5975 -0.2850
  169SAPE   C2218988   0.310   1.607   2.347 -0.1530  0.5075 -0.0383
  169SAPE   H2R18989   0.410   1.592   2.393 -0.8927 -1.5713  1.0311
  169SAPE   H2S18990   0.334   1.680   2.267  1.3267 -0.6180 -0.6561
  169SAPE    C318991   0.427   1.148   2.267  0.3642 -0.2039  0.6702
  169SAPE    HX18992   0.530   1.180   2.242 -0.6040  1.3923 -1.6204
  169SAPE    HY18993   0.387   1.060   2.212 -1.3964  1.0458 -0.1536
  169SAPE   O3118994   0.424   1.125   2.406 -0.3933  0.3111 -0.1837
  169SAPE   C3118995   0.321   1.066   2.458 -0.5223 -0.3300  1.5183
  169SAPE   O3218996   0.219   1.030   2.405  0.4159 -0.3864  0.5259
  169SAPE   C3218997   0.366   1.017   2.599  1.3422 -0.6202  0.0205
  169SAPE   H2X18998   0.474   0.992   2.595  1.7873  1.2095 -0.5931
  169SAPE   H2Y18999   0.319   0.918   2.617 -1.2018  0.8112  1.9899
  169SAPE   C2319000   0.214   1.664   2.456 -0.6927 -0.8825  0.2833
  169SAPE   H3R19001   0.116   1.696   2.415  0.1188  0.0621 -1.0023
  169SAPE   H3S19002   0.257   1.758   2.497 -2.1600  0.3514 -0.8854
  169SAPE   C2419003   0.198   1.564   2.579 -0.5474 -0.3476  0.9097
  169SAPE   H4R19004   0.287   1.498   2.576  0.2030  0.6668 -0.7603
  169SAPE   H4S19005   0.115   1.494   2.555  0.2905 -0.7053 -1.2108
  169SAPE   C2519006   0.184   1.634   2.711  0.6212  0.7167  0.6093
  169SAPE   H5R19007   0.270   1.661   2.774 -0.4960 -0.2597  2.6768
  169SAPE   C2619008   0.064   1.681   2.756 -0.5142  0.4476  0.6403
  169SAPE   H6R19009   0.073   1.719   2.859 -0.4252  0.6227  0.5674
  169SAPE   C2719010  -0.072   1.664   2.688 -0.1155 -0.6114  0.1194
  169SAPE   H7R19011  -0.132   1.606   2.761 -2.0968 -0.8723 -1.6070
  169SAPE   H7S19012  -0.073   1.602   2.597 -1.8948  1.7233 -1.5816
  169SAPE   C2819013  -0.129   1.800   2.671  0.1389 -0.5448  0.1475
  169SAPE   H8R19014  -0.088   1.852   2.583 -1.6621  1.2299  0.2938
  169SAPE   C2919015  -0.229   1.858   2.739 -0.3459 -0.2922  0.1117
  169SAPE   H9R19016  -0.254   1.960   2.707 -0.5739 -0.3459  0.1131
  169SAPE  C21019017  -0.308   1.792   2.854  0.0417 -1.0014  0.2287
  169SAPE  H10R19018  -0.276   1.833   2.952  1.0814 -1.5018  0.1199
  169SAPE  H10S19019  -0.299   1.681   2.860  2.0425 -0.9205 -0.5912
  169SAPE  C21119020  -0.450   1.818   2.822 -0.2485 -0.0674 -0.3627
  169SAPE  H11R19021  -0.491   1.767   2.734  0.0121 -2.2864  0.7537
  169SAPE  C21219022  -0.541   1.892   2.890 -0.5449 -0.2643 -0.6583
  169SAPE  H12R19023  -0.646   1.897   2.858 -0.0315 -1.1710 -2.6665
  169SAPE  C21319024  -0.505   1.972   3.017  0.6043 -0.3670  0.5876
  169SAPE  H13R19025  -0.578   2.055   3.026 -1.4125 -2.1825  2.1193
  169SAPE  H13S19026  -0.409   2.026   3.009 -0.2387  1.2730  1.1416
  169SAPE  C21419027  -0.482   1.888   3.142  1.0278  0.2223 -0.2604
  169SAPE  H14R19028  -0.475   1.781   3.117 -1.9510 -0.1274  0.0897
  169SAPE  C21519029  -0.468   1.928   3.267 -0.4728  0.1411 -0.3527
  169SAPE  H15R19030  -0.475   1.853   3.348 -1.1907  0.1365 -0.4107
  169SAPE  C21619031  -0.450   2.071   3.301  0.4781  0.3900 -0.7534
  169SAPE  H16R19032  -0.442   2.134   3.210  1.0857  0.9708 -0.3069
  169SAPE  H16S19033  -0.356   2.104   3.351  1.1637  0.2492 -1.9059
  169SAPE  C21719034  -0.568   2.118   3.380  0.0053  0.3502 -0.7938
  169SAPE  H17R19035  -0.665   2.087   3.335 -0.7735  2.6809 -0.8667
  169SAPE  H17S19036  -0.572   2.228   3.370  0.4174  0.4614  0.1944
  169SAPE  C21819037  -0.558   2.076   3.524  0.2841  0.1505  0.0764
  169SAPE  H18R19038  -0.449   2.086   3.546  0.0301  1.8679  0.6356
  169SAPE  H18S19039  -0.588   1.970   3.544  2.2428 -0.2233  1.3674
  169SAPE  C21919040  -0.633   2.157   3.629 -0.3921  0.6810 -0.2747
  169SAPE  H19R19041  -0.614   2.103   3.723 -1.4736  3.4859  1.6964
  169SAPE  H19S19042  -0.742   2.153   3.605 -0.0287  0.6796 -2.0475
  169SAPE  C22019043  -0.576   2.299   3.660  0.1934  1.4575  0.5604
  169SAPE  H20R19044  -0.652   2.349   3.722  0.1324 -0.8640  2.4757
  169SAPE  H20S19045  -0.557   2.364   3.571 -0.5023 -1.7790 -2.1822
  169SAPE  H20T19046  -0.485   2.290   3.724  0.8281 -2.0465 -0.6119
  169SAPE   C3319047   0.319   1.128   2.700 -0.8502  0.2826  0.4962
  169SAPE   H3X19048   0.208   1.121   2.706 -0.8154 -0.7818  0.1325
  169SAPE   H3Y19049   0.346   1.228   2.661  0.0754  0.4816  1.6080
  169SAPE   C3419050   0.383   1.099   2.840 -0.4991  0.7500 -0.1604
  169SAPE   H4X19051   0.493   1.107   2.829 -0.1759 -1.6082  0.8313
  169SAPE   H4Y19052   0.363   0.995   2.873 -0.0221  0.4852 -0.6845
  169SAPE   C3519053   0.337   1.193   2.954  0.1586 -0.5606  0.3658
  169SAPE   H5X19054   0.235   1.156   2.973 -0.3985  1.3548  1.4239
  169SAPE   H5Y19055   0.334   1.300   2.923 -0.1144 -0.5433  0.4533
  169SAPE   C3619056   0.416   1.174   3.087  0.2859 -0.0397 -0.2015
  169SAPE   H6X19057   0.522   1.206   3.075  0.3145  0.9156  2.0554
  169SAPE   H6Y19058   0.432   1.064   3.095 -1.3854 -0.4686 -1.9686
  169SAPE   C3719059   0.341   1.214   3.218 -0.3190  0.3183 -0.0280
  169SAPE   H7X19060   0.244   1.161   3.229 -0.0556  0.0090  0.8681
  169SAPE   H7Y19061   0.324   1.324   3.221 -0.6116  0.3376 -1.4941
  169SAPE   C3819062   0.437   1.193   3.339 -0.1194 -0.2253 -0.8733
  169SAPE   H8X19063   0.537   1.213   3.296  0.5685  1.3841  1.2806
  169SAPE   H8Y19064   0.429   1.086   3.369 -4.4497 -0.2302 -1.4291
  169SAPE   C3919065   0.409   1.277   3.467  0.3370  0.6402  0.0179
  169SAPE   H9X19066   0.305   1.248   3.494 -0.6829  1.6881 -2.4766
  169SAPE   H9Y19067   0.409   1.384   3.436  0.4659  1.0648  1.4280
  169SAPE  C31019068   0.505   1.250   3.576  0.1426 -0.2407 -0.3651
  169SAPE  H10X19069   0.613   1.270   3.555  1.0099 -2.1328  1.8351
  169SAPE  H10Y19070   0.494   1.140   3.587 -0.6082 -0.4386 -2.5315
  169SAPE  C31119071   0.467   1.318   3.710  0.4554 -0.0483 -0.5805
  169SAPE  H11X19072   0.361   1.293   3.728  1.0763 -1.0196  2.3279
  169SAPE  H11Y19073   0.490   1.426   3.719  0.1049 -0.1204  1.8127
  169SAPE  C31219074   0.535   1.260   3.830 -0.0585  0.4754  0.1021
  169SAPE  H12X19075   0.511   1.310   3.926 -1.6259 -2.2070  1.2098
  169SAPE  H12Y19076   0.646   1.261   3.819 -0.1316 -1.1677 -1.1643
  169SAPE  C31319077   0.489   1.113   3.861 -0.1815 -0.1105 -0.0783
  169SAPE  H13X19078   0.518   1.042   3.780  0.0067  0.3190 -0.3846
  169SAPE  H13Y19079   0.378   1.120   3.858 -0.1055  2.5599  1.1486
  169SAPE  C31419080   0.523   1.052   3.997 -0.1610  0.3527 -0.5389
  169SAPE  H14X19081   0.504   1.132   4.072 -0.0411  1.6233 -1.8257
  169SAPE  H14Y19082   0.628   1.017   4.002 -0.8205 -1.8889 -1.2139
  169SAPE  C31519083   0.430   0.926   4.030  0.3691 -0.1605 -0.5432
  169SAPE  H15X19084   0.462   0.839   3.970  1.8441 -0.5981  0.7998
  169SAPE  H15Y19085   0.325   0.950   4.004 -0.1602  0.9596  2.2671
  169SAPE  C31619086   0.431   0.883   4.178  0.3057 -0.4030 -0.0449
  169SAPE  H16X19087   0.376   0.966   4.229  0.9447  1.1652 -1.8129
  169SAPE  H16Y19088   0.535   0.889   4.215  0.1424  1.9491  0.2143
  169SAPE  C31719089   0.354   0.755   4.197 -0.3192 -0.3212 -0.2759
  169SAPE  H17X19090   0.405   0.672   4.144 -1.6772 -0.4506 -1.4246
  169SAPE  H17Y19091   0.259   0.775   4.144 -0.4031  1.5417  0.4982
  169SAPE  C31819092   0.335   0.711   4.342 -0.6174 -0.2509  0.2965
  169SAPE  H18X19093   0.229   0.683   4.359 -0.2105 -1.1506  1.5177
  169SAPE  H18Y19094   0.345   0.805   4.400  0.2643  0.1321 -0.4480
  169SAPE  H18Z19095   0.411   0.638   4.377  1.3992  0.9194 -1.3454
  170SAPE     N19096   0.435   2.351   2.253 -0.1465  0.2338  0.5748
  170SAPE   HN119097   0.430   2.248   2.262 -1.3126  0.2678  0.4298
  170SAPE   HN219098   0.447   2.369   2.151  0.9966  1.0635  0.8280
  170SAPE   HN319099   0.528   2.384   2.287  0.9124 -1.4512 -0.5682
  170SAPE   C1219100   0.322   2.419   2.328 -0.0913  0.0377 -0.1312
  170SAPE  H12A19101   0.351   2.527   2.325  0.3725 -0.0169 -4.7602
  170SAPE  H12B19102   0.306   2.374   2.428  1.9457  0.1211  0.2714
  170SAPE   C1119103   0.191   2.405   2.241  0.8353  0.4665 -0.8477
  170SAPE  H11A19104   0.182   2.296   2.219 -0.5972  0.7607 -1.8814
  170SAPE  H11B19105   0.213   2.458   2.146 -0.4829 -0.1649 -1.5331
  170SAPE     P19106  -0.065   2.468   2.224  0.3118  0.0037 -0.4067
  170SAPE   O1319107  -0.094   2.610   2.189 -0.7744  0.1440 -0.0580
  170SAPE   O1419108  -0.063   2.372   2.111 -0.1602  0.0860 -0.3025
  170SAPE   O1219109   0.072   2.457   2.305  0.0826 -0.0427 -0.4740
  170SAPE   O1119110  -0.177   2.423   2.316  0.0421 -0.0454  0.5343
  170SAPE    C119111  -0.178   2.298   2.382 -0.3398 -0.2877 -0.2849
  170SAPE    HA19112  -0.259   2.238   2.335 -3.2376  2.2809  1.0906
  170SAPE    HB19113  -0.090   2.231   2.370 -0.8736 -0.9624 -0.5269
  170SAPE    C219114  -0.191   2.316   2.538 -0.1131  0.3373 -0.3598
  170SAPE    HS19115  -0.152   2.225   2.588  1.1041 -0.1874 -2.1655
  170SAPE   O2119116  -0.327   2.355   2.576 -0.0355 -0.1062  0.2415
  170SAPE   C2119117  -0.405   2.246   2.574  0.0754 -1.2987  0.0312
  170SAPE   O2219118  -0.380   2.133   2.555  0.3818  0.0807 -0.4600
  170SAPE   C2219119  -0.550   2.303   2.593 -0.1634  0.2989  0.1596
  170SAPE   H2R19120  -0.552   2.366   2.685 -0.0410 -0.1217  0.4557
  170SAPE   H2S19121  -0.569   2.355   2.497 -0.3131  0.6785  0.3927
  170SAPE    C319122  -0.090   2.423   2.587 -0.3552  0.7046 -0.0317
  170SAPE    HX19123  -0.089   2.517   2.528  0.4088 -0.0132 -1.1989
  170SAPE    HY19124   0.018   2.398   2.575  0.0647  1.6417  1.3872
  170SAPE   O3119125  -0.110   2.445   2.727  0.0289 -0.0538 -0.3908
  170SAPE   C3119126  -0.204   2.535   2.754 -0.8438  0.6416  0.2246
  170SAPE   O3219127  -0.256   2.609   2.671  0.7403 -0.3998 -0.2832
  170SAPE   C3219128  -0.250   2.531   2.897 -0.5809  0.2271 -0.1929
  170SAPE   H2X19129  -0.170   2.574   2.961  0.8843 -1.7843 -0.5670
  170SAPE   H2Y19130  -0.266   2.426   2.931  1.2171  0.0398  0.1882
  170SAPE   C2319131  -0.656   2.192   2.617  0.6368  0.0456  0.3270
  170SAPE   H3R19132  -0.634   2.136   2.710 -1.5948 -1.8452 -0.1657
  170SAPE   H3S19133  -0.661   2.118   2.534  0.0830 -0.5093  0.8485
  170SAPE   C2419134  -0.796   2.259   2.628  0.5675 -0.0986 -0.2971
  170SAPE   H4R19135  -0.809   2.296   2.523  0.2597  1.4062  0.2465
  170SAPE   H4S19136  -0.789   2.350   2.691 -2.1228 -1.1364  1.6657
  170SAPE   C2519137  -0.913   2.170   2.667  0.2844 -0.3632 -0.1376
  170SAPE   H5R19138  -0.965   2.124   2.582 -0.3456 -0.0741  0.0898
  170SAPE   C2619139  -0.954   2.144   2.791  0.0283 -0.1068  0.1108
  170SAPE   H6R19140  -1.033   2.068   2.802 -0.8906  0.4294 -2.2013
  170SAPE   C2719141  -0.889   2.195   2.914 -0.1979 -0.4019 -0.1128
  170SAPE   H7R19142  -0.778   2.187   2.914 -0.2242 -1.7886  2.3459
  170SAPE   H7S19143  -0.901   2.121   2.997  0.8215 -0.7360 -0.2424
  170SAPE   C2819144  -0.931   2.337   2.953 -0.0336  0.2237 -0.7544
  170SAPE   H8R19145  -0.981   2.390   2.871  1.3812  1.2550 -0.9731
  170SAPE   C2919146  -0.945   2.386   3.077 -1.2666  0.1498 -0.3211
  170SAPE   H9R19147  -0.978   2.491   3.086  1.1882  0.8525  1.3760
  170SAPE  C21019148  -0.888   2.327   3.208  0.2648  0.4091  0.0598
  170SAPE  H10R19149  -0.816   2.246   3.185  0.8717  0.3032  2.1363
  170SAPE  H10S19150  -0.974   2.275   3.257  2.0170 -0.8543  1.9360
  170SAPE  C21119151  -0.825   2.437   3.288  0.2909 -0.3054  0.1520
  170SAPE  H11R19152  -0.746   2.496   3.239 -0.7631  0.7691 -0.3042
  170SAPE  C21219153  -0.863   2.466   3.414  0.7321 -0.5504  0.8930
  170SAPE  H12R19154  -0.823   2.551   3.471 -1.6929 -0.0518  1.9569
  170SAPE  C21319155  -0.975   2.404   3.488 -0.7007 -0.2548 -0.0196
  170SAPE  H13R19156  -0.923   2.356   3.574 -0.6269  1.0840  0.7225
  170SAPE  H13S19157  -1.033   2.329   3.432 -0.5888 -1.0896  0.9577
  170SAPE  C21419158  -1.083   2.492   3.537 -0.3842 -0.4385  0.1377
  170SAPE  H14R19159  -1.147   2.512   3.450  0.5857  3.9337  0.2042
  170SAPE  C21519160  -1.115   2.529   3.663 -0.1879 -0.1702  0.5036
  170SAPE  H15R19161  -1.197   2.601   3.677 -0.6031 -0.0825 -2.0285
  170SAPE  C21619162  -1.024   2.493   3.784  0.3661  0.7115 -0.3659
  170SAPE  H16R19163  -0.953   2.574   3.812  0.1475  0.8645 -0.2503
  170SAPE  H16S19164  -0.963   2.401   3.771 -0.6894 -0.2946  1.4513
  170SAPE  C21719165  -1.117   2.477   3.916  0.1992 -0.7373  0.4701
  170SAPE  H17R19166  -1.186   2.395   3.889  0.5637 -0.4347 -1.5198
  170SAPE  H17S19167  -1.178   2.566   3.940 -0.5565 -1.0674 -0.1758
  170SAPE  C21819168  -1.047   2.429   4.046 -0.5289  0.1808  0.0267
  170SAPE  H18R19169  -1.123   2.419   4.127 -0.1287  0.8991  0.4971
  170SAPE  H18S19170  -0.980   2.508   4.085 -0.0118 -1.2585  2.2150
  170SAPE  C21919171  -0.956   2.302   4.034  0.2996 -0.6974  0.6844
  170SAPE  H19R19172  -0.892   2.291   4.124 -1.9110 -2.1174  2.1994
  170SAPE  H19S19173  -0.889   2.309   3.946 -2.3520  0.7993 -1.3648
  170SAPE  C22019174  -1.037   2.169   4.017  0.9624 -0.2337  0.3930
  170SAPE  H20R19175  -1.098   2.172   3.925  1.6295 -1.5927 -0.1196
  170SAPE  H20S19176  -1.104   2.142   4.102  0.2470 -3.1417 -0.9653
  170SAPE  H20T19177  -0.972   2.079   4.006  1.2301  0.2148 -2.1178
  170SAPE   C3319178  -0.373   2.624   2.921 -0.3252 -0.0157 -0.4155
  170SAPE   H3X19179  -0.468   2.587   2.877 -1.4980 -1.8582  3.2450
  170SAPE   H3Y19180  -0.352   2.718   2.866 -0.5681 -0.9210 -2.1116
  170SAPE   C3419181  -0.403   2.665   3.064  0.1698 -0.0522 -0.7077
  170SAPE   H4X19182  -0.486   2.738   3.054 -0.7269 -0.5969  1.9198
  170SAPE   H4Y19183  -0.314   2.713   3.110  0.6453 -0.1773 -1.4801
  170SAPE   C3519184  -0.464   2.548   3.137 -0.7394  0.2545  0.2726
  170SAPE   H5X19185  -0.395   2.462   3.136 -0.4047  0.5207  0.2518
  170SAPE   H5Y19186  -0.545   2.511   3.071 -0.3583 -0.9149  0.4424
  170SAPE   C3619187  -0.506   2.575   3.289 -0.7849 -0.3688  1.2374
  170SAPE   H6X19188  -0.521   2.474   3.332 -1.4505 -0.5062  0.7042
  170SAPE   H6Y19189  -0.602   2.631   3.290 -2.9230 -3.4699 -2.5483
  170SAPE   C3719190  -0.392   2.647   3.367 -0.1145 -0.0151 -0.1426
  170SAPE   H7X19191  -0.345   2.733   3.313  1.1176  1.1728  2.6069
  170SAPE   H7Y19192  -0.313   2.570   3.370 -1.2332 -1.1779  0.0622
  170SAPE   C3819193  -0.428   2.683   3.513 -0.1666  0.5798 -0.5743
  170SAPE   H8X19194  -0.468   2.598   3.573 -1.0195  1.1416 -0.3252
  170SAPE   H8Y19195  -0.507   2.761   3.500  2.1991  3.3679  0.6205
  170SAPE   C3919196  -0.310   2.725   3.600 -0.2202 -0.2399 -0.8278
  170SAPE   H9X19197  -0.265   2.822   3.571  1.8282 -0.8063  0.2943
  170SAPE   H9Y19198  -0.229   2.651   3.582 -0.2262 -0.3741 -0.3026
  170SAPE  C31019199  -0.346   2.749   3.749  0.4015  0.4703 -0.1363
  170SAPE  H10X19200  -0.439   2.810   3.761 -0.5374 -0.3268 -2.6646
  170SAPE  H10Y19201  -0.265   2.815   3.785 -0.5184  0.7701  1.4875
  170SAPE  C31119202  -0.355   2.617   3.835  0.0024 -0.1064  0.2638
  170SAPE  H11X19203  -0.255   2.578   3.862 -0.3380  0.2639  2.2209
  170SAPE  H11Y19204  -0.407   2.544   3.770  2.2332  0.9935 -3.0514
  170SAPE  C31219205  -0.419   2.625   3.966 -0.6490 -0.7988  0.0598
  170SAPE  H12X19206  -0.371   2.694   4.039 -1.1991 -0.0370 -0.2843
  170SAPE  H12Y19207  -0.412   2.524   4.011 -0.3355 -1.2385 -0.9505
  170SAPE  C31319208  -0.566   2.684   3.975 -0.5559  0.1607  0.1158
  170SAPE  H13X19209  -0.638   2.631   3.910 -3.4144 -0.8426  3.7488
  170SAPE  H13Y19210  -0.559   2.786   3.930  0.8864 -0.1133 -0.3222
  170SAPE  C31419211  -0.612   2.697   4.118 -0.0910  0.0746 -0.1274
  170SAPE  H14X19212  -0.685   2.781   4.116  0.4369  0.5359 -2.2983
  170SAPE  H14Y19213  -0.534   2.734   4.188 -1.1763 -0.8302  1.6180
  170SAPE  C31519214  -0.695   2.580   4.163  0.3686  0.7916 -0.1615
  170SAPE  H15X19215  -0.635   2.486   4.163 -0.9904 -0.1173 -0.7355
  170SAPE  H15Y19216  -0.775   2.553   4.091 -1.5874 -0.5612  2.3419
  170SAPE  C31619217  -0.769   2.594   4.305 -0.3637  0.3017 -0.6173
  170SAPE  H16X19218  -0.798   2.490   4.331  2.0493 -0.2639  0.0702
  170SAPE  H16Y19219  -0.863   2.653   4.298 -0.6747 -0.2499 -1.2803
  170SAPE  C31719220  -0.674   2.640   4.412 -0.0700 -1.1287  0.3632
  170SAPE  H17X19221  -0.662   2.749   4.398 -5.5079 -0.2529  0.4151
  170SAPE  H17Y19222  -0.576   2.587   4.415 -0.2174 -1.6417 -1.9661
  170SAPE  C31819223  -0.728   2.632   4.556  0.3684 -0.1580  0.0626
  170SAPE  H18X19224  -0.645   2.650   4.627 -0.6716  0.6123  1.1349
  170SAPE  H18Y19225  -0.760   2.527   4.569 -0.3877  0.1092  0.4794
  170SAPE  H18Z19226  -0.812   2.704   4.571 -0.2506 -0.0314 -3.2468
  171SAPE     N19227   6.387   2.684   1.905  0.7496  0.1497  0.5715
  171SAPE   HN119228   6.488   2.702   1.920  1.3592 -0.4655 -2.2558
  171SAPE   HN219229   6.378   2.650   1.807  1.4530  2.1133 -0.2244
  171SAPE   HN319230   6.342   2.776   1.922  1.0613 -0.0794  3.0254
  171SAPE   C1219231   6.344   2.586   2.011 -0.1243  0.2544 -0.3841
  171SAPE  H12A19232   6.355   2.627   2.114  2.0483 -1.0870  0.0052
  171SAPE  H12B19233   6.417   2.502   2.001 -0.4639  0.0172 -0.9123
  171SAPE   C1119234   6.204   2.549   1.972 -0.4763 -0.1417 -0.2654
  171SAPE  H11A19235   6.169   2.481   2.053  2.4436 -0.1449  1.1221
  171SAPE  H11B19236   6.208   2.484   1.881  1.0316 -0.0774 -0.2756
  171SAPE     P19237   5.979   2.658   2.030  0.2483 -0.4988 -0.3429
  171SAPE   O1319238   5.901   2.778   1.988 -0.4854 -0.5661  0.5380
  171SAPE   O1419239   5.911   2.529   1.989 -1.0154 -0.3328 -0.0976
  171SAPE   O1219240   6.119   2.666   1.960 -0.0544 -0.3218  0.3280
  171SAPE   O1119241   6.022   2.662   2.181 -0.4708 -0.3105 -0.1322
  171SAPE    C119242   6.116   2.761   2.238  0.0988 -0.1168  0.0869
  171SAPE    HA19243   6.184   2.710   2.309  2.7104  0.7342 -1.6747
  171SAPE    HB19244   6.179   2.823   2.171 -1.3208  1.2678 -0.0326
  171SAPE    C219245   6.048   2.865   2.336  0.1446 -0.1823  0.3923
  171SAPE    HS19246   6.015   2.806   2.424 -0.6542 -0.0032  0.2240
  171SAPE   O2119247   5.936   2.925   2.273  0.2582 -0.0542  0.2143
  171SAPE   C2119248   5.816   2.870   2.300  0.7901  0.2908  0.1333
  171SAPE   O2219249   5.803   2.772   2.366  0.4920  0.3440 -0.5432
  171SAPE   C2219250   5.707   2.955   2.241  0.0504 -0.5353 -0.0480
  171SAPE   H2R19251   5.747   3.012   2.155  0.4670 -2.2824 -1.0653
  171SAPE   H2S19252   5.631   2.893   2.189 -1.0542  1.6059 -1.0658
  171SAPE    C319253   6.134   2.984   2.379  0.3866 -0.6535  0.5273
  171SAPE    HX19254   6.073   3.075   2.400  2.7263  1.4810 -1.2543
  171SAPE    HY19255   6.205   3.009   2.297  1.1851  2.2072  1.9515
  171SAPE   O3119256   6.209   2.950   2.496 -0.2894 -0.1101 -0.2593
  171SAPE   C3119257   6.335   2.919   2.482 -0.3503  0.1602 -0.2193
  171SAPE   O3219258   6.400   2.903   2.379 -0.1751 -0.0926  0.0166
  171SAPE   C3219259   6.398   2.903   2.618 -0.3952 -0.4567 -0.5402
  171SAPE   H2X19260   6.507   2.889   2.602 -0.3843 -0.8332 -0.1665
  171SAPE   H2Y19261   6.372   2.804   2.660  0.7376 -0.8569 -0.7410
  171SAPE   C2319262   5.636   3.041   2.350 -0.0462  0.6769  0.0982
  171SAPE   H3R19263   5.606   2.973   2.433 -1.0571 -0.5697 -1.2308
  171SAPE   H3S19264   5.548   3.087   2.302 -1.7572 -1.1285  1.3138
  171SAPE   C2419265   5.722   3.158   2.402 -0.1064 -0.2118 -0.2787
  171SAPE   H4R19266   5.649   3.239   2.426 -1.5435 -1.2729 -0.9248
  171SAPE   H4S19267   5.796   3.183   2.323 -1.2416 -0.1940 -1.3623
  171SAPE   C2519268   5.794   3.117   2.529 -0.0762  0.4726 -0.4320
  171SAPE   H5R19269   5.902   3.100   2.519 -0.1374 -0.5858  0.5471
  171SAPE   C2619270   5.749   3.108   2.656 -0.9628 -0.6604  0.0757
  171SAPE   H6R19271   5.825   3.079   2.730  0.4903  1.5558 -0.4581
  171SAPE   C2719272   5.611   3.141   2.708 -0.6802  0.7255 -0.1570
  171SAPE   H7R19273   5.535   3.102   2.637  1.4518 -2.4595 -0.8838
  171SAPE   H7S19274   5.600   3.251   2.721 -1.1041  0.5345  1.3294
  171SAPE   C2819275   5.566   3.061   2.828  0.0316  0.5478 -0.3355
  171SAPE   H8R19276   5.536   2.959   2.801  0.0344  0.7509 -1.1369
  171SAPE   C2919277   5.580   3.085   2.960  0.1369  0.2307 -0.1040
  171SAPE   H9R19278   5.546   3.010   3.033 -2.6585  2.4762  1.0923
  171SAPE  C21019279   5.636   3.216   3.017  0.2597  0.7916 -0.1435
  171SAPE  H10R19280   5.700   3.261   2.939 -0.2903 -0.3594 -1.2914
  171SAPE  H10S19281   5.698   3.203   3.109 -0.2700 -0.4647  0.0608
  171SAPE  C21119282   5.517   3.301   3.063 -0.3862 -0.1341  0.1851
  171SAPE  H11R19283   5.470   3.353   2.978  1.3466  1.4782  0.1629
  171SAPE  C21219284   5.467   3.320   3.186 -0.3033 -0.8285 -0.2739
  171SAPE  H12R19285   5.380   3.385   3.200 -1.7093 -2.9643  1.6459
  171SAPE  C21319286   5.519   3.256   3.317  0.3915  0.9475 -0.3064
  171SAPE  H13R19287   5.541   3.150   3.292  1.2353  1.7063 -3.1172
  171SAPE  H13S19288   5.436   3.259   3.390 -0.6916 -0.9543 -1.3674
  171SAPE  C21419289   5.628   3.336   3.389  0.1551 -0.1169  0.1550
  171SAPE  H14R19290   5.679   3.412   3.328 -2.0929  1.3812  0.0005
  171SAPE  C21519291   5.664   3.332   3.517  0.3972 -0.8043 -0.3848
  171SAPE  H15R19292   5.754   3.392   3.540  0.2950 -0.4323 -0.9396
  171SAPE  C21619293   5.597   3.237   3.618 -0.2866  0.6553 -0.4806
  171SAPE  H16R19294   5.667   3.170   3.671 -2.3044 -2.0244 -1.0087
  171SAPE  H16S19295   5.523   3.172   3.566  1.0975 -2.0563  0.7694
  171SAPE  C21719296   5.538   3.308   3.733 -0.3883  0.1391  0.9016
  171SAPE  H17R19297   5.455   3.362   3.682  1.4866  1.5242 -0.8438
  171SAPE  H17S19298   5.602   3.389   3.773  0.0871 -0.2911  1.0246
  171SAPE  C21819299   5.480   3.220   3.840  0.2366 -0.1186 -0.3695
  171SAPE  H18R19300   5.566   3.204   3.908 -0.0578  0.4262  0.1383
  171SAPE  H18S19301   5.439   3.125   3.798 -0.6405  0.9344 -2.0134
  171SAPE  C21919302   5.369   3.290   3.924  0.3396 -0.4981  0.3425
  171SAPE  H19R19303   5.388   3.399   3.926 -0.9472 -0.2301  2.8315
  171SAPE  H19S19304   5.378   3.262   4.031  0.8397  1.1451  0.7541
  171SAPE  C22019305   5.226   3.258   3.874 -1.2163  0.0853  0.0594
  171SAPE  H20R19306   5.209   3.282   3.767 -3.3302 -1.5493 -0.0391
  171SAPE  H20S19307   5.147   3.316   3.926 -0.1194  1.3573  0.3686
  171SAPE  H20T19308   5.205   3.150   3.888 -0.7014  0.1017  1.0936
  171SAPE   C3319309   6.363   3.017   2.720 -0.3146  0.1237 -0.1585
  171SAPE   H3X19310   6.253   3.021   2.707 -0.1452 -0.0874 -1.8627
  171SAPE   H3Y19311   6.399   3.114   2.679 -0.5093  0.9543  1.5532
  171SAPE   C3419312   6.424   2.992   2.857 -0.8140 -0.3068  0.6061
  171SAPE   H4X19313   6.535   3.000   2.848 -0.9631  3.9232  0.4140
  171SAPE   H4Y19314   6.407   2.886   2.886 -0.5407 -0.2424  1.0084
  171SAPE   C3519315   6.372   3.084   2.968 -0.7680 -0.2130  0.3937
  171SAPE   H5X19316   6.263   3.070   2.984 -0.9585 -1.3720 -1.5254
  171SAPE   H5Y19317   6.403   3.190   2.951  0.6739 -0.7961 -0.9084
  171SAPE   C3619318   6.434   3.046   3.106 -0.2014  0.5381 -0.7451
  171SAPE   H6X19319   6.543   3.029   3.112 -0.1369  1.2111  0.5140
  171SAPE   H6Y19320   6.381   2.949   3.118 -0.1623  0.2392 -2.6862
  171SAPE   C3719321   6.393   3.130   3.231 -0.2762  0.0490  0.4487
  171SAPE   H7X19322   6.282   3.123   3.230 -0.2610 -0.1191 -0.0516
  171SAPE   H7Y19323   6.416   3.236   3.207 -0.4531 -0.2619 -1.1625
  171SAPE   C3819324   6.456   3.080   3.366  1.0498  0.1343  0.1983
  171SAPE   H8X19325   6.566   3.097   3.363  1.0725 -0.1403 -0.5367
  171SAPE   H8Y19326   6.442   2.970   3.377  0.2045  0.1612 -0.4816
  171SAPE   C3919327   6.386   3.163   3.476  0.0616  0.2620 -0.3538
  171SAPE   H9X19328   6.276   3.150   3.470 -0.2523  0.8780  2.7148
  171SAPE   H9Y19329   6.408   3.267   3.443 -0.2768  0.5417  0.3024
  171SAPE  C31019330   6.433   3.133   3.611 -0.5124  0.5554  0.0172
  171SAPE  H10X19331   6.542   3.141   3.629 -0.6350  0.9533  0.6401
  171SAPE  H10Y19332   6.402   3.028   3.626  1.4867 -0.1697 -0.7069
  171SAPE  C31119333   6.350   3.214   3.711 -0.1835 -0.6181  0.3319
  171SAPE  H11X19334   6.241   3.203   3.693 -0.2503  0.7522 -0.2409
  171SAPE  H11Y19335   6.374   3.319   3.684 -1.2036 -0.1803  1.0865
  171SAPE  C31219336   6.399   3.171   3.853 -0.0966  0.2386 -0.0464
  171SAPE  H12X19337   6.504   3.202   3.873 -0.4422  2.4632 -1.2798
  171SAPE  H12Y19338   6.398   3.061   3.862  0.0523  0.1875 -0.5902
  171SAPE  C31319339   6.302   3.237   3.953  0.1078  0.2769 -0.7722
  171SAPE  H13X19340   6.295   3.188   4.053 -1.2582 -0.2182 -1.0915
  171SAPE  H13Y19341   6.198   3.231   3.916 -0.0561 -1.3409 -0.1406
  171SAPE  C31419342   6.339   3.385   3.995 -0.3297 -0.9336 -0.3378
  171SAPE  H14X19343   6.358   3.440   3.901  0.5325  0.0204  0.3756
  171SAPE  H14Y19344   6.429   3.386   4.060  0.1804 -1.9215 -0.9922
  171SAPE  C31519345   6.209   3.441   4.070  0.1802  0.9206 -0.0485
  171SAPE  H15X19346   6.120   3.380   4.045  1.1857 -1.4592  1.7350
  171SAPE  H15Y19347   6.179   3.540   4.030 -0.0797  1.0264  0.4031
  171SAPE  C31619348   6.218   3.443   4.224  0.3172 -0.0167 -0.0502
  171SAPE  H16X19349   6.245   3.341   4.256  1.0702  0.9260  2.5502
  171SAPE  H16Y19350   6.124   3.469   4.278 -0.5874 -0.6284 -1.2880
  171SAPE  C31719351   6.325   3.544   4.280 -0.1807 -0.3814 -0.3073
  171SAPE  H17X19352   6.424   3.522   4.234  0.3303 -1.1641  1.1112
  171SAPE  H17Y19353   6.339   3.538   4.390  3.3492 -0.1003 -0.6016
  171SAPE  C31819354   6.292   3.697   4.263 -0.1029  0.2215  0.2276
  171SAPE  H18X19355   6.201   3.725   4.320  0.1617  0.8458  0.3535
  171SAPE  H18Y19356   6.281   3.735   4.159  0.6434 -2.9716 -1.1155
  171SAPE  H18Z19357   6.379   3.753   4.303  0.7935 -0.6989 -0.3791
  172SAPE     N19358   0.888   4.867   2.726  0.2212 -0.0355 -0.4433
  172SAPE   HN119359   0.936   4.943   2.674  0.9686  1.7026  2.4908
  172SAPE   HN219360   0.867   4.904   2.821 -0.7037 -0.5186 -0.4510
  172SAPE   HN319361   0.946   4.781   2.724 -0.7160 -0.7109  0.2627
  172SAPE   C1219362   0.755   4.836   2.659  0.0251  0.2673 -0.7170
  172SAPE  H12A19363   0.708   4.753   2.715 -0.1196  0.3548 -0.7082
  172SAPE  H12B19364   0.776   4.808   2.553 -1.0206  1.1570 -1.1820
  172SAPE   C1119365   0.654   4.950   2.673  0.1311  0.0721  0.4235
  172SAPE  H11A19366   0.555   4.901   2.661  0.2264  0.0529 -0.3625
  172SAPE  H11B19367   0.664   5.025   2.591  1.8854  1.3879  1.7775
  172SAPE     P19368   0.521   5.096   2.834 -0.1259 -0.3261 -0.3405
  172SAPE   O1319369   0.553   5.239   2.831 -0.6892 -0.1989  0.0127
  172SAPE   O1419370   0.410   5.059   2.747 -0.0551  0.1610  0.1609
  172SAPE   O1219371   0.657   5.018   2.801  0.1780  0.0646 -0.4751
  172SAPE   O1119372   0.496   5.050   2.981  0.3218 -0.8111  0.0074
  172SAPE    C119373   0.362   5.062   3.040 -0.5982  0.4134  0.4813
  172SAPE    HA19374   0.285   5.095   2.967 -2.1363 -4.8076 -0.7406
  172SAPE    HB19375   0.319   4.963   3.066 -0.3789  0.1376 -0.1826
  172SAPE    C219376   0.359   5.151   3.167  0.7313  0.0782  0.0190
  172SAPE    HS19377   0.378   5.255   3.134 -1.1638  0.4235 -0.0843
  172SAPE   O2119378   0.450   5.103   3.260  0.2069  0.2582 -0.3069
  172SAPE   C2119379   0.552   5.181   3.289 -1.5298  0.8208  0.1608
  172SAPE   O2219380   0.571   5.294   3.253  0.1815  0.0714  1.0054
  172SAPE   C2219381   0.647   5.109   3.392  0.3132 -0.2051  0.9910
  172SAPE   H2R19382   0.623   5.001   3.392  3.0431 -0.9331  2.8811
  172SAPE   H2S19383   0.750   5.123   3.353 -0.4703 -1.0913 -1.5866
  172SAPE    C319384   0.221   5.171   3.234  0.4478 -0.1942  0.3115
  172SAPE    HX19385   0.197   5.075   3.285 -0.6414  1.4149  2.9951
  172SAPE    HY19386   0.146   5.196   3.156 -0.2096 -1.6316  0.4512
  172SAPE   O3119387   0.224   5.271   3.337 -0.8115 -0.2914  0.1738
  172SAPE   C3119388   0.241   5.393   3.291  0.1053  0.1851  0.0506
  172SAPE   O3219389   0.216   5.429   3.172  0.2103 -0.2507 -0.0400
  172SAPE   C3219390   0.285   5.485   3.404  0.3832  0.9127  0.3253
  172SAPE   H2X19391   0.395   5.480   3.417  0.3933 -1.4387 -0.2379
  172SAPE   H2Y19392   0.231   5.448   3.493  0.0869 -1.2825 -0.7140
  172SAPE   C2319393   0.630   5.160   3.537 -0.2248  0.0031  0.1501
  172SAPE   H3R19394   0.624   5.270   3.531  0.0163 -0.0118 -0.4235
  172SAPE   H3S19395   0.722   5.139   3.597 -0.2571 -2.3431 -0.4973
  172SAPE   C2419396   0.518   5.099   3.617 -0.8846 -0.4977  0.2449
  172SAPE   H4R19397   0.540   5.115   3.724 -1.1406 -0.6867  0.3281
  172SAPE   H4S19398   0.538   4.991   3.608 -1.0537 -0.3769 -2.4265
  172SAPE   C2519399   0.378   5.144   3.581 -0.9658 -0.1136 -0.2004
  172SAPE   H5R19400   0.341   5.096   3.489 -1.8035 -0.3821  0.2630
  172SAPE   C2619401   0.303   5.229   3.651  0.3655  0.6431  0.9115
  172SAPE   H6R19402   0.203   5.253   3.611  0.6034 -0.5939 -0.4996
  172SAPE   C2719403   0.342   5.307   3.776 -0.4607  0.1062  0.2724
  172SAPE   H7R19404   0.450   5.288   3.792 -0.5896 -0.9609 -0.0839
  172SAPE   H7S19405   0.279   5.274   3.861 -1.7267 -0.8557 -0.9940
  172SAPE   C2819406   0.333   5.462   3.779 -0.7119  0.2394  0.5104
  172SAPE   H8R19407   0.352   5.513   3.684 -0.9217 -2.5940 -1.1486
  172SAPE   C2919408   0.358   5.530   3.896  0.4584 -0.1467  0.2297
  172SAPE   H9R19409   0.350   5.639   3.889  1.4730 -0.1283 -0.8485
  172SAPE  C21019410   0.356   5.473   4.045 -0.0351 -0.3250 -0.0755
  172SAPE  H10R19411   0.429   5.533   4.103  0.9125 -1.8211  0.3266
  172SAPE  H10S19412   0.417   5.380   4.044 -1.8301 -1.5637  0.9875
  172SAPE  C21119413   0.220   5.453   4.104 -0.0089  0.4266 -0.3411
  172SAPE  H11R19414   0.139   5.523   4.079 -0.4764 -0.0689 -0.2405
  172SAPE  C21219415   0.190   5.375   4.209 -0.1888  0.5402 -0.6182
  172SAPE  H12R19416   0.089   5.386   4.251 -0.3095 -2.7950  0.2261
  172SAPE  C21319417   0.292   5.289   4.279 -0.2733 -0.1179  0.7101
  172SAPE  H13R19418   0.366   5.360   4.322  1.2048  0.2301 -2.1190
  172SAPE  H13S19419   0.347   5.231   4.202 -2.1609 -0.9907 -0.0386
  172SAPE  C21419420   0.239   5.192   4.380 -0.9501 -0.1150 -0.0227
  172SAPE  H14R19421   0.131   5.202   4.395 -0.7827  2.3683 -0.1041
  172SAPE  C21519422   0.314   5.098   4.448 -0.0921  0.0254  0.5949
  172SAPE  H15R19423   0.262   5.034   4.522  2.2305 -1.4983  1.0107
  172SAPE  C21619424   0.463   5.080   4.441 -0.2035 -0.4873 -0.3702
  172SAPE  H16R19425   0.497   5.132   4.350  0.3855 -1.3157 -0.6400
  172SAPE  H16S19426   0.480   4.972   4.418  1.0476 -0.5440  0.6764
  172SAPE  C21719427   0.551   5.131   4.562 -0.0330  0.0155  0.0593
  172SAPE  H17R19428   0.528   5.074   4.654  1.5141  0.8944  1.0296
  172SAPE  H17S19429   0.516   5.233   4.586 -1.6987 -1.2781  3.8156
  172SAPE  C21819430   0.704   5.109   4.531 -0.1753  0.6493 -0.0421
  172SAPE  H18R19431   0.747   5.189   4.468  0.5654 -0.7101 -1.3020
  172SAPE  H18S19432   0.714   5.008   4.488 -0.3816  0.4661  0.3314
  172SAPE  C21919433   0.781   5.105   4.667 -0.1688 -0.1337  0.5262
  172SAPE  H19R19434   0.723   5.063   4.752  0.7842 -1.1942  0.6828
  172SAPE  H19S19435   0.802   5.210   4.696  2.5210 -0.3076 -0.5064
  172SAPE  C22019436   0.910   5.014   4.658 -0.5288  0.4729  0.0596
  172SAPE  H20R19437   0.947   4.996   4.761 -1.6608  0.1707  0.4281
  172SAPE  H20S19438   0.983   5.061   4.589 -1.0037  1.6367  0.3221
  172SAPE  H20T19439   0.890   4.912   4.617  1.3128  0.6794 -1.4649
  172SAPE   C3319440   0.250   5.629   3.375 -0.4556 -0.0733  0.3884
  172SAPE   H3X19441   0.302   5.650   3.278  1.1794  0.8022  1.4108
  172SAPE   H3Y19442   0.308   5.681   3.454  0.6558 -0.8723  0.1317
  172SAPE   C3419443   0.106   5.671   3.388 -0.1302 -0.0975  0.1598
  172SAPE   H4X19444   0.051   5.645   3.295 -1.3350  0.4081  0.6949
  172SAPE   H4Y19445   0.111   5.782   3.389 -0.1269 -0.0671 -1.3670
  172SAPE   C3519446   0.037   5.631   3.516  0.1073  0.4662  0.0936
  172SAPE   H5X19447   0.035   5.523   3.541 -0.1310  0.3877 -0.2717
  172SAPE   H5Y19448  -0.071   5.653   3.506  0.1541  0.4362 -0.5097
  172SAPE   C3619449   0.090   5.711   3.634 -0.1101 -0.0993 -0.0986
  172SAPE   H6X19450   0.102   5.817   3.602 -1.9259  0.5664  1.2638
  172SAPE   H6Y19451   0.191   5.672   3.656  2.1371  3.1002 -3.4797
  172SAPE   C3719452  -0.005   5.709   3.755  0.1859  0.2310  0.2302
  172SAPE   H7X19453  -0.025   5.602   3.775  0.1817  0.4215  1.3097
  172SAPE   H7Y19454  -0.096   5.768   3.732  1.7771  2.7288 -0.1213
  172SAPE   C3819455   0.063   5.768   3.882 -0.1355  0.4187 -0.4173
  172SAPE   H8X19456   0.116   5.859   3.846  2.7347 -1.7984 -2.2367
  172SAPE   H8Y19457   0.144   5.697   3.910 -0.7042 -0.1943 -0.3047
  172SAPE   C3919458  -0.021   5.782   4.002  0.1083  0.1861 -0.5491
  172SAPE   H9X19459  -0.034   5.677   4.037 -0.9625 -0.4039 -2.5516
  172SAPE   H9Y19460  -0.120   5.823   3.973  0.3325  0.6056 -0.7240
  172SAPE  C31019461   0.041   5.848   4.129 -0.8488  0.0864 -0.1037
  172SAPE  H10X19462   0.063   5.956   4.109 -0.1678  0.3283  1.7458
  172SAPE  H10Y19463   0.136   5.795   4.150 -1.3423 -0.3051  1.2269
  172SAPE  C31119464  -0.053   5.828   4.253 -0.1523 -0.0791  0.1714
  172SAPE  H11X19465  -0.100   5.728   4.240  0.4698 -0.3745  0.1277
  172SAPE  H11Y19466  -0.135   5.900   4.234  0.8010  1.1942  0.7412
  172SAPE  C31219467   0.015   5.841   4.390 -0.4292  0.4917  0.0134
  172SAPE  H12X19468   0.083   5.929   4.395 -0.4942  0.4631  2.6808
  172SAPE  H12Y19469   0.070   5.748   4.417 -1.5597 -0.2245 -0.0963
  172SAPE  C31319470  -0.084   5.874   4.505 -0.2818 -1.0160 -0.0360
  172SAPE  H13X19471  -0.114   5.980   4.488  1.6230 -0.0723  2.0409
  172SAPE  H13Y19472  -0.027   5.854   4.598 -0.4819 -1.0792  0.0757
  172SAPE  C31419473  -0.206   5.792   4.513 -0.1182 -0.0803 -0.5492
  172SAPE  H14X19474  -0.176   5.685   4.515 -1.0451 -0.4413 -2.5869
  172SAPE  H14Y19475  -0.262   5.798   4.417  0.3416 -0.3595 -0.8375
  172SAPE  C31519476  -0.308   5.827   4.618  0.2046 -0.0120  1.3954
  172SAPE  H15X19477  -0.400   5.765   4.611 -0.1103  0.5625  0.2431
  172SAPE  H15Y19478  -0.331   5.934   4.600  0.0443 -0.2157  0.3458
  172SAPE  C31619479  -0.263   5.811   4.764 -0.5747 -0.1556 -0.1276
  172SAPE  H16X19480  -0.190   5.882   4.806  2.7642 -3.2864 -0.1313
  172SAPE  H16Y19481  -0.200   5.719   4.768 -0.0605 -0.0232 -2.9347
  172SAPE  C31719482  -0.387   5.796   4.857 -0.5409 -0.7695 -0.2620
  172SAPE  H17X19483  -0.477   5.767   4.799 -0.5671  1.9459 -1.7512
  172SAPE  H17Y19484  -0.411   5.896   4.898 -1.8209 -1.5756  1.0404
  172SAPE  C31819485  -0.365   5.697   4.972 -0.0874  0.4485 -0.0131
  172SAPE  H18X19486  -0.315   5.603   4.939  0.7920  0.8051  0.2927
  172SAPE  H18Y19487  -0.459   5.678   5.029 -1.3470  0.9198 -1.8135
  172SAPE  H18Z19488  -0.285   5.740   5.036  2.3232 -1.1535 -1.7740
  173SLPC     N19489   3.649   5.978   6.441  0.1947 -0.2131 -0.2999
  173SLPC   C1319490   3.679   6.123   6.404  0.1023 -0.0661  1.0083
  173SLPC  H13A19491   3.742   6.167   6.480  0.5129 -3.4218  2.8236
  173SLPC  H13B19492   3.743   6.125   6.317  2.1889 -0.0285  2.4570
  173SLPC  H13C19493   3.592   6.186   6.395  0.9868  1.7906  3.9300
  173SLPC   C1419494   3.574   5.914   6.327  0.6285  0.1313  0.7090
  173SLPC  H14A19495   3.547   5.811   6.342 -1.0399  0.4793  0.2876
  173SLPC  H14B19496   3.486   5.973   6.306  1.8071  1.2510 -1.5001
  173SLPC  H14C19497   3.642   5.915   6.243 -1.3994 -1.2796 -1.0528
  173SLPC   C1519498   3.567   5.981   6.568  0.0428  0.1848 -0.0831
  173SLPC  H15A19499   3.603   6.045   6.647  0.1251 -0.3063  0.2881
  173SLPC  H15B19500   3.469   6.012   6.538  0.0722 -0.3609 -0.7967
  173SLPC  H15C19501   3.564   5.883   6.615  0.6859 -0.1187 -0.6373
  173SLPC   C1219502   3.771   5.890   6.477  0.2126 -0.0100 -0.4006
  173SLPC  H12A19503   3.846   5.904   6.401 -0.2771 -3.3020 -1.6415
  173SLPC  H12B19504   3.739   5.787   6.481 -1.7869  0.5779  0.1246
  173SLPC   C1119505   3.858   5.935   6.599 -0.1539 -0.0286 -0.0691
  173SLPC  H11A19506   3.944   5.865   6.604  2.3518  2.8795  0.3943
  173SLPC  H11B19507   3.808   5.911   6.695  0.5509  0.8977  0.5515
  173SLPC     P19508   4.043   6.091   6.523  0.3794  0.0116 -0.5485
  173SLPC   O1319509   4.046   6.236   6.490  0.1528 -0.2036  0.0329
  173SLPC   O1419510   4.146   6.026   6.602 -0.4273 -0.5709 -0.1970
  173SLPC   O1219511   3.905   6.065   6.597  0.1732 -0.1202  0.2680
  173SLPC   O1119512   4.027   6.019   6.386  0.0612 -0.1477 -0.1588
  173SLPC    C119513   4.125   5.934   6.327 -0.4400 -0.5460 -0.2031
  173SLPC    HA19514   4.167   5.856   6.394 -2.0518 -1.3297 -0.0641
  173SLPC    HB19515   4.077   5.885   6.240 -3.2816  1.1114  0.2946
  173SLPC    C219516   4.239   6.016   6.259  0.8904 -0.3632 -0.6158
  173SLPC    HS19517   4.278   6.084   6.338 -0.4619 -1.9374  1.5145
  173SLPC   O2119518   4.168   6.092   6.153 -0.1967 -0.0702 -0.0256
  173SLPC   C2119519   4.247   6.175   6.089 -0.2743  0.4249 -0.7613
  173SLPC   O2219520   4.366   6.195   6.110 -0.3858  0.0789  0.1767
  173SLPC   C2219521   4.159   6.254   5.985 -1.1763  0.2380  0.4342
  173SLPC   H2R19522   4.073   6.188   5.961 -0.6506  0.4539 -2.5054
  173SLPC   H2S19523   4.122   6.342   6.041  0.7063  0.6506  1.1220
  173SLPC    C319524   4.355   5.921   6.211 -0.2239  0.0592 -0.4956
  173SLPC    HX19525   4.398   5.862   6.295 -0.6163 -0.5811 -0.7335
  173SLPC    HY19526   4.442   5.977   6.170  0.0219 -1.0747 -1.5893
  173SLPC   O3119527   4.316   5.814   6.115 -0.8093  0.0273 -0.5089
  173SLPC   C3119528   4.426   5.764   6.048  0.7060 -0.1350 -0.1746
  173SLPC   O3219529   4.542   5.779   6.074 -0.2784  0.1880  0.4212
  173SLPC   C3219530   4.378   5.696   5.923  0.0242 -0.4327 -0.8136
  173SLPC   H2X19531   4.288   5.633   5.943  0.5989 -1.6419 -1.8807
  173SLPC   H2Y19532   4.460   5.627   5.893  2.1175  0.8367  1.5930
  173SLPC   C2319533   4.250   6.288   5.861 -0.2012  0.4871  0.4521
  173SLPC   H3R19534   4.355   6.314   5.887  1.2576 -3.9626 -0.1058
  173SLPC   H3S19535   4.203   6.377   5.815  0.9731  0.9197  0.0583
  173SLPC   C2419536   4.245   6.176   5.752 -0.5631 -0.2542 -0.6132
  173SLPC   H4R19537   4.144   6.132   5.741 -0.3212 -0.6649 -1.3084
  173SLPC   H4S19538   4.300   6.084   5.784 -0.8342  0.0733  0.8740
  173SLPC   C2519539   4.284   6.214   5.607  0.3878  0.5566  0.1840
  173SLPC   H5R19540   4.284   6.122   5.544 -1.4797  0.6903 -0.0673
  173SLPC   H5S19541   4.394   6.222   5.592  0.9916 -2.7923  1.7601
  173SLPC   C2619542   4.192   6.313   5.539 -0.7085  0.1177 -0.6507
  173SLPC   H6R19543   4.154   6.385   5.614 -4.4814 -0.6729 -1.5917
  173SLPC   H6S19544   4.100   6.262   5.503 -0.5251 -0.2107 -0.6616
  173SLPC   C2719545   4.235   6.370   5.401 -0.2689 -0.0191 -0.8922
  173SLPC   H7R19546   4.334   6.421   5.395 -0.7170  1.0453  0.2033
  173SLPC   H7S19547   4.152   6.442   5.380 -0.1693  0.1153 -0.8273
  173SLPC   C2819548   4.223   6.264   5.289 -0.8464  0.3407 -0.0216
  173SLPC   H8R19549   4.198   6.335   5.207 -2.1179 -0.6766 -0.5609
  173SLPC   H8S19550   4.143   6.192   5.316 -0.6107  0.8419  2.1628
  173SLPC   C2919551   4.344   6.185   5.256 -0.0145  0.4875 -0.8562
  173SLPC   H9R19552   4.361   6.095   5.318 -1.3043  0.6462 -0.2596
  173SLPC  C21019553   4.432   6.211   5.158  0.8770  0.4321  0.3929
  173SLPC  H10R19554   4.525   6.152   5.161  0.2403 -0.6307 -0.2848
  173SLPC  C21119555   4.415   6.330   5.066 -0.2128 -0.1004  0.7555
  173SLPC  H11R19556   4.431   6.420   5.129  0.6783  0.6196 -0.4495
  173SLPC  H11S19557   4.312   6.347   5.026 -0.7726 -1.9904  1.2960
  173SLPC  C21219558   4.513   6.338   4.953 -0.4308 -0.9777  0.4314
  173SLPC  H12R19559   4.606   6.397   4.966 -0.6657 -0.0791 -1.4951
  173SLPC  C21319560   4.499   6.284   4.832  0.1464 -0.1104 -0.5236
  173SLPC  H13R19561   4.589   6.289   4.769  1.0919 -2.8912  0.4400
  173SLPC  C21419562   4.377   6.205   4.787 -0.5891 -0.2532 -0.3027
  173SLPC  H14R19563   4.295   6.200   4.863  0.6912  0.5457  1.1969
  173SLPC  H14S19564   4.424   6.107   4.763  3.0831  0.8570  1.6182
  173SLPC  C21519565   4.322   6.265   4.656  0.4917 -0.3927 -0.6300
  173SLPC  H15R19566   4.408   6.287   4.589  1.2968  0.3503  0.5868
  173SLPC  H15S19567   4.284   6.365   4.686  2.5792  0.4796 -0.6935
  173SLPC  C21619568   4.216   6.174   4.606  0.0340 -0.6381 -0.0644
  173SLPC  H16R19569   4.136   6.162   4.682  1.3929 -1.4956  1.2912
  173SLPC  H16S19570   4.254   6.072   4.585 -0.0822 -0.9458  1.1656
  173SLPC  C21719571   4.136   6.225   4.484 -0.1180  0.4894 -0.2150
  173SLPC  H17R19572   4.093   6.324   4.508 -0.0113  1.1732 -2.5523
  173SLPC  H17S19573   4.058   6.148   4.467 -0.0354 -0.1836  2.1377
  173SLPC  C21819574   4.217   6.263   4.349  0.0223 -0.4827  0.0628
  173SLPC  H18R19575   4.276   6.175   4.315  2.0518 -0.3819  2.9374
  173SLPC  H18S19576   4.291   6.343   4.368  1.7499 -2.1898  0.9039
  173SLPC  H18T19577   4.141   6.297   4.276 -2.8768 -1.6687  2.3060
  173SLPC   C3319578   4.375   5.794   5.806 -0.0066  0.2546  0.4133
  173SLPC   H3X19579   4.466   5.857   5.818  1.4644 -2.1981  3.8712
  173SLPC   H3Y19580   4.290   5.864   5.790 -0.4407 -0.7127 -1.8572
  173SLPC   C3419581   4.392   5.723   5.668  0.0757 -0.0923  0.1428
  173SLPC   H4X19582   4.298   5.669   5.647  0.0486  0.2583 -0.6592
  173SLPC   H4Y19583   4.480   5.655   5.674 -0.2328 -0.4122  1.2829
  173SLPC   C3519584   4.425   5.816   5.549  0.4802  0.2680  0.2893
  173SLPC   H5X19585   4.499   5.895   5.572  1.7655 -0.6296 -0.6368
  173SLPC   H5Y19586   4.331   5.869   5.521  1.0513 -0.4019 -3.3889
  173SLPC   C3619587   4.477   5.735   5.426 -0.1316 -0.5023 -0.3976
  173SLPC   H6X19588   4.398   5.660   5.401 -0.3818 -0.4547  0.2190
  173SLPC   H6Y19589   4.572   5.682   5.445 -0.3006 -0.1565  1.6125
  173SLPC   C3719590   4.494   5.823   5.303  0.2533  0.4820  0.5686
  173SLPC   H7X19591   4.564   5.902   5.338  1.2688  0.5378 -1.4179
  173SLPC   H7Y19592   4.396   5.865   5.274 -0.4495 -2.6877 -2.4660
  173SLPC   C3819593   4.554   5.756   5.173 -0.0263 -0.9167 -0.0577
  173SLPC   H8X19594   4.480   5.679   5.142  0.1754 -2.1801  2.3997
  173SLPC   H8Y19595   4.637   5.687   5.197 -0.7235 -2.2333 -1.2790
  173SLPC   C3919596   4.589   5.854   5.068 -0.5153  0.7676 -0.2594
  173SLPC   H9X19597   4.661   5.932   5.103 -0.3870  0.8376 -0.6767
  173SLPC   H9Y19598   4.493   5.907   5.050 -0.0092  1.4070 -1.2003
  173SLPC  C31019599   4.650   5.802   4.933  0.6276  0.2578 -0.2696
  173SLPC  H10X19600   4.582   5.725   4.890 -0.3753  0.7393  0.4157
  173SLPC  H10Y19601   4.742   5.753   4.972  0.8408  1.3469  0.6440
  173SLPC  C31119602   4.670   5.907   4.830  0.6652  0.2819  0.6531
  173SLPC  H11X19603   4.775   5.941   4.836  0.4473  0.7591  2.1691
  173SLPC  H11Y19604   4.605   5.995   4.849 -2.3349 -1.7739  0.7075
  173SLPC  C31219605   4.635   5.866   4.681 -0.0933  0.2749 -0.3181
  173SLPC  H12X19606   4.698   5.782   4.644  0.9886  0.7703  0.3661
  173SLPC  H12Y19607   4.672   5.940   4.607 -1.7554  1.1595 -0.3086
  173SLPC  C31319608   4.484   5.835   4.644 -0.0137 -0.0612 -0.0773
  173SLPC  H13X19609   4.447   5.928   4.594 -0.9055 -0.7284 -0.6924
  173SLPC  H13Y19610   4.439   5.804   4.740  1.3914  2.1860  1.4006
  173SLPC  C31419611   4.483   5.721   4.544  0.0165 -0.3683 -0.0823
  173SLPC  H14X19612   4.378   5.684   4.547 -0.0284 -0.3175 -0.9464
  173SLPC  H14Y19613   4.540   5.636   4.588 -0.9894 -0.2372  1.5815
  173SLPC  C31519614   4.516   5.773   4.405  0.7782 -0.1712  0.6132
  173SLPC  H15X19615   4.573   5.868   4.415  0.4925  0.2192 -1.1176
  173SLPC  H15Y19616   4.419   5.805   4.361 -0.2544 -0.2079  2.7764
  173SLPC  C31619617   4.600   5.681   4.323 -0.4576  0.2228  0.4313
  173SLPC  H16X19618   4.690   5.649   4.380 -0.7972 -1.8383 -0.1125
  173SLPC  H16Y19619   4.647   5.726   4.233  0.8943  0.6450  1.3160
  173SLPC  C31719620   4.526   5.548   4.292  0.4701 -0.0740  0.0643
  173SLPC  H17X19621   4.436   5.578   4.234 -0.0948 -0.4814  0.7089
  173SLPC  H17Y19622   4.497   5.509   4.392  3.7614 -2.6286  0.1942
  173SLPC  C31819623   4.612   5.439   4.227 -0.3736  0.2885 -0.0435
  173SLPC  H18X19624   4.552   5.372   4.162  0.4613  1.4458 -2.1035
  173SLPC  H18Y19625   4.670   5.383   4.304  0.9883  1.3234 -0.2781
  173SLPC  H18Z19626   4.690   5.484   4.162  0.4907  0.0837  0.8275
  174SLPC     N19627   2.840   1.449   6.519 -0.0443 -0.0005  0.5317
  174SLPC   C1319628   2.903   1.463   6.652  0.3074 -0.4833 -0.1754
  174SLPC  H13A19629   2.838   1.525   6.713  0.6921  1.5769 -1.7423
  174SLPC  H13B19630   2.919   1.366   6.695  1.5558 -1.0589 -1.8420
  174SLPC  H13C19631   2.998   1.514   6.652 -0.3340  0.7760 -1.3025
  174SLPC   C1419632   2.812   1.575   6.441  0.0949  0.2834  0.1182
  174SLPC  H14A19633   2.744   1.561   6.359 -0.8086  1.4418  0.6394
  174SLPC  H14B19634   2.750   1.637   6.505 -0.2253 -0.3742  0.4590
  174SLPC  H14C19635   2.897   1.629   6.402  0.4421 -0.6554 -0.4512
  174SLPC   C1519636   2.706   1.394   6.549  0.0618  0.1101  0.4664
  174SLPC  H15A19637   2.655   1.370   6.456  0.3686 -0.6214  0.4785
  174SLPC  H15B19638   2.709   1.302   6.605  0.3929 -0.1910 -0.0423
  174SLPC  H15C19639   2.653   1.465   6.610  0.8124  2.2355 -1.2195
  174SLPC   C1219640   2.918   1.358   6.427 -0.1753 -0.2747  0.3719
  174SLPC  H12A19641   2.862   1.325   6.341 -2.2373  0.9494  1.1517
  174SLPC  H12B19642   2.929   1.263   6.477 -2.9727 -0.6812  0.4118
  174SLPC   C1119643   3.053   1.413   6.378 -0.4543  0.2028 -0.5116
  174SLPC  H11A19644   3.026   1.487   6.299 -2.4546  0.4460  0.3522
  174SLPC  H11B19645   3.101   1.330   6.322 -0.3901 -1.6952  2.1864
  174SLPC     P19646   3.206   1.607   6.483 -0.2012 -0.1099 -0.5556
  174SLPC   O1319647   3.101   1.699   6.522 -0.1284  0.2782  0.4264
  174SLPC   O1419648   3.330   1.595   6.563 -0.0537  0.3383 -0.5905
  174SLPC   O1219649   3.145   1.464   6.476 -0.1303 -0.1843 -0.0214
  174SLPC   O1119650   3.246   1.644   6.337  0.1179  0.1246  0.2609
  174SLPC    C119651   3.337   1.559   6.262  0.9511  0.8534 -0.4357
  174SLPC    HA19652   3.346   1.455   6.300  2.1023  1.1859  0.2530
  174SLPC    HB19653   3.292   1.539   6.162 -3.8880  0.8559  1.4786
  174SLPC    C219654   3.471   1.631   6.248 -0.1524  0.6303 -0.5294
  174SLPC    HS19655   3.479   1.678   6.348 -1.7182 -1.2994  0.5833
  174SLPC   O2119656   3.448   1.730   6.152 -0.1696 -0.0198  0.2529
  174SLPC   C2119657   3.535   1.826   6.150  0.3331 -0.1835  0.1112
  174SLPC   O2219658   3.635   1.824   6.218 -0.1118 -0.0888  0.0926
  174SLPC   C2219659   3.510   1.921   6.033 -0.0920 -0.5178 -0.1215
  174SLPC   H2R19660   3.444   1.869   5.961 -0.8889  1.9813 -1.3131
  174SLPC   H2S19661   3.462   2.014   6.070 -0.7340 -0.2680 -1.5158
  174SLPC    C319662   3.586   1.534   6.216  0.3199  0.4015  0.7549
  174SLPC    HX19663   3.598   1.471   6.307 -0.4991  2.9225  2.7568
  174SLPC    HY19664   3.678   1.595   6.205  0.0404  0.7364  0.1920
  174SLPC   O3119665   3.558   1.460   6.097  0.0536  0.1713  0.2570
  174SLPC   C3119666   3.649   1.368   6.068 -0.3060  0.5764 -0.1603
  174SLPC   O3219667   3.750   1.348   6.138  0.0290 -0.0914 -0.5663
  174SLPC   C3219668   3.616   1.292   5.942 -0.3162 -0.7555 -0.0896
  174SLPC   H2X19669   3.602   1.191   5.987  0.9558 -0.9311 -0.0619
  174SLPC   H2Y19670   3.699   1.300   5.869 -1.7104  2.1665 -1.5283
  174SLPC   C2319671   3.643   1.952   5.967 -0.3957 -0.5368 -0.4754
  174SLPC   H3R19672   3.708   2.001   6.043 -1.0254 -0.9486  0.3422
  174SLPC   H3S19673   3.625   2.024   5.884 -0.1396 -2.1439 -1.9779
  174SLPC   C2419674   3.725   1.834   5.913 -0.1953  0.1788 -0.7078
  174SLPC   H4R19675   3.759   1.763   5.991 -0.2114 -0.6986 -1.4818
  174SLPC   H4S19676   3.817   1.882   5.872  0.4192  0.3945  0.8412
  174SLPC   C2519677   3.644   1.749   5.814 -0.4936  0.1761  0.1590
  174SLPC   H5R19678   3.582   1.817   5.751  0.8745  1.8481  0.5213
  174SLPC   H5S19679   3.571   1.686   5.868 -0.0858 -0.1183  0.3712
  174SLPC   C2619680   3.728   1.670   5.718 -0.5527 -0.2366 -0.2595
  174SLPC   H6R19681   3.779   1.587   5.772 -0.7368 -1.4420 -1.8788
  174SLPC   H6S19682   3.796   1.741   5.667 -1.8255  2.7106  1.8445
  174SLPC   C2719683   3.657   1.601   5.607  1.3859 -0.2788  0.4631
  174SLPC   H7R19684   3.606   1.674   5.540  2.1834  0.4051  0.5904
  174SLPC   H7S19685   3.572   1.543   5.649 -1.7623  1.8687 -2.4106
  174SLPC   C2819686   3.763   1.527   5.532 -0.0621 -0.3973 -1.0018
  174SLPC   H8R19687   3.822   1.462   5.600 -1.1307 -0.9094 -0.5428
  174SLPC   H8S19688   3.845   1.586   5.487 -0.6099 -0.4114 -2.0417
  174SLPC   C2919689   3.696   1.439   5.432  0.6678 -1.5619  0.3026
  174SLPC   H9R19690   3.678   1.334   5.462 -2.1203 -1.9680 -2.2691
  174SLPC  C21019691   3.681   1.468   5.298 -0.3253 -0.1078  0.5780
  174SLPC  H10R19692   3.628   1.398   5.231 -0.6142  1.2129 -0.6156
  174SLPC  C21119693   3.713   1.604   5.241  0.0289  0.5745  0.6472
  174SLPC  H11R19694   3.822   1.626   5.235  0.4429 -1.0449  1.5613
  174SLPC  H11S19695   3.665   1.679   5.309  0.8963  1.0456  0.7548
  174SLPC  C21219696   3.655   1.635   5.101  0.0449 -0.2310  0.2737
  174SLPC  H12R19697   3.583   1.565   5.058 -0.3564  0.3487  0.0012
  174SLPC  C21319698   3.698   1.739   5.026 -0.5818  0.3265  0.0305
  174SLPC  H13R19699   3.643   1.766   4.935  0.3308 -0.2563 -0.7092
  174SLPC  C21419700   3.805   1.832   5.070 -0.4772 -0.3882  0.2842
  174SLPC  H14R19701   3.905   1.815   5.025 -1.1008  0.4168 -1.4861
  174SLPC  H14S19702   3.825   1.834   5.180  3.8784 -0.0897 -0.3352
  174SLPC  C21519703   3.783   1.983   5.042  0.6836  0.2939  0.1243
  174SLPC  H15R19704   3.852   2.026   5.117  1.8025 -1.9899  0.4871
  174SLPC  H15S19705   3.684   2.009   5.085  0.6096  1.3275 -0.6230
  174SLPC  C21619706   3.809   2.045   4.907  0.2804  0.4552  0.5361
  174SLPC  H16R19707   3.844   1.959   4.847  0.2950 -0.8129  2.2998
  174SLPC  H16S19708   3.892   2.120   4.909  0.4946  0.3380 -1.6111
  174SLPC  C21719709   3.678   2.098   4.843 -0.5655 -0.5001  0.2327
  174SLPC  H17R19710   3.630   2.167   4.916 -2.9124 -0.5627 -1.1627
  174SLPC  H17S19711   3.614   2.009   4.821 -0.6822 -0.2233 -0.5791
  174SLPC  C21819712   3.701   2.175   4.713  0.7991 -0.4516  0.3461
  174SLPC  H18R19713   3.621   2.252   4.702  1.0363 -0.2343  0.1125
  174SLPC  H18S19714   3.720   2.111   4.624  2.7921  0.6189 -0.0606
  174SLPC  H18T19715   3.796   2.233   4.715  1.5791 -1.7157  1.7661
  174SLPC   C3319716   3.482   1.337   5.873 -0.6053 -0.4510  0.3538
  174SLPC   H3X19717   3.494   1.442   5.839 -0.1513 -0.2258  1.1882
  174SLPC   H3Y19718   3.401   1.336   5.948 -0.0976  0.0455  0.9145
  174SLPC   C3419719   3.453   1.251   5.745 -0.2883  0.5771 -0.0928
  174SLPC   H4X19720   3.469   1.143   5.762 -0.2380  0.5994  0.0063
  174SLPC   H4Y19721   3.520   1.263   5.658  0.8908 -2.4377  0.3089
  174SLPC   C3519722   3.308   1.272   5.701  1.0689  0.6534 -0.1774
  174SLPC   H5X19723   3.291   1.376   5.666  0.2749  0.2318 -1.0924
  174SLPC   H5Y19724   3.232   1.260   5.781 -0.0917 -2.1906 -1.5648
  174SLPC   C3619725   3.258   1.174   5.591  0.0626  0.4845  0.2071
  174SLPC   H6X19726   3.147   1.168   5.592  0.1127 -0.6081  0.8006
  174SLPC   H6Y19727   3.286   1.069   5.613 -0.9137  0.4489  1.3581
  174SLPC   C3719728   3.316   1.210   5.453 -0.2658 -0.2792 -0.1353
  174SLPC   H7X19729   3.426   1.203   5.461 -0.3093 -0.7286  0.0714
  174SLPC   H7Y19730   3.293   1.319   5.442  0.2546 -0.2030 -0.4979
  174SLPC   C3819731   3.257   1.128   5.337 -0.3087  0.2862  0.6723
  174SLPC   H8X19732   3.147   1.141   5.333 -0.3993 -0.7007 -0.8848
  174SLPC   H8Y19733   3.281   1.022   5.363  0.9611  0.1415 -0.9042
  174SLPC   C3919734   3.331   1.155   5.210  0.2262  0.9832  0.2089
  174SLPC   H9X19735   3.300   1.074   5.139  1.2031  0.2617  0.5803
  174SLPC   H9Y19736   3.439   1.140   5.229  0.4314  3.2457  1.0890
  174SLPC  C31019737   3.293   1.286   5.148  0.1064  0.5057 -0.8397
  174SLPC  H10X19738   3.304   1.370   5.221 -0.2005  1.9070 -2.3665
  174SLPC  H10Y19739   3.185   1.281   5.123 -0.4357 -1.6011  1.5025
  174SLPC  C31119740   3.374   1.319   5.025  0.3547  0.5248  0.1991
  174SLPC  H11X19741   3.364   1.236   4.953 -1.9461  1.3346 -0.5130
  174SLPC  H11Y19742   3.482   1.336   5.045  0.4364 -2.0429  2.4702
  174SLPC  C31219743   3.318   1.436   4.942  0.0818 -0.1854 -0.6342
  174SLPC  H12X19744   3.331   1.526   5.006  0.2766 -0.9326  0.4050
  174SLPC  H12Y19745   3.208   1.429   4.928 -0.1579 -0.5711  1.1445
  174SLPC  C31319746   3.395   1.456   4.813  0.0175  0.5166  0.5040
  174SLPC  H13X19747   3.490   1.399   4.822 -1.3183 -1.8402  0.5011
  174SLPC  H13Y19748   3.429   1.560   4.797  3.0346 -0.5684 -0.9512
  174SLPC  C31419749   3.322   1.406   4.692 -0.2825  0.6673  0.1657
  174SLPC  H14X19750   3.230   1.467   4.677 -0.8887  0.0913  1.3183
  174SLPC  H14Y19751   3.293   1.299   4.708  0.2997  0.5652  0.5695
  174SLPC  C31519752   3.419   1.398   4.576  0.3473  0.4865  0.1828
  174SLPC  H15X19753   3.509   1.333   4.585 -0.8007 -1.5035 -1.6498
  174SLPC  H15Y19754   3.458   1.497   4.542  0.8360  0.7108  1.3451
  174SLPC  C31619755   3.345   1.326   4.456  0.1014 -0.7917  0.3852
  174SLPC  H16X19756   3.349   1.217   4.476  0.9359 -0.7048  0.7491
  174SLPC  H16Y19757   3.412   1.334   4.367  0.1372  0.5646  0.5078
  174SLPC  C31719758   3.217   1.392   4.401 -0.3803 -0.6191  0.6691
  174SLPC  H17X19759   3.245   1.496   4.374  0.1581 -1.3718 -1.8552
  174SLPC  H17Y19760   3.141   1.406   4.481  0.5408  0.4513  1.4039
  174SLPC  C31819761   3.153   1.333   4.288  0.2461  0.3794 -0.2203
  174SLPC  H18X19762   3.120   1.229   4.311 -1.5479  0.6936 -1.1849
  174SLPC  H18Y19763   3.214   1.330   4.195  1.8458  3.1504  0.6046
  174SLPC  H18Z19764   3.059   1.382   4.256 -0.1781 -1.6856 -2.4615
  175SLPC     N19765   5.001   3.472   6.701  0.3021 -0.5986  0.1489
  175SLPC   C1319766   4.886   3.377   6.666 -0.0912  0.4362  0.2982
  175SLPC  H13A19767   4.797   3.432   6.639 -0.8983  0.1471  2.2585
  175SLPC  H13B19768   4.911   3.314   6.581  0.0379  4.2244 -2.7732
  175SLPC  H13C19769   4.853   3.313   6.746 -1.6665 -0.4470 -0.9818
  175SLPC   C1419770   5.118   3.392   6.739  0.3940  0.5251  0.7833
  175SLPC  H14A19771   5.153   3.341   6.650 -0.8813 -1.4484  1.3390
  175SLPC  H14B19772   5.202   3.452   6.768  1.0028 -0.8081  1.8865
  175SLPC  H14C19773   5.103   3.313   6.811 -1.2831 -1.9019 -1.9805
  175SLPC   C1519774   4.954   3.560   6.811  0.3191 -0.2077  0.1018
  175SLPC  H15A19775   5.010   3.652   6.818 -0.2189 -0.0098  3.5943
  175SLPC  H15B19776   4.851   3.589   6.797  0.3210  1.3047  2.6362
  175SLPC  H15C19777   4.962   3.508   6.906  1.4599  1.3263  0.8802
  175SLPC   C1219778   5.023   3.561   6.579 -0.5192  0.5083  0.8398
  175SLPC  H12A19779   5.092   3.639   6.608 -1.0334  0.6672  1.6826
  175SLPC  H12B19780   4.935   3.618   6.555  0.5549  2.4547  1.3632
  175SLPC   C1119781   5.078   3.502   6.447 -0.2368 -0.4601 -0.1643
  175SLPC  H11A19782   5.069   3.594   6.385 -0.0597 -0.3581 -0.0408
  175SLPC  H11B19783   5.009   3.425   6.406 -2.4019  1.9360 -1.2617
  175SLPC     P19784   5.321   3.483   6.350 -0.5994 -0.2602 -0.0142
  175SLPC   O1319785   5.357   3.624   6.338 -0.0400 -0.7244 -0.3593
  175SLPC   O1419786   5.428   3.380   6.373 -0.0840 -0.3079 -0.2904
  175SLPC   O1219787   5.209   3.453   6.463 -0.0672  0.4165  0.7515
  175SLPC   O1119788   5.239   3.435   6.221 -0.7701 -0.1533 -0.2200
  175SLPC    C119789   5.196   3.302   6.212  0.8306 -0.0062 -0.0652
  175SLPC    HA19790   5.276   3.226   6.202 -0.4399 -1.3152 -0.5589
  175SLPC    HB19791   5.133   3.272   6.298  0.7098  2.1064  0.6461
  175SLPC    C219792   5.102   3.279   6.091 -0.9769  0.1481 -0.0440
  175SLPC    HS19793   5.056   3.179   6.108 -2.5708  0.7670 -0.4526
  175SLPC   O2119794   5.187   3.271   5.971  0.4839  0.5551  0.8223
  175SLPC   C2119795   5.140   3.201   5.867  0.0088 -0.3625  0.0552
  175SLPC   O2219796   5.043   3.131   5.860  0.4257  0.1237 -0.0041
  175SLPC   C2219797   5.238   3.215   5.744 -0.2339 -0.0419 -0.4715
  175SLPC   H2R19798   5.255   3.324   5.729 -1.9411  0.5759  1.5273
  175SLPC   H2S19799   5.331   3.163   5.774  0.5431  1.9243  0.7372
  175SLPC    C319800   5.001   3.397   6.082  0.2225  0.0713  0.4185
  175SLPC    HX19801   5.057   3.488   6.053 -0.5284 -0.0217 -1.4210
  175SLPC    HY19802   4.961   3.428   6.181 -2.3562  2.0076 -1.0865
  175SLPC   O3119803   4.898   3.374   5.983 -0.3752  0.4232 -0.3771
  175SLPC   C3119804   4.812   3.282   6.015 -0.4061  0.5708 -0.0921
  175SLPC   O3219805   4.801   3.228   6.122 -0.2664  0.2676  0.0938
  175SLPC   C3219806   4.712   3.266   5.908  0.0531  0.4439  0.3495
  175SLPC   H2X19807   4.765   3.198   5.837  0.6923  1.5400 -0.2648
  175SLPC   H2Y19808   4.694   3.362   5.856 -1.3327  1.3523  2.3969
  175SLPC   C2319809   5.175   3.159   5.612 -0.1393 -0.1522  0.1219
  175SLPC   H3R19810   5.083   3.218   5.592  0.9718  1.3659 -0.7077
  175SLPC   H3S19811   5.147   3.054   5.636  3.1709 -1.3419 -0.6975
  175SLPC   C2419812   5.262   3.182   5.492  1.2109 -0.4327  0.0430
  175SLPC   H4R19813   5.346   3.111   5.477  1.2178 -0.3008 -0.5566
  175SLPC   H4S19814   5.297   3.287   5.500 -0.8696  0.2732  0.6980
  175SLPC   C2519815   5.192   3.173   5.358  0.7811 -0.1652 -0.3520
  175SLPC   H5R19816   5.113   3.250   5.346  0.1522 -1.0883 -2.5319
  175SLPC   H5S19817   5.139   3.076   5.352  0.0948  0.1268  0.6783
  175SLPC   C2619818   5.292   3.171   5.242  0.5297 -0.6821  0.3179
  175SLPC   H6R19819   5.343   3.072   5.237  1.1046 -0.3162 -2.0277
  175SLPC   H6S19820   5.373   3.245   5.258 -0.3928  0.5717 -0.6429
  175SLPC   C2719821   5.222   3.186   5.110 -0.0823  0.1537  1.0243
  175SLPC   H7R19822   5.155   3.275   5.115 -0.1299  0.1034  1.2745
  175SLPC   H7S19823   5.161   3.095   5.094  1.5244 -0.7496 -0.3201
  175SLPC   C2819824   5.307   3.213   4.987  0.4397 -1.1907 -0.1219
  175SLPC   H8R19825   5.367   3.297   5.029 -0.7630 -1.5998  2.6022
  175SLPC   H8S19826   5.232   3.248   4.913  0.4556 -0.3881  0.2338
  175SLPC   C2919827   5.398   3.100   4.950  0.1911 -0.5065 -0.1244
  175SLPC   H9R19828   5.482   3.069   5.014  2.1425  1.5075 -1.5545
  175SLPC  C21019829   5.368   3.030   4.838  1.1267  0.7737  0.6880
  175SLPC  H10R19830   5.422   2.939   4.807  3.1580  2.4165 -0.8679
  175SLPC  C21119831   5.238   3.050   4.754  0.0302  0.6011 -0.2062
  175SLPC  H11R19832   5.240   3.141   4.691 -0.7216  0.2539 -0.7502
  175SLPC  H11S19833   5.153   3.065   4.823 -2.0501 -1.1613 -2.2293
  175SLPC  C21219834   5.225   2.922   4.669 -0.4793 -0.1431  0.0591
  175SLPC  H12R19835   5.250   2.825   4.714  0.9569  0.6749  1.0805
  175SLPC  C21319836   5.197   2.928   4.534 -0.8477 -1.1010 -0.2979
  175SLPC  H13R19837   5.188   2.833   4.478 -1.1790 -0.2439 -1.7606
  175SLPC  C21419838   5.182   3.053   4.452 -0.5049 -1.0307  0.4088
  175SLPC  H14R19839   5.207   3.034   4.345  2.7573 -1.2687  1.1020
  175SLPC  H14S19840   5.243   3.137   4.491 -1.4030  0.0311 -0.3915
  175SLPC  C21519841   5.039   3.106   4.456  0.4951 -0.4024 -0.1198
  175SLPC  H15R19842   4.998   3.123   4.558  0.6562 -0.3546 -0.0612
  175SLPC  H15S19843   4.986   3.013   4.425 -0.0455 -2.0624  4.8847
  175SLPC  C21619844   5.011   3.219   4.358 -0.6354 -0.1777 -0.2845
  175SLPC  H16R19845   5.061   3.195   4.262  1.5343 -0.7568  0.9173
  175SLPC  H16S19846   5.060   3.311   4.397 -0.9088  0.0747 -0.5255
  175SLPC  C21719847   4.856   3.244   4.349 -1.2212 -0.2077 -0.1829
  175SLPC  H17R19848   4.807   3.147   4.322 -0.3403 -1.0051  1.0105
  175SLPC  H17S19849   4.841   3.310   4.261 -0.9371  0.8242  0.5271
  175SLPC  C21819850   4.786   3.314   4.463  0.6882 -0.2171 -0.5501
  175SLPC  H18R19851   4.802   3.254   4.555 -2.9113 -0.7958 -0.1376
  175SLPC  H18S19852   4.677   3.317   4.441  0.6788 -1.0146 -0.6207
  175SLPC  H18T19853   4.831   3.415   4.468 -0.1232  0.1648 -0.7596
  175SLPC   C3319854   4.581   3.193   5.942  0.3580 -0.6867  0.4590
  175SLPC   H3X19855   4.527   3.237   6.029 -1.5316 -2.6575  0.3774
  175SLPC   H3Y19856   4.605   3.089   5.972  1.6677 -1.2275 -2.1831
  175SLPC   C3419857   4.477   3.204   5.813 -0.3281 -0.0576 -0.2081
  175SLPC   H4X19858   4.485   3.310   5.779  1.8791  0.2386  1.0010
  175SLPC   H4Y19859   4.371   3.186   5.839 -0.4496  0.5463 -0.2682
  175SLPC   C3519860   4.515   3.127   5.688  0.2144 -0.2433 -0.1230
  175SLPC   H5X19861   4.419   3.087   5.649 -0.0117 -0.6409  0.8189
  175SLPC   H5Y19862   4.578   3.041   5.719 -0.3044  0.3314  2.7749
  175SLPC   C3619863   4.587   3.212   5.578 -0.5022 -0.1552 -0.1023
  175SLPC   H6X19864   4.687   3.248   5.609 -0.9007 -0.3940  1.5124
  175SLPC   H6Y19865   4.522   3.300   5.559  2.2794  2.1270  0.2625
  175SLPC   C3719866   4.591   3.127   5.447 -0.2698 -0.1704 -0.3001
  175SLPC   H7X19867   4.585   3.192   5.357  0.4914  0.1763 -0.1044
  175SLPC   H7Y19868   4.504   3.058   5.451 -1.6477  1.4132 -1.5574
  175SLPC   C3819869   4.719   3.040   5.434  0.5143 -0.2065 -0.3487
  175SLPC   H8X19870   4.715   2.971   5.521  4.3875 -1.0355 -0.6769
  175SLPC   H8Y19871   4.814   3.096   5.422  1.4737 -1.0676  2.5246
  175SLPC   C3919872   4.700   2.956   5.304 -0.4337  0.5237  0.9269
  175SLPC   H9X19873   4.595   2.926   5.281 -0.9978  0.4574  3.3694
  175SLPC   H9Y19874   4.754   2.859   5.303 -0.8522  0.2128 -2.2132
  175SLPC  C31019875   4.748   3.032   5.172 -0.4027 -0.1059  1.1581
  175SLPC  H10X19876   4.848   3.080   5.180 -0.0631 -0.9838  2.3574
  175SLPC  H10Y19877   4.681   3.118   5.150  0.7101  0.7209  0.9144
  175SLPC  C31119878   4.750   2.947   5.041 -0.2071 -0.1763  0.1242
  175SLPC  H11X19879   4.652   2.894   5.030 -0.9341  1.3651 -1.1284
  175SLPC  H11Y19880   4.821   2.862   5.052  0.4610  0.0806 -1.9062
  175SLPC  C31219881   4.791   3.027   4.921 -0.1133  0.1102  0.5999
  175SLPC  H12X19882   4.894   3.064   4.942 -0.1280  1.0830 -0.8426
  175SLPC  H12Y19883   4.722   3.112   4.902  1.1415  1.7384  2.8543
  175SLPC  C31319884   4.816   2.958   4.787  0.0834  0.5452 -0.4590
  175SLPC  H13X19885   4.917   2.912   4.781  0.3147  0.8575  0.7787
  175SLPC  H13Y19886   4.822   3.039   4.711 -0.2525  0.6019 -0.4267
  175SLPC  C31419887   4.704   2.867   4.745  0.0304  0.6228 -0.2587
  175SLPC  H14X19888   4.608   2.921   4.758 -0.7472 -0.0080 -2.7765
  175SLPC  H14Y19889   4.707   2.773   4.805  1.1818 -0.2549 -1.5976
  175SLPC  C31519890   4.708   2.841   4.592  0.1508  0.3081 -0.0615
  175SLPC  H15X19891   4.810   2.805   4.567  1.1975  1.4688  2.2710
  175SLPC  H15Y19892   4.699   2.938   4.538 -0.0088  0.0403 -0.5235
  175SLPC  C31619893   4.603   2.739   4.540  0.3178 -0.8824 -0.5605
  175SLPC  H16X19894   4.605   2.652   4.608  0.2243 -2.0469 -1.9944
  175SLPC  H16Y19895   4.620   2.706   4.435 -1.1170  0.8946 -1.4107
  175SLPC  C31719896   4.461   2.813   4.532 -0.1857 -1.4016 -1.0522
  175SLPC  H17X19897   4.485   2.904   4.472  0.0708 -0.3685  0.5481
  175SLPC  H17Y19898   4.439   2.852   4.633 -0.4647 -1.3860 -1.1169
  175SLPC  C31819899   4.355   2.728   4.484 -0.1724  0.4006  0.1184
  175SLPC  H18X19900   4.323   2.653   4.559  1.8204 -0.6066  0.0418
  175SLPC  H18Y19901   4.384   2.671   4.393  2.0749 -0.9603  1.5911
  175SLPC  H18Z19902   4.260   2.779   4.457 -0.5891 -0.1635  0.5120
  176SLPC     N19903   5.384   2.221   6.571 -0.0411 -0.4110 -0.3012
  176SLPC   C1319904   5.390   2.160   6.434 -0.6228 -0.8010  0.6743
  176SLPC  H13A19905   5.487   2.120   6.411 -0.9932 -0.0875 -2.6696
  176SLPC  H13B19906   5.327   2.072   6.433 -0.6841 -0.8140  2.1994
  176SLPC  H13C19907   5.359   2.227   6.356 -0.9230  0.3765  1.7783
  176SLPC   C1419908   5.443   2.359   6.571  0.2421 -0.6586 -0.8828
  176SLPC  H14A19909   5.549   2.358   6.549  0.3687  1.5611 -0.5370
  176SLPC  H14B19910   5.384   2.416   6.502 -1.9975 -0.3171  1.1852
  176SLPC  H14C19911   5.431   2.418   6.661 -1.3070  2.5585 -3.0387
  176SLPC   C1519912   5.465   2.135   6.655 -0.5236 -0.2489 -0.7559
  176SLPC  H15A19913   5.425   2.035   6.645 -5.0832  1.1949  0.6923
  176SLPC  H15B19914   5.572   2.144   6.645 -0.2023 -0.5979  1.6677
  176SLPC  H15C19915   5.443   2.169   6.755  1.4280 -1.0040 -0.0168
  176SLPC   C1219916   5.248   2.236   6.630  0.5255  0.1669  0.5197
  176SLPC  H12A19917   5.205   2.326   6.590  1.2482 -0.0880 -0.8761
  176SLPC  H12B19918   5.255   2.249   6.737 -5.3336 -3.1982  1.7678
  176SLPC   C1119919   5.143   2.120   6.621  0.5689  0.0419  0.2097
  176SLPC  H11A19920   5.109   2.122   6.515 -0.3149 -1.5046  0.4363
  176SLPC  H11B19921   5.067   2.137   6.699  1.7161 -2.9127  2.1853
  176SLPC     P19922   5.146   1.851   6.623 -0.0555 -0.1841 -0.1310
  176SLPC   O1319923   5.261   1.763   6.588  0.0603  0.5381  0.4826
  176SLPC   O1419924   5.048   1.799   6.720 -0.4494 -0.0866 -0.1918
  176SLPC   O1219925   5.200   1.996   6.662  0.1628  0.0532 -0.7226
  176SLPC   O1119926   5.069   1.880   6.489  0.6361  0.4818 -0.0754
  176SLPC    C119927   4.979   1.786   6.425  0.1821  0.3285 -0.5768
  176SLPC    HA19928   5.030   1.689   6.410 -0.1389  0.3415 -1.8022
  176SLPC    HB19929   4.883   1.768   6.479 -1.3385  3.1943 -2.0899
  176SLPC    C219930   4.928   1.840   6.285 -0.2431 -0.1561 -0.0700
  176SLPC    HS19931   4.873   1.762   6.228  0.4422 -1.2012  0.6541
  176SLPC   O2119932   5.037   1.884   6.204 -0.5818  0.0472  0.2929
  176SLPC   C2119933   5.115   1.793   6.162 -0.0063  0.8766 -0.8401
  176SLPC   O2219934   5.106   1.669   6.176  0.2329 -0.3566 -0.5789
  176SLPC   C2219935   5.234   1.860   6.090  0.3488  0.6722 -0.4071
  176SLPC   H2R19936   5.291   1.921   6.163  1.6482 -0.6674 -0.2541
  176SLPC   H2S19937   5.295   1.776   6.051 -1.8375 -1.1226 -0.1506
  176SLPC    C319938   4.823   1.955   6.293 -0.3818 -0.4135 -0.3203
  176SLPC    HX19939   4.886   2.044   6.313 -1.9156  0.2897  1.8337
  176SLPC    HY19940   4.747   1.943   6.373 -1.0975 -0.3844 -0.9789
  176SLPC   O3119941   4.766   1.979   6.164 -0.0748  0.0024  0.1006
  176SLPC   C3119942   4.700   2.088   6.158  0.0155  0.0364  0.1156
  176SLPC   O3219943   4.681   2.158   6.254 -0.1057 -0.3019  0.0296
  176SLPC   C3219944   4.636   2.103   6.016  0.2179 -0.2122  0.3369
  176SLPC   H2X19945   4.530   2.112   6.047 -0.5151  2.5379 -2.5188
  176SLPC   H2Y19946   4.657   2.009   5.960 -0.3440  0.5082 -1.1215
  176SLPC   C2319947   5.181   1.943   5.971 -0.7948  0.5866  0.1324
  176SLPC   H3R19948   5.151   2.043   6.009  0.9173  2.2693 -2.6314
  176SLPC   H3S19949   5.090   1.906   5.919 -0.8779  0.7678  0.1490
  176SLPC   C2419950   5.288   1.983   5.862 -0.2605  0.1098  0.1333
  176SLPC   H4R19951   5.335   1.888   5.830  0.5638  0.0495  1.4212
  176SLPC   H4S19952   5.376   2.034   5.909 -1.3301  0.3398  1.9651
  176SLPC   C2519953   5.217   2.060   5.751  0.3377 -0.0535  0.3426
  176SLPC   H5R19954   5.187   2.144   5.817  0.4735  0.1869  0.0993
  176SLPC   H5S19955   5.137   1.991   5.717  0.1757  0.2660  0.0676
  176SLPC   C2619956   5.313   2.101   5.636  0.1929 -0.3866 -1.2940
  176SLPC   H6R19957   5.369   2.015   5.594 -0.3117 -0.3416 -2.0846
  176SLPC   H6S19958   5.390   2.177   5.664  1.3356 -2.1040  0.4910
  176SLPC   C2719959   5.237   2.142   5.514  0.0660  0.1406 -0.1793
  176SLPC   H7R19960   5.192   2.242   5.528 -0.2975 -0.0201 -0.1826
  176SLPC   H7S19961   5.153   2.070   5.505  0.4966 -0.4790  0.6364
  176SLPC   C2819962   5.315   2.130   5.383 -0.2453 -0.8658  0.2467
  176SLPC   H8R19963   5.328   2.024   5.350  1.0092 -0.8550  0.6613
  176SLPC   H8S19964   5.418   2.170   5.392 -0.6045  0.2105 -0.2705
  176SLPC   C2919965   5.245   2.196   5.265 -0.7137 -0.8120  0.9305
  176SLPC   H9R19966   5.138   2.170   5.261 -1.4478  1.8903  0.9931
  176SLPC  C21019967   5.292   2.287   5.175 -0.6323 -0.4530 -1.2994
  176SLPC  H10R19968   5.229   2.316   5.090 -0.8354  0.0198 -0.9909
  176SLPC  C21119969   5.436   2.348   5.180 -0.3087  1.2423  1.1225
  176SLPC  H11R19970   5.490   2.293   5.101  0.4311  1.0838  1.7256
  176SLPC  H11S19971   5.491   2.326   5.274  0.9849  0.9299  0.3213
  176SLPC  C21219972   5.446   2.498   5.142 -0.0560  0.4442 -0.4853
  176SLPC  H12R19973   5.439   2.567   5.227  0.8819 -0.3492  0.2465
  176SLPC  C21319974   5.466   2.544   5.015  0.6229 -0.1827 -0.1343
  176SLPC  H13R19975   5.460   2.651   4.993  1.5989  0.1578  1.1247
  176SLPC  C21419976   5.480   2.463   4.885  0.6044 -0.1850 -0.6167
  176SLPC  H14R19977   5.404   2.487   4.807 -0.4731  0.0312  0.4657
  176SLPC  H14S19978   5.465   2.355   4.909 -3.2146  0.8102  2.6176
  176SLPC  C21519979   5.628   2.478   4.826  0.9516 -0.0366 -0.1737
  176SLPC  H15R19980   5.642   2.586   4.803 -0.2728  0.1311 -0.2271
  176SLPC  H15S19981   5.626   2.411   4.738 -0.2388 -1.3278  0.7787
  176SLPC  C21619982   5.736   2.439   4.923  0.0974 -0.6250  0.4016
  176SLPC  H16R19983   5.718   2.335   4.957 -1.7385 -0.2701  0.6223
  176SLPC  H16S19984   5.729   2.494   5.019 -0.0214 -1.3609  0.8245
  176SLPC  C21719985   5.869   2.464   4.855  0.4403 -0.1814 -0.2725
  176SLPC  H17R19986   5.952   2.453   4.929  1.0604  0.3175 -0.8838
  176SLPC  H17S19987   5.874   2.572   4.830  1.2017 -0.0896  0.2386
  176SLPC  C21819988   5.909   2.373   4.736  0.6647 -0.4655 -1.1405
  176SLPC  H18R19989   6.018   2.381   4.713  0.3374  1.7116 -2.1602
  176SLPC  H18S19990   5.861   2.387   4.637 -1.3377 -0.4347 -0.2028
  176SLPC  H18T19991   5.892   2.269   4.773 -1.5111 -0.6597 -2.5650
  176SLPC   C3319992   4.689   2.229   5.937  0.0727  0.2262 -0.1486
  176SLPC   H3X19993   4.673   2.318   6.002 -1.1229 -0.4311  0.4811
  176SLPC   H3Y19994   4.641   2.245   5.839  1.2505 -1.7238 -1.0915
  176SLPC   C3419995   4.840   2.219   5.909  0.0449 -0.2747 -0.0166
  176SLPC   H4X19996   4.865   2.124   5.858  0.3424 -0.7597  1.0107
  176SLPC   H4Y19997   4.891   2.221   6.008  0.6815 -0.1821 -0.3437
  176SLPC   C3519998   4.877   2.332   5.815 -0.5278  0.5093 -0.9911
  176SLPC   H5X19999   4.987   2.337   5.800 -0.6416  3.0418 -1.4402
  176SLPC   H5Y20000   4.850   2.433   5.852  0.1307  0.4867 -0.4181
  176SLPC   C3620001   4.828   2.303   5.669 -0.5530  0.0300 -0.8883
  176SLPC   H6X20002   4.717   2.308   5.659 -0.4398  1.0333 -1.7266
  176SLPC   H6Y20003   4.864   2.207   5.627  2.0369  1.1763 -1.4756
  176SLPC   C3720004   4.891   2.406   5.578 -0.8834  0.6766  0.7710
  176SLPC   H7X20005   5.002   2.396   5.585 -0.7992  2.4199  2.3824
  176SLPC   H7Y20006   4.870   2.506   5.620  0.3956  0.5157  1.8683
  176SLPC   C3820007   4.846   2.405   5.433  0.5040  0.4808 -0.3176
  176SLPC   H8X20008   4.911   2.478   5.381 -0.2813  0.7277 -0.9805
  176SLPC   H8Y20009   4.741   2.439   5.417  0.3336  0.5852  0.8907
  176SLPC   C3920010   4.872   2.269   5.365 -0.1413 -0.4445  0.3005
  176SLPC   H9X20011   4.823   2.189   5.425 -0.4087 -0.5889 -0.1109
  176SLPC   H9Y20012   4.982   2.256   5.374  0.3354 -0.6455 -3.9753
  176SLPC  C31020013   4.816   2.267   5.221  0.0886 -0.9636 -0.2183
  176SLPC  H10X20014   4.707   2.290   5.232  0.1567 -0.3183 -0.8294
  176SLPC  H10Y20015   4.831   2.167   5.175  1.2037 -0.5217 -0.8402
  176SLPC  C31120016   4.862   2.377   5.127  0.4188 -0.0655 -0.2705
  176SLPC  H11X20017   4.972   2.386   5.117  0.1534  1.6347 -2.6781
  176SLPC  H11Y20018   4.820   2.471   5.168  0.3097 -0.2454  0.0353
  176SLPC  C31220019   4.802   2.374   4.989  0.0100 -0.4292  0.1182
  176SLPC  H12X20020   4.692   2.364   4.989  0.0717 -1.3713  1.3223
  176SLPC  H12Y20021   4.830   2.288   4.924 -2.6079 -0.8542 -0.5423
  176SLPC  C31320022   4.816   2.517   4.929  0.2845  0.3434  0.0244
  176SLPC  H13X20023   4.776   2.586   5.006 -1.5847 -0.0209 -0.5783
  176SLPC  H13Y20024   4.753   2.532   4.838  1.5882  0.2861 -0.9203
  176SLPC  C31420025   4.954   2.560   4.874  0.4491  0.0750  0.3109
  176SLPC  H14X20026   5.035   2.524   4.941 -0.4290 -0.7485  0.9595
  176SLPC  H14Y20027   4.975   2.669   4.869  0.3323  0.0496 -0.9131
  176SLPC  C31520028   4.974   2.500   4.737  0.5856  0.2232 -0.2776
  176SLPC  H15X20029   4.898   2.548   4.672  0.3535 -0.1827 -0.3042
  176SLPC  H15Y20030   4.950   2.392   4.733  0.4483 -0.0362  3.7162
  176SLPC  C31620031   5.117   2.528   4.697  0.5981  0.7089 -0.3417
  176SLPC  H16X20032   5.195   2.472   4.751  0.0656 -0.7080 -0.9953
  176SLPC  H16Y20033   5.143   2.635   4.713 -0.1208  0.5645  2.2039
  176SLPC  C31720034   5.147   2.519   4.546 -0.8460  0.5079 -0.0127
  176SLPC  H17X20035   5.161   2.411   4.524 -0.0536  0.4413  0.8132
  176SLPC  H17Y20036   5.247   2.562   4.527  0.1364 -1.6317  0.0740
  176SLPC  C31820037   5.041   2.582   4.454  0.0528 -0.3330  1.1012
  176SLPC  H18X20038   4.985   2.665   4.502  1.0162  1.4721 -0.7234
  176SLPC  H18Y20039   4.966   2.520   4.402 -0.1308  0.6463  0.1565
  176SLPC  H18Z20040   5.091   2.625   4.364 -1.3168 -2.3137 -0.6913
  177SLPC     N20041   5.166   1.448   6.707  0.0989  0.2365  0.1160
  177SLPC   C1320042   5.024   1.461   6.744  0.0493  1.1665  0.2498
  177SLPC  H13A20043   4.997   1.411   6.836 -1.3897  1.6755  0.1336
  177SLPC  H13B20044   4.998   1.566   6.744 -1.0727  0.9342 -1.6319
  177SLPC  H13C20045   4.955   1.420   6.671 -1.4906  2.8894  0.6704
  177SLPC   C1420046   5.197   1.306   6.738 -0.5183  0.0417  0.0944
  177SLPC  H14A20047   5.138   1.237   6.680 -2.6198  1.4483  0.4563
  177SLPC  H14B20048   5.299   1.282   6.709 -0.2604 -0.0110  1.0133
  177SLPC  H14C20049   5.188   1.285   6.844 -0.0584 -0.2173  0.0873
  177SLPC   C1520050   5.248   1.524   6.804 -0.4402 -0.1173 -0.0791
  177SLPC  H15A20051   5.352   1.503   6.783 -0.6478 -0.3348 -0.9256
  177SLPC  H15B20052   5.227   1.629   6.794 -1.5222 -0.3159 -0.0951
  177SLPC  H15C20053   5.246   1.503   6.910  1.2478  1.2731  0.2612
  177SLPC   C1220054   5.201   1.486   6.563 -0.4211 -0.4932 -0.3548
  177SLPC  H12A20055   5.298   1.445   6.539 -0.6056 -0.9486 -0.3136
  177SLPC  H12B20056   5.208   1.594   6.561  3.3904 -0.6002 -1.8722
  177SLPC   C1120057   5.123   1.432   6.445 -0.1102 -0.0369 -0.7065
  177SLPC  H11A20058   5.148   1.487   6.352 -0.8504  0.3774 -0.6730
  177SLPC  H11B20059   5.017   1.453   6.471  0.5651  2.0700  0.5947
  177SLPC     P20060   5.273   1.235   6.358  0.0275  0.2159 -0.2825
  177SLPC   O1320061   5.395   1.305   6.400  0.0074  0.8891 -0.1962
  177SLPC   O1420062   5.262   1.090   6.369  0.0510 -0.1951 -0.3913
  177SLPC   O1220063   5.147   1.292   6.432 -0.2712  0.1973  0.3589
  177SLPC   O1120064   5.252   1.267   6.206  0.0362 -0.1708 -0.4533
  177SLPC    C120065   5.135   1.233   6.132 -0.0517 -0.3737 -0.4498
  177SLPC    HA20066   5.100   1.133   6.166  0.6279 -0.3613  0.3257
  177SLPC    HB20067   5.056   1.306   6.158  0.8396  0.6169 -0.4662
  177SLPC    C220068   5.165   1.230   5.981  0.4094  0.3151  0.7080
  177SLPC    HS20069   5.248   1.155   5.979 -0.0670 -0.2655  1.8238
  177SLPC   O2120070   5.206   1.357   5.938  0.4322 -0.2427 -0.0397
  177SLPC   C2120071   5.297   1.365   5.842 -0.2880 -0.1822 -0.1121
  177SLPC   O2220072   5.349   1.278   5.775  0.1831  0.6197 -0.0605
  177SLPC   C2220073   5.333   1.509   5.836 -0.5395  0.4404 -0.2142
  177SLPC   H2R20074   5.274   1.559   5.916 -4.4131 -3.3216 -0.3392
  177SLPC   H2S20075   5.441   1.522   5.857 -0.7994  0.8947  0.8836
  177SLPC    C320076   5.033   1.190   5.904  0.3366 -0.4020 -0.0448
  177SLPC    HX20077   4.955   1.260   5.940 -1.6477 -2.6641  0.3182
  177SLPC    HY20078   5.012   1.084   5.933  2.4881 -0.7950  0.2282
  177SLPC   O3120079   5.054   1.211   5.762 -0.5614 -0.2330  0.4179
  177SLPC   C3120080   5.115   1.115   5.692 -0.2982  0.1482 -0.1075
  177SLPC   O3220081   5.145   1.008   5.744 -0.1766 -0.5573  0.8731
  177SLPC   C3220082   5.132   1.146   5.545  0.2145 -0.7151 -0.7120
  177SLPC   H2X20083   5.217   1.086   5.506 -0.1390 -2.1284  0.6010
  177SLPC   H2Y20084   5.152   1.255   5.534 -0.5292 -0.7075 -2.1596
  177SLPC   C2320085   5.303   1.593   5.704  0.0888  0.1952  0.0081
  177SLPC   H3R20086   5.347   1.551   5.611  0.1341  0.6260 -0.1649
  177SLPC   H3S20087   5.355   1.688   5.727 -0.8685  0.5763  0.6512
  177SLPC   C2420088   5.152   1.616   5.685 -0.1898  0.6886  0.2549
  177SLPC   H4R20089   5.107   1.638   5.784  1.0950 -2.8366  1.7853
  177SLPC   H4S20090   5.108   1.521   5.649  0.1142  0.9033 -0.7014
  177SLPC   C2520091   5.135   1.727   5.579 -0.1720  0.0994  0.7658
  177SLPC   H5R20092   5.175   1.823   5.617 -1.6953  0.9802  0.2534
  177SLPC   H5S20093   5.025   1.739   5.565 -0.3648 -1.8345  0.2792
  177SLPC   C2620094   5.184   1.692   5.442  0.3588  0.7462  0.4526
  177SLPC   H6R20095   5.295   1.701   5.439  0.3647  0.5410  0.0666
  177SLPC   H6S20096   5.156   1.769   5.367  1.3221  1.4334  0.7747
  177SLPC   C2720097   5.147   1.555   5.387 -0.2447  0.2321  0.3226
  177SLPC   H7R20098   5.039   1.537   5.402 -0.2222  0.2970  0.5729
  177SLPC   H7S20099   5.209   1.484   5.447 -0.1756  0.8706  1.0185
  177SLPC   C2820100   5.197   1.525   5.243 -0.2253 -0.4932 -0.2428
  177SLPC   H8R20101   5.305   1.550   5.240  0.3811 -2.9408 -1.6584
  177SLPC   H8S20102   5.143   1.593   5.174  0.0868  0.4222  0.3942
  177SLPC   C2920103   5.175   1.383   5.195  0.2722  0.2045 -0.4651
  177SLPC   H9R20104   5.171   1.298   5.264 -1.1493 -2.3620 -3.4209
  177SLPC  C21020105   5.159   1.360   5.066  0.4788 -0.2403 -0.8933
  177SLPC  H10R20106   5.135   1.259   5.030  0.3637 -0.8133  0.7091
  177SLPC  C21120107   5.142   1.460   4.950  0.3561  0.9862 -0.3783
  177SLPC  H11R20108   5.098   1.559   4.974 -0.5610  1.1019 -2.3597
  177SLPC  H11S20109   5.064   1.415   4.885 -0.6963  1.5861  0.4376
  177SLPC  C21220110   5.275   1.483   4.867 -0.2786  0.8629 -0.1978
  177SLPC  H12R20111   5.361   1.423   4.899  0.2398  0.7053 -1.8004
  177SLPC  C21320112   5.296   1.557   4.759 -0.0071  0.2995  0.2530
  177SLPC  H13R20113   5.395   1.553   4.711 -1.1103 -0.4794 -2.1021
  177SLPC  C21420114   5.195   1.650   4.698  0.1359 -0.0348  0.5952
  177SLPC  H14R20115   5.238   1.751   4.715 -0.0136 -0.0694  1.1765
  177SLPC  H14S20116   5.093   1.641   4.741  0.2911 -0.2316  0.9261
  177SLPC  C21520117   5.186   1.621   4.545  0.3437 -0.1560  0.1995
  177SLPC  H15R20118   5.125   1.529   4.533  0.5622  0.0219 -3.5166
  177SLPC  H15S20119   5.287   1.616   4.498  0.0774 -1.9074 -0.2887
  177SLPC  C21620120   5.104   1.732   4.471  0.3494 -0.7456  0.9257
  177SLPC  H16R20121   5.174   1.818   4.469  0.0183 -0.4119 -2.3695
  177SLPC  H16S20122   5.009   1.747   4.526 -1.3645  1.3273 -2.3308
  177SLPC  C21720123   5.063   1.702   4.323  0.5845 -0.4077  1.0924
  177SLPC  H17R20124   4.979   1.629   4.326  0.1213  0.0094 -0.5500
  177SLPC  H17S20125   5.149   1.657   4.269 -0.0617  1.3582 -1.6144
  177SLPC  C21820126   5.018   1.831   4.256 -0.4177 -0.0038 -0.4384
  177SLPC  H18R20127   4.921   1.859   4.301 -0.1079 -0.6121  0.6482
  177SLPC  H18S20128   4.997   1.830   4.147  1.2690  0.9584 -0.8210
  177SLPC  H18T20129   5.087   1.917   4.270 -0.0766 -0.2162 -0.7701
  177SLPC   C3320130   5.003   1.129   5.464  0.5635  0.3077 -0.2165
  177SLPC   H3X20131   4.969   1.024   5.479 -0.4979  0.4626 -1.3567
  177SLPC   H3Y20132   5.032   1.135   5.358 -1.6518  0.3777 -0.8779
  177SLPC   C3420133   4.894   1.232   5.502  0.2002  0.2296 -0.5364
  177SLPC   H4X20134   4.930   1.337   5.492 -1.4841  1.0373  1.3510
  177SLPC   H4Y20135   4.861   1.227   5.608  0.5284 -1.1473 -0.4739
  177SLPC   C3520136   4.768   1.224   5.418  0.1819  0.5870 -0.0098
  177SLPC   H5X20137   4.692   1.288   5.467  1.4837  2.3819 -0.2042
  177SLPC   H5Y20138   4.728   1.120   5.418  0.2178  0.5739  0.3425
  177SLPC   C3620139   4.784   1.281   5.272 -0.4846  0.0068  0.3763
  177SLPC   H6X20140   4.869   1.232   5.219  1.8112  2.8186  1.1595
  177SLPC   H6Y20141   4.807   1.390   5.275  2.6582 -0.5761  1.2518
  177SLPC   C3720142   4.657   1.257   5.192 -0.1279  0.0805  0.8055
  177SLPC   H7X20143   4.578   1.299   5.258 -0.5340  0.2639  0.2118
  177SLPC   H7Y20144   4.617   1.153   5.183 -1.0335  0.5090 -0.4287
  177SLPC   C3820145   4.649   1.310   5.047  0.0215  0.5760  0.2384
  177SLPC   H8X20146   4.542   1.316   5.020 -1.1055  1.8630  4.2769
  177SLPC   H8Y20147   4.705   1.242   4.979 -1.7194 -1.1400  0.4589
  177SLPC   C3920148   4.683   1.463   5.030  0.1640  0.4271  0.5462
  177SLPC   H9X20149   4.777   1.479   5.087 -0.4195  0.2821  1.5591
  177SLPC   H9Y20150   4.602   1.530   5.065 -3.6269 -2.3731 -2.1116
  177SLPC  C31020151   4.722   1.498   4.888  0.3512  0.5409 -0.1646
  177SLPC  H10X20152   4.778   1.421   4.831  2.7267  2.2087 -0.2046
  177SLPC  H10Y20153   4.802   1.575   4.892 -0.8026  1.7851 -0.3254
  177SLPC  C31120154   4.597   1.542   4.806 -0.6701  0.4066  0.6622
  177SLPC  H11X20155   4.540   1.619   4.862 -0.0585  0.3350  1.4111
  177SLPC  H11Y20156   4.527   1.456   4.794  0.3824 -0.2357 -1.1376
  177SLPC  C31220157   4.635   1.604   4.678 -1.1757 -0.3492 -0.3696
  177SLPC  H12X20158   4.550   1.613   4.608 -0.3419  1.4939 -1.1965
  177SLPC  H12Y20159   4.700   1.532   4.623  2.1826  1.1519  1.2909
  177SLPC  C31320160   4.724   1.730   4.700 -0.7555  0.0757  0.2392
  177SLPC  H13X20161   4.832   1.705   4.712 -0.2244  0.3721 -2.8800
  177SLPC  H13Y20162   4.685   1.781   4.790  0.0962  3.7257 -1.2729
  177SLPC  C31420163   4.702   1.831   4.587 -0.5679 -0.0989 -0.2329
  177SLPC  H14X20164   4.592   1.824   4.571 -0.4733 -3.7248 -0.0280
  177SLPC  H14Y20165   4.756   1.821   4.490  1.2359  1.5965  0.5380
  177SLPC  C31520166   4.720   1.971   4.639 -0.9716  0.1263 -0.2018
  177SLPC  H15X20167   4.826   1.987   4.667 -0.7331  1.6325 -1.7262
  177SLPC  H15Y20168   4.648   1.991   4.721  0.9685 -1.4086  1.9868
  177SLPC  C31620169   4.696   2.082   4.534  0.1924  0.5600  0.1816
  177SLPC  H16X20170   4.593   2.078   4.493  0.0895 -4.1187  0.3689
  177SLPC  H16Y20171   4.759   2.058   4.446  0.1547 -1.1233  0.5663
  177SLPC  C31720172   4.730   2.216   4.596 -0.1536 -0.7574  0.3602
  177SLPC  H17X20173   4.837   2.242   4.600  0.0182 -0.5071 -2.7700
  177SLPC  H17Y20174   4.706   2.225   4.704  1.4369  1.9769  0.5694
  177SLPC  C31820175   4.655   2.332   4.523 -0.1111 -0.5100  0.1755
  177SLPC  H18X20176   4.700   2.426   4.564 -0.2052 -2.0327  4.2485
  177SLPC  H18Y20177   4.546   2.330   4.544 -0.3013  1.3743 -0.3762
  177SLPC  H18Z20178   4.673   2.324   4.414  0.7454 -0.8333  0.3388
  178SLPC     N20179   1.454   5.506   7.479 -0.2056  0.8123  0.1348
  178SLPC   C1320180   1.376   5.575   7.583  0.0334  0.6402  0.0304
  178SLPC  H13A20181   1.272   5.591   7.557  0.5918  2.2460 -1.3967
  178SLPC  H13B20182   1.375   5.516   7.674 -2.6366  2.1155  1.0904
  178SLPC  H13C20183   1.430   5.665   7.610  2.1288 -0.4495 -0.3643
  178SLPC   C1420184   1.363   5.392   7.433 -0.0301  0.6490  0.7409
  178SLPC  H14A20185   1.413   5.334   7.357 -0.8935  1.2103 -0.2925
  178SLPC  H14B20186   1.340   5.317   7.507  0.1447 -0.3138 -0.1594
  178SLPC  H14C20187   1.265   5.421   7.398  0.6558 -0.3247 -2.2747
  178SLPC   C1520188   1.584   5.458   7.533 -0.4838 -0.3266 -0.0604
  178SLPC  H15A20189   1.588   5.362   7.582  0.7455  0.7166  2.0544
  178SLPC  H15B20190   1.650   5.444   7.449  2.6272 -2.4472  2.4893
  178SLPC  H15C20191   1.635   5.522   7.604  1.8620 -1.2645 -0.8269
  178SLPC   C1220192   1.471   5.598   7.361  0.3127  0.7409  0.0321
  178SLPC  H12A20193   1.524   5.688   7.385 -0.2313  1.2104 -0.4708
  178SLPC  H12B20194   1.372   5.627   7.326  0.2687 -0.5841 -1.0477
  178SLPC   C1120195   1.539   5.519   7.245  0.0387 -0.2700  0.2811
  178SLPC  H11A20196   1.528   5.580   7.153  2.5782  0.6772  0.5411
  178SLPC  H11B20197   1.491   5.422   7.219 -0.1707  0.0349 -0.4798
  178SLPC     P20198   1.774   5.610   7.236  0.0493 -0.1848 -0.2006
  178SLPC   O1320199   1.721   5.739   7.284  0.4985 -0.0149  1.0681
  178SLPC   O1420200   1.911   5.577   7.287  0.4060 -0.0242 -0.3269
  178SLPC   O1220201   1.677   5.492   7.280 -0.6795  0.1084  0.5965
  178SLPC   O1120202   1.765   5.607   7.075  0.4911  0.2154  0.1359
  178SLPC    C120203   1.785   5.479   7.011 -0.7117  0.7606 -0.4807
  178SLPC    HA20204   1.869   5.424   7.059 -0.4277 -0.0859 -1.8979
  178SLPC    HB20205   1.695   5.413   7.004 -2.7151  3.4752 -5.6167
  178SLPC    C220206   1.824   5.503   6.864 -0.7880 -0.2390  0.4136
  178SLPC    HS20207   1.929   5.540   6.871 -0.9971  0.1634  1.6611
  178SLPC   O2120208   1.740   5.593   6.800  0.8061 -0.8095 -0.1430
  178SLPC   C2120209   1.787   5.672   6.705 -0.3674  0.3518  0.2875
  178SLPC   O2220210   1.905   5.692   6.680  0.1210  1.0717 -0.1594
  178SLPC   C2220211   1.680   5.750   6.623 -0.6381 -0.1902 -0.5777
  178SLPC   H2R20212   1.581   5.728   6.667 -0.0064 -0.5727  0.7118
  178SLPC   H2S20213   1.701   5.858   6.637 -1.3219 -0.3959  2.9962
  178SLPC    C320214   1.815   5.368   6.789 -0.2602 -0.1923  0.0521
  178SLPC    HX20215   1.709   5.334   6.785 -1.3834  3.0061 -1.3914
  178SLPC    HY20216   1.874   5.291   6.842  0.1568  2.1432  3.3223
  178SLPC   O3120217   1.858   5.388   6.648 -0.2232 -0.0238 -0.2371
  178SLPC   C3120218   1.861   5.266   6.584 -0.4742 -0.1792 -0.5083
  178SLPC   O3220219   1.821   5.164   6.630  0.0147 -0.1944 -0.1318
  178SLPC   C3220220   1.938   5.285   6.454 -0.8128 -0.3359 -0.1297
  178SLPC   H2X20221   2.047   5.263   6.466 -0.5934 -0.1605 -1.6694
  178SLPC   H2Y20222   1.916   5.389   6.422  1.2005 -0.6582 -2.9843
  178SLPC   C2320223   1.671   5.696   6.479 -0.1123  0.6427 -0.5196
  178SLPC   H3R20224   1.612   5.603   6.495  0.5165  0.5760  1.7896
  178SLPC   H3S20225   1.770   5.665   6.440 -1.7216 -2.0596 -2.8331
  178SLPC   C2420226   1.614   5.792   6.383  0.5209  0.9927 -0.8655
  178SLPC   H4R20227   1.686   5.871   6.352  2.7110 -0.4290  0.2947
  178SLPC   H4S20228   1.527   5.841   6.429 -1.0306 -0.3995 -2.1706
  178SLPC   C2520229   1.577   5.726   6.255  0.3170  0.1638  1.1645
  178SLPC   H5R20230   1.531   5.809   6.197  0.0063 -1.3794 -0.9113
  178SLPC   H5S20231   1.498   5.651   6.275  2.3953 -1.9890  1.7851
  178SLPC   C2620232   1.685   5.651   6.170 -0.3980  0.2776 -0.7760
  178SLPC   H6R20233   1.723   5.565   6.229 -0.6259 -0.7241 -2.0339
  178SLPC   H6S20234   1.766   5.722   6.142 -0.1861  0.1910 -0.3861
  178SLPC   C2720235   1.635   5.587   6.040 -0.4123 -0.4881 -0.3620
  178SLPC   H7R20236   1.537   5.558   6.082  0.5454 -0.4762  2.0324
  178SLPC   H7S20237   1.692   5.496   6.012  1.0587  0.3328 -0.1558
  178SLPC   C2820238   1.617   5.678   5.913  0.2136 -0.0139 -0.3330
  178SLPC   H8R20239   1.556   5.760   5.956 -3.4883 -2.3728 -0.6912
  178SLPC   H8S20240   1.554   5.617   5.846 -0.9728 -0.7249  1.3624
  178SLPC   C2920241   1.746   5.743   5.868 -0.4472  0.0620  0.6180
  178SLPC   H9R20242   1.772   5.837   5.919  1.4052  0.1759 -0.4445
  178SLPC  C21020243   1.827   5.684   5.777 -0.6507 -0.0951 -0.0602
  178SLPC  H10R20244   1.912   5.748   5.748 -0.2690  0.3492  1.8838
  178SLPC  C21120245   1.799   5.556   5.709  0.4710  0.8372 -0.2369
  178SLPC  H11R20246   1.697   5.562   5.665 -0.2879  1.4417  1.4931
  178SLPC  H11S20247   1.796   5.474   5.784  1.1198 -1.3377 -2.4803
  178SLPC  C21220248   1.901   5.520   5.604 -1.1458 -0.0017  0.9191
  178SLPC  H12R20249   1.994   5.468   5.629 -0.7689 -0.5237 -1.4041
  178SLPC  C21320250   1.899   5.534   5.469 -0.3121  0.6682  0.3148
  178SLPC  H13R20251   1.983   5.490   5.413  0.2042 -0.8888  2.2266
  178SLPC  C21420252   1.791   5.604   5.393  0.6060 -1.5460 -0.1779
  178SLPC  H14R20253   1.829   5.655   5.302 -1.7000  0.0405 -0.3509
  178SLPC  H14S20254   1.756   5.692   5.451 -0.7687 -1.1809 -1.4870
  178SLPC  C21520255   1.676   5.505   5.362  0.2680  0.1853  0.3048
  178SLPC  H15R20256   1.636   5.448   5.448 -0.1718 -1.0146 -0.6602
  178SLPC  H15S20257   1.722   5.430   5.295  0.4991 -1.4211  2.1945
  178SLPC  C21620258   1.557   5.577   5.299 -0.2679 -0.8255 -0.5626
  178SLPC  H16R20259   1.481   5.498   5.279  0.6681 -1.7019 -0.7142
  178SLPC  H16S20260   1.582   5.614   5.197  0.5187 -1.1619 -0.4989
  178SLPC  C21720261   1.490   5.677   5.397  0.2309  0.1687  0.7040
  178SLPC  H17R20262   1.558   5.762   5.418 -0.1857  0.8448 -0.5844
  178SLPC  H17S20263   1.455   5.630   5.491 -0.7921 -0.7630 -0.1179
  178SLPC  C21820264   1.368   5.748   5.330  0.3043 -0.0694 -0.6905
  178SLPC  H18R20265   1.405   5.816   5.250  1.1175  0.9877  0.5569
  178SLPC  H18S20266   1.309   5.800   5.408 -0.2072  0.5683 -1.4784
  178SLPC  H18T20267   1.302   5.671   5.285  0.9176  0.5490 -2.7615
  178SLPC   C3320268   1.878   5.183   6.354  0.2187  0.1122 -0.6743
  178SLPC   H3X20269   1.767   5.192   6.344  0.3033  1.5148 -0.6417
  178SLPC   H3Y20270   1.905   5.082   6.390 -2.5767 -1.1908 -1.9522
  178SLPC   C3420271   1.937   5.212   6.216  0.0136  0.2622  0.4597
  178SLPC   H4X20272   2.042   5.176   6.214 -0.8838 -2.5667 -0.5457
  178SLPC   H4Y20273   1.946   5.318   6.184  1.3713 -0.9060 -3.5864
  178SLPC   C3520274   1.867   5.134   6.099 -0.6351 -0.1111 -0.6689
  178SLPC   H5X20275   1.758   5.156   6.107 -0.8755 -0.0990 -3.1818
  178SLPC   H5Y20276   1.875   5.026   6.122 -2.5767  0.1974  1.9214
  178SLPC   C3620277   1.921   5.169   5.960 -0.0818  0.0388 -0.3777
  178SLPC   H6X20278   2.029   5.143   5.952  0.1617  1.2232 -1.1638
  178SLPC   H6Y20279   1.902   5.274   5.929  0.5391 -0.1045 -1.3047
  178SLPC   C3720280   1.854   5.080   5.848  0.2417  0.5388  0.1625
  178SLPC   H7X20281   1.745   5.072   5.867  0.1938  2.1615  0.7251
  178SLPC   H7Y20282   1.899   4.979   5.861  0.1953  0.1872 -2.0329
  178SLPC   C3820283   1.862   5.137   5.705  0.0510  0.0904 -0.1060
  178SLPC   H8X20284   1.966   5.172   5.694  0.1586 -0.4815 -1.0091
  178SLPC   H8Y20285   1.799   5.226   5.687 -0.0347  0.0210 -0.1528
  178SLPC   C3920286   1.828   5.040   5.597  0.5279  0.5032 -0.3233
  178SLPC   H9X20287   1.740   4.976   5.617  2.6623 -2.6143 -0.2259
  178SLPC   H9Y20288   1.915   4.973   5.582 -0.6281 -0.4870 -3.6227
  178SLPC  C31020289   1.805   5.116   5.462 -0.0826 -0.4378 -0.1570
  178SLPC  H10X20290   1.903   5.162   5.437 -0.4909  0.1803 -0.6414
  178SLPC  H10Y20291   1.730   5.194   5.487 -0.8292 -1.2312  0.1243
  178SLPC  C31120292   1.778   5.019   5.346 -0.5535  0.1825 -0.6381
  178SLPC  H11X20293   1.678   4.974   5.363  0.3998 -1.4641  0.9020
  178SLPC  H11Y20294   1.853   4.938   5.354 -2.9186 -2.0703  0.0299
  178SLPC  C31220295   1.776   5.086   5.215  0.0632  0.6125  0.3389
  178SLPC  H12X20296   1.793   5.006   5.140 -0.1434  1.0546 -0.1842
  178SLPC  H12Y20297   1.853   5.165   5.196 -2.3201  2.7216 -1.1375
  178SLPC  C31320298   1.637   5.155   5.191  0.2337  0.1936 -0.4737
  178SLPC  H13X20299   1.620   5.221   5.279  2.1600  1.3792 -0.9294
  178SLPC  H13Y20300   1.557   5.079   5.184 -2.3157  2.7625 -0.8057
  178SLPC  C31420301   1.642   5.247   5.070 -0.0133 -0.1832 -0.3195
  178SLPC  H14X20302   1.699   5.216   4.980 -0.3299 -0.8390 -0.2974
  178SLPC  H14Y20303   1.685   5.340   5.114  0.1299 -0.1393 -0.5545
  178SLPC  C31520304   1.507   5.263   5.012  0.1670 -0.1207  0.3220
  178SLPC  H15X20305   1.434   5.322   5.071 -2.5156 -1.3362 -1.5821
  178SLPC  H15Y20306   1.464   5.164   4.986  0.4085 -0.5859  1.6193
  178SLPC  C31620307   1.519   5.341   4.874  0.0898  0.0119 -0.2403
  178SLPC  H16X20308   1.435   5.295   4.818 -2.1185  0.0041  2.8585
  178SLPC  H16Y20309   1.611   5.305   4.822  0.9947 -0.6021  1.6843
  178SLPC  C31720310   1.515   5.497   4.882 -0.0447 -0.4367 -0.7739
  178SLPC  H17X20311   1.576   5.528   4.969 -1.2932 -0.3834  0.1033
  178SLPC  H17Y20312   1.411   5.522   4.908  0.5692 -0.0744  1.5581
  178SLPC  C31820313   1.563   5.585   4.758  0.3648  0.0714 -1.3961
  178SLPC  H18X20314   1.541   5.693   4.776  2.7430  0.6889 -1.9659
  178SLPC  H18Y20315   1.499   5.553   4.673  0.7966 -2.9933 -0.6673
  178SLPC  H18Z20316   1.671   5.561   4.758 -0.0340 -2.4206  1.3275
  179SLPC     N20317   3.441   1.816   2.183  0.3785  0.0082 -0.0091
  179SLPC   C1320318   3.388   1.757   2.056  0.3456  0.2695 -0.4308
  179SLPC  H13A20319   3.465   1.722   1.989  1.7184 -0.4008  1.4171
  179SLPC  H13B20320   3.327   1.671   2.076  0.4902  0.0377 -0.9571
  179SLPC  H13C20321   3.335   1.829   1.995 -1.0491  0.4466  0.9323
  179SLPC   C1420322   3.522   1.941   2.141  0.4957  0.7809 -0.0019
  179SLPC  H14A20323   3.457   2.011   2.090  3.0613  0.7891 -3.6279
  179SLPC  H14B20324   3.575   1.986   2.224  2.4218 -1.7769  0.2764
  179SLPC  H14C20325   3.590   1.918   2.061  0.7016 -0.4565  0.4996
  179SLPC   C1520326   3.527   1.709   2.246  0.3770  0.0658  0.2470
  179SLPC  H15A20327   3.560   1.745   2.343 -2.3340  0.8856  0.9641
  179SLPC  H15B20328   3.479   1.614   2.259 -0.9154  0.5286 -0.8189
  179SLPC  H15C20329   3.614   1.690   2.185  0.2607  0.6719 -0.1293
  179SLPC   C1220330   3.334   1.861   2.284  0.1360  0.2054 -0.5232
  179SLPC  H12A20331   3.284   1.948   2.244  2.6697  1.5427 -1.0071
  179SLPC  H12B20332   3.388   1.885   2.375  0.4477 -1.9522 -0.0666
  179SLPC   C1120333   3.220   1.758   2.318  0.0224  0.1639  0.6451
  179SLPC  H11A20334   3.152   1.796   2.398 -2.7166 -1.3698 -0.8286
  179SLPC  H11B20335   3.272   1.674   2.370 -0.8692  1.2411  3.4825
  179SLPC     P20336   3.100   1.561   2.187  0.2509  0.0754  0.0445
  179SLPC   O1320337   2.972   1.556   2.118  0.3130 -0.3579  0.5260
  179SLPC   O1420338   3.205   1.474   2.135 -0.9117  0.0973  0.1259
  179SLPC   O1220339   3.143   1.714   2.200  0.0697 -0.4558  0.1050
  179SLPC   O1120340   3.072   1.517   2.340 -0.2376  0.4288  0.3595
  179SLPC    C120341   2.960   1.560   2.413  0.3260  0.2636  0.0742
  179SLPC    HA20342   2.933   1.664   2.385 -2.2241  0.2475  2.0760
  179SLPC    HB20343   2.871   1.496   2.394  0.1280  0.5250  0.1179
  179SLPC    C220344   2.985   1.564   2.572  0.1851 -0.6455  0.3312
  179SLPC    HS20345   2.883   1.553   2.616 -0.1099 -0.8080 -0.3692
  179SLPC   O2120346   3.053   1.682   2.626  0.4008  0.4035 -0.0282
  179SLPC   C2120347   2.973   1.789   2.610 -0.2975 -0.9384  0.4980
  179SLPC   O2220348   2.854   1.784   2.574 -0.6661 -0.2101 -0.0068
  179SLPC   C2220349   3.053   1.918   2.632 -0.2157  0.2536  0.0799
  179SLPC   H2R20350   3.157   1.888   2.653 -0.7368 -2.4355 -0.7987
  179SLPC   H2S20351   3.050   1.974   2.536  1.8045  1.4984  0.6811
  179SLPC    C320352   3.073   1.434   2.615  0.1334  0.2988 -0.2518
  179SLPC    HX20353   3.159   1.454   2.547  0.2287  2.2110  0.3718
  179SLPC    HY20354   3.026   1.335   2.597  0.0835  0.4513 -1.0117
  179SLPC   O3120355   3.111   1.449   2.750  0.5327 -0.0071  0.4512
  179SLPC   C3120356   3.034   1.387   2.841 -0.1595  0.2797 -0.7389
  179SLPC   O3220357   2.929   1.337   2.821  0.0566 -1.2161  0.6244
  179SLPC   C3220358   3.108   1.398   2.974 -0.2461  0.6648  0.4782
  179SLPC   H2X20359   3.188   1.476   2.968 -1.2697  1.6642 -1.1235
  179SLPC   H2Y20360   3.165   1.303   2.973 -0.1945  0.6516  2.2289
  179SLPC   C2320361   2.989   2.010   2.743 -0.3208 -0.3744 -0.1477
  179SLPC   H3R20362   2.879   2.015   2.728 -0.0308  2.4539 -2.1246
  179SLPC   H3S20363   3.032   2.111   2.729  0.3238 -0.1796  2.6450
  179SLPC   C2420364   3.020   1.957   2.885 -0.6498  0.2537 -0.0782
  179SLPC   H4R20365   3.130   1.947   2.895 -0.3009 -0.5750 -3.5726
  179SLPC   H4S20366   2.977   1.855   2.891 -1.4389  0.5296 -0.9230
  179SLPC   C2520367   2.965   2.040   3.001  0.7554  0.1071  0.1969
  179SLPC   H5R20368   2.856   2.018   3.008  1.2558 -2.1154  1.9170
  179SLPC   H5S20369   2.982   2.148   2.977 -0.2839  0.1384 -0.4658
  179SLPC   C2620370   3.031   1.995   3.132 -0.1664 -0.7512  0.5395
  179SLPC   H6R20371   3.132   2.041   3.135 -0.3654 -0.0547 -1.6894
  179SLPC   H6S20372   3.050   1.885   3.128 -0.5811 -0.7967 -0.1911
  179SLPC   C2720373   2.951   2.039   3.249 -0.0181  0.3803 -0.9329
  179SLPC   H7R20374   2.847   2.001   3.258  0.6877 -1.3863  0.4038
  179SLPC   H7S20375   2.956   2.150   3.243  2.8045  0.4217  0.4484
  179SLPC   C2820376   3.016   1.997   3.386  0.3244  0.1331 -0.5776
  179SLPC   H8R20377   2.973   2.055   3.470 -0.4098 -0.0644 -0.8128
  179SLPC   H8S20378   3.126   2.017   3.390  0.6378 -1.1130 -1.9905
  179SLPC   C2920379   3.011   1.850   3.409  0.0889  0.2235 -0.2740
  179SLPC   H9R20380   3.057   1.791   3.328  0.6708  0.3783 -0.0592
  179SLPC  C21020381   2.979   1.792   3.528  0.4493 -0.6120  0.1936
  179SLPC  H10R20382   2.983   1.683   3.536 -1.1159 -0.8832 -1.8330
  179SLPC  C21120383   2.946   1.865   3.653  0.4225 -1.4158 -0.4118
  179SLPC  H11R20384   3.021   1.941   3.683 -0.1978 -0.4831 -1.1515
  179SLPC  H11S20385   2.941   1.784   3.729  0.7462  0.0621  1.2288
  179SLPC  C21220386   2.808   1.939   3.651 -0.8313  0.7351  0.7991
  179SLPC  H12R20387   2.814   2.041   3.611 -1.9110  1.5086  2.5135
  179SLPC  C21320388   2.690   1.890   3.690  0.9078 -0.3958  0.4797
  179SLPC  H13R20389   2.596   1.944   3.671  1.3033  0.1032 -0.1226
  179SLPC  C21420390   2.663   1.753   3.736  0.6741  0.4584 -0.1226
  179SLPC  H14R20391   2.735   1.706   3.806  1.5847  1.4766 -0.3490
  179SLPC  H14S20392   2.643   1.706   3.637 -3.2978 -0.2978  0.8558
  179SLPC  C21520393   2.536   1.750   3.828 -0.2211  0.3837  0.5977
  179SLPC  H15R20394   2.501   1.645   3.835 -0.9483  0.6878  1.6587
  179SLPC  H15S20395   2.457   1.813   3.782  1.5517  0.7825 -2.1682
  179SLPC  C21620396   2.565   1.791   3.974  0.3340  0.2946 -0.2486
  179SLPC  H16R20397   2.620   1.887   3.970 -0.9031  1.1078  1.0827
  179SLPC  H16S20398   2.631   1.717   4.025 -0.1712  0.4199  0.6165
  179SLPC  C21720399   2.446   1.791   4.073 -0.7166  0.2528 -0.1585
  179SLPC  H17R20400   2.475   1.836   4.171  2.2941 -0.2798 -0.7142
  179SLPC  H17S20401   2.412   1.688   4.099  1.1521  0.3528  3.3228
  179SLPC  C21820402   2.329   1.874   4.028 -0.5982 -0.2484 -0.4172
  179SLPC  H18R20403   2.269   1.904   4.116  1.4705 -0.5392  1.1903
  179SLPC  H18S20404   2.269   1.821   3.951 -1.8872 -1.6864  1.4686
  179SLPC  H18T20405   2.364   1.970   3.983  0.7726  0.4199  1.8742
  179SLPC   C3320406   3.016   1.382   3.099 -1.1399 -0.6931 -0.2086
  179SLPC   H3X20407   2.961   1.286   3.089 -0.9250 -0.5392 -4.2960
  179SLPC   H3Y20408   2.947   1.470   3.093 -0.6044 -0.3896 -3.7453
  179SLPC   C3420409   3.094   1.371   3.236 -0.9129  0.1521  0.3562
  179SLPC   H4X20410   3.173   1.448   3.235 -0.1788 -0.4347 -3.7067
  179SLPC   H4Y20411   3.155   1.278   3.245  0.0687  0.8594  1.1389
  179SLPC   C3520412   2.999   1.373   3.353 -0.2778 -0.3603 -0.1414
  179SLPC   H5X20413   2.928   1.456   3.333 -1.1089 -1.4375 -1.9963
  179SLPC   H5Y20414   2.942   1.278   3.361 -1.1056  0.2877  2.5252
  179SLPC   C3620415   3.083   1.383   3.486 -0.6505 -0.5173 -0.1901
  179SLPC   H6X20416   3.141   1.478   3.484 -2.9775  1.1232  2.2342
  179SLPC   H6Y20417   3.158   1.302   3.499 -0.2490  0.1076  1.8665
  179SLPC   C3720418   2.994   1.388   3.608  0.2299  0.2927  0.0303
  179SLPC   H7X20419   2.918   1.308   3.622  0.3522  0.1684 -0.0224
  179SLPC   H7Y20420   2.950   1.491   3.609  2.3107  1.2497 -0.8442
  179SLPC   C3820421   3.074   1.388   3.739  0.1225 -0.1875  0.0233
  179SLPC   H8X20422   3.164   1.449   3.717  0.5802 -1.3491 -1.4812
  179SLPC   H8Y20423   3.109   1.287   3.767  1.1132  0.1733  0.0960
  179SLPC   C3920424   2.994   1.443   3.855  0.5453  0.3954 -0.3327
  179SLPC   H9X20425   2.942   1.534   3.818  1.0761 -0.0679 -2.3503
  179SLPC   H9Y20426   3.070   1.460   3.934  1.4206  0.7669 -1.2482
  179SLPC  C31020427   2.892   1.343   3.913 -0.1884  0.1355  0.0719
  179SLPC  H10X20428   2.936   1.241   3.924 -0.8677 -0.2201 -0.4352
  179SLPC  H10Y20429   2.822   1.337   3.827 -0.6501  0.2760  0.4273
  179SLPC  C31120430   2.802   1.387   4.032  0.5522  0.7238  0.7019
  179SLPC  H11X20431   2.789   1.498   4.036  2.2225  1.1384 -2.3365
  179SLPC  H11Y20432   2.835   1.367   4.136  3.3828  0.5952 -0.1527
  179SLPC  C31220433   2.657   1.321   4.016  0.2181 -0.2252  0.4071
  179SLPC  H12X20434   2.664   1.211   4.020 -1.9200 -0.3889  0.7383
  179SLPC  H12Y20435   2.614   1.349   3.917  2.0699  1.0719 -0.0879
  179SLPC  C31320436   2.553   1.373   4.118 -0.0290  0.1093  0.8975
  179SLPC  H13X20437   2.450   1.343   4.087  0.5999  0.9578 -2.2561
  179SLPC  H13Y20438   2.560   1.483   4.112  1.9760 -0.0189  0.3934
  179SLPC  C31420439   2.569   1.304   4.254  0.1918 -0.3231 -0.5569
  179SLPC  H14X20440   2.678   1.301   4.273 -0.0411 -1.0401  0.7943
  179SLPC  H14Y20441   2.534   1.198   4.251 -1.6783  0.2441 -0.2994
  179SLPC  C31520442   2.494   1.382   4.364 -0.0572  0.0006  0.6500
  179SLPC  H15X20443   2.385   1.385   4.345 -0.2224  2.4953  1.6506
  179SLPC  H15Y20444   2.524   1.488   4.374  0.8262 -0.0645 -0.9354
  179SLPC  C31620445   2.510   1.306   4.499 -0.3836  0.2869 -0.2872
  179SLPC  H16X20446   2.616   1.295   4.530 -0.9543  0.1599  1.7162
  179SLPC  H16Y20447   2.475   1.201   4.486  2.8080 -0.8698 -0.4341
  179SLPC  C31720448   2.419   1.371   4.605 -0.0437 -0.5053  0.3182
  179SLPC  H17X20449   2.316   1.394   4.569  0.1414  2.7202  1.4969
  179SLPC  H17Y20450   2.451   1.476   4.619 -0.0906 -0.5309  0.6337
  179SLPC  C31820451   2.414   1.299   4.732  0.3454 -0.6126 -0.6442
  179SLPC  H18X20452   2.387   1.192   4.722 -1.1375 -0.1669 -1.9481
  179SLPC  H18Y20453   2.340   1.347   4.800  0.5747  0.1807 -0.9385
  179SLPC  H18Z20454   2.510   1.303   4.786 -0.2033  1.7044  0.2908
  180SLPC     N20455   1.480   1.397   2.104 -0.2242 -0.3982 -0.4140
  180SLPC   C1320456   1.522   1.523   2.035  0.0913 -0.5313  0.6366
  180SLPC  H13A20457   1.601   1.497   1.966  2.6270  0.3263  3.0142
  180SLPC  H13B20458   1.444   1.563   1.972 -0.2921 -1.6690  0.3656
  180SLPC  H13C20459   1.547   1.598   2.108 -2.9130 -1.2234  2.5572
  180SLPC   C1420460   1.609   1.343   2.160 -0.2035 -0.8379 -0.9905
  180SLPC  H14A20461   1.602   1.253   2.219 -0.5541  1.2157  2.3583
  180SLPC  H14B20462   1.674   1.315   2.078  2.4859  0.1321  0.6711
  180SLPC  H14C20463   1.655   1.417   2.224 -1.5123 -2.3575  1.8247
  180SLPC   C1520464   1.422   1.310   2.006  0.1797  0.3579  0.5447
  180SLPC  H15A20465   1.375   1.219   2.040  1.9914 -1.1596 -0.7740
  180SLPC  H15B20466   1.361   1.367   1.937  2.1518  1.0555 -0.7176
  180SLPC  H15C20467   1.494   1.287   1.929  0.3492  2.8138 -0.1378
  180SLPC   C1220468   1.372   1.428   2.206 -0.7174  0.3129  0.0217
  180SLPC  H12A20469   1.355   1.338   2.262  3.3520  0.0434  1.1631
  180SLPC  H12B20470   1.283   1.448   2.149 -0.4587 -0.3195 -0.6181
  180SLPC   C1120471   1.402   1.534   2.310 -0.1536 -0.8764  0.0312
  180SLPC  H11A20472   1.495   1.517   2.369  0.6940  4.1482  0.6352
  180SLPC  H11B20473   1.322   1.529   2.386  1.3697  0.1002  1.8075
  180SLPC     P20474   1.283   1.752   2.235  0.4302 -0.2163  0.0098
  180SLPC   O1320475   1.324   1.870   2.160 -0.2872  0.1205 -0.1867
  180SLPC   O1420476   1.178   1.670   2.166 -0.8170  0.3808  0.8320
  180SLPC   O1220477   1.415   1.667   2.259  0.0653  0.6770  0.2981
  180SLPC   O1120478   1.229   1.776   2.385  0.2041  0.4505  0.2367
  180SLPC    C120479   1.329   1.816   2.478 -0.7477 -0.1974 -0.1971
  180SLPC    HA20480   1.417   1.748   2.473 -1.3212 -1.1133  1.6166
  180SLPC    HB20481   1.373   1.916   2.457  1.1246 -1.2737 -1.8843
  180SLPC    C220482   1.279   1.819   2.623  0.5801 -0.8549  0.3632
  180SLPC    HS20483   1.172   1.796   2.606 -0.1806  2.4909 -0.1048
  180SLPC   O2120484   1.300   1.940   2.693 -0.6896 -0.5719 -0.4924
  180SLPC   C2120485   1.196   1.977   2.776 -0.1613  0.1684 -0.3431
  180SLPC   O2220486   1.082   1.937   2.761  0.3001  0.5915  0.2669
  180SLPC   C2220487   1.252   2.090   2.863 -0.1270 -0.0303  0.2797
  180SLPC   H2R20488   1.336   2.052   2.925 -0.2397  1.4070  1.3432
  180SLPC   H2S20489   1.293   2.153   2.781  2.4327 -1.3859  0.4169
  180SLPC    C320490   1.348   1.695   2.699 -0.4047 -0.5847 -0.2287
  180SLPC    HX20491   1.451   1.714   2.735 -0.6829 -1.5106  1.1471
  180SLPC    HY20492   1.339   1.597   2.648 -0.8771 -1.0272  0.6770
  180SLPC   O3120493   1.274   1.686   2.821  0.4401 -0.4024  0.7193
  180SLPC   C3120494   1.145   1.631   2.815 -0.3024 -0.1061 -0.2437
  180SLPC   O3220495   1.105   1.574   2.717 -0.4051 -0.6068 -0.1045
  180SLPC   C3220496   1.066   1.639   2.949  0.2258 -0.3625 -0.1237
  180SLPC   H2X20497   0.978   1.573   2.935  2.1913 -2.9294 -1.4835
  180SLPC   H2Y20498   1.022   1.740   2.959  0.2228 -0.4616  0.9713
  180SLPC   C2320499   1.147   2.148   2.960 -0.2383 -0.0153  0.2530
  180SLPC   H3R20500   1.048   2.098   2.955 -0.5336  0.5873  0.0264
  180SLPC   H3S20501   1.124   2.248   2.916  3.3080  0.8347  0.0070
  180SLPC   C2420502   1.185   2.168   3.111 -0.1894 -0.2486  0.5649
  180SLPC   H4R20503   1.281   2.225   3.111 -0.1843 -0.2578  1.0348
  180SLPC   H4S20504   1.203   2.068   3.156  1.2543  0.9259  2.7844
  180SLPC   C2520505   1.085   2.245   3.195  0.6519  0.1997 -0.1762
  180SLPC   H5R20506   0.994   2.181   3.190 -0.1325  1.2266  0.3892
  180SLPC   H5S20507   1.072   2.340   3.139  0.1989  0.4740  0.3840
  180SLPC   C2620508   1.131   2.268   3.342  0.4114  0.6445  0.4745
  180SLPC   H6R20509   1.225   2.327   3.335  1.2243 -0.6546  0.0315
  180SLPC   H6S20510   1.149   2.170   3.391 -1.6037  0.1932  0.3850
  180SLPC   C2720511   1.027   2.336   3.431 -0.5906 -0.0329  0.1446
  180SLPC   H7R20512   0.933   2.277   3.433  0.2254 -1.4276 -0.8121
  180SLPC   H7S20513   0.995   2.438   3.402 -2.1798 -0.3546  0.6887
  180SLPC   C2820514   1.063   2.339   3.582  0.0131 -0.2189 -0.2700
  180SLPC   H8R20515   0.981   2.394   3.633  1.2656 -0.5960  2.2773
  180SLPC   H8S20516   1.157   2.390   3.609 -0.3982 -0.8465  2.5928
  180SLPC   C2920517   1.077   2.204   3.641  0.3477 -0.0874  0.0681
  180SLPC   H9R20518   1.179   2.164   3.624 -0.1959 -0.3637 -3.2197
  180SLPC  C21020519   0.981   2.140   3.708  0.0565  0.0969 -0.0161
  180SLPC  H10R20520   1.014   2.050   3.761  2.1011  0.7609 -0.0660
  180SLPC  C21120521   0.839   2.182   3.735  0.4242  0.4938  0.1333
  180SLPC  H11R20522   0.789   2.231   3.648 -3.6103  1.7417  2.8246
  180SLPC  H11S20523   0.840   2.259   3.815  0.6511  0.8497 -0.2089
  180SLPC  C21220524   0.757   2.062   3.774  0.7604  0.0883 -0.8493
  180SLPC  H12R20525   0.783   2.019   3.871 -1.3144 -0.3829 -0.4526
  180SLPC  C21320526   0.654   2.005   3.703 -0.0783  0.0676 -0.6843
  180SLPC  H13R20527   0.621   1.903   3.727  0.4976 -0.1216 -0.6581
  180SLPC  C21420528   0.601   2.052   3.570  0.2501 -1.1900  0.4117
  180SLPC  H14R20529   0.608   2.162   3.558 -0.8920 -1.1364  0.1539
  180SLPC  H14S20530   0.494   2.024   3.565 -0.2566  0.8163 -2.6847
  180SLPC  C21520531   0.686   1.992   3.463  0.4586  0.6450  0.0867
  180SLPC  H15R20532   0.707   1.883   3.475 -0.9330  0.4645  1.0949
  180SLPC  H15S20533   0.788   2.034   3.478  0.6622  0.0818  0.3037
  180SLPC  C21620534   0.640   2.026   3.325  0.4767 -0.5906  0.5129
  180SLPC  H16R20535   0.647   2.136   3.313  1.1243 -0.9501 -4.2265
  180SLPC  H16S20536   0.532   1.997   3.319  0.5365 -1.1010  1.6501
  180SLPC  C21720537   0.720   1.970   3.206 -0.2474 -0.3049 -0.8169
  180SLPC  H17R20538   0.708   1.859   3.207  1.7789 -0.5731  1.6011
  180SLPC  H17S20539   0.825   1.995   3.232 -0.8343  1.7904 -0.2851
  180SLPC  C21820540   0.690   2.025   3.071 -0.5121  0.0142  0.4892
  180SLPC  H18R20541   0.698   2.135   3.058  2.0282 -0.2280 -0.5974
  180SLPC  H18S20542   0.586   2.001   3.040 -0.7237 -0.1284  1.2908
  180SLPC  H18T20543   0.752   1.966   3.000 -1.7024 -1.4126  0.5934
  180SLPC   C3320544   1.140   1.587   3.070 -0.3481 -0.0950  0.2931
  180SLPC   H3X20545   1.227   1.649   3.100  2.0820 -3.9264  2.0577
  180SLPC   H3Y20546   1.191   1.491   3.044 -3.0034 -1.4116 -0.3230
  180SLPC   C3420547   1.059   1.565   3.205 -0.3498 -0.1982  0.0339
  180SLPC   H4X20548   1.134   1.541   3.284  1.7126  1.1832 -1.4152
  180SLPC   H4Y20549   0.994   1.475   3.191  1.5702 -1.4640 -1.1360
  180SLPC   C3520550   0.986   1.690   3.240  0.6861  0.1627 -0.4092
  180SLPC   H5X20551   0.887   1.715   3.196  1.2524  2.8104 -0.3157
  180SLPC   H5Y20552   1.052   1.778   3.228  0.6158  0.5363  1.5676
  180SLPC   C3620553   0.969   1.694   3.394  0.2517 -0.7329  0.4819
  180SLPC   H6X20554   0.923   1.792   3.417 -1.1815 -1.1786 -0.3516
  180SLPC   H6Y20555   1.075   1.699   3.429  1.1493 -0.4016 -2.1009
  180SLPC   C3720556   0.898   1.577   3.455  0.4918  0.3197 -0.4772
  180SLPC   H7X20557   0.926   1.484   3.400  2.4356 -0.0350  0.9887
  180SLPC   H7Y20558   0.787   1.577   3.457  0.4461  2.2870  1.6989
  180SLPC   C3820559   0.923   1.557   3.602  0.1499 -0.6297 -0.9037
  180SLPC   H8X20560   0.929   1.656   3.650 -0.5505 -1.0912  0.1888
  180SLPC   H8Y20561   1.026   1.516   3.599  0.8750  0.9309  1.1073
  180SLPC   C3920562   0.812   1.476   3.677 -0.0487  0.0804 -0.1600
  180SLPC   H9X20563   0.791   1.372   3.644 -0.1366 -0.9603  2.8463
  180SLPC   H9Y20564   0.720   1.537   3.677 -1.0344 -1.3503 -0.2396
  180SLPC  C31020565   0.851   1.465   3.831 -0.1191 -0.0438 -0.2430
  180SLPC  H10X20566   0.936   1.393   3.838 -0.0063 -0.1113 -2.0215
  180SLPC  H10Y20567   0.761   1.426   3.885 -0.3989 -0.3969 -0.9590
  180SLPC  C31120568   0.867   1.603   3.901 -0.5236 -0.9291  0.4214
  180SLPC  H11X20569   0.786   1.672   3.869  1.7642  1.9348  0.3970
  180SLPC  H11Y20570   0.966   1.641   3.870 -0.2825 -0.1497  2.0805
  180SLPC  C31220571   0.871   1.597   4.048  0.1749 -0.3872  0.0927
  180SLPC  H12X20572   0.964   1.544   4.076  0.3860  0.5219  1.1962
  180SLPC  H12Y20573   0.787   1.533   4.082 -0.2334 -1.4010 -2.5988
  180SLPC  C31320574   0.861   1.746   4.114 -0.2447  0.8413  0.6625
  180SLPC  H13X20575   0.948   1.810   4.088  1.0461 -1.2374 -0.4340
  180SLPC  H13Y20576   0.877   1.726   4.222 -0.6838 -3.0714  0.1488
  180SLPC  C31420577   0.719   1.809   4.099 -0.1494  0.1400  0.5670
  180SLPC  H14X20578   0.655   1.726   4.136  2.0256 -0.8514  2.3474
  180SLPC  H14Y20579   0.696   1.845   3.997  0.5451  1.4888  0.8588
  180SLPC  C31520580   0.704   1.926   4.199 -0.0604 -0.5598  0.7527
  180SLPC  H15X20581   0.799   1.979   4.178 -0.8158  0.5361  0.0042
  180SLPC  H15Y20582   0.692   1.903   4.307  0.7940 -0.2231  0.9286
  180SLPC  C31620583   0.588   2.014   4.164  0.3823 -1.0907  0.0508
  180SLPC  H16X20584   0.490   1.972   4.194 -0.0608 -0.7496 -0.9130
  180SLPC  H16Y20585   0.596   2.025   4.054  2.0438 -0.5691  0.1941
  180SLPC  C31720586   0.589   2.148   4.247  0.4826 -0.1058  0.1601
  180SLPC  H17X20587   0.691   2.193   4.253 -0.4016  1.9572  0.5285
  180SLPC  H17Y20588   0.569   2.141   4.356 -0.0096  1.0251  0.1593
  180SLPC  C31820589   0.474   2.239   4.186  0.1346 -0.4706  0.1580
  180SLPC  H18X20590   0.461   2.330   4.248  1.1458  0.2577 -0.6404
  180SLPC  H18Y20591   0.376   2.189   4.179 -1.1649  1.5857  2.3922
  180SLPC  H18Z20592   0.506   2.277   4.086  1.7851  1.0394  1.1819
  181SLPC     N20593   2.325   0.701   2.120 -0.7040  0.0670 -0.2645
  181SLPC   C1320594   2.217   0.810   2.140 -0.3855  0.3001 -0.2692
  181SLPC  H13A20595   2.234   0.852   2.238  1.0581 -0.6264 -0.0833
  181SLPC  H13B20596   2.221   0.878   2.057  0.6023 -1.2217 -1.5181
  181SLPC  H13C20597   2.127   0.752   2.136  2.0217 -3.8103 -0.2109
  181SLPC   C1420598   2.460   0.750   2.071 -0.0113 -0.8770  0.0932
  181SLPC  H14A20599   2.446   0.816   1.987 -1.2366  1.7524  2.2247
  181SLPC  H14B20600   2.529   0.799   2.139 -0.6342  1.3787 -0.8330
  181SLPC  H14C20601   2.507   0.665   2.025 -2.0215 -1.9350 -0.1124
  181SLPC   C1520602   2.270   0.607   2.017 -0.3904 -0.3713  0.3164
  181SLPC  H15A20603   2.190   0.542   2.050 -1.5601  0.5190 -0.6974
  181SLPC  H15B20604   2.235   0.660   1.930 -0.3155 -2.8614 -1.3263
  181SLPC  H15C20605   2.346   0.544   1.973  1.9284  2.1619  0.4318
  181SLPC   C1220606   2.353   0.627   2.250  0.0978 -0.1479 -0.0241
  181SLPC  H12A20607   2.398   0.688   2.327  0.5782  0.4296 -0.7411
  181SLPC  H12B20608   2.428   0.551   2.233  1.8041  1.4780 -0.0795
  181SLPC   C1120609   2.225   0.570   2.323 -0.4319 -0.4254  0.7439
  181SLPC  H11A20610   2.264   0.512   2.409 -2.5377 -1.3168  1.1759
  181SLPC  H11B20611   2.183   0.496   2.252  0.1807  0.5987 -0.7212
  181SLPC     P20612   1.996   0.630   2.420  0.0805 -0.0807  0.0956
  181SLPC   O1320613   1.926   0.747   2.477 -0.2532 -0.1966 -0.1982
  181SLPC   O1420614   1.925   0.569   2.309  0.2091 -1.0329  0.3373
  181SLPC   O1220615   2.141   0.674   2.374 -0.1378 -0.3536 -0.4320
  181SLPC   O1120616   2.024   0.526   2.529 -0.0955  0.3902  0.0054
  181SLPC    C120617   2.129   0.519   2.629  0.3648 -0.3476 -0.2010
  181SLPC    HA20618   2.184   0.422   2.618 -0.4056 -1.0015  1.4256
  181SLPC    HB20619   2.204   0.593   2.595 -0.7780  1.1445  0.4527
  181SLPC    C220620   2.089   0.554   2.774  0.1963 -0.7622 -0.5005
  181SLPC    HS20621   1.994   0.505   2.803 -2.3189  3.3127 -1.1029
  181SLPC   O2120622   2.059   0.699   2.770 -0.1753  0.5326  0.1948
  181SLPC   C2120623   1.978   0.745   2.865  0.5231  0.3928 -0.4499
  181SLPC   O2220624   1.912   0.683   2.949 -0.7638 -0.3244 -0.7652
  181SLPC   C2220625   1.968   0.896   2.853  0.4236 -0.1732 -0.0385
  181SLPC   H2R20626   2.071   0.935   2.838  0.2168  0.0669 -0.8674
  181SLPC   H2S20627   1.922   0.913   2.753  1.7192 -0.8672 -0.7760
  181SLPC    C320628   2.211   0.524   2.870  0.6860  0.0936 -0.1889
  181SLPC    HX20629   2.304   0.564   2.825 -0.3069  1.6934 -0.9070
  181SLPC    HY20630   2.210   0.413   2.869 -1.7087  0.0351  1.4285
  181SLPC   O3120631   2.195   0.564   3.011 -0.4719  0.5630  0.0429
  181SLPC   C3120632   2.111   0.493   3.087  0.5215  0.6455 -0.0670
  181SLPC   O3220633   2.050   0.393   3.057  0.5593 -0.0409  0.6540
  181SLPC   C3220634   2.082   0.577   3.210 -0.5154  0.0145  0.1462
  181SLPC   H2X20635   2.014   0.660   3.180 -0.9551  0.1640  1.5028
  181SLPC   H2Y20636   2.176   0.617   3.253  0.9577 -1.4325 -1.5798
  181SLPC   C2320637   1.876   0.964   2.961  0.1012 -0.3957 -0.8548
  181SLPC   H3R20638   1.779   0.912   2.971  0.1252 -0.7153 -2.1131
  181SLPC   H3S20639   1.844   1.066   2.931 -0.8176 -1.0338 -2.1392
  181SLPC   C2420640   1.957   0.989   3.092 -0.4062  0.9968  0.0737
  181SLPC   H4R20641   2.043   1.053   3.064 -0.0765  0.0212 -1.2385
  181SLPC   H4S20642   1.997   0.890   3.122 -3.2232  0.2278  1.7769
  181SLPC   C2520643   1.884   1.055   3.215 -0.3547  0.5116  0.5444
  181SLPC   H5R20644   1.777   1.025   3.211  0.5933 -3.5066  0.7777
  181SLPC   H5S20645   1.888   1.166   3.218 -2.0517  0.6047  0.6182
  181SLPC   C2620646   1.937   1.007   3.348  0.1108 -0.1715 -0.2674
  181SLPC   H6R20647   2.043   1.038   3.359 -0.0216  1.2744 -2.4242
  181SLPC   H6S20648   1.929   0.896   3.355 -1.0222 -0.3020 -2.5043
  181SLPC   C2720649   1.861   1.079   3.457 -0.1265  0.2599 -0.3101
  181SLPC   H7R20650   1.753   1.054   3.449  0.4050 -2.7407  0.6428
  181SLPC   H7S20651   1.867   1.190   3.446 -3.7720  0.6715  0.6074
  181SLPC   C2820652   1.922   1.052   3.596 -0.0758 -0.0854 -0.5634
  181SLPC   H8R20653   1.944   1.146   3.652 -0.0717  0.5834 -1.6712
  181SLPC   H8S20654   2.018   1.000   3.575  0.0064  0.1424 -0.7498
  181SLPC   C2920655   1.828   0.964   3.675 -0.1932 -0.0238 -0.1413
  181SLPC   H9R20656   1.750   0.912   3.618  0.0750  0.4232 -0.9465
  181SLPC  C21020657   1.832   0.937   3.802  0.0847  0.3207 -0.4190
  181SLPC  H10R20658   1.745   0.885   3.846  0.6097  0.5570  0.9588
  181SLPC  C21120659   1.930   0.987   3.911  0.1931  0.4922  0.2266
  181SLPC  H11R20660   1.895   1.087   3.944  0.6019  0.1855  1.6901
  181SLPC  H11S20661   2.034   0.997   3.873  0.1041 -0.7633 -0.4237
  181SLPC  C21220662   1.937   0.892   4.024 -0.0373 -0.9635 -0.7518
  181SLPC  H12R20663   2.022   0.822   4.027 -0.2251 -1.1555  0.9611
  181SLPC  C21320664   1.848   0.889   4.124 -0.7282  0.0227  0.1206
  181SLPC  H13R20665   1.879   0.822   4.206  0.2111  1.3625  0.8934
  181SLPC  C21420666   1.721   0.974   4.140  0.7099 -0.2614 -0.0720
  181SLPC  H14R20667   1.698   1.013   4.039 -1.0331  1.3230  0.8678
  181SLPC  H14S20668   1.740   1.066   4.199 -0.0929 -0.3672  0.3779
  181SLPC  C21520669   1.605   0.888   4.190 -0.7502 -0.8994 -0.0593
  181SLPC  H15R20670   1.513   0.949   4.195  0.0744  0.3485  0.3992
  181SLPC  H15S20671   1.619   0.850   4.294 -0.1375 -2.1747 -0.5911
  181SLPC  C21620672   1.582   0.761   4.117  0.3390 -0.0539  0.4514
  181SLPC  H16R20673   1.673   0.698   4.116  0.3333 -0.0606 -0.7479
  181SLPC  H16S20674   1.552   0.780   4.012 -1.2467  1.8396  1.1731
  181SLPC  C21720675   1.475   0.680   4.190  0.6705 -0.1971  0.1073
  181SLPC  H17R20676   1.379   0.735   4.192  1.1240  0.6543 -0.6780
  181SLPC  H17S20677   1.513   0.665   4.293 -0.2539 -0.4559  0.4203
  181SLPC  C21820678   1.435   0.545   4.117 -0.4383 -0.2011 -0.8126
  181SLPC  H18R20679   1.364   0.480   4.172  1.3302 -1.3223  0.2374
  181SLPC  H18S20680   1.529   0.488   4.107 -0.7780 -1.0384  0.5149
  181SLPC  H18T20681   1.395   0.568   4.016  0.9550 -1.6377 -1.7244
  181SLPC   C3320682   1.993   0.499   3.315  0.2016  0.3114  0.0910
  181SLPC   H3X20683   2.053   0.407   3.334  1.1042 -0.4109 -4.8296
  181SLPC   H3Y20684   1.897   0.490   3.259  0.4235 -0.4392 -0.1894
  181SLPC   C3420685   1.977   0.583   3.440  0.3277  0.6807 -0.4633
  181SLPC   H4X20686   1.925   0.678   3.418 -2.1068 -1.0795 -2.9666
  181SLPC   H4Y20687   2.079   0.602   3.479  0.5823 -0.8278 -0.3480
  181SLPC   C3520688   1.893   0.515   3.549 -0.5030  0.3674 -0.1454
  181SLPC   H5X20689   1.949   0.421   3.569  0.9193  1.2873  0.2751
  181SLPC   H5Y20690   1.803   0.477   3.495 -1.4318  0.3295  1.3715
  181SLPC   C3620691   1.854   0.598   3.675  0.1142  0.2964 -0.0525
  181SLPC   H6X20692   1.763   0.656   3.645  0.1669  0.6728  0.4836
  181SLPC   H6Y20693   1.926   0.671   3.718 -0.6055 -0.0889  1.9351
  181SLPC   C3720694   1.801   0.515   3.793 -0.4316  0.0740 -0.0268
  181SLPC   H7X20695   1.731   0.437   3.755 -0.8108  0.4128 -0.0323
  181SLPC   H7Y20696   1.742   0.590   3.849  0.5606  2.4294 -1.9431
  181SLPC   C3820697   1.917   0.469   3.890  0.6851  0.2299 -0.6022
  181SLPC   H8X20698   1.963   0.565   3.920  0.8297  1.0841 -3.2589
  181SLPC   H8Y20699   1.983   0.400   3.834 -0.1596 -1.8088  0.8061
  181SLPC   C3920700   1.851   0.397   4.009 -0.7992 -0.1820  0.0125
  181SLPC   H9X20701   1.804   0.303   3.972 -1.0717 -0.2648  0.5562
  181SLPC   H9Y20702   1.766   0.455   4.052 -3.3239 -2.2191 -1.8452
  181SLPC  C31020703   1.942   0.381   4.121 -0.5627  0.0891  0.2270
  181SLPC  H10X20704   1.937   0.467   4.191  3.3001 -0.5700  1.5589
  181SLPC  H10Y20705   2.045   0.373   4.081 -0.6843 -2.6819  0.2357
  181SLPC  C31120706   1.910   0.262   4.209  0.0957  0.0805  0.1544
  181SLPC  H11X20707   2.001   0.257   4.272 -0.8008  0.3703  1.5302
  181SLPC  H11Y20708   1.891   0.168   4.154  0.6066 -1.1740  2.0375
  181SLPC  C31220709   1.797   0.289   4.315 -0.4360 -0.0528  0.0632
  181SLPC  H12X20710   1.706   0.327   4.264 -0.1139  1.1404  0.3512
  181SLPC  H12Y20711   1.844   0.363   4.384  1.5285 -0.5292 -0.6964
  181SLPC  C31320712   1.768   0.157   4.389  0.4867 -0.4443  0.1538
  181SLPC  H13X20713   1.860   0.109   4.429  0.4700  0.3492  1.1902
  181SLPC  H13Y20714   1.724   0.089   4.313  0.2945  0.5181 -0.6114
  181SLPC  C31420715   1.674   0.176   4.507  0.7040  0.4594 -0.6745
  181SLPC  H14X20716   1.588   0.243   4.482  1.6279  2.2788  0.8138
  181SLPC  H14Y20717   1.732   0.237   4.580  0.8226 -0.0391 -0.3516
  181SLPC  C31520718   1.616   0.044   4.559  0.3479 -0.5763  0.0624
  181SLPC  H15X20719   1.693  -0.028   4.594  0.4970  0.2345  1.5031
  181SLPC  H15Y20720   1.555  -0.000   4.478 -0.6779 -0.0001  0.5010
  181SLPC  C31620721   1.515   0.076   4.675 -0.0282  0.4431 -0.4398
  181SLPC  H16X20722   1.443   0.150   4.633  1.6379  1.9094 -0.8071
  181SLPC  H16Y20723   1.566   0.117   4.765 -0.9767  1.3838 -0.2998
  181SLPC  C31720724   1.426  -0.049   4.714 -0.1635 -0.0446  0.1592
  181SLPC  H17X20725   1.494  -0.135   4.736  1.1161  1.0369  0.5831
  181SLPC  H17Y20726   1.367  -0.082   4.626  1.1607 -2.6388  0.1514
  181SLPC  C31820727   1.336  -0.017   4.835  0.5704 -0.2517 -0.2983
  181SLPC  H18X20728   1.308  -0.096   4.908  1.2668  0.2674  0.5415
  181SLPC  H18Y20729   1.248   0.035   4.791  0.3388 -0.1270  0.2966
  181SLPC  H18Z20730   1.383   0.063   4.895 -3.0651  1.1905  0.9003
  182SLPC     N20731   1.241   5.304   2.191  0.3592  0.1812  0.7968
  182SLPC   C1320732   1.344   5.227   2.272  0.2843 -0.2829  0.3484
  182SLPC  H13A20733   1.287   5.187   2.354  0.6777 -0.6674  0.4363
  182SLPC  H13B20734   1.381   5.137   2.225 -2.0597 -0.8280 -0.5751
  182SLPC  H13C20735   1.430   5.285   2.304  0.9121 -0.1127 -1.5072
  182SLPC   C1420736   1.129   5.204   2.145  0.0580 -0.4084 -0.4390
  182SLPC  H14A20737   1.046   5.259   2.105 -1.1260 -1.3154  0.6848
  182SLPC  H14B20738   1.161   5.122   2.082 -0.3539 -0.4601 -0.5811
  182SLPC  H14C20739   1.092   5.151   2.232  3.0438 -0.0790  1.1704
  182SLPC   C1520740   1.299   5.349   2.061 -0.2137  0.3500 -0.4176
  182SLPC  H15A20741   1.383   5.414   2.075 -1.3589  2.0417 -1.0959
  182SLPC  H15B20742   1.328   5.259   2.008 -1.7106  1.0838 -2.6145
  182SLPC  H15C20743   1.229   5.406   2.003  1.0156  1.0906 -1.2119
  182SLPC   C1220744   1.183   5.421   2.265 -0.1892 -0.2432 -0.0729
  182SLPC  H12A20745   1.101   5.464   2.210  1.0603  1.0789 -0.9794
  182SLPC  H12B20746   1.265   5.491   2.257  0.2727 -0.9572 -2.1716
  182SLPC   C1120747   1.158   5.393   2.415 -0.1772 -0.4188 -0.4696
  182SLPC  H11A20748   1.089   5.474   2.445 -0.5590 -0.4704 -1.1982
  182SLPC  H11B20749   1.255   5.399   2.470  0.4771 -0.3329 -1.6000
  182SLPC     P20750   1.032   5.240   2.586 -0.5083  0.1455  0.4408
  182SLPC   O1320751   0.895   5.287   2.597 -0.1980 -0.1687 -0.3033
  182SLPC   O1420752   1.044   5.092   2.605  0.1061  0.0283  1.3888
  182SLPC   O1220753   1.096   5.269   2.441  0.1424  0.2022  0.6941
  182SLPC   O1120754   1.099   5.317   2.694 -0.2782  0.3404 -0.6004
  182SLPC    C120755   1.226   5.270   2.755  0.6216  0.2718 -0.4782
  182SLPC    HA20756   1.255   5.172   2.711 -0.6248 -0.7958  0.9600
  182SLPC    HB20757   1.295   5.354   2.734 -0.0504  0.7188 -0.9823
  182SLPC    C220758   1.195   5.236   2.905 -0.8111 -0.0479 -0.0846
  182SLPC    HS20759   1.122   5.153   2.904 -1.1547  0.2547 -0.2241
  182SLPC   O2120760   1.141   5.348   2.972  0.3116  0.2624 -0.2718
  182SLPC   C2120761   1.035   5.333   3.054  0.5791 -0.4372  0.7161
  182SLPC   O2220762   0.976   5.226   3.078 -0.4207  0.3453  0.1572
  182SLPC   C2220763   0.999   5.474   3.107  0.2674  0.1100  0.3198
  182SLPC   H2R20764   1.042   5.556   3.046 -0.2523  0.3590  0.2763
  182SLPC   H2S20765   0.891   5.501   3.101  0.9175  3.2294  0.8588
  182SLPC    C320766   1.337   5.184   2.956  0.1683 -0.4986  0.0828
  182SLPC    HX20767   1.377   5.102   2.892  1.8410  0.1144  0.3168
  182SLPC    HY20768   1.310   5.139   3.054 -3.1046 -0.0530 -0.4801
  182SLPC   O3120769   1.428   5.295   2.962 -0.1073 -0.7051 -0.2612
  182SLPC   C3120770   1.427   5.361   3.083 -0.0860  0.2145 -0.0097
  182SLPC   O3220771   1.372   5.321   3.183  0.3205  0.3023  0.5722
  182SLPC   C3220772   1.527   5.480   3.066  0.1344  0.2387  0.1053
  182SLPC   H2X20773   1.487   5.561   3.002  1.0498  0.2873 -0.4224
  182SLPC   H2Y20774   1.620   5.433   3.029  0.2807 -0.0705  0.8383
  182SLPC   C2320775   1.065   5.490   3.246 -0.2494 -0.3136 -0.2031
  182SLPC   H3R20776   1.081   5.594   3.281 -0.6714  0.4500 -2.1163
  182SLPC   H3S20777   1.167   5.447   3.245 -0.5354 -1.0095 -0.0312
  182SLPC   C2420778   0.987   5.414   3.357  0.4634 -0.3713 -0.0697
  182SLPC   H4R20779   1.016   5.307   3.346  2.8805  0.2630 -0.6774
  182SLPC   H4S20780   0.881   5.437   3.336  0.0124  0.9115  3.1374
  182SLPC   C2520781   1.016   5.475   3.493 -0.1046 -0.1897  0.6175
  182SLPC   H5R20782   0.970   5.576   3.489 -1.3997 -0.7906 -0.1493
  182SLPC   H5S20783   1.126   5.471   3.511 -0.0165  1.6665  0.7167
  182SLPC   C2620784   0.961   5.398   3.607  0.0340 -0.0184 -1.0770
  182SLPC   H6R20785   1.004   5.297   3.594  3.0007  1.2425 -1.7584
  182SLPC   H6S20786   0.850   5.387   3.610  0.0919 -1.0786  2.6571
  182SLPC   C2720787   0.989   5.456   3.751  0.2739 -0.1216  0.6860
  182SLPC   H7R20788   0.922   5.542   3.772  1.6104  0.9692  0.6411
  182SLPC   H7S20789   1.096   5.487   3.754  0.1764  0.2079  0.8792
  182SLPC   C2820790   0.950   5.360   3.863 -0.1595  0.7370  0.5473
  182SLPC   H8R20791   0.997   5.403   3.955  3.0107 -0.0401 -0.5896
  182SLPC   H8S20792   1.013   5.271   3.842  0.1237  0.7108  1.4504
  182SLPC   C2920793   0.800   5.345   3.877  0.8202  0.5527 -0.0043
  182SLPC   H9R20794   0.738   5.413   3.818  0.2010  0.7534  0.8479
  182SLPC  C21020795   0.728   5.262   3.955  0.4508 -0.5991 -0.5831
  182SLPC  H10R20796   0.619   5.276   3.951 -0.0703 -2.2748  3.1511
  182SLPC  C21120797   0.772   5.150   4.047  0.0936  0.3044 -0.9308
  182SLPC  H11R20798   0.692   5.086   4.089  1.7051 -1.6147 -0.6523
  182SLPC  H11S20799   0.828   5.196   4.132  1.4793 -0.8355 -1.1963
  182SLPC  C21220800   0.867   5.047   3.996 -0.5038  0.6527  0.1927
  182SLPC  H12R20801   0.915   5.070   3.899 -2.8774  1.9519 -0.7609
  182SLPC  C21320802   0.904   4.940   4.066 -0.2860 -0.4145 -0.3466
  182SLPC  H13R20803   0.965   4.864   4.014 -0.2175 -0.7084  0.1582
  182SLPC  C21420804   0.867   4.899   4.204  0.4481 -0.0534  0.7070
  182SLPC  H14R20805   0.797   4.816   4.185  2.6043 -1.1943 -3.3638
  182SLPC  H14S20806   0.810   4.984   4.249  0.6039 -0.4313  1.6434
  182SLPC  C21520807   0.976   4.864   4.303  0.2368  0.5651 -0.5351
  182SLPC  H15R20808   0.923   4.820   4.390 -0.1709 -0.9743 -1.5045
  182SLPC  H15S20809   1.033   4.950   4.344  1.8920 -0.0947 -1.3365
  182SLPC  C21620810   1.074   4.764   4.256 -0.0697 -0.0184  0.0305
  182SLPC  H16R20811   1.141   4.803   4.177  2.7333 -4.0506  0.0540
  182SLPC  H16S20812   1.014   4.684   4.207 -1.6850  0.5825  0.9719
  182SLPC  C21720813   1.163   4.707   4.361  0.7065 -0.5255 -0.3489
  182SLPC  H17R20814   1.097   4.661   4.437 -2.3600  2.6434 -0.8756
  182SLPC  H17S20815   1.217   4.794   4.403  0.4700  0.7034 -2.4297
  182SLPC  C21820816   1.262   4.606   4.312  0.4431  0.1297  0.5347
  182SLPC  H18R20817   1.334   4.649   4.239  0.3476 -2.5159 -1.2396
  182SLPC  H18S20818   1.217   4.529   4.247  0.5620  0.4298  0.0941
  182SLPC  H18T20819   1.330   4.560   4.387  1.5473  1.7701  0.5974
  182SLPC   C3320820   1.572   5.550   3.192 -0.1560  0.3536 -0.1909
  182SLPC   H3X20821   1.649   5.623   3.161 -0.2032 -0.3957 -2.1734
  182SLPC   H3Y20822   1.625   5.477   3.258 -1.5637 -1.4952 -1.0081
  182SLPC   C3420823   1.460   5.627   3.266  0.0460 -0.1275  0.3237
  182SLPC   H4X20824   1.373   5.559   3.277 -1.2199  1.5333  1.1008
  182SLPC   H4Y20825   1.423   5.713   3.206 -0.0389 -0.1261  0.3776
  182SLPC   C3520826   1.503   5.668   3.409 -0.5283 -0.1822  0.1013
  182SLPC   H5X20827   1.426   5.738   3.448 -1.0386  0.2416 -1.5615
  182SLPC   H5Y20828   1.600   5.721   3.396 -0.1497 -1.3515 -2.2700
  182SLPC   C3620829   1.507   5.554   3.509  0.1164  0.5846 -0.6940
  182SLPC   H6X20830   1.571   5.475   3.464 -0.8093 -0.8341  0.3765
  182SLPC   H6Y20831   1.408   5.511   3.534 -0.5538  2.2481 -0.4021
  182SLPC   C3720832   1.541   5.599   3.656 -0.2647  0.3034 -0.0462
  182SLPC   H7X20833   1.455   5.663   3.688  0.4983  1.5693 -0.4593
  182SLPC   H7Y20834   1.630   5.664   3.644 -0.9427  1.0717 -1.1299
  182SLPC   C3820835   1.556   5.493   3.774  0.1629  0.0668  0.0366
  182SLPC   H8X20836   1.650   5.443   3.743 -0.7082 -1.7688  0.2206
  182SLPC   H8Y20837   1.475   5.417   3.766 -1.0298  1.1927  0.9834
  182SLPC   C3920838   1.560   5.554   3.913 -0.7051 -0.5897 -0.0792
  182SLPC   H9X20839   1.458   5.591   3.940 -1.0312 -0.6500 -1.1542
  182SLPC   H9Y20840   1.633   5.636   3.924 -1.6162  0.0489  1.5197
  182SLPC  C31020841   1.600   5.445   4.014 -0.0860  0.2381  0.1050
  182SLPC  H10X20842   1.698   5.400   3.984 -0.1660  0.4699 -0.5282
  182SLPC  H10Y20843   1.534   5.356   4.012  0.1253  0.0886 -0.5822
  182SLPC  C31120844   1.615   5.500   4.155 -0.0490  0.3714  0.7073
  182SLPC  H11X20845   1.520   5.547   4.188 -0.4700  0.8986 -1.1107
  182SLPC  H11Y20846   1.685   5.586   4.165  1.1224 -0.4308 -0.3280
  182SLPC  C31220847   1.661   5.386   4.257  0.9908 -0.1365 -0.3430
  182SLPC  H12X20848   1.769   5.364   4.239  0.9321 -2.7913  1.8107
  182SLPC  H12Y20849   1.603   5.295   4.235 -0.7336  1.0636 -0.9903
  182SLPC  C31320850   1.641   5.419   4.405 -0.3903 -0.5031  0.0445
  182SLPC  H13X20851   1.532   5.415   4.425 -0.2833  0.1395  0.8106
  182SLPC  H13Y20852   1.681   5.519   4.433 -0.2307 -0.5240 -0.1040
  182SLPC  C31420853   1.705   5.317   4.497 -0.9201 -0.1155 -0.2229
  182SLPC  H14X20854   1.677   5.214   4.468  0.6683 -0.4816 -0.5706
  182SLPC  H14Y20855   1.653   5.328   4.595 -1.7800 -0.0774 -0.6775
  182SLPC  C31520856   1.861   5.323   4.504  0.0134  0.0701  0.2117
  182SLPC  H15X20857   1.904   5.420   4.535  2.7298 -1.5666  2.0568
  182SLPC  H15Y20858   1.903   5.296   4.405  2.3025  1.6806  0.6683
  182SLPC  C31620859   1.920   5.225   4.605  0.5102  0.5505  0.7811
  182SLPC  H16X20860   1.888   5.120   4.588 -1.1118  0.3910  4.0556
  182SLPC  H16Y20861   1.889   5.257   4.707  1.5071  0.4573  1.1318
  182SLPC  C31720862   2.073   5.221   4.618 -0.0378 -0.3449  0.4528
  182SLPC  H17X20863   2.106   5.139   4.685  0.5692  1.3686  2.3566
  182SLPC  H17Y20864   2.092   5.316   4.672 -1.7472  0.0659  0.3837
  182SLPC  C31820865   2.153   5.198   4.492  0.2175  0.2286  1.1779
  182SLPC  H18X20866   2.263   5.203   4.508  0.8025 -1.3631 -1.6466
  182SLPC  H18Y20867   2.118   5.270   4.415  0.3239 -0.2879  0.6388
  182SLPC  H18Z20868   2.143   5.095   4.451 -0.4377  1.0629 -0.8989
  183SLPC     N20869   5.491   3.265   1.745 -0.0646  0.7092 -0.2857
  183SLPC   C1320870   5.624   3.332   1.713  0.0426 -0.4351  0.1713
  183SLPC  H13A20871   5.631   3.328   1.606  2.0460 -0.2221  0.2525
  183SLPC  H13B20872   5.620   3.438   1.735  2.0726 -0.5551  1.4502
  183SLPC  H13C20873   5.712   3.289   1.759  0.6493  0.9165  0.3135
  183SLPC   C1420874   5.494   3.132   1.683 -0.1605  0.1437 -0.3373
  183SLPC  H14A20875   5.505   3.145   1.576 -0.4753 -0.3920 -0.4390
  183SLPC  H14B20876   5.577   3.070   1.713  0.4055  0.1251 -1.8719
  183SLPC  H14C20877   5.407   3.069   1.692  1.5483 -2.1375  1.6199
  183SLPC   C1520878   5.395   3.354   1.683 -0.0310  0.0571  0.5141
  183SLPC  H15A20879   5.291   3.327   1.689 -0.1818  0.0902 -1.4407
  183SLPC  H15B20880   5.403   3.454   1.726 -0.8470  0.2094  0.3195
  183SLPC  H15C20881   5.423   3.350   1.579  1.7054 -1.1692  0.9864
  183SLPC   C1220882   5.475   3.256   1.894 -0.6450  0.0718 -0.1763
  183SLPC  H12A20883   5.459   3.353   1.939 -0.0290  1.5462 -2.9317
  183SLPC  H12B20884   5.569   3.235   1.944 -1.3037 -2.4132  0.1865
  183SLPC   C1120885   5.366   3.166   1.949  0.1283 -0.6234  0.2466
  183SLPC  H11A20886   5.371   3.148   2.058  0.2586 -1.4806  0.1053
  183SLPC  H11B20887   5.381   3.062   1.913  1.9884  0.3444 -2.0340
  183SLPC     P20888   5.171   3.313   2.039 -0.0021  0.3798  0.0557
  183SLPC   O1320889   5.257   3.432   2.063 -0.7022  0.6226 -0.0872
  183SLPC   O1420890   5.036   3.353   2.000 -0.0755  0.3850  1.0341
  183SLPC   O1220891   5.232   3.218   1.922 -0.0176  0.1939 -0.2756
  183SLPC   O1120892   5.168   3.215   2.161 -0.2374  0.0320  0.3105
  183SLPC    C120893   5.082   3.102   2.175 -0.4926  0.1961  0.0896
  183SLPC    HA20894   4.995   3.111   2.107  0.0662 -0.1329 -0.6961
  183SLPC    HB20895   5.133   3.008   2.142 -0.4237  0.5747 -0.9232
  183SLPC    C220896   5.047   3.082   2.324 -0.0738  0.0823  0.0006
  183SLPC    HS20897   5.032   2.973   2.339  1.0385 -0.5673 -2.8378
  183SLPC   O2120898   4.940   3.156   2.379 -0.0354 -0.4061  0.3580
  183SLPC   C2120899   4.822   3.116   2.333  0.1056 -0.6457 -0.1597
  183SLPC   O2220900   4.799   3.023   2.261  0.0884  0.2511  0.0682
  183SLPC   C2220901   4.715   3.195   2.394 -0.1207  0.1004 -0.1299
  183SLPC   H2R20902   4.702   3.296   2.349 -4.3066 -0.2197 -0.0400
  183SLPC   H2S20903   4.620   3.139   2.382  0.7319 -1.2019 -1.0342
  183SLPC    C320904   5.172   3.099   2.417 -0.5167 -0.3879 -0.3138
  183SLPC    HX20905   5.186   3.210   2.413 -3.6176  0.0857 -1.0601
  183SLPC    HY20906   5.262   3.057   2.369 -0.8798 -0.4566 -0.9540
  183SLPC   O3120907   5.158   3.038   2.549  0.4246  0.0782 -0.2977
  183SLPC   C3120908   5.217   3.119   2.643  0.2880 -0.5649 -0.0256
  183SLPC   O3220909   5.271   3.225   2.626  0.6487 -0.0890  0.2565
  183SLPC   C3220910   5.205   3.054   2.784 -0.5821 -0.1552  0.3274
  183SLPC   H2X20911   5.303   3.002   2.796 -0.1745  0.9262  2.0853
  183SLPC   H2Y20912   5.120   2.984   2.774 -1.0045  0.5168 -0.9199
  183SLPC   C2320913   4.752   3.231   2.549  0.0864 -0.1400 -0.1562
  183SLPC   H3R20914   4.664   3.278   2.599 -0.1180 -0.1669 -0.4819
  183SLPC   H3S20915   4.839   3.299   2.558 -0.8376  0.9549  0.7803
  183SLPC   C2420916   4.766   3.102   2.640  0.0117 -0.1859  0.0835
  183SLPC   H4R20917   4.842   3.034   2.595  0.0444 -0.0942 -0.0012
  183SLPC   H4S20918   4.683   3.034   2.670  1.2804 -1.1845  1.4781
  183SLPC   C2520919   4.812   3.140   2.781  1.2096  0.2764 -0.2105
  183SLPC   H5R20920   4.865   3.238   2.786  1.6037  0.1132 -0.9769
  183SLPC   H5S20921   4.883   3.069   2.828  3.0319  1.3160 -1.2546
  183SLPC   C2620922   4.693   3.138   2.884  0.2714  0.7259 -0.2300
  183SLPC   H6R20923   4.647   3.037   2.880  1.8667 -0.0361 -0.1088
  183SLPC   H6S20924   4.618   3.211   2.846  0.6473  0.8450 -0.7596
  183SLPC   C2720925   4.732   3.182   3.029  0.4091  0.5729  0.3898
  183SLPC   H7R20926   4.780   3.282   3.025  0.0737  0.6972 -1.6139
  183SLPC   H7S20927   4.801   3.104   3.068  0.8610  1.2626  0.9734
  183SLPC   C2820928   4.604   3.185   3.118 -0.6352  0.0002 -0.4656
  183SLPC   H8R20929   4.548   3.091   3.136  0.3710 -0.7561 -1.1315
  183SLPC   H8S20930   4.524   3.230   3.056  0.9733  0.2988 -2.4371
  183SLPC   C2920931   4.640   3.265   3.242 -0.4386 -0.2245 -0.4016
  183SLPC   H9R20932   4.731   3.326   3.231 -0.1398 -0.5644  0.0830
  183SLPC  C21020933   4.585   3.257   3.365 -0.2070  1.3140 -0.0091
  183SLPC  H10R20934   4.626   3.321   3.445 -0.1553 -1.2520  2.1859
  183SLPC  C21120935   4.471   3.172   3.413 -0.1491 -0.8096 -0.7441
  183SLPC  H11R20936   4.403   3.147   3.328 -1.0245  0.5539 -0.4769
  183SLPC  H11S20937   4.419   3.235   3.487  0.3390  0.4913 -1.4738
  183SLPC  C21220938   4.523   3.047   3.484 -0.5196 -0.4198  0.0697
  183SLPC  H12R20939   4.607   3.005   3.427 -2.2698  0.2163 -3.1910
  183SLPC  C21320940   4.469   2.993   3.591  0.4227 -0.3950 -0.1756
  183SLPC  H13R20941   4.513   2.899   3.628 -0.9763 -1.5823 -1.3915
  183SLPC  C21420942   4.344   3.038   3.662 -0.1236 -0.0340  0.2365
  183SLPC  H14R20943   4.280   2.947   3.660  0.2206 -0.2966  1.0787
  183SLPC  H14S20944   4.285   3.112   3.602  1.4240  1.4849  0.5111
  183SLPC  C21520945   4.351   3.094   3.805  0.2493 -0.0698  0.6848
  183SLPC  H15R20946   4.249   3.133   3.824  0.3684  2.4611 -2.8328
  183SLPC  H15S20947   4.426   3.176   3.799  0.0254  0.0523 -0.7059
  183SLPC  C21620948   4.396   2.999   3.913  0.0274 -0.4525  0.4450
  183SLPC  H16R20949   4.506   2.991   3.919 -0.0260 -1.4737  0.2966
  183SLPC  H16S20950   4.367   2.898   3.879  1.8470 -0.6281 -0.7118
  183SLPC  C21720951   4.316   3.030   4.037  0.3163  0.1823 -0.8716
  183SLPC  H17R20952   4.206   3.020   4.028  0.1012  0.0581  1.3025
  183SLPC  H17S20953   4.340   3.136   4.060  1.6776 -0.2935  0.0650
  183SLPC  C21820954   4.346   2.944   4.154  0.3426 -0.6165  0.5279
  183SLPC  H18R20955   4.450   2.958   4.193 -0.1419 -2.2299  2.5928
  183SLPC  H18S20956   4.327   2.837   4.133 -2.6591 -0.3603  1.4756
  183SLPC  H18T20957   4.276   2.972   4.236  0.5757  1.9587 -0.0575
  183SLPC   C3320958   5.190   3.154   2.900 -0.3702 -0.3442  0.5778
  183SLPC   H3X20959   5.084   3.181   2.919 -0.2648 -1.5996  3.5099
  183SLPC   H3Y20960   5.241   3.248   2.870 -2.6361  0.7252 -0.0820
  183SLPC   C3420961   5.228   3.100   3.038  0.4581  0.1302  0.4612
  183SLPC   H4X20962   5.217   3.184   3.109  3.4648 -1.5003  3.0959
  183SLPC   H4Y20963   5.332   3.062   3.043  0.4680  0.2004  0.7745
  183SLPC   C3520964   5.141   2.984   3.082  0.5538 -0.2367  0.1490
  183SLPC   H5X20965   5.140   2.906   3.003  0.9377  0.4320 -0.5342
  183SLPC   H5Y20966   5.033   3.008   3.084  0.4593  0.0501 -2.9510
  183SLPC   C3620967   5.186   2.930   3.220 -0.5245  0.2223 -0.0129
  183SLPC   H6X20968   5.297   2.925   3.233 -0.5692 -1.4774 -0.0847
  183SLPC   H6Y20969   5.166   2.823   3.240  1.1874  0.1000  1.3223
  183SLPC   C3720970   5.138   3.021   3.333  0.3049  0.4855 -0.8516
  183SLPC   H7X20971   5.029   3.039   3.318  0.2705  0.7654 -0.2899
  183SLPC   H7Y20972   5.205   3.109   3.340  1.6753 -0.6340  0.7945
  183SLPC   C3820973   5.158   2.956   3.475  0.1293  0.1763  0.4913
  183SLPC   H8X20974   5.103   2.861   3.493  0.5649  0.0831  1.3560
  183SLPC   H8Y20975   5.112   3.028   3.547 -2.2520 -1.3427  0.6234
  183SLPC   C3920976   5.300   2.925   3.524  0.5254  0.0622 -0.1576
  183SLPC   H9X20977   5.353   3.022   3.530  0.1645  0.2749 -0.3781
  183SLPC   H9Y20978   5.363   2.868   3.452  0.6040  0.5663 -0.4872
  183SLPC  C31020979   5.312   2.862   3.667  0.2239 -0.2612  0.2074
  183SLPC  H10X20980   5.251   2.770   3.663 -1.5402  0.8760 -0.3010
  183SLPC  H10Y20981   5.275   2.930   3.748 -2.3386 -0.5525 -0.6336
  183SLPC  C31120982   5.449   2.826   3.716  0.1060  0.5949 -0.3448
  183SLPC  H11X20983   5.522   2.910   3.714  2.1658 -1.1305 -1.1998
  183SLPC  H11Y20984   5.486   2.736   3.663 -1.0393 -0.3809  0.4685
  183SLPC  C31220985   5.459   2.786   3.868 -0.0043  0.7666 -0.1882
  183SLPC  H12X20986   5.562   2.759   3.901 -0.3335 -0.8433 -0.3620
  183SLPC  H12Y20987   5.398   2.695   3.888  2.8380 -1.6373 -1.6157
  183SLPC  C31320988   5.419   2.901   3.963 -0.1569  0.1312  0.8331
  183SLPC  H13X20989   5.326   2.960   3.945  0.2108  0.1235 -1.2870
  183SLPC  H13Y20990   5.501   2.976   3.955  0.0816 -0.3398 -4.8552
  183SLPC  C31420991   5.404   2.858   4.108 -0.0181 -0.5894 -0.9165
  183SLPC  H14X20992   5.318   2.789   4.126 -0.5432 -0.4703 -2.7630
  183SLPC  H14Y20993   5.394   2.953   4.164  2.6922 -0.0913 -1.1758
  183SLPC  C31520994   5.520   2.769   4.169 -0.5369  0.0511  0.1850
  183SLPC  H15X20995   5.620   2.813   4.151  0.2665 -1.8264 -0.1785
  183SLPC  H15Y20996   5.530   2.669   4.121 -1.2161  0.2180 -0.3221
  183SLPC  C31620997   5.503   2.770   4.326 -0.1803  0.0062  0.3133
  183SLPC  H16X20998   5.411   2.709   4.334 -1.2343  1.1612 -1.9683
  183SLPC  H16Y20999   5.474   2.868   4.370 -1.2406 -0.0779 -0.1770
  183SLPC  C31721000   5.614   2.709   4.407 -0.1623  0.7318  0.6058
  183SLPC  H17X21001   5.704   2.772   4.421  0.2478  0.4050 -0.4931
  183SLPC  H17Y21002   5.640   2.619   4.347 -2.1825  1.4019 -1.4245
  183SLPC  C31821003   5.572   2.658   4.537 -0.5505  0.0153 -0.4402
  183SLPC  H18X21004   5.505   2.570   4.530  0.3646 -0.7215 -0.0893
  183SLPC  H18Y21005   5.510   2.733   4.590  0.5462  1.0582 -0.5965
  183SLPC  H18Z21006   5.657   2.642   4.607 -0.4152  1.0992 -0.3378
  184SLPC     N21007   5.928   1.200   1.744  0.4622  0.0461  0.0736
  184SLPC   C1321008   5.997   1.187   1.608 -0.0334  0.1177 -0.6378
  184SLPC  H13A21009   5.990   1.084   1.577 -0.3254  0.5551 -2.1421
  184SLPC  H13B21010   5.948   1.254   1.538  2.1850  2.5376 -0.0341
  184SLPC  H13C21011   6.102   1.205   1.622 -0.4089  1.7446  0.4065
  184SLPC   C1421012   5.989   1.116   1.846  0.4167 -0.3186  0.1127
  184SLPC  H14A21013   5.928   1.102   1.934  0.5006  1.0890  0.4259
  184SLPC  H14B21014   5.998   1.019   1.800 -1.0842 -0.2443 -0.3925
  184SLPC  H14C21015   6.088   1.149   1.873  1.3386  1.3341 -4.4176
  184SLPC   C1521016   5.782   1.156   1.730  0.1264  0.6161 -0.0274
  184SLPC  H15A21017   5.720   1.170   1.818  0.8304  0.2570  0.5339
  184SLPC  H15B21018   5.732   1.210   1.651  0.5538 -0.2726 -0.9217
  184SLPC  H15C21019   5.778   1.056   1.690  1.4945  0.4673  0.1707
  184SLPC   C1221020   5.936   1.347   1.786 -0.2747  0.5180 -0.8750
  184SLPC  H12A21021   5.886   1.362   1.880  0.9447 -0.3100 -0.0696
  184SLPC  H12B21022   5.879   1.406   1.715 -0.8483 -0.4083 -1.2009
  184SLPC   C1121023   6.070   1.427   1.793 -0.3520  0.9086 -0.4828
  184SLPC  H11A21024   6.066   1.537   1.803 -2.2422  1.0555 -2.2867
  184SLPC  H11B21025   6.124   1.410   1.697  0.8357  0.8769  0.1628
  184SLPC     P21026   6.210   1.443   2.020  0.1938 -0.3003  0.0626
  184SLPC   O1321027   6.315   1.357   2.080 -0.0503 -0.3808 -0.4489
  184SLPC   O1421028   6.254   1.578   1.976 -0.5863  0.2020  0.4860
  184SLPC   O1221029   6.148   1.367   1.896 -0.3347  0.0159  0.3630
  184SLPC   O1121030   6.085   1.448   2.125 -0.0433  0.4705  0.3648
  184SLPC    C121031   6.012   1.334   2.170  0.3339 -0.4392  0.1649
  184SLPC    HA21032   5.902   1.352   2.158  0.0350 -0.2015  2.8270
  184SLPC    HB21033   6.038   1.244   2.111  0.1773 -0.6870  0.4752
  184SLPC    C221034   6.048   1.316   2.331  0.2514 -0.3528  0.2224
  184SLPC    HS21035   5.966   1.253   2.372 -0.5246 -0.1368 -0.9352
  184SLPC   O2121036   6.043   1.435   2.403  0.0128 -0.1880 -0.0888
  184SLPC   C2121037   5.922   1.493   2.412 -0.6629 -0.2843 -0.5571
  184SLPC   O2221038   5.823   1.454   2.358  0.0449 -0.1534  0.2226
  184SLPC   C2221039   5.927   1.609   2.510  0.2624 -1.2524  0.2378
  184SLPC   H2R21040   5.995   1.692   2.482 -1.7699  0.5641  0.4319
  184SLPC   H2S21041   5.824   1.651   2.508 -0.4427 -2.6970  2.3243
  184SLPC    C321042   6.180   1.237   2.348 -0.2001  0.0146 -0.4549
  184SLPC    HX21043   6.253   1.303   2.297  1.2129 -1.3059 -0.2288
  184SLPC    HY21044   6.182   1.142   2.289  3.6671 -0.3997  0.1296
  184SLPC   O3121045   6.216   1.206   2.486 -0.0761 -0.6378  0.8856
  184SLPC   C3121046   6.281   1.300   2.553 -0.0071 -0.3459  0.1432
  184SLPC   O3221047   6.322   1.408   2.516  0.1645 -0.4731  0.3473
  184SLPC   C3221048   6.303   1.253   2.696 -0.1186  0.0958  0.0733
  184SLPC   H2X21049   6.400   1.199   2.701 -0.2724 -0.1004  1.0962
  184SLPC   H2Y21050   6.217   1.195   2.735 -2.3035  3.4800  0.6898
  184SLPC   C2321051   5.957   1.567   2.662  0.2951 -0.4618 -0.0332
  184SLPC   H3R21052   6.060   1.527   2.673  0.0976 -0.9736 -0.0075
  184SLPC   H3S21053   5.886   1.487   2.692  0.3350 -0.2692  0.5835
  184SLPC   C2421054   5.948   1.685   2.762 -0.1344  0.2573 -0.2244
  184SLPC   H4R21055   5.841   1.715   2.767 -0.0229  0.5060  0.9894
  184SLPC   H4S21056   6.010   1.773   2.734 -1.1625  0.7233 -1.1353
  184SLPC   C2521057   5.986   1.642   2.908 -0.2746 -0.3669 -0.4568
  184SLPC   H5R21058   6.096   1.626   2.908  0.0836  1.8021 -0.6207
  184SLPC   H5S21059   5.930   1.556   2.951 -0.4135 -0.9990 -1.8476
  184SLPC   C2621060   5.956   1.750   3.012  0.1745 -0.6548 -0.2327
  184SLPC   H6R21061   5.846   1.767   3.014  0.0805 -1.2148  1.7411
  184SLPC   H6S21062   6.011   1.837   2.971 -0.4195 -0.4870 -0.6929
  184SLPC   C2721063   6.006   1.717   3.156  0.3448 -0.1863  0.0871
  184SLPC   H7R21064   6.110   1.678   3.151  0.0139 -1.0296 -0.5257
  184SLPC   H7S21065   5.964   1.623   3.196 -0.8250  1.0676  1.9699
  184SLPC   C2821066   6.001   1.839   3.254 -0.4439 -0.8395  0.2802
  184SLPC   H8R21067   5.902   1.884   3.231 -0.6290 -1.1558  0.4671
  184SLPC   H8S21068   6.082   1.910   3.225 -0.3458 -0.6285  1.0433
  184SLPC   C2921069   6.017   1.789   3.397 -0.0940  0.1137  0.3075
  184SLPC   H9R21070   6.123   1.803   3.422  0.8084 -3.4545 -0.9606
  184SLPC  C21021071   5.925   1.762   3.494  0.5701  0.2162  0.5963
  184SLPC  H10R21072   5.968   1.727   3.589  0.6652 -1.6382 -0.0859
  184SLPC  C21121073   5.777   1.778   3.468  0.0992 -0.4518 -0.8178
  184SLPC  H11R21074   5.732   1.709   3.543  0.4127  1.5661  1.3445
  184SLPC  H11S21075   5.751   1.758   3.362  0.0058  2.6997 -1.4968
  184SLPC  C21221076   5.739   1.919   3.506  0.2212  0.6931  0.3453
  184SLPC  H12R21077   5.790   1.995   3.446 -0.9718  1.5190  0.3507
  184SLPC  C21321078   5.661   1.944   3.615  0.1943 -0.2814  0.0277
  184SLPC  H13R21079   5.656   2.050   3.645 -0.1872 -0.5814  1.0941
  184SLPC  C21421080   5.570   1.843   3.688  0.2368 -0.6460 -0.2302
  184SLPC  H14R21081   5.603   1.810   3.789  1.3139 -1.4403 -0.8259
  184SLPC  H14S21082   5.558   1.752   3.627  0.9653 -0.2375 -1.0038
  184SLPC  C21521083   5.437   1.905   3.690  0.2925  0.0130 -0.3399
  184SLPC  H15R21084   5.402   1.909   3.584 -0.9803  0.4074  0.0709
  184SLPC  H15S21085   5.425   2.009   3.728 -2.7631  0.6113 -2.5595
  184SLPC  C21621086   5.332   1.819   3.767 -0.2493  0.5717  0.3877
  184SLPC  H16R21087   5.367   1.797   3.870 -1.9291 -3.3397  0.3243
  184SLPC  H16S21088   5.320   1.718   3.722 -0.2369  1.4217 -1.6500
  184SLPC  C21721089   5.190   1.895   3.796 -0.3086  0.8315  0.3097
  184SLPC  H17R21090   5.157   1.929   3.695 -0.8652  1.5276  0.7134
  184SLPC  H17S21091   5.217   1.985   3.855 -0.8646  1.2774 -0.0984
  184SLPC  C21821092   5.081   1.807   3.855  0.3164 -0.2722 -0.2405
  184SLPC  H18R21093   5.105   1.761   3.953  0.7774 -1.6261 -0.9609
  184SLPC  H18S21094   5.060   1.720   3.788  0.2804  0.8370 -1.7216
  184SLPC  H18T21095   4.982   1.852   3.878  0.1984 -0.9778  0.6796
  184SLPC   C3321096   6.334   1.373   2.784  0.1002 -0.4162  0.0608
  184SLPC   H3X21097   6.247   1.442   2.791 -1.0054 -1.7827  0.0587
  184SLPC   H3Y21098   6.418   1.431   2.738 -0.4872  1.4837  1.2684
  184SLPC   C3421099   6.369   1.330   2.925  0.1333  0.1069 -0.1794
  184SLPC   H4X21100   6.473   1.291   2.921  0.6346  1.4368 -0.9430
  184SLPC   H4Y21101   6.311   1.239   2.951 -2.2153  0.9583 -2.0372
  184SLPC   C3521102   6.362   1.437   3.027 -1.0803 -0.1476 -0.3305
  184SLPC   H5X21103   6.257   1.475   3.034 -1.2414 -0.2605 -1.8557
  184SLPC   H5Y21104   6.430   1.517   2.993 -0.2909 -0.7232 -0.1210
  184SLPC   C3621105   6.411   1.390   3.168 -0.2284  0.7001 -0.2661
  184SLPC   H6X21106   6.519   1.365   3.161 -0.2715  0.9864 -2.8666
  184SLPC   H6Y21107   6.366   1.291   3.190  0.2483  0.3080 -1.0207
  184SLPC   C3721108   6.382   1.493   3.283 -0.0523  0.5292  0.5587
  184SLPC   H7X21109   6.274   1.512   3.271 -0.2113  0.2647  1.4930
  184SLPC   H7Y21110   6.434   1.591   3.280  0.0200  0.4817 -1.9150
  184SLPC   C3821111   6.407   1.442   3.428  0.2747  0.5731  0.6621
  184SLPC   H8X21112   6.514   1.463   3.451  0.1010  1.0416  1.0436
  184SLPC   H8Y21113   6.397   1.331   3.427 -1.6948  0.7063 -0.9690
  184SLPC   C3921114   6.312   1.503   3.531 -0.1498 -0.2575 -0.2348
  184SLPC   H9X21115   6.288   1.432   3.612 -2.0542 -1.6544 -1.9185
  184SLPC   H9Y21116   6.219   1.505   3.470  0.5627 -0.3066 -1.3692
  184SLPC  C31021117   6.329   1.647   3.600  0.3335  0.4172 -0.4572
  184SLPC  H10X21118   6.314   1.723   3.520 -0.5100 -0.2930 -0.9937
  184SLPC  H10Y21119   6.437   1.656   3.624  0.9327  0.0792 -2.8081
  184SLPC  C31121120   6.234   1.664   3.722 -0.0955  0.0259 -0.6264
  184SLPC  H11X21121   6.265   1.587   3.796 -0.8992  0.6504  0.3808
  184SLPC  H11Y21122   6.132   1.646   3.682  0.3004 -0.4300 -1.4521
  184SLPC  C31221123   6.243   1.803   3.787  0.3630  0.7740 -0.3121
  184SLPC  H12X21124   6.178   1.863   3.719 -0.7158 -1.5172 -1.4369
  184SLPC  H12Y21125   6.348   1.838   3.781  0.9567 -1.1096 -2.9292
  184SLPC  C31321126   6.198   1.807   3.938 -0.5358  0.7200  0.2755
  184SLPC  H13X21127   6.267   1.740   3.994  1.2725  2.9550  0.9246
  184SLPC  H13Y21128   6.094   1.774   3.958 -0.0216 -0.9513  0.3038
  184SLPC  C31421129   6.229   1.947   3.998  0.2446 -0.0937 -0.0097
  184SLPC  H14X21130   6.189   2.029   3.935  1.3182 -0.3370 -1.0342
  184SLPC  H14Y21131   6.336   1.975   3.999 -0.0026  0.9135  0.5085
  184SLPC  C31521132   6.167   1.968   4.137 -0.2091  0.4736 -0.6388
  184SLPC  H15X21133   6.198   1.892   4.212  0.0801  1.2626  0.0619
  184SLPC  H15Y21134   6.056   1.964   4.133 -0.3107  0.3826  1.4090
  184SLPC  C31621135   6.193   2.099   4.208  0.0499 -0.4343  0.0045
  184SLPC  H16X21136   6.121   2.119   4.290  0.5152  2.3679 -0.1716
  184SLPC  H16Y21137   6.179   2.177   4.130 -0.7610  1.1340  1.6326
  184SLPC  C31721138   6.337   2.103   4.259 -0.3757  0.2551  0.6136
  184SLPC  H17X21139   6.399   2.116   4.168  0.1339 -0.1253  0.8983
  184SLPC  H17Y21140   6.353   2.007   4.313 -1.4084 -0.7213 -0.7529
  184SLPC  C31821141   6.363   2.226   4.349 -0.1413  0.1455 -0.1378
  184SLPC  H18X21142   6.289   2.220   4.431  0.2838 -0.6244  0.1949
  184SLPC  H18Y21143   6.344   2.323   4.298 -0.5910 -0.1187 -0.4833
  184SLPC  H18Z21144   6.464   2.212   4.394 -0.7270 -1.2545  0.8160
  185POPC     N21145   0.613   4.470   6.869  0.0660  0.2160  0.2277
  185POPC   C1221146   0.707   4.594   6.864 -0.2975  1.0862 -0.6399
  185POPC  H12A21147   0.686   4.631   6.765 -0.2066  0.9184 -0.7233
  185POPC  H12B21148   0.808   4.557   6.876  0.2166  2.3166 -1.0042
  185POPC   C1321149   0.474   4.505   6.837  0.2911  0.0136  0.4514
  185POPC  H13A21150   0.415   4.419   6.809  0.0562  0.6477 -1.1073
  185POPC  H13B21151   0.430   4.556   6.921  1.1063  2.0337 -0.2819
  185POPC  H13C21152   0.466   4.565   6.747 -1.6702  0.7111  1.0342
  185POPC   C1421153   0.657   4.359   6.775 -0.8743 -0.5200  0.3707
  185POPC  H14A21154   0.762   4.337   6.788 -0.4941  1.6236  1.3333
  185POPC  H14B21155   0.606   4.265   6.793 -0.9651 -0.5005  0.2198
  185POPC  H14C21156   0.646   4.388   6.671  0.8863  0.7948  0.5207
  185POPC   C1521157   0.618   4.403   7.003  0.1985 -0.0812  0.1107
  185POPC  H15A21158   0.551   4.318   7.012  1.9100 -1.3438  1.7163
  185POPC  H15B21159   0.595   4.478   7.076  0.1918 -0.5882  0.6382
  185POPC  H15C21160   0.718   4.369   7.026  0.5250  0.6700 -0.1660
  185POPC   C1121161   0.689   4.702   6.973 -0.9015  0.3283  0.0941
  185POPC  H11A21162   0.762   4.782   6.946  1.0325 -1.4303 -0.0976
  185POPC  H11B21163   0.721   4.671   7.075  2.0595  2.4671 -0.0547
  185POPC     P21164   0.507   4.868   6.915  0.0844  0.1988  0.0095
  185POPC   O1321165   0.523   4.979   7.014 -0.1230  0.0472 -0.8403
  185POPC   O1421166   0.375   4.843   6.854  0.1541  0.0802 -0.0885
  185POPC   O1221167   0.552   4.739   6.989 -0.1372 -0.6192 -0.3168
  185POPC   O1121168   0.606   4.898   6.797  0.7387  0.3819  0.0542
  185POPC    C121169   0.611   5.031   6.746 -0.3519  0.7779 -0.1945
  185POPC    HA21170   0.640   5.099   6.829  0.2956  1.7247 -1.1647
  185POPC    HB21171   0.514   5.057   6.699 -1.6055 -1.0515  1.2214
  185POPC    C221172   0.728   5.051   6.646 -0.1413  0.6190 -0.3398
  185POPC    HS21173   0.737   5.162   6.646  1.0468  0.5668  1.7828
  185POPC   O2121174   0.680   5.009   6.520 -0.0115 -0.2622  0.3223
  185POPC   C2121175   0.748   5.049   6.415  0.2802 -0.3640 -0.0950
  185POPC   O2221176   0.814   5.154   6.413 -0.2836 -0.4749  0.2387
  185POPC   C2221177   0.764   4.929   6.314 -0.0913  0.4877  0.3794
  185POPC   H2R21178   0.666   4.876   6.312 -0.2557  0.8114 -0.9415
  185POPC   H2S21179   0.838   4.855   6.351  0.1368  0.9404  0.8393
  185POPC    C321180   0.856   4.982   6.679 -0.3238  0.2590 -0.1276
  185POPC    HX21181   0.834   4.874   6.664  2.0107 -0.0169 -2.1281
  185POPC    HY21182   0.889   4.989   6.784 -1.9529 -2.7179  0.6979
  185POPC   O3121183   0.971   5.017   6.598 -0.6692 -0.2619  0.3833
  185POPC   C3121184   1.030   5.131   6.629  0.2761  0.1850 -0.4890
  185POPC   O3221185   0.986   5.220   6.702  0.3036 -0.2023  0.3343
  185POPC   C3221186   1.162   5.138   6.555 -0.2342  0.4474 -0.2300
  185POPC   H2X21187   1.240   5.084   6.613 -0.7439  0.6111  0.6268
  185POPC   H2Y21188   1.198   5.243   6.558 -0.8270  0.6858 -1.1161
  185POPC   C2321189   0.803   4.978   6.177 -0.2026  0.1416  0.5029
  185POPC   H3R21190   0.909   5.012   6.184  0.0043 -0.2884 -0.4164
  185POPC   H3S21191   0.750   5.074   6.159 -1.2129  0.0707  2.7161
  185POPC   C2421192   0.771   4.881   6.061  0.4531  0.0532 -0.5615
  185POPC   H4R21193   0.665   4.847   6.066 -0.3643  2.4011 -1.0122
  185POPC   H4S21194   0.832   4.788   6.072 -1.0600 -1.0229 -0.8630
  185POPC   C2521195   0.802   4.952   5.926 -0.0055 -0.5254 -1.0177
  185POPC   H5R21196   0.912   4.960   5.912  0.2829 -3.7611 -1.3402
  185POPC   H5S21197   0.752   5.051   5.932  0.7955 -0.1681  1.1400
  185POPC   C2621198   0.765   4.878   5.796 -0.2511  0.7838 -0.4974
  185POPC   H6R21199   0.654   4.869   5.791 -0.0652 -3.1154 -0.8879
  185POPC   H6S21200   0.801   4.773   5.793 -0.5358  0.5846  1.6865
  185POPC   C2721201   0.814   4.961   5.672 -0.2389 -0.7096 -0.6370
  185POPC   H7R21202   0.925   4.965   5.680 -0.3762 -0.1359  3.3547
  185POPC   H7S21203   0.781   5.067   5.678  2.5065  0.2442 -0.7580
  185POPC   C2821204   0.789   4.904   5.533 -0.3269  0.1826  0.4137
  185POPC   H8R21205   0.679   4.902   5.520 -0.0471 -0.8821 -2.5489
  185POPC   H8S21206   0.809   4.795   5.539 -2.2228 -0.2525 -0.3258
  185POPC   C2921207   0.868   4.963   5.414  0.0229 -0.3295  0.0999
  185POPC   H9121208   0.959   5.009   5.453 -0.1432 -0.0890  0.2090
  185POPC  C21021209   0.828   4.975   5.288 -0.4566  1.1041  0.3485
  185POPC  H10121210   0.905   5.030   5.232 -0.4749 -1.3665 -2.3825
  185POPC  C21121211   0.709   4.919   5.218  0.1163  0.3225  1.1996
  185POPC  H11R21212   0.646   4.993   5.165 -1.6150 -1.2632  0.9568
  185POPC  H11S21213   0.640   4.881   5.296 -0.9224  0.1674  0.2305
  185POPC  C21221214   0.758   4.806   5.125 -0.5379 -0.5960 -0.6615
  185POPC  H12R21215   0.814   4.741   5.194 -2.1938 -2.1578 -0.7190
  185POPC  H12S21216   0.810   4.853   5.039 -3.6032  1.6945 -1.4392
  185POPC  C21321217   0.644   4.722   5.067  0.1234 -0.2345  0.2285
  185POPC  H13R21218   0.576   4.685   5.147 -0.1393 -0.3691 -0.0585
  185POPC  H13S21219   0.685   4.631   5.019 -1.5124 -0.9224  0.0875
  185POPC  C21421220   0.548   4.796   4.975  0.0290  0.2467  0.3757
  185POPC  H14R21221   0.615   4.856   4.910 -0.5249  0.9626  0.4507
  185POPC  H14S21222   0.483   4.862   5.037 -0.3770  0.4932 -0.2962
  185POPC  C21521223   0.453   4.708   4.888  0.2805  0.1775  0.2510
  185POPC  H15R21224   0.386   4.643   4.947  0.7186  0.1425  0.7187
  185POPC  H15S21225   0.517   4.639   4.828  0.6582  0.6151  0.1401
  185POPC  C21621226   0.378   4.802   4.788 -1.1124 -0.2482 -0.0639
  185POPC  H16R21227   0.453   4.832   4.712 -1.3818  0.4462 -0.0640
  185POPC  H16S21228   0.348   4.897   4.837 -0.1354 -0.7223  1.5443
  185POPC  C21721229   0.255   4.746   4.715 -0.4883 -0.8413  0.3645
  185POPC  H17R21230   0.177   4.728   4.792 -0.9568 -0.1929  0.0486
  185POPC  H17S21231   0.280   4.653   4.659 -0.7410 -1.1377  0.7358
  185POPC  C21821232   0.188   4.830   4.608  0.2484  0.3104  0.8853
  185POPC  H18R21233   0.245   4.849   4.514 -0.8185 -1.2116 -0.1103
  185POPC  H18S21234   0.154   4.926   4.652  1.6858  0.5674  1.5176
  185POPC  H18T21235   0.108   4.767   4.565 -0.1139  0.8225  0.7929
  185POPC   C3321236   1.147   5.085   6.416 -0.7604  0.6523  0.8282
  185POPC   H3X21237   1.055   5.120   6.364 -0.5428 -0.2349 -0.2090
  185POPC   H3Y21238   1.132   4.975   6.421 -0.8766  0.7089  5.0694
  185POPC   C3421239   1.260   5.130   6.331 -0.5554 -0.4529 -0.5984
  185POPC   H4X21240   1.354   5.102   6.382 -1.1665  0.6656  1.2689
  185POPC   H4Y21241   1.277   5.240   6.332  1.4940 -0.6225  3.4800
  185POPC   C3521242   1.253   5.097   6.187  0.6848 -0.0829  0.6896
  185POPC   H5X21243   1.176   5.165   6.144  0.4256 -0.7059  0.1503
  185POPC   H5Y21244   1.218   4.994   6.164 -0.6441  0.8708 -1.9446
  185POPC   C3621245   1.386   5.127   6.115 -0.0905 -0.3686 -0.2206
  185POPC   H6X21246   1.469   5.065   6.155 -0.4986 -2.1068 -1.9051
  185POPC   H6Y21247   1.404   5.236   6.119 -0.4445 -0.2247 -2.0540
  185POPC   C3721248   1.379   5.092   5.965 -0.5058  0.4740 -0.4934
  185POPC   H7X21249   1.349   4.987   5.945 -1.5696  1.0293 -1.9887
  185POPC   H7Y21250   1.486   5.099   5.934 -0.4488  2.1727 -0.0290
  185POPC   C3821251   1.286   5.180   5.881  0.5752 -1.0788 -1.0625
  185POPC   H8X21252   1.322   5.284   5.895 -1.8765 -0.5000  1.9100
  185POPC   H8Y21253   1.192   5.181   5.939  0.0631  1.2697 -1.8287
  185POPC   C3921254   1.276   5.120   5.741 -0.2426 -1.0747 -0.2254
  185POPC   H9X21255   1.184   5.152   5.687 -0.6744  1.4564  1.8188
  185POPC   H9Y21256   1.269   5.010   5.756  3.0711 -1.5227 -1.3307
  185POPC  C31021257   1.398   5.158   5.653 -0.5719 -0.0096 -0.2963
  185POPC  H10X21258   1.482   5.103   5.701 -0.1649 -0.7190 -1.7587
  185POPC  H10Y21259   1.409   5.269   5.653 -1.7518  0.1530  2.0309
  185POPC  C31121260   1.384   5.096   5.512  0.0889  0.2222  0.2532
  185POPC  H11X21261   1.379   4.985   5.511  0.5894  0.1609  2.0174
  185POPC  H11Y21262   1.470   5.133   5.453  0.3624 -0.3682  0.2788
  185POPC  C31221263   1.265   5.155   5.442 -0.2822  0.6890 -0.6162
  185POPC  H12X21264   1.258   5.261   5.474 -1.9713  0.4214  0.0433
  185POPC  H12Y21265   1.182   5.096   5.487 -2.0938  3.1039 -0.5989
  185POPC  C31321266   1.258   5.139   5.284  0.0416 -0.6035 -0.0850
  185POPC  H13X21267   1.358   5.163   5.241  0.5174  1.5562  1.9726
  185POPC  H13Y21268   1.181   5.205   5.239  0.7617  1.5136  1.6017
  185POPC  C31421269   1.224   4.999   5.247 -0.2064  0.2169 -0.2688
  185POPC  H14X21270   1.131   4.974   5.303  0.1961 -1.2037 -0.1978
  185POPC  H14Y21271   1.291   4.921   5.291 -0.3955 -0.0694 -0.4795
  185POPC  C31521272   1.199   4.992   5.101  0.7475  0.1240  0.2631
  185POPC  H15X21273   1.294   4.987   5.044  1.4414  2.1074  1.1865
  185POPC  H15Y21274   1.149   5.088   5.076 -1.3386 -0.9109  0.1780
  185POPC  C31621275   1.116   4.867   5.055 -0.1232 -0.3820  0.0526
  185POPC  H16X21276   1.157   4.786   5.119  0.9001  0.9241  1.1452
  185POPC  H16Y21277   1.131   4.857   4.946  0.4223 -1.0232  0.1820
  185POPC  H16Z21278   1.007   4.883   5.071 -0.2583 -0.3497 -0.8469
  186POPC     N21279   2.348   5.706   7.121  0.2261 -0.1844  0.1012
  186POPC   C1221280   2.397   5.672   6.978 -0.3573  0.2022  0.1137
  186POPC  H12A21281   2.347   5.734   6.905 -0.2748 -1.0713 -1.0627
  186POPC  H12B21282   2.377   5.568   6.955  0.9612 -0.2678  0.9394
  186POPC   C1321283   2.431   5.652   7.228 -0.4258  0.0932 -0.0388
  186POPC  H13A21284   2.530   5.693   7.219  0.6351 -2.1961  0.3886
  186POPC  H13B21285   2.384   5.666   7.324 -1.1114  1.1786 -0.5137
  186POPC  H13C21286   2.461   5.549   7.214  2.0248  1.0290 -2.2506
  186POPC   C1421287   2.343   5.856   7.132  0.6657 -0.3251  0.2244
  186POPC  H14A21288   2.439   5.902   7.112  0.8926 -2.0537 -3.3958
  186POPC  H14B21289   2.291   5.888   7.043  0.2352  1.5529  1.0969
  186POPC  H14C21290   2.297   5.900   7.219  0.7685  0.0844  0.0721
  186POPC   C1521291   2.202   5.665   7.139 -0.4778  0.5480 -0.2709
  186POPC  H15A21292   2.163   5.684   7.238  1.3625 -0.4365  0.7113
  186POPC  H15B21293   2.188   5.559   7.124 -2.4457  0.7861 -0.3998
  186POPC  H15C21294   2.138   5.699   7.060 -2.3030 -2.1254 -0.0639
  186POPC   C1121295   2.549   5.688   6.947 -0.2835 -0.3397 -0.4730
  186POPC  H11A21296   2.566   5.634   6.851  1.4115 -0.5325 -0.1063
  186POPC  H11B21297   2.615   5.643   7.025 -0.7493  1.4077  0.9720
  186POPC     P21298   2.629   5.891   6.793 -0.3007  0.3472 -0.1877
  186POPC   O1321299   2.738   5.813   6.728  0.1349  0.8073  0.6207
  186POPC   O1421300   2.656   6.031   6.807  0.0527  0.4494 -0.0807
  186POPC   O1221301   2.592   5.829   6.934  0.1246  0.1778 -0.0191
  186POPC   O1121302   2.497   5.877   6.716  0.4968  0.2460  0.4151
  186POPC    C121303   2.390   5.971   6.723  0.0823 -0.3057  0.1280
  186POPC    HA21304   2.415   6.067   6.775  0.7099  0.9731 -2.3983
  186POPC    HB21305   2.301   5.913   6.755  0.6173 -0.9849  0.4174
  186POPC    C221306   2.353   6.019   6.571  0.5731 -0.3086  0.2305
  186POPC    HS21307   2.279   6.100   6.582 -0.9050 -1.6722  0.7368
  186POPC   O2121308   2.292   5.914   6.485 -0.6335 -0.1019  0.1364
  186POPC   C2121309   2.161   5.906   6.501  0.3822  0.7068 -0.5605
  186POPC   O2221310   2.090   5.966   6.582 -0.4729 -0.0198 -0.0220
  186POPC   C2221311   2.107   5.802   6.400 -0.2552  0.5125  0.2463
  186POPC   H2R21312   2.015   5.757   6.440  0.4116 -1.5231 -0.3955
  186POPC   H2S21313   2.179   5.718   6.405  0.2384  1.0002  2.2553
  186POPC    C321314   2.482   6.085   6.503 -0.1362 -0.5607  0.6916
  186POPC    HX21315   2.548   5.996   6.494 -1.8071 -1.6589 -2.0743
  186POPC    HY21316   2.514   6.174   6.562  1.6396 -0.3279 -0.5267
  186POPC   O3121317   2.456   6.120   6.365  0.4492  0.6029 -0.0157
  186POPC   C3121318   2.550   6.182   6.295 -0.0346 -0.5794  0.3504
  186POPC   O3221319   2.662   6.206   6.339 -0.5523  0.2161  0.4891
  186POPC   C3221320   2.480   6.206   6.159 -1.1925 -0.4754  0.9266
  186POPC   H2X21321   2.424   6.299   6.181 -0.2701  0.1574  0.6841
  186POPC   H2Y21322   2.405   6.125   6.150 -3.6467  1.5613  1.9938
  186POPC   C2321323   2.108   5.854   6.256 -0.9122  0.5227 -0.7255
  186POPC   H3R21324   2.090   5.772   6.183 -1.4575  0.6565 -0.7438
  186POPC   H3S21325   2.209   5.896   6.237 -0.4439 -1.0553 -1.9212
  186POPC   C2421326   2.012   5.972   6.239 -0.0582 -0.3785 -0.4772
  186POPC   H4R21327   2.045   6.065   6.291 -1.2386 -0.0480 -0.2903
  186POPC   H4S21328   1.919   5.955   6.296  0.4741 -1.0283  0.2143
  186POPC   C2521329   1.966   6.007   6.100  0.0401 -0.4929  0.4435
  186POPC   H5R21330   1.914   6.105   6.094  2.0175  0.6236  0.8710
  186POPC   H5S21331   1.892   5.931   6.066  0.5424 -0.7921  0.0074
  186POPC   C2621332   2.085   6.010   5.995 -0.0713 -0.1013  0.0412
  186POPC   H6R21333   2.115   5.905   5.976  1.1833  0.1433  0.5966
  186POPC   H6S21334   2.161   6.076   6.041 -1.9045  1.8114  0.4867
  186POPC   C2721335   2.046   6.070   5.858 -0.4993 -0.0493  0.0366
  186POPC   H7R21336   2.029   6.179   5.865  0.5296  0.0209  2.1610
  186POPC   H7S21337   1.949   6.022   5.833 -1.1890 -0.6081  3.3288
  186POPC   C2821338   2.164   6.045   5.760 -0.0791 -0.1128  0.5875
  186POPC   H8R21339   2.206   5.942   5.763  1.0289  0.3646  2.2039
  186POPC   H8S21340   2.244   6.108   5.803  0.8734 -0.9889  0.1423
  186POPC   C2921341   2.135   6.094   5.618  0.1275 -0.1658 -0.9749
  186POPC   H9121342   2.131   6.204   5.612  3.8272 -0.0015 -3.0058
  186POPC  C21021343   2.106   6.018   5.518 -0.4431  0.6504  0.2047
  186POPC  H10121344   2.095   6.067   5.420  2.2422  0.7915 -0.0857
  186POPC  C21121345   2.104   5.870   5.501 -0.2840 -0.0907  0.1255
  186POPC  H11R21346   2.011   5.842   5.447 -1.0612  2.3440  0.0697
  186POPC  H11S21347   2.090   5.815   5.597 -1.0146  2.1828  1.4035
  186POPC  C21221348   2.227   5.804   5.436 -0.8302  0.4790  0.0583
  186POPC  H12R21349   2.207   5.695   5.439  0.5162  0.2205  2.5963
  186POPC  H12S21350   2.321   5.824   5.491  0.3254 -1.6080 -1.0433
  186POPC  C21321351   2.233   5.844   5.290 -0.0629 -0.5459  0.5181
  186POPC  H13R21352   2.242   5.955   5.294 -0.9728 -0.4891  1.5393
  186POPC  H13S21353   2.135   5.830   5.241  0.3845  2.6895 -1.6407
  186POPC  C21421354   2.345   5.776   5.218  0.1465  0.0918  0.6036
  186POPC  H14R21355   2.326   5.666   5.216 -0.5706  0.1976 -1.7846
  186POPC  H14S21356   2.440   5.781   5.276  0.0949 -1.9378  0.9578
  186POPC  C21521357   2.360   5.832   5.077 -0.0369 -0.3652 -0.3645
  186POPC  H15R21358   2.361   5.942   5.087  1.1591 -0.3574 -0.4370
  186POPC  H15S21359   2.272   5.800   5.018  0.0504 -0.2100 -0.5768
  186POPC  C21621360   2.491   5.791   5.007 -0.8495 -0.3828 -0.0344
  186POPC  H16R21361   2.562   5.750   5.083  1.0210  0.7158 -1.1011
  186POPC  H16S21362   2.547   5.874   4.959  1.3107 -1.6734  0.0827
  186POPC  C21721363   2.469   5.699   4.892  0.6073 -0.3060 -0.1806
  186POPC  H17R21364   2.381   5.732   4.832  0.8742  1.2912  0.2628
  186POPC  H17S21365   2.450   5.600   4.936 -2.8481  0.7864  1.1035
  186POPC  C21821366   2.592   5.694   4.799  0.6620  0.2084  0.0385
  186POPC  H18R21367   2.688   5.670   4.849  1.0481 -1.5194 -1.4042
  186POPC  H18S21368   2.612   5.787   4.742 -0.4145  0.4455  0.0319
  186POPC  H18T21369   2.577   5.603   4.737 -2.2915 -0.7606  1.9863
  186POPC   C3321370   2.572   6.246   6.035 -0.0270 -0.2498  0.2195
  186POPC   H3X21371   2.659   6.177   6.035 -0.6223 -1.0183  0.5987
  186POPC   H3Y21372   2.624   6.342   6.054  1.4864 -0.6563 -1.5597
  186POPC   C3421373   2.483   6.241   5.914 -0.5231  0.0797  0.1714
  186POPC   H4X21374   2.385   6.288   5.940 -0.2192 -0.0473  1.5856
  186POPC   H4Y21375   2.467   6.134   5.891 -0.0626 -0.5844  2.7121
  186POPC   C3521376   2.554   6.300   5.789 -0.2849  0.0631  0.4249
  186POPC   H5X21377   2.662   6.276   5.791  0.0316  1.0580 -1.9900
  186POPC   H5Y21378   2.552   6.411   5.798  0.1252  0.1230 -0.2074
  186POPC   C3621379   2.495   6.272   5.644 -0.6466  0.1758 -0.3442
  186POPC   H6X21380   2.392   6.314   5.641 -0.9438 -0.5741 -2.6253
  186POPC   H6Y21381   2.486   6.163   5.622 -0.3328  0.1061 -0.1457
  186POPC   C3721382   2.588   6.332   5.540  0.0287  0.2900 -0.6823
  186POPC   H7X21383   2.695   6.303   5.554  0.8459  3.6004  1.0954
  186POPC   H7Y21384   2.578   6.442   5.543  0.7452  0.3447  0.7615
  186POPC   C3821385   2.556   6.284   5.400 -0.3437  0.7587  0.3118
  186POPC   H8X21386   2.455   6.329   5.394 -0.4868  0.5136  0.8406
  186POPC   H8Y21387   2.544   6.174   5.407  1.0968  0.6844  3.1315
  186POPC   C3921388   2.659   6.323   5.298 -0.5070 -0.4406  0.5714
  186POPC   H9X21389   2.613   6.290   5.202  0.5074 -1.3910  0.3905
  186POPC   H9Y21390   2.757   6.270   5.301 -0.5362 -0.6248 -0.9010
  186POPC  C31021391   2.689   6.471   5.298 -0.2705  0.1994  0.5762
  186POPC  H10X21392   2.766   6.495   5.220 -0.4042 -2.8959 -0.6677
  186POPC  H10Y21393   2.733   6.508   5.392 -0.1734  0.4461  0.4350
  186POPC  C31121394   2.559   6.545   5.250  0.2442 -0.0379  0.0436
  186POPC  H11X21395   2.499   6.570   5.340 -0.8910 -1.2819 -0.3290
  186POPC  H11Y21396   2.492   6.480   5.190 -0.5658  0.7992  0.0156
  186POPC  C31221397   2.598   6.669   5.165 -0.2972 -0.4221  0.4758
  186POPC  H12X21398   2.634   6.631   5.067  1.8547  1.0161  0.6365
  186POPC  H12Y21399   2.678   6.729   5.214 -0.6387  0.7166 -0.3087
  186POPC  C31321400   2.471   6.758   5.145 -0.9813 -0.4184  0.0333
  186POPC  H13X21401   2.446   6.800   5.245  1.9265 -0.5378  0.8913
  186POPC  H13Y21402   2.382   6.700   5.111 -2.1594  0.7941  0.9296
  186POPC  C31421403   2.493   6.873   5.052  0.1216  0.0552 -0.2273
  186POPC  H14X21404   2.520   6.845   4.948  0.2950 -2.5228  0.4498
  186POPC  H14Y21405   2.589   6.914   5.091 -0.4807 -0.4955  1.9340
  186POPC  C31521406   2.382   6.980   5.057 -0.2510  0.5875 -0.9613
  186POPC  H15X21407   2.402   7.043   5.146  0.5066  1.7902 -1.9570
  186POPC  H15Y21408   2.278   6.943   5.072 -0.6226  1.6593 -0.7998
  186POPC  C31621409   2.385   7.077   4.936 -0.6847 -0.6339 -0.5487
  186POPC  H16X21410   2.487   7.116   4.917 -1.4188  2.5896  1.5267
  186POPC  H16Y21411   2.315   7.158   4.963 -0.8385 -0.1375 -2.2807
  186POPC  H16Z21412   2.358   7.032   4.838  1.0494 -0.7406 -1.0124
  187POPC     N21413   5.911   4.464   1.978 -0.7952 -0.3249 -0.5317
  187POPC   C1221414   5.961   4.602   1.930  1.0687  0.4587  0.4330
  187POPC  H12A21415   6.009   4.599   1.833 -2.5817  2.0846 -1.6180
  187POPC  H12B21416   6.038   4.632   1.999 -0.2912 -0.2525  2.3732
  187POPC   C1321417   6.033   4.378   2.010  0.3373 -0.2649 -0.5674
  187POPC  H13A21418   6.089   4.358   1.920  0.5467 -0.8195 -0.3147
  187POPC  H13B21419   6.108   4.409   2.080 -0.6493 -0.3607  0.5593
  187POPC  H13C21420   6.005   4.279   2.041  0.5361  0.1307  0.9137
  187POPC   C1421421   5.832   4.482   2.102  0.4843  0.0989  0.6616
  187POPC  H14A21422   5.784   4.391   2.135 -0.7466  0.6501  0.4413
  187POPC  H14B21423   5.891   4.532   2.177  0.4157  1.2874 -0.0579
  187POPC  H14C21424   5.751   4.551   2.084 -0.0111 -0.2077  1.6268
  187POPC   C1521425   5.830   4.399   1.873  0.1800  0.7903  0.0767
  187POPC  H15A21426   5.746   4.462   1.847 -1.1756 -1.3679 -1.0508
  187POPC  H15B21427   5.784   4.307   1.905  3.4167 -0.5629  1.2545
  187POPC  H15C21428   5.884   4.380   1.781  0.1395 -3.5522  0.7316
  187POPC   C1121429   5.857   4.725   1.920  0.2805  0.0713 -0.0163
  187POPC  H11A21430   5.765   4.694   1.865  0.3438  0.3336 -0.2681
  187POPC  H11B21431   5.901   4.807   1.860  0.1156 -0.1953 -0.5077
  187POPC     P21432   5.677   4.824   2.086  0.2243  0.2911 -0.0529
  187POPC   O1321433   5.596   4.703   2.073 -0.5390 -0.3565  0.5933
  187POPC   O1421434   5.626   4.946   2.012 -0.3778  0.7127  0.2002
  187POPC   O1221435   5.821   4.779   2.047 -0.3952  0.2086  0.0539
  187POPC   O1121436   5.706   4.854   2.237 -0.4242  0.2145  0.1015
  187POPC    C121437   5.683   4.985   2.283 -0.0337 -0.2691 -0.0532
  187POPC    HA21438   5.583   5.027   2.259  0.8518  1.7647 -0.3500
  187POPC    HB21439   5.748   5.060   2.232 -0.3156  0.8979  1.2486
  187POPC    C221440   5.696   4.984   2.438 -0.1295 -0.3738  0.2698
  187POPC    HS21441   5.800   4.952   2.460 -0.0477 -0.4230 -0.1797
  187POPC   O2121442   5.589   4.894   2.500  0.2228 -0.1902  0.8624
  187POPC   C2121443   5.644   4.773   2.527  0.0074 -0.5465 -0.0794
  187POPC   O2221444   5.760   4.746   2.528  0.3292  0.3371 -0.5758
  187POPC   C2221445   5.525   4.697   2.587 -0.2774  0.3206  0.1744
  187POPC   H2R21446   5.466   4.652   2.505  0.8630 -0.7354 -0.1016
  187POPC   H2S21447   5.460   4.771   2.639  1.5813  1.8706  0.4037
  187POPC    C321448   5.686   5.126   2.505  1.1491 -0.6927  0.5355
  187POPC    HX21449   5.586   5.173   2.492  1.6253  0.2195  0.0564
  187POPC    HY21450   5.751   5.196   2.449 -1.4521  0.3849 -1.3270
  187POPC   O3121451   5.705   5.117   2.648  0.3607  0.3408 -0.2704
  187POPC   C3121452   5.831   5.144   2.692  0.0007 -0.5580 -0.5244
  187POPC   O3221453   5.921   5.188   2.625  0.5812  0.8541 -0.2854
  187POPC   C3221454   5.832   5.131   2.839  1.1096  0.5238 -0.1771
  187POPC   H2X21455   5.827   5.022   2.862  0.5607  0.4392 -0.6721
  187POPC   H2Y21456   5.729   5.161   2.870  0.4142 -1.3109 -0.5577
  187POPC   C2321457   5.572   4.582   2.685 -0.3405  0.1932 -0.1968
  187POPC   H3R21458   5.630   4.512   2.620 -2.1396 -1.6489  0.0945
  187POPC   H3S21459   5.480   4.534   2.724 -2.8367  3.0585 -2.0520
  187POPC   C2421460   5.664   4.637   2.799 -0.1891  0.2163  0.5529
  187POPC   H4R21461   5.766   4.653   2.756 -0.5980 -0.0308 -0.5398
  187POPC   H4S21462   5.654   4.564   2.881 -1.5354 -0.7423 -0.4388
  187POPC   C2521463   5.616   4.765   2.872 -0.4724 -0.5506 -0.0260
  187POPC   H5R21464   5.506   4.773   2.886 -0.7238 -1.3903 -1.3607
  187POPC   H5S21465   5.654   4.856   2.822  0.9713 -1.0421  0.0966
  187POPC   C2621466   5.680   4.778   3.011 -0.3087 -0.3984  0.0204
  187POPC   H6R21467   5.791   4.779   3.000 -0.3316 -1.1135 -0.3498
  187POPC   H6S21468   5.646   4.696   3.078  1.1263  0.5309  1.9848
  187POPC   C2721469   5.632   4.903   3.077 -0.1272  0.3584  0.4041
  187POPC   H7R21470   5.525   4.908   3.050 -0.6394 -1.2595  1.9252
  187POPC   H7S21471   5.684   4.989   3.029  2.2651  1.2107  4.0959
  187POPC   C2821472   5.647   4.896   3.231  0.4264  0.4306 -0.3508
  187POPC   H8R21473   5.583   4.813   3.268 -0.7603  2.1528  1.7496
  187POPC   H8S21474   5.598   4.988   3.269 -1.1978  0.2068 -1.8104
  187POPC   C2921475   5.786   4.892   3.280 -0.4900 -0.8528  0.6054
  187POPC   H9121476   5.840   4.981   3.243 -1.7857 -0.2968  0.0116
  187POPC  C21021477   5.839   4.796   3.367 -0.3422  0.1874  0.5433
  187POPC  H10121478   5.942   4.812   3.402 -0.0752  1.7370 -0.8293
  187POPC  C21121479   5.768   4.679   3.427  0.0967 -0.1476  0.2660
  187POPC  H11R21480   5.825   4.591   3.388  0.5515 -0.4958  1.6403
  187POPC  H11S21481   5.669   4.665   3.379  1.2866 -0.5139 -2.3061
  187POPC  C21221482   5.770   4.684   3.583  0.0184 -0.0265 -0.0695
  187POPC  H12R21483   5.875   4.689   3.619 -0.2106 -0.5248  0.6914
  187POPC  H12S21484   5.740   4.581   3.614  1.2949 -0.4423 -0.1319
  187POPC  C21321485   5.681   4.789   3.648 -0.0819  0.2355  0.4708
  187POPC  H13R21486   5.649   4.745   3.744 -0.0891 -1.3735 -0.2372
  187POPC  H13S21487   5.587   4.807   3.592  0.1486 -0.2219 -0.0714
  187POPC  C21421488   5.763   4.914   3.687  0.3357 -0.2327  0.3622
  187POPC  H14R21489   5.758   4.984   3.601  3.8948  0.3082  0.4428
  187POPC  H14S21490   5.871   4.894   3.706  0.8939  0.9788 -1.2964
  187POPC  C21521491   5.706   4.990   3.804 -0.0941 -0.6347 -1.0349
  187POPC  H15R21492   5.733   4.928   3.892 -0.0712  1.1257  0.2568
  187POPC  H15S21493   5.595   4.982   3.795 -0.6628  1.6312  2.0725
  187POPC  C21621494   5.769   5.131   3.810  0.0156  0.3147 -0.0214
  187POPC  H16R21495   5.751   5.193   3.720 -0.3028 -0.5985 -0.6036
  187POPC  H16S21496   5.880   5.123   3.813  0.1688  1.8145 -0.9118
  187POPC  C21721497   5.723   5.206   3.938 -0.1386  0.0278 -0.2498
  187POPC  H17R21498   5.616   5.180   3.950  0.7275 -3.4315  1.0644
  187POPC  H17S21499   5.742   5.314   3.919 -0.3482  0.2313  0.6448
  187POPC  C21821500   5.808   5.171   4.064 -0.4364 -0.0228  0.1807
  187POPC  H18R21501   5.775   5.229   4.153 -0.2101  0.4836 -0.0635
  187POPC  H18S21502   5.913   5.203   4.050  0.7036 -1.5564  3.9939
  187POPC  H18T21503   5.798   5.063   4.086 -1.6938  0.1264  0.4216
  187POPC   C3321504   5.928   5.224   2.915 -0.5557  0.7378 -0.4946
  187POPC   H3X21505   5.919   5.329   2.878  1.1208  0.5639 -1.5045
  187POPC   H3Y21506   6.034   5.195   2.896 -0.7365 -0.5784  0.4075
  187POPC   C3421507   5.903   5.216   3.068 -0.4573  0.5403  0.2571
  187POPC   H4X21508   5.903   5.108   3.094 -0.1539  0.2999 -0.6877
  187POPC   H4Y21509   5.801   5.254   3.087 -1.1699 -1.2914  0.3728
  187POPC   C3521510   6.017   5.291   3.149  0.4431 -0.1962 -0.4314
  187POPC   H5X21511   6.037   5.392   3.109 -0.3085  0.5022  0.8740
  187POPC   H5Y21512   6.111   5.233   3.142 -0.4345 -2.1895  2.3264
  187POPC   C3621513   5.978   5.306   3.303  0.0840 -0.2595 -0.1341
  187POPC   H6X21514   5.977   5.200   3.338  3.4679 -0.3546  0.0138
  187POPC   H6Y21515   5.884   5.364   3.310 -0.1176 -0.6464  0.3769
  187POPC   C3721516   6.095   5.377   3.381  0.1505 -0.5611  0.1043
  187POPC   H7X21517   6.120   5.473   3.331 -0.2245 -0.8330 -0.6213
  187POPC   H7Y21518   6.183   5.309   3.381  0.8492  0.3149  0.2359
  187POPC   C3821519   6.057   5.403   3.526  0.3426 -0.1759  0.3589
  187POPC   H8X21520   6.062   5.318   3.597  1.1848  0.1489  0.6981
  187POPC   H8Y21521   5.954   5.443   3.515 -0.1227 -1.6181 -0.7601
  187POPC   C3921522   6.133   5.518   3.588  0.0045 -0.7084 -0.2527
  187POPC   H9X21523   6.118   5.618   3.542 -2.4584  0.5003  2.8082
  187POPC   H9Y21524   6.243   5.500   3.585  0.1669  0.3617 -2.9824
  187POPC  C31021525   6.084   5.536   3.729 -0.4857 -0.1170 -0.1004
  187POPC  H10X21526   5.973   5.543   3.734 -0.3724  2.6539  0.0925
  187POPC  H10Y21527   6.115   5.639   3.758 -0.5519  0.0526 -0.6191
  187POPC  C31121528   6.148   5.435   3.833 -0.5108  0.6916 -0.1118
  187POPC  H11X21529   6.246   5.395   3.799 -0.6794  0.5683 -0.4507
  187POPC  H11Y21530   6.083   5.345   3.838  1.2173 -0.5322  2.5234
  187POPC  C31221531   6.163   5.498   3.976  0.1409 -0.5158 -0.0436
  187POPC  H12X21532   6.064   5.542   3.999 -0.7901 -0.9793 -2.8719
  187POPC  H12Y21533   6.246   5.572   3.983 -0.1815 -0.2390  1.2699
  187POPC  C31321534   6.178   5.399   4.090 -0.1526 -0.0274  0.7105
  187POPC  H13X21535   6.271   5.345   4.063  1.2688  2.5285  0.2029
  187POPC  H13Y21536   6.098   5.325   4.069 -0.9895  1.6673 -2.7966
  187POPC  C31421537   6.186   5.466   4.225 -0.1837 -0.6025 -0.3016
  187POPC  H14X21538   6.247   5.559   4.235 -1.5452  0.3990 -1.0373
  187POPC  H14Y21539   6.227   5.388   4.293  0.0328  0.7516  1.2015
  187POPC  C31521540   6.042   5.498   4.282  0.5126  0.2611 -0.3809
  187POPC  H15X21541   5.977   5.409   4.266 -0.2850  1.0863 -2.0350
  187POPC  H15Y21542   5.999   5.586   4.230 -1.5674 -1.3250 -1.4964
  187POPC  C31621543   6.051   5.527   4.428  0.6004 -0.6059  0.0908
  187POPC  H16X21544   6.143   5.586   4.447 -0.9775  2.0465 -0.0032
  187POPC  H16Y21545   6.050   5.435   4.491 -2.6413  0.1970  1.4211
  187POPC  H16Z21546   5.961   5.589   4.447 -0.4734 -1.7972 -0.9151
  188POPC     N21547   3.998   4.673   1.898 -0.9671 -0.4529  0.0937
  188POPC   C1221548   4.129   4.681   1.969 -0.2932 -0.3402 -0.7691
  188POPC  H12A21549   4.178   4.773   1.938 -2.3668  0.9025 -0.5038
  188POPC  H12B21550   4.181   4.588   1.949 -0.4049 -0.5471 -0.1112
  188POPC   C1321551   3.934   4.536   1.910 -0.7677 -0.2203 -0.1288
  188POPC  H13A21552   3.836   4.534   1.865 -0.3766 -0.5441 -0.9899
  188POPC  H13B21553   3.999   4.463   1.864  1.3909  0.8229  1.0950
  188POPC  H13C21554   3.917   4.505   2.013  0.7426  1.6513  0.7486
  188POPC   C1421555   3.898   4.778   1.947  0.0199 -0.1869  0.3513
  188POPC  H14A21556   3.808   4.775   1.888  0.8407  1.6542 -1.1356
  188POPC  H14B21557   3.870   4.754   2.048 -2.6326 -0.0853 -0.2974
  188POPC  H14C21558   3.920   4.884   1.941  0.5887 -0.2674  0.8439
  188POPC   C1521559   4.028   4.707   1.750  0.4405 -0.5974 -0.5619
  188POPC  H15A21560   4.077   4.803   1.753  0.4839 -0.6456  0.5572
  188POPC  H15B21561   3.945   4.718   1.681 -0.1738 -1.5001  0.0210
  188POPC  H15C21562   4.097   4.633   1.711  1.9039  0.1997  0.4076
  188POPC   C1121563   4.124   4.683   2.124  0.2423 -0.1525 -0.2959
  188POPC  H11A21564   4.038   4.622   2.158 -0.9000  1.9871  0.8799
  188POPC  H11B21565   4.106   4.787   2.160  0.0375 -0.3648  0.2290
  188POPC     P21566   4.374   4.692   2.216 -0.1358  0.3105 -0.0764
  188POPC   O1321567   4.424   4.796   2.116  0.5422 -0.1486 -0.3154
  188POPC   O1421568   4.472   4.586   2.242  0.4424 -0.1365  0.1302
  188POPC   O1221569   4.246   4.611   2.162 -0.5357  0.2854 -0.4930
  188POPC   O1121570   4.316   4.759   2.345  0.0215  0.5772  0.3502
  188POPC    C121571   4.292   4.678   2.463 -0.1993 -0.5638 -0.2044
  188POPC    HA21572   4.350   4.584   2.470  3.2682  1.2721 -1.9043
  188POPC    HB21573   4.187   4.643   2.474  0.1930 -1.3513  1.4083
  188POPC    C221574   4.319   4.754   2.590 -0.1004  0.8338  0.0352
  188POPC    HS21575   4.263   4.850   2.594 -1.2345  0.1424  1.4911
  188POPC   O2121576   4.466   4.773   2.603  0.2044  0.2829  0.3954
  188POPC   C2121577   4.500   4.881   2.671  0.5060 -0.0618  0.0195
  188POPC   O2221578   4.424   4.966   2.715  0.3108  0.3909  0.3176
  188POPC   C2221579   4.648   4.896   2.677 -0.7560 -0.1747  0.2369
  188POPC   H2R21580   4.676   4.931   2.576 -1.0461 -0.2809  0.1191
  188POPC   H2S21581   4.695   4.797   2.698 -1.1013 -0.2939  0.4704
  188POPC    C321582   4.266   4.674   2.711  0.8348 -0.6840  0.9296
  188POPC    HX21583   4.315   4.574   2.704  1.1530 -0.4184 -1.8719
  188POPC    HY21584   4.156   4.663   2.694  1.0472  1.2981 -3.0333
  188POPC   O3121585   4.292   4.748   2.832  0.4981  0.6258 -0.6772
  188POPC   C3121586   4.200   4.830   2.874  0.2048  0.3615  0.0285
  188POPC   O3221587   4.094   4.864   2.823 -0.8275 -0.2835  0.5001
  188POPC   C3221588   4.256   4.890   3.008 -0.4826 -0.0781  0.4857
  188POPC   H2X21589   4.277   4.998   2.990 -1.5834 -0.0418 -0.7567
  188POPC   H2Y21590   4.353   4.839   3.027  0.3766  0.6173 -1.7789
  188POPC   C2321591   4.700   4.989   2.789 -0.0952  0.0119 -0.0905
  188POPC   H3R21592   4.666   5.093   2.768  2.1836  0.9616  0.5783
  188POPC   H3S21593   4.811   4.989   2.797 -0.1219 -1.4002  0.6572
  188POPC   C2421594   4.658   4.951   2.932 -0.1234 -0.1920  0.6277
  188POPC   H4R21595   4.690   4.847   2.949  1.6909  0.4716  1.5036
  188POPC   H4S21596   4.547   4.957   2.939 -0.1933 -2.0376  1.4400
  188POPC   C2521597   4.727   5.056   3.025 -0.1408  0.4610 -0.4461
  188POPC   H5R21598   4.682   5.152   2.992 -1.4841 -0.0991 -0.3266
  188POPC   H5S21599   4.837   5.062   3.010 -0.4166  0.9661 -2.6572
  188POPC   C2621600   4.691   5.034   3.169 -0.2688 -0.9620 -0.0446
  188POPC   H6R21601   4.581   5.049   3.181 -0.4057  0.4935 -2.5655
  188POPC   H6S21602   4.739   5.116   3.226  0.7706 -1.9972  0.6221
  188POPC   C2721603   4.724   4.898   3.226  0.2909  0.1773 -0.5750
  188POPC   H7R21604   4.702   4.820   3.150  2.2028  1.0465 -2.1024
  188POPC   H7S21605   4.677   4.889   3.326  1.0679 -1.6554 -0.3387
  188POPC   C2821606   4.873   4.873   3.249 -0.3932  0.9634  0.3285
  188POPC   H8R21607   4.934   4.900   3.160  2.0021  0.8022  1.8150
  188POPC   H8S21608   4.895   4.764   3.246  1.8583  1.3683 -2.6012
  188POPC   C2921609   4.946   4.936   3.364  0.4785 -0.9667 -0.4699
  188POPC   H9121610   5.027   5.003   3.332 -0.1032  0.1521  0.3672
  188POPC  C21021611   4.932   4.915   3.496  0.2834 -0.4765  0.2535
  188POPC  H10121612   4.996   4.957   3.575  0.8309 -4.3253  2.1123
  188POPC  C21121613   4.832   4.827   3.563  0.7490  0.6313  0.0791
  188POPC  H11R21614   4.795   4.758   3.485  2.4802  0.7687 -0.8933
  188POPC  H11S21615   4.745   4.885   3.602 -1.1018 -2.7872  1.4611
  188POPC  C21221616   4.883   4.743   3.677 -0.4076 -0.1739  0.1900
  188POPC  H12R21617   4.923   4.804   3.760 -1.2359 -1.2369  1.4144
  188POPC  H12S21618   4.963   4.676   3.640 -1.1843  0.0635 -2.0529
  188POPC  C21321619   4.772   4.659   3.745 -0.4028 -0.1696  0.2405
  188POPC  H13R21620   4.744   4.576   3.676 -2.5147 -1.6028  2.6361
  188POPC  H13S21621   4.684   4.726   3.755  0.0628  0.8888 -2.0140
  188POPC  C21421622   4.804   4.610   3.887 -0.3714  0.1625  0.2528
  188POPC  H14R21623   4.835   4.698   3.948  1.6138 -0.2022 -0.1503
  188POPC  H14S21624   4.888   4.537   3.878 -1.1999 -1.1930  2.4549
  188POPC  C21521625   4.683   4.543   3.958 -0.6501  0.8393 -0.2895
  188POPC  H15R21626   4.659   4.456   3.893  1.0320  0.8499 -0.9625
  188POPC  H15S21627   4.598   4.615   3.963 -0.8929  0.6668 -1.6194
  188POPC  C21621628   4.715   4.483   4.097  0.0911  0.1751  0.1978
  188POPC  H16R21629   4.811   4.427   4.090 -0.5016 -0.8724  0.1446
  188POPC  H16S21630   4.630   4.416   4.124  2.0761 -2.2705  0.7837
  188POPC  C21721631   4.709   4.591   4.206  0.2920 -0.1338 -0.1346
  188POPC  H17R21632   4.615   4.644   4.181 -0.8105 -1.5469  0.8749
  188POPC  H17S21633   4.792   4.664   4.196 -0.5296  0.6906 -1.0838
  188POPC  C21821634   4.709   4.530   4.348  0.0909  0.6475  0.4006
  188POPC  H18R21635   4.809   4.486   4.366 -0.7182 -0.2940  2.9264
  188POPC  H18S21636   4.633   4.449   4.354  1.8881 -1.1541  0.0707
  188POPC  H18T21637   4.675   4.594   4.432  1.8147  0.1583  1.5149
  188POPC   C3321638   4.154   4.872   3.117 -0.3751  0.1303  0.3602
  188POPC   H3X21639   4.158   4.767   3.153  0.4723 -0.1716 -0.5405
  188POPC   H3Y21640   4.049   4.903   3.097 -1.0099 -2.6215 -1.0690
  188POPC   C3421641   4.216   4.956   3.234 -0.3249 -0.3439 -0.1689
  188POPC   H4X21642   4.134   4.994   3.297 -0.1802  0.2158 -0.3126
  188POPC   H4Y21643   4.267   5.045   3.191  0.5533 -0.0249  1.4292
  188POPC   C3521644   4.330   4.879   3.310 -0.1651  0.0708  0.7724
  188POPC   H5X21645   4.409   4.850   3.238 -2.8549 -1.6740 -1.7186
  188POPC   H5Y21646   4.298   4.780   3.348  1.4789 -1.5675 -1.8042
  188POPC   C3621647   4.389   4.956   3.423 -0.0106  0.2727 -0.7924
  188POPC   H6X21648   4.431   5.053   3.388  1.1060  0.3420  0.6252
  188POPC   H6Y21649   4.476   4.909   3.473 -2.3669  0.7981  4.6035
  188POPC   C3721650   4.288   4.974   3.544  0.3025  0.0743  0.2570
  188POPC   H7X21651   4.236   4.877   3.565  1.6448 -0.8781 -0.6859
  188POPC   H7Y21652   4.202   5.043   3.527  0.0637  0.5370  2.8894
  188POPC   C3821653   4.369   5.028   3.664  1.0524 -0.1513 -0.3133
  188POPC   H8X21654   4.409   5.130   3.643 -0.1752  0.4337  0.1080
  188POPC   H8Y21655   4.449   4.954   3.686  1.1406 -0.5637 -1.9271
  188POPC   C3921656   4.275   5.049   3.785 -0.1386  0.1409  0.2823
  188POPC   H9X21657   4.227   4.951   3.806  0.2373 -0.5447 -1.8502
  188POPC   H9Y21658   4.198   5.121   3.752  1.5659  1.2048 -1.6016
  188POPC  C31021659   4.350   5.101   3.908 -0.2363 -0.3080  0.1668
  188POPC  H10X21660   4.382   5.207   3.901  0.8972 -0.7293 -1.4434
  188POPC  H10Y21661   4.437   5.037   3.930 -2.0938 -3.4879 -1.0752
  188POPC  C31121662   4.256   5.097   4.034 -0.5518 -0.4040 -0.3854
  188POPC  H11X21663   4.229   4.997   4.074  1.2302 -0.3785  0.9920
  188POPC  H11Y21664   4.160   5.143   4.001 -0.6850  0.3958  1.0419
  188POPC  C31221665   4.305   5.172   4.159  0.3803  0.2550 -0.5007
  188POPC  H12X21666   4.320   5.277   4.125  1.9555  0.4804  0.7542
  188POPC  H12Y21667   4.409   5.137   4.180  0.3666  1.0059  0.9532
  188POPC  C31321668   4.213   5.169   4.277  0.2654  0.1294  0.7127
  188POPC  H13X21669   4.184   5.069   4.312 -1.9849  0.3485 -0.3695
  188POPC  H13Y21670   4.119   5.221   4.250 -0.1469 -1.6759 -1.6689
  188POPC  C31421671   4.275   5.256   4.391  0.1144  0.6143 -0.1297
  188POPC  H14X21672   4.273   5.362   4.356 -1.4590  0.9475  0.8867
  188POPC  H14Y21673   4.383   5.232   4.408  0.7822  2.5396 -1.2600
  188POPC  C31521674   4.208   5.224   4.528 -0.8328 -0.1273 -0.4882
  188POPC  H15X21675   4.243   5.123   4.560 -0.0205  0.4481  0.5147
  188POPC  H15Y21676   4.098   5.218   4.515 -0.5499 -3.2599 -2.4311
  188POPC  C31621677   4.248   5.321   4.639 -0.9244  0.7595  0.4834
  188POPC  H16X21678   4.194   5.298   4.733 -0.4304 -0.4960  0.4762
  188POPC  H16Y21679   4.223   5.425   4.607  1.0078  0.1840 -3.4573
  188POPC  H16Z21680   4.352   5.321   4.677  0.0159  1.7349 -1.8631
  189SAPI   C1221681   0.908   3.291   6.936 -0.1032 -0.6785 -0.5275
  189SAPI    H221682   0.967   3.380   6.969  1.4678 -2.4074  1.6355
  189SAPI    O221683   1.006   3.207   6.887  0.5552  0.6314  0.3369
  189SAPI   HO221684   1.039   3.253   6.809  2.0600  4.1387  2.7781
  189SAPI   C1321685   0.846   3.246   7.072  0.1226  0.3963  0.1328
  189SAPI    H321686   0.772   3.320   7.110  0.1942  0.2024  0.6409
  189SAPI    O321687   0.949   3.238   7.166  0.3320 -0.3203 -0.4293
  189SAPI   HO321688   1.033   3.222   7.122  0.6406  0.7313 -0.2505
  189SAPI   C1421689   0.772   3.112   7.047  0.1012 -0.3283 -0.2325
  189SAPI    H421690   0.852   3.040   7.018 -0.2039 -0.7662 -0.0016
  189SAPI    O421691   0.708   3.061   7.166 -0.1085 -0.1672  0.1896
  189SAPI   HO421692   0.773   3.042   7.234 -0.5555  2.4737  1.4691
  189SAPI   C1521693   0.678   3.112   6.925 -0.7435 -0.0195 -0.2988
  189SAPI    H521694   0.580   3.157   6.952 -0.5052  0.7348 -0.6546
  189SAPI    O521695   0.635   2.981   6.888 -0.5006  0.1775 -0.7187
  189SAPI   HO521696   0.672   2.958   6.802 -0.3144  0.5219 -0.7330
  189SAPI   C1621697   0.734   3.187   6.808  0.0756  0.5309  0.4780
  189SAPI    H621698   0.812   3.130   6.753  1.5362  1.5598  1.4194
  189SAPI    O621699   0.618   3.212   6.720 -0.4855  0.5661  0.8726
  189SAPI   HO621700   0.656   3.261   6.646 -1.4483 -2.2040 -1.6438
  189SAPI   C1121701   0.791   3.323   6.843 -0.7019 -0.0218 -0.4465
  189SAPI    H121702   0.712   3.382   6.895  0.1496 -0.0884  0.9620
  189SAPI     P21703   0.879   3.551   6.730  0.0276 -0.1573  0.7792
  189SAPI   O1321704   0.976   3.587   6.623  0.3564 -0.0014  0.2935
  189SAPI   O1421705   0.915   3.581   6.872  0.0431 -0.2718 -0.8436
  189SAPI   O1221706   0.836   3.391   6.722  0.1130  0.3181 -0.6674
  189SAPI   O1121707   0.748   3.623   6.698 -0.3408  0.0251  0.2430
  189SAPI    C121708   0.661   3.605   6.580 -0.1793 -0.2440 -0.4564
  189SAPI    HA21709   0.657   3.499   6.545 -0.3461 -1.2666  2.3954
  189SAPI    HB21710   0.559   3.638   6.608  0.8501  2.3091  0.5409
  189SAPI    C221711   0.705   3.691   6.463 -0.4779  0.2131  0.3788
  189SAPI    HS21712   0.767   3.776   6.499 -2.7898  2.1488  0.0654
  189SAPI   O2121713   0.593   3.726   6.395  0.2830  0.1995 -0.4142
  189SAPI   C2121714   0.578   3.853   6.382  0.1509  0.6173  0.1302
  189SAPI   O2221715   0.646   3.941   6.423 -0.1231 -0.1967 -0.8004
  189SAPI   C2221716   0.456   3.880   6.288 -0.1767  0.4896  0.6688
  189SAPI   H2R21717   0.435   3.791   6.223  2.1709  1.6443 -1.8624
  189SAPI   H2S21718   0.367   3.898   6.352  0.8108  1.8634  1.6903
  189SAPI    C321719   0.797   3.603   6.361 -0.3118 -0.5032 -0.2901
  189SAPI    HX21720   0.739   3.513   6.334  0.4550 -1.7022  1.8269
  189SAPI    HY21721   0.883   3.560   6.416 -1.0156 -0.5158  0.8260
  189SAPI   O3121722   0.825   3.671   6.239 -0.0695 -0.5092  0.0069
  189SAPI   C3121723   0.941   3.726   6.244  0.5521 -0.1553  0.4832
  189SAPI   O3221724   1.004   3.751   6.343 -0.5873 -0.1008  0.2224
  189SAPI   C3221725   0.965   3.765   6.097 -0.4029 -0.0840  0.9819
  189SAPI   H2X21726   0.874   3.777   6.035 -0.4627  0.9175  1.2550
  189SAPI   H2Y21727   1.014   3.676   6.051 -1.1981 -0.3968  0.7175
  189SAPI   C2321728   0.482   3.994   6.188  1.0841 -0.7078  0.0650
  189SAPI   H3R21729   0.525   4.078   6.247 -0.8918  0.2928  0.1294
  189SAPI   H3S21730   0.390   4.039   6.147  1.7913  0.9546  0.2238
  189SAPI   C2421731   0.578   3.937   6.079  0.1213 -0.5332  0.1703
  189SAPI   H4R21732   0.523   3.849   6.041 -0.8819  0.1363  0.0253
  189SAPI   H4S21733   0.664   3.910   6.145  0.0121 -0.6357  0.2688
  189SAPI   C2521734   0.618   4.042   5.972 -0.1283  0.0429  1.0478
  189SAPI   H5R21735   0.676   4.125   6.015  0.2840  0.4472 -0.2561
  189SAPI   C2621736   0.591   4.036   5.843  0.0277  0.2976  0.2005
  189SAPI   H6R21737   0.637   4.107   5.773  2.5459 -2.2155 -0.9119
  189SAPI   C2721738   0.502   3.930   5.771  0.3184 -0.5085  0.2901
  189SAPI   H7R21739   0.398   3.969   5.763 -0.3828 -2.4289 -0.7097
  189SAPI   H7S21740   0.499   3.829   5.815  0.8537 -1.0032 -0.7660
  189SAPI   C2821741   0.543   3.911   5.624  0.1122  0.5944 -0.6832
  189SAPI   H8R21742   0.477   3.967   5.556 -1.4955  1.2470  1.3134
  189SAPI   C2921743   0.648   3.841   5.581 -0.5542 -0.2938  0.1520
  189SAPI   H9R21744   0.665   3.831   5.473 -0.5406 -0.5591  0.1783
  189SAPI  C21021745   0.758   3.772   5.658 -0.8265  0.2016 -0.4908
  189SAPI  H10R21746   0.779   3.671   5.617 -0.8085  0.7205 -1.8338
  189SAPI  H10S21747   0.719   3.751   5.760  1.6046  2.5767  1.0813
  189SAPI  C21121748   0.883   3.856   5.694  0.4225 -0.3657 -0.2076
  189SAPI  H11R21749   0.867   3.898   5.795 -0.8957  0.5240 -0.7765
  189SAPI  C21221750   0.992   3.874   5.618  0.3089 -0.3172  0.0014
  189SAPI  H12R21751   1.077   3.932   5.657  0.0048 -1.1942  2.1271
  189SAPI  C21321752   1.006   3.813   5.484  0.3083 -0.4625 -0.1400
  189SAPI  H13R21753   0.916   3.755   5.455 -0.2737  1.0922 -1.6237
  189SAPI  H13S21754   1.088   3.738   5.489  0.2856 -0.5115 -0.4711
  189SAPI  C21421755   1.046   3.910   5.375 -0.0224  0.4505  0.1528
  189SAPI  H14R21756   1.072   4.014   5.402  0.6156  0.5133 -0.6574
  189SAPI  C21521757   1.035   3.883   5.245 -0.3327  0.2527 -0.4990
  189SAPI  H15R21758   1.054   3.964   5.173 -0.5979 -0.8015 -1.7996
  189SAPI  C21621759   0.988   3.763   5.176  0.4109 -0.7282 -0.3507
  189SAPI  H16R21760   0.957   3.680   5.244 -0.7929 -0.4448 -0.5324
  189SAPI  H16S21761   1.076   3.718   5.124 -0.2610 -0.7402 -1.5125
  189SAPI  C21721762   0.852   3.793   5.104 -0.0789 -0.4717  0.4059
  189SAPI  H17R21763   0.830   3.709   5.034  0.3011  0.5348 -0.9862
  189SAPI  H17S21764   0.859   3.884   5.040  1.9722  0.1360  1.4199
  189SAPI  C21821765   0.732   3.811   5.193 -0.9064  0.0842 -0.2764
  189SAPI  H18R21766   0.758   3.906   5.244 -0.6349  1.0599 -2.1561
  189SAPI  H18S21767   0.729   3.728   5.268  0.6169 -0.3669 -0.6679
  189SAPI  C21921768   0.602   3.832   5.115  0.3041  0.0088  0.0896
  189SAPI  H19R21769   0.588   3.744   5.048  3.3743 -0.0321 -0.6812
  189SAPI  H19S21770   0.627   3.914   5.045 -0.3103  0.9623  0.9673
  189SAPI  C22021771   0.480   3.875   5.195  0.2389  0.2522 -0.6371
  189SAPI  H20R21772   0.438   3.780   5.234 -0.1192 -0.0777 -1.7947
  189SAPI  H20S21773   0.407   3.917   5.122 -0.3102 -0.3702 -0.4602
  189SAPI  H20T21774   0.523   3.945   5.270 -0.3929  1.4211 -1.3350
  189SAPI   C3321775   1.065   3.889   6.093 -0.0882  0.4405 -0.0140
  189SAPI   H3X21776   1.016   3.966   6.157 -2.8004 -1.5809  0.5060
  189SAPI   H3Y21777   1.082   3.933   5.993 -1.8396 -0.8774 -0.9441
  189SAPI   C3421778   1.207   3.865   6.142  0.2120  0.4032  0.7717
  189SAPI   H4X21779   1.209   3.834   6.248  0.4655 -0.9039  0.4010
  189SAPI   H4Y21780   1.262   3.959   6.122 -1.0827  1.2566  1.1064
  189SAPI   C3521781   1.278   3.737   6.077  0.2754 -0.4309  0.0491
  189SAPI   H5X21782   1.242   3.638   6.112 -0.4331 -0.3318 -0.3760
  189SAPI   H5Y21783   1.388   3.748   6.082  0.3432 -0.1439 -1.5646
  189SAPI   C3621784   1.268   3.733   5.920  0.8359 -0.4569  0.2179
  189SAPI   H6X21785   1.304   3.828   5.875 -1.5706  1.1367  1.4470
  189SAPI   H6Y21786   1.164   3.718   5.886  0.7140 -0.2688  0.5031
  189SAPI   C3721787   1.350   3.618   5.863  0.0319  0.3570  0.1422
  189SAPI   H7X21788   1.290   3.528   5.885  2.2835 -1.3149 -0.1459
  189SAPI   H7Y21789   1.444   3.605   5.921 -1.5736  0.6136  2.9250
  189SAPI   C3821790   1.368   3.629   5.716  0.2923 -0.1211 -0.6306
  189SAPI   H8X21791   1.273   3.621   5.659 -0.5433  0.2154  0.6713
  189SAPI   H8Y21792   1.423   3.542   5.675 -0.4413 -0.2514 -1.3609
  189SAPI   C3921793   1.437   3.761   5.671  0.0616  0.1825  0.4880
  189SAPI   H9X21794   1.515   3.800   5.739 -1.0708  0.9406  1.3847
  189SAPI   H9Y21795   1.371   3.846   5.643 -1.7843 -1.6709 -1.1995
  189SAPI  C31021796   1.518   3.736   5.543  0.0026 -0.0273 -0.5836
  189SAPI  H10X21797   1.599   3.664   5.567 -0.9110 -0.9763 -0.2655
  189SAPI  H10Y21798   1.569   3.825   5.500  0.8853 -1.6647 -3.1464
  189SAPI  C31121799   1.445   3.669   5.420  0.2781 -0.6089  0.7862
  189SAPI  H11X21800   1.347   3.717   5.401  0.3707 -0.6706  0.1212
  189SAPI  H11Y21801   1.433   3.561   5.441 -1.7883 -0.9249 -1.6458
  189SAPI  C31221802   1.540   3.675   5.298  0.1874 -0.8340  0.4885
  189SAPI  H12X21803   1.639   3.631   5.322  0.3162 -0.6193  0.3529
  189SAPI  H12Y21804   1.552   3.782   5.273  0.5498 -0.9171  0.3012
  189SAPI  C31321805   1.478   3.612   5.174  0.2361 -0.3941 -0.0181
  189SAPI  H13X21806   1.382   3.666   5.163 -0.0203 -0.3059  2.1018
  189SAPI  H13Y21807   1.442   3.508   5.193 -0.4533 -0.2689 -0.6142
  189SAPI  C31421808   1.573   3.612   5.056  0.0531  0.4141 -0.3382
  189SAPI  H14X21809   1.670   3.562   5.081 -0.4000  0.6126  2.0878
  189SAPI  H14Y21810   1.603   3.718   5.040  0.9259 -0.0908 -2.4121
  189SAPI  C31521811   1.515   3.558   4.921 -0.6589 -0.5523 -0.5567
  189SAPI  H15X21812   1.406   3.580   4.921 -0.5383  0.3220 -2.5289
  189SAPI  H15Y21813   1.528   3.448   4.930  3.6794 -0.0473  2.7560
  189SAPI  C31621814   1.589   3.614   4.799  0.2625  0.0811 -0.8021
  189SAPI  H16X21815   1.689   3.568   4.783  0.4250 -0.0868  0.5249
  189SAPI  H16Y21816   1.603   3.724   4.799  3.0779 -0.2021  0.2013
  189SAPI  C31721817   1.505   3.588   4.673  0.1579 -0.3614 -0.4266
  189SAPI  H17X21818   1.419   3.658   4.678  0.2841 -0.2231 -0.1446
  189SAPI  H17Y21819   1.464   3.485   4.678  1.1477 -0.7953 -1.0517
  189SAPI  C31821820   1.599   3.615   4.553 -0.0982  0.9264  0.2334
  189SAPI  H18X21821   1.690   3.552   4.562  1.4218  2.8320 -0.9475
  189SAPI  H18Y21822   1.637   3.720   4.553 -1.5337  1.4930  2.2195
  189SAPI  H18Z21823   1.551   3.589   4.456 -0.0465 -1.0551  0.6885
  190SAPI   C1221824   0.435   1.786   6.783  0.3351  0.1379 -0.3525
  190SAPI    H221825   0.405   1.762   6.678 -1.0511  1.6726 -0.3374
  190SAPI    O221826   0.583   1.766   6.785  0.6348 -0.5338 -0.2101
  190SAPI   HO221827   0.612   1.748   6.695 -0.8386 -0.8797 -0.6453
  190SAPI   C1321828   0.401   1.926   6.827 -0.2431 -0.4204 -0.1331
  190SAPI    H321829   0.291   1.938   6.824 -0.4506 -1.2018  2.4752
  190SAPI    O321830   0.463   2.034   6.748  0.0480  0.5131  0.2266
  190SAPI   HO321831   0.558   2.033   6.761  0.3981  0.4544 -1.9667
  190SAPI   C1421832   0.433   1.951   6.976 -0.5600 -0.0453 -0.5534
  190SAPI    H421833   0.544   1.961   6.969 -0.3249 -2.7517 -2.0868
  190SAPI    O421834   0.376   2.070   7.029  0.0480  0.1186  0.1828
  190SAPI   HO421835   0.440   2.139   7.044 -0.5583  0.5977  0.6350
  190SAPI   C1521836   0.396   1.829   7.066  0.3955 -0.9056  0.3530
  190SAPI    H521837   0.290   1.851   7.092  0.6197 -1.0390  1.3998
  190SAPI    O521838   0.461   1.840   7.191  0.7268  0.7027  0.1767
  190SAPI   HO521839   0.393   1.838   7.259  0.0492 -0.6162 -0.4883
  190SAPI   C1621840   0.403   1.684   7.012  0.0572 -0.3028  0.1708
  190SAPI    H621841   0.509   1.650   7.021  1.0105  2.0215 -1.2613
  190SAPI    O621842   0.329   1.597   7.096  0.6520 -0.1205  0.0124
  190SAPI   HO621843   0.350   1.503   7.087 -0.4729 -0.5700  1.6878
  190SAPI   C1121844   0.363   1.673   6.865 -0.2600 -0.8787  0.0626
  190SAPI    H121845   0.255   1.698   6.853 -0.0436 -0.8319 -2.0128
  190SAPI     P21846   0.346   1.479   6.675 -0.6658 -0.1236  0.2205
  190SAPI   O1321847   0.213   1.536   6.637 -0.1692  0.3873  0.0278
  190SAPI   O1421848   0.356   1.332   6.685  0.6717  0.3046  0.6119
  190SAPI   O1221849   0.397   1.541   6.829  0.5530  0.2952  0.1186
  190SAPI   O1121850   0.458   1.532   6.569  0.2312  0.2907 -0.3325
  190SAPI    C121851   0.438   1.498   6.432 -0.0164 -0.6866 -0.5912
  190SAPI    HA21852   0.539   1.482   6.388  2.2345  1.9237  3.0038
  190SAPI    HB21853   0.367   1.414   6.417 -0.7807 -0.4051  1.1789
  190SAPI    C221854   0.373   1.611   6.348 -0.0634  0.3963 -0.2287
  190SAPI    HS21855   0.266   1.621   6.378 -0.1157  1.3067 -0.6685
  190SAPI   O2121856   0.383   1.559   6.214  0.5532 -0.7356  0.3923
  190SAPI   C2121857   0.268   1.508   6.166  0.3567  0.1307  0.1477
  190SAPI   O2221858   0.169   1.490   6.231  0.0474 -0.0972 -0.1089
  190SAPI   C2221859   0.293   1.438   6.031  0.3221  0.2145  0.0828
  190SAPI   H2R21860   0.404   1.424   6.027  0.7531  2.3175  2.4850
  190SAPI   H2S21861   0.251   1.335   6.036  3.5416 -1.2297  0.6271
  190SAPI    C321862   0.445   1.743   6.362  0.5083 -0.0200 -0.0920
  190SAPI    HX21863   0.551   1.718   6.339  0.3356  0.0300 -0.9906
  190SAPI    HY21864   0.446   1.774   6.469 -0.1232 -2.3164  0.6489
  190SAPI   O3121865   0.395   1.846   6.274  0.1026 -0.6952  0.3913
  190SAPI   C3121866   0.284   1.909   6.314 -0.1013 -0.0483 -0.2790
  190SAPI   O3221867   0.221   1.883   6.414  0.5145  0.3937 -0.4065
  190SAPI   C3221868   0.234   2.006   6.205  0.6476 -0.2536 -0.5982
  190SAPI   H2X21869   0.326   2.066   6.186 -0.5008  1.8037  0.0617
  190SAPI   H2Y21870   0.162   2.084   6.238 -0.4111 -1.9325  1.2449
  190SAPI   C2321871   0.247   1.517   5.910  0.3767 -0.4622  0.4395
  190SAPI   H3R21872   0.305   1.612   5.917 -2.2644  1.1189  2.4867
  190SAPI   H3S21873   0.140   1.542   5.926  0.0494 -1.4776 -0.0692
  190SAPI   C2421874   0.264   1.438   5.782 -0.0113 -0.1212 -0.6132
  190SAPI   H4R21875   0.196   1.489   5.710 -1.2290 -2.1405 -0.9555
  190SAPI   H4S21876   0.237   1.331   5.794  2.4622 -0.6469  0.8265
  190SAPI   C2521877   0.409   1.446   5.751 -0.2632  0.2603 -0.3138
  190SAPI   H5R21878   0.481   1.401   5.821  1.4909 -0.7927 -2.6478
  190SAPI   C2621879   0.457   1.487   5.642 -0.2770 -0.8289  0.4700
  190SAPI   H6R21880   0.567   1.490   5.642 -0.2991  1.5109  0.5448
  190SAPI   C2721881   0.393   1.545   5.522  0.6254  0.2276  0.6749
  190SAPI   H7R21882   0.312   1.615   5.551  1.3186  1.1728  0.3749
  190SAPI   H7S21883   0.336   1.466   5.469  0.9659 -0.7844  1.7813
  190SAPI   C2821884   0.490   1.611   5.428  0.3253 -0.3399 -0.0589
  190SAPI   H8R21885   0.563   1.661   5.492  2.4944 -1.3588 -1.5896
  190SAPI   C2921886   0.514   1.601   5.295 -0.3285 -0.2217 -0.4716
  190SAPI   H9R21887   0.587   1.672   5.254  1.5302 -0.0384  2.8115
  190SAPI  C21021888   0.428   1.517   5.209 -0.1538 -0.0464  0.3397
  190SAPI  H10R21889   0.391   1.573   5.120  2.4450  1.5597  0.1942
  190SAPI  H10S21890   0.337   1.490   5.268 -1.2766  1.9020 -0.4207
  190SAPI  C21121891   0.505   1.387   5.177 -0.3333 -0.8917 -0.2151
  190SAPI  H11R21892   0.505   1.317   5.262  0.6922 -0.5251  0.0938
  190SAPI  C21221893   0.533   1.349   5.046 -0.4275  0.4256  0.3438
  190SAPI  H12R21894   0.594   1.257   5.048  1.0828  1.2393 -2.3298
  190SAPI  C21321895   0.505   1.421   4.915  0.3836  0.2672 -1.1862
  190SAPI  H13R21896   0.584   1.497   4.895 -1.1333  2.1419 -0.3479
  190SAPI  H13S21897   0.407   1.468   4.936 -1.1066 -3.1463  0.2094
  190SAPI  C21421898   0.490   1.321   4.806 -0.4712 -0.0652  0.0109
  190SAPI  H14R21899   0.416   1.240   4.821 -3.0289  2.1082 -0.1741
  190SAPI  C21521900   0.557   1.323   4.689  0.1355  0.3081 -0.0471
  190SAPI  H15R21901   0.537   1.241   4.619 -1.3748  0.5703  0.0548
  190SAPI  C21621902   0.656   1.418   4.639  0.0262 -0.0144 -0.6953
  190SAPI  H16R21903   0.723   1.364   4.568  1.5640  2.0762 -0.9331
  190SAPI  H16S21904   0.722   1.453   4.722  0.9938 -0.2439 -1.3459
  190SAPI  C21721905   0.604   1.542   4.557 -1.0632 -0.3707 -0.0765
  190SAPI  H17R21906   0.691   1.600   4.518 -1.4058  0.9990  1.1197
  190SAPI  H17S21907   0.554   1.620   4.618  1.3292  1.2657 -0.0214
  190SAPI  C21821908   0.516   1.504   4.435 -0.3984  0.2378  0.2914
  190SAPI  H18R21909   0.491   1.601   4.388  0.6376  0.1426 -0.4780
  190SAPI  H18S21910   0.426   1.452   4.474 -0.0599  1.2816  2.6396
  190SAPI  C21921911   0.597   1.434   4.328 -0.0997 -0.2465 -0.1913
  190SAPI  H19R21912   0.639   1.348   4.383  0.2467  0.6829  1.0468
  190SAPI  H19S21913   0.681   1.500   4.298  0.1692 -1.8883 -3.4416
  190SAPI  C22021914   0.509   1.408   4.210  0.1152  0.9428 -0.2346
  190SAPI  H20R21915   0.543   1.367   4.112 -3.4518 -2.2170 -0.3491
  190SAPI  H20S21916   0.448   1.499   4.189  0.3607  0.9939 -0.7536
  190SAPI  H20T21917   0.444   1.326   4.246  3.6187 -1.5402  0.9895
  190SAPI   C3321918   0.181   1.937   6.080 -0.5086 -0.0922  0.5606
  190SAPI   H3X21919   0.243   1.847   6.064  1.5086  1.5850 -1.8410
  190SAPI   H3Y21920   0.197   2.000   5.990 -0.4056 -1.0875 -0.1288
  190SAPI   C3421921   0.035   1.908   6.095  0.1561  0.2389  0.0851
  190SAPI   H4X21922  -0.008   2.001   6.138  1.3872  1.0604 -0.3961
  190SAPI   H4Y21923   0.011   1.825   6.165  2.5160  0.5385  1.3529
  190SAPI   C3521924  -0.034   1.877   5.965 -0.2207 -0.2432 -0.2524
  190SAPI   H5X21925  -0.032   1.961   5.893 -1.0175 -0.6700 -0.7817
  190SAPI   H5Y21926  -0.140   1.877   5.998 -0.8548  0.0020 -2.1662
  190SAPI   C3621927   0.014   1.752   5.900  0.4711  0.1425  0.7013
  190SAPI   H6X21928   0.004   1.666   5.970  0.6972 -0.2955  0.2029
  190SAPI   H6Y21929   0.124   1.755   5.884  0.1581 -0.1819 -1.8307
  190SAPI   C3721930  -0.050   1.728   5.767  0.4562 -0.0521 -0.2166
  190SAPI   H7X21931  -0.159   1.739   5.786  0.8318 -0.1614  2.2453
  190SAPI   H7Y21932  -0.034   1.627   5.725  2.3601  1.1747 -2.6885
  190SAPI   C3821933   0.006   1.816   5.654 -0.4201 -0.4944  0.1633
  190SAPI   H8X21934   0.110   1.787   5.629 -0.3542 -0.1907  0.0779
  190SAPI   H8Y21935   0.012   1.922   5.687 -1.9338  0.2829 -1.8462
  190SAPI   C3921936  -0.094   1.818   5.528 -0.3232  0.0217  0.0411
  190SAPI   H9X21937  -0.199   1.836   5.560  0.2051  0.5568  1.6102
  190SAPI   H9Y21938  -0.099   1.714   5.490  2.7059 -1.0961  2.2831
  190SAPI  C31021939  -0.051   1.916   5.419 -0.1542  0.6449 -0.0823
  190SAPI  H10X21940   0.058   1.921   5.400  0.0421  1.3013  1.1617
  190SAPI  H10Y21941  -0.090   2.018   5.441  1.8788  1.5005 -0.2266
  190SAPI  C31121942  -0.115   1.868   5.283 -0.6940  0.0158  0.0020
  190SAPI  H11X21943  -0.224   1.858   5.300 -0.7553  0.5637 -0.0463
  190SAPI  H11Y21944  -0.077   1.766   5.261  1.1562  0.7586 -0.4210
  190SAPI  C31221945  -0.066   1.967   5.177  0.6575  0.2647 -0.0996
  190SAPI  H12X21946   0.043   1.985   5.186  0.5728  0.9068 -0.3006
  190SAPI  H12Y21947  -0.126   2.059   5.192  0.2000  0.0566 -0.6163
  190SAPI  C31321948  -0.089   1.920   5.032 -0.1304  0.1303  0.5301
  190SAPI  H13X21949  -0.193   1.883   5.019 -0.0717  0.3128 -0.5290
  190SAPI  H13Y21950  -0.013   1.843   5.007 -0.1025  0.5900 -0.9147
  190SAPI  C31421951  -0.087   2.036   4.935 -0.4979  0.0432  0.1411
  190SAPI  H14X21952  -0.120   1.997   4.836  0.2749 -1.0135  0.2832
  190SAPI  H14Y21953   0.013   2.080   4.915 -0.8534 -0.2999 -2.9020
  190SAPI  C31521954  -0.177   2.163   4.959 -0.2230 -0.3766  0.3896
  190SAPI  H15X21955  -0.126   2.228   5.033  1.2520 -0.8582 -0.1611
  190SAPI  H15Y21956  -0.274   2.128   4.999 -0.3878 -1.7945 -1.1420
  190SAPI  C31621957  -0.200   2.253   4.835 -0.3696 -0.5019 -0.0624
  190SAPI  H16X21958  -0.255   2.184   4.767 -0.2688 -1.3752  0.7322
  190SAPI  H16Y21959  -0.096   2.271   4.801 -0.2677 -0.1116  0.4544
  190SAPI  C31721960  -0.279   2.374   4.868 -0.4133  0.7622  0.8226
  190SAPI  H17X21961  -0.239   2.422   4.960  1.4410  1.6605 -0.3789
  190SAPI  H17Y21962  -0.377   2.339   4.907  0.8743 -1.6117  2.1292
  190SAPI  C31821963  -0.300   2.475   4.752 -0.0707 -0.7156  0.4074
  190SAPI  H18X21964  -0.379   2.550   4.773  1.2934  0.7103  0.5938
  190SAPI  H18Y21965  -0.333   2.427   4.657  2.1482  0.2276 -0.9321
  190SAPI  H18Z21966  -0.206   2.532   4.734 -0.3762 -0.0281  0.9757
  191SAPI   C1221967   4.262   2.763   1.652  0.5246  0.2239 -0.0725
  191SAPI    H221968   4.170   2.722   1.698 -0.0496 -0.6763 -1.9420
  191SAPI    O221969   4.308   2.665   1.559 -0.4120 -0.4308  0.3515
  191SAPI   HO221970   4.344   2.594   1.612  0.3589 -0.1307  0.2395
  191SAPI   C1321971   4.227   2.894   1.593  0.5336 -0.6382  0.1210
  191SAPI    H321972   4.193   2.956   1.679 -1.1983 -0.3557 -0.7224
  191SAPI    O321973   4.115   2.889   1.506  0.4075  0.2549 -0.0028
  191SAPI   HO321974   4.148   2.857   1.422 -2.4652 -0.1256 -1.1031
  191SAPI   C1421975   4.346   2.967   1.530  0.2413  0.2027  0.0261
  191SAPI    H421976   4.352   2.909   1.435  0.9649 -0.0678  0.2318
  191SAPI    O421977   4.320   3.097   1.502  0.3041 -0.3397  0.1905
  191SAPI   HO421978   4.258   3.140   1.562  0.0664  0.2606 -0.4680
  191SAPI   C1521979   4.482   2.936   1.591  0.1980  0.1519  0.4374
  191SAPI    H521980   4.505   3.032   1.641 -0.6357  1.1837 -1.0836
  191SAPI    O521981   4.582   2.919   1.486 -0.4608 -0.0391 -0.4890
  191SAPI   HO521982   4.589   2.835   1.439  1.5711  0.5419 -1.3086
  191SAPI   C1621983   4.493   2.833   1.706 -0.0100  0.7774  0.5833
  191SAPI    H621984   4.551   2.746   1.667 -0.2506  1.2474 -0.8579
  191SAPI    O621985   4.587   2.869   1.808  0.3041 -0.0949 -0.1237
  191SAPI   HO621986   4.635   2.791   1.836  1.0552  0.6310  0.6600
  191SAPI   C1121987   4.361   2.779   1.762  0.0150  0.6608  0.4319
  191SAPI    H121988   4.321   2.861   1.826 -0.9633  0.0134  0.6844
  191SAPI     P21989   4.277   2.613   1.957 -0.1199  0.0505 -0.3731
  191SAPI   O1321990   4.303   2.477   2.012  0.0450 -0.1848  0.4080
  191SAPI   O1421991   4.139   2.654   1.927  0.3109  0.0520 -0.5990
  191SAPI   O1221992   4.372   2.648   1.825 -0.2167  0.1388 -0.1034
  191SAPI   O1121993   4.327   2.709   2.071 -0.0915 -0.0482 -0.0514
  191SAPI    C121994   4.463   2.747   2.106  0.0886 -0.1982 -0.5991
  191SAPI    HA21995   4.534   2.672   2.066  2.4068  2.1038 -1.0257
  191SAPI    HB21996   4.498   2.834   2.047 -1.1565  0.9007  0.2169
  191SAPI    C221997   4.487   2.750   2.256  0.0589 -0.7317 -0.0542
  191SAPI    HS21998   4.595   2.738   2.282  0.4479 -0.9527 -1.6780
  191SAPI   O2121999   4.411   2.653   2.325  0.6024 -0.2497  0.2381
  191SAPI   C2122000   4.452   2.521   2.306  0.2835  0.3135 -0.1010
  191SAPI   O2222001   4.552   2.484   2.248 -0.4179 -0.0550 -0.3473
  191SAPI   C2222002   4.368   2.418   2.377  0.3625  0.0926  0.4450
  191SAPI   H2R22003   4.333   2.463   2.472  2.5456  0.8768  0.9212
  191SAPI   H2S22004   4.293   2.383   2.302 -0.6924 -0.4145  1.7063
  191SAPI    C322005   4.444   2.895   2.309 -0.2137  0.4174  0.6098
  191SAPI    HX22006   4.338   2.911   2.277  0.6563  2.3235 -1.6810
  191SAPI    HY22007   4.505   2.970   2.254 -0.9007  1.0403  0.6735
  191SAPI   O3122008   4.459   2.916   2.456  0.6483  0.1045  0.7345
  191SAPI   C3122009   4.351   2.914   2.528  0.2768 -0.3694  0.3994
  191SAPI   O3222010   4.241   2.931   2.485  0.4784 -0.4478  0.0895
  191SAPI   C3222011   4.386   2.912   2.673  0.1185 -0.0504 -0.6344
  191SAPI   H2X22012   4.350   3.006   2.719  0.8098  1.1054 -2.3816
  191SAPI   H2Y22013   4.495   2.903   2.696 -0.2236  0.0773  1.2249
  191SAPI   C2322014   4.449   2.297   2.431  0.8433  0.4267  0.9313
  191SAPI   H3R22015   4.519   2.329   2.511  0.4213 -0.0444  1.4912
  191SAPI   H3S22016   4.509   2.254   2.348 -0.8172 -0.3886  0.1171
  191SAPI   C2422017   4.360   2.181   2.488  0.2112 -0.4682 -0.2176
  191SAPI   H4R22018   4.323   2.123   2.400 -1.5312  2.2857 -1.4515
  191SAPI   H4S22019   4.271   2.238   2.523  0.9385  1.3877 -1.2216
  191SAPI   C2522020   4.415   2.087   2.590 -0.9168 -0.8080 -0.0007
  191SAPI   H5R22021   4.472   2.010   2.536  0.1389 -0.5836  0.7449
  191SAPI   C2622022   4.409   2.089   2.724  0.3973  0.1943  0.0423
  191SAPI   H6R22023   4.470   2.018   2.782  1.1682  1.3120  0.6373
  191SAPI   C2722024   4.333   2.188   2.809 -0.5474  0.2629  0.3256
  191SAPI   H7R22025   4.262   2.128   2.870  0.2699 -2.9662 -1.6540
  191SAPI   H7S22026   4.261   2.246   2.748 -1.3774 -0.1147  0.9251
  191SAPI   C2822027   4.402   2.276   2.908  0.0630 -0.1061  0.5253
  191SAPI   H8R22028   4.460   2.355   2.857  1.7175 -1.1989  0.6247
  191SAPI   C2922029   4.402   2.275   3.046  0.0960  0.7881  0.5316
  191SAPI   H9R22030   4.466   2.348   3.099  1.4413 -1.2591  1.8456
  191SAPI  C21022031   4.324   2.185   3.139 -0.3254  0.1677 -0.4965
  191SAPI  H10R22032   4.238   2.143   3.081 -1.4635  1.5101  0.1549
  191SAPI  H10S22033   4.265   2.248   3.208 -0.6057 -0.5366 -0.0749
  191SAPI  C21122034   4.407   2.082   3.206 -0.5103  0.5541  0.0464
  191SAPI  H11R22035   4.466   2.012   3.145  0.7711 -0.1101  1.9485
  191SAPI  C21222036   4.413   2.058   3.342 -0.3171 -0.0273 -0.1495
  191SAPI  H12R22037   4.471   1.971   3.376  0.7969  0.8333  0.2023
  191SAPI  C21322038   4.337   2.132   3.448  0.2900 -0.0551  1.1162
  191SAPI  H13R22039   4.282   2.074   3.525  0.5523  0.7791  1.9605
  191SAPI  H13S22040   4.263   2.198   3.397  2.0499  0.7087 -0.6131
  191SAPI  C21422041   4.430   2.226   3.525  0.0916 -0.0297  0.6762
  191SAPI  H14R22042   4.476   2.309   3.471  0.8966 -0.5204  0.5912
  191SAPI  C21522043   4.460   2.215   3.658 -0.4886  0.1401 -0.9400
  191SAPI  H15R22044   4.525   2.288   3.707 -0.5607 -0.6285  0.3718
  191SAPI  C21622045   4.418   2.105   3.756  0.4895  0.5819 -0.0372
  191SAPI  H16R22046   4.362   2.027   3.699 -0.2730 -0.1515  1.6404
  191SAPI  H16S22047   4.344   2.133   3.834 -1.5223 -4.3869  0.2142
  191SAPI  C21722048   4.540   2.035   3.812  0.1596  0.2056  0.0536
  191SAPI  H17R22049   4.592   2.099   3.887 -1.2352 -0.6061  1.8083
  191SAPI  H17S22050   4.613   2.000   3.736 -0.1861  0.6018 -0.4736
  191SAPI  C21822051   4.490   1.915   3.892 -0.0867 -0.6895  0.0021
  191SAPI  H18R22052   4.425   1.856   3.825 -0.9476  0.5743 -0.3155
  191SAPI  H18S22053   4.426   1.961   3.971  0.4565  1.0928 -0.5415
  191SAPI  C21922054   4.604   1.832   3.967  0.3960  0.2021 -0.0068
  191SAPI  H19R22055   4.686   1.818   3.894  0.2527 -0.5297 -0.0352
  191SAPI  H19S22056   4.565   1.730   3.989  0.4483 -0.3087 -2.0779
  191SAPI  C22022057   4.667   1.890   4.095  1.4367  0.0825 -0.4385
  191SAPI  H20R22058   4.706   1.815   4.168  1.0236  1.3183  1.1096
  191SAPI  H20S22059   4.588   1.939   4.155  0.1765 -2.5024  0.1755
  191SAPI  H20T22060   4.739   1.970   4.068  0.7352  0.4758 -1.1633
  191SAPI   C3322061   4.307   2.795   2.741 -0.2211  0.3137  0.4176
  191SAPI   H3X22062   4.322   2.690   2.708  1.5914  0.2103  1.4772
  191SAPI   H3Y22063   4.200   2.825   2.731  0.0439  1.9115  2.0112
  191SAPI   C3422064   4.328   2.803   2.889  0.0783  0.8933 -0.0233
  191SAPI   H4X22065   4.288   2.902   2.920  0.4934  1.4000 -1.0378
  191SAPI   H4Y22066   4.436   2.789   2.910 -0.5340 -2.3078  1.6252
  191SAPI   C3522067   4.274   2.684   2.962  0.4919 -0.5949  0.0714
  191SAPI   H5X22068   4.299   2.596   2.899 -2.4187  0.4878 -2.8893
  191SAPI   H5Y22069   4.164   2.682   2.952  0.4597  1.7565 -0.6070
  191SAPI   C3622070   4.306   2.683   3.109  0.8270 -0.3145 -0.2824
  191SAPI   H6X22071   4.298   2.776   3.170 -0.0005 -0.2391 -0.4962
  191SAPI   H6Y22072   4.417   2.670   3.112  1.2387  2.5810  1.0190
  191SAPI   C3722073   4.233   2.561   3.169 -0.2213 -0.0870 -0.2849
  191SAPI   H7X22074   4.246   2.473   3.102  0.4697 -0.5732  0.4679
  191SAPI   H7Y22075   4.124   2.576   3.183  0.1467  1.9899  0.8481
  191SAPI   C3822076   4.293   2.524   3.310 -0.0746  0.8847  0.0887
  191SAPI   H8X22077   4.398   2.489   3.298  0.2945  1.4084  1.6014
  191SAPI   H8Y22078   4.240   2.433   3.347 -1.5024  1.5027 -0.3572
  191SAPI   C3922079   4.276   2.630   3.421  0.4125 -0.4096  0.5751
  191SAPI   H9X22080   4.177   2.680   3.416  0.4524 -0.2394  1.4051
  191SAPI   H9Y22081   4.356   2.704   3.398  0.5952 -0.3581  1.3665
  191SAPI  C31022082   4.295   2.572   3.563 -0.1692 -0.1044  0.0574
  191SAPI  H10X22083   4.396   2.527   3.571  1.1436  2.1133 -2.3978
  191SAPI  H10Y22084   4.214   2.498   3.579 -0.1732 -0.1114  0.0017
  191SAPI  C31122085   4.283   2.678   3.679  0.1107 -0.3297  0.2976
  191SAPI  H11X22086   4.187   2.734   3.673  0.2053 -0.3170 -1.8151
  191SAPI  H11Y22087   4.359   2.753   3.647  0.7477 -1.5773 -1.2163
  191SAPI  C31222088   4.300   2.624   3.818 -1.1749 -0.6400  0.0323
  191SAPI  H12X22089   4.259   2.522   3.836  1.4322 -1.2374  3.7733
  191SAPI  H12Y22090   4.269   2.698   3.895 -0.8407  0.4898 -0.8812
  191SAPI  C31322091   4.442   2.588   3.856  0.5470 -0.0374  0.0078
  191SAPI  H13X22092   4.498   2.684   3.860 -0.2651  0.4140  1.3558
  191SAPI  H13Y22093   4.493   2.535   3.773  0.0609 -1.1990  0.4412
  191SAPI  C31422094   4.466   2.516   3.988 -0.0584 -0.1725  0.1099
  191SAPI  H14X22095   4.415   2.576   4.066  1.2160 -0.0488  0.8697
  191SAPI  H14Y22096   4.574   2.507   4.012 -0.4053 -3.3489  0.8509
  191SAPI  C31522097   4.424   2.372   3.994  0.4392 -0.1835  0.1547
  191SAPI  H15X22098   4.473   2.310   3.916 -0.2647  0.5447 -0.8796
  191SAPI  H15Y22099   4.316   2.365   3.970  0.5655 -3.0440  0.1326
  191SAPI  C31622100   4.439   2.312   4.139  0.1404  1.1998 -0.4522
  191SAPI  H16X22101   4.396   2.387   4.208 -0.7161  0.2387  0.0789
  191SAPI  H16Y22102   4.543   2.294   4.172 -0.8360 -1.4666  1.4483
  191SAPI  C31722103   4.378   2.169   4.152  0.3047  0.2888 -0.4521
  191SAPI  H17X22104   4.387   2.140   4.258 -1.7348 -0.2795 -0.3813
  191SAPI  H17Y22105   4.444   2.095   4.102 -2.2703 -2.2124 -0.4292
  191SAPI  C31822106   4.234   2.146   4.121  0.0675 -0.3758 -0.1158
  191SAPI  H18X22107   4.212   2.147   4.012  3.0993 -1.1107 -0.8190
  191SAPI  H18Y22108   4.175   2.227   4.169 -0.2062 -1.0209  0.6579
  191SAPI  H18Z22109   4.203   2.052   4.171 -0.3107 -1.5781 -2.4685
  192SAPI   C1222110   0.580   6.622   2.314 -0.6880  0.3866  0.2293
  192SAPI    H222111   0.501   6.655   2.386 -0.7271  1.1168 -0.1360
  192SAPI    O222112   0.676   6.724   2.307 -0.0159 -0.1940  0.1894
  192SAPI   HO222113   0.631   6.802   2.275 -1.8102 -0.3155  2.1873
  192SAPI   C1322114   0.632   6.487   2.365 -0.0199 -0.4971 -0.5110
  192SAPI    H322115   0.546   6.416   2.372 -0.4666 -0.1454 -2.0268
  192SAPI    O322116   0.686   6.504   2.494  0.0738  0.0291 -0.4566
  192SAPI   HO322117   0.751   6.574   2.483  0.6989 -0.4624  0.0338
  192SAPI   C1422118   0.727   6.427   2.267 -0.0582  0.2302  0.3968
  192SAPI    H422119   0.829   6.467   2.282  1.3072 -2.9141  0.4176
  192SAPI    O422120   0.743   6.289   2.304  0.2416  0.0313 -0.2590
  192SAPI   HO422121   0.786   6.278   2.389 -0.3848 -1.0422 -0.0592
  192SAPI   C1522122   0.690   6.435   2.117  0.5675 -0.5741 -0.4131
  192SAPI    H522123   0.623   6.348   2.107 -0.9636  0.6437 -1.2281
  192SAPI    O522124   0.801   6.416   2.030  0.2641  0.2598  0.3101
  192SAPI   HO522125   0.808   6.331   1.988 -0.7622  0.5241 -0.4390
  192SAPI   C1622126   0.601   6.556   2.077 -0.7289  0.4120  0.1122
  192SAPI    H622127   0.668   6.645   2.072 -0.8684  0.4812 -0.6588
  192SAPI    O622128   0.545   6.544   1.947 -0.1156 -0.1334 -0.3418
  192SAPI   HO622129   0.511   6.631   1.928 -2.3600 -1.3178 -2.1511
  192SAPI   C1122130   0.508   6.596   2.186 -0.4326  0.3932 -0.2776
  192SAPI    H122131   0.438   6.511   2.201 -0.4060  0.2508 -0.9049
  192SAPI     P22132   0.280   6.749   2.133 -0.0086  0.1089 -0.5403
  192SAPI   O1322133   0.222   6.628   2.065 -0.9311 -0.2339 -0.3096
  192SAPI   O1422134   0.264   6.887   2.068 -0.0520 -0.2347  0.2324
  192SAPI   O1222135   0.442   6.717   2.151 -0.2751  0.3641 -0.4244
  192SAPI   O1122136   0.244   6.754   2.281 -0.4184  0.7264 -0.1737
  192SAPI    C122137   0.193   6.646   2.361  0.0004 -0.1475 -0.4247
  192SAPI    HA22138   0.090   6.615   2.331  0.2170 -2.7528  1.1894
  192SAPI    HB22139   0.261   6.559   2.368  2.1417  1.1964 -2.9267
  192SAPI    C222140   0.194   6.688   2.513  0.1137 -0.3220  0.1033
  192SAPI    HS22141   0.138   6.784   2.519 -0.1543 -0.4033 -0.8138
  192SAPI   O2122142   0.327   6.700   2.571  0.6821 -0.1509 -0.3874
  192SAPI   C2122143   0.378   6.827   2.567  0.7881 -0.1049  0.0755
  192SAPI   O2222144   0.332   6.923   2.503 -0.0761  0.0423 -0.0749
  192SAPI   C2222145   0.517   6.834   2.636 -0.4402  0.9647 -0.4940
  192SAPI   H2R22146   0.522   6.756   2.715  1.8981 -0.4632 -1.9239
  192SAPI   H2S22147   0.581   6.816   2.547  0.2542 -1.1394  0.3664
  192SAPI    C322148   0.126   6.567   2.600  0.6502  0.4087 -0.5585
  192SAPI    HX22149   0.200   6.484   2.607  0.9779  0.5506 -1.9779
  192SAPI    HY22150   0.041   6.524   2.542  0.1437 -4.2915  2.9922
  192SAPI   O3122151   0.075   6.603   2.732 -0.8050  0.5089  0.2373
  192SAPI   C3122152  -0.023   6.686   2.729 -0.2315 -0.7086 -0.3902
  192SAPI   O3222153  -0.070   6.735   2.627  0.6379 -0.0851  0.3905
  192SAPI   C3222154  -0.067   6.731   2.869  1.0660  0.7860 -0.0371
  192SAPI   H2X22155   0.019   6.773   2.927  1.2354 -1.2094  1.2639
  192SAPI   H2Y22156  -0.103   6.640   2.923  0.4610  1.3255  0.4876
  192SAPI   C2322157   0.549   6.965   2.709 -0.1211 -0.6847  0.0918
  192SAPI   H3R22158   0.477   6.980   2.793  1.6879  1.7223  1.3412
  192SAPI   H3S22159   0.542   7.050   2.638  2.3378  0.9405  1.6374
  192SAPI   C2422160   0.688   6.951   2.770 -1.0660 -0.2759  0.1281
  192SAPI   H4R22161   0.687   6.854   2.823  0.9225 -1.3680 -1.6617
  192SAPI   H4S22162   0.705   7.039   2.835  0.2097 -0.9570  0.7633
  192SAPI   C2522163   0.807   6.942   2.678 -0.1239  0.1674  0.3211
  192SAPI   H5R22164   0.792   6.878   2.589  1.6281  1.0340 -0.6521
  192SAPI   C2622165   0.932   6.981   2.694  0.1663 -0.4289  0.2138
  192SAPI   H6R22166   1.010   6.941   2.627  0.7928 -1.1614  1.3547
  192SAPI   C2722167   0.978   7.062   2.813 -0.3683 -0.2209 -0.4297
  192SAPI   H7R22168   0.926   7.030   2.906 -1.0050 -0.7928 -0.9815
  192SAPI   H7S22169   0.956   7.170   2.799 -1.4332 -0.3678  0.0155
  192SAPI   C2822170   1.130   7.056   2.834  0.2218 -0.5871  0.9013
  192SAPI   H8R22171   1.188   7.051   2.740 -0.6079 -2.2650  0.4377
  192SAPI   C2922172   1.192   7.061   2.953 -0.1498  0.5083 -0.2200
  192SAPI   H9R22173   1.300   7.048   2.964 -0.4801 -2.1396  0.4232
  192SAPI  C21022174   1.119   7.057   3.091  0.2001 -0.3396 -0.0563
  192SAPI  H10R22175   1.147   6.958   3.133  0.3220 -0.3898 -0.2542
  192SAPI  H10S22176   1.008   7.056   3.093  0.1443 -2.8281  2.4781
  192SAPI  C21122177   1.168   7.159   3.190  0.9696 -0.4532  0.2397
  192SAPI  H11R22178   1.260   7.216   3.169  0.0888  0.6207 -0.8573
  192SAPI  C21222179   1.101   7.168   3.308  0.1331 -0.3319 -0.1377
  192SAPI  H12R22180   1.133   7.250   3.373  1.4590 -1.2193  0.3813
  192SAPI  C21322181   0.978   7.107   3.353  0.0686  0.4176  0.2703
  192SAPI  H13R22182   0.888   7.116   3.287 -0.0546 -0.6626  0.2774
  192SAPI  H13S22183   0.947   7.155   3.448  0.3051 -0.5194  0.8241
  192SAPI  C21422184   0.987   6.957   3.362  0.2028  0.7385  0.0929
  192SAPI  H14R22185   0.973   6.900   3.269 -0.2729  1.1283 -0.0783
  192SAPI  C21522186   1.026   6.891   3.470  0.4410  0.3711  0.5157
  192SAPI  H15R22187   1.020   6.781   3.476 -0.4489  0.2950 -1.0724
  192SAPI  C21622188   1.074   6.952   3.600  0.0718 -0.5286  0.2266
  192SAPI  H16R22189   1.125   7.050   3.584 -2.8919  1.4577  2.0122
  192SAPI  H16S22190   1.154   6.884   3.638 -1.2858 -1.7078  1.0709
  192SAPI  C21722191   0.977   6.971   3.718  1.1206 -0.5245  0.9413
  192SAPI  H17R22192   0.924   6.875   3.732 -0.6113  0.1214 -0.7917
  192SAPI  H17S22193   0.898   7.048   3.706 -0.1330 -1.4278  2.9007
  192SAPI  C21822194   1.049   7.011   3.849 -0.2945 -0.2728  0.3947
  192SAPI  H18R22195   1.113   7.100   3.828 -0.4370 -0.6056 -1.7098
  192SAPI  H18S22196   1.122   6.939   3.892 -0.0642  0.8587  1.9824
  192SAPI  C21922197   0.954   7.055   3.956  0.3671  0.3967 -0.0791
  192SAPI  H19R22198   0.867   7.102   3.905  0.1775  0.9876  0.7596
  192SAPI  H19S22199   1.002   7.133   4.019 -0.9984  1.0938  0.1539
  192SAPI  C22022200   0.906   6.941   4.043  0.4962 -0.1777 -0.0572
  192SAPI  H20R22201   0.851   6.872   3.975 -2.1859  1.4643  0.3007
  192SAPI  H20S22202   0.835   6.971   4.123  0.4871  3.7322 -1.3266
  192SAPI  H20T22203   0.995   6.891   4.088  0.6976  1.0937  1.0106
  192SAPI   C3322204  -0.181   6.830   2.869  0.1890  0.2699 -0.2120
  192SAPI   H3X22205  -0.278   6.795   2.827 -0.0802  1.7649 -0.8989
  192SAPI   H3Y22206  -0.150   6.901   2.790  0.0147  0.7489  0.1461
  192SAPI   C3422207  -0.209   6.897   3.002  0.1998 -0.6470 -0.0972
  192SAPI   H4X22208  -0.299   6.961   2.987  1.3421  1.0494  0.0561
  192SAPI   H4Y22209  -0.126   6.968   3.022 -0.7845  0.6582 -0.4601
  192SAPI   C3522210  -0.223   6.804   3.125  0.2263  0.3214  0.0274
  192SAPI   H5X22211  -0.129   6.751   3.149  1.7357  2.6723 -0.3928
  192SAPI   H5Y22212  -0.304   6.733   3.097 -0.2645  0.2483  1.5669
  192SAPI   C3622213  -0.264   6.883   3.258 -0.4342  0.6281  0.1181
  192SAPI   H6X22214  -0.359   6.937   3.240 -3.3991 -4.2703 -0.7089
  192SAPI   H6Y22215  -0.170   6.936   3.286 -0.6478  0.4755  1.1627
  192SAPI   C3722216  -0.304   6.797   3.376  0.3208  0.8592 -0.6742
  192SAPI   H7X22217  -0.215   6.745   3.417  1.2965  3.5064  0.7670
  192SAPI   H7Y22218  -0.369   6.724   3.323 -0.1063  1.4512 -0.9868
  192SAPI   C3822219  -0.370   6.872   3.489  0.1726  0.3114  0.1034
  192SAPI   H8X22220  -0.409   6.800   3.564  0.5058 -0.2314 -0.2418
  192SAPI   H8Y22221  -0.455   6.931   3.449 -0.7893 -0.9513  0.2270
  192SAPI   C3922222  -0.275   6.965   3.563  0.1862  0.4028  0.1312
  192SAPI   H9X22223  -0.251   7.061   3.512 -2.2639  1.6164  1.0458
  192SAPI   H9Y22224  -0.179   6.911   3.576  0.1543  0.1655 -0.5795
  192SAPI  C31022225  -0.330   7.006   3.696  0.0173  0.0761  0.5664
  192SAPI  H10X22226  -0.340   6.908   3.747  0.1536 -0.1116  0.2398
  192SAPI  H10Y22227  -0.428   7.058   3.687  0.2901  0.5559  0.3032
  192SAPI  C31122228  -0.229   7.093   3.774 -0.0052  0.3083 -0.0406
  192SAPI  H11X22229  -0.209   7.187   3.718  1.0996  0.6366  0.8727
  192SAPI  H11Y22230  -0.135   7.035   3.780  1.0101  1.7893 -0.8523
  192SAPI  C31222231  -0.274   7.125   3.916 -0.3538  0.0815  0.4396
  192SAPI  H12X22232  -0.294   7.036   3.979 -0.0619  1.0028  1.8974
  192SAPI  H12Y22233  -0.370   7.179   3.895 -0.9024 -0.9632  0.2078
  192SAPI  C31322234  -0.182   7.222   4.002 -0.0637  0.9512 -0.3231
  192SAPI  H13X22235  -0.225   7.218   4.104  0.3957  1.2852 -0.1128
  192SAPI  H13Y22236  -0.172   7.326   3.964  0.6427  1.3255  0.8313
  192SAPI  C31422237  -0.037   7.165   4.007 -0.5027 -0.5256 -0.6996
  192SAPI  H14X22238  -0.007   7.166   3.900 -0.2685 -1.8573 -0.6577
  192SAPI  H14Y22239  -0.042   7.060   4.040 -1.2428 -1.1614 -2.6465
  192SAPI  C31522240   0.060   7.239   4.108  0.7407  0.9067  0.5011
  192SAPI  H15X22241   0.052   7.349   4.101 -3.2730  0.8683  1.7180
  192SAPI  H15Y22242   0.163   7.209   4.082 -0.1725 -2.3547  0.0994
  192SAPI  C31622243   0.037   7.200   4.256 -0.2537 -0.3603  0.1145
  192SAPI  H16X22244   0.042   7.091   4.279 -1.0491 -0.3634  0.2714
  192SAPI  H16Y22245  -0.066   7.234   4.276  0.0390 -0.1989  1.4310
  192SAPI  C31722246   0.137   7.270   4.349 -0.0787 -0.1540  0.0523
  192SAPI  H17X22247   0.113   7.377   4.329 -1.0948  0.0319  1.9684
  192SAPI  H17Y22248   0.241   7.244   4.321  0.0118 -0.0099  0.2514
  192SAPI  C31822249   0.106   7.255   4.496 -0.2348 -0.2478  0.2798
  192SAPI  H18X22250   0.145   7.161   4.540 -2.8862 -1.8546 -0.5851
  192SAPI  H18Y22251  -0.002   7.279   4.508 -0.7027 -0.9499 -2.0359
  192SAPI  H18Z22252   0.166   7.330   4.552 -1.3451 -0.1314  1.3523
  193SOD    SOD22253   3.490   0.548   6.191  0.2989 -0.5440 -0.6274
  194SOD    SOD22254   2.921   6.783   0.342  0.0338 -0.3792 -0.4024
  195SOD    SOD22255   0.157   1.355   8.409 -0.2944  0.0022 -0.0538
  196SOD    SOD22256   2.356   3.620   6.133  0.5500  0.1835  0.1111
  197SOD    SOD22257   3.605   0.648   0.252  0.0619 -0.9115 -0.0458
  198SOD    SOD22258   5.590   1.971   7.464  0.1984  0.5788  0.7586
  199SOD    SOD22259   4.122   5.231   0.352  0.1575 -0.4155 -0.2641
  200SOD    SOD22260   4.432   4.113   1.721  0.2144 -0.7245 -0.2430
  201SOD    SOD22261   5.643   5.405   1.688  0.0558  0.6230 -0.3012
  202SOD    SOD22262   2.520   1.819   8.496  0.3648 -0.2842 -0.4377
  203SOD    SOD22263   5.354   6.132   0.599  0.5471 -0.3465 -0.3686
  204SOD    SOD22264   6.704   5.410   1.430 -0.2343 -0.2202 -0.1733
  205SOD    SOD22265   4.999   0.622   7.495 -0.0507 -0.3084  0.0648
  206SOD    SOD22266   0.629   2.840   7.103 -0.3192 -0.2797  0.8600
  207SOD    SOD22267   6.376   2.118   8.157 -0.2195  0.0941 -0.3530
  208SOD    SOD22268   6.772   1.491   6.956 -0.2768  0.3783  0.0884
  209SOD    SOD22269   3.115   5.645   6.638 -0.4510  0.0310 -0.5232
  210SOD    SOD22270   0.079   3.620   1.956 -0.3749 -0.4257 -0.2479
  211SOD    SOD22271   1.570   3.964   8.520  0.2391 -0.2997 -0.2751
  212SOD    SOD22272   0.979   1.582   2.244  0.1856 -0.0624  0.2845
  213SOD    SOD22273   2.570   1.648   0.629 -0.7141 -0.1935 -0.0310
  214SOD    SOD22274   2.754   2.788   6.988 -0.2781  0.2475 -0.0325
  215SOD    SOD22275   2.815   2.165   2.010  0.4552  0.0995 -0.1222
  216SOD    SOD22276   1.448   1.042   7.115 -0.1766 -0.1099 -0.1174
  217SOD    SOD22277   0.094   5.123   2.121 -0.0041 -0.3769 -0.4453
  218SOD    SOD22278   6.262   5.767   0.754  0.0448 -0.4519 -0.2204
  219SOD    SOD22279   0.191   0.904   1.804 -0.1721 -0.1855 -0.5874
  220SOD    SOD22280   1.798   2.437   2.243  0.0138 -0.4386  0.2326
  221SOD    SOD22281   3.699   1.418   2.215  0.0126  0.1719  0.5172
  222SOD    SOD22282   1.685   4.278   6.903 -0.1634  0.3754  0.0599
  223SOD    SOD22283   4.279   5.561   1.431  0.1377  0.0892 -0.2201
  224SOD    SOD22284   3.649   3.946   1.653 -0.1045 -0.0112 -0.4811
  225SOD    SOD22285   1.496   6.853   6.502  0.7359 -0.6911  0.4576
  226SOD    SOD22286   0.463   5.869   7.705  0.0323  0.4415  0.4458
  227SOD    SOD22287   6.328   4.267   8.226  0.2318  0.3232 -0.2161
  228SOD    SOD22288   4.433   6.764   6.584  0.3288 -0.2843  0.0632
  229SOD    SOD22289   0.810   0.997   1.619  0.0529 -0.0630  0.4383
  230SOD    SOD22290   3.724   1.331   6.977 -0.2147 -0.6341  0.1791
  231SOD    SOD22291   0.049   3.331   1.248  0.0091 -0.5314  0.5277
  232SOD    SOD22292   4.991   0.820   0.991 -0.1214  0.3689 -0.1178
  233SOD    SOD22293   6.720   5.321   6.868  0.3246  0.8328  0.0104
  234CLA    CLA22294   5.361   3.284   7.638  0.3077 -0.1535  0.3307
  235CLA    CLA22295   2.622   6.507   8.196 -0.0247  0.2312  0.2992
  236CLA    CLA22296   1.472   5.948   8.291  0.2654 -0.0637  0.3221
  237CLA    CLA22297   0.097   1.576   7.936 -0.0847 -0.3263  0.2384
  238CLA    CLA22298   6.710   0.433   0.127  0.0287  0.1490  0.4415
  239CLA    CLA22299   1.968   3.818   0.576 -0.1175  0.2481 -0.0160
  240CLA    CLA22300   1.031   2.186   0.664  0.0304 -0.1854 -0.0761
  241CLA    CLA22301   4.419   0.637   1.022  0.3948  0.1818  0.1987
  242CLA    CLA22302   6.870   4.466   1.337 -0.4593 -0.2409  0.1573
  243CLA    CLA22303   1.917   6.672   6.756 -0.0018  0.5440  0.4644
  244CLA    CLA22304   2.613   3.628   0.492 -0.2054  0.5135 -0.1174
  245CLA    CLA22305   2.281   1.975   0.839  0.0593  0.6585  0.0256
  246CLA    CLA22306   4.457   1.538   8.027  0.0941 -0.0759  0.3111
  247CLA    CLA22307   0.899   6.073   0.760  0.0057  0.1137 -0.0911
  248CLA    CLA22308   3.647   5.691   8.004 -0.1462  0.0429  0.2530
  249CLA    CLA22309   6.310   0.728   7.113 -0.2056  0.1289 -0.1500
  250CLA    CLA22310   6.215   4.707   1.255  0.1655 -0.1740  0.1649
  251TIP3   OH222311   2.178   1.607   0.422  0.9450  0.2225  0.1976
  251TIP3    H122312   2.160   1.662   0.498 -0.0872 -0.0450  0.1627
  251TIP3    H222313   2.126   1.527   0.437 -0.8023  0.9120 -1.6322
  252TIP3   OH222314   5.024   6.277   1.731 -0.7049  0.3333 -0.2102
  252TIP3    H122315   4.944   6.323   1.755  0.7838  1.3314  3.3920
  252TIP3    H222316   5.088   6.346   1.716  0.0704 -0.5123 -0.9106
  253TIP3   OH222317   2.968   1.472   0.159  0.3600  0.0488  0.2998
  253TIP3    H122318   2.976   1.378   0.176  0.9644 -0.4233 -2.1718
  253TIP3    H222319   2.874   1.488   0.156  0.2507 -0.5617  0.3289
  254TIP3   OH222320   3.686   3.868   0.510 -0.3336  0.2048  1.2192
  254TIP3    H122321   3.598   3.843   0.539  0.6598 -1.0005  3.3791
  254TIP3    H222322   3.683   3.964   0.507 -2.2128  0.1701 -0.5694
  255TIP3   OH222323   0.086   0.900   7.021  0.5181 -0.2984  0.0320
  255TIP3    H122324   0.170   0.909   7.067  0.6246  0.1044 -0.2330
  255TIP3    H222325   0.090   0.813   6.982  1.2658  0.1023 -0.8395
  256TIP3   OH222326   2.987   5.824   6.613 -0.5834  0.2985 -0.0314
  256TIP3    H122327   3.027   5.885   6.675 -0.5627 -2.6331  3.0993
  256TIP3    H222328   2.893   5.834   6.628 -0.7621  1.4892 -1.6289
  257TIP3   OH222329   2.339   1.035   1.930  0.2384 -0.0677  0.5323
  257TIP3    H122330   2.315   0.981   1.854  1.4819 -0.4380  0.3686
  257TIP3    H222331   2.435   1.038   1.927  0.2260  1.4002  1.0808
  258TIP3   OH222332   1.166   2.078   7.211  0.0024 -0.4923 -0.8108
  258TIP3    H122333   1.129   2.166   7.200 -0.3358 -0.3846  0.9165
  258TIP3    H222334   1.092   2.019   7.197 -0.2162 -0.4042 -0.0508
  259TIP3   OH222335   2.363   2.796   6.287 -0.2493  0.7749 -0.0775
  259TIP3    H122336   2.344   2.886   6.261 -0.8371  0.9485  0.9006
  259TIP3    H222337   2.434   2.768   6.229  0.1860  1.9891 -0.1452
  260TIP3   OH222338   5.571   6.312   7.673 -0.3487  0.6975  0.0999
  260TIP3    H122339   5.522   6.270   7.602 -1.3434  0.5839  0.8268
  260TIP3    H222340   5.507   6.319   7.745  0.4029  1.5483  0.7024
  261TIP3   OH222341   4.237   2.812   0.231  0.6986  0.6083 -0.3762
  261TIP3    H122342   4.255   2.759   0.309  0.3538  0.0014 -0.6999
  261TIP3    H222343   4.300   2.884   0.236  1.3299  0.0498 -0.0405
  262TIP3   OH222344   5.826   3.784   7.568  0.5161 -0.2152  0.3055
  262TIP3    H122345   5.780   3.753   7.646  1.5625  0.3812  1.1889
  262TIP3    H222346   5.763   3.773   7.497 -1.3297  1.3859  1.5911
  263TIP3   OH222347   0.758   5.018   7.451  0.2242 -0.5681  0.5027
  263TIP3    H122348   0.672   5.051   7.479 -0.0946  0.2620 -1.2640
  263TIP3    H222349   0.762   5.041   7.358  1.9732 -1.4622  0.3295
  264TIP3   OH222350   1.123   3.018   7.590 -0.0493 -0.2358 -0.3284
  264TIP3    H122351   1.110   3.109   7.566 -1.4836  0.5251  2.8524
  264TIP3    H222352   1.037   2.977   7.579  0.3036 -0.9379 -0.5757
  265TIP3   OH222353   1.057   2.747   1.195 -0.1101  0.4037  0.2174
  265TIP3    H122354   1.128   2.723   1.254 -0.1454  0.5756  0.3302
  265TIP3    H222355   1.026   2.831   1.228  0.3429  0.8471 -0.4627
  266TIP3   OH222356   3.935   4.280   1.180  0.5128  0.2480 -0.5253
  266TIP3    H122357   3.865   4.215   1.171  1.3005 -0.7921  0.5218
  266TIP3    H222358   3.937   4.325   1.095 -1.5617  0.4843 -0.5103
  267TIP3   OH222359   3.484   5.822   1.149  0.1214  0.2147  0.1512
  267TIP3    H122360   3.561   5.768   1.131  0.0034  0.4372 -1.0980
  267TIP3    H222361   3.471   5.873   1.069  0.0521  1.8897  1.1989
  268TIP3   OH222362   2.658   4.964   7.923  0.1014  0.5741 -0.3647
  268TIP3    H122363   2.713   5.041   7.938  1.1002 -0.2405  0.3281
  268TIP3    H222364   2.719   4.890   7.931 -0.7931 -0.2779 -1.2396
  269TIP3   OH222365   6.632   2.972   8.484 -0.2155 -0.1801 -0.8490
  269TIP3    H122366   6.666   2.905   8.543  0.1388  0.4282 -0.3390
  269TIP3    H222367   6.607   3.044   8.543  0.2466  0.4830 -1.4473
  270TIP3   OH222368   2.872   2.177   7.179 -0.6971 -1.3014  0.3387
  270TIP3    H122369   2.952   2.131   7.153 -1.5779 -1.5647 -2.1296
  270TIP3    H222370   2.870   2.254   7.122 -0.5778  0.5035  2.6316
  271TIP3   OH222371   1.568   2.049   7.026 -0.0314 -0.0435  0.0059
  271TIP3    H122372   1.491   1.998   7.051  0.4554 -0.3864  0.8552
  271TIP3    H222373   1.555   2.134   7.068 -1.0871  0.7475 -1.8224
  272TIP3   OH222374   0.546   1.752   7.783  0.0951 -0.6907 -0.3280
  272TIP3    H122375   0.517   1.840   7.807  0.0577 -0.5055 -1.0239
  272TIP3    H222376   0.564   1.758   7.689 -1.8606 -1.9159 -0.8519
  273TIP3   OH222377   2.452   0.730   7.394 -0.7444  0.7409 -0.0118
  273TIP3    H122378   2.488   0.818   7.387  2.0493 -0.3057 -0.0068
  273TIP3    H222379   2.380   0.738   7.457 -0.7845  3.0539 -0.2991
  274TIP3   OH222380   2.699   6.300   2.723  0.1943  0.0072 -0.3156
  274TIP3    H122381   2.630   6.367   2.719  0.3226  0.2882  1.2481
  274TIP3    H222382   2.655   6.223   2.758  0.8072  0.4491  1.5370
  275TIP3   OH222383   0.190   3.231   0.426  0.2333 -0.1770  0.1010
  275TIP3    H122384   0.180   3.178   0.505 -0.5488  0.2479  0.2906
  275TIP3    H222385   0.236   3.309   0.455 -2.1998  1.1390  0.6847
  276TIP3   OH222386   0.390   0.307   8.067 -0.1684 -0.6985 -0.0507
  276TIP3    H122387   0.429   0.325   7.981 -2.9325  1.9596 -0.9148
  276TIP3    H222388   0.433   0.369   8.126 -1.1547  0.4349 -0.4733
  277TIP3   OH222389   3.803   6.703   7.399 -0.2371 -0.1703 -0.3293
  277TIP3    H122390   3.768   6.672   7.483  1.0913  0.6838  0.5786
  277TIP3    H222391   3.789   6.630   7.339  1.4751 -2.0500  1.3794
  278TIP3   OH222392   3.759   0.775   0.581 -0.5834  0.0801 -0.2025
  278TIP3    H122393   3.669   0.794   0.608 -0.6347  0.0650 -0.3635
  278TIP3    H222394   3.812   0.833   0.635 -0.6258 -0.5791  0.5710
  279TIP3   OH222395   1.108   2.376   8.353 -0.1938  0.1848 -0.6417
  279TIP3    H122396   1.023   2.405   8.385 -0.1421  1.1909 -1.3783
  279TIP3    H222397   1.087   2.311   8.285 -0.3466 -0.1756 -0.2540
  280TIP3   OH222398   3.470   3.360   0.203  0.1359 -0.3696  0.0048
  280TIP3    H122399   3.414   3.294   0.243  0.6144 -0.9107 -0.1983
  280TIP3    H222400   3.413   3.436   0.190 -0.8876 -1.3186 -1.3507
  281TIP3   OH222401   1.297   5.980   8.547 -0.2090 -0.6034  0.1334
  281TIP3    H122402   1.257   5.893   8.546  0.8634 -1.1278 -1.5003
  281TIP3    H222403   1.341   5.987   8.463  0.5230  1.1660  0.6149
  282TIP3   OH222404   6.728   3.169   7.774  0.0974 -0.1883 -1.0996
  282TIP3    H122405   6.755   3.077   7.777  0.8005  0.0372 -0.1800
  282TIP3    H222406   6.796   3.213   7.724  0.6636  0.1129 -0.0950
  283TIP3   OH222407   5.025   6.863   7.726  0.4033  0.0601  0.0318
  283TIP3    H122408   4.996   6.775   7.702 -1.3146  0.9150 -1.3065
  283TIP3    H222409   4.960   6.894   7.789 -0.4834  1.2444 -1.3958
  284TIP3   OH222410   4.563   3.455   0.090  0.6081  0.0692 -0.5473
  284TIP3    H122411   4.539   3.491   0.175  0.8137  1.3785 -1.0168
  284TIP3    H222412   4.482   3.453   0.040  0.9626  2.1488 -1.2996
  285TIP3   OH222413   5.321   0.699   6.594 -0.3308 -0.6742  0.2689
  285TIP3    H122414   5.281   0.652   6.667 -3.6332  1.1280 -0.2054
  285TIP3    H222415   5.292   0.790   6.605  0.4175 -0.0283 -2.3721
  286TIP3   OH222416   2.978   2.211   0.533 -0.4038 -0.0784  0.2815
  286TIP3    H122417   2.972   2.127   0.486 -0.4914  0.5402 -0.8389
  286TIP3    H222418   2.913   2.267   0.490 -0.9763  0.3136  1.5917
  287TIP3   OH222419   3.787   1.195   7.390 -0.1022  0.1941 -0.0418
  287TIP3    H122420   3.734   1.275   7.396  0.1121  0.3493 -0.2208
  287TIP3    H222421   3.849   1.202   7.463  0.9197  0.9283 -0.9455
  288TIP3   OH222422   6.425   1.807   1.951  0.1532 -0.3461 -0.2542
  288TIP3    H122423   6.363   1.739   1.977  0.7048 -0.8198 -0.1491
  288TIP3    H222424   6.371   1.885   1.936 -0.3157 -0.3377  1.2585
  289TIP3   OH222425   2.983   1.440   0.881  0.4774  0.0787 -0.2329
  289TIP3    H122426   3.013   1.509   0.941  1.4312 -0.4395 -0.1036
  289TIP3    H222427   3.052   1.374   0.884 -1.7604 -2.4360  2.1264
  290TIP3   OH222428   1.043   1.263   8.168 -1.3437  0.2892 -0.4480
  290TIP3    H122429   1.103   1.214   8.224 -1.0118  0.0320 -1.0124
  290TIP3    H222430   0.990   1.315   8.228 -0.7963  0.2431  0.0831
  291TIP3   OH222431   4.232   5.166   6.493 -0.1465  0.0813  0.4523
  291TIP3    H122432   4.140   5.139   6.488  0.3507 -1.8097  0.9679
  291TIP3    H222433   4.229   5.253   6.532 -1.7698  0.4546 -0.4173
  292TIP3   OH222434   3.618   3.246   6.885 -0.5087  0.0465 -0.0013
  292TIP3    H122435   3.688   3.292   6.838 -0.7815 -0.4427 -0.8997
  292TIP3    H222436   3.552   3.228   6.818 -1.8482  1.1387  0.9573
  293TIP3   OH222437   1.343   4.310   6.192 -0.6560 -0.3346  0.0983
  293TIP3    H122438   1.323   4.287   6.102  1.9433 -1.1710 -0.3538
  293TIP3    H222439   1.402   4.385   6.185  0.1279 -0.8407  1.0519
  294TIP3   OH222440   4.099   0.607   1.088 -0.2389  0.1132 -0.5193
  294TIP3    H122441   4.107   0.618   0.993  0.2223  1.3304 -0.3557
  294TIP3    H222442   4.188   0.585   1.117 -0.5861 -1.3527 -0.4763
  295TIP3   OH222443   4.939   1.099   1.884 -0.6490  0.2386 -0.6122
  295TIP3    H122444   4.889   1.030   1.929  1.3369 -1.3586 -0.7235
  295TIP3    H222445   4.913   1.179   1.928 -3.3243 -0.4597 -0.7012
  296TIP3   OH222446   4.025   5.294   1.083 -0.2032 -0.2198  0.1572
  296TIP3    H122447   4.028   5.333   0.996  2.2791  1.3580  0.8456
  296TIP3    H222448   3.944   5.243   1.084 -1.6682  1.8365 -2.1434
  297TIP3   OH222449   1.057   0.499   7.651 -0.4544  0.1734 -0.5102
  297TIP3    H122450   1.083   0.586   7.684 -0.3343  0.4670 -1.3679
  297TIP3    H222451   1.027   0.515   7.562 -1.9524 -0.4344 -0.1397
  298TIP3   OH222452   1.458   6.715   7.912 -0.1817  0.2227  0.3796
  298TIP3    H122453   1.547   6.714   7.877  0.3025 -0.1562  1.5731
  298TIP3    H222454   1.427   6.804   7.897 -0.0721  0.0190 -1.1700
  299TIP3   OH222455   4.239   4.403   1.808 -0.0611 -0.4898  0.1299
  299TIP3    H122456   4.161   4.360   1.843 -1.1229  2.5842  1.9061
  299TIP3    H222457   4.309   4.376   1.867 -0.3909 -0.8900  0.3476
  300TIP3   OH222458   1.577   4.835   6.079 -0.2594 -0.4386  0.6192
  300TIP3    H122459   1.588   4.900   6.148  1.1658  1.4722 -1.2808
  300TIP3    H222460   1.656   4.781   6.083  1.6079  1.8834 -1.5785
  301TIP3   OH222461   0.494   2.144   2.623 -0.4584  0.6395  0.5525
  301TIP3    H122462   0.501   2.057   2.584  1.0881  1.0839 -0.2629
  301TIP3    H222463   0.564   2.195   2.580 -0.8055  2.0524  1.5926
  302TIP3   OH222464   1.541   2.283   7.182 -0.3326  0.1066  0.4565
  302TIP3    H122465   1.474   2.319   7.241  0.9011  2.1685  0.6881
  302TIP3    H222466   1.604   2.241   7.241  0.2349  1.0406  0.5360
  303TIP3   OH222467   0.772   4.973   0.495 -0.4349  0.3878 -0.0098
  303TIP3    H122468   0.732   4.919   0.563  0.1962 -0.2755 -0.1470
  303TIP3    H222469   0.853   4.926   0.472  0.1783  1.4374 -0.0654
  304TIP3   OH222470   4.954   5.430   6.933  0.2973  0.2555  0.5124
  304TIP3    H122471   4.921   5.498   6.874 -0.2892 -1.1375 -0.8525
  304TIP3    H222472   4.912   5.350   6.902  0.1353 -0.5722  2.7498
  305TIP3   OH222473   4.610   4.980   1.970 -0.1836 -0.0125 -0.1461
  305TIP3    H122474   4.541   4.959   2.033 -0.3842 -0.0224 -0.3681
  305TIP3    H222475   4.691   4.964   2.017 -0.3313  0.4601  0.2750
  306TIP3   OH222476   3.505   1.096   2.066  0.0813  0.4358  0.3213
  306TIP3    H122477   3.423   1.102   2.114  0.1732  0.0801  0.5212
  306TIP3    H222478   3.487   1.035   1.995 -0.1045  1.0846 -0.2090
  307TIP3   OH222479   1.467   1.408   7.954 -0.0998 -0.8123 -0.2471
  307TIP3    H122480   1.393   1.462   7.926  0.1174 -0.3687  0.0420
  307TIP3    H222481   1.427   1.339   8.007 -0.2348 -0.1776  0.4840
  308TIP3   OH222482   6.025   0.972   6.333  0.5010  0.1982  0.1378
  308TIP3    H122483   5.986   0.922   6.404  1.4044  0.4746  0.8420
  308TIP3    H222484   5.950   1.009   6.286 -0.1174 -0.3880  0.6510
  309TIP3   OH222485   4.514   2.474   7.144 -0.0508 -0.1015  0.5951
  309TIP3    H122486   4.502   2.474   7.239 -0.1827  1.3712  0.6081
  309TIP3    H222487   4.609   2.463   7.131  0.0158  0.0785  0.9212
  310TIP3   OH222488   5.405   5.971   0.758 -0.2443  0.0001 -0.1885
  310TIP3    H122489   5.498   5.986   0.772  0.0058  0.7159 -2.2433
  310TIP3    H222490   5.393   5.877   0.772  0.3536  0.2061  2.0536
  311TIP3   OH222491   4.847   3.322   1.772 -0.3977 -0.2569 -0.0473
  311TIP3    H122492   4.926   3.330   1.826  0.1050 -1.1916 -0.6272
  311TIP3    H222493   4.828   3.412   1.744 -0.4537  0.1982  1.3574
  312TIP3   OH222494   0.544   6.791   1.123  0.3318 -0.0499 -0.1983
  312TIP3    H122495   0.592   6.709   1.111 -0.7317 -0.7875  0.3371
  312TIP3    H222496   0.452   6.765   1.114  0.0376  1.4909 -2.2138
  313TIP3   OH222497   0.880   1.608   2.051  0.4405 -0.3339  0.0164
  313TIP3    H122498   0.792   1.572   2.056  1.0726 -2.1849 -1.1729
  313TIP3    H222499   0.870   1.691   2.003 -0.5720 -0.7522 -0.5143
  314TIP3   OH222500   6.720   5.194   0.617 -0.0630  0.3289 -0.4562
  314TIP3    H122501   6.718   5.132   0.690  0.1422 -1.0270 -1.5646
  314TIP3    H222502   6.725   5.139   0.538  1.6281  1.7579 -1.4388
  315TIP3   OH222503   3.605   5.445   1.618 -0.5285 -0.3897  0.3594
  315TIP3    H122504   3.545   5.447   1.543  0.7861  0.0180 -0.7107
  315TIP3    H222505   3.568   5.510   1.679 -1.1612 -0.1220 -0.2884
  316TIP3   OH222506   1.293   1.948   0.229 -0.3673 -0.4420  0.0919
  316TIP3    H122507   1.343   1.873   0.261  1.4405  0.7199  0.1347
  316TIP3    H222508   1.278   2.003   0.306  1.4186  0.9157 -0.4535
  317TIP3   OH222509   0.188   1.865   2.096 -0.6284 -0.0450 -0.3733
  317TIP3    H122510   0.161   1.949   2.060 -1.9238  0.1782  0.9719
  317TIP3    H222511   0.121   1.845   2.161 -0.5114 -2.2770 -0.8695
  318TIP3   OH222512   6.227   1.914   7.311  0.1850  0.1107  0.3219
  318TIP3    H122513   6.273   1.935   7.230 -0.0292 -0.5616  0.0235
  318TIP3    H222514   6.222   1.998   7.357  3.1914 -0.0626  1.1605
  319TIP3   OH222515   2.855   3.437   6.349  0.5619  0.1721 -0.3705
  319TIP3    H122516   2.868   3.342   6.350  2.7757  0.4089 -0.2846
  319TIP3    H222517   2.922   3.470   6.409 -0.7628  1.7584  0.3158
  320TIP3   OH222518   3.776   5.104   6.277 -0.0384  0.1734 -0.2997
  320TIP3    H122519   3.709   5.051   6.322 -0.7605  1.1532 -0.1929
  320TIP3    H222520   3.738   5.120   6.190  0.7696 -0.5967 -0.8134
  321TIP3   OH222521   2.152   1.483   7.974  0.2944 -0.1901 -0.2783
  321TIP3    H122522   2.213   1.548   8.010  0.7834 -0.8350  0.0793
  321TIP3    H222523   2.141   1.420   8.045  1.2904 -1.5111 -1.2438
  322TIP3   OH222524   1.265   2.045   0.504  0.0539 -0.0167 -0.2216
  322TIP3    H122525   1.235   1.963   0.542 -0.5079  0.5758  0.6672
  322TIP3    H222526   1.202   2.110   0.536  0.8744  0.8643 -0.3628
  323TIP3   OH222527   5.392   0.973   8.661  0.1825  0.2130 -0.2119
  323TIP3    H122528   5.386   1.022   8.743  1.0532 -0.4545  0.2759
  323TIP3    H222529   5.396   1.040   8.593  1.0233  0.8193  0.4124
  324TIP3   OH222530   4.654   2.989   0.513  0.1941  0.2662 -0.1843
  324TIP3    H122531   4.634   2.903   0.549  0.6465  0.2182 -0.0455
  324TIP3    H222532   4.743   2.981   0.477  0.5116  0.8580  0.4372
  325TIP3   OH222533   1.636   1.934   8.231 -0.2045  0.2494 -0.4847
  325TIP3    H122534   1.588   1.962   8.308 -1.0165 -1.7093 -0.2030
  325TIP3    H222535   1.568   1.903   8.171  0.5551 -3.7014  0.3682
  326TIP3   OH222536   6.746   4.017   1.683 -0.0459  0.2327  0.0185
  326TIP3    H122537   6.709   4.026   1.595  1.0861 -1.3826 -0.6635
  326TIP3    H222538   6.818   4.081   1.685  0.0580  0.1246 -0.2976
  327TIP3   OH222539   5.568   2.704   0.479 -0.3424  0.4350  0.3117
  327TIP3    H122540   5.560   2.789   0.522 -0.4061 -0.4115  2.0563
  327TIP3    H222541   5.603   2.646   0.546  0.3281 -0.7847 -1.0394
  328TIP3   OH222542   4.757   0.027   2.072 -0.0717  0.3264  0.2731
  328TIP3    H122543   4.758   0.096   2.138  1.2476  1.4269 -0.8355
  328TIP3    H222544   4.670   0.034   2.032  0.5816  2.5007 -0.9192
  329TIP3   OH222545   5.940   3.376   1.853 -0.2477  0.2820 -0.2739
  329TIP3    H122546   5.905   3.462   1.877 -0.9738  0.5723 -2.1833
  329TIP3    H222547   6.010   3.394   1.790  0.2535 -0.4869  0.0451
  330TIP3   OH222548   3.029   5.492   6.254  0.0248 -0.1860  0.3663
  330TIP3    H122549   3.083   5.422   6.218 -0.5737 -0.1151 -0.7276
  330TIP3    H222550   3.090   5.552   6.294  0.7964 -0.0183 -0.9940
  331TIP3   OH222551   1.796   0.744   7.562  0.1552 -0.7252 -0.4298
  331TIP3    H122552   1.839   0.709   7.640  1.2035  1.5017  0.0652
  331TIP3    H222553   1.707   0.765   7.591 -0.0213 -1.5541 -0.3427
  332TIP3   OH222554   6.172   2.997   1.619  0.1951 -0.1411  0.2966
  332TIP3    H122555   6.122   2.920   1.648  0.3208  0.0129  0.9482
  332TIP3    H222556   6.106   3.056   1.583 -0.5248  1.0250  3.1575
  333TIP3   OH222557   2.044   3.663   1.848  0.7848 -0.3897 -0.3501
  333TIP3    H122558   2.095   3.582   1.844 -0.1285 -1.0567  0.7665
  333TIP3    H222559   2.099   3.724   1.897  1.6445 -0.1754 -1.5315
  334TIP3   OH222560   6.582   3.530   8.526  0.1678 -0.2958  0.3827
  334TIP3    H122561   6.631   3.575   8.457  0.4828  0.2349  0.9398
  334TIP3    H222562   6.642   3.529   8.601 -0.0766 -1.0863  0.5743
  335TIP3   OH222563   5.415   5.065   8.123 -0.3951  0.1057  0.4253
  335TIP3    H122564   5.348   5.085   8.058  0.6832  1.2291 -0.3781
  335TIP3    H222565   5.456   4.984   8.092 -1.2813 -0.5282  0.8640
  336TIP3   OH222566   6.561   5.971   1.015 -0.4464  0.4632 -0.0812
  336TIP3    H122567   6.484   5.929   1.055 -0.3296  1.1537  0.8979
  336TIP3    H222568   6.530   6.058   0.991 -0.3932  0.2050 -1.1398
  337TIP3   OH222569   0.102   2.642   6.485 -0.0903 -0.4270 -0.2491
  337TIP3    H122570   0.028   2.688   6.523 -0.6656  0.2098 -2.0235
  337TIP3    H222571   0.102   2.556   6.527 -2.9445 -1.1019 -1.4584
  338TIP3   OH222572   3.242   1.137   2.207 -0.7243  0.6926 -0.3299
  338TIP3    H122573   3.199   1.190   2.275  1.1559  2.5640 -0.4970
  338TIP3    H222574   3.185   1.146   2.131 -1.3697  0.9834  0.1779
  339TIP3   OH222575   6.795   5.649   1.407  0.5478 -0.1607  0.7004
  339TIP3    H122576   6.764   5.726   1.454 -2.7048 -0.0166 -1.3333
  339TIP3    H222577   6.873   5.679   1.360 -0.7024  2.0139 -0.1263
  340TIP3   OH222578   0.358   1.975   0.823  0.7938  0.1734 -0.0150
  340TIP3    H122579   0.392   1.972   0.733  1.7682 -1.2721  0.3744
  340TIP3    H222580   0.265   1.952   0.814  0.9129 -0.0755 -0.6302
  341TIP3   OH222581   4.178   3.924   7.280  0.1047  0.0684 -1.1781
  341TIP3    H122582   4.089   3.954   7.264  0.3435  0.6141 -1.5265
  341TIP3    H222583   4.168   3.837   7.319 -0.5725 -0.0706 -1.6370
  342TIP3   OH222584   2.637   0.529   7.998  0.1417 -0.3767 -0.7210
  342TIP3    H122585   2.720   0.487   8.019  0.0175 -0.0133  0.6175
  342TIP3    H222586   2.623   0.591   8.070 -1.8551 -1.2700 -0.2506
  343TIP3   OH222587   3.847   2.360   7.501  0.0520  0.8495  0.1977
  343TIP3    H122588   3.899   2.360   7.582 -0.3103  0.8121  0.4361
  343TIP3    H222589   3.910   2.344   7.431  0.4298  1.3030  0.4336
  344TIP3   OH222590   0.333   5.104   8.448  0.1404  0.1132 -0.2370
  344TIP3    H122591   0.245   5.140   8.442  0.7623  2.4665  2.5506
  344TIP3    H222592   0.323   5.026   8.503 -0.0731  1.1467  1.2392
  345TIP3   OH222593   0.064   6.860   6.840  0.3222 -0.5064 -0.0678
  345TIP3    H122594   0.020   6.807   6.774 -1.9263 -0.7355  1.5024
  345TIP3    H222595   0.043   6.951   6.816 -0.4067 -0.5859  0.2254
  346TIP3   OH222596   3.951   3.596   8.264 -0.2776 -0.2803  0.5675
  346TIP3    H122597   3.896   3.614   8.340  2.2100  1.3587  2.1181
  346TIP3    H222598   3.915   3.652   8.195  0.9282  2.9986  2.3382
  347TIP3   OH222599   1.526   4.799   2.243  0.1241  0.2170 -0.3191
  347TIP3    H122600   1.603   4.747   2.220  0.1027  0.0085  0.0797
  347TIP3    H222601   1.527   4.871   2.180  1.6777  1.2311  0.7748
  348TIP3   OH222602   5.309   6.013   7.874 -0.1108  0.0694  0.1021
  348TIP3    H122603   5.291   5.931   7.921 -0.1526 -0.6589 -1.1475
  348TIP3    H222604   5.365   5.988   7.802 -1.1199  0.9339 -1.0317
  349TIP3   OH222605   0.584   0.363   8.311  0.6589 -0.5821  0.5467
  349TIP3    H122606   0.545   0.419   8.378  1.6623 -0.8070  1.3549
  349TIP3    H222607   0.537   0.280   8.318 -0.2770 -0.1150 -0.0931
  350TIP3   OH222608   5.444   0.769   7.755 -0.5421  0.6791 -0.3307
  350TIP3    H122609   5.522   0.713   7.761  0.0859  1.5088 -0.5637
  350TIP3    H222610   5.412   0.775   7.845 -0.0113  0.7658 -0.1417
  351TIP3   OH222611   1.860   4.720   6.479  0.7214 -0.6862  0.6029
  351TIP3    H122612   1.802   4.735   6.554 -0.9950  0.1818 -0.7998
  351TIP3    H222613   1.937   4.773   6.497  0.7539 -1.2331  2.1712
  352TIP3   OH222614   3.036   6.595   1.258 -0.1166  0.3770  0.2159
  352TIP3    H122615   3.059   6.681   1.294  1.6800  0.5918 -1.3121
  352TIP3    H222616   3.067   6.533   1.323 -1.9370  0.8309  1.6105
  353TIP3   OH222617   2.646   0.463   8.526 -0.3084 -0.0638 -0.3463
  353TIP3    H122618   2.589   0.501   8.593 -2.1620  1.5873 -2.6621
  353TIP3    H222619   2.613   0.374   8.515  0.1529 -0.4268  1.0272
  354TIP3   OH222620   1.529   4.676   7.186 -0.6757  0.4346 -0.0730
  354TIP3    H122621   1.475   4.705   7.113 -1.4439  2.1439  1.1175
  354TIP3    H222622   1.467   4.636   7.247 -0.5662  1.8812  1.0406
  355TIP3   OH222623   5.433   2.545   0.876 -0.0634 -0.4796  0.4311
  355TIP3    H122624   5.504   2.539   0.940  0.4025 -1.8113 -0.1749
  355TIP3    H222625   5.470   2.508   0.795 -0.8440  0.5813 -0.4401
  356TIP3   OH222626   6.299   0.495   0.457  0.0764 -0.0928 -0.8669
  356TIP3    H122627   6.265   0.478   0.544  0.4565  1.6319 -0.3376
  356TIP3    H222628   6.259   0.578   0.431  1.9888  0.7911 -1.1955
  357TIP3   OH222629   5.598   4.277   2.192 -0.1381 -0.3146 -1.0875
  357TIP3    H122630   5.593   4.232   2.107 -0.4080  0.4638 -1.4899
  357TIP3    H222631   5.541   4.353   2.182  0.6742  0.3753 -0.5737
  358TIP3   OH222632   2.116   3.680   0.116  0.4727  0.4972  0.5048
  358TIP3    H122633   2.160   3.765   0.114  0.5364  0.5838  2.7536
  358TIP3    H222634   2.141   3.643   0.201 -0.9739 -0.9886  0.3218
  359TIP3   OH222635   5.119   0.820   1.576  0.2234 -0.4068  0.4815
  359TIP3    H122636   5.070   0.797   1.655  1.7417 -2.4806  0.8840
  359TIP3    H222637   5.174   0.894   1.602 -0.6456  0.1499  0.7940
  360TIP3   OH222638   6.828   5.452   7.855 -0.2345  0.6447 -0.5053
  360TIP3    H122639   6.867   5.506   7.786  4.1120 -0.3191  0.9005
  360TIP3    H222640   6.880   5.472   7.933 -2.1626 -1.4644  1.4582
  361TIP3   OH222641   3.593   1.353   7.703 -0.5372 -0.1417 -0.1149
  361TIP3    H122642   3.633   1.299   7.771  0.7080  0.9321  0.0643
  361TIP3    H222643   3.519   1.302   7.672 -1.8263 -0.2594  2.7635
  362TIP3   OH222644   1.578   1.455   1.750  0.1502  0.2627 -0.3973
  362TIP3    H122645   1.611   1.368   1.725 -2.7258 -0.8390 -0.7864
  362TIP3    H222646   1.488   1.456   1.718 -0.5795  2.6093  1.4333
  363TIP3   OH222647   3.072   5.915   2.495  0.1800  0.1369 -0.4181
  363TIP3    H122648   3.069   6.006   2.466 -0.5087  0.3917  0.4194
  363TIP3    H222649   3.124   5.870   2.428  0.8871  1.2229 -0.6224
  364TIP3   OH222650   4.869   2.485   7.597 -0.1131 -0.2290  0.2091
  364TIP3    H122651   4.865   2.486   7.502  1.0894 -3.3500 -0.0250
  364TIP3    H222652   4.955   2.447   7.617 -0.9869 -1.2357  2.4644
  365TIP3   OH222653   4.535   5.616   1.017  0.1556 -0.2281  0.1912
  365TIP3    H122654   4.562   5.670   1.092  0.3040  1.7474 -1.2171
  365TIP3    H222655   4.439   5.616   1.022  0.1524 -2.8485  2.1703
  366TIP3   OH222656   1.594   4.131   8.319 -0.2621 -0.2795  0.2958
  366TIP3    H122657   1.658   4.200   8.334  1.0866 -1.2679 -0.6337
  366TIP3    H222658   1.544   4.161   8.243 -0.4409  0.1934  0.6010
  367TIP3   OH222659   6.740   3.513   7.840 -0.6406 -0.3306  0.3405
  367TIP3    H122660   6.768   3.587   7.787 -1.4746  0.9034  1.5431
  367TIP3    H222661   6.657   3.485   7.802 -2.3943  1.9770  2.1714
  368TIP3   OH222662   0.186   1.309   7.231 -1.0018  0.5884 -0.3751
  368TIP3    H122663   0.147   1.296   7.144 -1.5044  0.2624 -0.1071
  368TIP3    H222664   0.111   1.310   7.290 -0.5425 -1.1038  0.2767
  369TIP3   OH222665   4.231   6.629   1.430 -0.3433  0.4509  0.2438
  369TIP3    H122666   4.227   6.710   1.481  1.3762 -0.2024  1.5181
  369TIP3    H222667   4.266   6.564   1.491  0.1701 -0.7830 -1.3100
  370TIP3   OH222668   3.945   6.366   2.212  0.2338 -0.2632  0.1079
  370TIP3    H122669   3.935   6.355   2.307  0.1258  1.2884  0.3055
  370TIP3    H222670   3.880   6.432   2.189  0.5100 -0.3689 -0.9938
  371TIP3   OH222671   1.275   4.864   8.481  1.3322  0.0462  0.0101
  371TIP3    H122672   1.283   4.943   8.428  0.7529  1.7778  2.3417
  371TIP3    H222673   1.182   4.843   8.478  1.2273  0.3859  0.5906
  372TIP3   OH222674   5.114   2.402   7.664  0.7091  0.3264  0.1850
  372TIP3    H122675   5.091   2.345   7.738  0.2037  0.1749 -0.0843
  372TIP3    H222676   5.175   2.465   7.701  0.7205  0.0460  0.6584
  373TIP3   OH222677   4.825   4.799   2.422 -0.4631  0.4665  0.3765
  373TIP3    H122678   4.867   4.795   2.508 -0.5937 -1.6085  0.4012
  373TIP3    H222679   4.757   4.732   2.425 -1.2216  1.1172 -0.9895
  374TIP3   OH222680   3.841   0.108   7.390  0.3930 -0.3132  0.1305
  374TIP3    H122681   3.746   0.124   7.393  0.2447 -1.0287 -0.4335
  374TIP3    H222682   3.849   0.013   7.383  1.1221 -0.1925 -0.9169
  375TIP3   OH222683   4.720   6.585   0.471 -0.0847  0.0045  0.0579
  375TIP3    H122684   4.706   6.680   0.482 -2.7987  0.0810 -2.6196
  375TIP3    H222685   4.668   6.546   0.541 -2.1564  0.5709 -1.0538
  376TIP3   OH222686   4.866   5.837   0.659  0.6404 -0.2523 -0.8719
  376TIP3    H122687   4.783   5.794   0.635 -0.7514  1.3391  0.7679
  376TIP3    H222688   4.918   5.768   0.700 -1.4666 -0.5308  1.5693
  377TIP3   OH222689   0.352   2.977   1.173 -0.0467  0.6800  0.1170
  377TIP3    H122690   0.375   2.909   1.237 -0.1635 -0.8904 -1.4472
  377TIP3    H222691   0.431   3.030   1.165 -0.4013  1.6979  2.4290
  378TIP3   OH222692   3.528   2.678   7.664 -0.2110 -0.0453 -0.0354
  378TIP3    H122693   3.570   2.636   7.588  0.4821  2.0207 -0.8944
  378TIP3    H222694   3.601   2.701   7.721 -0.6652 -0.8849  0.8968
  379TIP3   OH222695   3.451   2.646   7.322  0.1625 -0.0416 -0.1765
  379TIP3    H122696   3.378   2.585   7.335  0.0846  0.2166  0.6539
  379TIP3    H222697   3.527   2.599   7.355  0.5677 -0.6912 -1.9256
  380TIP3   OH222698   2.881   1.452   1.632 -0.3698 -0.5856  0.6757
  380TIP3    H122699   2.865   1.503   1.553 -1.1934  0.0770  1.2358
  380TIP3    H222700   2.927   1.513   1.690 -1.5265 -0.3721  1.4209
  381TIP3   OH222701   4.786   3.597   8.235 -0.7650  0.2682 -0.4134
  381TIP3    H122702   4.697   3.599   8.270  0.0847 -0.7201  2.0349
  381TIP3    H222703   4.834   3.663   8.286 -0.5488  2.7702 -3.4853
  382TIP3   OH222704   3.512   0.317   0.380 -0.1529  0.5668  0.9365
  382TIP3    H122705   3.525   0.300   0.474 -1.8099 -1.6390  0.8271
  382TIP3    H222706   3.581   0.266   0.338 -0.2346  0.5024  0.8834
  383TIP3   OH222707   5.777   1.912   6.712  0.0052 -0.2350  0.1148
  383TIP3    H122708   5.797   1.823   6.741 -0.8412 -0.3801  0.2914
  383TIP3    H222709   5.791   1.911   6.618  0.7125 -0.3487  0.2182
  384TIP3   OH222710   2.228   6.262   7.892  1.0581 -0.6704  0.0229
  384TIP3    H122711   2.159   6.258   7.959 -2.1289  4.0862 -2.3726
  384TIP3    H222712   2.296   6.316   7.931 -0.0777  0.7896  0.0804
  385TIP3   OH222713   3.362   3.286   1.499  0.3516 -0.2882 -0.1563
  385TIP3    H122714   3.439   3.243   1.459 -0.2520 -1.3058 -0.2676
  385TIP3    H222715   3.347   3.363   1.444  2.0906  0.6942  0.6664
  386TIP3   OH222716   6.156   4.002   8.517  0.1925 -0.2684 -0.7670
  386TIP3    H122717   6.093   3.950   8.468 -0.1494  0.3339 -0.9825
  386TIP3    H222718   6.183   3.946   8.589  1.4290 -1.5360 -2.1532
  387TIP3   OH222719   0.330   0.863   6.049  0.0012  0.2190  0.1990
  387TIP3    H122720   0.244   0.827   6.026  0.4732  0.3394 -1.8757
  387TIP3    H222721   0.310   0.940   6.102 -1.1304 -0.1814  0.4012
  388TIP3   OH222722   2.338   3.119   6.743  0.5434  0.4600  0.2595
  388TIP3    H122723   2.314   3.149   6.655 -1.6155  0.9963  0.9635
  388TIP3    H222724   2.331   3.197   6.797  1.6707  0.0916  0.9642
  389TIP3   OH222725   4.156   1.705   7.766 -0.1770 -0.1189  0.1243
  389TIP3    H122726   4.244   1.704   7.730 -0.5007 -1.9300 -0.6909
  389TIP3    H222727   4.167   1.744   7.853  1.3227  0.1680 -0.1617
  390TIP3   OH222728   0.436   2.425   1.993 -0.0055 -0.0789  0.7632
  390TIP3    H122729   0.368   2.450   1.930 -2.2996 -1.5161  2.5070
  390TIP3    H222730   0.518   2.454   1.952 -1.4207 -0.0777 -2.3856
  391TIP3   OH222731   1.943   0.839   7.336  0.3646  0.0998  0.3693
  391TIP3    H122732   2.010   0.772   7.323 -0.7678 -0.9594 -0.1194
  391TIP3    H222733   1.894   0.810   7.413 -0.3062  0.2038 -0.0061
  392TIP3   OH222734   6.686   6.158   7.635  0.0295 -0.3714  0.1745
  392TIP3    H122735   6.767   6.172   7.684  0.6841  0.7659 -1.1677
  392TIP3    H222736   6.682   6.230   7.573 -2.2789 -0.1344  0.5072
  393TIP3   OH222737   6.069   3.441   1.045 -0.2586 -0.4149  0.7555
  393TIP3    H122738   6.069   3.389   0.964  0.0756 -1.2633  1.2841
  393TIP3    H222739   5.976   3.444   1.070 -0.5597  1.0655 -0.3919
  394TIP3   OH222740   4.406   3.901   1.627 -0.1567  0.0048  0.6127
  394TIP3    H122741   4.463   3.881   1.553  1.1408  0.5361  1.4426
  394TIP3    H222742   4.390   3.816   1.668  0.7332 -0.0567  0.8534
  395TIP3   OH222743   2.307   3.888   1.746  0.0867 -0.2596  0.1049
  395TIP3    H122744   2.233   3.879   1.806  0.5217  1.1781  0.9309
  395TIP3    H222745   2.310   3.806   1.698 -0.8684 -1.0907  1.3999
  396TIP3   OH222746   2.476   4.954   0.502  0.1364  0.2377 -0.5701
  396TIP3    H122747   2.535   4.885   0.531 -0.7589 -0.3748 -0.1725
  396TIP3    H222748   2.420   4.912   0.437 -1.3197  0.2006  0.6587
  397TIP3   OH222749   0.836   5.036   8.321  0.1637  0.2882 -0.3192
  397TIP3    H122750   0.890   5.093   8.376  1.2752 -1.9905  1.1054
  397TIP3    H222751   0.880   5.036   8.236  1.1035  0.2550  0.1519
  398TIP3   OH222752   0.275   2.303   0.465 -0.3452  0.1271  0.6153
  398TIP3    H122753   0.246   2.376   0.410 -1.0073  0.3659  1.2463
  398TIP3    H222754   0.220   2.229   0.438  0.4145 -0.1768 -0.1119
  399TIP3   OH222755   0.278   4.131   7.545  0.9304 -0.4974 -0.2037
  399TIP3    H122756   0.239   4.218   7.537  0.0471 -0.7238  1.3018
  399TIP3    H222757   0.358   4.136   7.492 -0.2895  0.4799 -2.0606
  400TIP3   OH222758   2.840   0.308   1.485  0.4713 -0.0591 -0.0922
  400TIP3    H122759   2.881   0.314   1.398  0.9522 -0.4849  0.0936
  400TIP3    H222760   2.778   0.381   1.488  1.1145  0.5150 -0.4452
  401TIP3   OH222761   0.513   3.309   8.651  0.2653 -0.3477  0.2169
  401TIP3    H122762   0.520   3.332   8.743  3.3874  2.6681 -0.5720
  401TIP3    H222763   0.464   3.381   8.612 -1.3194 -1.7524 -0.5479
  402TIP3   OH222764   6.507   4.614   0.519 -0.4029  0.2871 -0.1834
  402TIP3    H122765   6.488   4.541   0.577 -1.5454  1.5950  1.1912
  402TIP3    H222766   6.518   4.689   0.577  0.4242  1.2838 -1.5502
  403TIP3   OH222767   4.067   4.253   7.250  0.1348 -0.1261 -0.2644
  403TIP3    H122768   4.082   4.198   7.327 -0.2180  0.5365  0.2881
  403TIP3    H222769   4.154   4.271   7.216  0.2458 -1.3700 -0.7131
  404TIP3   OH222770   4.062   6.632   6.576  0.8601  0.3050  0.1476
  404TIP3    H122771   4.133   6.568   6.562 -1.0776 -2.2576  1.2128
  404TIP3    H222772   4.077   6.665   6.665  0.3653 -0.8019  0.6651
  405TIP3   OH222773   0.413   5.886   0.512 -0.0550  0.6349 -0.5783
  405TIP3    H122774   0.440   5.974   0.488 -0.3195  1.2297  1.1316
  405TIP3    H222775   0.453   5.871   0.598  1.0710 -1.4352 -1.3835
  406TIP3   OH222776   3.655   1.342   7.994 -0.3479  0.0129  0.4230
  406TIP3    H122777   3.572   1.383   7.969  0.2209  0.9868  0.0968
  406TIP3    H222778   3.710   1.415   8.022  1.2711 -0.2889 -1.7510
  407TIP3   OH222779   2.235   0.316   7.054 -0.0654  0.0527 -0.2221
  407TIP3    H122780   2.195   0.267   6.982 -2.0651 -0.2468  1.0242
  407TIP3    H222781   2.224   0.260   7.130 -0.1946  1.3999  0.7826
  408TIP3   OH222782   5.243   3.039   6.878 -0.4034 -0.1013  0.7941
  408TIP3    H122783   5.203   3.056   6.792 -1.8748  0.1998  1.5047
  408TIP3    H222784   5.169   3.017   6.934  0.4319  0.6417  2.2254
  409TIP3   OH222785   1.162   5.262   0.381  0.0430  0.1984  0.3175
  409TIP3    H122786   1.219   5.336   0.359  1.7713 -0.7331  1.3911
  409TIP3    H222787   1.075   5.300   0.389  0.5082  1.7324 -1.1777
  410TIP3   OH222788   6.277   0.717   7.889 -0.0696 -0.1756  0.2505
  410TIP3    H122789   6.218   0.683   7.957  1.5158 -1.3474  1.1092
  410TIP3    H222790   6.300   0.805   7.920  0.0487 -0.4088  0.8313
  411TIP3   OH222791   0.196   0.207   0.855 -0.1370 -0.3012  0.0768
  411TIP3    H122792   0.244   0.195   0.937 -1.8387  1.9945  1.5107
  411TIP3    H222793   0.262   0.235   0.792  1.0136 -0.9971  0.9323
  412TIP3   OH222794   4.844   0.055   0.175  0.0800 -0.1378 -0.0208
  412TIP3    H122795   4.898  -0.024   0.172 -0.9742 -0.9908  1.6720
  412TIP3    H222796   4.759   0.024   0.207 -0.8902  1.4400 -0.9250
  413TIP3   OH222797   6.441   6.372   7.599  0.1294 -0.4150  0.2159
  413TIP3    H122798   6.349   6.345   7.589 -1.4621  3.1534  2.7966
  413TIP3    H222799   6.456   6.433   7.526  0.7403 -1.5240 -0.6063
  414TIP3   OH222800   6.785   1.634   1.630  0.0850  0.5358 -0.2961
  414TIP3    H122801   6.716   1.595   1.578  0.5534 -0.8164  0.0610
  414TIP3    H222802   6.780   1.728   1.610 -3.1473  0.8267  1.2286
  415TIP3   OH222803   3.027   3.810   1.693 -0.5103 -0.2566  0.9676
  415TIP3    H122804   3.109   3.797   1.645 -0.2290  0.6035  1.1928
  415TIP3    H222805   3.054   3.855   1.774 -1.3189  1.0072  0.5630
  416TIP3   OH222806   3.682   5.777   7.591  0.8623 -0.0372  0.5750
  416TIP3    H122807   3.722   5.698   7.554 -0.9372  0.7602 -3.7798
  416TIP3    H222808   3.740   5.848   7.564  0.7140  0.4336  1.4538
  417TIP3   OH222809   6.855   4.275   7.712 -0.1278 -0.0407 -0.5214
  417TIP3    H122810   6.799   4.198   7.713 -1.0009  0.5398  1.5570
  417TIP3    H222811   6.835   4.320   7.794  3.6493 -0.0083  0.5983
  418TIP3   OH222812   0.811   3.132   0.780  0.4693 -0.0392 -0.1426
  418TIP3    H122813   0.730   3.132   0.729  0.6772  0.2716 -0.4762
  418TIP3    H222814   0.842   3.223   0.776  1.8434 -0.5263 -1.6312
  419TIP3   OH222815   4.500   1.366   1.927 -0.1440  0.1027  0.1590
  419TIP3    H122816   4.416   1.384   1.969 -0.3022 -2.9320  1.3908
  419TIP3    H222817   4.562   1.421   1.975 -1.0826  0.6203  0.8217
  420TIP3   OH222818   1.270   0.854   7.408 -0.3419  0.1148 -0.8066
  420TIP3    H122819   1.192   0.858   7.464  0.4504 -1.0983  0.4469
  420TIP3    H222820   1.274   0.940   7.367 -2.0751  0.3609 -0.5360
  421TIP3   OH222821   5.939   2.699   8.512  0.0245 -0.2747  0.3090
  421TIP3    H122822   5.882   2.639   8.463  0.5523  0.2345 -0.9746
  421TIP3    H222823   6.014   2.646   8.536 -0.6992 -0.8021  1.5230
  422TIP3   OH222824   3.050   1.474   8.042  0.5060  0.0810  0.6454
  422TIP3    H122825   3.087   1.519   8.118 -0.1650 -0.0564  1.0561
  422TIP3    H222826   3.114   1.405   8.022  0.5618 -0.0442  1.2365
  423TIP3   OH222827   4.365   0.943   1.017  0.7160  0.4909 -0.1777
  423TIP3    H122828   4.368   0.848   1.013  1.0037  0.3309  2.4563
  423TIP3    H222829   4.452   0.969   1.045  0.1849  1.3943  0.7101
  424TIP3   OH222830   2.446   4.669   1.673 -0.1071  0.2776 -0.0152
  424TIP3    H122831   2.409   4.582   1.656 -1.2364  0.5167  1.0748
  424TIP3    H222832   2.508   4.655   1.744 -0.4006  0.3922  0.2623
  425TIP3   OH222833   3.780   2.785   7.650  0.3799 -0.0619 -0.0740
  425TIP3    H122834   3.714   2.830   7.597 -0.4792 -1.1742  0.0016
  425TIP3    H222835   3.761   2.810   7.740  0.6732  0.3683 -0.1283
  426TIP3   OH222836   2.702   2.605   7.139 -0.4021  0.1370 -0.4521
  426TIP3    H122837   2.632   2.582   7.200  0.0365  1.0848  0.4329
  426TIP3    H222838   2.724   2.523   7.095 -3.4317  0.1374 -2.2482
  427TIP3   OH222839   2.744   4.340   8.558 -0.2377 -0.5540 -0.2341
  427TIP3    H122840   2.804   4.409   8.528 -0.4526 -1.2681 -2.5236
  427TIP3    H222841   2.669   4.387   8.595  0.2824  0.4090 -0.3817
  428TIP3   OH222842   2.976   3.648   1.249 -0.0892 -0.0419 -0.1659
  428TIP3    H122843   2.923   3.692   1.316 -1.0370 -0.9103 -0.3026
  428TIP3    H222844   2.993   3.715   1.183 -2.3588 -0.0735 -0.8774
  429TIP3   OH222845   2.299   5.853   2.144 -0.4053  0.0281 -0.5433
  429TIP3    H122846   2.210   5.890   2.148  0.3332  1.8606  0.0514
  429TIP3    H222847   2.351   5.910   2.200  1.1105 -1.1830 -0.6586
  430TIP3   OH222848   0.870   5.876   0.519  0.1353  0.5544  0.0673
  430TIP3    H122849   0.866   5.957   0.570  0.2617  0.5729  0.0469
  430TIP3    H222850   0.939   5.824   0.561 -0.4651  0.1327  0.5598
  431TIP3   OH222851   2.823   3.234   6.765 -0.2181 -0.1470  0.4972
  431TIP3    H122852   2.784   3.228   6.678  0.5470  0.8244  0.0668
  431TIP3    H222853   2.797   3.321   6.797  2.9031  1.3407 -0.5313
  432TIP3   OH222854   2.901   5.178   0.583  0.4535 -0.0271  0.1677
  432TIP3    H122855   2.855   5.101   0.550  0.8285 -0.1575 -0.0565
  432TIP3    H222856   2.835   5.226   0.633  0.3657 -0.8035  0.8195
  433TIP3   OH222857   6.586   5.198   1.416 -0.1664  0.6002 -0.0313
  433TIP3    H122858   6.554   5.150   1.492 -1.1395  0.6621 -0.3858
  433TIP3    H222859   6.636   5.134   1.366  1.5645  0.8714  1.2779
  434TIP3   OH222860   4.683   3.045   7.801  0.4220  1.2601 -0.5531
  434TIP3    H122861   4.697   2.952   7.783  0.8823  1.0793  0.6088
  434TIP3    H222862   4.759   3.089   7.763  1.4553  0.8733  0.9827
  435TIP3   OH222863   5.213   5.124   7.968 -0.2883 -0.2192 -0.0399
  435TIP3    H122864   5.132   5.169   7.992 -0.3844 -0.4890  0.1460
  435TIP3    H222865   5.185   5.036   7.944 -0.2392  0.1344 -1.4844
  436TIP3   OH222866   0.648   4.122   0.756 -0.3230 -0.3041 -0.3882
  436TIP3    H122867   0.611   4.155   0.838 -0.3221 -1.1437 -0.0463
  436TIP3    H222868   0.734   4.164   0.751 -0.7093  0.5084 -0.4536
  437TIP3   OH222869   4.889   2.554   1.693 -0.9095 -0.0123  0.5432
  437TIP3    H122870   4.796   2.530   1.685 -1.8647  3.4354 -0.3817
  437TIP3    H222871   4.892   2.611   1.770 -0.3818  2.7661 -1.3624
  438TIP3   OH222872   0.515   4.818   7.984  0.0222 -0.1077 -0.5077
  438TIP3    H122873   0.526   4.851   8.073  0.2871 -1.0862 -0.1632
  438TIP3    H222874   0.587   4.857   7.935  0.3051 -0.1439 -0.1265
  439TIP3   OH222875   4.048   2.761   0.004  0.4147  0.0093 -0.2151
  439TIP3    H122876   4.120   2.774   0.065  0.0127  0.1498  0.2360
  439TIP3    H222877   3.975   2.732   0.059 -0.0647  0.5157 -0.5716
  440TIP3   OH222878   4.607   3.282   6.941 -0.2672 -0.2227 -0.4675
  440TIP3    H122879   4.645   3.368   6.957  0.5804 -0.1219 -2.6745
  440TIP3    H222880   4.669   3.238   6.883 -0.6058 -2.4075  0.7069
  441TIP3   OH222881   3.828   6.770   7.927  0.0363 -0.6560 -0.2499
  441TIP3    H122882   3.849   6.713   7.854  0.8499 -0.9003  0.1663
  441TIP3    H222883   3.820   6.711   8.002 -0.6273 -0.3892 -0.0974
  442TIP3   OH222884   4.397   3.629   1.812 -0.1487 -0.0127 -0.3838
  442TIP3    H122885   4.407   3.574   1.734 -0.3324  0.0378 -0.4449
  442TIP3    H222886   4.368   3.570   1.881  0.5282 -0.1525 -0.2152
  443TIP3   OH222887   1.527   2.181   0.125  0.6956  0.2445 -0.2306
  443TIP3    H122888   1.532   2.277   0.118  0.8155  0.3549  1.1077
  443TIP3    H222889   1.438   2.164   0.156  0.7967 -0.0511 -0.0974
  444TIP3   OH222890   6.162   4.720   1.644  0.1865 -0.0468  0.1307
  444TIP3    H122891   6.137   4.666   1.569 -0.4380  1.3691 -0.7133
  444TIP3    H222892   6.258   4.722   1.641  0.2555 -1.5122  0.4958
  445TIP3   OH222893   5.493   0.371   7.535 -0.3468  0.0596 -0.0312
  445TIP3    H122894   5.433   0.325   7.475 -0.5655 -0.1602  0.3528
  445TIP3    H222895   5.458   0.460   7.539  0.1735  0.3205 -0.9080
  446TIP3   OH222896   2.444   5.024   1.190 -0.0592  0.2528 -0.6321
  446TIP3    H122897   2.483   5.002   1.275 -0.2272 -0.5882 -0.7572
  446TIP3    H222898   2.350   5.029   1.208  0.1013  2.9398 -0.1905
  447TIP3   OH222899   4.050   3.133   0.886 -0.2660 -0.2442 -0.3714
  447TIP3    H122900   4.099   3.183   0.950 -2.7886  0.8482  0.8609
  447TIP3    H222901   4.094   3.048   0.882  1.9858  0.8211  0.1831
  448TIP3   OH222902   4.575   3.986   7.645  0.1169  0.1029 -0.1293
  448TIP3    H122903   4.501   3.926   7.637 -0.3341  0.5699  0.3837
  448TIP3    H222904   4.652   3.930   7.652 -0.1426 -0.3869 -1.0671
  449TIP3   OH222905   6.849   5.906   7.979 -0.0736 -0.0351  0.1771
  449TIP3    H122906   6.871   5.903   7.885  0.6291 -0.0660  0.3388
  449TIP3    H222907   6.915   5.849   8.020  0.3281  0.8807  0.8244
  450TIP3   OH222908   3.629   2.090   0.848  0.0966  0.3659 -0.6196
  450TIP3    H122909   3.576   2.161   0.810  0.0048  0.1415 -0.9160
  450TIP3    H222910   3.621   2.018   0.785 -0.2772 -0.1090 -0.0443
  451TIP3   OH222911   5.609   3.795   7.770 -0.2581  0.2716  0.0131
  451TIP3    H122912   5.561   3.863   7.723 -1.6748 -0.6746  0.0411
  451TIP3    H222913   5.554   3.717   7.763  1.1289 -0.7822  0.3388
  452TIP3   OH222914   0.566   2.400   8.271  0.0267  0.2059  0.1395
  452TIP3    H122915   0.605   2.313   8.279 -1.0711 -0.5085 -1.7935
  452TIP3    H222916   0.602   2.449   8.346  0.4734 -1.9502  1.4213
  453TIP3   OH222917   5.801   1.376   7.579  0.1550  0.1556 -0.0665
  453TIP3    H122918   5.853   1.446   7.539  0.9607 -1.4592 -2.0110
  453TIP3    H222919   5.865   1.310   7.604 -0.6988 -0.4615  0.5569
  454TIP3   OH222920   0.300   3.463   0.187 -0.2381  0.4406  0.3718
  454TIP3    H122921   0.374   3.421   0.231 -3.2075 -2.3344  3.3300
  454TIP3    H222922   0.332   3.482   0.099  3.3875 -2.3225  0.8338
  455TIP3   OH222923   3.291   6.067   1.217 -0.4890 -0.0682 -0.1133
  455TIP3    H122924   3.367   6.107   1.175 -0.1980 -0.1782  0.3154
  455TIP3    H222925   3.223   6.135   1.213 -0.4620 -0.0717 -0.7534
  456TIP3   OH222926   1.281   4.111   2.518  0.0977 -0.5589 -0.3912
  456TIP3    H122927   1.330   4.041   2.475  1.5274 -1.5140  2.5054
  456TIP3    H222928   1.206   4.066   2.557 -2.9211  0.7635 -4.1021
  457TIP3   OH222929   3.611   3.816   8.077  0.1258  0.0475 -0.3767
  457TIP3    H122930   3.659   3.734   8.084 -0.1869 -0.4108 -2.7175
  457TIP3    H222931   3.635   3.851   7.991  1.7356  3.4272  1.2625
  458TIP3   OH222932   0.797   6.868   0.416  0.3839 -0.6741  0.7628
  458TIP3    H122933   0.733   6.939   0.415  0.1689 -0.8540 -0.5676
  458TIP3    H222934   0.863   6.894   0.351  0.8387 -1.2124  1.0002
  459TIP3   OH222935   3.104   1.845   8.586 -0.2037  0.3789  0.4047
  459TIP3    H122936   3.076   1.780   8.522  1.7580 -1.7469  1.5154
  459TIP3    H222937   3.048   1.829   8.662  1.7604 -1.8307  1.5451
  460TIP3   OH222938   4.216   5.972   0.426 -0.2382 -0.2441 -0.4666
  460TIP3    H122939   4.141   5.934   0.381 -1.6428  1.0658  0.6599
  460TIP3    H222940   4.196   6.065   0.433  1.8549  0.2919 -0.7834
  461TIP3   OH222941   4.563   2.541   7.404  0.1915 -0.2687  0.0880
  461TIP3    H122942   4.656   2.549   7.383  0.0145  0.8562 -0.3183
  461TIP3    H222943   4.542   2.621   7.452 -0.6287 -0.3829 -0.0677
  462TIP3   OH222944   0.155   1.422   7.664  0.2194 -0.0072 -0.3259
  462TIP3    H122945   0.147   1.483   7.738 -0.0259  0.0138 -0.3695
  462TIP3    H222946   0.173   1.478   7.589 -0.7941  0.0890 -0.5100
  463TIP3   OH222947   2.369   6.253   2.192  0.3723 -0.2650  0.0723
  463TIP3    H122948   2.324   6.333   2.166  0.6761 -0.1274 -0.0340
  463TIP3    H222949   2.374   6.258   2.287  0.7424  0.0348  0.0400
  464TIP3   OH222950   3.040   4.340   0.782 -0.1556  0.1372  0.1378
  464TIP3    H122951   2.975   4.272   0.763  1.4162 -1.1782 -0.7137
  464TIP3    H222952   3.024   4.362   0.874 -0.7668 -1.3369  0.4189
  465TIP3   OH222953   6.602   2.133   1.488 -0.3380 -0.4453 -0.2324
  465TIP3    H122954   6.511   2.103   1.498 -0.9742  1.1983 -0.8019
  465TIP3    H222955   6.653   2.052   1.481 -1.6828 -1.4115  0.6509
  466TIP3   OH222956   4.302   4.972   7.947 -0.0816  0.1015  0.3165
  466TIP3    H122957   4.267   4.884   7.941 -1.0932  0.6063 -2.7117
  466TIP3    H222958   4.232   5.029   7.915  1.0764  1.8610  0.7184
  467TIP3   OH222959   2.120   0.394   0.753  0.0645 -0.5394 -0.2381
  467TIP3    H122960   2.181   0.428   0.819  0.4724  1.2671 -1.4959
  467TIP3    H222961   2.034   0.404   0.793  0.1918  1.7700 -0.4202
  468TIP3   OH222962   0.481   2.696   6.775 -0.0097  0.0624  0.4711
  468TIP3    H122963   0.558   2.742   6.808 -1.1019  2.9238 -0.6604
  468TIP3    H222964   0.509   2.660   6.691  0.2766  0.4570  0.3961
  469TIP3   OH222965   0.713   2.618   7.708  0.1719 -0.6186 -0.0280
  469TIP3    H122966   0.683   2.579   7.790  0.0060  1.5106  0.9787
  469TIP3    H222967   0.804   2.642   7.724  0.1494 -0.2151 -0.4724
  470TIP3   OH222968   5.378   3.850   2.320  0.2224 -0.3135 -0.1292
  470TIP3    H122969   5.294   3.864   2.364 -0.4431 -0.2713 -1.3658
  470TIP3    H222970   5.419   3.779   2.370 -1.0574 -1.1218 -0.1635
  471TIP3   OH222971   5.491   2.168   1.485 -0.3788  0.0381  0.0103
  471TIP3    H122972   5.465   2.243   1.538 -2.3273  0.7945 -1.8757
  471TIP3    H222973   5.421   2.104   1.498 -0.3616 -0.1632 -0.8293
  472TIP3   OH222974   2.458   2.734   1.788  0.0178 -0.2580 -0.3546
  472TIP3    H122975   2.446   2.680   1.710  2.1354 -0.2606 -0.7425
  472TIP3    H222976   2.553   2.748   1.793 -0.2421  1.3000  1.1805
  473TIP3   OH222977   2.728   0.049   0.862 -0.2363 -0.4020  0.2750
  473TIP3    H122978   2.716   0.029   0.955 -1.0791 -2.2114 -0.1883
  473TIP3    H222979   2.696   0.139   0.853 -2.5661 -1.0531  1.2951
  474TIP3   OH222980   3.734   0.385   1.562  0.6519 -0.5385  0.0892
  474TIP3    H122981   3.711   0.397   1.654  1.6202  2.0835  0.0653
  474TIP3    H222982   3.822   0.423   1.555  0.5102 -0.5171 -1.9534
  475TIP3   OH222983   0.821   3.073   1.190  0.0882 -0.0470  0.0423
  475TIP3    H122984   0.791   2.993   1.232  0.5845 -1.0214 -1.4240
  475TIP3    H222985   0.855   3.126   1.262 -2.2198 -0.1967  1.3326
  476TIP3   OH222986   6.366   3.461   1.088 -0.0417 -0.4731 -0.0008
  476TIP3    H122987   6.395   3.522   1.156 -0.0508  0.9541 -1.2304
  476TIP3    H222988   6.274   3.443   1.110 -0.4831  1.1364 -0.4227
  477TIP3   OH222989   1.892   5.644   1.284  0.5231  0.1463  0.0218
  477TIP3    H122990   1.929   5.558   1.304 -0.6169 -0.7117 -1.3852
  477TIP3    H222991   1.922   5.664   1.196  0.6463  1.1511  0.2702
  478TIP3   OH222992   1.467   2.402   2.624  0.0572 -0.1153 -0.3917
  478TIP3    H122993   1.477   2.418   2.530 -0.6621 -1.4195 -0.7107
  478TIP3    H222994   1.523   2.468   2.665  0.2568  0.5859 -1.7234
  479TIP3   OH222995   6.142   2.005   0.762  0.0412  0.3470  0.0348
  479TIP3    H122996   6.178   2.082   0.806  0.0870 -0.4771  1.5219
  479TIP3    H222997   6.157   2.021   0.669  1.5228  1.3950  0.4153
  480TIP3   OH222998   1.552   0.429   0.623 -0.1030 -0.0536  0.0223
  480TIP3    H122999   1.504   0.348   0.642  0.8441 -0.5061  0.5294
  480TIP3    H223000   1.559   0.432   0.528 -0.9394 -0.0906 -0.0475
  481TIP3   OH223001   6.516   3.403   7.737  0.4573  0.0574  0.0242
  481TIP3    H123002   6.432   3.443   7.712 -0.0305 -0.9239  0.0539
  481TIP3    H223003   6.552   3.370   7.655  0.8339  0.4836  0.0101
  482TIP3   OH223004   5.663   3.743   7.333  0.1827 -0.1779  0.6277
  482TIP3    H123005   5.712   3.722   7.254 -3.1087 -2.2425 -1.0970
  482TIP3    H223006   5.596   3.806   7.305  0.2103  0.6372  2.2649
  483TIP3   OH223007   6.485   1.617   7.599  0.0886  0.1428  0.1073
  483TIP3    H123008   6.521   1.549   7.542 -0.0271  0.0597  0.1321
  483TIP3    H223009   6.425   1.570   7.657 -0.6417  0.3973 -0.4326
  484TIP3   OH223010   2.491   0.628   6.973  0.2045  0.3310 -0.2160
  484TIP3    H123011   2.575   0.644   6.931  0.7614  1.0600  1.1140
  484TIP3    H223012   2.446   0.712   6.970 -1.2060 -0.4112 -2.3450
  485TIP3   OH223013   0.587   6.757   0.013 -0.2274 -0.2352 -0.3818
  485TIP3    H123014   0.598   6.841   0.058 -1.0073 -0.2881 -0.0888
  485TIP3    H223015   0.569   6.694   0.083  1.1940 -0.8252 -0.5038
  486TIP3   OH223016   0.492   4.092   8.031 -0.5886 -0.5046  0.2089
  486TIP3    H123017   0.569   4.083   7.975 -0.1016  0.8814  0.6254
  486TIP3    H223018   0.418   4.089   7.970 -0.3012 -2.7620 -0.1032
  487TIP3   OH223019   3.869   0.197   8.374 -0.2230  0.0456 -0.0345
  487TIP3    H123020   3.940   0.253   8.343 -0.6206  1.0960  0.8850
  487TIP3    H223021   3.825   0.167   8.294  2.1762 -1.9757 -0.7537
  488TIP3   OH223022   3.050   5.735   1.286 -0.6205  0.2149 -0.3009
  488TIP3    H123023   2.978   5.674   1.301 -0.2853  0.1064  0.9879
  488TIP3    H223024   3.028   5.812   1.338  0.4045 -0.0076  0.5128
  489TIP3   OH223025   1.765   3.591   1.870  0.0745 -0.0197 -0.1731
  489TIP3    H123026   1.846   3.641   1.875  1.3930 -2.0841  0.0223
  489TIP3    H223027   1.732   3.590   1.960 -0.4149  1.1403 -0.3186
  490TIP3   OH223028   6.065   5.385   1.480  0.5988  0.1544 -0.8112
  490TIP3    H123029   6.081   5.443   1.405  1.3542 -0.5873 -1.2409
  490TIP3    H223030   6.100   5.301   1.452  0.2104 -0.3167  0.1047
  491TIP3   OH223031   0.604   2.103   2.306  0.3670  0.0546  0.0958
  491TIP3    H123032   0.645   2.060   2.230  0.8937  0.6496  0.0350
  491TIP3    H223033   0.674   2.156   2.343 -0.4732  1.4740 -0.2812
  492TIP3   OH223034   1.139   6.603   7.796 -0.1403 -0.3129  0.3135
  492TIP3    H123035   1.106   6.605   7.885 -1.4141  0.8394 -0.1358
  492TIP3    H223036   1.233   6.620   7.804 -0.2647 -0.1242  1.4332
  493TIP3   OH223037   4.174   2.617   0.925 -0.8680  0.2032 -0.3979
  493TIP3    H123038   4.191   2.708   0.947 -0.5554 -0.2518  1.3613
  493TIP3    H223039   4.128   2.581   1.001  0.1484 -1.4275 -0.5035
  494TIP3   OH223040   1.282   2.266   0.205  0.4967 -0.6973  0.0457
  494TIP3    H123041   1.244   2.348   0.174 -0.2587 -1.1991 -0.3674
  494TIP3    H223042   1.208   2.217   0.241  0.5642 -2.0729 -1.5919
  495TIP3   OH223043   3.376   5.029   8.116 -0.0472 -0.2388 -0.0916
  495TIP3    H123044   3.468   5.035   8.090 -0.0590  0.2420 -0.0397
  495TIP3    H223045   3.334   5.104   8.074 -0.1592  0.2805  0.9130
  496TIP3   OH223046   2.969   4.512   8.509 -0.0697 -0.1166  0.6426
  496TIP3    H123047   3.007   4.499   8.422  0.2754  1.1586  0.5858
  496TIP3    H223048   3.029   4.467   8.568  0.4663  0.2264  0.3619
  497TIP3   OH223049   5.004   4.668   7.830 -0.4471 -0.5533  0.1019
  497TIP3    H123050   5.098   4.654   7.831 -0.4422 -1.0671  3.4549
  497TIP3    H223051   4.969   4.594   7.781  0.8603 -0.1886 -1.4384
  498TIP3   OH223052   4.931   0.988   0.227 -0.3839 -0.0730  0.1705
  498TIP3    H123053   5.013   1.000   0.275 -0.2029  0.3077 -0.2274
  498TIP3    H223054   4.884   1.071   0.240  0.5044  0.8173 -1.9006
  499TIP3   OH223055   3.522   1.259   7.084 -0.4715 -0.2108  0.1944
  499TIP3    H123056   3.491   1.211   7.161 -0.2522 -0.3665  0.1866
  499TIP3    H223057   3.498   1.350   7.102 -0.0465 -0.1832  0.6468
  500TIP3   OH223058   1.408   1.453   7.523 -0.0276 -0.2132  0.2805
  500TIP3    H123059   1.355   1.443   7.602 -0.6560  2.1971  0.2605
  500TIP3    H223060   1.345   1.477   7.455  0.6613 -1.0006 -0.6668
  501TIP3   OH223061   2.697   2.918   7.179 -0.0133 -0.3128  0.0760
  501TIP3    H123062   2.642   2.978   7.128  0.9814  0.3288 -0.2578
  501TIP3    H223063   2.702   2.958   7.266  0.6271  0.0830 -0.1386
  502TIP3   OH223064   3.151   6.597   8.262  0.3357 -0.6990  0.2661
  502TIP3    H123065   3.246   6.602   8.274  0.0684 -0.0894  2.4642
  502TIP3    H223066   3.125   6.686   8.239 -0.1126  0.2338  3.7893
  503TIP3   OH223067   3.883   5.592   6.851 -0.8681 -0.1514 -0.4688
  503TIP3    H123068   3.942   5.612   6.923 -0.6282  0.7525 -0.9001
  503TIP3    H223069   3.938   5.549   6.786 -0.4822  1.2836 -1.1541
  504TIP3   OH223070   5.600   5.405   8.247 -0.2618  0.0097 -0.0953
  504TIP3    H123071   5.566   5.494   8.246 -1.2389 -0.2662  2.2786
  504TIP3    H223072   5.685   5.411   8.291  0.1309 -0.1051 -0.8245
  505TIP3   OH223073   5.621   3.846   0.795 -0.1129  0.1277 -0.0846
  505TIP3    H123074   5.662   3.775   0.745  1.7081  0.3831  0.9673
  505TIP3    H223075   5.589   3.906   0.728 -1.4414 -1.5210 -0.9907
  506TIP3   OH223076   2.672   5.583   0.832  0.0478  0.3905  0.3519
  506TIP3    H123077   2.672   5.503   0.884  0.7934  0.4894  0.5113
  506TIP3    H223078   2.719   5.561   0.752  0.9290  0.8648  0.7232
  507TIP3   OH223079   0.688   0.216   1.154 -0.2748 -0.1579  0.6001
  507TIP3    H123080   0.742   0.167   1.216  0.6882  0.0362 -0.0712
  507TIP3    H223081   0.714   0.184   1.068 -1.3566 -0.1820  0.2699
  508TIP3   OH223082   2.805   6.133   0.932 -0.3347 -0.5399  0.1026
  508TIP3    H123083   2.825   6.220   0.966 -0.1018 -0.1582 -0.9693
  508TIP3    H223084   2.789   6.079   1.010 -0.1384  0.3745  0.7842
  509TIP3   OH223085   6.110   0.434   7.938  0.8807  0.1482 -0.1989
  509TIP3    H123086   6.084   0.523   7.961 -0.2238 -0.1157 -0.3622
  509TIP3    H223087   6.144   0.398   8.020  0.3115  0.3724  0.1450
  510TIP3   OH223088   3.276   1.255   8.177  0.0893 -0.2351 -0.1533
  510TIP3    H123089   3.358   1.210   8.199  0.2618 -0.1410 -0.6012
  510TIP3    H223090   3.217   1.231   8.248 -0.3267 -2.4548 -1.1707
  511TIP3   OH223091   2.440   5.615   2.192  0.4431 -0.4566  0.3837
  511TIP3    H123092   2.409   5.694   2.148  3.1259  1.7102  1.9896
  511TIP3    H223093   2.384   5.606   2.269  0.2716  0.0558  0.3218
  512TIP3   OH223094   1.743   1.429   7.260 -0.1208 -0.3151  0.3391
  512TIP3    H123095   1.758   1.369   7.333 -3.1734 -1.3906  0.2202
  512TIP3    H223096   1.822   1.423   7.207  0.6818 -2.3287  1.6438
  513TIP3   OH223097   5.467   5.482   7.419  0.9935  0.1235  0.1478
  513TIP3    H123098   5.410   5.477   7.342  3.4289 -3.5234 -1.7296
  513TIP3    H223099   5.543   5.531   7.389  0.5963  1.5361  1.3621
  514TIP3   OH223100   2.242   5.323   7.895 -0.3695 -0.2713  1.1994
  514TIP3    H123101   2.241   5.364   7.809 -2.9104  1.9511  2.1628
  514TIP3    H223102   2.326   5.348   7.933  0.5266 -0.7916 -0.3575
  515TIP3   OH223103   6.260   3.843   0.660  0.3182  0.6179 -0.4771
  515TIP3    H123104   6.299   3.759   0.683  1.6212  1.1270 -0.7434
  515TIP3    H223105   6.269   3.847   0.565  2.5611  2.0898 -0.2850
  516TIP3   OH223106   4.223   6.509   6.313 -0.3795  0.6125 -0.1155
  516TIP3    H123107   4.281   6.436   6.336  0.1726  0.6930 -1.1707
  516TIP3    H223108   4.140   6.467   6.291  0.2436  0.1490 -1.7779
  517TIP3   OH223109   0.368   2.315   6.767  0.1555  0.5939 -0.3963
  517TIP3    H123110   0.427   2.342   6.837  0.9356  0.7411 -1.0935
  517TIP3    H223111   0.387   2.223   6.753 -1.0622  0.1660  0.5869
  518TIP3   OH223112   5.251   2.941   6.435 -0.2636  0.1403  0.1283
  518TIP3    H123113   5.272   3.030   6.462 -2.9561  1.1894 -0.9064
  518TIP3    H223114   5.287   2.885   6.504  0.0816  2.1279  1.6219
  519TIP3   OH223115   6.121   0.752   8.301 -0.0419  0.3628  0.2256
  519TIP3    H123116   6.092   0.667   8.334 -0.8874  1.2477  1.8791
  519TIP3    H223117   6.168   0.791   8.374 -0.6421  1.7896 -0.1225
  520TIP3   OH223118   4.279   5.368   7.005  0.1127 -0.6554  0.0499
  520TIP3    H123119   4.282   5.394   7.097 -0.3323 -2.2699  0.5523
  520TIP3    H223120   4.344   5.423   6.963 -0.2238  0.6641  1.1817
  521TIP3   OH223121   1.535   4.285   2.188 -0.6260  0.0253  0.3381
  521TIP3    H123122   1.528   4.195   2.156 -0.2131  0.7421 -1.9966
  521TIP3    H223123   1.454   4.327   2.160 -0.6099  0.5075  0.9854
  522TIP3   OH223124   0.454   5.000   0.087 -0.3524  0.3191 -0.5763
  522TIP3    H123125   0.397   4.954   0.025 -1.0811  2.0669 -1.2622
  522TIP3    H223126   0.446   4.951   0.168 -0.9217 -0.8829 -1.3241
  523TIP3   OH223127   0.373   3.190   7.639  0.3036  0.2410  0.6099
  523TIP3    H123128   0.464   3.195   7.670  0.4913  1.9076 -0.0841
  523TIP3    H223129   0.380   3.203   7.544 -0.7020  0.9706  0.6219
  524TIP3   OH223130   2.615   2.490   7.954 -0.3774 -0.1418  0.3812
  524TIP3    H123131   2.601   2.457   7.865 -1.1165 -0.0879  0.4768
  524TIP3    H223132   2.580   2.421   8.011 -1.6957  0.6781  0.5889
  525TIP3   OH223133   6.330   2.805   7.710  0.0647  0.1734 -0.0120
  525TIP3    H123134   6.332   2.740   7.640 -0.5796 -0.3253  0.4196
  525TIP3    H223135   6.256   2.861   7.689  1.1754  1.3807 -0.8928
  526TIP3   OH223136   0.188   0.648   1.524  0.5049 -0.0733 -0.4498
  526TIP3    H123137   0.225   0.560   1.523 -0.5732 -0.7949  3.5415
  526TIP3    H223138   0.095   0.634   1.543  0.0859  1.9417 -0.7789
  527TIP3   OH223139   6.621   0.348   2.173  0.2308  0.6540  0.5412
  527TIP3    H123140   6.597   0.277   2.114 -1.6898 -0.1268  2.1372
  527TIP3    H223141   6.693   0.312   2.226 -0.0747  0.2470  0.6855
  528TIP3   OH223142   3.225   4.683   7.485  0.6540  0.0004  0.1547
  528TIP3    H123143   3.257   4.760   7.438 -1.7247  1.3405  0.5682
  528TIP3    H223144   3.302   4.626   7.494  1.8327  0.9902 -2.7111
  529TIP3   OH223145   3.229   5.417   8.231  0.1521  0.3832  0.1885
  529TIP3    H123146   3.231   5.342   8.171  1.9637  0.5416 -0.0109
  529TIP3    H223147   3.162   5.475   8.196  0.3651 -0.0759 -1.0053
  530TIP3   OH223148   2.174   0.990   7.421  0.0175 -0.4164 -0.0239
  530TIP3    H123149   2.169   1.078   7.382  0.4864 -0.5598 -0.4178
  530TIP3    H223150   2.097   0.945   7.388 -0.0026 -0.2852 -0.1605
  531TIP3   OH223151   0.046   6.126   7.408 -0.1394 -0.4605 -0.4724
  531TIP3    H123152   0.094   6.128   7.491 -2.1830 -4.6205  1.1349
  531TIP3    H223153   0.113   6.110   7.342  1.2013 -1.4639  1.0356
  532TIP3   OH223154   5.827   6.101   0.094 -0.4361  0.3139 -0.1279
  532TIP3    H123155   5.740   6.140   0.094  0.1228  1.6592 -1.3568
  532TIP3    H223156   5.858   6.110   0.004  1.1647  0.3027  0.3811
  533TIP3   OH223157   3.475   3.782   7.293  0.1483 -0.1100  0.6586
  533TIP3    H123158   3.507   3.851   7.235  0.0258  0.0196  0.7451
  533TIP3    H223159   3.473   3.822   7.380 -1.7261  0.4032  0.4325
  534TIP3   OH223160   5.224   1.977   0.339 -0.0179  0.0194 -0.4241
  534TIP3    H123161   5.316   1.984   0.362 -0.3380  0.5951  0.7585
  534TIP3    H223162   5.193   1.898   0.385  0.3703 -1.4813 -2.6048
  535TIP3   OH223163   2.742   4.306   8.042  0.4559 -0.9923  0.5806
  535TIP3    H123164   2.824   4.277   8.003 -0.5477 -3.7468  0.2427
  535TIP3    H223165   2.741   4.265   8.129 -0.6930 -1.3520  0.4232
  536TIP3   OH223166   6.744   5.916   6.963 -0.0437  0.2975  0.0103
  536TIP3    H123167   6.683   5.894   7.033  1.1310  2.7326  1.9285
  536TIP3    H223168   6.814   5.852   6.970 -0.6773 -0.4031  0.0291
  537TIP3   OH223169   5.390   2.316   7.572  0.8295 -0.2811 -0.0484
  537TIP3    H123170   5.366   2.403   7.605  1.2987 -0.0448 -0.3288
  537TIP3    H223171   5.364   2.256   7.642 -1.0818 -0.0989 -0.5436
  538TIP3   OH223172   2.108   4.309   0.142 -0.4695 -0.2176 -0.2176
  538TIP3    H123173   2.196   4.324   0.107 -0.8532 -1.2321 -1.7298
  538TIP3    H223174   2.111   4.345   0.231  0.8973  1.5196 -0.8941
  539TIP3   OH223175   2.849   6.740   1.673  0.3133  0.3423  0.4503
  539TIP3    H123176   2.937   6.715   1.701 -0.6469 -0.2088  3.3579
  539TIP3    H223177   2.806   6.656   1.654  0.2901  0.5791 -0.5493
  540TIP3   OH223178   5.666   4.465   7.891 -0.1418  0.3414 -1.0477
  540TIP3    H123179   5.654   4.370   7.888  1.5554  0.1071 -1.9106
  540TIP3    H223180   5.613   4.494   7.965  0.5470 -1.4888  0.2222
  541TIP3   OH223181   0.100   4.828   0.948 -0.3365  0.2560 -0.3014
  541TIP3    H123182   0.122   4.830   0.855 -2.0387 -2.0060 -0.8346
  541TIP3    H223183   0.053   4.745   0.960 -0.7302  0.7793  2.4596
  542TIP3   OH223184   6.329   3.964   8.001 -0.1580 -0.1681  0.3952
  542TIP3    H123185   6.347   3.929   7.914 -0.2651 -0.0994  0.3458
  542TIP3    H223186   6.252   3.916   8.031 -0.0648 -0.2588  0.4910
  543TIP3   OH223187   0.378   5.311   1.608  0.0446 -0.7945 -0.6444
  543TIP3    H123188   0.317   5.369   1.653 -0.1673 -2.1918  0.9903
  543TIP3    H223189   0.363   5.326   1.515 -1.0280  0.6795 -0.2582
  544TIP3   OH223190   4.801   4.604   7.198 -0.1194 -0.6288  0.7327
  544TIP3    H123191   4.771   4.666   7.265 -0.2192 -1.1960  1.2326
  544TIP3    H223192   4.737   4.533   7.202  0.0159 -0.7847  0.1988
  545TIP3   OH223193   4.691   2.818   8.095 -0.9047 -0.2777  0.4167
  545TIP3    H123194   4.694   2.880   8.022  0.0248 -1.3873 -0.5117
  545TIP3    H223195   4.609   2.770   8.081 -1.0957  0.0128  0.5296
  546TIP3   OH223196   3.563   5.900   0.709 -0.0654 -0.1657 -0.1067
  546TIP3    H123197   3.567   5.994   0.730  0.0074 -0.6525  2.2346
  546TIP3    H223198   3.474   5.887   0.676 -0.2196  0.6524 -0.0347
  547TIP3   OH223199   6.657   4.860   2.133 -0.2999  0.1632 -0.7333
  547TIP3    H123200   6.638   4.816   2.215 -0.7095 -0.4430 -1.1470
  547TIP3    H223201   6.628   4.950   2.146  0.4948  0.3121  0.1014
  548TIP3   OH223202   5.544   0.867   8.184  0.2493 -0.1145  0.5254
  548TIP3    H123203   5.502   0.788   8.219 -1.4782  0.0320 -1.1085
  548TIP3    H223204   5.607   0.892   8.252 -0.2047 -2.0443  1.7367
  549TIP3   OH223205   0.248   1.057   0.980 -0.1109 -0.1322 -0.5036
  549TIP3    H123206   0.291   0.981   0.941  0.1370 -0.4749  0.4164
  549TIP3    H223207   0.304   1.080   1.054 -2.2665 -1.5213  1.6870
  550TIP3   OH223208   6.703   5.249   7.091 -0.6219 -0.2590 -0.0626
  550TIP3    H123209   6.692   5.303   7.170  1.2663 -0.9035  0.7010
  550TIP3    H223210   6.713   5.160   7.124  1.3786 -0.3945 -0.8901
  551TIP3   OH223211   2.576   0.261   0.876  0.3661 -0.1835  0.1510
  551TIP3    H123212   2.523   0.263   0.796 -0.2348 -0.1925  0.5425
  551TIP3    H223213   2.514   0.236   0.945  0.8663 -0.1142  0.6299
  552TIP3   OH223214   6.482   6.211   0.940 -0.0985  0.3475 -0.6964
  552TIP3    H123215   6.465   6.280   1.005 -0.8125 -1.0911  0.7141
  552TIP3    H223216   6.479   6.257   0.856 -1.5119  1.8804  0.1244
  553TIP3   OH223217   4.323   3.917   8.332  0.2773 -0.3778  0.0687
  553TIP3    H123218   4.409   3.947   8.305 -0.2853  0.0965 -1.2659
  553TIP3    H223219   4.338   3.830   8.369  1.2998 -0.3798 -0.3347
  554TIP3   OH223220   6.150   2.306   8.116  1.0241  0.2624 -0.2280
  554TIP3    H123221   6.066   2.314   8.069  0.9891 -1.9562 -0.6535
  554TIP3    H223222   6.159   2.390   8.162 -2.8766 -0.3927  2.2306
  555TIP3   OH223223   6.653   1.748   6.665 -0.1933  0.4046  0.5282
  555TIP3    H123224   6.604   1.732   6.584  0.1699 -0.7554  0.5228
  555TIP3    H223225   6.737   1.704   6.650 -0.0850  0.2747  1.4938
  556TIP3   OH223226   4.164   6.575   8.299  0.6004 -0.5501  0.4853
  556TIP3    H123227   4.161   6.486   8.264  2.7333 -0.1289 -0.9146
  556TIP3    H223228   4.254   6.587   8.327 -0.2342  0.3245  3.1177
  557TIP3   OH223229   5.399   0.640   7.505  0.1223 -0.2683 -0.4928
  557TIP3    H123230   5.425   0.688   7.583  1.3620 -0.5508 -0.7045
  557TIP3    H223231   5.320   0.684   7.474 -0.4619 -0.2346  0.9810
  558TIP3   OH223232   1.558   3.156   8.419 -0.3570 -0.6302 -0.1927
  558TIP3    H123233   1.631   3.218   8.418 -1.4477  0.6853 -0.0608
  558TIP3    H223234   1.540   3.139   8.326 -2.3126  2.0432 -0.4024
  559TIP3   OH223235   1.197   2.340   6.879 -0.2599  0.1338  0.2970
  559TIP3    H123236   1.289   2.352   6.899 -0.0706 -1.7629  0.7892
  559TIP3    H223237   1.196   2.309   6.788 -0.5136  1.1761 -0.0685
  560TIP3   OH223238   4.163   0.364   8.007  0.7391  0.0341  0.1564
  560TIP3    H123239   4.073   0.361   8.039  0.2902 -0.2526 -1.0878
  560TIP3    H223240   4.155   0.368   7.912  1.9871  2.0767  0.0560
  561TIP3   OH223241   2.067   4.115   8.380  0.1121 -0.4329  0.0958
  561TIP3    H123242   2.078   4.076   8.467 -1.4583  1.0216  1.0260
  561TIP3    H223243   1.991   4.069   8.344 -0.4779  0.2913  0.3636
  562TIP3   OH223244   5.228   2.086   1.462 -0.7705  0.1384 -0.0055
  562TIP3    H123245   5.196   2.086   1.372 -2.5436 -0.3128  0.5727
  562TIP3    H223246   5.206   2.172   1.496 -1.1246 -0.0726  0.3123
  563TIP3   OH223247   1.765   1.027   1.252  0.5043  0.2327 -0.6923
  563TIP3    H123248   1.776   0.976   1.332 -0.3037  0.6035 -0.3254
  563TIP3    H223249   1.837   1.001   1.195  0.8456 -0.3393  0.0013
  564TIP3   OH223250   0.610   3.532   1.388 -0.0203 -0.2709 -0.0494
  564TIP3    H123251   0.677   3.569   1.447 -1.3932  1.5921  0.4358
  564TIP3    H223252   0.549   3.487   1.447 -0.4106 -0.0042 -0.2528
  565TIP3   OH223253   3.906   5.154   7.306  0.8914  1.2149 -0.1183
  565TIP3    H123254   3.869   5.068   7.284 -1.3518  1.9453  0.5542
  565TIP3    H223255   3.995   5.135   7.335  0.7287 -0.7792 -0.7565
  566TIP3   OH223256   1.940   5.087   1.435  0.1318 -0.0702 -0.3438
  566TIP3    H123257   1.970   5.024   1.500 -0.2072 -0.7086 -0.7910
  566TIP3    H223258   1.971   5.052   1.351  2.1666  1.6791 -0.4004
  567TIP3   OH223259   4.385   1.424   8.447  0.0279 -0.3393  0.5711
  567TIP3    H123260   4.349   1.499   8.494 -2.2212 -0.6125 -0.5814
  567TIP3    H223261   4.346   1.348   8.490 -1.7003 -0.6072 -1.2962
  568TIP3   OH223262   3.687   4.050   1.214 -0.4794  0.0616  0.1864
  568TIP3    H123263   3.705   4.068   1.306  0.8606 -1.3166  0.2298
  568TIP3    H223264   3.768   4.013   1.180 -1.3809 -0.7483 -1.1941
  569TIP3   OH223265   5.002   3.930   7.829  0.4753 -0.3400 -0.0221
  569TIP3    H123266   5.066   3.935   7.900  0.9722 -1.2282 -0.3984
  569TIP3    H223267   4.979   3.837   7.824 -1.0432 -0.0164  0.2726
  570TIP3   OH223268   2.064   5.729   0.533  0.4326  0.0887  0.3068
  570TIP3    H123269   2.051   5.692   0.620 -3.0754  0.2732  0.0136
  570TIP3    H223270   2.102   5.658   0.481 -0.4098 -1.0784  1.2378
  571TIP3   OH223271   6.366   3.938   6.732  0.4355 -0.6557  0.0801
  571TIP3    H123272   6.450   3.965   6.770  0.1990 -0.6787  0.6291
  571TIP3    H223273   6.385   3.926   6.639  1.0969 -0.8930  0.2411
  572TIP3   OH223274   0.861   3.221   7.982  0.2357 -0.1195  0.1629
  572TIP3    H123275   0.927   3.287   8.003  0.4304  0.8143 -2.8852
  572TIP3    H223276   0.785   3.246   8.033  0.6602  1.8703 -0.1172
  573TIP3   OH223277   2.830   4.860   1.222  0.6616 -0.0760  0.6503
  573TIP3    H123278   2.878   4.882   1.302  2.7032 -1.0056 -0.2321
  573TIP3    H223279   2.830   4.941   1.170  1.7358 -0.1787  0.4703
  574TIP3   OH223280   6.799   3.983   7.672 -0.1016 -0.0306  0.9211
  574TIP3    H123281   6.780   3.898   7.632  0.1667  0.7860 -1.0642
  574TIP3    H223282   6.861   3.964   7.742  0.4971 -1.3878  0.0404
  575TIP3   OH223283   0.124   4.340   8.198  0.1222 -0.5378 -0.4019
  575TIP3    H123284   0.074   4.259   8.214 -0.5823 -0.3062 -1.3166
  575TIP3    H223285   0.081   4.405   8.253  0.4456 -0.6885  0.0384
  576TIP3   OH223286   2.032   4.539   1.685  0.8218 -0.3343  0.3148
  576TIP3    H123287   2.051   4.463   1.739  0.9464  0.3452  1.2679
  576TIP3    H223288   1.940   4.530   1.660  1.0603 -1.1987 -0.2642
  577TIP3   OH223289   5.652   1.320   6.286 -0.2444 -0.3777  0.7842
  577TIP3    H123290   5.557   1.311   6.290 -0.3258  0.5690  1.1254
  577TIP3    H223291   5.669   1.412   6.304  0.7264 -0.4801  0.4735
  578TIP3   OH223292   1.571   5.182   2.517  0.0791  0.2368  0.9806
  578TIP3    H123293   1.572   5.250   2.584 -0.5964  0.7983  0.4344
  578TIP3    H223294   1.621   5.219   2.445 -0.1101  0.0735  0.7645
  579TIP3   OH223295   6.813   5.369   0.122 -0.4603 -0.0141  0.4871
  579TIP3    H123296   6.866   5.431   0.171 -0.8013 -0.5161  1.5191
  579TIP3    H223297   6.738   5.350   0.178 -0.8701 -0.6014 -0.2256
  580TIP3   OH223298   0.112   6.534   8.271 -0.2457 -0.7155 -0.1349
  580TIP3    H123299   0.052   6.596   8.313 -0.4885 -1.3672  0.5033
  580TIP3    H223300   0.156   6.490   8.344  1.3829  0.0820 -0.5882
  581TIP3   OH223301   2.375   5.811   0.247 -0.1045 -0.5310 -0.6987
  581TIP3    H123302   2.427   5.834   0.170  1.9106 -0.7932  0.5276
  581TIP3    H223303   2.418   5.734   0.283 -0.0171  0.5340  1.5993
  582TIP3   OH223304   6.237   6.821   7.742  0.6276  0.2907  0.1651
  582TIP3    H123305   6.220   6.915   7.749 -0.8805 -0.0832  2.6913
  582TIP3    H223306   6.236   6.803   7.648  1.7439  2.9014 -0.4147
  583TIP3   OH223307   0.385   5.272   0.057 -0.2856  0.5020 -0.3832
  583TIP3    H123308   0.396   5.322   0.138  3.2500  2.1714 -1.7057
  583TIP3    H223309   0.406   5.182   0.081 -1.2267  0.5867  0.8847
  584TIP3   OH223310   2.900   6.387   7.540 -0.5697  0.1603  0.4358
  584TIP3    H123311   2.964   6.397   7.611 -1.1357  1.3795  0.8144
  584TIP3    H223312   2.892   6.293   7.527  1.2029 -0.0159  0.4599
  585TIP3   OH223313   3.916   1.460   8.015 -0.0620 -0.4918  0.3734
  585TIP3    H123314   3.930   1.554   8.006 -1.3671 -0.3746 -0.8702
  585TIP3    H223315   4.003   1.422   8.007  0.5302  0.6066  1.2350
  586TIP3   OH223316   5.500   5.255   0.051  0.6264  0.2132  0.2884
  586TIP3    H123317   5.410   5.241   0.022  0.8149 -1.9208  0.5590
  586TIP3    H223318   5.554   5.224  -0.023  1.1315  0.7716  0.4182
  587TIP3   OH223319   5.460   6.637   6.621  0.1792 -0.4033 -0.0059
  587TIP3    H123320   5.540   6.603   6.581  0.1239  0.1470 -0.5979
  587TIP3    H223321   5.477   6.632   6.716  0.9616 -0.1789 -0.1239
  588TIP3   OH223322   4.795   1.287   2.341 -0.0125  0.1592 -0.0021
  588TIP3    H123323   4.781   1.192   2.346  0.4748 -0.0026 -1.3604
  588TIP3    H223324   4.789   1.307   2.248  0.5734  1.3697  0.2079
  589TIP3   OH223325   4.682   3.860   0.890  0.2714 -0.1363  0.1340
  589TIP3    H123326   4.626   3.820   0.957  1.9518 -3.7798 -0.4253
  589TIP3    H223327   4.620   3.905   0.832 -1.8824 -1.9278  0.8782
  590TIP3   OH223328   1.442   5.089   1.821 -0.1147  0.4174  0.5307
  590TIP3    H123329   1.437   5.173   1.776  2.3357  0.9714  1.1308
  590TIP3    H223330   1.437   5.024   1.752 -0.3869  1.1108 -0.1163
  591TIP3   OH223331   3.348   2.040   0.877  0.1562  0.3061 -0.1449
  591TIP3    H123332   3.342   2.112   0.814 -0.7738  1.7719  1.5234
  591TIP3    H223333   3.393   2.079   0.952 -1.9264 -0.2897  1.4897
  592TIP3   OH223334   0.308   1.576   1.215  0.5186  0.2657  0.2529
  592TIP3    H123335   0.239   1.510   1.207  0.3350  0.4930 -0.0576
  592TIP3    H223336   0.287   1.623   1.296  0.3810  0.2481  0.2279
  593TIP3   OH223337   4.830   5.233   1.816 -0.2826 -0.1635 -0.8271
  593TIP3    H123338   4.843   5.234   1.911  0.7085 -1.7454 -0.9117
  593TIP3    H223339   4.739   5.207   1.804 -0.7566  1.1677 -0.3270
  594TIP3   OH223340   1.015   4.838   0.505 -0.5407 -0.3197 -0.5908
  594TIP3    H123341   1.070   4.767   0.469  0.8737  1.1161 -1.3908
  594TIP3    H223342   1.075   4.912   0.514 -2.0747  0.9218 -0.1949
  595TIP3   OH223343   5.434   1.030   0.888  0.2559 -0.1516  0.2238
  595TIP3    H123344   5.498   1.093   0.856 -0.3920 -0.4243 -1.7561
  595TIP3    H223345   5.476   0.988   0.962  0.9005  2.2349  1.3126
  596TIP3   OH223346   3.971   5.110   6.483 -0.4765 -0.2235  0.0092
  596TIP3    H123347   3.923   5.185   6.518  0.7520  0.6269 -0.0411
  596TIP3    H223348   3.971   5.123   6.389 -0.6021 -0.5003 -0.0286
  597TIP3   OH223349   2.889   5.336   6.464 -0.1898  0.1444  0.1290
  597TIP3    H123350   2.886   5.412   6.406 -1.2140  1.8602  2.3190
  597TIP3    H223351   2.866   5.262   6.406  0.1814  1.5435 -1.9188
  598TIP3   OH223352   5.580   2.427   8.344  0.0014  0.0471  0.7589
  598TIP3    H123353   5.668   2.407   8.374  0.5182 -0.2368 -0.8532
  598TIP3    H223354   5.566   2.518   8.369  1.7186  0.8793 -1.1018
  599TIP3   OH223355   4.526   5.766   6.554 -0.1021 -0.0790  0.3189
  599TIP3    H123356   4.548   5.680   6.592 -1.5603 -0.2112  0.9155
  599TIP3    H223357   4.610   5.813   6.552  0.7101 -1.4737  0.0645
  600TIP3   OH223358   4.301   1.306   7.539 -0.4038  0.3861  0.5331
  600TIP3    H123359   4.318   1.299   7.445 -1.2952  0.0624  0.3806
  600TIP3    H223360   4.208   1.328   7.544 -1.0247 -2.1340  1.3744
  601TIP3   OH223361   4.655   3.907   7.188  0.0606 -0.3474  0.0367
  601TIP3    H123362   4.665   3.911   7.283  1.4772 -0.8950 -0.0722
  601TIP3    H223363   4.582   3.966   7.169 -0.9643 -1.0572  1.5547
  602TIP3   OH223364   6.386   5.350   0.397 -0.3039 -0.1098  0.1491
  602TIP3    H123365   6.354   5.345   0.487 -0.0580  2.1464  0.4221
  602TIP3    H223366   6.311   5.379   0.346 -0.0464  0.1127 -0.1057
  603TIP3   OH223367   0.554   0.271   7.397  0.1079 -0.2504  0.1566
  603TIP3    H123368   0.601   0.235   7.472 -0.6853 -0.8813  0.3597
  603TIP3    H223369   0.537   0.196   7.340  0.1011  0.1127 -0.3262
  604TIP3   OH223370   6.014   4.886   2.200 -0.9504 -0.4796 -0.3731
  604TIP3    H123371   6.045   4.852   2.117 -0.2768 -0.7369 -0.0214
  604TIP3    H223372   5.923   4.855   2.207 -1.4361  0.5559 -1.5607
  605TIP3   OH223373   2.277   4.607   7.373 -0.6364 -0.0334 -0.2035
  605TIP3    H123374   2.233   4.581   7.292 -3.8449  0.0545  1.3672
  605TIP3    H223375   2.216   4.666   7.416  1.8589  1.5755  1.3840
  606TIP3   OH223376   0.148   3.984   7.843  0.1055  0.3103 -0.2521
  606TIP3    H123377   0.221   3.924   7.855 -0.1897  0.0502  0.2884
  606TIP3    H223378   0.187   4.063   7.805  0.2071 -1.0039 -3.1549
  607TIP3   OH223379   6.251   1.393   1.437  0.3890  0.0922  0.0326
  607TIP3    H123380   6.331   1.445   1.444 -0.0013  0.6925  0.1417
  607TIP3    H223381   6.183   1.450   1.474  0.1718 -0.9975  1.4166
  608TIP3   OH223382   2.176   6.609   7.974 -0.0175  0.2755  0.5477
  608TIP3    H123383   2.254   6.553   7.971  0.3007  0.7121  0.6023
  608TIP3    H223384   2.118   6.572   7.907 -0.0924 -0.5201  1.0294
  609TIP3   OH223385   4.780   0.789   0.335  0.1910 -0.1539 -0.3533
  609TIP3    H123386   4.845   0.859   0.337 -1.4608  1.4603  1.1357
  609TIP3    H223387   4.700   0.830   0.368 -1.2126 -2.4274 -0.6962
  610TIP3   OH223388   6.489   3.345   7.088 -0.2446 -0.1066  0.1663
  610TIP3    H123389   6.560   3.404   7.114 -0.6516  1.2939 -1.6697
  610TIP3    H223390   6.445   3.391   7.017 -1.2741 -2.1792 -0.6215
  611TIP3   OH223391   5.897   3.586   1.615 -0.1153 -0.0889  0.1101
  611TIP3    H123392   5.975   3.635   1.640  0.4406 -0.7803 -0.2383
  611TIP3    H223393   5.837   3.597   1.689  0.8296 -0.6775  0.9901
  612TIP3   OH223394   5.570   4.338   8.146  0.2149  0.0738 -0.4021
  612TIP3    H123395   5.602   4.249   8.161  1.8085  1.0009  2.4699
  612TIP3    H223396   5.484   4.326   8.105 -0.2539 -2.8379  1.1739
  613TIP3   OH223397   0.677   6.077   0.993  0.0677  0.6104 -0.5048
  613TIP3    H123398   0.670   6.121   1.078 -1.7915  0.3146 -0.4587
  613TIP3    H223399   0.771   6.072   0.976  0.4820  0.7618  1.4938
  614TIP3   OH223400   4.223   1.834   1.548 -0.6041 -0.4672  0.1481
  614TIP3    H123401   4.296   1.838   1.609 -2.3038 -0.0316  2.2592
  614TIP3    H223402   4.202   1.740   1.543 -0.0813 -0.5679 -0.2794
  615TIP3   OH223403   3.062   3.932   1.953  0.2323 -0.7020  0.4734
  615TIP3    H123404   3.144   3.938   2.002  0.3880  0.7425  0.0751
  615TIP3    H223405   3.006   4.001   1.990 -1.1244 -2.1462  1.2667
  616TIP3   OH223406   3.308   5.504   7.809  0.2293  0.1911  0.2845
  616TIP3    H123407   3.377   5.549   7.760  0.3687 -0.6447 -0.3124
  616TIP3    H223408   3.294   5.558   7.886  0.7703  0.9643 -0.1445
  617TIP3   OH223409   4.901   2.069   1.932 -0.0059  0.1419  0.5080
  617TIP3    H123410   4.989   2.106   1.923 -0.4274  1.2737  0.7437
  617TIP3    H223411   4.883   2.076   2.026 -0.0174 -0.8926  0.5842
  618TIP3   OH223412   1.506   4.480   1.123  0.1667 -0.1837 -0.1938
  618TIP3    H123413   1.414   4.461   1.143  0.1612  1.5281  1.6392
  618TIP3    H223414   1.555   4.448   1.198  0.7060  1.7500  0.3407
  619TIP3   OH223415   4.847   2.457   0.679 -0.0318 -0.1229 -0.1716
  619TIP3    H123416   4.835   2.407   0.760  0.5655  0.2302  0.1442
  619TIP3    H223417   4.941   2.478   0.679 -0.4188  1.7114  0.1142
  620TIP3   OH223418   6.268   2.379   1.250 -0.0696  0.9623  0.0247
  620TIP3    H123419   6.190   2.384   1.194 -0.3033  0.2296  0.2703
  620TIP3    H223420   6.277   2.467   1.287  0.6789  1.7773 -1.9324
  621TIP3   OH223421   3.217   0.883   8.206 -0.0536  0.4149  0.3086
  621TIP3    H123422   3.192   0.959   8.258 -1.7103  0.1402 -0.0078
  621TIP3    H223423   3.169   0.810   8.247 -0.2514 -0.0546 -0.7300
  622TIP3   OH223424   4.374   0.064   7.214  0.1339  0.1106 -0.4652
  622TIP3    H123425   4.419   0.002   7.157  0.5284  0.0690 -0.1122
  622TIP3    H223426   4.286   0.028   7.226  0.8512 -1.2091  1.0322
  623TIP3   OH223427   4.133   6.263   1.468  0.3517 -0.7339  0.2113
  623TIP3    H123428   4.095   6.178   1.489  0.5753 -0.4229  1.9661
  623TIP3    H223429   4.144   6.306   1.552 -0.8535  1.5421 -0.7256
  624TIP3   OH223430   0.271   5.854   8.610 -0.1102  0.3273 -0.3910
  624TIP3    H123431   0.295   5.946   8.605 -2.4972  1.0084 -0.7128
  624TIP3    H223432   0.302   5.826   8.696  2.0435  0.9514 -0.9129
  625TIP3   OH223433   2.524   2.167   1.298  0.2289 -0.4746  0.2990
  625TIP3    H123434   2.444   2.129   1.332 -0.9176  2.1741  0.8048
  625TIP3    H223435   2.515   2.162   1.203 -0.1090 -0.9963  0.3559
  626TIP3   OH223436   4.990   4.135   1.139 -0.0033  0.2761  0.4642
  626TIP3    H123437   5.076   4.097   1.153  0.4323  0.1858 -2.0070
  626TIP3    H223438   4.966   4.109   1.050  0.1219  5.2557 -1.3531
  627TIP3   OH223439   5.365   6.302   2.837 -0.2816  0.1214  0.3183
  627TIP3    H123440   5.435   6.340   2.890 -0.1600 -0.4930  0.6159
  627TIP3    H223441   5.310   6.376   2.813 -0.5138  0.3759  1.5676
  628TIP3   OH223442   6.655   2.505   1.307  0.3761  0.0732  0.6316
  628TIP3    H123443   6.663   2.495   1.212  0.5304  0.3522  0.6125
  628TIP3    H223444   6.582   2.566   1.318  0.3795  0.0662  0.6913
  629TIP3   OH223445   4.209   4.105   1.788 -0.0166 -0.2097  0.5106
  629TIP3    H123446   4.225   4.025   1.839  0.7965  0.4510  1.3382
  629TIP3    H223447   4.174   4.167   1.852  1.7852  0.8997  0.4917
  630TIP3   OH223448   0.820   4.539   1.746  0.0684  0.1789  0.0212
  630TIP3    H123449   0.892   4.496   1.792  0.0731 -0.5596 -0.6485
  630TIP3    H223450   0.805   4.620   1.794 -0.9082 -1.2070  2.2108
  631TIP3   OH223451   4.000   2.593   1.174  0.8499 -0.6807 -0.0187
  631TIP3    H123452   4.041   2.604   1.260  3.2908 -0.8339 -1.0609
  631TIP3    H223453   3.936   2.523   1.186 -0.2633  0.6108  2.0761
  632TIP3   OH223454   0.741   0.506   2.320  0.4174 -0.2515 -0.3505
  632TIP3    H123455   0.832   0.532   2.333  0.2660 -0.1681  0.6009
  632TIP3    H223456   0.745   0.413   2.299  0.7485 -0.1476 -0.7635
  633TIP3   OH223457   4.028   6.318   8.430 -0.3493  0.0329  0.2964
  633TIP3    H123458   4.043   6.320   8.335 -0.9165 -0.3437  0.1939
  633TIP3    H223459   4.021   6.410   8.455 -3.1906  0.1283 -0.5255
  634TIP3   OH223460   5.177   5.547   1.537  0.0156 -0.0898  0.1262
  634TIP3    H123461   5.126   5.608   1.591  0.7443  1.9877 -1.3718
  634TIP3    H223462   5.115   5.481   1.508 -0.9625  0.2826  1.3031
  635TIP3   OH223463   1.790   2.378   8.542 -0.3376  0.9941  0.2802
  635TIP3    H123464   1.699   2.358   8.520 -0.5868  1.6215  0.7336
  635TIP3    H223465   1.813   2.451   8.484 -0.0759  0.7515  0.0734
  636TIP3   OH223466   1.768   4.206   7.328  0.1815 -0.2566 -0.0190
  636TIP3    H123467   1.715   4.266   7.275  1.6327  1.0282 -0.0780
  636TIP3    H223468   1.798   4.259   7.402  0.0019 -1.4333  0.9403
  637TIP3   OH223469   5.491   1.725   6.707 -0.8848  0.4475  0.4432
  637TIP3    H123470   5.416   1.754   6.656 -1.0492  0.5810  0.7546
  637TIP3    H223471   5.509   1.636   6.677 -0.7709  0.6452 -0.0776
  638TIP3   OH223472   3.009   6.461   7.231  0.2975 -0.4964 -0.3386
  638TIP3    H123473   2.939   6.512   7.190 -0.4477 -0.8922  0.4110
  638TIP3    H223474   2.971   6.429   7.313  0.4526 -2.8904 -1.1128
  639TIP3   OH223475   1.289   4.288   0.578  0.3902  0.8009 -0.1300
  639TIP3    H123476   1.256   4.267   0.490 -1.1170 -0.5051  0.6846
  639TIP3    H223477   1.322   4.204   0.611  1.6898  1.4472  0.2850
  640TIP3   OH223478   0.033   6.518   1.039 -0.5003 -0.7813 -0.2111
  640TIP3    H123479   0.025   6.507   0.944 -1.6531  1.8241 -0.4979
  640TIP3    H223480   0.067   6.433   1.070 -2.4015 -2.5646 -2.6142
  641TIP3   OH223481   1.014   6.623   1.493 -0.3276 -0.1363 -0.1866
  641TIP3    H123482   1.039   6.600   1.404 -0.1254 -1.3315  0.1473
  641TIP3    H223483   1.095   6.614   1.544 -0.1958  1.6137 -0.0580
  642TIP3   OH223484   5.290   4.065   7.143  0.5763 -0.3402  0.0863
  642TIP3    H123485   5.324   4.155   7.137  0.9059 -0.4665  0.0653
  642TIP3    H223486   5.228   4.068   7.216  2.1223 -0.5837  1.4555
  643TIP3   OH223487   5.725   5.767   8.052 -0.3147  0.7582  0.1858
  643TIP3    H123488   5.636   5.768   8.088 -0.3484  2.5553  0.1356
  643TIP3    H223489   5.765   5.847   8.086  0.4525  1.2867 -1.8331
  644TIP3   OH223490   5.956   3.608   7.278 -0.7070 -0.0188  0.4226
  644TIP3    H123491   5.977   3.549   7.351 -1.9021 -0.2725  0.5803
  644TIP3    H223492   6.035   3.660   7.267  0.3915 -1.6102  0.3142
  645TIP3   OH223493   4.290   4.929   1.941  0.1660  0.6151 -0.3860
  645TIP3    H123494   4.328   4.874   2.010 -2.3658 -0.8846 -0.0297
  645TIP3    H223495   4.245   4.999   1.988 -2.4393 -0.9758 -0.2715
  646TIP3   OH223496   2.572   1.799   1.383 -0.6378 -0.4035 -0.2908
  646TIP3    H123497   2.515   1.766   1.453  1.2011 -1.3137  0.8641
  646TIP3    H223498   2.660   1.797   1.421  0.0009  3.0632 -1.1958
  647TIP3   OH223499   4.938   4.901   1.725 -0.2694  0.2862  0.4545
  647TIP3    H123500   5.001   4.968   1.751  1.0751 -0.9670  0.5282
  647TIP3    H223501   4.907   4.864   1.807 -0.7649  0.5730  0.4029
  648TIP3   OH223502   5.013   6.811   8.223  0.2580 -0.0054 -0.4305
  648TIP3    H123503   4.928   6.768   8.228 -0.3314  1.0636 -0.9430
  648TIP3    H223504   5.058   6.784   8.303 -0.5288 -0.6565 -0.1951
  649TIP3   OH223505   2.514   1.771   7.946  0.4472  0.2547 -0.4927
  649TIP3    H123506   2.504   1.721   7.865 -2.0289  0.4270 -0.3483
  649TIP3    H223507   2.454   1.729   8.007  0.3029  1.7591  0.4383
  650TIP3   OH223508   4.850   5.183   6.869  0.3356  0.2803 -0.1461
  650TIP3    H123509   4.906   5.114   6.832 -3.1610 -2.4320 -0.9465
  650TIP3    H223510   4.838   5.157   6.960 -1.3273 -0.4912 -0.5572
  651TIP3   OH223511   2.764   1.274   2.426 -0.2772  0.0141  0.4039
  651TIP3    H123512   2.725   1.217   2.361 -0.2228  0.1347  0.2662
  651TIP3    H223513   2.734   1.239   2.510  0.4624 -0.7634  0.3673
  652TIP3   OH223514   6.192   4.699   0.947  0.4137 -0.3514 -0.4679
  652TIP3    H123515   6.190   4.705   1.042 -1.0917  0.7459 -0.5147
  652TIP3    H223516   6.219   4.609   0.928  0.9463 -0.5181  0.9756
  653TIP3   OH223517   4.434   3.886   0.002 -0.0674  0.4076 -0.2577
  653TIP3    H123518   4.355   3.858   0.049  1.0885 -0.6017  1.1447
  653TIP3    H223519   4.506   3.863   0.060  1.2818  1.3221 -1.5098
  654TIP3   OH223520   0.169   2.558   0.364 -0.0414 -0.4755 -0.0382
  654TIP3    H123521   0.159   2.624   0.296  0.1155 -0.5190 -0.1039
  654TIP3    H223522   0.168   2.607   0.446  0.3155 -0.3668 -0.0976
  655TIP3   OH223523   2.806   1.155   7.801  0.0769 -0.0031 -0.3665
  655TIP3    H123524   2.855   1.088   7.849  1.2924  1.3400  0.3529
  655TIP3    H223525   2.767   1.209   7.870 -0.7103  0.1691 -0.9348
  656TIP3   OH223526   0.402   5.292   7.399  0.3159  0.3529 -0.1515
  656TIP3    H123527   0.469   5.260   7.338  0.6791 -2.1707  1.4419
  656TIP3    H223528   0.447   5.300   7.483 -0.6999  1.5688  0.3135
  657TIP3   OH223529   3.285   4.897   0.510  0.2960  0.4822 -0.2203
  657TIP3    H123530   3.274   4.946   0.428  0.4488 -0.4090 -0.7953
  657TIP3    H223531   3.198   4.860   0.526  0.9703 -2.0550 -1.8025
  658TIP3   OH223532   3.184   0.827   0.179 -0.2259 -0.6856 -0.1790
  658TIP3    H123533   3.142   0.749   0.214  1.6837 -1.5164  0.4085
  658TIP3    H223534   3.154   0.898   0.237 -0.1214 -1.3997  0.7824
  659TIP3   OH223535   5.512   2.232   1.806  0.3025 -0.5992 -0.0125
  659TIP3    H123536   5.597   2.238   1.762  0.3799  2.2310  0.3501
  659TIP3    H223537   5.449   2.267   1.742 -0.0905  0.3078  0.8508
  660TIP3   OH223538   6.208   2.130   7.458 -0.3236  0.1837  0.0013
  660TIP3    H123539   6.215   2.066   7.528  0.9278 -0.8801 -1.0409
  660TIP3    H223540   6.274   2.197   7.479  0.3066 -0.3236 -0.3249
  661TIP3   OH223541   3.714   1.085   0.060 -0.1320  0.2161 -0.2402
  661TIP3    H123542   3.722   1.144  -0.015 -2.0115 -0.2100 -0.8509
  661TIP3    H223543   3.626   1.103   0.094 -0.9960 -2.5610 -0.7768
  662TIP3   OH223544   3.749   2.136   7.855 -0.0336 -0.5191  0.6056
  662TIP3    H123545   3.741   2.143   7.760  1.0217  0.5975  0.5624
  662TIP3    H223546   3.760   2.043   7.872 -2.4925 -1.0073 -0.1290
  663TIP3   OH223547   6.729   1.576   8.237 -0.0694  0.5795  0.5928
  663TIP3    H123548   6.735   1.519   8.160 -1.4055  0.9242  0.1987
  663TIP3    H223549   6.791   1.646   8.220  0.2008  0.2464  0.1870
  664TIP3   OH223550   1.257   2.111   2.031  0.0978 -0.4041 -0.1941
  664TIP3    H123551   1.290   2.038   2.084 -0.3181 -0.0052  0.6322
  664TIP3    H223552   1.245   2.182   2.094 -1.1611 -0.1641 -0.6916
  665TIP3   OH223553   2.622   1.262   1.474  0.4162  0.1853  0.2426
  665TIP3    H123554   2.536   1.221   1.469 -0.0124  0.8703  1.6210
  665TIP3    H223555   2.683   1.194   1.445 -0.3383 -1.2344  1.8014
  666TIP3   OH223556   0.183   0.025   7.086 -0.5484  1.3146  0.0310
  666TIP3    H123557   0.152   0.012   6.996  0.8673  0.1591 -0.3228
  666TIP3    H223558   0.258   0.083   7.078  0.0443  0.6130  0.3638
  667TIP3   OH223559   1.968   0.551   6.758  0.2187  0.7645  0.0174
  667TIP3    H123560   2.004   0.519   6.841 -0.2731  1.8551  0.6826
  667TIP3    H223561   1.940   0.472   6.712 -0.0605  0.1659  1.1613
  668TIP3   OH223562   5.659   2.845   7.748 -0.0705  0.2084  0.6752
  668TIP3    H123563   5.713   2.852   7.827 -0.6126 -0.0851  1.0742
  668TIP3    H223564   5.569   2.848   7.779 -0.3041 -1.3762  0.2225
  669TIP3   OH223565   0.052   4.414   1.632  1.1249  0.7179  0.1009
  669TIP3    H123566   0.146   4.399   1.630  0.7068 -2.5807 -1.7230
  669TIP3    H223567   0.030   4.441   1.542  0.0549 -1.4462 -0.3574
  670TIP3   OH223568   0.821   6.175   6.466 -0.1036  0.1816 -0.0954
  670TIP3    H123569   0.734   6.165   6.429 -1.7616 -1.8582  3.7344
  670TIP3    H223570   0.816   6.256   6.517 -0.4670 -0.8479  1.5773
  671TIP3   OH223571   4.329   4.563   0.872  0.1958  0.0675  0.4192
  671TIP3    H123572   4.316   4.644   0.921  2.3747  0.5879  0.2766
  671TIP3    H223573   4.268   4.568   0.799 -1.1039  0.6120  1.5148
  672TIP3   OH223574   1.276   6.572   1.587 -0.3377  0.3115  0.2200
  672TIP3    H123575   1.315   6.524   1.661  0.5314  2.0598  0.9662
  672TIP3    H223576   1.344   6.570   1.519 -0.6118 -0.1530 -0.0476
  673TIP3   OH223577   1.723   0.749   2.625  0.1367  0.1335  0.0811
  673TIP3    H123578   1.797   0.742   2.565  0.2129  0.7371  0.0947
  673TIP3    H223579   1.699   0.658   2.646  0.5831 -0.0666 -0.2748
  674TIP3   OH223580   0.610   4.876   3.156  0.0953 -0.1092 -0.7182
  674TIP3    H123581   0.554   4.943   3.118  0.3628  0.6536  0.2089
  674TIP3    H223582   0.698   4.898   3.125  0.6323  1.6909  1.8292
  675TIP3   OH223583   4.887   0.732   8.290 -0.1014 -0.2036 -0.0896
  675TIP3    H123584   4.924   0.644   8.291  1.0205  0.2253  1.7830
  675TIP3    H223585   4.951   0.784   8.239 -0.3805 -0.3099 -0.5552
  676TIP3   OH223586   3.105   1.287   1.495  0.0780  0.1443 -0.5243
  676TIP3    H123587   3.117   1.301   1.589  0.2637 -0.6334 -0.4236
  676TIP3    H223588   3.111   1.375   1.457 -0.3258  0.5061  0.2209
  677TIP3   OH223589   5.914   1.305   8.282  0.1641  0.4307  0.8107
  677TIP3    H123590   5.911   1.240   8.212  1.5919  0.4273  0.7231
  677TIP3    H223591   5.846   1.368   8.259 -0.7222 -0.6247  0.4902
  678TIP3   OH223592   1.725   6.361   1.071  0.2947 -0.3762  0.2660
  678TIP3    H123593   1.676   6.431   1.027 -0.8131 -1.4038 -0.2076
  678TIP3    H223594   1.711   6.284   1.016  1.6001 -0.9556  0.7020
  679TIP3   OH223595   5.288   4.065   0.787 -0.6364  0.1676 -0.9831
  679TIP3    H123596   5.244   4.133   0.840  0.5570  0.3326 -0.1624
  679TIP3    H223597   5.265   3.983   0.831  1.5242  0.4076  0.7378
  680TIP3   OH223598   5.908   1.566   0.418 -0.3042  0.5201 -0.0514
  680TIP3    H123599   5.828   1.515   0.408 -0.0930  0.1286  0.2477
  680TIP3    H223600   5.910   1.590   0.510 -0.9099  1.9230 -0.3814
  681TIP3   OH223601   2.687   1.527   7.270 -0.1008  0.2374 -0.6579
  681TIP3    H123602   2.640   1.444   7.283 -0.4233  0.5970  0.5665
  681TIP3    H223603   2.772   1.500   7.236 -0.1259 -0.6175 -0.0730
  682TIP3   OH223604   6.706   0.593   6.661  0.3313  0.3779  0.0128
  682TIP3    H123605   6.642   0.575   6.730 -0.5109 -1.9438 -1.2504
  682TIP3    H223606   6.663   0.655   6.603 -0.2866 -0.1757 -0.1364
  683TIP3   OH223607   0.111   5.342   2.021 -0.2478 -0.0873  0.1672
  683TIP3    H123608   0.035   5.377   1.974 -0.8748 -0.2186  1.0649
  683TIP3    H223609   0.124   5.402   2.094  0.8666  0.2466 -0.2934
  684TIP3   OH223610   1.732   6.222   0.142  0.1307 -0.1692  0.8382
  684TIP3    H123611   1.675   6.150   0.115 -1.0446  1.1790 -0.4111
  684TIP3    H223612   1.808   6.215   0.084  0.6968 -1.2294  1.6782
  685TIP3   OH223613   4.300   0.741   2.046 -0.5906 -0.4179 -0.0950
  685TIP3    H123614   4.244   0.816   2.024 -1.2426 -0.3795  1.5861
  685TIP3    H223615   4.248   0.689   2.106 -0.6424 -2.9318 -2.1716
  686TIP3   OH223616   3.339   5.738   6.681 -0.4541  0.6636  0.2277
  686TIP3    H123617   3.371   5.669   6.739 -2.5637  0.2048  0.9301
  686TIP3    H223618   3.397   5.735   6.605  1.3703  0.1937  1.5917
  687TIP3   OH223619   5.830   0.182   6.850  0.3906 -0.6587 -0.2399
  687TIP3    H123620   5.865   0.221   6.770 -1.6221  1.2000 -0.3095
  687TIP3    H223621   5.879   0.224   6.920 -0.8330  1.1076 -0.3747
  688TIP3   OH223622   1.450   3.575   1.220  1.0806  0.1051 -0.6462
  688TIP3    H123623   1.376   3.607   1.272  0.0511 -2.2699 -0.5511
  688TIP3    H223624   1.470   3.648   1.162 -0.8752  1.0852 -0.2003
  689TIP3   OH223625   6.002   4.534   1.473 -0.0700  0.5276 -0.1134
  689TIP3    H123626   5.954   4.459   1.438 -0.0795  0.6560 -0.3756
  689TIP3    H223627   6.003   4.598   1.402 -0.2111  0.8469  0.1645
  690TIP3   OH223628   0.426   2.068   0.320 -0.3559 -0.7555 -0.3109
  690TIP3    H123629   0.402   2.137   0.257 -0.2101 -0.2703  0.1631
  690TIP3    H223630   0.515   2.043   0.295  0.8431  1.4526  1.4395
  691TIP3   OH223631   4.575   6.564   0.928  0.5752  0.5905  0.7470
  691TIP3    H123632   4.579   6.515   1.011  0.3843 -0.2084  0.2919
  691TIP3    H223633   4.667   6.585   0.909  0.6858  0.1657  0.8030
  692TIP3   OH223634   3.404   0.478   5.984  0.4895  1.0160 -0.2066
  692TIP3    H123635   3.310   0.481   5.969  0.4589  1.8529  0.1037
  692TIP3    H223636   3.426   0.385   5.980 -0.1589  0.8937 -1.4614
  693TIP3   OH223637   2.184   2.530   8.420  0.2414 -0.3490  0.2440
  693TIP3    H123638   2.164   2.621   8.440 -2.0353 -0.9501  0.9786
  693TIP3    H223639   2.140   2.514   8.336  1.3775 -0.5409 -0.3247
  694TIP3   OH223640   0.628   3.647   1.142  0.0076 -0.3516  0.5182
  694TIP3    H123641   0.609   3.608   1.227  0.3573 -0.2485  0.6496
  694TIP3    H223642   0.589   3.734   1.147 -1.2799 -0.8837  0.0060
  695TIP3   OH223643   3.293   6.386   0.884  0.1705 -0.9769 -0.4372
  695TIP3    H123644   3.320   6.381   0.792  0.2154 -0.8647 -0.4307
  695TIP3    H223645   3.237   6.310   0.897  0.0843 -0.9405 -0.5850
  696TIP3   OH223646   4.950   5.370   7.545 -0.4484  0.2896 -0.4202
  696TIP3    H123647   4.876   5.420   7.511 -1.5327  0.2042  1.6769
  696TIP3    H223648   4.982   5.421   7.619  0.8207 -0.3006 -0.5382
  697TIP3   OH223649   5.858   0.833   1.666  0.1296  0.1259 -0.3244
  697TIP3    H123650   5.942   0.822   1.622  0.0024 -0.6117 -0.3962
  697TIP3    H223651   5.869   0.788   1.750  0.5544  1.9821  0.6756
  698TIP3   OH223652   3.812   2.510   6.729  0.4863  0.0010  0.1285
  698TIP3    H123653   3.876   2.499   6.799  2.3500  0.8086 -1.3360
  698TIP3    H223654   3.800   2.421   6.694  0.2459 -0.2600  0.8486
  699TIP3   OH223655   3.431   0.036   7.082 -0.7255 -0.6297  0.5067
  699TIP3    H123656   3.443   0.064   7.173 -0.4099  0.5409  0.1279
  699TIP3    H223657   3.338   0.012   7.077 -1.0389  0.4310  0.8681
  700TIP3   OH223658   5.908   5.950   8.146 -0.2604  0.2227 -0.8223
  700TIP3    H123659   5.875   6.040   8.156 -0.8815 -0.0245 -0.6111
  700TIP3    H223660   6.001   5.961   8.126  0.0003  0.8829  0.6124
  701TIP3   OH223661   5.651   0.902   0.307 -0.1019 -0.3092  0.5173
  701TIP3    H123662   5.717   0.837   0.284  0.5408  0.7119 -0.5935
  701TIP3    H223663   5.569   0.852   0.306  0.5602 -1.4610  1.3378
  702TIP3   OH223664   3.056   6.865   8.265 -0.5692 -1.0636 -0.3651
  702TIP3    H123665   3.123   6.928   8.240 -1.3102 -0.4977 -0.9804
  702TIP3    H223666   2.974   6.904   8.235 -1.4117 -0.9057  1.8879
  703TIP3   OH223667   2.088   5.081   0.499  0.0910  0.1002 -0.1988
  703TIP3    H123668   2.015   5.142   0.512  0.6666  0.4639  1.7253
  703TIP3    H223669   2.054   4.997   0.528  0.5461  0.3691  1.1925
  704TIP3   OH223670   2.585   3.504   1.636 -0.0257 -0.0607 -0.2486
  704TIP3    H123671   2.502   3.550   1.627  0.6829  1.4504  0.5547
  704TIP3    H223672   2.578   3.456   1.718 -0.0745  0.1343 -0.1392
  705TIP3   OH223673   1.727   2.899   2.182  0.4423  0.0458 -0.0543
  705TIP3    H123674   1.808   2.897   2.131  1.8702  2.0000  1.9430
  705TIP3    H223675   1.713   2.992   2.200 -1.6431 -0.3435  0.6373
  706TIP3   OH223676   4.881   2.279   6.768  0.2364 -0.4901  0.2831
  706TIP3    H123677   4.866   2.185   6.759  0.5023 -0.5588  0.5147
  706TIP3    H223678   4.855   2.317   6.684  0.5804 -0.8287  0.0226
  707TIP3   OH223679   4.886   4.553   8.604 -0.2093 -0.4511  0.3883
  707TIP3    H123680   4.909   4.636   8.646 -0.1881 -1.0162  1.5480
  707TIP3    H223681   4.864   4.576   8.514  0.7350  0.6797  0.4277
  708TIP3   OH223682   3.136   5.149   7.263  0.0133  0.3022 -0.0560
  708TIP3    H123683   3.118   5.060   7.233  0.0492  0.0292  0.7242
  708TIP3    H223684   3.077   5.204   7.211 -0.8465 -0.2865  0.2852
  709TIP3   OH223685   3.837   6.264   7.461 -0.4109  0.4138 -0.1765
  709TIP3    H123686   3.924   6.302   7.447 -0.5079  0.3302 -1.0266
  709TIP3    H223687   3.792   6.276   7.378 -0.7687 -0.7096 -0.1638
  710TIP3   OH223688   3.183   1.247   7.846  0.3846  0.2574 -0.7532
  710TIP3    H123689   3.169   1.314   7.779  1.6548 -0.4780 -1.8053
  710TIP3    H223690   3.121   1.178   7.825  0.4596  0.2306 -0.8879
  711TIP3   OH223691   1.867   1.263   6.690 -0.5112 -0.2440  0.4988
  711TIP3    H123692   1.797   1.215   6.645  0.3621 -0.4435 -0.6939
  711TIP3    H223693   1.894   1.330   6.627 -1.1993  1.3715  1.8464
  712TIP3   OH223694   6.157   1.704   0.411  0.0768 -0.7765 -0.4909
  712TIP3    H123695   6.103   1.644   0.359 -0.0423  0.9504 -2.4816
  712TIP3    H223696   6.101   1.780   0.425  0.3185 -0.9429  1.7799
  713TIP3   OH223697   2.270   2.071   1.355 -0.3166 -0.3678 -0.5024
  713TIP3    H123698   2.223   2.076   1.271  1.0700 -1.9258 -1.4350
  713TIP3    H223699   2.225   2.001   1.403 -0.6693  0.0417 -0.2309
  714TIP3   OH223700   3.416   6.508   1.402  0.3419  0.1707 -0.6888
  714TIP3    H123701   3.358   6.584   1.397  1.6309  1.2378 -0.1525
  714TIP3    H223702   3.504   6.544   1.386  1.1343 -0.9805  0.7847
  715TIP3   OH223703   4.788   1.079   6.536  0.3368 -0.0420 -0.3525
  715TIP3    H123704   4.788   0.995   6.491  1.6033 -0.6151  0.6364
  715TIP3    H223705   4.824   1.140   6.472  0.6390 -0.5238 -0.6522
  716TIP3   OH223706   1.502   4.115   1.881 -0.1997  0.0454 -0.3179
  716TIP3    H123707   1.514   4.040   1.822  0.8137 -1.0672  1.2151
  716TIP3    H223708   1.512   4.078   1.969  0.8303  2.0531  0.4783
  717TIP3   OH223709   6.628   1.993   8.585  0.1339 -0.0489  0.4906
  717TIP3    H123710   6.645   1.934   8.511  0.9002 -0.6934  1.1555
  717TIP3    H223711   6.532   2.001   8.588  0.1041  0.1980 -0.7207
  718TIP3   OH223712   4.548   1.510   2.315  0.0005 -0.1466 -0.4514
  718TIP3    H123713   4.524   1.418   2.324 -0.5396 -0.0748 -1.0882
  718TIP3    H223714   4.624   1.510   2.256 -0.4489 -0.1331 -1.0345
  719TIP3   OH223715   2.381   4.337   2.433  0.0772 -0.0011  0.1763
  719TIP3    H123716   2.414   4.364   2.518  0.9192  0.2755 -0.2311
  719TIP3    H223717   2.287   4.358   2.436 -0.1989 -1.2694  1.5279
  720TIP3   OH223718   5.355   0.047   7.273 -0.4054 -0.4383 -0.4036
  720TIP3    H123719   5.381  -0.031   7.322  0.3329  1.5609  2.6584
  720TIP3    H223720   5.264   0.062   7.298 -0.2828  0.1335 -0.2777
  721TIP3   OH223721   3.269   3.858   7.559  0.0878 -0.2322 -0.3309
  721TIP3    H123722   3.334   3.833   7.625  1.3021 -1.1706 -1.8270
  721TIP3    H223723   3.299   3.943   7.528 -0.8791  0.5411  0.7789
  722TIP3   OH223724   0.011   3.898   8.072  0.3502 -0.3775 -0.2770
  722TIP3    H123725  -0.083   3.913   8.065  0.2741  0.7357  2.0613
  722TIP3    H223726   0.049   3.952   8.003 -0.6101  1.2792  0.4444
  723TIP3   OH223727   1.370   5.073   1.046 -0.0384 -0.4205 -0.0950
  723TIP3    H123728   1.458   5.093   1.015 -0.2231  0.9278  0.1722
  723TIP3    H223729   1.329   5.159   1.059 -1.5359 -1.0166 -0.6073
  724TIP3   OH223730   2.850   5.256   2.188  0.0211  0.1824  0.5501
  724TIP3    H123731   2.842   5.293   2.099  0.3893 -0.8979  0.0531
  724TIP3    H223732   2.943   5.236   2.197 -0.0734 -0.0184  1.0595
  725TIP3   OH223733   1.780   3.080   6.966 -0.8258 -0.0237  0.0242
  725TIP3    H123734   1.843   3.047   6.902 -0.2310 -0.3023  0.7386
  725TIP3    H223735   1.772   3.174   6.946 -0.6929 -0.1213 -0.4930
  726TIP3   OH223736   5.890   1.445   0.890 -0.3314  0.0801  0.4948
  726TIP3    H123737   5.868   1.505   0.962 -2.0702 -0.5487  0.5575
  726TIP3    H223738   5.941   1.497   0.829 -1.9680  1.7247  0.4496
  727TIP3   OH223739   3.713   4.358   0.366  0.3764  0.1111 -0.3892
  727TIP3    H123740   3.722   4.278   0.316  1.0425  0.3596 -0.6836
  727TIP3    H223741   3.698   4.426   0.301 -0.4651  0.1897 -0.1214
  728TIP3   OH223742   4.502   3.507   8.222  0.4781 -0.1548 -0.8276
  728TIP3    H123743   4.411   3.533   8.209  0.7758  1.2494 -0.2378
  728TIP3    H223744   4.500   3.449   8.298  0.4191  2.3266  1.1573
  729TIP3   OH223745   0.656   5.267   1.611  0.3178 -0.2794 -0.0009
  729TIP3    H123746   0.665   5.356   1.647 -1.0200 -0.7534  1.6164
  729TIP3    H223747   0.562   5.258   1.594  0.6508 -0.8396 -1.7031
  730TIP3   OH223748   3.395   6.311   6.805  0.3453 -0.1724  0.2307
  730TIP3    H123749   3.300   6.323   6.799  0.0231 -1.7387  1.3967
  730TIP3    H223750   3.431   6.369   6.738 -1.4877 -0.2526 -0.9008
  731TIP3   OH223751   1.904   3.284   7.760 -0.0480  0.1286  0.0669
  731TIP3    H123752   1.870   3.261   7.847  0.3259  0.7945  0.3953
  731TIP3    H223753   1.916   3.379   7.763  2.7739 -0.1750  0.3243
  732TIP3   OH223754   3.322   4.539   1.262  0.3888  0.7043  0.2334
  732TIP3    H123755   3.402   4.590   1.255 -0.2975  1.6706 -1.2083
  732TIP3    H223756   3.287   4.537   1.172 -0.4276 -0.9739  0.5397
  733TIP3   OH223757   6.735   5.859   0.099  0.1274  0.3040  0.2869
  733TIP3    H123758   6.797   5.918   0.057  0.9070 -1.6295 -1.4313
  733TIP3    H223759   6.790   5.796   0.145 -0.5407 -1.0544 -0.7209
  734TIP3   OH223760   4.294   0.900   0.642 -0.6000 -0.1918 -0.0279
  734TIP3    H123761   4.305   0.805   0.637 -1.1643 -0.2720  0.1419
  734TIP3    H223762   4.377   0.935   0.612  0.3185 -0.7577  1.6821
  735TIP3   OH223763   0.324   0.888   6.727 -0.2091 -0.4594  0.0642
  735TIP3    H123764   0.372   0.935   6.796 -0.3205  0.4301 -0.4534
  735TIP3    H223765   0.314   0.952   6.657 -0.7296 -1.1400 -0.4929
  736TIP3   OH223766   3.489   2.473   1.167  0.1542 -0.0781  0.4635
  736TIP3    H123767   3.509   2.485   1.074  2.2555 -2.0590  0.5585
  736TIP3    H223768   3.419   2.535   1.185 -0.8403 -0.1358 -2.6044
  737TIP3   OH223769   5.292   4.638   7.811  0.3310  0.3319 -0.2360
  737TIP3    H123770   5.348   4.656   7.887  2.6444 -1.4213 -1.3833
  737TIP3    H223771   5.306   4.714   7.754  1.1800  0.1627 -0.2761
  738TIP3   OH223772   2.498   5.124   7.732 -0.0439  0.3074  0.0091
  738TIP3    H123773   2.574   5.162   7.777  0.3139  0.3662 -0.6379
  738TIP3    H223774   2.532   5.044   7.691 -0.5612 -0.1766  0.5253
  739TIP3   OH223775   5.806   1.029   6.131 -0.0058 -0.9830 -0.4403
  739TIP3    H123776   5.797   0.951   6.077 -1.8618 -1.2498  0.1658
  739TIP3    H223777   5.716   1.052   6.154  0.6052  0.3811  0.7327
  740TIP3   OH223778   3.499   5.925   1.545  0.0342  0.3310  0.1026
  740TIP3    H123779   3.406   5.909   1.531  0.1223 -1.4773  1.2901
  740TIP3    H223780   3.544   5.855   1.497  0.7963  1.1361 -0.3945
  741TIP3   OH223781   3.785   3.764   0.260 -0.3465 -0.0744  0.0127
  741TIP3    H123782   3.767   3.780   0.353  0.5336 -1.5007  0.4612
  741TIP3    H223783   3.711   3.710   0.231  0.1159 -0.8823  0.2949
  742TIP3   OH223784   0.808   0.411   7.330  0.3884 -0.2864 -0.2097
  742TIP3    H123785   0.722   0.370   7.336 -0.4911  1.4955  0.1175
  742TIP3    H223786   0.815   0.464   7.409  0.6536  1.6254 -1.4447
  743TIP3   OH223787   1.495   4.521   0.506 -0.3883  0.0161  0.0963
  743TIP3    H123788   1.571   4.466   0.525 -0.1761  0.5473  0.8039
  743TIP3    H223789   1.421   4.476   0.548  0.0152  0.9849  1.9092
  744TIP3   OH223790   0.529   5.255   2.162  0.2904 -0.4953 -0.5231
  744TIP3    H123791   0.510   5.264   2.069  2.4456 -1.0661 -1.0764
  744TIP3    H223792   0.485   5.173   2.187 -0.5558 -0.1819 -0.9303
  745TIP3   OH223793   1.722   2.160   7.330 -0.3665 -0.5380 -0.3971
  745TIP3    H123794   1.720   2.130   7.421  0.7310  0.9666  0.1658
  745TIP3    H223795   1.806   2.130   7.296 -0.4241 -0.4038 -0.6628
  746TIP3   OH223796   5.392   3.792   6.555 -0.3346 -0.2234  0.4154
  746TIP3    H123797   5.378   3.744   6.474  1.1969  1.8484 -1.1819
  746TIP3    H223798   5.354   3.878   6.539 -0.8741 -0.0563  2.2905
  747TIP3   OH223799   3.098   0.445   7.607  0.1040 -0.1987  0.7202
  747TIP3    H123800   3.047   0.392   7.547 -1.2813  0.4471  1.2704
  747TIP3    H223801   3.180   0.463   7.561 -0.4322 -0.7253 -0.4603
  748TIP3   OH223802   0.538   6.675   1.398  0.2792  0.4132 -0.1109
  748TIP3    H123803   0.576   6.713   1.477 -1.6437  0.4594  0.8501
  748TIP3    H223804   0.548   6.743   1.331 -0.8926  1.6950  0.9438
  749TIP3   OH223805   2.558   0.258   1.320 -0.3366  0.3816 -0.0471
  749TIP3    H123806   2.647   0.245   1.287  0.8600  1.3966  2.4938
  749TIP3    H223807   2.503   0.255   1.242  1.9506  0.1367 -1.7690
  750TIP3   OH223808   4.125   3.811   6.686 -0.0430 -0.4454  0.3124
  750TIP3    H123809   4.089   3.873   6.749 -0.1294 -1.2141  1.0417
  750TIP3    H223810   4.163   3.742   6.740 -0.8768 -1.5467 -0.4743
  751TIP3   OH223811   1.738   5.607   7.788  0.2005  0.0932 -0.5872
  751TIP3    H123812   1.799   5.538   7.815 -0.5309 -0.5350 -0.4989
  751TIP3    H223813   1.794   5.680   7.763  0.9731 -0.2216  0.1631
  752TIP3   OH223814   4.150   0.762   8.400  0.2406  0.4546 -0.2328
  752TIP3    H123815   4.097   0.690   8.435  2.2781 -0.6196  0.8648
  752TIP3    H223816   4.211   0.719   8.339  0.2220  1.5596 -1.0636
  753TIP3   OH223817   0.737   0.453   8.524  0.0873 -0.5684  0.7642
  753TIP3    H123818   0.705   0.499   8.447 -1.8909  0.1030  1.8965
  753TIP3    H223819   0.761   0.366   8.492 -0.5599 -0.2642 -0.6317
  754TIP3   OH223820   3.120   4.811   8.559 -0.3594 -0.2875 -0.3938
  754TIP3    H123821   3.164   4.853   8.485  0.2768 -0.9620 -0.4086
  754TIP3    H223822   3.073   4.737   8.521 -0.6422 -0.1960 -0.2267
  755TIP3   OH223823   2.490   4.781   0.931  0.3538 -0.4559  0.3266
  755TIP3    H123824   2.539   4.738   1.001  2.0881  0.0849 -0.5039
  755TIP3    H223825   2.433   4.712   0.896 -0.5381 -0.7383  2.1956
  756TIP3   OH223826   6.220   4.472   8.318  0.3345 -0.2307  0.2863
  756TIP3    H123827   6.127   4.447   8.311  0.8764 -2.0794 -0.8822
  756TIP3    H223828   6.218   4.568   8.323 -1.7611 -0.2771  2.7631
  757TIP3   OH223829   6.177   3.405   2.006 -0.1939 -0.3289 -0.1340
  757TIP3    H123830   6.219   3.486   2.032  1.1080 -1.0274  0.0369
  757TIP3    H223831   6.092   3.432   1.970  1.0881  1.3003 -2.1391
  758TIP3   OH223832   2.092   2.791   8.391 -0.2379  0.1034 -0.1740
  758TIP3    H123833   2.049   2.877   8.401 -0.1729  0.1542 -0.3295
  758TIP3    H223834   2.134   2.795   8.305 -0.8493 -0.3501 -0.5028
  759TIP3   OH223835   6.144   2.570   0.202 -0.1417  0.3436 -0.2029
  759TIP3    H123836   6.132   2.657   0.240  1.2682  0.8473 -0.8549
  759TIP3    H223837   6.059   2.527   0.214 -0.6167  1.5135  0.8477
  760TIP3   OH223838   2.192   5.007   6.880  0.3854 -0.1542 -0.5406
  760TIP3    H123839   2.177   4.914   6.893 -0.2769 -0.2939 -2.1092
  760TIP3    H223840   2.213   5.016   6.787 -0.3215  1.3296 -0.6023
  761TIP3   OH223841   6.614   1.334   6.811  0.7462 -0.7277  0.0459
  761TIP3    H123842   6.646   1.368   6.728  1.7224  1.1523  1.1149
  761TIP3    H223843   6.522   1.312   6.795  0.7598  0.1339 -1.3600
  762TIP3   OH223844   5.679   4.450   0.147  0.2200 -0.3212 -0.1050
  762TIP3    H123845   5.639   4.368   0.118  1.7737 -1.5092  0.9388
  762TIP3    H223846   5.709   4.492   0.066  0.3229 -1.2922 -0.5868
  763TIP3   OH223847   4.652   2.196   6.989  0.2423 -0.0235 -0.4267
  763TIP3    H123848   4.687   2.276   6.951 -0.7627  1.9317  2.3946
  763TIP3    H223849   4.560   2.218   7.009  0.9900 -0.1950  4.2756
  764TIP3   OH223850   1.827   1.475   0.717 -0.1116 -0.5454 -0.6748
  764TIP3    H123851   1.779   1.456   0.798 -0.1036  0.7343 -0.3517
  764TIP3    H223852   1.917   1.492   0.746 -0.6000  2.3215 -0.6165
  765TIP3   OH223853   4.002   1.898   0.518 -0.6538 -0.2676  0.1812
  765TIP3    H123854   4.092   1.883   0.490  0.0600  0.2468  2.0793
  765TIP3    H223855   3.964   1.951   0.447  0.2222 -1.2867 -1.0838
  766TIP3   OH223856   0.834   0.467   1.126  0.5273  0.2496  1.0653
  766TIP3    H123857   0.794   0.381   1.117  3.4475 -1.2367  1.2620
  766TIP3    H223858   0.833   0.503   1.037 -1.3411  0.3912  1.0982
  767TIP3   OH223859   2.785   6.317   7.996  0.3685 -0.0022  0.1159
  767TIP3    H123860   2.741   6.374   8.059 -1.9931 -1.6924  0.1655
  767TIP3    H223861   2.786   6.367   7.915 -1.2884  0.3078  0.2498
  768TIP3   OH223862   6.460   4.481   6.916  0.2680 -0.3561 -0.0366
  768TIP3    H123863   6.459   4.540   6.840 -0.3885 -2.5502 -1.8517
  768TIP3    H223864   6.382   4.503   6.966 -0.3422 -0.1203 -1.0693
  769TIP3   OH223865   2.718   3.269   0.750 -0.0663  0.2814 -0.1753
  769TIP3    H123866   2.625   3.248   0.756 -0.6418  2.5121 -0.2055
  769TIP3    H223867   2.753   3.247   0.837 -0.9569  0.7529  0.3178
  770TIP3   OH223868   0.099   5.324   7.181 -0.0296 -0.2062  0.0505
  770TIP3    H123869   0.169   5.302   7.120 -1.1878 -1.3495 -0.9460
  770TIP3    H223870   0.025   5.348   7.124 -0.5541  0.6171  1.0583
  771TIP3   OH223871   4.705   1.988   8.218 -0.2112 -0.1982  0.0745
  771TIP3    H123872   4.655   1.942   8.285 -0.4607 -1.6960 -1.0835
  771TIP3    H223873   4.684   1.942   8.137  1.3030  0.5720 -0.7978
  772TIP3   OH223874   2.586   1.225   0.634 -0.4623  0.2812  0.5813
  772TIP3    H123875   2.647   1.208   0.705  0.5607 -1.0685 -0.5703
  772TIP3    H223876   2.640   1.258   0.563 -1.1157 -0.5514 -0.3281
  773TIP3   OH223877   6.867   3.422   7.378  0.0344  0.2494  0.1915
  773TIP3    H123878   6.854   3.331   7.403  0.0182  0.6862  1.8979
  773TIP3    H223879   6.949   3.422   7.328 -0.7240 -0.8879 -1.1160
  774TIP3   OH223880   1.740   5.546   8.370 -0.6969  0.0727  0.0072
  774TIP3    H123881   1.818   5.491   8.366 -0.3050  0.6295 -0.1143
  774TIP3    H223882   1.743   5.598   8.289 -2.1178 -1.1218 -0.8597
  775TIP3   OH223883   2.660   5.254   2.391 -0.0030 -0.3944  0.5470
  775TIP3    H123884   2.733   5.264   2.330  1.3629 -2.4783  1.7262
  775TIP3    H223885   2.615   5.175   2.363 -0.0186 -0.7646  1.5759
  776TIP3   OH223886   3.496   1.424   0.380 -0.6539  0.4151 -0.1568
  776TIP3    H123887   3.527   1.511   0.355 -0.8566  0.4363 -0.3428
  776TIP3    H223888   3.435   1.400   0.310  0.5493 -0.5176 -0.9293
  777TIP3   OH223889   0.461   3.916   1.880 -0.0876 -0.1183  0.3828
  777TIP3    H123890   0.439   3.839   1.828 -1.5024  1.3261 -1.2705
  777TIP3    H223891   0.388   3.924   1.942 -0.3506  0.3300  0.0183
  778TIP3   OH223892   6.381   2.101   1.237  0.3419 -0.2499 -0.1309
  778TIP3    H123893   6.472   2.128   1.226  0.3979 -0.7563 -1.0660
  778TIP3    H223894   6.333   2.182   1.251  1.1251 -0.0926  1.9476
  779TIP3   OH223895   3.171   3.785   8.517  0.3344  0.7207 -0.2086
  779TIP3    H123896   3.251   3.767   8.566 -0.7212 -0.0623  1.3275
  779TIP3    H223897   3.100   3.757   8.576 -1.0711  1.4212 -1.4919
  780TIP3   OH223898   4.206   4.498   1.562 -0.0764  0.2000  0.5521
  780TIP3    H123899   4.120   4.479   1.524 -0.7845  1.4789  1.4435
  780TIP3    H223900   4.202   4.459   1.650  0.4023 -0.0710  0.4568
  781TIP3   OH223901   6.380   4.794   2.328 -0.6064  0.0725 -0.3736
  781TIP3    H123902   6.403   4.880   2.361  0.3535  0.1937 -1.2845
  781TIP3    H223903   6.451   4.737   2.359  0.0546  0.0986 -1.7434
  782TIP3   OH223904   0.177   3.055   1.615  0.1243  0.1498  0.1445
  782TIP3    H123905   0.116   3.111   1.662 -0.2220 -1.4791  1.7435
  782TIP3    H223906   0.261   3.068   1.659  0.2191  0.0090  0.0100
  783TIP3   OH223907   1.880   1.688   8.518  0.7863  0.3567  0.5401
  783TIP3    H123908   1.938   1.757   8.549  1.2268  1.1636 -1.8951
  783TIP3    H223909   1.792   1.721   8.536  0.9955 -0.0567  2.5563
  784TIP3   OH223910   2.863   2.188   8.529  0.0838  0.0082  0.1431
  784TIP3    H123911   2.805   2.261   8.509  1.2250  1.5960  2.3224
  784TIP3    H223912   2.924   2.186   8.455 -0.4045  0.7928 -0.2984
  785TIP3   OH223913   6.279   6.659   8.580  0.2876 -0.1280 -0.3989
  785TIP3    H123914   6.289   6.564   8.567  0.9312  0.1160 -1.9130
  785TIP3    H223915   6.366   6.689   8.605  0.0548  0.0590  0.2048
  786TIP3   OH223916   6.531   0.863   1.455 -0.5062 -0.6226 -0.1305
  786TIP3    H123917   6.563   0.944   1.495 -0.5872 -0.1836 -0.9339
  786TIP3    H223918   6.508   0.807   1.530  0.3469 -0.2331  0.4446
  787TIP3   OH223919   1.792   2.399   7.053  0.1576  0.1353 -0.0200
  787TIP3    H123920   1.818   2.313   7.020  0.4927  0.5305 -0.7998
  787TIP3    H223921   1.799   2.457   6.978  0.0499  0.8743  0.5300
  788TIP3   OH223922   1.562   4.485   6.860  0.5931 -0.2868  0.1722
  788TIP3    H123923   1.629   4.548   6.888  1.8124 -2.5008  2.7047
  788TIP3    H223924   1.480   4.519   6.896  0.9235  0.7314 -0.0137
  789TIP3   OH223925   1.220   1.175   1.683  0.3357 -0.7747 -0.3549
  789TIP3    H123926   1.162   1.144   1.614 -0.9718 -0.7713  0.7063
  789TIP3    H223927   1.163   1.222   1.744  1.6309  0.2401  0.1393
  790TIP3   OH223928   5.806   1.881   1.289  0.7479 -0.2195 -0.7599
  790TIP3    H123929   5.865   1.951   1.316  2.4295 -0.9635 -2.3163
  790TIP3    H223930   5.720   1.923   1.285  1.4386  1.3331 -0.0792
  791TIP3   OH223931   3.460   5.526   8.358 -0.0224 -0.1459 -0.6732
  791TIP3    H123932   3.453   5.520   8.454  0.6283 -0.6831 -0.6547
  791TIP3    H223933   3.400   5.459   8.326 -1.7675  1.3473 -0.7045
  792TIP3   OH223934   1.225   3.584   0.263 -0.1324 -0.0413  0.2125
  792TIP3    H123935   1.241   3.664   0.214  0.5308 -0.2241  0.1237
  792TIP3    H223936   1.260   3.600   0.350 -0.8207  0.0867  0.4739
  793TIP3   OH223937   5.095   0.441   1.320 -0.3857 -0.4332 -1.0635
  793TIP3    H123938   5.072   0.478   1.405  0.4673 -1.0049 -0.5727
  793TIP3    H223939   5.011   0.419   1.280 -0.7580 -2.8945  0.8601
  794TIP3   OH223940   5.402   6.673   7.928 -0.5810 -0.0502  0.4659
  794TIP3    H123941   5.346   6.725   7.985 -2.0140  1.5949 -2.2370
  794TIP3    H223942   5.345   6.642   7.858  0.9696 -2.4081  0.1134
  795TIP3   OH223943   4.348   2.368   1.701 -0.1024  0.3185 -0.0395
  795TIP3    H123944   4.306   2.284   1.722  0.1896  0.3014  0.4854
  795TIP3    H223945   4.373   2.404   1.786  0.0274  0.8072 -0.2846
  796TIP3   OH223946   2.500   4.791   2.131 -0.1185 -0.0316  0.2026
  796TIP3    H123947   2.462   4.860   2.186  0.0176  0.5641 -0.4328
  796TIP3    H223948   2.591   4.818   2.118  0.4895 -1.3132  1.4980
  797TIP3   OH223949   4.230   4.035   2.264 -0.2262  0.4457  0.2713
  797TIP3    H123950   4.323   4.059   2.264 -0.1301  0.0836 -0.0265
  797TIP3    H223951   4.194   4.079   2.341  0.2766  0.2583  0.6192
  798TIP3   OH223952   2.414   4.278   8.507 -1.0308  0.0949 -0.0945
  798TIP3    H123953   2.434   4.188   8.533  1.2852  0.5131 -0.2283
  798TIP3    H223954   2.332   4.270   8.458 -1.7038 -1.6957  1.1829
  799TIP3   OH223955   1.428   1.810   7.696  0.3188 -0.3877 -0.1145
  799TIP3    H123956   1.383   1.893   7.681  0.6994  0.0972  1.2417
  799TIP3    H223957   1.503   1.811   7.637 -0.5378 -0.4871 -1.2326
  800TIP3   OH223958   6.785   6.506   1.451  0.1470  0.6022  0.4244
  800TIP3    H123959   6.701   6.523   1.493  0.5067  1.9256  0.6755
  800TIP3    H223960   6.774   6.540   1.362 -0.5014 -1.8759 -0.5079
  801TIP3   OH223961   2.566   4.580   7.493  0.5351 -0.1260  0.2182
  801TIP3    H123962   2.475   4.581   7.464  0.6225  1.1209 -0.0336
  801TIP3    H223963   2.574   4.497   7.542 -0.5028 -0.6326 -0.4310
  802TIP3   OH223964   0.439   6.415   7.943  0.4171 -0.2022  0.7050
  802TIP3    H123965   0.414   6.394   8.032 -0.4824 -0.7127  0.3440
  802TIP3    H223966   0.533   6.395   7.938  0.2054 -1.3341  1.1858
  803TIP3   OH223967   4.546   3.049   1.143 -0.0325  0.5516 -0.4820
  803TIP3    H123968   4.629   3.032   1.187 -0.2550 -1.5609 -0.7831
  803TIP3    H223969   4.543   2.986   1.072 -1.8901  0.5732 -0.4776
  804TIP3   OH223970   1.720   1.669   0.288 -0.3878 -0.1740  0.4148
  804TIP3    H123971   1.697   1.656   0.380 -0.9940 -1.3396  0.1142
  804TIP3    H223972   1.728   1.581   0.252  1.3148  0.2304 -0.3178
  805TIP3   OH223973   2.770   3.523   7.223 -0.4855 -0.3812 -0.4036
  805TIP3    H123974   2.815   3.484   7.298 -0.5965 -0.4003 -0.3469
  805TIP3    H223975   2.836   3.524   7.154  0.7547  2.8092  0.6619
  806TIP3   OH223976   4.657   2.543   0.168 -0.1500 -0.7503 -0.3755
  806TIP3    H123977   4.656   2.459   0.123  0.9756 -0.2976 -1.3104
  806TIP3    H223978   4.677   2.607   0.100  1.2878  0.0073  0.6898
  807TIP3   OH223979   1.600   0.461   2.133 -0.4106 -0.1441 -0.6741
  807TIP3    H123980   1.590   0.546   2.175 -2.7253 -0.3130 -0.7153
  807TIP3    H223981   1.654   0.411   2.194  1.1289  1.3699 -0.7322
  808TIP3   OH223982   2.271   6.667   6.975 -0.4156 -0.5346  0.7988
  808TIP3    H123983   2.244   6.691   7.063 -1.6992 -0.4788  0.4099
  808TIP3    H223984   2.259   6.572   6.971  0.6677 -0.6907  1.0127
  809TIP3   OH223985   6.223   3.154   7.792  0.4746  0.2708  0.2025
  809TIP3    H123986   6.172   3.085   7.749  1.6105  0.5583 -1.7734
  809TIP3    H223987   6.304   3.159   7.740  0.8912  2.3454  0.9480
  810TIP3   OH223988   5.516   3.178   6.231  0.3607  0.1646 -0.0413
  810TIP3    H123989   5.582   3.231   6.188  0.6795  1.5234  1.9961
  810TIP3    H223990   5.449   3.240   6.258 -1.2234 -1.0338 -0.9990
  811TIP3   OH223991   5.851   2.257   0.194 -0.2160 -0.2905 -0.3603
  811TIP3    H123992   5.792   2.184   0.178  0.1497 -0.5424 -0.5980
  811TIP3    H223993   5.926   2.240   0.137 -0.4487  0.6657 -0.9841
  812TIP3   OH223994   4.987   3.550   1.841 -0.1381 -0.3534  0.3770
  812TIP3    H123995   5.013   3.483   1.903 -0.8595 -0.0575  1.0201
  812TIP3    H223996   4.968   3.627   1.895  2.2238  0.9088 -0.4595
  813TIP3   OH223997   2.585   6.452   0.445 -0.1229 -0.3277 -0.5297
  813TIP3    H123998   2.511   6.486   0.496 -0.3969 -1.4933 -0.1373
  813TIP3    H223999   2.553   6.453   0.355 -0.9965 -1.7119 -0.2700
  814TIP3   OH224000   6.657   6.229   2.260  0.2246  0.1973 -0.2124
  814TIP3    H124001   6.604   6.158   2.224 -2.3331  1.1307  1.4356
  814TIP3    H224002   6.602   6.307   2.247  2.0750  1.5678 -0.1396
  815TIP3   OH224003   2.596   3.687   1.198 -0.7639  0.1449  0.3534
  815TIP3    H124004   2.515   3.639   1.181 -0.6328 -0.8132  2.1861
  815TIP3    H224005   2.634   3.644   1.275  0.7501  1.4975  0.4226
  816TIP3   OH224006   6.865   2.997   0.019 -0.0822 -0.0830  0.3334
  816TIP3    H124007   6.932   2.940   0.057  0.5297 -0.7816 -1.6718
  816TIP3    H224008   6.876   2.987  -0.075 -0.9774  2.1867 -0.0820
  817TIP3   OH224009   3.227   5.646   0.403  0.1105 -0.1437 -0.1145
  817TIP3    H124010   3.229   5.678   0.313  1.5303  0.4140  0.0783
  817TIP3    H224011   3.164   5.575   0.402 -0.6430  0.5069 -1.3217
  818TIP3   OH224012   1.604   0.764   1.653 -0.5069 -0.7387  0.2902
  818TIP3    H124013   1.617   0.693   1.716  0.3331  0.2223  1.2394
  818TIP3    H224014   1.526   0.810   1.685 -0.2609 -0.4388  0.4720
  819TIP3   OH224015   6.659   1.640   0.079  0.4047  0.2001  0.1524
  819TIP3    H124016   6.635   1.591   0.158 -0.8977  0.4269 -0.0902
  819TIP3    H224017   6.586   1.700   0.064  0.9534  0.6480 -0.8398
  820TIP3   OH224018   6.352   1.179   8.557 -0.1707  0.0286 -0.1662
  820TIP3    H124019   6.370   1.128   8.478 -2.3328 -2.0938  0.5729
  820TIP3    H224020   6.283   1.240   8.531  1.0883  1.3303 -0.5676
  821TIP3   OH224021   0.460   6.503   7.437  0.9519  0.4594  0.3890
  821TIP3    H124022   0.374   6.543   7.452  1.2142  1.0357  0.3744
  821TIP3    H224023   0.459   6.480   7.344  0.0404 -1.4083  0.8275
  822TIP3   OH224024   2.952   0.690   0.867  0.0338 -0.5082 -0.0674
  822TIP3    H124025   2.928   0.756   0.933 -0.1525  0.0369 -0.6724
  822TIP3    H224026   3.038   0.659   0.895  0.1303 -0.0024  0.2187
  823TIP3   OH224027   0.530   2.028   7.723  0.3318 -0.0355 -0.1588
  823TIP3    H124028   0.579   1.987   7.652 -0.5716 -3.0844  0.8453
  823TIP3    H224029   0.439   2.024   7.694  0.1304  0.3643  0.4186
  824TIP3   OH224030   3.837   2.182   1.571  0.2762 -0.3301  0.0572
  824TIP3    H124031   3.867   2.272   1.582  0.0783 -0.0419 -1.5466
  824TIP3    H224032   3.905   2.140   1.519  0.6292 -1.2817  1.2464
  825TIP3   OH224033   5.359   0.497   7.810  0.2146  0.4023  0.1915
  825TIP3    H124034   5.323   0.422   7.763 -0.5716  1.3859 -0.8399
  825TIP3    H224035   5.452   0.495   7.790 -0.1649  1.0915 -1.9457
  826TIP3   OH224036   4.374   3.814   7.591  0.5084 -0.5366  0.1064
  826TIP3    H124037   4.383   3.740   7.531 -1.7240  0.0744 -1.0570
  826TIP3    H224038   4.282   3.815   7.614  0.2756  2.4092 -0.6046
  827TIP3   OH224039   2.446   3.040   7.615 -0.0661 -0.2475 -0.3315
  827TIP3    H124040   2.415   2.966   7.563 -0.4220 -0.4981  0.2293
  827TIP3    H224041   2.483   3.101   7.550 -1.7683  0.0907 -1.0273
  828TIP3   OH224042   2.736   6.040   7.985 -0.3448  0.0375  0.0734
  828TIP3    H124043   2.744   6.134   7.967 -1.6827 -0.0950 -1.4908
  828TIP3    H224044   2.815   6.002   7.948 -0.4147  0.4132 -0.4798
  829TIP3   OH224045   2.162   0.757   1.468  0.2483 -0.0643  0.3408
  829TIP3    H124046   2.191   0.706   1.544  2.0392  0.0226 -0.2425
  829TIP3    H224047   2.205   0.841   1.478 -1.4261  0.8202  0.4537
  830TIP3   OH224048   6.149   1.947   2.069 -0.0270 -0.1569  0.2195
  830TIP3    H124049   6.103   2.008   2.128  0.9145  1.6071 -0.7910
  830TIP3    H224050   6.098   1.950   1.988  0.3735 -0.2498 -0.0343
  831TIP3   OH224051   1.443   3.717   7.177  0.7762  0.3615 -0.7824
  831TIP3    H124052   1.479   3.805   7.192  0.5309  0.5005 -1.0016
  831TIP3    H224053   1.518   3.659   7.190  0.9224  0.5962 -0.5538
  832TIP3   OH224054   2.076   1.886   8.604 -0.4825  0.1737  0.1990
  832TIP3    H124055   1.999   1.939   8.622 -0.2138  0.6347  0.0017
  832TIP3    H224056   2.110   1.862   8.691 -0.4441  0.5574  0.2910
  833TIP3   OH224057   1.389   4.970   2.422 -0.3145  0.0494 -0.4917
  833TIP3    H124058   1.411   4.906   2.353 -1.9244 -0.2758 -0.7676
  833TIP3    H224059   1.471   5.013   2.443  0.6985 -1.6249 -0.8170
  834TIP3   OH224060   4.953   1.865   1.215 -0.4139 -0.7605  0.4156
  834TIP3    H124061   4.960   1.825   1.301 -2.5308  1.1736  1.6068
  834TIP3    H224062   4.878   1.924   1.222  1.0646  1.6370 -1.8621
  835TIP3   OH224063   5.892   6.724   8.055 -0.2192  0.5650  0.4659
  835TIP3    H124064   5.842   6.767   8.124  1.6980  1.2097  1.5067
  835TIP3    H224065   5.960   6.787   8.031 -0.3499  0.0339 -1.4778
  836TIP3   OH224066   2.287   5.541   2.424  0.2089  0.2613  0.6123
  836TIP3    H124067   2.286   5.459   2.472 -0.1079 -0.2332 -0.2056
  836TIP3    H224068   2.198   5.575   2.433  0.7908  1.4290  2.4245
  837TIP3   OH224069   0.888   3.260   7.431 -0.3432 -0.2803  0.3103
  837TIP3    H124070   0.801   3.300   7.426 -0.1402  0.0525 -1.0257
  837TIP3    H224071   0.902   3.221   7.345  1.3985  0.9173 -0.0208
  838TIP3   OH224072   0.533   6.624   0.247  0.1328 -0.0062  0.7044
  838TIP3    H124073   0.501   6.702   0.291 -1.6895 -1.8121  2.8510
  838TIP3    H224074   0.593   6.584   0.310  0.0693 -0.9745  0.1704
  839TIP3   OH224075   4.567   3.717   2.365 -0.5685 -0.0853 -0.0211
  839TIP3    H124076   4.473   3.700   2.375 -0.5017 -1.1668 -1.0713
  839TIP3    H224077   4.598   3.730   2.454 -1.3153 -1.9100  0.5490
  840TIP3   OH224078   2.145   2.728   6.118  0.3203  0.1011  0.0099
  840TIP3    H124079   2.125   2.644   6.160  1.9412 -0.5352 -0.4091
  840TIP3    H224080   2.226   2.757   6.161  0.9878  0.3571 -1.3555
  841TIP3   OH224081   5.066   4.395   1.592  0.2673  0.8458 -0.6523
  841TIP3    H124082   5.047   4.487   1.572  1.2494  1.5840  1.5838
  841TIP3    H224083   5.143   4.375   1.539 -0.1857  1.1678 -1.4565
  842TIP3   OH224084   5.540   2.710   8.184  0.2856  0.9682 -0.3770
  842TIP3    H124085   5.562   2.710   8.277  0.7009 -2.3572 -0.3430
  842TIP3    H224086   5.606   2.767   8.144  1.4756  0.6992  1.1119
  843TIP3   OH224087   6.445   1.128   2.110 -0.1374 -0.0993  1.1901
  843TIP3    H124088   6.518   1.150   2.167  1.1972 -0.1888 -0.3917
  843TIP3    H224089   6.401   1.212   2.094  0.5053  0.2169  1.0267
  844TIP3   OH224090   1.660   0.082   6.389 -0.3376  1.0313 -0.2140
  844TIP3    H124091   1.736   0.104   6.444  0.1167  1.5233 -1.0087
  844TIP3    H224092   1.673   0.134   6.310 -0.6952 -0.0702 -1.0163
  845TIP3   OH224093   1.373   2.561   2.155 -0.4236 -0.1003  0.1124
  845TIP3    H124094   1.324   2.634   2.192 -0.3566  0.1494 -0.2789
  845TIP3    H224095   1.401   2.593   2.069 -0.0411 -0.4386  0.1113
  846TIP3   OH224096   4.680   1.934   6.900 -0.2013 -0.3014 -0.5925
  846TIP3    H124097   4.676   2.024   6.933 -0.4693 -0.7298  0.5878
  846TIP3    H224098   4.770   1.905   6.918 -0.6722 -0.9334  0.9160
  847TIP3   OH224099   6.371   4.245   6.559  0.5666 -0.4530  0.0413
  847TIP3    H124100   6.334   4.174   6.612 -1.0612  1.1104  1.1094
  847TIP3    H224101   6.460   4.256   6.591  0.1154 -0.5941  1.3935
  848TIP3   OH224102   0.776   6.301   1.179  0.1642  0.0999  0.0657
  848TIP3    H124103   0.852   6.244   1.188  0.8394  1.1101  1.0059
  848TIP3    H224104   0.739   6.306   1.267 -0.8042 -0.1070 -0.3152
  849TIP3   OH224105   3.883   2.771   8.025 -0.0610 -0.8571  0.0597
  849TIP3    H124106   3.914   2.845   8.077 -0.1212 -1.3098  0.7645
  849TIP3    H224107   3.958   2.748   7.969 -0.2747  0.1536 -0.6635
  850TIP3   OH224108   3.792   1.119   1.243  0.0202  0.0173  0.3347
  850TIP3    H124109   3.781   1.112   1.149 -1.7946  2.4696  0.2568
  850TIP3    H224110   3.881   1.154   1.254  0.6263 -1.2481 -0.3513
  851TIP3   OH224111   0.140   4.192   2.241 -0.1327  0.0211 -0.0421
  851TIP3    H124112   0.051   4.164   2.261  0.6671 -2.2040  0.7622
  851TIP3    H224113   0.146   4.281   2.275 -1.6810 -0.2256  0.9511
  852TIP3   OH224114   0.654   0.235   6.461  1.1022 -0.5945 -0.9359
  852TIP3    H124115   0.728   0.227   6.522  0.0156 -0.8333  0.4010
  852TIP3    H224116   0.604   0.154   6.474 -0.8862  0.7337  0.2660
  853TIP3   OH224117   6.125   1.400   6.879 -0.1714  0.3926  0.8151
  853TIP3    H124118   6.039   1.438   6.893 -0.4600  0.2630 -0.4719
  853TIP3    H224119   6.122   1.316   6.925 -0.8001  0.2928  0.5925
  854TIP3   OH224120   2.108   4.601   6.366 -0.0044 -0.9017 -0.0555
  854TIP3    H124121   2.058   4.568   6.441 -1.2761  0.3677 -0.2965
  854TIP3    H224122   2.122   4.694   6.387  1.4470 -1.0101 -0.4527
  855TIP3   OH224123   6.062   4.943   6.742 -0.1768  0.2248  0.8350
  855TIP3    H124124   6.078   4.973   6.653  1.6809 -1.0022  0.6961
  855TIP3    H224125   6.138   4.888   6.763 -1.9716 -1.9190  2.1119
  856TIP3   OH224126   6.646   0.948   6.607  0.2695  0.4570  0.1692
  856TIP3    H124127   6.717   1.011   6.597 -0.5417  1.2440 -0.9042
  856TIP3    H224128   6.603   0.946   6.521  1.0445 -2.5435 -0.2526
  857TIP3   OH224129   4.683   0.271   0.063  0.0011 -0.1726  0.0460
  857TIP3    H124130   4.724   0.186   0.079  2.0474  0.8924  0.8051
  857TIP3    H224131   4.754   0.326   0.030 -1.1345  1.4129  0.1626
  858TIP3   OH224132   3.459   0.806   0.128 -0.3046 -0.4107 -0.2766
  858TIP3    H124133   3.364   0.809   0.134 -0.3332 -1.0985 -0.2931
  858TIP3    H224134   3.484   0.893   0.097 -0.7945  0.2957  1.2501
  859TIP3   OH224135   1.264   5.687   7.842 -0.2789 -0.3638 -0.2968
  859TIP3    H124136   1.346   5.662   7.884 -0.9259 -0.9053  0.6773
  859TIP3    H224137   1.252   5.778   7.866  0.0675 -0.2659 -0.4892
  860TIP3   OH224138   2.754   3.909   0.077  0.0368 -0.3664 -0.3694
  860TIP3    H124139   2.814   3.893   0.150 -1.0206 -1.6090  0.2738
  860TIP3    H224140   2.804   3.963   0.015  2.3102 -2.4937 -0.5133
  861TIP3   OH224141   0.717   0.433   6.280  0.7909  0.1987  0.0239
  861TIP3    H124142   0.731   0.354   6.333  1.2147 -0.5319 -1.1368
  861TIP3    H224143   0.630   0.420   6.242  0.7057  0.4703  0.1286
  862TIP3   OH224144   2.812   5.147   1.447  0.0907 -0.0780  0.1482
  862TIP3    H124145   2.739   5.143   1.508 -0.7204  3.6462 -0.3477
  862TIP3    H224146   2.860   5.065   1.461 -3.8472 -2.5480  0.7897
  863TIP3   OH224147   6.640   0.940   0.684  0.3164  0.6980  0.1275
  863TIP3    H124148   6.682   0.855   0.693 -1.2923 -0.1102  0.3551
  863TIP3    H224149   6.651   0.964   0.592 -0.2976 -0.3595 -0.2321
  864TIP3   OH224150   6.849   4.222   0.228  0.6880 -0.0525  0.4933
  864TIP3    H124151   6.787   4.158   0.193  1.2097 -0.3590  0.0995
  864TIP3    H224152   6.806   4.259   0.304 -0.6050  0.8075 -0.6050
  865TIP3   OH224153   5.322   2.129   7.759 -0.1318  0.1656 -0.6814
  865TIP3    H124154   5.258   2.153   7.826  0.2758  0.0264 -0.2354
  865TIP3    H224155   5.406   2.128   7.805 -0.0061 -1.1779 -0.8881
  866TIP3   OH224156   3.731   0.067   0.594 -0.5386  0.0512 -0.5093
  866TIP3    H124157   3.799   0.122   0.556 -0.8938  0.5441 -0.4392
  866TIP3    H224158   3.689   0.122   0.660  0.4929 -1.0060  1.0713
  867TIP3   OH224159   6.809   0.245   8.554  0.0083 -0.0864 -0.2078
  867TIP3    H124160   6.789   0.308   8.623  0.9939  0.9895 -0.8820
  867TIP3    H224161   6.833   0.165   8.601 -0.0292  0.4068  0.6737
  868TIP3   OH224162   2.328   2.220   8.581  0.0287 -0.0907  0.2362
  868TIP3    H124163   2.310   2.255   8.494 -0.4863  0.7617  0.6587
  868TIP3    H224164   2.241   2.213   8.622  0.1453 -1.6180  0.2849
  869TIP3   OH224165   4.428   3.696   8.467 -0.6654  0.0520  0.1165
  869TIP3    H124166   4.429   3.733   8.555 -1.3525  0.5524 -0.0775
  869TIP3    H224167   4.441   3.602   8.481  0.6417  0.2989  0.6367
  870TIP3   OH224168   0.272   6.647   1.799  0.4011  0.4340 -0.2178
  870TIP3    H124169   0.270   6.623   1.892 -0.8811  0.5424 -0.1995
  870TIP3    H224170   0.349   6.703   1.791  0.4722  0.5054  0.7991
  871TIP3   OH224171   2.232   5.044   1.877 -0.4464 -0.0574 -0.1109
  871TIP3    H124172   2.190   5.130   1.877 -2.3949 -0.9610 -1.1552
  871TIP3    H224173   2.221   5.011   1.966  0.6687  0.8903  0.4117
  872TIP3   OH224174   1.090   2.878   8.661  0.2158 -0.0559 -0.0818
  872TIP3    H124175   1.152   2.845   8.726  0.4881 -0.0663 -0.3437
  872TIP3    H224176   1.103   2.973   8.662 -1.2258  0.1666  1.3448
  873TIP3   OH224177   4.459   6.731   1.290  0.3384  0.6122 -0.1011
  873TIP3    H124178   4.431   6.822   1.286  1.7719  1.3657  3.6994
  873TIP3    H224179   4.377   6.682   1.304 -0.2055  1.5870  0.2281
  874TIP3   OH224180   0.065   0.462   0.758 -0.4184  0.0891 -0.5294
  874TIP3    H124181   0.119   0.388   0.786 -2.1584  0.0115  3.0890
  874TIP3    H224182   0.118   0.539   0.778 -0.2489 -0.0738 -0.3453
  875TIP3   OH224183   4.198   5.495   1.801  0.7949  0.3949  0.0909
  875TIP3    H124184   4.146   5.418   1.823  0.2161 -0.0701 -2.5868
  875TIP3    H224185   4.223   5.482   1.709  1.4199  2.9879 -0.1778
  876TIP3   OH224186   4.026   3.768   6.434 -0.8180 -0.4955  0.2879
  876TIP3    H124187   4.014   3.674   6.420 -1.4673 -0.1040 -2.4393
  876TIP3    H224188   4.065   3.775   6.521  0.6270 -3.3836 -0.0024
  877TIP3   OH224189   0.286   2.746   2.062  0.2414  0.6607 -0.1957
  877TIP3    H124190   0.282   2.833   2.024  1.7237  1.0640  0.4881
  877TIP3    H224191   0.338   2.695   2.000 -0.4156  0.3065 -0.4728
  878TIP3   OH224192   6.334   2.554   0.445 -0.2547 -0.0744  0.1983
  878TIP3    H124193   6.254   2.518   0.406 -0.6066  1.0741 -0.1827
  878TIP3    H224194   6.307   2.581   0.533  0.5297 -2.6247  1.3229
  879TIP3   OH224195   5.823   3.083   7.827  0.2555 -0.5617 -0.1796
  879TIP3    H124196   5.783   3.124   7.750  1.9360 -0.7257 -1.1934
  879TIP3    H224197   5.818   3.151   7.895  1.0997  0.5893 -1.2222
  880TIP3   OH224198   0.353   5.207   2.519 -0.0086 -0.7214 -0.2265
  880TIP3    H124199   0.335   5.297   2.546 -1.6177 -1.3724  0.9877
  880TIP3    H224200   0.400   5.169   2.593 -0.0389 -1.1077 -0.4062
  881TIP3   OH224201   5.287   1.747   1.346  0.4772  0.2795 -0.1889
  881TIP3    H124202   5.280   1.678   1.280  0.7279  0.5772 -0.5317
  881TIP3    H224203   5.202   1.789   1.346  0.3066 -0.0587  0.0569
  882TIP3   OH224204   2.857   1.093   2.127 -0.5100 -1.1974  0.6671
  882TIP3    H124205   2.781   1.093   2.069  0.3128 -0.8507 -0.4344
  882TIP3    H224206   2.911   1.166   2.096  1.5917 -3.0825 -0.3567
  883TIP3   OH224207   2.338   5.764   8.438 -0.7021  0.3414 -0.5226
  883TIP3    H124208   2.430   5.768   8.411 -0.8219  2.6895 -0.8299
  883TIP3    H224209   2.291   5.738   8.359 -0.3518 -0.5245 -0.4558
  884TIP3   OH224210   2.959   3.061   1.986 -0.1599 -0.0792 -0.3769
  884TIP3    H124211   2.941   3.141   2.036 -1.4087 -0.1487 -0.6708
  884TIP3    H224212   3.034   3.021   2.030  0.3627  1.1501 -0.1090
  885TIP3   OH224213   4.103   1.017   0.480  0.0661  0.1811  0.0992
  885TIP3    H124214   4.156   0.962   0.538 -0.1639 -1.7263 -1.3876
  885TIP3    H224215   4.121   0.984   0.392 -1.3572  1.4387 -0.7194
  886TIP3   OH224216   3.475   1.697   8.657  0.0202 -0.0952 -0.1712
  886TIP3    H124217   3.405   1.673   8.596 -0.6469  2.4237 -0.5188
  886TIP3    H224218   3.429   1.728   8.735  0.6339  2.3275 -0.6899
  887TIP3   OH224219   6.080   5.071   0.380 -0.4402 -0.9297 -0.2381
  887TIP3    H124220   6.069   5.076   0.285  0.8702  0.6490 -0.3713
  887TIP3    H224221   6.003   5.114   0.416 -0.3825 -0.4687 -0.6565
  888TIP3   OH224222   6.819   0.547   1.577 -0.1726  0.5121 -0.2155
  888TIP3    H124223   6.759   0.473   1.580 -0.3141  0.6651  1.9157
  888TIP3    H224224   6.778   0.613   1.633  1.7002  0.8251  0.8487
  889TIP3   OH224225   4.250   0.203   7.749 -0.0533 -0.6148 -0.2713
  889TIP3    H124226   4.167   0.234   7.783  1.2190  0.7179  1.8852
  889TIP3    H224227   4.275   0.269   7.683 -0.7014 -1.0551 -0.9718
  890TIP3   OH224228   6.595   1.339   0.560 -0.1079 -0.2535  0.2499
  890TIP3    H124229   6.625   1.284   0.633 -0.3359  0.1233  0.6330
  890TIP3    H224230   6.499   1.336   0.566 -0.1254 -0.1733  0.0006
  891TIP3   OH224231   5.409   1.563   0.637 -0.4156 -0.1049  0.0435
  891TIP3    H124232   5.337   1.617   0.603 -0.6990  0.6149  1.6711
  891TIP3    H224233   5.446   1.616   0.708  3.2709  0.6030 -2.1932
  892TIP3   OH224234   5.775   1.102   0.435  0.3947 -0.0024 -0.1192
  892TIP3    H124235   5.745   1.193   0.434  3.5149  1.1112 -0.7590
  892TIP3    H224236   5.713   1.056   0.378 -0.7875  1.8480 -0.4215
  893TIP3   OH224237   6.750   5.472   1.904  0.3655 -0.5466  0.1767
  893TIP3    H124238   6.655   5.482   1.896  0.4644  0.9337  0.4565
  893TIP3    H224239   6.782   5.561   1.918  1.7684 -1.0630  0.4411
  894TIP3   OH224240   2.995   3.572   7.067  0.0336  0.2667 -0.4574
  894TIP3    H124241   3.001   3.590   7.161 -1.7360  0.7745 -0.4252
  894TIP3    H224242   3.080   3.600   7.033 -1.0001  5.0604  0.2118
  895TIP3   OH224243   0.797   0.949   7.097  0.6596 -0.7498 -0.6406
  895TIP3    H124244   0.814   1.033   7.140 -0.2553 -2.1440  2.7819
  895TIP3    H224245   0.704   0.952   7.074  0.6008 -0.8567 -0.4191
  896TIP3   OH224246   6.323   1.241   1.701  0.4441 -0.3960 -0.3033
  896TIP3    H124247   6.363   1.319   1.661 -1.3330  0.6503 -0.1474
  896TIP3    H224248   6.237   1.270   1.729  0.4558 -1.9335  1.5418
  897TIP3   OH224249   1.671   3.474   1.357  0.2043  0.4906 -0.1413
  897TIP3    H124250   1.640   3.491   1.446  1.6906  4.0797 -0.1258
  897TIP3    H224251   1.592   3.480   1.302 -0.3696  0.7527  0.6972
  898TIP3   OH224252   2.677   0.552   1.622  0.1251 -0.8467  0.0259
  898TIP3    H124253   2.646   0.543   1.713  0.7268 -2.7250  0.0973
  898TIP3    H224254   2.758   0.602   1.630 -0.3065 -0.1920  0.4116
  899TIP3   OH224255   3.841   3.496   1.354  0.5451  0.2650  0.5651
  899TIP3    H124256   3.793   3.467   1.431  0.5876 -3.0106 -0.4904
  899TIP3    H224257   3.919   3.440   1.351  0.2678 -0.1108 -2.0726
  900TIP3   OH224258   5.800   3.056   8.266  0.0713  0.6289 -0.8594
  900TIP3    H124259   5.869   3.102   8.217  1.2372 -1.3791 -1.2254
  900TIP3    H224260   5.847   3.009   8.335 -0.9982 -0.3687 -0.7772
  901TIP3   OH224261   5.138   2.723   8.117  0.0937 -0.4478  0.6908
  901TIP3    H124262   5.218   2.739   8.067 -0.0197 -2.8925 -0.3928
  901TIP3    H224263   5.071   2.706   8.051 -1.0049  0.0649  1.6298
  902TIP3   OH224264   3.498   3.865   1.330 -0.1618  0.8661  0.8659
  902TIP3    H124265   3.541   3.950   1.346  1.0297  0.2038  1.3230
  902TIP3    H224266   3.568   3.810   1.294 -1.7753  1.1548 -3.2273
  903TIP3   OH224267   3.292   0.775   0.834 -0.1079  0.1499  0.2042
  903TIP3    H124268   3.295   0.681   0.817  0.1902  0.4665 -1.6198
  903TIP3    H224269   3.249   0.782   0.920  0.0891 -1.6429  0.4878
  904TIP3   OH224270   0.030   1.774   0.204  0.1591  0.0477  0.1016
  904TIP3    H124271   0.095   1.841   0.183  1.0618 -1.1074 -0.9257
  904TIP3    H224272  -0.004   1.746   0.119  0.7102 -1.6665  0.4233
  905TIP3   OH224273   3.412   2.896   1.167 -0.1121  0.0977  0.7890
  905TIP3    H124274   3.399   2.963   1.100  0.1932 -0.3681  0.2586
  905TIP3    H224275   3.389   2.939   1.249  2.6958  1.7097  0.8279
  906TIP3   OH224276   1.619   3.674   7.508 -0.6930 -0.0211  0.3625
  906TIP3    H124277   1.679   3.733   7.462 -0.3001  0.6844  1.7285
  906TIP3    H224278   1.535   3.721   7.507 -1.0297 -0.6226 -0.8007
  907TIP3   OH224279   2.959   3.583   0.761 -0.4398 -0.5198  0.3583
  907TIP3    H124280   2.977   3.493   0.732 -2.1965 -0.5542 -0.7767
  907TIP3    H224281   2.907   3.572   0.841 -0.9736 -0.5390  0.0150
  908TIP3   OH224282   2.540   3.542   8.281  0.1786  0.5227  0.4002
  908TIP3    H124283   2.585   3.571   8.202  0.1742  0.3720  0.3421
  908TIP3    H224284   2.607   3.496   8.332 -0.0146 -0.0767  0.1160
  909TIP3   OH224285   1.880   4.390   8.640 -0.1102  0.5028  0.0212
  909TIP3    H124286   1.936   4.455   8.598  0.8652 -1.0312 -1.1475
  909TIP3    H224287   1.933   4.356   8.713 -0.5032  0.8087  0.4527
  910TIP3   OH224288   2.596   1.822   1.057  0.3501  0.0030 -0.1811
  910TIP3    H124289   2.594   1.917   1.045 -1.5565 -0.0674 -0.7149
  910TIP3    H224290   2.548   1.807   1.138  1.5359 -0.4590  0.4516
  911TIP3   OH224291   1.124   4.045   1.481 -0.2963 -0.0750  0.1245
  911TIP3    H124292   1.074   4.122   1.506 -0.1908  0.4099 -1.0848
  911TIP3    H224293   1.163   4.068   1.397  2.3248 -0.2595  1.1935
  912TIP3   OH224294   5.843   1.112   8.077 -0.1406  0.1246 -0.0975
  912TIP3    H124295   5.766   1.071   8.038  1.3370 -1.9363 -0.9775
  912TIP3    H224296   5.906   1.118   8.006  1.2435 -0.1360  1.0620
  913TIP3   OH224297   2.014   4.963   1.193  0.1938  0.5572 -0.6803
  913TIP3    H124298   1.959   5.031   1.155 -0.7316  0.1172 -0.1701
  913TIP3    H224299   2.000   4.887   1.137 -0.6401  0.1066  0.1126
  914TIP3   OH224300   4.978   0.796   7.913 -0.0428 -0.2232  0.2546
  914TIP3    H124301   4.966   0.702   7.916 -0.4359 -0.1600  0.7155
  914TIP3    H224302   5.039   0.815   7.985 -1.4548  0.0909  1.4000
  915TIP3   OH224303   2.532   5.332   7.360 -0.2877 -0.1482  0.1586
  915TIP3    H124304   2.494   5.361   7.443  0.9306 -0.6420  0.9166
  915TIP3    H224305   2.527   5.237   7.362 -0.2630 -0.1647 -0.3486
  916TIP3   OH224306   5.664   0.265   0.824  0.0085 -0.4132 -0.1596
  916TIP3    H124307   5.627   0.237   0.907 -1.9214 -2.3337 -1.5668
  916TIP3    H224308   5.659   0.188   0.768  1.7976  0.6477 -1.9007
  917TIP3   OH224309   2.606   6.081   0.288  0.1424 -0.1641  0.9699
  917TIP3    H124310   2.593   6.020   0.216  0.6312  0.4490  0.3459
  917TIP3    H224311   2.518   6.103   0.317 -0.1308  0.8269 -0.5134
  918TIP3   OH224312   4.422   3.432   0.332  0.4984 -0.7405  0.5681
  918TIP3    H124313   4.347   3.428   0.272  1.9668 -0.0251 -1.4304
  918TIP3    H224314   4.434   3.342   0.361 -0.9868 -0.9032  0.7620
  919TIP3   OH224315   2.144   5.156   8.410  0.0052 -0.2804 -0.1845
  919TIP3    H124316   2.141   5.097   8.486  0.2583 -0.4639 -0.3186
  919TIP3    H224317   2.229   5.139   8.370 -0.4286 -0.7122 -0.9368
  920TIP3   OH224318   3.222   1.906   6.966  0.5387  0.0714  0.7564
  920TIP3    H124319   3.308   1.864   6.963 -0.2577 -1.7511  1.3664
  920TIP3    H224320   3.165   1.847   6.916 -0.0155  2.2603 -1.3631
  921TIP3   OH224321   4.380   4.644   7.284  0.3459  0.5082  0.0469
  921TIP3    H124322   4.321   4.589   7.336  1.6314 -0.6162  0.4022
  921TIP3    H224323   4.323   4.692   7.225 -0.8775 -0.9797 -0.0525
  922TIP3   OH224324   4.198   5.402   0.215 -0.2426  0.1359  0.6722
  922TIP3    H124325   4.130   5.411   0.148  0.4816 -0.5391 -0.1708
  922TIP3    H224326   4.280   5.417   0.168  0.2700 -0.1971  1.4457
  923TIP3   OH224327   0.052   0.136   6.521  0.0051 -0.0686 -0.8760
  923TIP3    H124328   0.013   0.050   6.537  0.1988 -0.4072 -2.0599
  923TIP3    H224329   0.146   0.120   6.525  0.0779 -0.2510 -2.4914
  924TIP3   OH224330   6.361   3.937   7.181  0.4616 -0.8745  0.4311
  924TIP3    H124331   6.368   4.032   7.172 -0.9783 -0.6810  0.9854
  924TIP3    H224332   6.433   3.902   7.128  0.5170  0.4961 -0.4597
  925TIP3   OH224333   4.372   5.751   7.568 -0.4374 -0.1786 -0.6049
  925TIP3    H124334   4.294   5.741   7.622  0.1439  0.0782  0.3160
  925TIP3    H224335   4.339   5.782   7.484 -1.2345  1.1216  0.1515
  926TIP3   OH224336   1.588   5.314   8.246 -0.1187 -0.5236  0.6236
  926TIP3    H124337   1.586   5.365   8.326  4.6840  1.1969  0.0084
  926TIP3    H224338   1.616   5.227   8.274  0.3367 -0.2699  0.9819
  927TIP3   OH224339   2.948   4.998   1.958  0.5334 -0.0076 -0.3413
  927TIP3    H124340   2.967   5.089   1.935 -0.8021 -0.1845 -2.4904
  927TIP3    H224341   3.024   4.949   1.927  1.0312  0.3046  0.3639
  928TIP3   OH224342   6.043   0.985   0.340 -0.0647 -0.5622 -0.6616
  928TIP3    H124343   6.064   1.048   0.272 -0.4828 -0.4482 -0.6874
  928TIP3    H224344   5.951   1.001   0.360 -0.2552 -1.3751 -0.8859
  929TIP3   OH224345   4.712   1.382   1.087 -0.1729  0.0380  0.9009
  929TIP3    H124346   4.719   1.464   1.137 -0.7149 -0.5413  1.9762
  929TIP3    H224347   4.794   1.336   1.105  0.3323  0.5301 -0.0786
  930TIP3   OH224348   2.066   2.091   1.168  0.5053 -0.3898  0.1109
  930TIP3    H124349   2.104   2.165   1.121  2.9297 -0.6346  1.4931
  930TIP3    H224350   1.986   2.126   1.206 -0.6625  0.2532 -2.7306
  931TIP3   OH224351   3.481   0.704   8.202  0.2885 -0.5192 -0.7561
  931TIP3    H124352   3.412   0.768   8.218  0.6153 -0.5548  1.0838
  931TIP3    H224353   3.541   0.748   8.142 -0.1396  0.4064 -0.5226
  932TIP3   OH224354   0.414   5.448   0.303 -0.0933  0.5098 -0.1672
  932TIP3    H124355   0.356   5.521   0.324  0.7612  0.9300  0.8083
  932TIP3    H224356   0.477   5.484   0.241  0.1474  0.5215  0.0838
  933TIP3   OH224357   1.556   2.522   7.844  0.3677  0.1417 -0.5545
  933TIP3    H124358   1.471   2.482   7.861  0.3729  0.2852 -0.1716
  933TIP3    H224359   1.549   2.610   7.880  1.3969 -0.5563  1.5170
  934TIP3   OH224360   4.435   1.709   7.767 -0.0043  0.3760  0.2247
  934TIP3    H124361   4.496   1.659   7.712  0.2101  1.7792 -0.8855
  934TIP3    H224362   4.437   1.664   7.851  1.4334 -0.4962 -0.2243
  935TIP3   OH224363   6.578   6.799   0.937  0.1175 -0.3689  0.2489
  935TIP3    H124364   6.559   6.842   1.021  0.3773 -0.0889  0.1655
  935TIP3    H224365   6.498   6.811   0.886 -0.4305 -1.4333  0.8173
  936TIP3   OH224366   2.226   3.812   8.420 -0.7056 -0.7390  0.0511
  936TIP3    H124367   2.266   3.726   8.431 -0.2734 -0.4436  0.8282
  936TIP3    H224368   2.188   3.809   8.332  0.0555 -1.4226 -0.2695
  937TIP3   OH224369   3.905   0.679   7.620 -0.1092  0.2087  0.0132
  937TIP3    H124370   3.948   0.724   7.693 -0.2568  1.6075 -0.7299
  937TIP3    H224371   3.834   0.737   7.595 -1.0262 -0.9981 -0.2624
  938TIP3   OH224372   2.052   5.574   0.154  0.3035 -0.2182  0.0255
  938TIP3    H124373   2.098   5.575   0.070 -1.5901 -0.2648 -1.0628
  938TIP3    H224374   2.112   5.617   0.215  0.9599  1.5669 -1.7797
  939TIP3   OH224375   0.751   4.019   7.909  0.0949 -0.3018 -0.7316
  939TIP3    H124376   0.794   4.016   7.995 -1.1455  1.1710 -0.0138
  939TIP3    H224377   0.820   3.994   7.848  1.3098 -0.3554  0.5894
  940TIP3   OH224378   0.131   3.609   8.122  0.1880 -0.0273  0.6542
  940TIP3    H124379   0.086   3.693   8.113 -0.3720 -0.3214  0.6685
  940TIP3    H224380   0.062   3.543   8.112  0.4330 -0.4689  1.7096
  941TIP3   OH224381   0.146   4.135   1.636 -0.5300 -0.5685  0.4121
  941TIP3    H124382   0.231   4.095   1.654  0.3989  1.2850  0.4824
  941TIP3    H224383   0.167   4.208   1.577 -1.9644  0.3539  1.0001
  942TIP3   OH224384   0.094   3.569   6.985  0.5726 -0.3202 -0.7244
  942TIP3    H124385   0.071   3.661   6.972 -0.8137 -0.2194  1.8530
  942TIP3    H224386   0.058   3.524   6.908 -0.8874  0.9838 -0.8409
  943TIP3   OH224387   3.576   3.063   7.977 -0.2901 -0.1286 -0.5958
  943TIP3    H124388   3.615   3.013   8.049 -0.3588 -1.0474 -1.1841
  943TIP3    H224389   3.592   3.009   7.899 -0.1919  0.8600 -1.2784
  944TIP3   OH224390   2.489   2.956   0.458 -0.0348 -0.0151 -0.7717
  944TIP3    H124391   2.464   3.045   0.431  0.9928  0.4608 -0.2228
  944TIP3    H224392   2.416   2.926   0.512 -0.4945  0.4076 -1.1496
  945TIP3   OH224393   6.345   1.922   8.033  0.1589  0.5487  0.3373
  945TIP3    H124394   6.295   1.849   7.997  0.3846  0.1954  0.7229
  945TIP3    H224395   6.432   1.885   8.049  0.3538  0.9787  0.2821
  946TIP3   OH224396   4.346   4.354   7.600 -0.1759  0.4616  0.0641
  946TIP3    H124397   4.416   4.326   7.542 -1.2769  1.9771 -2.1369
  946TIP3    H224398   4.373   4.323   7.687  2.6884  0.1279 -0.8384
  947TIP3   OH224399   2.582   2.858   6.833 -0.3938 -0.5545 -0.3039
  947TIP3    H124400   2.500   2.901   6.857  1.1108  1.8898  1.0086
  947TIP3    H224401   2.635   2.929   6.795  1.6531 -1.6326  0.3967
  948TIP3   OH224402   2.108   1.440   0.185  0.0933  0.7087 -0.1139
  948TIP3    H124403   2.175   1.495   0.225 -0.2584  0.3930  0.9527
  948TIP3    H224404   2.072   1.389   0.258 -1.6044  1.1660 -0.5714
  949TIP3   OH224405   2.391   6.164   7.571 -0.3703  0.2443  0.1016
  949TIP3    H124406   2.356   6.115   7.496  0.3388  0.0355 -0.0982
  949TIP3    H224407   2.317   6.172   7.631 -0.7050 -0.3735 -0.2227
  950TIP3   OH224408   3.199   3.294   7.131  0.0426 -0.5241 -0.7434
  950TIP3    H124409   3.285   3.322   7.099  0.2227  0.3325  0.4540
  950TIP3    H224410   3.137   3.347   7.082  0.1190 -1.6883 -2.1818
  951TIP3   OH224411   0.380   4.291   1.862  0.2400 -0.1257 -0.0715
  951TIP3    H124412   0.372   4.335   1.777 -0.3606  0.9036  0.5014
  951TIP3    H224413   0.294   4.251   1.876  0.3213 -0.2452  0.0831
  952TIP3   OH224414   3.228   2.505   7.974 -0.6019 -0.4016 -0.2063
  952TIP3    H124415   3.321   2.528   7.965 -0.0059 -1.0849  3.0083
  952TIP3    H224416   3.188   2.536   7.892  1.7471  3.4914 -0.1721
  953TIP3   OH224417   1.693   1.048   6.596  0.0512  0.1095 -0.0572
  953TIP3    H124418   1.706   0.957   6.624 -0.8450  0.6197  2.2122
  953TIP3    H224419   1.600   1.053   6.573  0.2668  0.2925 -0.9359
  954TIP3   OH224420   0.743   0.305   7.664  0.0192  0.1991  0.1788
  954TIP3    H124421   0.792   0.229   7.694 -0.1698  0.5845  1.5586
  954TIP3    H224422   0.805   0.378   7.672 -0.2440  0.4134  0.3037
  955TIP3   OH224423   6.147   1.743   7.795  0.0257 -0.3510 -0.7311
  955TIP3    H124424   6.101   1.697   7.865 -0.0670  0.6866 -0.0868
  955TIP3    H224425   6.078   1.777   7.738 -0.0342  0.9357  0.0631
  956TIP3   OH224426   2.421   6.238   1.627 -0.3666  0.7210  0.0511
  956TIP3    H124427   2.504   6.200   1.596 -0.6043  1.0264 -0.9952
  956TIP3    H224428   2.446   6.288   1.705  0.0623 -0.9914  1.0644
  957TIP3   OH224429   4.899   2.023   0.229 -0.0522  0.2484 -0.8073
  957TIP3    H124430   4.897   2.108   0.185 -1.9772  0.8358  0.3024
  957TIP3    H224431   4.930   2.043   0.318 -0.1705 -0.2753 -0.6451
  958TIP3   OH224432   1.790   4.180   1.371 -0.2811  0.0631  0.3543
  958TIP3    H124433   1.821   4.247   1.309  1.3550  0.0110  1.0683
  958TIP3    H224434   1.813   4.097   1.331 -0.0312  0.0030  0.6195
  959TIP3   OH224435   0.440   4.993   1.158  0.0236 -0.7523  0.4426
  959TIP3    H124436   0.352   5.005   1.122 -0.2846 -0.4337  1.2891
  959TIP3    H224437   0.465   4.904   1.130 -0.5108 -0.7979  0.0933
  960TIP3   OH224438   3.227   1.784   1.296 -0.0947 -0.5848 -0.3348
  960TIP3    H124439   3.306   1.838   1.297 -0.8839  0.6220  0.7112
  960TIP3    H224440   3.170   1.823   1.362 -0.5950 -2.9108  0.7400
  961TIP3   OH224441   2.159   2.500   7.043 -0.1528 -0.4206 -0.3605
  961TIP3    H124442   2.106   2.439   7.095 -0.0530  0.9304  1.4134
  961TIP3    H224443   2.192   2.447   6.970 -2.0234 -1.8689 -0.2252
  962TIP3   OH224444   0.960   1.763   8.028  0.0332  0.1065  0.0379
  962TIP3    H124445   0.982   1.844   7.982  0.1567  0.6594  1.0448
  962TIP3    H224446   0.921   1.792   8.110 -3.1034 -0.8283 -0.9993
  963TIP3   OH224447   3.866   5.187   5.966  0.0653  0.1978  0.6711
  963TIP3    H124448   3.786   5.232   5.994 -0.4002 -0.7496  0.9295
  963TIP3    H224449   3.930   5.207   6.034  0.0757  1.0461  0.4125
  964TIP3   OH224450   3.034   6.078   0.300  0.7514 -0.7548  0.2348
  964TIP3    H124451   3.003   6.107   0.386 -0.3491 -0.8461 -0.1126
  964TIP3    H224452   2.988   5.995   0.285  0.6016 -0.5268 -0.6214
  965TIP3   OH224453   6.123   2.530   7.670 -0.5902 -0.0667 -0.6782
  965TIP3    H124454   6.178   2.598   7.633  0.2976 -1.3329 -1.7934
  965TIP3    H224455   6.172   2.500   7.747 -1.2675  0.9276  0.1590
  966TIP3   OH224456   4.338   6.518   0.415  0.0829 -0.3819 -0.5035
  966TIP3    H124457   4.386   6.583   0.363  0.8975  0.6946  1.5001
  966TIP3    H224458   4.275   6.481   0.353  0.4738  1.3743 -2.0685
  967TIP3   OH224459   6.474   2.778   0.178  0.2154  0.0373 -0.4245
  967TIP3    H124460   6.534   2.801   0.107 -1.5913  2.2508 -1.3493
  967TIP3    H224461   6.447   2.862   0.215 -0.2001 -1.0165  1.7941
  968TIP3   OH224462   4.703   6.512   2.123  0.3633  0.0945  0.1674
  968TIP3    H124463   4.737   6.424   2.107  0.1991 -0.1862  1.2566
  968TIP3    H224464   4.608   6.502   2.122  0.3238 -0.1513  2.1878
  969TIP3   OH224465   2.827   6.570   0.234 -0.4698  0.4344  0.4438
  969TIP3    H124466   2.747   6.593   0.185 -0.5298 -0.6966 -0.0064
  969TIP3    H224467   2.813   6.480   0.263 -0.0749  0.8062  1.8617
  970TIP3   OH224468   4.896   2.613   6.822  0.2613  0.1726 -0.4067
  970TIP3    H124469   4.901   2.700   6.782 -0.9896  0.8973  0.9007
  970TIP3    H224470   4.950   2.557   6.766  0.8994  1.7362 -1.4140
  971TIP3   OH224471   2.468   2.437   6.608 -0.0891 -0.2529 -0.1166
  971TIP3    H124472   2.539   2.484   6.652  1.4413 -1.0046 -1.6824
  971TIP3    H224473   2.504   2.414   6.522 -1.9354 -1.4312 -0.6224
  972TIP3   OH224474   5.724   2.150   7.150 -0.3684 -0.2689 -0.0421
  972TIP3    H124475   5.724   2.174   7.057  0.1862  0.1555  0.0670
  972TIP3    H224476   5.814   2.165   7.179 -0.8491  0.9036  0.9036
  973TIP3   OH224477   5.793   0.707   7.222  0.5062  0.3252  0.7113
  973TIP3    H124478   5.705   0.670   7.213  0.5888  0.4417 -1.0221
  973TIP3    H224479   5.791   0.754   7.305 -1.3288  0.9612  0.3732
  974TIP3   OH224480   2.025   5.918   8.316  0.0116 -0.1240 -0.3226
  974TIP3    H124481   1.994   5.848   8.258  1.0578  0.0151 -1.0897
  974TIP3    H224482   1.960   5.987   8.308 -0.1530 -0.3375 -0.8871
  975TIP3   OH224483   1.831   4.965   7.287 -0.1990 -0.2635  0.1772
  975TIP3    H124484   1.850   4.984   7.195 -1.6139  2.6407  0.3650
  975TIP3    H224485   1.736   4.965   7.292 -0.1487 -0.8813  1.5853
  976TIP3   OH224486   4.930   3.713   7.405  0.7265  0.0341  0.6298
  976TIP3    H124487   5.024   3.694   7.408  1.4867  2.7865 -1.6790
  976TIP3    H224488   4.910   3.720   7.312 -1.2866  1.5536  1.1149
  977TIP3   OH224489   5.549   1.180   0.149 -0.0456 -0.7056 -0.2459
  977TIP3    H124490   5.638   1.204   0.120  1.4799 -2.5141  2.5576
  977TIP3    H224491   5.540   1.221   0.234 -0.8364 -2.6822  0.6786
  978TIP3   OH224492   2.733   3.926   1.267 -0.4419 -0.6755  0.1605
  978TIP3    H124493   2.704   3.847   1.222  0.0350 -1.0536  0.4959
  978TIP3    H224494   2.777   3.893   1.346  0.1433 -0.0932  0.0813
  979TIP3   OH224495   3.139   1.284   1.040 -0.1820 -0.2406 -0.6723
  979TIP3    H124496   3.116   1.368   1.081 -2.1335 -0.6808 -0.7464
  979TIP3    H224497   3.232   1.272   1.060  0.2133  2.0186 -0.8286
  980TIP3   OH224498   4.009   5.714   1.719 -0.1142  0.2948 -0.8137
  980TIP3    H124499   4.099   5.686   1.736 -0.2960  0.1128 -0.1340
  980TIP3    H224500   4.011   5.809   1.732 -0.2632  0.1517  0.3141
  981TIP3   OH224501   6.690   2.445   1.568  0.1414 -0.3006 -0.0604
  981TIP3    H124502   6.719   2.531   1.598  0.3651 -0.4993  0.3095
  981TIP3    H224503   6.690   2.451   1.472 -0.4784  0.3105 -0.0286
  982TIP3   OH224504   0.329   4.916   0.432  0.3737  0.0411  0.1397
  982TIP3    H124505   0.403   4.862   0.404 -1.8937 -3.2107 -0.0242
  982TIP3    H224506   0.352   5.004   0.402  2.5304 -1.4394 -3.1962
  983TIP3   OH224507   4.449   2.843   8.480 -0.4432 -0.1410  0.9244
  983TIP3    H124508   4.494   2.922   8.449 -1.2437 -0.2567 -0.6294
  983TIP3    H224509   4.478   2.774   8.421 -0.1745 -0.9136  1.9353
  984TIP3   OH224510   6.761   1.892   2.282  0.3674  0.7037  0.5279
  984TIP3    H124511   6.675   1.886   2.324  1.5963 -1.5302  3.0305
  984TIP3    H224512   6.804   1.965   2.326 -0.3160  2.1810 -1.1030
  985TIP3   OH224513   2.059   0.486   8.546 -0.7403  0.1079 -0.6220
  985TIP3    H124514   2.000   0.525   8.610  0.3181 -0.2146  0.5949
  985TIP3    H224515   2.007   0.480   8.466 -2.1127  0.4808  0.2042
  986TIP3   OH224516   5.084   0.099   2.115  0.2512 -0.1355  0.3843
  986TIP3    H124517   5.052   0.177   2.160 -1.4779 -0.4420 -0.2421
  986TIP3    H224518   5.179   0.101   2.129  0.1846  1.7484  0.8772
  987TIP3   OH224519   4.154   3.874   0.860 -0.0254 -0.3015  0.0653
  987TIP3    H124520   4.070   3.831   0.849 -0.3775 -0.1982  1.9392
  987TIP3    H224521   4.218   3.803   0.855 -0.4015 -0.6913  0.6376
  988TIP3   OH224522   6.705   3.536   7.112  0.2526  0.4040  0.6758
  988TIP3    H124523   6.791   3.499   7.134 -0.9888 -3.3668 -0.0313
  988TIP3    H224524   6.711   3.556   7.019  0.2963 -0.1413  0.5576
  989TIP3   OH224525   5.887   6.225   1.783  0.3038 -0.3023  0.2867
  989TIP3    H124526   5.969   6.235   1.735 -0.5433  0.7781 -1.0396
  989TIP3    H224527   5.913   6.205   1.873  1.9775 -0.9251 -0.3088
  990TIP3   OH224528   1.277   5.419   7.087  0.3774  0.1953 -0.3265
  990TIP3    H124529   1.314   5.496   7.044 -1.7261  0.0120 -2.6913
  990TIP3    H224530   1.185   5.442   7.102  0.0490 -1.3486  0.1728
  991TIP3   OH224531   1.028   0.355   0.011  0.1827  0.2306  0.3291
  991TIP3    H124532   1.089   0.286   0.039  2.6936  1.7569 -1.0300
  991TIP3    H224533   0.967   0.310  -0.048 -0.7457 -1.5386  2.4511
  992TIP3   OH224534   0.868   1.919   7.410 -0.4780 -0.0949 -0.2279
  992TIP3    H124535   0.924   1.916   7.487 -1.3894 -1.7777  0.4059
  992TIP3    H224536   0.929   1.927   7.336  0.4678  0.1385  0.5554
  993TIP3   OH224537   0.754   5.545   7.780  0.3768 -0.0163  0.3348
  993TIP3    H124538   0.811   5.471   7.758  1.2314  0.0389  2.1501
  993TIP3    H224539   0.677   5.506   7.820  1.6192  0.0390  2.9974
  994TIP3   OH224540   2.053   4.130   7.762  0.1380 -0.1641 -0.2829
  994TIP3    H124541   2.055   4.171   7.849  0.2097  0.3082 -0.5019
  994TIP3    H224542   1.984   4.064   7.767 -1.0298  1.0129 -0.3755
  995TIP3   OH224543   2.984   2.447   8.111 -0.4767  0.2910  0.1575
  995TIP3    H124544   3.068   2.418   8.076 -0.7612 -0.6736  0.2427
  995TIP3    H224545   2.956   2.516   8.051  0.1793  0.3196 -0.1183
  996TIP3   OH224546   4.074   3.714   1.368  0.0999 -0.8309 -0.0412
  996TIP3    H124547   4.026   3.777   1.314 -1.7074 -1.9093  0.2321
  996TIP3    H224548   4.166   3.739   1.358 -0.3467  0.2157 -2.0204
  997TIP3   OH224549   0.066   3.055   0.614  0.2880 -0.0041  0.2427
  997TIP3    H124550   0.044   2.997   0.541 -1.0196  0.1879  0.4449
  997TIP3    H224551  -0.007   3.118   0.617  2.2024  2.4062 -0.7062
  998TIP3   OH224552   6.148   4.015   0.930 -0.3881  0.5090 -0.1244
  998TIP3    H124553   6.183   3.972   0.852 -1.6771  0.4033 -0.6752
  998TIP3    H224554   6.205   4.089   0.945  2.0010 -1.4020  0.9169
  999TIP3   OH224555   1.925   2.929   6.077  0.1523  0.0966  0.3987
  999TIP3    H124556   1.993   2.872   6.113 -0.0420  0.1828  0.9031
  999TIP3    H224557   1.843   2.890   6.107 -0.0376 -0.0998 -0.3418
 1000TIP3   OH224558   1.862   3.697   8.666 -0.2139  0.1789 -0.0073
 1000TIP3    H124559   1.829   3.712   8.754 -1.5718  2.2183 -0.7842
 1000TIP3    H224560   1.951   3.666   8.678 -0.9358 -1.2683  2.0945
 1001TIP3   OH224561   6.312   0.164   0.103  0.5362  0.5514 -0.1257
 1001TIP3    H124562   6.406   0.148   0.117  0.6643 -1.2593 -2.5007
 1001TIP3    H224563   6.308   0.216   0.023 -0.4904  2.1800  0.9137
 1002TIP3   OH224564   5.774   0.563   8.117 -0.0646 -0.0124  0.4386
 1002TIP3    H124565   5.853   0.603   8.154 -0.6464  1.2918  0.3013
 1002TIP3    H224566   5.702   0.614   8.154 -0.7140  0.7294 -1.7183
 1003TIP3   OH224567   5.295   1.636   8.085  0.0629 -0.2583 -0.3957
 1003TIP3    H124568   5.342   1.572   8.031 -0.2127  0.6870 -1.8267
 1003TIP3    H224569   5.284   1.711   8.027  0.6694  1.2242  1.3472
 1004TIP3   OH224570   6.759   4.340   0.443 -0.0334 -0.7084  0.5495
 1004TIP3    H124571   6.835   4.386   0.479  0.4094 -0.3750 -0.7613
 1004TIP3    H224572   6.705   4.320   0.519  0.3521  0.8956  1.2835
 1005TIP3   OH224573   6.720   4.148   8.465 -0.0505 -0.0547 -0.2520
 1005TIP3    H124574   6.786   4.145   8.396  1.8982  2.1888  1.3049
 1005TIP3    H224575   6.709   4.057   8.492  2.2456 -0.5650 -0.7825
 1006TIP3   OH224576   2.042   5.412   1.334 -0.2475  0.5604 -0.0781
 1006TIP3    H124577   2.096   5.376   1.404  1.4678 -0.2556 -1.7342
 1006TIP3    H224578   1.985   5.340   1.307 -1.3502  1.0597  0.8585
 1007TIP3   OH224579   0.639   5.413   0.493  1.0935  0.1937 -0.3871
 1007TIP3    H124580   0.641   5.489   0.434 -1.8108 -0.7743 -1.9097
 1007TIP3    H224581   0.560   5.366   0.468  0.8432 -1.4055  2.9608
 1008TIP3   OH224582   6.533   0.382   7.032  0.0496 -0.4063 -0.3274
 1008TIP3    H124583   6.537   0.470   6.993  0.0039 -0.0140  0.5432
 1008TIP3    H224584   6.445   0.351   7.010  0.2879 -0.5107 -1.2002
 1009TIP3   OH224585   0.407   4.493   8.133  0.2640 -0.1676 -0.5436
 1009TIP3    H124586   0.406   4.421   8.197 -1.0301  0.6652  0.4200
 1009TIP3    H224587   0.385   4.571   8.184  2.1337  1.0316 -1.4705
 1010TIP3   OH224588   4.644   3.437   8.458 -0.1146 -0.5482 -0.1481
 1010TIP3    H124589   4.640   3.436   8.554 -0.7713 -2.1166 -0.1541
 1010TIP3    H224590   4.658   3.346   8.434 -0.0188 -0.1828 -1.5562
 1011TIP3   OH224591   0.867   5.971   2.455 -0.4333 -0.0639 -0.3014
 1011TIP3    H124592   0.814   5.940   2.528  1.5710 -1.0943  0.8078
 1011TIP3    H224593   0.911   6.049   2.488 -0.0067 -0.1640 -0.6189
 1012TIP3   OH224594   2.807   3.067   8.275  0.0040  0.3616 -0.0902
 1012TIP3    H124595   2.902   3.065   8.264  0.2492 -1.0187  1.7952
 1012TIP3    H224596   2.780   2.975   8.273 -1.3093  0.7292 -0.5727
 1013TIP3   OH224597   1.989   6.029   7.932 -0.5000  0.2319 -0.1832
 1013TIP3    H124598   2.078   5.995   7.927 -0.5312  0.2467 -0.9628
 1013TIP3    H224599   1.991   6.091   8.005 -0.1633 -0.5933  0.5299
 1014TIP3   OH224600   1.446   3.881   8.332  0.0302  0.0916 -0.5857
 1014TIP3    H124601   1.440   3.785   8.334 -1.6532  0.1559 -1.3808
 1014TIP3    H224602   1.441   3.903   8.239 -4.5718  1.1406 -0.3191
 1015TIP3   OH224603   2.027   0.335   1.241 -0.4931  0.4296 -0.4329
 1015TIP3    H124604   2.046   0.413   1.190 -0.4170  0.1587 -0.8260
 1015TIP3    H224605   2.097   0.274   1.219 -0.8199  0.0765 -0.5060
 1016TIP3   OH224606   3.638   3.946   8.516  0.5030  0.1485 -0.4994
 1016TIP3    H124607   3.616   3.853   8.505  2.1952 -0.2248 -0.9174
 1016TIP3    H224608   3.732   3.947   8.531  0.3209  1.7099  0.8938
 1017TIP3   OH224609   3.559   2.313   8.230 -0.2224  0.5127 -0.3148
 1017TIP3    H124610   3.493   2.368   8.188 -0.5771  0.1142 -0.2961
 1017TIP3    H224611   3.541   2.225   8.196 -0.5566  0.1686  0.7042
 1018TIP3   OH224612   2.776   2.624   8.507 -0.2683 -0.4953 -0.2944
 1018TIP3    H124613   2.732   2.625   8.422 -1.8254 -0.2179  0.4836
 1018TIP3    H224614   2.869   2.623   8.485 -0.6328 -0.7824 -1.9998
 1019TIP3   OH224615   0.792   4.756   1.889  0.1862  0.6897 -0.0924
 1019TIP3    H124616   0.765   4.840   1.852  0.4709  1.2728  0.9743
 1019TIP3    H224617   0.832   4.779   1.973 -0.9801 -0.6231  0.8675
 1020TIP3   OH224618   0.915   1.444   8.373  0.0646  0.1613 -0.4079
 1020TIP3    H124619   0.944   1.407   8.456 -1.6742  1.1071  0.6815
 1020TIP3    H224620   0.890   1.534   8.395 -2.0820 -0.0901 -1.5562
 1021TIP3   OH224621   4.282   1.878   7.372  0.4282 -0.5851 -0.2696
 1021TIP3    H124622   4.335   1.946   7.331 -0.9455 -1.2184 -3.3969
 1021TIP3    H224623   4.258   1.914   7.457  0.8432  2.2838 -1.2514
 1022TIP3   OH224624   6.081   2.000   1.514 -0.6898 -0.3553 -0.2745
 1022TIP3    H124625   6.115   1.996   1.603  0.7920  3.6765 -0.4507
 1022TIP3    H224626   6.159   2.002   1.458 -1.5782 -3.3640 -1.8596
 1023TIP3   OH224627   1.711   3.755   1.386 -0.7166 -0.3783  0.0764
 1023TIP3    H124628   1.680   3.810   1.315 -1.6557  1.1556  1.6065
 1023TIP3    H224629   1.675   3.668   1.366 -0.2029 -0.2078 -1.7475
 1024TIP3   OH224630   5.071   5.310   0.144  0.0966  0.0200  0.0786
 1024TIP3    H124631   5.124   5.356   0.079 -0.0313  0.8492  0.5526
 1024TIP3    H224632   4.997   5.275   0.095  0.6819 -0.5019 -0.4517
 1025TIP3   OH224633   1.386   2.173   6.185 -0.3309  0.4341 -0.7138
 1025TIP3    H124634   1.362   2.252   6.233  1.1153  0.7616 -0.4790
 1025TIP3    H224635   1.481   2.169   6.192 -0.3391 -1.0821 -1.1226
 1026TIP3   OH224636   3.280   4.875   8.336 -0.0737  0.3417 -0.0284
 1026TIP3    H124637   3.351   4.829   8.291  0.1133 -0.1124  0.7110
 1026TIP3    H224638   3.277   4.961   8.294  0.4011  0.0990 -0.5857
 1027TIP3   OH224639   4.996   1.319   7.054 -0.6306 -0.4350 -0.0715
 1027TIP3    H124640   5.027   1.229   7.062 -0.2853 -0.4183 -1.0641
 1027TIP3    H224641   5.062   1.371   7.100  0.6666 -0.4398 -1.8514
 1028TIP3   OH224642   6.739   6.451   1.755  0.2120  0.1346  0.2377
 1028TIP3    H124643   6.806   6.392   1.790  0.4003  0.7254  0.9020
 1028TIP3    H224644   6.710   6.502   1.831  0.0542  0.8950 -0.3229
 1029TIP3   OH224645   5.204   0.509   1.869  0.4212 -0.1519  0.2717
 1029TIP3    H124646   5.278   0.566   1.889 -0.6675  1.1779  0.6907
 1029TIP3    H224647   5.208   0.440   1.935  0.5085  0.6703  1.1439
 1030TIP3   OH224648   3.139   5.754   7.012  0.3278 -0.2170 -0.2656
 1030TIP3    H124649   3.179   5.839   7.028 -0.4381 -0.1164  1.2830
 1030TIP3    H224650   3.080   5.768   6.938 -1.4195  1.1871  1.3086
 1031TIP3   OH224651   4.027   0.738   7.859 -0.1941 -0.2323 -0.4436
 1031TIP3    H124652   4.102   0.751   7.916 -2.1044 -0.0782  2.2322
 1031TIP3    H224653   3.985   0.824   7.854 -0.0528 -0.2204 -2.2368
 1032TIP3   OH224654   1.728   1.848   6.877  0.2874 -0.1530 -0.3118
 1032TIP3    H124655   1.739   1.830   6.971  0.4422  1.9438  0.1238
 1032TIP3    H224656   1.642   1.889   6.870  1.1697  1.7026 -0.7311
 1033TIP3   OH224657   6.678   6.451   6.842  0.1734  0.3247  1.1226
 1033TIP3    H124658   6.589   6.423   6.862 -0.9029  1.5978 -1.4751
 1033TIP3    H224659   6.700   6.406   6.761  1.7353  0.4064  1.4722
 1034TIP3   OH224660   5.634   2.653   1.308  0.3718  0.0422 -0.1579
 1034TIP3    H124661   5.562   2.710   1.280  1.9738  4.0658  2.9114
 1034TIP3    H224662   5.616   2.635   1.400  2.6898  0.2306  0.3860
 1035TIP3   OH224663   3.910   1.886   7.806  0.3751 -0.1351  0.2088
 1035TIP3    H124664   3.907   1.884   7.902 -2.9856  1.2862  0.2993
 1035TIP3    H224665   3.949   1.802   7.781 -1.0931 -1.7575  2.8462
 1036TIP3   OH224666   4.706   2.286   8.637 -0.1067  0.6327 -0.4284
 1036TIP3    H124667   4.775   2.228   8.606 -0.0947  0.7249 -0.5754
 1036TIP3    H224668   4.664   2.319   8.557 -2.5231 -2.0255 -0.4021
 1037TIP3   OH224669   0.858   5.580   1.585 -0.7325  0.0234 -0.0715
 1037TIP3    H124670   0.815   5.593   1.500 -0.6236  0.3419 -0.0800
 1037TIP3    H224671   0.877   5.668   1.616 -1.5038 -0.0611  0.6625
 1038TIP3   OH224672   1.688   3.461   8.595 -0.2551 -0.4568  0.1934
 1038TIP3    H124673   1.717   3.552   8.596 -2.2540  0.2799 -1.7229
 1038TIP3    H224674   1.714   3.427   8.680  1.4939  1.5712  0.5577
 1039TIP3   OH224675   0.847   0.456   1.400  0.4599 -0.2158 -0.4682
 1039TIP3    H124676   0.917   0.402   1.438  0.9533 -0.4185 -1.6279
 1039TIP3    H224677   0.860   0.450   1.306 -0.8844  0.0922 -0.6949
 1040TIP3   OH224678   1.854   3.788   7.120 -0.3266 -0.3126  0.0097
 1040TIP3    H124679   1.909   3.711   7.132  0.1098 -0.4133 -2.3145
 1040TIP3    H224680   1.765   3.752   7.118 -0.4058 -0.3522  1.9320
 1041TIP3   OH224681   3.818   1.621   1.675 -0.0736  0.2097 -0.2573
 1041TIP3    H124682   3.886   1.570   1.718 -0.0609  1.3517  1.1552
 1041TIP3    H224683   3.859   1.655   1.595  0.2508 -1.0306 -0.6377
 1042TIP3   OH224684   4.290   1.898   0.562 -0.0944 -0.0710 -0.3414
 1042TIP3    H124685   4.305   1.990   0.540  1.2659 -0.1434  0.1557
 1042TIP3    H224686   4.370   1.871   0.607 -0.1571 -1.7167 -1.1436
 1043TIP3   OH224687   5.867   2.797   1.261  0.1551  0.9981  0.2130
 1043TIP3    H124688   5.932   2.760   1.321 -1.0302 -2.5779 -0.4364
 1043TIP3    H224689   5.792   2.738   1.268 -2.5621  4.1498 -0.0989
 1044TIP3   OH224690   4.576   0.191   7.725  0.1729 -0.2398 -0.1111
 1044TIP3    H124691   4.546   0.198   7.634 -0.0786  1.0815  0.0446
 1044TIP3    H224692   4.518   0.249   7.774 -0.0545 -1.3635  1.0065
 1045TIP3   OH224693   0.818   1.956   0.678  0.2428  1.0648  0.5799
 1045TIP3    H124694   0.783   1.973   0.591 -1.3297  0.5405  1.0724
 1045TIP3    H224695   0.899   2.007   0.682  0.8093  0.4252 -1.4757
 1046TIP3   OH224696   5.672   3.710   8.510 -0.1271  0.4241  0.7702
 1046TIP3    H124697   5.641   3.739   8.596 -1.4108  0.6055  0.2688
 1046TIP3    H224698   5.618   3.633   8.490  2.2460 -1.5603  1.4430
 1047TIP3   OH224699   6.336   0.759   1.298 -0.5174 -0.8903  0.4416
 1047TIP3    H124700   6.402   0.818   1.335 -0.6779 -1.3580  1.5131
 1047TIP3    H224701   6.385   0.704   1.238  0.6299 -2.8194  2.9386
 1048TIP3   OH224702   3.490   2.726   2.101 -0.3105  0.0576 -0.7602
 1048TIP3    H124703   3.417   2.732   2.039 -0.1366 -0.8556 -1.0703
 1048TIP3    H224704   3.494   2.634   2.124 -0.3837  0.3823  0.6588
 1049TIP3   OH224705   3.559   3.514   7.519 -0.0145  0.2425 -0.1016
 1049TIP3    H124706   3.651   3.539   7.508  0.3401 -0.3820  1.2947
 1049TIP3    H224707   3.548   3.504   7.613 -1.4733  0.1104 -0.2675
 1050TIP3   OH224708   4.549   1.629   7.323  0.1870 -0.0166 -0.0265
 1050TIP3    H124709   4.457   1.624   7.299 -0.6702  0.5725  2.7104
 1050TIP3    H224710   4.574   1.720   7.304 -0.5322  0.5020  1.3371
 1051TIP3   OH224711   4.140   3.330   7.935 -0.2512  0.0238 -0.4827
 1051TIP3    H124712   4.233   3.307   7.944  0.1183  1.3992 -0.5012
 1051TIP3    H224713   4.098   3.290   8.010  0.6553  0.7731  0.4521
 1052TIP3   OH224714   4.612   0.399   1.639  0.7396 -0.2959  0.2135
 1052TIP3    H124715   4.616   0.473   1.579 -1.4025 -0.2183  0.0744
 1052TIP3    H224716   4.639   0.434   1.723 -0.1216  0.6487  0.1156
 1053TIP3   OH224717   6.843   1.732   1.262 -0.2957  0.6253  0.2990
 1053TIP3    H124718   6.762   1.767   1.300  0.9164  1.0756  2.6268
 1053TIP3    H224719   6.814   1.688   1.182 -3.2380 -1.2172  2.1488
 1054TIP3   OH224720   5.070   0.197   8.401 -0.3517 -0.0097  0.0390
 1054TIP3    H124721   5.105   0.110   8.420 -0.0630 -0.2801 -1.6020
 1054TIP3    H224722   5.138   0.240   8.350 -1.7797 -0.0508 -2.0307
 1055TIP3   OH224723   2.059   5.386   7.591 -0.0227 -0.1242 -0.7533
 1055TIP3    H124724   2.053   5.302   7.544  0.2773  0.8967 -2.7039
 1055TIP3    H224725   1.993   5.379   7.660  1.7768 -2.9994  0.9191
 1056TIP3   OH224726   0.983   0.937   1.456 -0.4158  0.2985 -0.1751
 1056TIP3    H124727   1.067   0.966   1.420  0.6651 -1.6074  0.6804
 1056TIP3    H224728   0.958   0.864   1.400 -0.2703 -0.6996  1.0507
 1057TIP3   OH224729   0.778   3.665   1.552  0.2409  0.4727  0.6527
 1057TIP3    H124730   0.841   3.698   1.488 -1.0749  3.3317  0.6813
 1057TIP3    H224731   0.831   3.649   1.630  1.2460  0.8316  0.0787
 1058TIP3   OH224732   5.372   0.588   1.181  0.4095  0.0006  0.3622
 1058TIP3    H124733   5.371   0.493   1.181  0.4319 -0.0000  0.2124
 1058TIP3    H224734   5.367   0.612   1.274  1.5284 -0.1645  0.4834
 1059TIP3   OH224735   3.317   2.894   7.445 -0.2182 -0.2180  0.0986
 1059TIP3    H124736   3.356   2.978   7.422 -0.2152 -0.4275 -0.6701
 1059TIP3    H224737   3.390   2.832   7.445 -0.4266 -0.4819 -0.7015
 1060TIP3   OH224738   0.632   0.939   0.091 -0.4438  0.5621  0.3898
 1060TIP3    H124739   0.665   0.991   0.164 -0.2195  0.7236  0.1749
 1060TIP3    H224740   0.676   0.854   0.100 -3.0151 -0.7043  2.5007
 1061TIP3   OH224741   3.519   1.139   0.707 -0.2468  0.3009  0.0037
 1061TIP3    H124742   3.550   1.228   0.692 -2.8795  1.2950 -0.0504
 1061TIP3    H224743   3.454   1.124   0.638 -1.7185 -0.6578  1.5002
 1062TIP3   OH224744   5.359   5.436   0.664 -0.6052  0.3896  0.4412
 1062TIP3    H124745   5.336   5.451   0.573 -2.3448  1.6213  1.0259
 1062TIP3    H224746   5.294   5.374   0.696 -0.4752  0.5468  1.0335
 1063TIP3   OH224747   2.118   1.090   0.321 -0.1825  0.3825 -0.5948
 1063TIP3    H124748   2.213   1.077   0.322  0.0451  1.7331 -1.9656
 1063TIP3    H224749   2.090   1.069   0.410  1.0893 -2.0422 -0.6872
 1064TIP3   OH224750   5.253   3.296   7.089  0.3489 -0.1062  0.2427
 1064TIP3    H124751   5.330   3.287   7.032  1.0667  2.3211  0.7313
 1064TIP3    H224752   5.275   3.246   7.167  0.3439 -1.4978 -0.6090
 1065TIP3   OH224753   0.418   0.496   8.508  0.3702  0.0846  0.1888
 1065TIP3    H124754   0.423   0.542   8.592  3.7233  1.2725 -0.5286
 1065TIP3    H224755   0.417   0.403   8.532  0.5519  0.4102  1.5417
 1066TIP3   OH224756   5.111   2.550   6.683 -0.2260 -0.1867 -0.5094
 1066TIP3    H124757   5.090   2.629   6.633  0.3708 -1.9292 -3.7597
 1066TIP3    H224758   5.199   2.565   6.716 -0.5402  0.9192 -0.1485
 1067TIP3   OH224759   0.959   0.850   8.355 -0.0473 -0.2881 -0.5411
 1067TIP3    H124760   0.866   0.851   8.334  0.5485 -0.7853 -3.7580
 1067TIP3    H224761   0.995   0.776   8.306  2.4452  1.5543 -1.7483
 1068TIP3   OH224762   0.428   1.892   1.228 -0.3531  0.1522 -0.8580
 1068TIP3    H124763   0.484   1.970   1.235 -0.0241 -0.1191 -0.4647
 1068TIP3    H224764   0.460   1.833   1.295 -1.5373  0.2441 -0.1837
 1069TIP3   OH224765   0.780   5.446   2.145  0.3417  0.6931  0.2982
 1069TIP3    H124766   0.791   5.417   2.236  1.6437  0.6950  0.1496
 1069TIP3    H224767   0.692   5.483   2.144  0.5039  1.2141  1.7217
 1070TIP3   OH224768   4.761   3.793   7.658 -0.2501  0.2120  0.0409
 1070TIP3    H124769   4.808   3.742   7.723  1.1463  2.3723  0.8518
 1070TIP3    H224770   4.798   3.764   7.574  1.6046  0.8445  0.5779
 1071TIP3   OH224771   1.763   4.549   1.631 -0.4511 -0.6382 -0.7795
 1071TIP3    H124772   1.697   4.481   1.647 -1.6385  0.9376  1.6733
 1071TIP3    H224773   1.713   4.630   1.630  1.2358  0.4388 -0.9384
 1072TIP3   OH224774   1.647   2.329   8.020 -0.0839 -0.6838  0.1560
 1072TIP3    H124775   1.631   2.395   7.953 -0.6713 -0.9741 -0.0002
 1072TIP3    H224776   1.619   2.247   7.979  0.4825 -1.0063  0.4073
 1073TIP3   OH224777   3.305   2.652   1.131  0.3688 -0.1295  0.8172
 1073TIP3    H124778   3.327   2.744   1.143 -0.8908  0.5448 -1.4782
 1073TIP3    H224779   3.209   2.651   1.123  0.4433 -1.4600 -0.3279
 1074TIP3   OH224780   1.594   2.786   7.591  0.2987  0.1211 -0.0701
 1074TIP3    H124781   1.499   2.800   7.588  0.3039 -0.0061 -1.0486
 1074TIP3    H224782   1.612   2.729   7.517  1.0975 -0.1725  0.3406
 1075TIP3   OH224783   1.398   2.249   8.520  0.3957 -0.0373  0.4394
 1075TIP3    H124784   1.420   2.230   8.611 -0.3534 -0.8751  0.4579
 1075TIP3    H224785   1.302   2.245   8.517  0.3931  0.4112 -0.2954
 1076TIP3   OH224786   4.895   2.287   1.650 -0.1209 -0.6591  0.3156
 1076TIP3    H124787   4.885   2.380   1.668 -0.3640  0.0812 -2.9885
 1076TIP3    H224788   4.986   2.278   1.621 -0.3329 -1.2859 -0.1717
 1077TIP3   OH224789   2.326   3.643   0.680  0.7349  0.3193  0.2775
 1077TIP3    H124790   2.304   3.734   0.698 -1.0408  0.4245 -2.0149
 1077TIP3    H224791   2.416   3.646   0.646  1.8449  0.7681  2.9785
 1078TIP3   OH224792   1.053   6.518   0.628 -0.1693 -0.4547  0.2587
 1078TIP3    H124793   1.047   6.475   0.543 -0.3302  0.5127 -0.2320
 1078TIP3    H224794   1.001   6.463   0.687 -0.1750 -1.0484 -0.2920
 1079TIP3   OH224795   1.575   2.443   1.498  0.3836 -0.1612  0.0418
 1079TIP3    H124796   1.668   2.450   1.473  0.3314  1.4718  0.1735
 1079TIP3    H224797   1.532   2.513   1.449 -0.4063  0.4821  1.5767
 1080TIP3   OH224798   0.499   0.439   7.154 -0.0791  0.9926 -1.0852
 1080TIP3    H124799   0.411   0.465   7.129 -0.7427 -0.4685 -0.3812
 1080TIP3    H224800   0.489   0.401   7.242  1.1268  0.1901 -1.2704
 1081TIP3   OH224801   3.487   1.803   7.070 -0.6845 -0.2445 -0.4577
 1081TIP3    H124802   3.496   1.847   7.155 -0.5316 -2.7195  0.9212
 1081TIP3    H224803   3.566   1.828   7.022 -1.4456  2.3461 -0.5161
 1082TIP3   OH224804   0.521   2.900   7.794 -0.4006  0.0228 -0.2632
 1082TIP3    H124805   0.472   2.827   7.833 -1.8785  1.4310  0.6570
 1082TIP3    H224806   0.532   2.962   7.866  1.6238  0.3611 -0.7968
 1083TIP3   OH224807   3.059   2.603   8.344 -0.2962 -0.0332 -1.4588
 1083TIP3    H124808   3.026   2.527   8.297 -2.7632 -0.9531  1.4194
 1083TIP3    H224809   3.154   2.597   8.338 -0.4752 -1.3199 -4.2221
 1084TIP3   OH224810   5.855   6.317   6.904 -0.0888 -0.0783  0.1471
 1084TIP3    H124811   5.879   6.255   6.836 -1.0121  1.3475 -1.5874
 1084TIP3    H224812   5.936   6.362   6.927  0.4758 -1.5050  1.0158
 1085TIP3   OH224813   6.399   6.600   7.839 -0.3530  0.3160 -0.1252
 1085TIP3    H124814   6.373   6.658   7.767  1.3082  1.3828  0.0691
 1085TIP3    H224815   6.487   6.571   7.814  0.4054  1.0043  1.6349
 1086TIP3   OH224816   5.909   4.104   1.107 -0.0319  0.3031 -0.3284
 1086TIP3    H124817   5.861   4.040   1.055 -0.4563  0.0359  0.3762
 1086TIP3    H224818   6.000   4.094   1.079 -0.1423 -0.3752 -0.4606
 1087TIP3   OH224819   5.230   0.129   0.165  0.5763 -0.1204  0.2326
 1087TIP3    H124820   5.207   0.222   0.171 -2.0757 -0.6749 -0.1961
 1087TIP3    H224821   5.262   0.107   0.253  0.2407  0.9675  0.6466
 1088TIP3   OH224822   2.793   0.691   7.831 -0.5285 -0.1955  0.4158
 1088TIP3    H124823   2.864   0.630   7.813  0.0899  0.5802  0.1942
 1088TIP3    H224824   2.744   0.650   7.902 -0.1819 -0.9914  0.2064
 1089TIP3   OH224825   4.026   5.391   8.650 -0.1030 -0.0622 -0.0878
 1089TIP3    H124826   4.091   5.412   8.583  0.3813 -1.5547 -0.1126
 1089TIP3    H224827   3.959   5.341   8.604  0.4502 -1.4825  0.6125
 1090TIP3   OH224828   3.247   2.357   6.438 -0.0380  0.0062 -0.3868
 1090TIP3    H124829   3.271   2.398   6.522 -2.5824  1.0115 -0.0798
 1090TIP3    H224830   3.297   2.407   6.373 -1.4577  2.3180  0.1734
 1091TIP3   OH224831   4.666   2.497   6.919 -0.2222 -0.2642 -0.4513
 1091TIP3    H124832   4.592   2.536   6.873 -0.4592  1.2213  1.0675
 1091TIP3    H224833   4.743   2.530   6.873 -0.4730 -0.3531 -0.9382
 1092TIP3   OH224834   5.813   3.368   8.464 -0.1537 -0.5163  0.6076
 1092TIP3    H124835   5.733   3.416   8.485 -0.8666 -0.9064 -1.0349
 1092TIP3    H224836   5.786   3.306   8.396  1.9157  0.5814 -1.3269
 1093TIP3   OH224837   1.098   5.128   7.722 -0.1359 -0.1791 -0.3451
 1093TIP3    H124838   1.121   5.056   7.663  1.5172 -0.6463  0.7868
 1093TIP3    H224839   1.182   5.157   7.757 -0.7713  2.2401 -0.6504
 1094TIP3   OH224840   0.981   0.894   7.432  0.1966 -0.2367 -0.5662
 1094TIP3    H124841   0.944   0.821   7.382 -0.3314 -0.2010 -0.2407
 1094TIP3    H224842   0.908   0.956   7.441  0.3441 -0.1435  0.0420
 1095TIP3   OH224843   1.652   2.560   7.303  0.0271  0.0929  0.6295
 1095TIP3    H124844   1.663   2.532   7.212  1.2353  0.6232  0.5868
 1095TIP3    H224845   1.618   2.482   7.348  0.1041 -0.3959 -0.1341
 1096TIP3   OH224846   0.042   2.471   1.878 -0.3728  0.2926 -0.4562
 1096TIP3    H124847   0.109   2.409   1.850  0.9568 -0.0291  2.9424
 1096TIP3    H224848   0.025   2.448   1.970 -2.3385  2.8391 -0.0549
 1097TIP3   OH224849   3.391   2.450   0.302 -0.5798  0.1250 -0.2094
 1097TIP3    H124850   3.298   2.467   0.313 -0.7649 -0.5504 -0.6196
 1097TIP3    H224851   3.404   2.362   0.336 -0.1227  0.1502 -0.3018
 1098TIP3   OH224852   1.435   3.248   7.163  0.2776 -0.0280 -0.1210
 1098TIP3    H124853   1.395   3.315   7.219 -0.5672 -0.6299  0.0205
 1098TIP3    H224854   1.480   3.298   7.095 -1.6397  0.7105 -0.9201
 1099TIP3   OH224855   1.878   0.339   0.885 -0.3471 -0.0979 -0.2638
 1099TIP3    H124856   1.798   0.386   0.912 -1.0471 -0.9113 -0.8614
 1099TIP3    H224857   1.848   0.279   0.817  0.6913 -0.7944 -0.1223
 1100TIP3   OH224858   5.542   3.463   8.458  1.1477 -0.2276 -0.0176
 1100TIP3    H124859   5.470   3.434   8.402  0.4685 -0.3895  0.9168
 1100TIP3    H224860   5.508   3.454   8.547  1.5298  1.7909  0.3740
 1101TIP3   OH224861   2.252   5.418   8.475 -0.0650  0.2098 -0.5424
 1101TIP3    H124862   2.267   5.417   8.381  2.5397 -2.2811 -0.2542
 1101TIP3    H224863   2.218   5.330   8.495  2.1970 -0.4001  1.0848
 1102TIP3   OH224864   4.667   3.192   0.128 -0.0549  0.5179 -0.5593
 1102TIP3    H124865   4.720   3.168   0.052  0.3459  1.1942 -0.4988
 1102TIP3    H224866   4.650   3.285   0.118 -0.0211  0.6105  0.1652
 1103TIP3   OH224867   3.754   2.982   8.502 -0.6481 -0.5050 -0.1374
 1103TIP3    H124868   3.781   3.021   8.584 -0.9121  1.3606 -0.8958
 1103TIP3    H224869   3.683   2.921   8.527 -0.1258 -0.6385  1.0846
 1104TIP3   OH224870   2.750   6.294   8.385 -0.3593 -0.2724  0.1819
 1104TIP3    H124871   2.668   6.338   8.363  0.2497  0.5420 -0.5040
 1104TIP3    H224872   2.818   6.357   8.364  0.4010 -0.3542  2.1675
 1105TIP3   OH224873   0.092   1.431   1.265  0.4017  0.3310  0.3790
 1105TIP3    H124874   0.039   1.504   1.298  1.4866  0.8007  1.1265
 1105TIP3    H224875   0.043   1.399   1.190 -1.4487  0.1448  1.5817
 1106TIP3   OH224876   0.290   0.447   7.763  0.6280  0.3886  0.8295
 1106TIP3    H124877   0.356   0.464   7.696  0.7004  1.1870  1.0881
 1106TIP3    H224878   0.288   0.352   7.772  0.6074  0.2621 -0.3205
 1107TIP3   OH224879   4.628   0.968   1.144 -0.5682 -0.2140 -0.1296
 1107TIP3    H124880   4.689   1.009   1.206  0.5255 -1.3661 -0.3913
 1107TIP3    H224881   4.631   0.875   1.167 -3.4472 -0.1596  0.8610
 1108TIP3   OH224882   5.446   5.834   8.117  0.2569  0.5210 -0.2214
 1108TIP3    H124883   5.361   5.836   8.073  0.2751  1.4154 -0.2404
 1108TIP3    H224884   5.432   5.783   8.196 -0.5578  1.4980  0.2814
 1109TIP3   OH224885   5.050   4.690   0.707 -0.2725  0.2531  0.4464
 1109TIP3    H124886   5.022   4.660   0.621 -0.5406  0.3373  0.5031
 1109TIP3    H224887   4.994   4.766   0.725  0.5031  0.8901  0.2313
 1110TIP3   OH224888   6.421   3.324   8.413  0.1364  0.5267 -0.2472
 1110TIP3    H124889   6.478   3.388   8.456  0.0876 -0.1225  0.8233
 1110TIP3    H224890   6.370   3.375   8.350  0.1020  1.5372  0.5794
 1111TIP3   OH224891   5.736   3.844   1.715  0.4163 -0.0779 -0.4132
 1111TIP3    H124892   5.782   3.909   1.769  0.4629 -0.6260  0.2197
 1111TIP3    H224893   5.729   3.767   1.771 -1.5277  0.0628 -0.3949
 1112TIP3   OH224894   1.195   5.011   1.886 -0.1069  0.5172  0.3820
 1112TIP3    H124895   1.286   5.041   1.884  0.4116 -0.9370 -1.6335
 1112TIP3    H224896   1.151   5.064   1.820 -0.6647  1.0097  1.1400
 1113TIP3   OH224897   6.403   4.041   1.193  0.6162 -0.3092 -0.0216
 1113TIP3    H124898   6.471   4.102   1.221  0.4428  0.0823 -0.4335
 1113TIP3    H224899   6.340   4.096   1.145  0.6467 -0.8786 -0.7270
 1114TIP3   OH224900   0.522   3.784   2.275  0.2605  0.0467  0.1723
 1114TIP3    H124901   0.571   3.866   2.283 -1.0640  0.7298  1.8792
 1114TIP3    H224902   0.431   3.810   2.285 -0.1244 -1.7683  2.0953
 1115TIP3   OH224903   3.846   1.194   7.123 -0.4614  0.3366  0.0816
 1115TIP3    H124904   3.896   1.116   7.100 -0.5173  1.0585 -2.8324
 1115TIP3    H224905   3.814   1.177   7.212  0.4285 -2.4478 -0.0541
 1116TIP3   OH224906   6.725   5.023   0.830 -0.4215  0.0292  0.5983
 1116TIP3    H124907   6.640   5.003   0.869 -1.6855 -1.6172 -2.6421
 1116TIP3    H224908   6.766   4.938   0.816 -0.7881  0.2751 -2.9299
 1117TIP3   OH224909   2.228   4.332   8.301  0.3443 -0.3057  0.0334
 1117TIP3    H124910   2.143   4.288   8.301 -1.0337  1.9110  3.3711
 1117TIP3    H224911   2.212   4.415   8.256  0.0457  0.9541  2.2701
 1118TIP3   OH224912   6.391   5.873   0.605  0.5670  0.1973 -0.3197
 1118TIP3    H124913   6.361   5.878   0.514  0.8123 -2.3396 -0.6111
 1118TIP3    H224914   6.485   5.859   0.599  0.5165 -0.4846  0.2971
 1119TIP3   OH224915   0.592   2.934   1.413  0.1569  0.3175  0.1178
 1119TIP3    H124916   0.519   2.874   1.400 -0.8141  1.3996  0.3726
 1119TIP3    H224917   0.664   2.896   1.362 -0.8532 -0.2951 -0.9009
 1120TIP3   OH224918   3.927   5.865   1.968  0.0667 -0.0502 -0.5305
 1120TIP3    H124919   3.891   5.777   1.980  0.1286 -0.4027 -2.6813
 1120TIP3    H224920   4.012   5.862   2.012 -0.4320 -0.6622  0.4489
 1121TIP3   OH224921   1.454   3.959   0.914  0.3306 -0.2514  0.6073
 1121TIP3    H124922   1.366   3.968   0.951 -1.8787 -0.0786 -3.9717
 1121TIP3    H224923   1.471   3.865   0.915 -0.7976 -0.4828 -0.1265
 1122TIP3   OH224924   6.079   4.305   2.394 -0.2754  0.6116 -0.4350
 1122TIP3    H124925   6.009   4.240   2.401 -0.1026  0.5501  1.0390
 1122TIP3    H224926   6.035   4.389   2.407  0.2114  0.4469  4.0425
 1123TIP3   OH224927   0.730   2.774   2.342  0.0428  0.3657  0.1255
 1123TIP3    H124928   0.779   2.829   2.403  2.5192 -1.6401  0.1112
 1123TIP3    H224929   0.686   2.710   2.397 -0.9673  0.9254 -0.0026
 1124TIP3   OH224930   5.404   6.204   1.351  0.1104 -0.1873  0.2984
 1124TIP3    H124931   5.336   6.155   1.304  1.4771 -0.3045 -1.7106
 1124TIP3    H224932   5.356   6.270   1.401 -1.4955  0.0210 -1.3912
 1125TIP3   OH224933   2.217   1.644   8.479 -0.1934 -0.2190  0.5227
 1125TIP3    H124934   2.175   1.647   8.393 -1.4268  0.2851  1.1272
 1125TIP3    H224935   2.190   1.725   8.523  1.2438  0.0268  1.0278
 1126TIP3   OH224936   5.261   5.466   6.471  0.3398  0.1143 -0.3043
 1126TIP3    H124937   5.355   5.483   6.464  1.0332 -3.0727 -0.0514
 1126TIP3    H224938   5.221   5.526   6.408  2.7056  0.3511 -1.7065
 1127TIP3   OH224939   0.783   2.709   6.384  0.2055 -0.7987 -0.1907
 1127TIP3    H124940   0.810   2.785   6.332 -0.9526 -1.4944 -1.8976
 1127TIP3    H224941   0.854   2.646   6.373  2.2950  0.6897  3.0510
 1128TIP3   OH224942   6.507   3.365   1.429  0.4021 -0.1777  0.1537
 1128TIP3    H124943   6.477   3.452   1.456  0.0128 -0.2759  0.0485
 1128TIP3    H224944   6.444   3.305   1.470 -1.5131 -0.2469 -2.6259
 1129TIP3   OH224945   2.938   4.015   7.361  0.5022 -0.3012 -0.5230
 1129TIP3    H124946   2.850   3.978   7.355  0.2718  0.4032 -1.8587
 1129TIP3    H224947   2.981   3.988   7.280  0.6343  1.5188 -1.0998
 1130TIP3   OH224948   2.898   0.470   6.554 -0.6038 -0.8070  0.9590
 1130TIP3    H124949   2.956   0.449   6.626  1.5476 -1.6539 -0.8839
 1130TIP3    H224950   2.839   0.395   6.547 -0.8221 -0.7200  1.7945
 1131TIP3   OH224951   5.942   0.004   1.536 -0.2959 -0.0415  0.3664
 1131TIP3    H124952   5.875  -0.048   1.580 -2.2860  1.7082 -0.3891
 1131TIP3    H224953   5.924  -0.008   1.442  2.1202 -1.5250  0.0052
 1132TIP3   OH224954   6.028   2.154   6.994 -0.1504 -0.3996 -0.1425
 1132TIP3    H124955   5.959   2.167   6.930  1.6140  0.9801 -1.8783
 1132TIP3    H224956   6.091   2.223   6.976  2.7409 -2.8280 -0.0717
 1133TIP3   OH224957   0.989   3.445   0.221 -0.0032 -0.2559  0.2728
 1133TIP3    H124958   0.931   3.396   0.280 -1.4134  3.0820  1.9450
 1133TIP3    H224959   1.065   3.467   0.274  0.3730 -0.2069 -0.2765
 1134TIP3   OH224960   4.661   0.635   0.146  0.4591 -0.0135  0.8229
 1134TIP3    H124961   4.720   0.590   0.085  0.2432  1.8675 -0.8853
 1134TIP3    H224962   4.718   0.672   0.213  0.9080 -0.5124  0.7234
 1135TIP3   OH224963   6.162   1.323   1.011 -0.5492  0.0396  0.6413
 1135TIP3    H124964   6.183   1.266   0.938 -0.4068 -0.2837  0.9307
 1135TIP3    H224965   6.089   1.377   0.980  0.2897  0.7380 -0.1472
 1136TIP3   OH224966   6.014   1.234   0.221  0.2191  0.1810  0.5247
 1136TIP3    H124967   6.004   1.328   0.210 -0.2884  0.1160  0.3926
 1136TIP3    H224968   5.924   1.200   0.225  0.3818 -0.4100 -0.4510
 1137TIP3   OH224969   2.947   1.310   1.991  0.2771 -0.3748 -0.1698
 1137TIP3    H124970   2.948   1.316   1.895 -0.2970  0.2921 -0.1395
 1137TIP3    H224971   2.951   1.401   2.020 -1.7162 -0.4395  0.4132
 1138TIP3   OH224972   6.417   3.715   2.552 -0.0851  0.1633 -1.0816
 1138TIP3    H124973   6.454   3.671   2.628  1.2775  1.6422 -0.8419
 1138TIP3    H224974   6.411   3.807   2.578  1.1355  0.8339 -3.0131
 1139TIP3   OH224975   2.085   2.481   1.084 -0.5163  0.0766  0.2596
 1139TIP3    H124976   2.126   2.427   1.017  0.1706  0.3520  0.4525
 1139TIP3    H224977   1.994   2.488   1.056 -0.6582 -1.2861  0.3041
 1140TIP3   OH224978   0.260   5.595   8.497  0.0744 -0.2375 -0.8370
 1140TIP3    H124979   0.274   5.684   8.529  0.5144 -0.3336 -0.7548
 1140TIP3    H224980   0.203   5.555   8.563  1.5503 -0.6560  0.2397
 1141TIP3   OH224981   1.264   2.775   7.481 -0.0790 -0.6945  0.5475
 1141TIP3    H124982   1.248   2.851   7.537  1.4448 -0.6359  0.9409
 1141TIP3    H224983   1.224   2.798   7.397  0.1140  0.4254  0.7536
 1142TIP3   OH224984   4.778   0.142   8.380  0.0421 -0.0528  0.3597
 1142TIP3    H124985   4.787   0.227   8.423 -3.7655 -0.5140  2.6270
 1142TIP3    H224986   4.867   0.115   8.359  1.5083  3.7553  0.9755
 1143TIP3   OH224987   1.523   5.355   7.990 -0.6832  0.3174 -0.2015
 1143TIP3    H124988   1.513   5.450   7.985 -1.7579  0.2962  1.0884
 1143TIP3    H224989   1.534   5.336   8.083  2.1033 -0.6326 -0.6256
 1144TIP3   OH224990   6.641   4.569   0.804  0.5262 -0.3579  0.3118
 1144TIP3    H124991   6.666   4.581   0.896 -2.0570 -1.4640  1.2582
 1144TIP3    H224992   6.664   4.478   0.785  0.9991 -0.1481 -0.1301
 1145TIP3   OH224993   1.132   5.049   8.245  0.4784 -0.0292 -0.0343
 1145TIP3    H124994   1.110   5.107   8.317  1.2724 -1.7409  1.6751
 1145TIP3    H224995   1.091   5.089   8.168 -2.4871  0.5958  1.7313
 1146TIP3   OH224996   4.411   5.175   1.243 -0.1695 -0.1622  0.2002
 1146TIP3    H124997   4.470   5.218   1.182 -0.2736 -1.2573 -0.7001
 1146TIP3    H224998   4.461   5.171   1.325  1.3847 -1.7957 -0.7443
 1147TIP3   OH224999   0.563   3.193   1.432  0.3834 -0.0417 -0.1874
 1147TIP3    H125000   0.648   3.223   1.398  1.2995 -1.5903  0.6176
 1147TIP3    H225001   0.563   3.099   1.414 -1.5231  0.0571 -0.8707
 1148TIP3   OH225002   3.246   1.263   6.612  0.2807 -0.1494 -0.7906
 1148TIP3    H125003   3.212   1.327   6.550  0.0102 -1.2911 -1.8611
 1148TIP3    H225004   3.207   1.180   6.584  1.7454 -1.0199 -0.3270
 1149TIP3   OH225005   0.923   1.516   1.618 -0.2259  0.1981  0.1092
 1149TIP3    H125006   0.937   1.592   1.674 -3.5013 -0.7379  2.4557
 1149TIP3    H225007   0.851   1.542   1.559 -1.9166 -1.1870  1.4420
 1150TIP3   OH225008   0.076   4.636   1.799  0.0016 -0.0013  0.0510
 1150TIP3    H125009   0.056   4.589   1.880  1.4789 -1.7475 -0.5387
 1150TIP3    H225010   0.073   4.568   1.731  0.3849  1.1296 -1.1259
 1151TIP3   OH225011   3.869   0.015   0.939  0.7030  0.5887 -0.2912
 1151TIP3    H125012   3.809   0.071   0.890  0.5501  0.6080 -0.0829
 1151TIP3    H225013   3.896  -0.052   0.876 -2.3564 -1.6098  0.5523
 1152TIP3   OH225014   3.830   5.754   0.689 -0.4728  0.1438  0.2790
 1152TIP3    H125015   3.881   5.835   0.681  1.1252 -0.8843 -0.6767
 1152TIP3    H225016   3.740   5.780   0.673 -0.0151  1.7548  0.1214
 1153TIP3   OH225017   6.228   1.940   7.028 -0.4698 -0.2984 -0.0427
 1153TIP3    H125018   6.154   1.997   7.006  1.2540  0.7933 -4.1021
 1153TIP3    H225019   6.228   1.874   6.959  1.9805 -0.5971  0.1670
 1154TIP3   OH225020   4.507   5.242   0.810  0.1330 -0.1286  0.3038
 1154TIP3    H125021   4.413   5.224   0.807  0.1775 -0.4665  0.7757
 1154TIP3    H225022   4.521   5.280   0.897  0.3111  0.6661 -0.0555
 1155TIP3   OH225023   6.741   3.613   1.034  0.0161 -0.7476 -0.7156
 1155TIP3    H125024   6.752   3.540   0.973 -0.3299 -2.6636  1.4136
 1155TIP3    H225025   6.812   3.602   1.097  0.6876  1.5034 -0.9766
 1156TIP3   OH225026   0.317   6.307   2.288 -0.0291  0.2847  0.4508
 1156TIP3    H125027   0.322   6.328   2.195  0.5904  2.8828  0.9610
 1156TIP3    H225028   0.228   6.274   2.301  0.0617 -0.6888 -1.1225
 1157TIP3   OH225029   5.176   6.599   6.380 -0.6334 -0.4965  0.2285
 1157TIP3    H125030   5.197   6.668   6.443  0.1659  0.1680 -0.7494
 1157TIP3    H225031   5.239   6.611   6.309 -1.6784 -1.0799 -0.8196
 1158TIP3   OH225032   2.876   1.545   7.747  0.0453 -0.3154 -0.1557
 1158TIP3    H125033   2.949   1.494   7.782  1.3555  1.6737  0.1419
 1158TIP3    H225034   2.843   1.595   7.821 -0.4970  0.0890 -0.6574
 1159TIP3   OH225035   4.562   0.975   0.318  0.4278 -0.5372 -0.1564
 1159TIP3    H125036   4.500   0.931   0.259 -0.3500  0.1418  0.1333
 1159TIP3    H225037   4.618   1.026   0.260  0.6548 -1.0710 -0.4147
 1160TIP3   OH225038   3.471   1.835   6.549 -0.7402 -0.3430  0.5884
 1160TIP3    H125039   3.563   1.849   6.527 -0.5388  1.1571  2.2074
 1160TIP3    H225040   3.465   1.740   6.563  0.2490 -0.6328 -0.7536
 1161TIP3   OH225041   2.396   0.330   7.466  0.0152  0.0894 -0.2521
 1161TIP3    H125042   2.487   0.302   7.472  0.3792  1.4107  0.9610
 1161TIP3    H225043   2.399   0.408   7.410 -0.4436 -0.1547 -0.6223
 1162TIP3   OH225044   0.695   2.875   6.632 -0.1905 -0.5777  0.7273
 1162TIP3    H125045   0.784   2.888   6.601 -0.7849  0.5168 -0.6446
 1162TIP3    H225046   0.657   2.813   6.570 -0.6607 -0.3052  0.7346
 1163TIP3   OH225047   0.542   3.531   7.962 -0.2302 -0.3375 -0.4857
 1163TIP3    H125048   0.516   3.623   7.969 -1.3242 -0.6938  0.5568
 1163TIP3    H225049   0.575   3.523   7.873 -1.6050  0.7153 -1.1445
 1164TIP3   OH225050   0.807   0.703   7.773  0.0184  0.0959  0.4823
 1164TIP3    H125051   0.844   0.791   7.781  1.7225 -0.4479 -0.6902
 1164TIP3    H225052   0.722   0.708   7.816  1.3816  1.4907  3.3136
 1165TIP3   OH225053   6.602   1.087   6.983 -0.1890  0.2816 -0.2459
 1165TIP3    H125054   6.628   1.157   6.923  1.6391  0.9296  1.2255
 1165TIP3    H225055   6.668   1.088   7.052 -0.9927 -1.8941  0.6461
 1166TIP3   OH225056   0.352   1.075   6.523  0.4104 -0.5840 -0.1662
 1166TIP3    H125057   0.444   1.089   6.499 -0.1525  0.1785 -2.0178
 1166TIP3    H225058   0.326   1.158   6.565  0.2745 -0.3815 -0.6438
 1167TIP3   OH225059   0.721   6.631   7.326  0.1227 -0.5661 -0.4479
 1167TIP3    H125060   0.635   6.595   7.305 -0.4121  0.3001  0.1720
 1167TIP3    H225061   0.715   6.654   7.418  0.4622  0.9932 -0.7919
 1168TIP3   OH225062   4.163   1.081   7.300 -0.0089 -0.0961 -0.0810
 1168TIP3    H125063   4.214   1.161   7.289 -0.6842  0.6014  1.5743
 1168TIP3    H225064   4.124   1.065   7.215 -0.2764  1.6223 -0.3027
 1169TIP3   OH225065   5.144   5.716   7.440  0.5901 -0.1451 -0.2499
 1169TIP3    H125066   5.188   5.662   7.374  1.0758  0.3830 -0.3681
 1169TIP3    H225067   5.054   5.685   7.441  0.6735 -0.4148 -0.8907
 1170TIP3   OH225068   4.056   1.512   1.134 -0.3968 -0.2385  0.0134
 1170TIP3    H125069   4.071   1.600   1.099 -0.6133  0.4008  1.4694
 1170TIP3    H225070   4.140   1.486   1.171 -0.2209 -0.8401 -0.7636
 1171TIP3   OH225071   2.446   3.141   0.144  0.1465  0.8014  0.1807
 1171TIP3    H125072   2.393   3.066   0.118  0.9977 -0.4635  1.8574
 1171TIP3    H225073   2.411   3.166   0.230  0.2587  1.9708 -0.0937
 1172TIP3   OH225074   3.998   2.490   6.966 -0.3978  0.5590 -0.1576
 1172TIP3    H125075   4.053   2.509   7.042 -0.9466 -1.3399  0.7770
 1172TIP3    H225076   3.910   2.482   7.001 -0.7247  0.0982 -1.0628
 1173TIP3   OH225077   2.766   4.387   0.530  0.3313 -0.4874  0.0594
 1173TIP3    H125078   2.768   4.291   0.524  0.2038 -0.6208  1.5762
 1173TIP3    H225079   2.847   4.416   0.488  1.9702 -1.4916  2.3156
 1174TIP3   OH225080   1.131   6.063   7.196  0.0423 -0.2032 -0.1494
 1174TIP3    H125081   1.201   6.104   7.247  0.7273 -0.5519 -0.8008
 1174TIP3    H225082   1.066   6.038   7.262  0.7202 -0.2763  0.5128
 1175TIP3   OH225083   0.339   1.743   8.096 -0.4060  0.2196 -0.1460
 1175TIP3    H125084   0.418   1.691   8.111  0.8068  1.9072 -0.2867
 1175TIP3    H225085   0.281   1.685   8.047  0.6207 -1.1695  0.2058
 1176TIP3   OH225086   3.853   3.425   7.507  0.3076 -0.1613  0.1485
 1176TIP3    H125087   3.812   3.359   7.451  0.6619 -0.5140  0.2985
 1176TIP3    H225088   3.848   3.389   7.595 -0.1501  0.3446  0.3299
 1177TIP3   OH225089   5.417   1.553   1.942  0.4453  0.2289 -0.1920
 1177TIP3    H125090   5.497   1.508   1.915  0.4490  0.9091 -1.3767
 1177TIP3    H225091   5.447   1.633   1.986  0.4131  0.0769  0.1128
 1178TIP3   OH225092   3.136   0.043   8.597  0.2853  0.3751  0.2185
 1178TIP3    H125093   3.175  -0.040   8.573  0.9606  1.0545 -1.0886
 1178TIP3    H225094   3.209   0.105   8.601 -0.5164  1.4993 -1.5267
 1179TIP3   OH225095   4.146   4.652   0.193  0.7761 -0.3897 -0.0731
 1179TIP3    H125096   4.225   4.610   0.226  0.8456 -0.1462  0.0742
 1179TIP3    H225097   4.156   4.650   0.097  1.3667  0.3959 -0.0430
 1180TIP3   OH225098   6.775   1.689   7.703 -0.0025 -0.3955  0.2762
 1180TIP3    H125099   6.829   1.662   7.777 -0.9363 -0.7653  0.8420
 1180TIP3    H225100   6.695   1.637   7.712 -0.2170 -0.2859 -0.8753
 1181TIP3   OH225101   6.117   2.211   8.512 -0.1848 -0.0127  0.0263
 1181TIP3    H125102   6.170   2.178   8.584  0.9609 -0.5525 -1.0246
 1181TIP3    H225103   6.147   2.162   8.436 -0.1246  1.7322 -1.1429
 1182TIP3   OH225104   5.733   1.506   8.602 -0.0055  0.5021 -0.2076
 1182TIP3    H125105   5.798   1.573   8.582 -0.4837  0.4969 -1.8929
 1182TIP3    H225106   5.653   1.554   8.623  0.0799  0.4826  0.1639
 1183TIP3   OH225107   5.315   5.976   0.239  0.1207  0.5076  0.0375
 1183TIP3    H125108   5.258   5.923   0.183  1.8546 -0.0945 -1.2347
 1183TIP3    H225109   5.263   5.993   0.317 -1.4978 -0.6882 -0.7296
 1184TIP3   OH225110   1.821   4.931   8.593 -0.2453 -0.2459 -0.1877
 1184TIP3    H125111   1.794   5.018   8.624 -0.1165 -0.0546 -0.6124
 1184TIP3    H225112   1.855   4.888   8.671 -0.5213  0.0023  0.0743
 1185TIP3   OH225113   2.479   0.955   0.037  0.1483  0.2940 -0.1299
 1185TIP3    H125114   2.415   0.934  -0.031 -0.9517 -0.7763  1.1757
 1185TIP3    H225115   2.547   0.888   0.028 -1.4826 -1.7464  1.6322
 1186TIP3   OH225116   6.866   3.977   1.137  0.4928 -0.0727  0.2632
 1186TIP3    H125117   6.814   3.977   1.056  0.2469  1.8103  0.3891
 1186TIP3    H225118   6.823   3.911   1.191 -0.5165 -0.0184 -0.4277
 1187TIP3   OH225119   3.223   4.097   1.452  0.2645 -0.1053 -0.5858
 1187TIP3    H125120   3.210   4.035   1.380  2.9787  0.5896 -1.7888
 1187TIP3    H225121   3.174   4.174   1.426  2.0074  0.5123 -2.2974
 1188TIP3   OH225122   0.576   6.301   0.822  0.6939  0.4289 -0.3114
 1188TIP3    H125123   0.612   6.214   0.842 -1.6056 -0.8702 -1.4097
 1188TIP3    H225124   0.519   6.322   0.895  2.0582  1.5735  0.4744
 1189TIP3   OH225125   5.045   6.274   8.608 -0.2131  0.1863  0.4123
 1189TIP3    H125126   5.053   6.180   8.593  0.7528  0.4073 -0.6606
 1189TIP3    H225127   4.952   6.289   8.619 -0.7659 -0.5250 -2.4392
 1190TIP3   OH225128   3.928   1.620   7.637 -0.2054 -0.2052  0.3998
 1190TIP3    H125129   4.005   1.612   7.692  0.6712 -1.2883 -0.9432
 1190TIP3    H225130   3.960   1.658   7.556 -1.6627  2.4379  0.9437
 1191TIP3   OH225131   0.788   2.360   1.413 -0.2055 -0.2467  0.2989
 1191TIP3    H125132   0.731   2.407   1.351  1.2370 -0.6276 -1.3890
 1191TIP3    H225133   0.850   2.313   1.358  0.6982 -1.2112  2.0480
 1192TIP3   OH225134   4.431   5.764   2.441  0.0577 -0.1499 -0.0581
 1192TIP3    H125135   4.511   5.810   2.416  0.0274 -0.2383 -0.3251
 1192TIP3    H225136   4.389   5.822   2.504  1.5310 -1.1631  2.0017
 1193TIP3   OH225137   6.654   6.664   0.700  0.1025  0.0933 -1.1925
 1193TIP3    H125138   6.628   6.754   0.677 -1.9153 -0.5080 -1.4647
 1193TIP3    H225139   6.656   6.664   0.796  1.8170  0.8418 -1.1970
 1194TIP3   OH225140   0.366   0.377   6.570  0.3469 -0.1049 -0.3402
 1194TIP3    H125141   0.347   0.408   6.481  2.2545  0.4038 -0.6168
 1194TIP3    H225142   0.384   0.456   6.620 -0.8642 -0.3789  0.5809
 1195TIP3   OH225143   6.380   6.409   8.209 -0.5141  0.0611  0.4377
 1195TIP3    H125144   6.322   6.448   8.144 -1.3068  0.5523  1.4245
 1195TIP3    H225145   6.378   6.315   8.189 -0.6514  0.2141 -0.3121
 1196TIP3   OH225146   3.897   2.982   6.462  0.4104  0.5402 -0.1267
 1196TIP3    H125147   3.886   3.033   6.542 -0.4277 -1.5375  1.1608
 1196TIP3    H225148   3.989   2.994   6.439  0.2772  2.4956  0.1670
 1197TIP3   OH225149   5.600   0.619   1.532  0.0379  0.3587  0.1316
 1197TIP3    H125150   5.583   0.640   1.624 -1.5502 -0.9022  0.1657
 1197TIP3    H225151   5.514   0.622   1.490  0.2411 -2.2269 -0.6165
 1198TIP3   OH225152   4.986   0.289   0.126 -0.2297 -0.2320 -0.2096
 1198TIP3    H125153   4.924   0.216   0.129  1.2587 -1.5268 -0.0023
 1198TIP3    H225154   4.931   0.367   0.138 -1.6030 -1.4133  1.8200
 1199TIP3   OH225155   6.540   6.824   7.563 -0.6611  0.0127 -0.2899
 1199TIP3    H125156   6.456   6.792   7.528  0.1731 -0.3361 -2.1287
 1199TIP3    H225157   6.606   6.775   7.513  0.6503  0.2639  1.1345
 1200TIP3   OH225158   6.287   6.132   1.142  0.6578 -0.5092 -0.3994
 1200TIP3    H125159   6.338   6.148   1.063  1.2885  0.8340  0.2636
 1200TIP3    H225160   6.305   6.207   1.198 -2.4627  0.3377 -0.3400
 1201TIP3   OH225161   1.762   3.953   8.610 -0.9030  0.5221 -0.3666
 1201TIP3    H125162   1.838   4.010   8.611 -0.2896 -0.2631 -0.7463
 1201TIP3    H225163   1.796   3.868   8.639 -1.9999  0.5701  1.2104
 1202TIP3   OH225164   6.635   1.899   0.301 -0.2819 -0.7954 -0.2089
 1202TIP3    H125165   6.695   1.825   0.293 -0.7688 -1.0558 -1.7005
 1202TIP3    H225166   6.606   1.897   0.392  0.5914 -1.7363  0.0589
 1203TIP3   OH225167   6.512   1.093   1.230  0.7143  0.0690 -0.1097
 1203TIP3    H125168   6.475   1.089   1.142  1.0682 -0.2548 -0.2435
 1203TIP3    H225169   6.592   1.041   1.226 -0.5448 -2.1321  1.0427
 1204TIP3   OH225170   0.991   4.850   7.867 -0.1474 -0.2706  0.1313
 1204TIP3    H125171   0.993   4.835   7.962  1.5691 -0.0144  0.1670
 1204TIP3    H225172   1.005   4.764   7.829 -2.5862 -0.6919  0.0161
 1205TIP3   OH225173   2.829   0.389   0.075  0.1857 -0.3977  0.0239
 1205TIP3    H125174   2.787   0.396  -0.011  0.7006 -0.6820 -0.2606
 1205TIP3    H225175   2.915   0.351   0.056  0.6554  0.3627  0.5645
 1206TIP3   OH225176   6.643   2.530   8.009  0.1499  0.2766  0.0337
 1206TIP3    H125177   6.693   2.611   8.020  0.8353 -0.0554 -0.5685
 1206TIP3    H225178   6.593   2.543   7.928  0.5205 -0.0379 -0.2437
 1207TIP3   OH225179   4.740   4.465   7.823 -0.1392  0.4113  0.3174
 1207TIP3    H125180   4.772   4.518   7.750 -1.9350  0.6067 -0.3880
 1207TIP3    H225181   4.709   4.384   7.782 -1.8531  0.8263  0.7233
 1208TIP3   OH225182   5.883   0.720   0.503  0.3990 -0.3163  0.2649
 1208TIP3    H125183   5.812   0.703   0.565 -0.7574  0.7323 -0.7219
 1208TIP3    H225184   5.958   0.742   0.559 -0.4874  0.1589  1.3265
 1209TIP3   OH225185   5.351   0.627   8.504 -0.0902  0.2730 -0.5101
 1209TIP3    H125186   5.276   0.687   8.497  0.3266  1.0596  1.1909
 1209TIP3    H225187   5.311   0.540   8.506 -0.9766  0.6718  0.1521
 1210TIP3   OH225188   1.655   0.676   2.298  0.5910  0.2060 -0.4499
 1210TIP3    H125189   1.741   0.682   2.256  1.1352 -1.0858  0.4201
 1210TIP3    H225190   1.671   0.692   2.390  0.1480 -1.3945 -0.0578
 1211TIP3   OH225191   3.671   5.685   6.721 -0.8966 -0.5073 -0.2344
 1211TIP3    H125192   3.744   5.658   6.776  0.2816 -1.6764 -2.2577
 1211TIP3    H225193   3.679   5.632   6.642 -0.2725  3.4885 -3.2128
 1212TIP3   OH225194   1.406   6.525   1.836 -0.5914 -0.0854  0.1520
 1212TIP3    H125195   1.434   6.541   1.926 -1.0552  1.1936  0.0936
 1212TIP3    H225196   1.475   6.470   1.798  0.4199  0.6682  0.8328
 1213TIP3   OH225197   0.717   6.394   8.087  0.2614  0.2360  0.4638
 1213TIP3    H125198   0.727   6.489   8.086  1.9735  0.1008  0.8565
 1213TIP3    H225199   0.707   6.372   8.180  4.1502 -0.2284  0.9618
 1214TIP3   OH225200   3.790   6.811   1.196 -0.0352  0.7227  0.2136
 1214TIP3    H125201   3.811   6.848   1.111  1.0530 -1.6560 -0.6548
 1214TIP3    H225202   3.858   6.844   1.255 -0.0735  1.4111 -0.1211
 1215TIP3   OH225203   1.709   0.007   8.035 -0.9025  0.0810  0.4748
 1215TIP3    H125204   1.692  -0.087   8.046 -0.5847 -0.1016 -0.4482
 1215TIP3    H225205   1.796   0.020   8.074  0.1620 -0.5286 -1.5408
 1216TIP3   OH225206   1.288   1.263   0.842 -0.0152  0.1040 -0.2040
 1216TIP3    H125207   1.269   1.357   0.833  0.0934  0.0595 -0.9631
 1216TIP3    H225208   1.290   1.230   0.752  2.7009 -0.0850 -0.1744
 1217TIP3   OH225209   2.704   1.524   0.181 -0.4843 -0.1452  0.1064
 1217TIP3    H125210   2.643   1.597   0.181 -0.0581  0.2309 -0.3991
 1217TIP3    H225211   2.657   1.453   0.139 -0.2560  0.4503 -1.2235
 1218TIP3   OH225212   4.226   5.514   7.860  0.1402  0.0137  0.2618
 1218TIP3    H125213   4.297   5.452   7.874  0.2003  0.1197  0.4377
 1218TIP3    H225214   4.146   5.461   7.859  0.2511 -0.1488 -0.2903
 1219TIP3   OH225215   4.737   6.083   7.975  0.1110  0.2403 -0.4000
 1219TIP3    H125216   4.746   6.033   7.894 -1.9681 -0.1564 -0.4332
 1219TIP3    H225217   4.793   6.037   8.038 -1.0269 -1.6405 -0.6775
 1220TIP3   OH225218   0.175   1.590   8.431  0.3792 -0.0697 -0.1634
 1220TIP3    H125219   0.123   1.653   8.380  0.2593 -0.7757 -0.9459
 1220TIP3    H225220   0.234   1.644   8.483 -0.1140  0.7046 -0.3795
 1221TIP3   OH225221   0.960   1.857   6.582 -0.0032  0.1047 -0.2123
 1221TIP3    H125222   1.031   1.807   6.623  0.0295  0.8892  0.7180
 1221TIP3    H225223   0.987   1.949   6.591 -2.2555  0.6291  2.4713
 1222TIP3   OH225224   6.082   5.473   2.140 -0.1853 -0.0086 -0.0267
 1222TIP3    H125225   6.158   5.528   2.126 -1.4025  1.2907 -2.0406
 1222TIP3    H225226   6.059   5.486   2.232  1.5375  0.1597  0.4110
 1223TIP3   OH225227   0.418   3.645   0.728 -0.2307  0.0193 -0.1156
 1223TIP3    H125228   0.491   3.629   0.788 -1.2014 -0.8754  0.8740
 1223TIP3    H225229   0.414   3.740   0.719 -0.0942  0.1768  1.3116
 1224TIP3   OH225230   1.473   0.793   2.015 -0.1221 -0.3279  0.0678
 1224TIP3    H125231   1.425   0.872   1.989  0.6946 -0.1275 -0.9162
 1224TIP3    H225232   1.522   0.819   2.093 -1.3977 -0.4688  0.9512
 1225TIP3   OH225233   5.432   1.277   2.090  0.0633  0.3100 -0.3073
 1225TIP3    H125234   5.342   1.291   2.118 -0.3655  0.3613 -1.6454
 1225TIP3    H225235   5.425   1.256   1.997  1.2934 -1.3781 -0.0550
 1226TIP3   OH225236   5.585   3.331   6.731 -0.0528 -0.4591  0.8276
 1226TIP3    H125237   5.533   3.282   6.794 -0.6943 -0.5050  0.2731
 1226TIP3    H225238   5.537   3.413   6.718  1.0304  0.3723  1.7889
 1227TIP3   OH225239   6.851   4.782   1.398 -0.1629  0.3615 -0.1706
 1227TIP3    H125240   6.815   4.775   1.487 -3.4494  1.3501 -1.2755
 1227TIP3    H225241   6.857   4.692   1.367 -0.5350  0.0963  0.5024
 1228TIP3   OH225242   3.462   0.736   7.131 -0.1020 -0.1226  0.0522
 1228TIP3    H125243   3.379   0.691   7.115 -1.0557  1.7925 -0.7294
 1228TIP3    H225244   3.478   0.725   7.224 -0.2071 -2.1137 -0.1083
 1229TIP3   OH225245   1.608   1.721   1.724  0.9505 -0.0900 -0.3704
 1229TIP3    H125246   1.613   1.625   1.725 -1.3245 -0.2871 -0.6721
 1229TIP3    H225247   1.558   1.743   1.803  1.6328  0.8704 -0.1985
 1230TIP3   OH225248   2.698   3.174   7.603  0.1577  0.1819 -0.4521
 1230TIP3    H125249   2.745   3.231   7.663 -2.4336  0.8604  1.0934
 1230TIP3    H225250   2.647   3.233   7.548 -0.3104 -0.5461 -0.8179
 1231TIP3   OH225251   2.908   3.573   1.713  0.6533  0.3600  0.2844
 1231TIP3    H125252   2.944   3.662   1.719 -0.2587  0.6500  2.1392
 1231TIP3    H225253   2.905   3.542   1.804 -3.4407  0.2681  0.3165
 1232TIP3   OH225254   3.709   0.490   0.689  0.0968  0.0104 -0.0227
 1232TIP3    H125255   3.707   0.585   0.679  2.9708  0.0606 -1.1899
 1232TIP3    H225256   3.787   0.473   0.742 -0.4336 -1.6892  0.2647
 1233TIP3   OH225257   4.497   5.782   0.149  0.2128  0.1978  0.4544
 1233TIP3    H125258   4.466   5.862   0.109 -1.5054 -1.4766 -1.8091
 1233TIP3    H225259   4.592   5.783   0.136  0.0060  1.0332 -1.1553
 1234TIP3   OH225260   2.397   5.091   8.314  0.5369  0.1349  0.2554
 1234TIP3    H125261   2.466   5.157   8.306 -0.0828  0.8020  0.3387
 1234TIP3    H225262   2.399   5.043   8.231  0.5167  0.7292 -0.0948
 1235TIP3   OH225263   4.311   5.968   2.580  0.5108 -0.0132 -0.6901
 1235TIP3    H125264   4.218   5.976   2.558  0.7498  1.9512 -1.2521
 1235TIP3    H225265   4.355   6.030   2.521  2.1291 -0.5669 -0.1335
 1236TIP3   OH225266   4.905   3.140   6.343 -0.0147 -0.7877 -1.0458
 1236TIP3    H125267   4.863   3.175   6.264 -0.8353  0.2750 -0.1702
 1236TIP3    H225268   4.901   3.045   6.333 -1.1021 -0.6804 -1.7745
 1237TIP3   OH225269   2.201   4.153   6.788  0.5605 -0.9360  0.6263
 1237TIP3    H125270   2.165   4.183   6.872  1.6642 -0.9184  1.1061
 1237TIP3    H225271   2.283   4.200   6.779  0.9086 -1.6460 -0.0201
 1238TIP3   OH225272   4.849   0.312   7.726 -0.5773 -0.1536 -0.1344
 1238TIP3    H125273   4.788   0.241   7.706 -0.2279  0.1008 -2.4702
 1238TIP3    H225274   4.869   0.350   7.640  1.5884  0.8156  0.7253
 1239TIP3   OH225275   2.119   3.116   6.947 -0.2798 -0.4160  0.9587
 1239TIP3    H125276   2.088   3.075   6.867  0.6628 -1.6095  1.1660
 1239TIP3    H225277   2.083   3.062   7.018  0.5564 -0.6096  1.2545
 1240TIP3   OH225278   2.871   0.220   8.228 -0.4249  0.8826  0.0257
 1240TIP3    H125279   2.874   0.311   8.259  0.6750  1.5284 -1.8198
 1240TIP3    H225280   2.780   0.194   8.238 -0.2446  1.1618  3.2585
 1241TIP3   OH225281   0.103   1.124   8.384  0.6527 -0.2358 -0.6201
 1241TIP3    H125282   0.150   1.059   8.330  0.7760 -1.3460  0.7695
 1241TIP3    H225283   0.022   1.080   8.408  0.0456  0.7165 -0.8855
 1242TIP3   OH225284   1.060   0.225   7.353 -0.0587  0.5446  0.3149
 1242TIP3    H125285   1.118   0.225   7.276  0.5620  0.3472  0.7771
 1242TIP3    H225286   0.993   0.290   7.332 -0.0641  0.2855 -0.5206
 1243TIP3   OH225287   3.758   5.313   8.097 -0.5176  0.1325  0.1060
 1243TIP3    H125288   3.757   5.302   8.192 -0.1910 -0.3663  0.0571
 1243TIP3    H225289   3.670   5.288   8.069 -0.2938 -0.7940  0.1748
 1244TIP3   OH225290   2.942   4.545   0.344  0.1989 -0.1533  0.1676
 1244TIP3    H125291   2.929   4.460   0.302 -1.0102 -1.0443  2.2048
 1244TIP3    H225292   3.031   4.541   0.378 -0.7619 -1.8473  2.7412
 1245TIP3   OH225293   3.619   3.836   1.871  0.4517 -0.7210  0.4077
 1245TIP3    H125294   3.574   3.910   1.912  0.7940 -0.6376  0.6331
 1245TIP3    H225295   3.551   3.769   1.863 -0.0772 -0.0754 -0.5997
 1246TIP3   OH225296   1.380   4.598   1.899 -0.2175 -0.1781 -0.0724
 1246TIP3    H125297   1.313   4.665   1.903 -0.3953 -0.4183  2.1518
 1246TIP3    H225298   1.335   4.522   1.861 -0.7369  0.1390 -0.1056
 1247TIP3   OH225299   3.291   4.554   7.842 -0.4869 -0.0485 -0.1451
 1247TIP3    H125300   3.297   4.513   7.755 -2.3650 -1.8042  0.4646
 1247TIP3    H225301   3.325   4.487   7.902  0.0102  0.8217  0.5679
 1248TIP3   OH225302   6.712   6.395   8.601 -0.1909  0.2835 -0.0285
 1248TIP3    H125303   6.678   6.443   8.525  0.3941  1.5211  0.4724
 1248TIP3    H225304   6.636   6.384   8.658 -0.4851 -0.0344 -0.4783
 1249TIP3   OH225305   2.637   6.616   8.514  0.9198 -0.1847  0.6150
 1249TIP3    H125306   2.716   6.668   8.505  0.8474 -0.5024 -3.0948
 1249TIP3    H225307   2.638   6.556   8.440 -1.5361 -2.0108  1.8957
 1250TIP3   OH225308   1.764   6.627   7.015  0.3028  0.3561  0.1977
 1250TIP3    H125309   1.824   6.639   6.941  0.6005  0.1590  0.4062
 1250TIP3    H225310   1.814   6.658   7.091  0.8328 -1.5018  0.6486
 1251TIP3   OH225311   5.099   2.164   7.465 -0.6836  0.1414 -0.8004
 1251TIP3    H125312   5.159   2.230   7.499  0.1024 -1.0661  0.2936
 1251TIP3    H225313   5.119   2.158   7.372  0.2855  0.4028 -0.6201
 1252TIP3   OH225314   2.840   5.741   1.023  0.0239 -0.1118 -0.1923
 1252TIP3    H125315   2.807   5.684   1.092 -0.4629 -0.0270 -0.3467
 1252TIP3    H225316   2.802   5.705   0.943  1.0986 -0.5954 -0.4978
 1253TIP3   OH225317   1.158   2.083   1.184 -0.5653  0.1122 -0.0918
 1253TIP3    H125318   1.239   2.049   1.222  0.6194  1.1893 -1.5685
 1253TIP3    H225319   1.148   2.035   1.102 -0.5067  1.1675 -0.7261
 1254TIP3   OH225320   2.054   1.260   1.914  0.3666 -0.6706 -0.2140
 1254TIP3    H125321   2.145   1.233   1.926  0.6733  0.2628 -0.3247
 1254TIP3    H225322   2.054   1.353   1.939 -0.6576 -0.7850  0.2619
 1255TIP3   OH225323   2.968   4.289   7.252 -0.2489  0.1880  0.1175
 1255TIP3    H125324   2.976   4.197   7.229 -0.3432  0.4647 -1.0856
 1255TIP3    H225325   3.054   4.326   7.235 -0.3684  0.4342  0.0326
 1256TIP3   OH225326   0.043   1.757   6.557 -0.0499 -0.0670 -0.1459
 1256TIP3    H125327   0.107   1.815   6.515  0.8398 -0.0900  1.1138
 1256TIP3    H225328   0.087   1.673   6.563 -0.9618 -0.6367 -1.0464
 1257TIP3   OH225329   3.083   4.309   1.323 -0.1935 -0.3309 -0.3441
 1257TIP3    H125330   3.002   4.258   1.312  0.2213 -0.8127 -1.2923
 1257TIP3    H225331   3.054   4.400   1.320 -0.6403 -0.4887 -1.4015
 1258TIP3   OH225332   0.637   1.039   6.799 -0.0785 -0.7323  0.4830
 1258TIP3    H125333   0.630   0.947   6.773  1.4609 -0.4504 -1.1298
 1258TIP3    H225334   0.629   1.087   6.717  4.2314  0.2758  0.4370
 1259TIP3   OH225335   2.433   0.382   6.852  0.2270 -0.0714  0.2735
 1259TIP3    H125336   2.442   0.472   6.883  1.0603  0.4401 -1.3234
 1259TIP3    H225337   2.356   0.348   6.897  0.4031  1.1533  1.5443
 1260TIP3   OH225338   0.184   6.549   1.423  0.2313  0.2681 -0.5799
 1260TIP3    H125339   0.245   6.509   1.485  1.0914  0.2421 -1.4200
 1260TIP3    H225340   0.098   6.518   1.450  0.7008 -0.6310 -0.0801
 1261TIP3   OH225341   0.376   3.982   0.469  0.5469  0.1718 -0.2203
 1261TIP3    H125342   0.301   4.039   0.452  0.7751  0.4126 -0.4363
 1261TIP3    H225343   0.447   4.021   0.417  1.3046  1.0067  1.3722
 1262TIP3   OH225344   2.645   3.111   1.220 -0.1097  0.1237 -0.1414
 1262TIP3    H125345   2.668   3.058   1.143 -0.0918  2.1596 -1.6089
 1262TIP3    H225346   2.557   3.081   1.244 -0.1563 -0.4835 -1.0123
 1263TIP3   OH225347   2.164   1.836   6.853 -0.2863  0.5105 -0.2747
 1263TIP3    H125348   2.108   1.765   6.820  1.8187 -1.9493  1.0710
 1263TIP3    H225349   2.185   1.810   6.943  2.9498  1.2531 -0.6891
 1264TIP3   OH225350   5.036   5.216   2.057 -0.0174 -0.0854 -0.1786
 1264TIP3    H125351   5.086   5.200   2.137 -1.3695  1.0575  0.9709
 1264TIP3    H225352   4.945   5.197   2.082 -0.3340 -0.9325 -1.8348
 1265TIP3   OH225353   2.918   1.901   0.117  0.2679 -0.0166  0.5601
 1265TIP3    H125354   2.877   1.840   0.179  1.1970 -1.0685  0.1731
 1265TIP3    H225355   2.875   1.985   0.135 -2.0187 -1.0146  0.2186
 1266TIP3   OH225356   3.200   2.018   8.101 -0.1947 -0.3934 -0.1784
 1266TIP3    H125357   3.135   2.076   8.063 -0.7168 -1.4699 -0.9789
 1266TIP3    H225358   3.187   1.934   8.057  0.7226 -1.0533  0.7375
 1267TIP3   OH225359   5.675   1.607   7.261  0.0049  0.8488 -0.1917
 1267TIP3    H125360   5.651   1.515   7.251 -1.9664  0.7496  3.6759
 1267TIP3    H225361   5.608   1.654   7.212 -0.8311  0.2589  0.3545
 1268TIP3   OH225362   1.126   0.245   2.174  0.1578 -0.4558 -0.2096
 1268TIP3    H125363   1.204   0.225   2.226 -0.3446  0.6072  1.0035
 1268TIP3    H225364   1.056   0.194   2.214  0.1419 -1.1583 -1.0947
 1269TIP3   OH225365   3.751   4.624   7.400 -0.0423 -0.1571  0.4074
 1269TIP3    H125366   3.819   4.618   7.467 -0.1549  0.1153  0.5479
 1269TIP3    H225367   3.769   4.552   7.340  1.3024  0.8233 -0.4195
 1270TIP3   OH225368   0.932   1.542   7.085  0.1957  0.1250  0.0002
 1270TIP3    H125369   0.898   1.591   7.160 -2.3282 -0.3754 -0.7160
 1270TIP3    H225370   1.004   1.595   7.052 -1.3024  2.4934  0.3034
 1271TIP3   OH225371   3.098   0.563   0.546  0.0573  0.0946  0.1247
 1271TIP3    H125372   3.156   0.566   0.623  2.0820 -0.7464 -1.2737
 1271TIP3    H225373   3.044   0.486   0.560  0.4373 -0.0835  0.6810
 1272TIP3   OH225374   1.796   1.241   6.938  0.0614  0.6497 -0.0441
 1272TIP3    H125375   1.803   1.248   6.843 -1.7042  2.6262 -0.0974
 1272TIP3    H225376   1.854   1.308   6.973  0.1610  0.4156  0.2471
 1273TIP3   OH225377   3.999   4.273   7.606 -0.1999  0.1856 -0.4651
 1273TIP3    H125378   4.022   4.311   7.690 -1.1201  2.8718 -1.2847
 1273TIP3    H225379   4.082   4.242   7.569  0.6508  1.3543  0.3759
 1274TIP3   OH225380   0.945   0.275   8.254 -0.6444  0.4864 -0.3000
 1274TIP3    H125381   0.891   0.247   8.328  0.0160  1.7292  0.6917
 1274TIP3    H225382   0.929   0.369   8.247 -0.5077  0.4358 -1.6067
 1275TIP3   OH225383   3.736   3.731   1.317  0.1113 -0.0042  0.2106
 1275TIP3    H125384   3.784   3.649   1.330  1.5891  0.6511 -0.8907
 1275TIP3    H225385   3.787   3.779   1.252 -1.0899  1.5183  0.3360
 1276TIP3   OH225386   1.639   5.264   8.641 -0.1072  0.0052  0.4188
 1276TIP3    H125387   1.650   5.237   8.732  1.7552  0.7016  0.4357
 1276TIP3    H225388   1.700   5.337   8.629 -2.1278  1.6492 -0.6999
 1277TIP3   OH225389   3.475   0.330   0.657  0.3527 -0.5616  0.0121
 1277TIP3    H125390   3.468   0.249   0.708  1.2376 -0.3587  0.4838
 1277TIP3    H225391   3.552   0.374   0.693 -0.6301  0.9489  0.4046
 1278TIP3   OH225392   1.867   0.653   8.355 -0.5897  0.7223 -0.0236
 1278TIP3    H125393   1.781   0.611   8.360 -0.5042  0.6412  1.0142
 1278TIP3    H225394   1.924   0.586   8.317 -1.2651  1.2851 -2.1991
 1279TIP3   OH225395   5.977   6.241   7.954 -0.4198 -0.3570  0.1032
 1279TIP3    H125396   5.926   6.162   7.937 -0.2138 -0.3589 -0.5533
 1279TIP3    H225397   5.916   6.300   7.999 -0.8095 -0.5988 -0.0983
 1280TIP3   OH225398   4.589   0.637   8.027 -0.5092 -0.1567  0.1901
 1280TIP3    H125399   4.622   0.689   7.954  0.8461 -1.8455 -0.4553
 1280TIP3    H225400   4.643   0.664   8.102 -1.7465  1.4053  0.5770
 1281TIP3   OH225401   0.641   4.086   1.619 -0.1279  0.1924 -0.1248
 1281TIP3    H125402   0.674   4.022   1.556  1.2455  0.0964  0.6345
 1281TIP3    H225403   0.667   4.050   1.705  2.4010  2.5990  0.2658
 1282TIP3   OH225404   0.057   1.902   7.567 -0.0923  0.4617  0.5436
 1282TIP3    H125405  -0.034   1.902   7.596 -0.1159 -1.3884  0.5656
 1282TIP3    H225406   0.108   1.902   7.647 -0.0548  1.4201  0.5313
 1283TIP3   OH225407   0.850   1.218   1.969 -0.2767  0.5767 -0.5344
 1283TIP3    H125408   0.880   1.153   1.905  1.0923  1.1974 -0.5589
 1283TIP3    H225409   0.797   1.279   1.917 -1.8840 -0.6710 -0.4434
 1284TIP3   OH225410   0.643   3.036   7.596 -0.5964 -0.1862  0.0879
 1284TIP3    H125411   0.566   3.024   7.541  0.3459 -1.9407 -0.9301
 1284TIP3    H225412   0.628   2.978   7.671 -0.3724 -0.3551  0.0026
 1285TIP3   OH225413   2.948   1.473   7.225 -0.2818  0.3030  0.4766
 1285TIP3    H125414   2.972   1.554   7.270 -0.9319  0.7105  0.1000
 1285TIP3    H225415   2.978   1.486   7.135  0.6473 -0.3481  0.6714
 1286TIP3   OH225416   4.707   1.071   1.569 -0.2429 -0.1291 -0.2267
 1286TIP3    H125417   4.696   1.157   1.610  1.6209  1.0741 -2.0692
 1286TIP3    H225418   4.689   1.086   1.477  3.1900 -0.9085 -1.1511
 1287TIP3   OH225419   2.803   4.687   6.491  0.3620 -0.2600 -0.2328
 1287TIP3    H125420   2.776   4.768   6.448 -3.2224 -0.8635  0.5640
 1287TIP3    H225421   2.758   4.618   6.444  0.9928 -1.4965  0.9011
 1288TIP3   OH225422   6.584   6.220   6.380 -0.0773  0.0763  0.1385
 1288TIP3    H125423   6.527   6.218   6.458 -0.4077 -1.0023 -0.1148
 1288TIP3    H225424   6.539   6.280   6.320 -0.4911 -0.0709  0.2918
 1289TIP3   OH225425   5.436   5.677   8.354  0.1409  0.4034 -0.2820
 1289TIP3    H125426   5.423   5.747   8.418 -3.8671 -0.4989  0.1901
 1289TIP3    H225427   5.482   5.608   8.402 -0.8959  0.5778  1.0204
 1290TIP3   OH225428   2.113   4.366   2.492 -0.3590 -0.2733  0.2858
 1290TIP3    H125429   2.088   4.420   2.566 -1.9698  1.4514 -1.4098
 1290TIP3    H225430   2.085   4.277   2.517 -1.7796  0.4264  1.3597
 1291TIP3   OH225431   5.776   3.007   1.449  0.3580 -0.6055  0.6242
 1291TIP3    H125432   5.809   2.968   1.368  1.0354 -0.6731  0.9279
 1291TIP3    H225433   5.744   2.933   1.500 -3.0749 -0.3311 -0.8633
 1292TIP3   OH225434   3.667   3.590   7.248 -0.0918  0.0251  0.1431
 1292TIP3    H125435   3.591   3.646   7.265 -1.3225 -2.5329  4.2361
 1292TIP3    H225436   3.738   3.629   7.299  0.2269  0.0887 -0.3366
 1293TIP3   OH225437   5.056   1.668   0.144  0.3120 -0.1063  0.4014
 1293TIP3    H125438   5.047   1.629   0.057 -0.4384  0.2711  0.3043
 1293TIP3    H225439   4.967   1.688   0.171  0.4102 -1.3723  1.8004
 1294TIP3   OH225440   5.455   2.670   7.268 -0.0316  0.3933  0.2033
 1294TIP3    H125441   5.388   2.688   7.201 -0.0155 -2.0499 -0.5526
 1294TIP3    H225442   5.424   2.718   7.345  0.2895  3.8455 -1.6197
 1295TIP3   OH225443   4.007   0.338   7.765  0.2604 -0.7972  0.4025
 1295TIP3    H125444   3.948   0.263   7.773  0.9366 -1.1738  2.7805
 1295TIP3    H225445   3.974   0.401   7.829  1.0038 -0.0028  0.0152
 1296TIP3   OH225446   3.052   2.333   0.973  0.2557 -0.1395  0.7127
 1296TIP3    H125447   3.082   2.348   0.883  0.0238  0.0582  0.6698
 1296TIP3    H225448   3.038   2.238   0.978  0.5277 -0.1857  0.6201
 1297TIP3   OH225449   0.151   5.202   8.018 -0.3454 -0.2739 -0.0585
 1297TIP3    H125450   0.096   5.165   8.088 -1.8143  1.8592  0.0239
 1297TIP3    H225451   0.155   5.296   8.038 -0.7200  0.3980 -2.7274
 1298TIP3   OH225452   1.701   1.827   7.411  0.7310  0.1143  0.3103
 1298TIP3    H125453   1.694   1.765   7.484  1.4583 -0.2024  0.1189
 1298TIP3    H225454   1.741   1.905   7.450  0.6725  0.1230  0.3530
 1299TIP3   OH225455   5.970   4.226   0.405  0.4333 -0.2298  0.3800
 1299TIP3    H125456   5.944   4.157   0.466  1.5212 -0.2720  0.8085
 1299TIP3    H225457   5.966   4.185   0.319 -0.2670 -0.4208  0.4995
 1300TIP3   OH225458   4.552   5.077   7.723 -0.1143 -0.2132  0.0982
 1300TIP3    H125459   4.510   4.997   7.690 -1.5453  0.0497  1.1822
 1300TIP3    H225460   4.486   5.145   7.710  0.5190  0.4919  0.5447
 1301TIP3   OH225461   3.129   0.311   1.996  0.4494  0.2292  0.3899
 1301TIP3    H125462   3.213   0.338   1.959  0.1631  0.6831  0.0644
 1301TIP3    H225463   3.153   0.253   2.069  1.0912  1.6822  1.3703
 1302TIP3   OH225464   6.188   0.530   6.721 -0.3254  0.4661  0.4497
 1302TIP3    H125465   6.259   0.544   6.658  0.7562 -1.6566  1.1043
 1302TIP3    H225466   6.108   0.538   6.670  0.3784  2.0631 -0.4804
 1303TIP3   OH225467   1.267   1.229   0.442  0.5378  0.0702 -0.3993
 1303TIP3    H125468   1.357   1.261   0.441  0.4333  0.5456  1.8040
 1303TIP3    H225469   1.273   1.138   0.471  0.3111  0.1100 -0.2184
 1304TIP3   OH225470   6.789   1.637   6.333 -0.0027  0.3126 -0.6757
 1304TIP3    H125471   6.825   1.591   6.257  1.5816  0.9452 -0.3648
 1304TIP3    H225472   6.867   1.664   6.383 -0.9189  1.9017 -0.0258
 1305TIP3   OH225473   0.763   2.332   7.622  0.2250  0.4322  0.3985
 1305TIP3    H125474   0.670   2.317   7.640  0.2773 -1.6141 -0.8048
 1305TIP3    H225475   0.765   2.415   7.575 -0.9975  0.4706  0.3848
 1306TIP3   OH225476   4.205   6.862   7.590  0.0988  0.0919  0.3578
 1306TIP3    H125477   4.217   6.933   7.652  0.0536  0.4583 -0.0449
 1306TIP3    H225478   4.145   6.801   7.634  0.0749  0.3413  0.6753
 1307TIP3   OH225479   3.093   1.353   7.622 -0.3305  0.4198 -0.0505
 1307TIP3    H125480   3.123   1.443   7.612  0.5975 -0.0167 -1.6567
 1307TIP3    H225481   3.080   1.322   7.532 -0.7424 -1.0005  0.4661
 1308TIP3   OH225482   2.149   6.254   0.573 -0.1297 -0.0949 -0.2589
 1308TIP3    H125483   2.112   6.253   0.661 -0.1225 -1.2719 -0.2562
 1308TIP3    H225484   2.233   6.210   0.582  0.4839  0.9709 -0.6138
 1309TIP3   OH225485   4.377   1.217   8.071 -0.4085  0.1021  0.2252
 1309TIP3    H125486   4.359   1.205   7.977  0.3983 -1.6831  0.2585
 1309TIP3    H225487   4.407   1.308   8.077  0.5068 -0.0309 -1.4386
 1310TIP3   OH225488   2.409   1.694   7.672 -0.3908  0.8347  0.1546
 1310TIP3    H125489   2.464   1.756   7.625 -1.5660  1.9313  0.1613
 1310TIP3    H225490   2.462   1.614   7.679  0.8061  1.5354 -0.6540
 1311TIP3   OH225491   6.725   3.551   0.071 -0.1907  0.0947 -0.4269
 1311TIP3    H125492   6.756   3.461   0.063  0.3588  0.0487  1.6766
 1311TIP3    H225493   6.784   3.592   0.135  0.0827  2.2060 -1.9183
 1312TIP3   OH225494   4.588   5.507   6.153 -0.0103  0.0722  0.3012
 1312TIP3    H125495   4.531   5.545   6.219  0.2305 -0.2754  0.7137
 1312TIP3    H225496   4.619   5.581   6.101 -0.3034  0.3307  0.4998
 1313TIP3   OH225497   0.639   2.767   1.808 -0.0978 -0.0830 -0.5286
 1313TIP3    H125498   0.676   2.682   1.831 -0.6053 -0.1663  0.0039
 1313TIP3    H225499   0.714   2.819   1.780  0.4503 -0.2096  0.6585
 1314TIP3   OH225500   6.350   1.265   6.804  0.1626 -0.5142 -0.1102
 1314TIP3    H125501   6.307   1.181   6.815  1.8117 -1.4298 -0.2564
 1314TIP3    H225502   6.283   1.330   6.824 -1.0424 -1.8626  0.3707
 1315TIP3   OH225503   2.179   3.812   7.305  0.1497  0.4901  0.0016
 1315TIP3    H125504   2.112   3.876   7.283 -0.0078  0.9167  1.5991
 1315TIP3    H225505   2.158   3.736   7.251 -2.5624  0.0640  1.4766
 1316TIP3   OH225506   0.904   6.337   7.384  0.6312 -0.0574 -0.5414
 1316TIP3    H125507   0.971   6.272   7.402  0.4971 -0.1273 -0.2826
 1316TIP3    H225508   0.829   6.287   7.354  0.8000  0.0478 -1.1463
 1317TIP3   OH225509   4.705   0.227   2.256  0.4578 -0.1717  0.0858
 1317TIP3    H125510   4.661   0.312   2.260  0.8672  0.1098 -0.9762
 1317TIP3    H225511   4.696   0.191   2.344 -1.0214  0.3164  0.1615
 1318TIP3   OH225512   6.615   1.039   7.620 -0.2393 -0.3189  0.3635
 1318TIP3    H125513   6.580   1.108   7.676 -2.7375  0.3302 -1.7873
 1318TIP3    H225514   6.675   1.084   7.562  1.3813 -0.7753  1.6157
 1319TIP3   OH225515   5.889   2.285   1.855 -0.1909 -0.4633  0.2489
 1319TIP3    H125516   5.901   2.341   1.932  0.9088 -0.2201 -0.0789
 1319TIP3    H225517   5.826   2.333   1.800  0.0745  0.0285  0.3690
 1320TIP3   OH225518   4.972   0.331   2.235  0.2486 -0.0143 -0.3165
 1320TIP3    H125519   4.899   0.298   2.287  1.4446 -0.1067  1.4033
 1320TIP3    H225520   4.940   0.411   2.194 -0.7920 -0.0392  0.4336
 1321TIP3   OH225521   2.757   6.265   0.401  0.5611 -0.0857  0.0192
 1321TIP3    H125522   2.694   6.331   0.430  0.7642 -0.3676  1.1360
 1321TIP3    H225523   2.704   6.198   0.358 -0.0735 -0.8966  1.9687
 1322TIP3   OH225524   4.127   2.545   8.416 -0.0720  0.0533  0.3071
 1322TIP3    H125525   4.144   2.500   8.333 -1.5833 -0.8123  0.4258
 1322TIP3    H225526   4.149   2.636   8.398 -0.0775 -0.1731 -0.9708
 1323TIP3   OH225527   4.745   4.363   0.054  0.1578  0.1902  0.0792
 1323TIP3    H125528   4.768   4.301  -0.015  0.1647  1.8382 -1.4562
 1323TIP3    H225529   4.768   4.449   0.019 -1.4940  1.2580  1.4230
 1324TIP3   OH225530   2.544   4.087   7.104  0.1000  0.3356 -0.5923
 1324TIP3    H125531   2.625   4.054   7.064  0.7700  1.2736 -0.0617
 1324TIP3    H225532   2.490   4.009   7.117  2.1021 -0.8014  1.7048
 1325TIP3   OH225533   1.516   1.024   6.281  0.2875 -0.0880 -0.0971
 1325TIP3    H125534   1.456   1.056   6.348 -1.0171  0.6573 -1.5592
 1325TIP3    H225535   1.473   0.946   6.246 -0.2064  0.8403 -1.6252
 1326TIP3   OH225536   2.047   2.649   6.832 -0.9383 -0.1229 -0.1353
 1326TIP3    H125537   2.102   2.610   6.900  2.5312  2.4108 -1.2010
 1326TIP3    H225538   1.998   2.718   6.877  1.4227  1.6177 -0.0488
 1327TIP3   OH225539   0.427   4.439   7.354  0.3540 -0.3965 -0.7050
 1327TIP3    H125540   0.405   4.424   7.446 -1.5266  2.9207 -0.4440
 1327TIP3    H225541   0.516   4.475   7.357  0.5994 -1.0181 -0.2823
 1328TIP3   OH225542   4.247   5.517   8.456  0.0706  0.1797 -0.3986
 1328TIP3    H125543   4.174   5.510   8.395 -0.5452 -0.8462  0.4156
 1328TIP3    H225544   4.294   5.434   8.447  0.1310  0.1270  0.3102
 1329TIP3   OH225545   4.786   5.241   2.195 -0.1099 -0.4775 -0.3388
 1329TIP3    H125546   4.720   5.282   2.139 -0.7241 -0.4273  0.4157
 1329TIP3    H225547   4.770   5.276   2.282  2.3310  1.2448 -0.4961
 1330TIP3   OH225548   4.379   5.400   7.543  0.2407  0.3940  0.2196
 1330TIP3    H125549   4.430   5.474   7.577  1.7921 -0.2131 -0.6686
 1330TIP3    H225550   4.442   5.350   7.491 -1.4091 -0.0766 -1.4328
 1331TIP3   OH225551   3.935   3.026   0.038 -0.6033 -0.6432 -0.1284
 1331TIP3    H125552   3.980   2.942   0.027 -0.3712 -0.6199  0.5938
 1331TIP3    H225553   3.963   3.058   0.124  0.3797  0.8177 -0.9359
 1332TIP3   OH225554   5.484   3.982   7.635  0.2762 -0.0692 -0.4185
 1332TIP3    H125555   5.510   3.983   7.543  1.4345  0.4256 -0.1019
 1332TIP3    H225556   5.396   4.022   7.635  1.2938  2.3848 -1.0446
 1333TIP3   OH225557   3.379   0.990   8.010 -0.3029 -0.2108 -0.7913
 1333TIP3    H125558   3.316   0.938   8.060 -0.3562 -0.4395 -1.0942
 1333TIP3    H225559   3.328   1.065   7.979 -0.5168 -0.5627 -1.3135
 1334TIP3   OH225560   5.332   3.189   6.532  0.0905  0.2270  0.0670
 1334TIP3    H125561   5.348   3.277   6.499  0.1423  0.0419 -0.4090
 1334TIP3    H225562   5.419   3.148   6.535  0.0557  0.1611  0.2006
 1335TIP3   OH225563   6.407   5.475   1.124 -0.0341 -0.1378  0.1870
 1335TIP3    H125564   6.432   5.390   1.160  2.9435  0.5784  0.0228
 1335TIP3    H225565   6.464   5.487   1.048 -0.7451  1.7922 -0.0969
 1336TIP3   OH225566   3.952   4.375   1.449  0.4388 -0.9232  0.4480
 1336TIP3    H125567   3.952   4.345   1.358  1.3220 -0.5674  0.3217
 1336TIP3    H225568   3.865   4.411   1.463  0.3123 -0.9446 -0.2726
 1337TIP3   OH225569   0.302   2.051   7.552  0.7863 -0.1936 -0.4725
 1337TIP3    H125570   0.215   2.012   7.545  0.8005 -0.6043  1.2260
 1337TIP3    H225571   0.357   1.998   7.494  0.4054 -1.5076  0.3341
 1338TIP3   OH225572   3.597   3.595   0.672  0.3602 -0.3147 -0.1358
 1338TIP3    H125573   3.659   3.553   0.732 -0.5787 -1.5615  0.0065
 1338TIP3    H225574   3.512   3.581   0.712 -0.3998 -1.9271 -2.0959
 1339TIP3   OH225575   3.108   6.020   6.777 -0.0051 -0.2041  0.1355
 1339TIP3    H125576   3.139   6.007   6.867 -0.7216 -0.0457  0.4140
 1339TIP3    H225577   3.187   6.039   6.727  0.2165  1.4880  1.0669
 1340TIP3   OH225578   3.798   3.644   8.479  0.0363  0.5353  0.0167
 1340TIP3    H125579   3.822   3.690   8.560 -0.1601  0.0111  0.3784
 1340TIP3    H225580   3.704   3.658   8.470  0.4029  2.6009 -1.4073
 1341TIP3   OH225581   2.961   3.851   0.282 -0.2188 -0.2224 -0.0289
 1341TIP3    H125582   2.925   3.839   0.370  0.7240 -0.7475  0.2984
 1341TIP3    H225583   3.026   3.781   0.272 -0.3467 -0.2061 -1.1644
 1342TIP3   OH225584   3.447   0.127   6.820 -0.2435 -0.2046 -0.1505
 1342TIP3    H125585   3.359   0.165   6.826 -0.8490 -1.4577 -0.7518
 1342TIP3    H225586   3.464   0.091   6.907  0.1286  0.9653  0.2768
 1343TIP3   OH225587   3.448   6.293   8.319  0.2510 -0.4477 -0.0300
 1343TIP3    H125588   3.393   6.303   8.396  2.4330 -2.9914  2.0404
 1343TIP3    H225589   3.406   6.225   8.267  0.9761 -1.8890  1.1989
 1344TIP3   OH225590   1.293   3.702   0.536 -0.1733  0.1177  0.2682
 1344TIP3    H125591   1.349   3.765   0.582 -0.5845  1.1788 -0.6437
 1344TIP3    H225592   1.270   3.638   0.603  0.2186  0.9692  1.2494
 1345TIP3   OH225593   5.896   4.817   6.913 -0.2043  0.0222 -0.1611
 1345TIP3    H125594   5.927   4.734   6.875  1.2896  0.1918  0.5938
 1345TIP3    H225595   5.943   4.885   6.865 -1.5319  0.4694 -0.8728
 1346TIP3   OH225596   4.467   2.205   7.919  0.3877 -0.0111  0.3972
 1346TIP3    H125597   4.494   2.219   7.828 -0.5125 -0.9631 -0.0309
 1346TIP3    H225598   4.379   2.242   7.923  0.9354  1.2710  1.2646
 1347TIP3   OH225599   0.524   2.700   6.478  0.7669  0.2328 -0.2672
 1347TIP3    H125600   0.437   2.706   6.437  0.5747 -2.2946 -0.3993
 1347TIP3    H225601   0.582   2.676   6.406  1.1486 -0.3608  0.2326
 1348TIP3   OH225602   5.404   5.691   0.786  0.4834 -0.1923 -0.0542
 1348TIP3    H125603   5.386   5.634   0.711  0.1585  0.9850 -0.8919
 1348TIP3    H225604   5.334   5.670   0.849 -1.2587  1.1506 -1.4500
 1349TIP3   OH225605   5.585   3.090   7.239  0.0405 -0.5620 -0.2803
 1349TIP3    H125606   5.630   3.046   7.311 -0.1769  0.1808  0.3349
 1349TIP3    H225607   5.638   3.168   7.222 -0.6936  0.0325  0.0824
 1350TIP3   OH225608   0.025   5.703   1.933 -0.1136  0.2036  0.1750
 1350TIP3    H125609   0.104   5.745   1.897 -0.3096 -0.0378 -0.5484
 1350TIP3    H225610  -0.003   5.762   2.003  1.0252  0.0112  0.8239
 1351TIP3   OH225611   6.042   3.027   2.022  0.3515  0.1272  0.7208
 1351TIP3    H125612   5.972   2.961   2.020  1.5239 -1.1819  1.4014
 1351TIP3    H225613   6.008   3.095   2.081 -1.0742  0.4037 -0.3559
 1352TIP3   OH225614   1.853   4.927   7.699 -0.7172  0.1656  0.3298
 1352TIP3    H125615   1.904   4.846   7.692  1.5874  1.3279  2.2949
 1352TIP3    H225616   1.871   4.974   7.617  0.0579 -0.1597  0.3077
 1353TIP3   OH225617   0.573   5.871   0.752  0.1205 -0.9431  0.4157
 1353TIP3    H125618   0.650   5.926   0.766  0.6829 -1.4495 -0.5643
 1353TIP3    H225619   0.572   5.810   0.825 -0.5384  0.3674  1.5490
 1354TIP3   OH225620   4.342   6.730   8.601 -0.2883  0.1465 -0.1257
 1354TIP3    H125621   4.336   6.826   8.596 -1.9548  0.0182 -2.5161
 1354TIP3    H225622   4.390   6.705   8.522  3.2766 -0.9398  2.1438
 1355TIP3   OH225623   4.434   1.701   8.568 -0.4656  0.4624  0.0906
 1355TIP3    H125624   4.435   1.797   8.571 -0.7918  0.4465  1.2459
 1355TIP3    H225625   4.499   1.675   8.633 -1.0296 -0.0965  0.4424
 1356TIP3   OH225626   0.078   5.234   8.303 -0.1252 -0.0846  0.0698
 1356TIP3    H125627   0.019   5.309   8.296  0.2332  0.1810 -0.1865
 1356TIP3    H225628   0.084   5.217   8.397  0.8085  1.0448  0.2400
 1357TIP3   OH225629   1.360   6.500   6.324 -0.5097 -0.1965  0.3141
 1357TIP3    H125630   1.378   6.453   6.406 -2.4412  1.9107  2.1133
 1357TIP3    H225631   1.351   6.432   6.258  2.0244 -1.9334  1.6300
 1358TIP3   OH225632   4.534   1.967   0.718  0.4240 -0.0637  0.3811
 1358TIP3    H125633   4.563   2.058   0.724 -0.9351  0.3516  1.0232
 1358TIP3    H225634   4.517   1.941   0.809  1.8366 -1.3402  0.3230
 1359TIP3   OH225635   3.456   1.559   8.157  0.3322  0.1283 -0.6603
 1359TIP3    H125636   3.438   1.493   8.090  0.7211  0.5633 -1.2040
 1359TIP3    H225637   3.499   1.512   8.228 -0.5212 -0.4289 -0.4966
 1360TIP3   OH225638   4.135   1.445   2.419  0.2294 -0.3194 -0.3825
 1360TIP3    H125639   4.156   1.518   2.360 -0.2714  1.0341  1.0189
 1360TIP3    H225640   4.198   1.454   2.490 -1.1259  0.0221  0.8142
 1361TIP3   OH225641   5.894   3.842   1.436 -0.4778 -0.5312  0.1118
 1361TIP3    H125642   5.864   3.809   1.521  0.2999 -1.1576  0.1586
 1361TIP3    H225643   5.870   3.772   1.374 -1.6443  0.2110 -0.3106
 1362TIP3   OH225644   2.927   4.088   0.765 -0.3841 -0.2385  0.9001
 1362TIP3    H125645   2.897   4.016   0.821  1.5465 -1.1294  0.8459
 1362TIP3    H225646   3.022   4.083   0.767 -0.2254  0.7828 -1.1040
 1363TIP3   OH225647   4.192   3.400   0.500 -0.1520 -0.1032 -0.6513
 1363TIP3    H125648   4.278   3.436   0.481  0.4595 -1.2064 -0.1027
 1363TIP3    H225649   4.159   3.370   0.416  1.0068 -1.7391 -0.5738
 1364TIP3   OH225650   6.851   6.634   7.632 -0.3631 -0.0405 -0.7395
 1364TIP3    H125651   6.918   6.596   7.575  0.9469  0.0853  0.6748
 1364TIP3    H225652   6.895   6.704   7.679 -0.9006 -1.1874  1.6516
 1365TIP3   OH225653   3.312   1.607   1.496 -0.2183  0.4778  0.3883
 1365TIP3    H125654   3.227   1.581   1.460 -0.3500 -0.3773  1.2578
 1365TIP3    H225655   3.360   1.642   1.421 -0.1129 -2.1211 -0.8730
 1366TIP3   OH225656   0.575   0.712   7.438  0.3258 -0.1197  0.0655
 1366TIP3    H125657   0.587   0.735   7.346 -0.0451  0.7298  0.2208
 1366TIP3    H225658   0.539   0.791   7.478 -0.1502 -0.6915  0.8030
 1367TIP3   OH225659   1.260   2.319   2.205 -0.1358 -0.5439  0.8051
 1367TIP3    H125660   1.325   2.276   2.260  2.4825 -0.1040 -1.6982
 1367TIP3    H225661   1.283   2.412   2.206 -0.3088 -0.4544 -0.5891
 1368TIP3   OH225662   2.132   1.708   7.133 -0.5649 -0.0905 -0.1174
 1368TIP3    H125663   2.205   1.646   7.137 -1.8389 -1.6594  0.3429
 1368TIP3    H225664   2.100   1.713   7.224 -0.1089  1.7717 -0.0297
 1369TIP3   OH225665   4.997   3.804   0.369 -0.3632  0.0034  0.3815
 1369TIP3    H125666   4.936   3.761   0.428 -1.0247 -0.1267 -0.3819
 1369TIP3    H225667   5.048   3.863   0.425 -0.3910 -0.7435  1.2095
 1370TIP3   OH225668   4.945   6.450   8.306  0.1542 -0.0419 -0.1356
 1370TIP3    H125669   5.026   6.477   8.261  0.2689  2.0269  1.1694
 1370TIP3    H225670   4.888   6.421   8.235  0.7326  2.0191 -1.5674
 1371TIP3   OH225671   5.471   6.557   8.312  0.1037 -0.0192  0.5783
 1371TIP3    H125672   5.422   6.544   8.393  1.3874 -0.8146  1.2583
 1371TIP3    H225673   5.485   6.651   8.307 -0.1729  0.0557  1.1676
 1372TIP3   OH225674   0.878   6.466   7.106  0.5297 -0.0701 -0.1899
 1372TIP3    H125675   0.971   6.469   7.126  0.0090  4.0661  2.9515
 1372TIP3    H225676   0.836   6.454   7.192 -1.8979 -1.6459 -1.4934
 1373TIP3   OH225677   5.123   5.769   1.697  0.3242  0.0199 -0.4918
 1373TIP3    H125678   5.083   5.754   1.783  1.1466 -0.0310 -0.1067
 1373TIP3    H225679   5.131   5.865   1.692  0.3133  0.0209 -0.4904
 1374TIP3   OH225680   4.653   6.665   7.691 -0.0151  0.1785 -0.4738
 1374TIP3    H125681   4.674   6.614   7.770  0.8628 -1.9662 -1.9851
 1374TIP3    H225682   4.639   6.754   7.723  0.3675 -0.5928  2.0830
 1375TIP3   OH225683   3.851   4.722   1.443 -0.7644  0.2038 -0.1733
 1375TIP3    H125684   3.887   4.704   1.357  0.0185 -1.5315  0.4750
 1375TIP3    H225685   3.874   4.813   1.461 -1.9552  0.9842 -2.2345
 1376TIP3   OH225686   5.939   4.557   2.403  0.5987 -0.1538 -0.2142
 1376TIP3    H125687   5.888   4.478   2.416  2.8913 -1.5819  0.7566
 1376TIP3    H225688   5.880   4.629   2.426 -1.7914 -1.4627 -1.8957
 1377TIP3   OH225689   1.671   0.236   7.129 -0.1291  0.4336  0.2441
 1377TIP3    H125690   1.655   0.144   7.150  0.6948  0.2530  0.0992
 1377TIP3    H225691   1.585   0.277   7.135 -0.2000  0.0830  2.3912
 1378TIP3   OH225692   4.714   1.182   8.097 -0.1260 -0.1384 -0.3290
 1378TIP3    H125693   4.658   1.110   8.125 -1.4141  0.4915 -1.1673
 1378TIP3    H225694   4.668   1.261   8.127 -1.4132  0.5756 -3.6469
 1379TIP3   OH225695   1.182   0.040   0.474 -0.6674  0.3321  0.3077
 1379TIP3    H125696   1.170  -0.019   0.400  0.6291  1.6963 -1.0769
 1379TIP3    H225697   1.166   0.128   0.438  1.7043  1.1912  1.1412
 1380TIP3   OH225698   2.194   6.776   7.221  0.2342 -0.9988 -0.7280
 1380TIP3    H125699   2.237   6.861   7.225 -2.1288  0.2627 -0.1801
 1380TIP3    H225700   2.196   6.744   7.312  0.8245 -1.3890 -0.8733
 1381TIP3   OH225701   0.811   1.889   8.297  0.0556  0.1927  0.4122
 1381TIP3    H125702   0.750   1.960   8.276  0.2278  0.6822  1.4860
 1381TIP3    H225703   0.896   1.932   8.306  0.2505 -0.2283  0.6055
 1382TIP3   OH225704   5.367   1.386   7.357 -0.1341  0.1310 -0.3719
 1382TIP3    H125705   5.416   1.416   7.433  1.5230  1.3385 -1.8307
 1382TIP3    H225706   5.352   1.293   7.373  3.6450 -0.6081 -0.2951
 1383TIP3   OH225707   1.593   2.962   1.403 -0.1050  0.2109  0.2935
 1383TIP3    H125708   1.538   2.975   1.481 -0.8787 -1.1644  0.0145
 1383TIP3    H225709   1.595   3.048   1.361 -0.9362  0.6155  1.0294
 1384TIP3   OH225710   6.510   4.351   8.358 -0.1848 -0.1579 -0.0221
 1384TIP3    H125711   6.575   4.390   8.300  1.5313  0.0759  1.9540
 1384TIP3    H225712   6.561   4.307   8.426 -2.0437  0.8877  2.1867
 1385TIP3   OH225713   1.357   0.444   8.584 -0.2348 -0.5880 -0.5657
 1385TIP3    H125714   1.406   0.363   8.572  1.6362  0.4093 -0.0821
 1385TIP3    H225715   1.381   0.474   8.672  0.6282  1.3942 -1.4079
 1386TIP3   OH225716   5.470   0.128   7.002  0.0236  0.1331 -0.1971
 1386TIP3    H125717   5.419   0.118   6.922 -0.5611 -0.7544  0.2705
 1386TIP3    H225718   5.410   0.102   7.072  0.1792  1.8806  0.6373
 1387TIP3   OH225719   6.507   3.174   1.686 -0.5860 -0.4344 -0.3839
 1387TIP3    H125720   6.587   3.194   1.734  0.3632  1.2458 -2.4650
 1387TIP3    H225721   6.436   3.198   1.745  0.5109  3.1379 -0.2743
 1388TIP3   OH225722   6.364   6.544   0.539  0.0190  0.0348 -0.0953
 1388TIP3    H125723   6.277   6.576   0.518  0.6866  1.1391 -1.3499
 1388TIP3    H225724   6.423   6.599   0.487  1.5571  0.2071  1.7155
 1389TIP3   OH225725   4.969   1.471   0.405  0.1017 -0.2739  0.3093
 1389TIP3    H125726   4.876   1.462   0.425  0.0687 -0.9786 -0.1386
 1389TIP3    H225727   5.009   1.390   0.437  0.7035  0.3556  1.2268
 1390TIP3   OH225728   1.356   2.916   6.643 -0.1071  0.0280  0.0425
 1390TIP3    H125729   1.328   3.007   6.651 -0.1757  0.0724 -0.6319
 1390TIP3    H225730   1.289   2.876   6.587 -1.2837 -0.9810  2.0729
 1391TIP3   OH225731   4.892   1.241   6.370  0.0084 -0.0976  0.2966
 1391TIP3    H125732   4.889   1.308   6.301  1.2118  0.1297  0.4384
 1391TIP3    H225733   4.984   1.238   6.396  0.2044 -2.5660 -0.4491
 1392TIP3   OH225734   5.684   1.009   1.095 -0.0143  0.0299 -0.3684
 1392TIP3    H125735   5.736   1.053   1.027  1.5196  0.3475  0.9597
 1392TIP3    H225736   5.702   1.058   1.175 -0.3086 -1.4565  0.6557
 1393TIP3   OH225737   5.949   6.608   7.203  0.0401 -0.5851  0.3624
 1393TIP3    H125738   6.038   6.630   7.231  0.9400 -0.3322 -2.3936
 1393TIP3    H225739   5.900   6.689   7.216  0.5123 -0.3533  0.7518
 1394TIP3   OH225740   2.441   5.301   0.923 -0.3399  0.2240 -0.6001
 1394TIP3    H125741   2.514   5.349   0.885  0.3443 -0.1094  0.2757
 1394TIP3    H225742   2.475   5.213   0.938 -0.4743  0.4191  1.0565
 1395TIP3   OH225743   0.310   2.661   1.107  0.1880 -0.4511 -0.3226
 1395TIP3    H125744   0.218   2.687   1.100  0.3186  0.5547  1.2515
 1395TIP3    H225745   0.307   2.569   1.133 -0.3849 -0.2911  0.1974
 1396TIP3   OH225746   3.000   2.676   6.527  0.0219 -0.2608 -0.3492
 1396TIP3    H125747   2.987   2.653   6.435 -0.2367 -0.4793 -0.2590
 1396TIP3    H225748   3.090   2.647   6.546 -0.7159 -2.4665  0.1204
 1397TIP3   OH225749   0.766   5.377   8.343 -0.0239 -0.3206  0.2390
 1397TIP3    H125750   0.819   5.344   8.270  0.6132 -2.1880  1.4833
 1397TIP3    H225751   0.675   5.362   8.315  0.1557  0.3022 -0.7337
 1398TIP3   OH225752   2.522   6.772   6.985 -0.2470 -0.1178 -0.9426
 1398TIP3    H125753   2.429   6.752   6.995  0.1369 -1.0903  1.0978
 1398TIP3    H225754   2.563   6.689   6.961  0.4846 -0.5112  1.3797
 1399TIP3   OH225755   5.667   6.603   0.483  0.4917 -0.1345 -0.3128
 1399TIP3    H125756   5.643   6.547   0.409 -1.6038  0.0151  0.1981
 1399TIP3    H225757   5.750   6.643   0.457  1.1166 -2.0609 -1.4565
 1400TIP3   OH225758   0.239   1.541   7.403  0.3684  0.2646 -0.0073
 1400TIP3    H125759   0.286   1.527   7.321 -0.2149  0.7459 -0.4325
 1400TIP3    H225760   0.151   1.506   7.388  0.3093  0.1884  0.4753
 1401TIP3   OH225761   6.811   3.221   8.419 -0.6174 -0.4472  0.7022
 1401TIP3    H125762   6.790   3.249   8.509  0.8783 -1.2221  1.3396
 1401TIP3    H225763   6.817   3.126   8.425 -1.8401 -0.6250 -0.5614
 1402TIP3   OH225764   5.949   4.447   8.345 -1.1971 -0.0333  0.2085
 1402TIP3    H125765   5.947   4.539   8.319 -0.9190 -0.4045 -1.2462
 1402TIP3    H225766   5.881   4.439   8.412 -0.4142  1.4586  1.2296
 1403TIP3   OH225767   0.741   4.456   0.490 -0.4935 -0.3083  0.3749
 1403TIP3    H125768   0.819   4.457   0.435 -1.6136 -0.0937 -1.3022
 1403TIP3    H225769   0.767   4.408   0.568  1.0768 -0.9368 -0.4848
 1404TIP3   OH225770   2.088   6.306   7.291 -0.1804  0.3642 -0.7619
 1404TIP3    H125771   2.142   6.364   7.237  0.5060 -0.3769 -0.9038
 1404TIP3    H225772   2.013   6.359   7.318  0.4889  1.3370 -0.7924
 1405TIP3   OH225773   5.227   2.862   1.903  0.9826 -0.0400 -0.1179
 1405TIP3    H125774   5.227   2.896   1.993  2.6424 -0.1430 -0.0600
 1405TIP3    H225775   5.317   2.833   1.888  0.4542 -1.0921 -1.4254
 1406TIP3   OH225776   0.803   2.647   1.524 -0.4524  0.6466  0.2966
 1406TIP3    H125777   0.750   2.608   1.454 -0.5073 -1.7169  1.5593
 1406TIP3    H225778   0.779   2.599   1.603  2.2884  0.6891  1.2661
 1407TIP3   OH225779   2.384   6.446   7.509 -0.2882  0.0430  0.4540
 1407TIP3    H125780   2.378   6.364   7.460 -0.5533  0.2875  0.0744
 1407TIP3    H225781   2.439   6.424   7.584 -1.3425 -0.8044  1.0117
 1408TIP3   OH225782   3.889   0.288   8.662  0.2601 -0.5419  0.8468
 1408TIP3    H125783   3.945   0.213   8.680  0.1607 -0.2255  2.6868
 1408TIP3    H225784   3.939   0.343   8.602  0.9788 -1.3259  0.7214
 1409TIP3   OH225785   2.840   4.442   7.060 -0.0529  0.3423 -0.3720
 1409TIP3    H125786   2.879   4.373   7.114  2.8445 -0.2922 -2.9849
 1409TIP3    H225787   2.796   4.499   7.123 -0.5178 -2.5526  2.1420
 1410TIP3   OH225788   6.780   1.759   1.883  0.1649 -0.7016  0.1481
 1410TIP3    H125789   6.760   1.672   1.850  0.3577 -1.1695  1.2042
 1410TIP3    H225790   6.716   1.774   1.953  0.8877 -0.5125  0.7905
 1411TIP3   OH225791   5.964   3.890   8.354 -0.3670  0.0334 -0.6054
 1411TIP3    H125792   5.936   3.821   8.414 -0.8306  0.0750 -0.7678
 1411TIP3    H225793   5.990   3.844   8.274  0.7116 -0.0608 -0.2198
 1412TIP3   OH225794   4.312   1.329   7.269 -0.2571  0.1319  0.3049
 1412TIP3    H125795   4.255   1.404   7.255  0.3385  0.3363 -1.2163
 1412TIP3    H225796   4.385   1.342   7.207  0.4590 -1.0881  0.8446
 1413TIP3   OH225797   1.476   0.310   1.818 -0.2311 -0.0819  0.2432
 1413TIP3    H125798   1.464   0.397   1.780 -1.5506 -0.5269 -0.4101
 1413TIP3    H225799   1.568   0.289   1.802 -0.5517  0.0630 -2.0867
 1414TIP3   OH225800   6.804   5.569   1.013  0.3015  0.0474  0.1505
 1414TIP3    H125801   6.875   5.607   1.064  0.0074  0.5122  0.2168
 1414TIP3    H225802   6.846   5.503   0.959  0.7922  0.3472  0.1649
 1415TIP3   OH225803   0.742   1.625   7.908  0.2048 -0.0200  0.3738
 1415TIP3    H125804   0.662   1.665   7.873  0.2856 -1.0398 -1.0312
 1415TIP3    H225805   0.807   1.695   7.903 -0.1870  0.3239 -0.0390
 1416TIP3   OH225806   6.513   3.074   7.880 -0.4391  0.3025 -0.3441
 1416TIP3    H125807   6.451   3.051   7.810 -0.1107 -1.9374  0.0439
 1416TIP3    H225808   6.589   3.110   7.834 -0.8273  0.2680 -1.0262
 1417TIP3   OH225809   0.544   6.109   2.245  0.5159 -0.0181  0.0407
 1417TIP3    H125810   0.611   6.175   2.262  1.4950 -1.5624  2.7305
 1417TIP3    H225811   0.462   6.150   2.271  0.6901  1.0447 -0.9876
 1418TIP3   OH225812   3.118   3.245   8.301 -0.0623 -0.4850  0.1944
 1418TIP3    H125813   3.155   3.157   8.294 -0.5004 -0.7806  1.3076
 1418TIP3    H225814   3.036   3.233   8.349 -1.9745  0.0855 -2.6620
 1419TIP3   OH225815   4.225   6.386   6.630 -0.5388 -0.7072  0.0615
 1419TIP3    H125816   4.263   6.334   6.700 -0.0416 -0.4412 -0.0050
 1419TIP3    H225817   4.179   6.323   6.574  0.2941 -1.1092 -0.1746
 1420TIP3   OH225818   1.161   1.706   1.495  0.1445  0.0202 -0.1165
 1420TIP3    H125819   1.175   1.740   1.583 -0.0493  1.2011 -0.5189
 1420TIP3    H225820   1.248   1.704   1.456 -0.1250  3.9284 -1.4016
 1421TIP3   OH225821   4.516   4.408   1.396 -0.5988  0.6227  0.4566
 1421TIP3    H125822   4.511   4.482   1.456 -0.1443  0.7228  0.3733
 1421TIP3    H225823   4.467   4.437   1.319  0.6479  1.3382 -0.0913
 1422TIP3   OH225824   6.583   4.642   1.464  0.3578  0.2242 -0.3031
 1422TIP3    H125825   6.538   4.612   1.543  0.2205  0.8671 -0.1321
 1422TIP3    H225826   6.650   4.575   1.448  0.6105  0.2583  0.5549
 1423TIP3   OH225827   6.804   6.306   0.594  0.9952 -0.1359 -0.0892
 1423TIP3    H125828   6.888   6.287   0.553  1.1618 -1.4021  0.8085
 1423TIP3    H225829   6.792   6.237   0.659 -0.2031  0.6828  0.5987
 1424TIP3   OH225830   3.314   1.928   6.356  0.2245  0.4969  0.6865
 1424TIP3    H125831   3.266   1.854   6.319  0.9416  0.5437 -0.3546
 1424TIP3    H225832   3.378   1.889   6.415  0.2779  0.3227  0.5102
 1425TIP3   OH225833   5.051   6.339   7.207  0.8243  0.0111  0.2557
 1425TIP3    H125834   4.999   6.276   7.258 -0.5299  0.4030 -0.5909
 1425TIP3    H225835   4.999   6.419   7.206  1.3754  0.3826 -0.7355
 1426TIP3   OH225836   6.746   1.083   0.459  0.3996 -0.7169 -1.0810
 1426TIP3    H125837   6.749   1.175   0.432  1.2153 -0.6927 -0.9304
 1426TIP3    H225838   6.818   1.074   0.521  0.9581 -1.7032 -1.8450
 1427TIP3   OH225839   1.515   6.399   0.309  0.0213 -0.2135  0.5114
 1427TIP3    H125840   1.582   6.378   0.244 -0.1635  0.7229 -0.0027
 1427TIP3    H225841   1.432   6.394   0.261 -0.1427  0.1543  0.7500
 1428TIP3   OH225842   6.334   0.058   0.779 -0.4865 -0.1713 -0.1122
 1428TIP3    H125843   6.409   0.117   0.774 -0.3602 -0.3083  0.1294
 1428TIP3    H225844   6.259   0.115   0.794 -0.4382 -0.0279 -0.4254
 1429TIP3   OH225845   1.827   2.560   1.068  1.1651  0.4121 -0.5875
 1429TIP3    H125846   1.740   2.559   1.108  1.3500  4.9539  0.3782
 1429TIP3    H225847   1.810   2.576   0.975  0.9451  1.7159 -0.3341
 1430TIP3   OH225848   6.876   6.221   8.411 -0.2663 -0.3969  0.4028
 1430TIP3    H125849   6.801   6.176   8.373  0.0126 -0.7988  0.3266
 1430TIP3    H225850   6.839   6.303   8.446 -0.4078  0.3682 -1.4133
 1431TIP3   OH225851   0.287   1.327   0.868 -0.0428 -0.1981 -0.2678
 1431TIP3    H125852   0.309   1.240   0.903 -0.2374  0.1717  0.8177
 1431TIP3    H225853   0.294   1.317   0.773  4.0571 -0.3074 -0.1231
 1432TIP3   OH225854   2.277   2.922   0.068  0.0510  0.5351  0.3444
 1432TIP3    H125855   2.237   2.869   0.138 -0.5274  2.1909  1.3161
 1432TIP3    H225856   2.206   2.941   0.008  0.1648  0.5486  0.2134
 1433TIP3   OH225857   2.593   0.243   8.176 -0.4947  0.0369  0.2163
 1433TIP3    H125858   2.504   0.210   8.193 -1.0678  1.5941  0.3650
 1433TIP3    H225859   2.587   0.284   8.089  0.6406 -1.6702 -0.7284
 1434TIP3   OH225860   2.280   5.416   8.196 -0.0405 -0.0241  0.1254
 1434TIP3    H125861   2.365   5.449   8.166 -0.2812 -0.9056 -1.6546
 1434TIP3    H225862   2.295   5.323   8.215 -0.8086 -0.4638 -1.2562
 1435TIP3   OH225863   3.415   6.368   1.145 -0.5396 -0.2609 -0.4926
 1435TIP3    H125864   3.413   6.416   1.063  1.6214  0.3864 -0.2235
 1435TIP3    H225865   3.374   6.427   1.208 -1.8139 -0.5865 -0.9923
 1436TIP3   OH225866   4.837   1.912   8.530 -0.2513  0.6749  0.3007
 1436TIP3    H125867   4.749   1.897   8.496 -0.5947 -0.6057  1.6269
 1436TIP3    H225868   4.868   1.824   8.553  1.0081  1.2118  0.6981
 1437TIP3   OH225869   0.778   4.757   0.182 -0.2105  0.4610 -0.2995
 1437TIP3    H125870   0.772   4.773   0.088  0.0615 -0.6378 -0.5216
 1437TIP3    H225871   0.811   4.668   0.189 -0.2898  0.5024  0.8446
 1438TIP3   OH225872   5.436   5.592   6.897 -0.0893 -0.2634  0.6229
 1438TIP3    H125873   5.424   5.683   6.872 -0.2975 -0.6098 -0.6127
 1438TIP3    H225874   5.360   5.547   6.859  0.3370 -1.0406  0.6749
 1439TIP3   OH225875   2.200   6.459   1.730  0.0064 -0.9242 -0.8869
 1439TIP3    H125876   2.177   6.366   1.720 -1.5696 -0.6080 -0.4911
 1439TIP3    H225877   2.181   6.478   1.822  1.3583 -0.4513 -0.6836
 1440TIP3   OH225878   4.007   1.725   7.321 -0.0170 -0.0471 -0.0318
 1440TIP3    H125879   3.924   1.679   7.308 -0.2429 -0.4311  2.3067
 1440TIP3    H225880   3.982   1.815   7.341  0.2699  0.3312 -1.2668
 1441TIP3   OH225881   0.246   1.091   6.179  0.3041  0.1599  0.7978
 1441TIP3    H125882   0.218   1.146   6.252  0.7924  1.4814  0.0328
 1441TIP3    H225883   0.314   1.143   6.135  1.8131 -1.6596  0.8558
 1442TIP3   OH225884   4.825   0.214   0.796 -0.4276 -0.0903 -0.3111
 1442TIP3    H125885   4.872   0.152   0.740  0.5125  0.5744 -0.2926
 1442TIP3    H225886   4.893   0.274   0.827 -1.2159  0.5898  0.1495
 1443TIP3   OH225887   2.432   1.035   7.924 -0.3562 -0.1713  0.2124
 1443TIP3    H125888   2.348   1.076   7.904 -0.1713 -0.0390 -0.3191
 1443TIP3    H225889   2.463   1.002   7.840  0.4193  0.3439  0.2836
 1444TIP3   OH225890   0.885   5.722   7.981 -0.2877  0.2448  0.3673
 1444TIP3    H125891   0.871   5.640   7.935 -0.4666 -0.2964  1.3543
 1444TIP3    H225892   0.964   5.708   8.033 -0.3545  0.6711  0.5937
 1445TIP3   OH225893   6.828   1.509   7.351 -0.7339  0.6382  0.6013
 1445TIP3    H125894   6.783   1.481   7.271 -0.0813  0.5053  0.2695
 1445TIP3    H225895   6.765   1.565   7.396 -0.3647  2.5403 -1.0881
 1446TIP3   OH225896   3.136   0.124   7.626 -0.3852 -0.4993 -0.2041
 1446TIP3    H125897   3.051   0.148   7.663 -0.2538  0.3963 -0.4556
 1446TIP3    H225898   3.200   0.167   7.682 -0.0852 -1.1567 -0.0261
 1447TIP3   OH225899   2.663   4.146   0.186  0.2863  0.3858 -0.2044
 1447TIP3    H125900   2.633   4.116   0.272  0.2474  1.4050  0.1430
 1447TIP3    H225901   2.669   4.065   0.135 -1.3273 -0.0725  0.2359
 1448TIP3   OH225902   5.855   4.340   1.339 -0.5130 -0.0763  0.7919
 1448TIP3    H125903   5.870   4.247   1.354  0.6249  0.1053  0.8129
 1448TIP3    H225904   5.816   4.343   1.251  1.1426 -0.4580 -0.0000
 1449TIP3   OH225905   5.179   3.787   7.624 -0.0241  0.1679  0.5090
 1449TIP3    H125906   5.179   3.862   7.684  2.2851 -1.1244  2.2965
 1449TIP3    H225907   5.262   3.794   7.577 -0.7655 -0.1301 -0.8974
 1450TIP3   OH225908   3.299   4.103   8.108  0.2644  0.0839  0.0119
 1450TIP3    H125909   3.317   4.085   8.200 -0.6480  0.8833  0.3577
 1450TIP3    H225910   3.301   4.018   8.066  0.2490 -0.3384  0.8495
 1451TIP3   OH225911   0.185   5.832   1.728 -0.3329 -0.2731  0.0077
 1451TIP3    H125912   0.175   5.752   1.678  0.5755  0.6041 -1.6526
 1451TIP3    H225913   0.277   5.857   1.716 -0.1652  0.1711  1.8345
 1452TIP3   OH225914   1.480   3.130   0.967 -0.3954 -0.3083  0.0821
 1452TIP3    H125915   1.569   3.155   0.943 -0.9859 -0.4834 -2.5919
 1452TIP3    H225916   1.427   3.208   0.946 -1.1242 -0.8846 -0.2550
 1453TIP3   OH225917   1.474   3.844   0.016  0.1179  0.7533  0.7911
 1453TIP3    H125918   1.381   3.855   0.033 -0.1734  0.5702 -0.5473
 1453TIP3    H225919   1.510   3.810   0.098 -0.5344  3.1389  2.1480
 1454TIP3   OH225920   6.455   3.568   0.607 -0.0045  0.1848  0.4624
 1454TIP3    H125921   6.475   3.616   0.687  1.6166  1.4310 -0.6285
 1454TIP3    H225922   6.532   3.579   0.552 -1.5054  0.3855 -1.7629
 1455TIP3   OH225923   2.556   5.108   1.540 -0.6782 -0.1680 -0.8560
 1455TIP3    H125924   2.505   5.058   1.603  0.3430 -0.9846 -0.6442
 1455TIP3    H225925   2.572   5.048   1.468  0.8405 -0.2973 -0.4514
 1456TIP3   OH225926   2.553   5.864   0.035  0.1345  0.0889 -0.4001
 1456TIP3    H125927   2.618   5.841  -0.031 -0.2636 -0.2702 -0.6790
 1456TIP3    H225928   2.510   5.942   0.001 -1.2827 -1.0905 -1.4687
 1457TIP3   OH225929   1.668   2.277   2.120 -0.6204 -0.6264 -0.2822
 1457TIP3    H125930   1.691   2.224   2.044  1.1249  0.6002 -0.6895
 1457TIP3    H225931   1.579   2.250   2.143 -1.2746 -0.9452 -2.8495
 1458TIP3   OH225932   2.569   4.722   0.082 -0.8359 -0.4330  0.0140
 1458TIP3    H125933   2.617   4.705   0.001 -2.2191  0.0374 -0.9366
 1458TIP3    H225934   2.568   4.638   0.128  1.3015 -0.3372  0.3270
 1459TIP3   OH225935   3.615   1.034   6.788  0.0125  0.4582 -0.4144
 1459TIP3    H125936   3.557   0.977   6.737  0.3726 -0.4405  0.1589
 1459TIP3    H225937   3.559   1.108   6.813 -0.2231  0.8243 -1.9209
 1460TIP3   OH225938   3.079   5.401   2.445  0.1707 -0.4067  0.1662
 1460TIP3    H125939   3.152   5.461   2.456 -0.2388  0.3801 -1.1233
 1460TIP3    H225940   3.055   5.376   2.534  2.2159 -0.9838  0.6115
 1461TIP3   OH225941   3.269   0.622   6.753  0.3107  0.8240 -0.4936
 1461TIP3    H125942   3.228   0.541   6.721  0.9043 -0.0429  0.8280
 1461TIP3    H225943   3.270   0.680   6.678 -1.0853 -0.0297 -1.2078
 1462TIP3   OH225944   1.235   4.095   8.356  0.1664  0.1133 -0.9728
 1462TIP3    H125945   1.321   4.094   8.398 -0.5941  0.2926  0.6635
 1462TIP3    H225946   1.212   4.188   8.353 -0.8059 -0.0414  0.4745
 1463TIP3   OH225947   6.474   4.197   7.063  0.1042 -0.1901  0.4468
 1463TIP3    H125948   6.526   4.277   7.050  0.0116 -0.2435 -0.3022
 1463TIP3    H225949   6.476   4.154   6.978 -1.8932  0.2265  0.1526
 1464TIP3   OH225950   1.917   1.840   7.643  0.2784  0.7789  0.2736
 1464TIP3    H125951   1.957   1.813   7.560  0.8973 -0.5058  0.9566
 1464TIP3    H225952   1.991   1.852   7.703 -0.1705  1.5714  0.6916
 1465TIP3   OH225953   3.768   2.081   7.241 -0.0702  0.4714 -0.3273
 1465TIP3    H125954   3.692   2.049   7.289  1.0072  1.9587  2.6181
 1465TIP3    H225955   3.843   2.040   7.283  0.8994  0.7319 -1.7167
 1466TIP3   OH225956   0.503   2.214   0.572 -0.2139 -0.2278  0.4556
 1466TIP3    H125957   0.472   2.127   0.597  0.8017 -1.3638 -1.9844
 1466TIP3    H225958   0.431   2.252   0.522 -0.0776 -0.2992  0.2031
 1467TIP3   OH225959   1.282   5.957   7.908 -0.2026 -0.4622 -0.4054
 1467TIP3    H125960   1.237   5.984   7.988 -0.1441 -1.0600 -0.1619
 1467TIP3    H225961   1.253   6.019   7.841 -1.7826 -1.1294 -0.3707
 1468TIP3   OH225962   5.088   3.573   0.258 -0.2613  0.3179  0.0755
 1468TIP3    H125963   5.065   3.661   0.288 -1.7952  0.3384 -1.0811
 1468TIP3    H225964   5.055   3.515   0.327 -1.9068  0.4891 -0.5434
 1469TIP3   OH225965   0.370   2.501   8.105 -0.1325 -0.6006 -0.2271
 1469TIP3    H125966   0.332   2.584   8.135  1.5350  0.4502 -0.9125
 1469TIP3    H225967   0.417   2.467   8.182 -0.0707 -0.4551 -0.1996
 1470TIP3   OH225968   5.789   0.835   7.511 -0.0482  0.2906 -0.1703
 1470TIP3    H125969   5.811   0.757   7.562 -0.6904 -1.3160 -2.1752
 1470TIP3    H225970   5.870   0.886   7.509  0.9029 -1.1430 -0.1128
 1471TIP3   OH225971   1.371   5.717   7.026 -0.4382 -0.1394  0.2396
 1471TIP3    H125972   1.413   5.799   7.051 -0.8838  0.3012 -0.4230
 1471TIP3    H225973   1.297   5.710   7.087 -1.3096  0.7504 -0.6657
 1472TIP3   OH225974   5.205   2.299   8.003 -0.1835 -0.1319 -0.5152
 1472TIP3    H125975   5.116   2.328   8.022  0.3991  0.7019  1.1805
 1472TIP3    H225976   5.261   2.364   8.045  1.2129 -1.6043  0.0463
 1473TIP3   OH225977   2.599   4.176   1.939  0.0248 -0.4855  0.3695
 1473TIP3    H125978   2.526   4.237   1.927  2.0413  1.9582 -0.4358
 1473TIP3    H225979   2.654   4.218   2.006  0.2553 -2.7384  1.6853
 1474TIP3   OH225980   2.940   5.751   1.640  0.5367  0.4674  0.0498
 1474TIP3    H125981   3.017   5.713   1.598  0.5946  0.7349 -0.0927
 1474TIP3    H225982   2.974   5.829   1.685  0.4256  0.3371  0.3549
 1475TIP3   OH225983   2.128   5.369   7.032 -0.3135 -0.7927 -0.1441
 1475TIP3    H125984   2.139   5.419   6.951 -1.9418 -2.8832 -1.7813
 1475TIP3    H225985   2.205   5.312   7.036  1.1015  1.0556  1.2716
 1476TIP3   OH225986   5.393   6.064   1.684 -0.4289  0.0936 -0.3596
 1476TIP3    H125987   5.428   6.032   1.768  0.4213 -0.0710 -0.7694
 1476TIP3    H225988   5.471   6.087   1.633 -0.9876  1.8933 -0.4576
 1477TIP3   OH225989   1.896   6.337   1.918 -0.2188  0.0228 -0.7032
 1477TIP3    H125990   1.953   6.304   1.849 -0.9279  0.2189 -1.3923
 1477TIP3    H225991   1.875   6.260   1.971  1.5758  0.1259  0.2494
 1478TIP3   OH225992   0.586   0.374   7.869  0.7275 -0.1337 -0.1892
 1478TIP3    H125993   0.530   0.448   7.847 -0.6230 -0.7625  1.0128
 1478TIP3    H225994   0.625   0.348   7.786 -0.6862  0.3789 -1.0387
 1479TIP3   OH225995   1.684   4.361   8.396 -0.0672  0.2261 -0.1231
 1479TIP3    H125996   1.656   4.451   8.414 -0.1464  0.1933 -0.0861
 1479TIP3    H225997   1.769   4.354   8.440 -0.5510 -0.0567  0.7772
 1480TIP3   OH225998   1.179   3.109   2.197  0.0046 -0.1126  0.5247
 1480TIP3    H125999   1.183   3.085   2.290  0.1220  0.7000  0.7398
 1480TIP3    H226000   1.254   3.167   2.185 -1.2318  1.5072  0.4375
 1481TIP3   OH226001   6.117   5.947   7.712 -0.2786  0.0623  0.2378
 1481TIP3    H126002   6.137   6.034   7.678 -1.4022  0.0078 -0.6047
 1481TIP3    H226003   6.188   5.929   7.774 -0.1842  1.6820  0.6403
 1482TIP3   OH226004   2.213   1.441   7.414 -0.1824  0.8674  0.1297
 1482TIP3    H126005   2.228   1.439   7.509  0.4877  1.3597  0.0453
 1482TIP3    H226006   2.299   1.424   7.376 -0.7147 -0.7716 -0.4064
 1483TIP3   OH226007   4.620   5.924   8.232 -0.1501  0.1262  0.0336
 1483TIP3    H126008   4.640   6.009   8.272 -0.2079 -0.1747  0.7094
 1483TIP3    H226009   4.637   5.860   8.301 -2.2370 -0.2495  0.2582
 1484TIP3   OH226010   4.984   3.008   0.127 -0.2254 -0.3631  0.1848
 1484TIP3    H126011   4.955   3.082   0.074 -1.0539 -0.6243  0.2473
 1484TIP3    H226012   5.017   2.944   0.064 -1.4970 -0.8022 -0.0744
 1485TIP3   OH226013   1.262   2.604   1.757 -0.6134 -0.2820 -0.4140
 1485TIP3    H126014   1.332   2.668   1.751 -1.1479  0.7097  2.2078
 1485TIP3    H226015   1.184   2.650   1.725 -0.5202 -0.5454 -1.0273
 1486TIP3   OH226016   0.886   5.291   0.432 -0.2913  0.0480  0.1875
 1486TIP3    H126017   0.834   5.215   0.409  1.5936 -1.8742  1.8193
 1486TIP3    H226018   0.824   5.352   0.472 -2.0023 -0.1504 -2.0044
 1487TIP3   OH226019   4.782   5.103   7.886 -0.0356 -0.0825 -0.4325
 1487TIP3    H126020   4.816   5.018   7.912  0.7193  0.3251 -0.0676
 1487TIP3    H226021   4.690   5.086   7.862 -0.3336 -0.7333  1.0926
 1488TIP3   OH226022   6.088   6.577   0.618 -0.5252  0.3696 -0.0172
 1488TIP3    H126023   6.113   6.617   0.701 -1.3175  0.6759  0.0838
 1488TIP3    H226024   6.089   6.483   0.636 -2.4847  0.4816  0.8894
 1489TIP3   OH226025   4.907   4.998   0.986 -0.1157  0.2325  0.6562
 1489TIP3    H126026   4.813   5.017   0.992 -0.0720  2.2706 -2.4154
 1489TIP3    H226027   4.944   5.036   1.065 -1.7205  0.8330  1.1596
 1490TIP3   OH226028   0.844   1.195   7.226  0.6382 -0.0635  0.2788
 1490TIP3    H126029   0.909   1.251   7.268 -0.9232  1.7725  0.3733
 1490TIP3    H226030   0.766   1.205   7.280  0.2714 -2.3007  0.2329
 1491TIP3   OH226031   1.231   3.992   1.734 -0.2422  0.2310 -0.0263
 1491TIP3    H126032   1.246   3.915   1.789 -0.1914  1.2804  1.5169
 1491TIP3    H226033   1.218   3.957   1.646  3.1971 -1.3530 -0.0827
 1492TIP3   OH226034   6.420   4.758   0.768 -0.3074 -0.0070  0.2279
 1492TIP3    H126035   6.502   4.710   0.783 -0.9087 -1.6004 -1.1648
 1492TIP3    H226036   6.377   4.758   0.853  0.8983  0.3856  0.8579
 1493TIP3   OH226037   2.766   1.695   2.039 -0.0214 -0.1287 -0.8715
 1493TIP3    H126038   2.829   1.638   2.085 -1.0497 -2.3009 -1.9778
 1493TIP3    H226039   2.717   1.738   2.109  0.4921 -0.9737  0.0335
 1494TIP3   OH226040   2.184   3.292   0.025 -0.4864  0.3494  0.1574
 1494TIP3    H126041   2.126   3.341  -0.032 -0.8282  0.5513  0.6762
 1494TIP3    H226042   2.194   3.346   0.103 -2.2163 -1.1161  1.4796
 1495TIP3   OH226043   6.141   0.732   0.368  0.0079  0.4419  0.0202
 1495TIP3    H126044   6.104   0.818   0.387  0.5914  1.1464 -1.7951
 1495TIP3    H226045   6.198   0.747   0.292 -0.3872 -1.6525 -0.7464
 1496TIP3   OH226046   2.790   5.189   1.165 -0.1913  0.6802  0.9622
 1496TIP3    H126047   2.772   5.164   1.255 -0.2555 -2.8106  0.1345
 1496TIP3    H226048   2.882   5.164   1.151 -0.0898  1.4643  0.1634
 1497TIP3   OH226049   0.658   5.577   7.247 -0.3124  0.0433  0.2534
 1497TIP3    H126050   0.652   5.566   7.342 -0.1680 -0.5141  0.2036
 1497TIP3    H226051   0.704   5.499   7.217 -0.8609 -0.0647 -0.3360
 1498TIP3   OH226052   2.441   2.641   0.271 -0.1567 -0.2832 -0.1017
 1498TIP3    H126053   2.419   2.622   0.180 -1.9914 -1.3030  0.5001
 1498TIP3    H226054   2.537   2.649   0.272 -0.0331 -1.1205 -1.9523
 1499TIP3   OH226055   0.685   4.906   1.397  0.2437 -0.3386  0.2521
 1499TIP3    H126056   0.684   4.988   1.347  3.0401  0.8636  1.8994
 1499TIP3    H226057   0.604   4.908   1.448 -0.4505  0.6492 -0.8272
 1500TIP3   OH226058   0.863   0.010   1.324 -0.2338 -0.0922  0.0243
 1500TIP3    H126059   0.925  -0.031   1.264 -1.8264 -3.4727  0.4829
 1500TIP3    H226060   0.891  -0.017   1.411  0.0332  1.9039  0.6190
 1501TIP3   OH226061   1.767   3.223   8.019 -0.3163  0.3739 -0.1940
 1501TIP3    H126062   1.809   3.257   8.099 -0.0359 -0.5213  0.0442
 1501TIP3    H226063   1.805   3.137   8.006  0.0729  0.7308 -1.6378
 1502TIP3   OH226064   1.891   6.699   1.447 -0.0264 -0.0900 -0.3213
 1502TIP3    H126065   1.896   6.621   1.502 -1.1757 -0.0201 -0.1024
 1502TIP3    H226066   1.972   6.747   1.466  0.0294 -0.5346  0.5990
 1503TIP3   OH226067   4.163   0.796   1.427  0.2387  0.0352  0.0719
 1503TIP3    H126068   4.206   0.728   1.375  1.6589  0.8608  0.0994
 1503TIP3    H226069   4.191   0.778   1.517  1.0332  0.9196  0.0173
 1504TIP3   OH226070   0.632   1.877   7.531 -0.1838 -0.5644 -0.0625
 1504TIP3    H126071   0.718   1.892   7.492 -1.3547  0.7231 -2.3058
 1504TIP3    H226072   0.584   1.827   7.466 -1.1915 -1.1559  1.1027
 1505TIP3   OH226073   0.732   0.368   0.432  0.2316  0.5347 -0.7197
 1505TIP3    H126074   0.733   0.327   0.346 -0.2416  0.5155 -0.7206
 1505TIP3    H226075   0.754   0.460   0.416 -0.0049  0.5644 -0.8838
 1506TIP3   OH226076   1.640   4.613   1.968  0.3807  0.5915 -0.2352
 1506TIP3    H126077   1.675   4.696   1.999  0.7619  0.3667 -0.0677
 1506TIP3    H226078   1.549   4.633   1.943 -0.1807  0.6320  1.6819
 1507TIP3   OH226079   0.682   2.475   7.187 -0.0654  0.3085 -0.0483
 1507TIP3    H126080   0.649   2.390   7.158 -0.1568  0.3654 -0.1092
 1507TIP3    H226081   0.687   2.527   7.107  1.6580 -0.1891 -0.3035
 1508TIP3   OH226082   5.986   2.132   1.145 -0.2794  0.3111 -0.2224
 1508TIP3    H126083   5.966   2.169   1.059 -1.5566  0.4591  0.1152
 1508TIP3    H226084   6.017   2.043   1.127 -0.0106  0.5314 -0.8639
 1509TIP3   OH226085   3.354   0.761   1.493 -0.2332 -0.2473 -0.5088
 1509TIP3    H126086   3.446   0.771   1.514  0.1224  0.6833 -2.3411
 1509TIP3    H226087   3.324   0.849   1.471 -2.6564  0.3426  3.8521
 1510TIP3   OH226088   5.673   0.105   7.604  0.1089  0.3426 -0.1132
 1510TIP3    H126089   5.736   0.052   7.653 -0.4192  1.6300  2.1149
 1510TIP3    H226090   5.599   0.116   7.664 -0.6922  1.8239 -1.2989
 1511TIP3   OH226091   0.446   0.989   0.658  0.4069  0.0307  0.4425
 1511TIP3    H126092   0.444   1.062   0.596  0.2631 -1.1483 -0.9840
 1511TIP3    H226093   0.519   0.934   0.628  0.2225 -0.6551  1.2230
 1512TIP3   OH226094   5.660   2.109   6.308  0.1799  0.7638 -0.3900
 1512TIP3    H126095   5.686   2.187   6.260 -0.2823  1.0356 -0.2026
 1512TIP3    H226096   5.632   2.047   6.240  0.5161  0.7678 -0.5344
 1513TIP3   OH226097   3.096   1.885   2.019  0.9986  0.1948  0.1000
 1513TIP3    H126098   3.113   1.820   2.088  0.3828 -0.8471 -0.6910
 1513TIP3    H226099   3.119   1.969   2.059  1.2609 -0.4432  1.3569
 1514TIP3   OH226100   4.822   1.533   7.137 -0.7989  0.1190  0.2431
 1514TIP3    H126101   4.856   1.454   7.094  3.6195  1.8688  0.0430
 1514TIP3    H226102   4.842   1.521   7.229  0.3505  1.1236  0.1490
 1515TIP3   OH226103   0.102   0.367   0.514 -0.2269  0.4211  0.6966
 1515TIP3    H126104   0.063   0.392   0.598 -3.6739 -2.3501  0.1767
 1515TIP3    H226105   0.051   0.415   0.449  1.0783  1.0182  0.0897
 1516TIP3   OH226106   5.929   3.184   7.485  0.0684  0.5102 -0.3861
 1516TIP3    H126107   5.854   3.174   7.544  0.1909  0.4335 -0.2445
 1516TIP3    H226108   5.969   3.267   7.510  0.1726  0.4349 -0.3021
 1517TIP3   OH226109   3.631   3.730   1.024 -0.3450  0.2587 -0.1460
 1517TIP3    H126110   3.703   3.700   0.968  0.6252  1.0097  0.6585
 1517TIP3    H226111   3.640   3.680   1.104 -2.4372 -1.6537 -1.0202
 1518TIP3   OH226112   4.132   0.912   6.780  0.4737  0.5190  0.2105
 1518TIP3    H126113   4.059   0.908   6.718  0.0505  4.0088  0.2992
 1518TIP3    H226114   4.198   0.964   6.736  0.4410  2.5274  2.3245
 1519TIP3   OH226115   3.679   6.349   7.923  0.3871  0.3665  0.1812
 1519TIP3    H126116   3.676   6.289   7.997  0.2111 -0.8216 -0.7606
 1519TIP3    H226117   3.759   6.326   7.876  1.1388  1.9110  0.6182
 1520TIP3   OH226118   2.018   0.418   8.271  0.1499  0.6923  0.5299
 1520TIP3    H126119   2.030   0.333   8.312  0.2201  0.7098  0.5444
 1520TIP3    H226120   1.971   0.399   8.190 -0.7293  0.7423  1.0130
 1521TIP3   OH226121   6.819   5.897   8.401 -0.1599  0.3862 -0.3481
 1521TIP3    H126122   6.814   5.905   8.496  1.6414  0.1970 -0.2037
 1521TIP3    H226123   6.763   5.967   8.368 -0.6057  0.6140  0.8580
 1522TIP3   OH226124   6.150   4.412   0.377  0.3344  0.3609  0.1397
 1522TIP3    H126125   6.084   4.349   0.407  1.5882 -0.4344  1.3446
 1522TIP3    H226126   6.185   4.373   0.297 -0.3615  0.6019 -0.2970
 1523TIP3   OH226127   1.133   1.483   5.929 -0.0362 -0.1252  0.8306
 1523TIP3    H126128   1.210   1.509   5.878  1.3749 -0.5181  2.6608
 1523TIP3    H226129   1.138   1.537   6.008 -0.6689 -1.3901  1.7532
 1524TIP3   OH226130   0.159   0.545   7.429  0.2869 -0.2235  0.2936
 1524TIP3    H126131   0.229   0.531   7.493  0.1489  1.4527  0.8484
 1524TIP3    H226132   0.082   0.566   7.482 -0.1220  0.0086 -0.3894
 1525TIP3   OH226133   1.375   0.157   6.615 -0.2905 -0.0783  0.1094
 1525TIP3    H126134   1.305   0.115   6.664 -0.0027 -0.9588 -0.2138
 1525TIP3    H226135   1.344   0.246   6.600 -2.1429 -0.9080 -1.5350
 1526TIP3   OH226136   4.528   1.066   1.884  0.6250 -0.1504 -0.1223
 1526TIP3    H126137   4.498   1.153   1.911  1.0305 -0.5476  1.8138
 1526TIP3    H226138   4.592   1.041   1.952 -1.4604 -3.0540  0.9777
 1527TIP3   OH226139   2.827   5.915   0.364 -0.2548 -0.1169 -0.7006
 1527TIP3    H126140   2.787   5.852   0.424 -0.5704 -0.5413 -1.3507
 1527TIP3    H226141   2.758   5.979   0.346  0.4794  1.2832  1.0987
 1528TIP3   OH226142   1.789   6.161   1.563 -0.8534  0.3594  0.2631
 1528TIP3    H126143   1.752   6.123   1.643  2.7188 -0.1760  1.8262
 1528TIP3    H226144   1.871   6.114   1.549  0.4488  2.9409 -1.6238
 1529TIP3   OH226145   1.761   1.599   1.242 -0.1104 -0.7117  0.2407
 1529TIP3    H126146   1.699   1.654   1.194 -0.4414 -2.4523 -1.4559
 1529TIP3    H226147   1.847   1.624   1.207  0.0728  0.7035  1.5792
 1530TIP3   OH226148   0.936   0.514   0.213 -0.0166 -0.1398 -0.1451
 1530TIP3    H126149   0.993   0.519   0.136  1.7072  0.2118  1.0822
 1530TIP3    H226150   0.924   0.605   0.241 -0.2912 -0.2859  0.2319
 1531TIP3   OH226151   3.681   0.571   8.352  0.4897 -0.3045  0.3414
 1531TIP3    H126152   3.614   0.518   8.395 -0.0191 -0.9258 -1.1635
 1531TIP3    H226153   3.632   0.625   8.290  0.8901  2.4841  2.2542
 1532TIP3   OH226154   1.749   1.035   7.564 -0.2386 -0.4357 -0.2745
 1532TIP3    H126155   1.694   1.105   7.529 -0.8459 -0.9534 -0.3738
 1532TIP3    H226156   1.689   0.981   7.616  0.5589  0.0831  1.2625
 1533TIP3   OH226157   2.405   1.019   0.289 -0.1464  0.2433  0.1319
 1533TIP3    H126158   2.435   0.993   0.202 -0.0597  2.2058 -0.4744
 1533TIP3    H226159   2.483   1.012   0.344  0.6396  2.0351 -0.6830
 1534TIP3   OH226160   2.921   5.210   7.069 -0.3379 -0.3855  0.6190
 1534TIP3    H126161   2.886   5.121   7.076 -1.7506  0.2437  2.9135
 1534TIP3    H226162   2.843   5.265   7.059  0.3402  0.7267  1.2310
 1535TIP3   OH226163   3.233   3.684   1.535 -0.5511  0.5100  0.4377
 1535TIP3    H126164   3.303   3.632   1.575 -0.3277  0.8565  0.4960
 1535TIP3    H226165   3.219   3.643   1.449  1.0887  1.6380 -0.4074
 1536TIP3   OH226166   0.546   6.679   7.758 -0.4586  0.2415 -0.6472
 1536TIP3    H126167   0.606   6.606   7.773 -0.4727 -0.1599 -2.3509
 1536TIP3    H226168   0.459   6.638   7.758 -0.6347  0.5769  0.2346
 1537TIP3   OH226169   4.413   2.794   0.469 -0.3544 -0.4294 -0.6706
 1537TIP3    H126170   4.504   2.777   0.446 -0.4344 -1.3607 -0.3185
 1537TIP3    H226171   4.412   2.793   0.565 -0.9692 -1.7569 -0.6715
 1538TIP3   OH226172   3.963   5.823   0.398 -0.2895  0.0599 -0.2159
 1538TIP3    H126173   3.936   5.840   0.488 -0.9773 -1.0545 -0.1847
 1538TIP3    H226174   3.881   5.806   0.351 -0.1694  2.6868 -1.5759
 1539TIP3   OH226175   1.942   1.446   8.599 -0.2870  0.5694 -0.3576
 1539TIP3    H126176   2.013   1.472   8.658 -0.0915 -0.7756  0.0203
 1539TIP3    H226177   1.918   1.527   8.555  0.1380  1.4449  0.9485
 1540TIP3   OH226178   1.746   6.269   7.022 -0.0365 -0.5408  0.0677
 1540TIP3    H126179   1.679   6.337   7.033  0.4916  0.0130 -0.0739
 1540TIP3    H226180   1.771   6.246   7.111  1.3918  1.0835  0.1405
 1541TIP3   OH226181   1.554   6.501   0.895 -0.0771 -0.0191 -0.1075
 1541TIP3    H126182   1.497   6.544   0.958  0.0339  1.6378 -1.0750
 1541TIP3    H226183   1.538   6.547   0.812  2.1833  0.0926 -0.5452
 1542TIP3   OH226184   3.110   2.964   0.859  0.5025  0.4058  0.1371
 1542TIP3    H126185   3.079   3.052   0.839  0.9845  0.9441  1.6079
 1542TIP3    H226186   3.073   2.909   0.791 -1.4463  1.4334  0.3092
 1543TIP3   OH226187   6.332   4.824   8.002  0.1182  0.0456 -0.8840
 1543TIP3    H126188   6.267   4.867   7.947  0.8939  2.9684  0.2755
 1543TIP3    H226189   6.290   4.818   8.088  0.4427 -0.4361 -0.7584
 1544TIP3   OH226190   4.708   4.617   6.719  0.3861  0.1216  0.2534
 1544TIP3    H126191   4.772   4.620   6.648  0.8292 -0.2242  0.6304
 1544TIP3    H226192   4.637   4.675   6.690  0.6992  0.2234 -0.3300
 1545TIP3   OH226193   6.506   6.534   1.439 -0.0755  0.2047 -0.3334
 1545TIP3    H126194   6.484   6.587   1.515  0.3171  0.4187 -0.3639
 1545TIP3    H226195   6.494   6.593   1.364 -1.5782 -0.3322 -0.5512
 1546TIP3   OH226196   4.832   5.306   1.024  0.4472  1.0112 -0.3176
 1546TIP3    H126197   4.908   5.288   0.968 -0.7503 -1.9200 -1.2376
 1546TIP3    H226198   4.841   5.397   1.049  4.0342  0.9112 -0.7276
 1547TIP3   OH226199   3.339   0.589   8.639 -0.2049 -0.2088 -0.4456
 1547TIP3    H126200   3.403   0.652   8.608 -1.6648  2.0896  0.9274
 1547TIP3    H226201   3.357   0.578   8.732 -0.8278 -0.7654 -0.3750
 1548TIP3   OH226202   1.990   5.349   2.241 -0.6721  0.3593  0.0743
 1548TIP3    H126203   1.962   5.417   2.302  0.3796 -0.8662  2.0677
 1548TIP3    H226204   2.008   5.274   2.297  1.0450 -0.6335 -1.6912
 1549TIP3   OH226205   1.000   5.125   7.998 -0.4464  0.7585  0.5156
 1549TIP3    H126206   0.947   5.204   7.988  0.0504  0.9032 -1.5374
 1549TIP3    H226207   1.013   5.094   7.908  2.5654  0.5044  0.9342
 1550TIP3   OH226208   2.172   4.482   1.145  0.2809  0.1157  0.2260
 1550TIP3    H126209   2.186   4.562   1.196  1.4063  0.7448 -0.9976
 1550TIP3    H226210   2.164   4.413   1.210  1.8378  0.8517  1.2701
 1551TIP3   OH226211   4.480   3.517   6.187  0.4761 -0.1917  0.4385
 1551TIP3    H126212   4.395   3.545   6.152  0.9545 -1.5880 -2.0214
 1551TIP3    H226213   4.544   3.567   6.137  1.1541 -1.1936  0.2817
 1552TIP3   OH226214   4.062   1.939   2.058 -0.2253 -0.0771 -0.2604
 1552TIP3    H126215   4.051   2.020   2.007  0.9999 -0.8805 -1.9083
 1552TIP3    H226216   4.080   1.969   2.147  0.3526  1.4786 -0.8647
 1553TIP3   OH226217   6.447   6.031   8.665  0.3597 -0.3966  0.3128
 1553TIP3    H126218   6.475   5.940   8.677  2.8193  0.3387  0.6688
 1553TIP3    H226219   6.409   6.032   8.577  1.4016 -1.5428 -0.1909
 1554TIP3   OH226220   5.538   6.857   0.632  0.4656 -0.4332  0.1161
 1554TIP3    H126221   5.510   6.827   0.546  0.4443  1.2004 -0.4794
 1554TIP3    H226222   5.633   6.865   0.625  0.5983 -1.3504  0.6203
 1555TIP3   OH226223   0.466   1.199   0.488  0.1983  0.4080 -0.0076
 1555TIP3    H126224   0.453   1.220   0.396 -0.5052 -1.0204 -0.2613
 1555TIP3    H226225   0.545   1.247   0.513  1.0330 -0.0438 -1.6548
 1556TIP3   OH226226   4.672   0.007   6.238  0.7332  0.4650  0.2597
 1556TIP3    H126227   4.676   0.085   6.293  1.6260  0.3810  0.3212
 1556TIP3    H226228   4.741  -0.050   6.271  1.0136  0.2425 -0.6792
 1557TIP3   OH226229   2.691   0.591   7.554  0.2536 -0.4699 -0.2090
 1557TIP3    H126230   2.634   0.631   7.488  0.1478 -1.3460 -0.6620
 1557TIP3    H226231   2.641   0.599   7.636  0.6888  1.2608 -0.0736
 1558TIP3   OH226232   4.231   2.989   7.532  0.7132 -0.0425  0.3329
 1558TIP3    H126233   4.180   3.037   7.598 -2.0045 -0.7261 -1.1637
 1558TIP3    H226234   4.230   3.046   7.455  0.1989 -1.0805 -0.4451
 1559TIP3   OH226235   3.960   1.009   7.932 -0.5166  0.2390 -0.2664
 1559TIP3    H126236   4.012   1.044   8.004 -0.9503 -1.8644  1.1660
 1559TIP3    H226237   3.870   1.034   7.954 -0.5638  0.2779 -0.5042
 1560TIP3   OH226238   6.344   5.699   0.103  0.0068  0.4538  0.2381
 1560TIP3    H126239   6.357   5.605   0.102 -2.1079  0.1220 -0.2669
 1560TIP3    H226240   6.382   5.730   0.021 -3.3407 -0.6658 -1.9249
 1561TIP3   OH226241   6.630   0.486   8.222 -0.3972 -0.2444 -0.1967
 1561TIP3    H126242   6.637   0.458   8.131  0.5268 -1.3839  0.2008
 1561TIP3    H226243   6.698   0.437   8.267 -2.1984 -1.3438  1.5016
 1562TIP3   OH226244   1.525   4.498   0.850  0.4983  0.1451 -0.2678
 1562TIP3    H126245   1.520   4.482   0.944  0.5319  1.5806  0.0023
 1562TIP3    H226246   1.567   4.420   0.815  0.9668 -0.1865  0.9752
 1563TIP3   OH226247   3.487   0.835   1.881 -0.7068  0.1061 -0.0590
 1563TIP3    H126248   3.412   0.782   1.856 -0.2221 -0.5682 -0.1092
 1563TIP3    H226249   3.547   0.774   1.923 -0.2806  0.6809  0.1920
 1564TIP3   OH226250   5.416   3.905   8.561 -0.2972 -0.0147 -0.1150
 1564TIP3    H126251   5.440   3.883   8.471 -0.1279 -0.9297  0.1516
 1564TIP3    H226252   5.323   3.882   8.568 -0.0591 -0.8914  0.2337
 1565TIP3   OH226253   0.700   2.450   2.228 -0.3376  0.0064  0.3098
 1565TIP3    H126254   0.784   2.463   2.272  0.2588 -1.1728 -0.4198
 1565TIP3    H226255   0.719   2.465   2.136 -0.7848 -0.8197  0.0717
 1566TIP3   OH226256   1.544   6.370   1.632 -0.6429 -0.6387 -0.0435
 1566TIP3    H126257   1.558   6.286   1.676  1.7436 -0.0943  0.3966
 1566TIP3    H226258   1.572   6.355   1.542 -1.4704 -0.6387 -0.3071
 1567TIP3   OH226259   4.832   2.261   1.374  0.3458  0.3606  0.3652
 1567TIP3    H126260   4.871   2.281   1.459 -1.5268 -1.7980  1.8525
 1567TIP3    H226261   4.752   2.214   1.395 -0.1473 -0.3322 -2.6379
 1568TIP3   OH226262   4.170   0.255   8.291  0.5911  0.2577  0.3132
 1568TIP3    H126263   4.168   0.168   8.331 -0.5486  0.2472  0.2512
 1568TIP3    H226264   4.113   0.248   8.215  0.0706  1.1927  0.5994
 1569TIP3   OH226265   1.311   3.989   0.629  0.7371  0.1535  0.2659
 1569TIP3    H126266   1.217   3.992   0.647  0.7372  0.3850  0.2355
 1569TIP3    H226267   1.353   4.000   0.714  0.7409  1.9296  0.0714
 1570TIP3   OH226268   0.297   3.207   7.368  0.1032  0.2989  0.1942
 1570TIP3    H126269   0.229   3.158   7.322  0.1219  0.3103  0.1543
 1570TIP3    H226270   0.274   3.299   7.354 -0.2201  0.3030  0.6932
 1571TIP3   OH226271   4.351   4.934   7.396  0.3432 -0.2468  0.0402
 1571TIP3    H126272   4.409   4.874   7.349  0.6108 -0.0646  0.1372
 1571TIP3    H226273   4.379   4.928   7.487  1.3361  1.1174 -0.1482
 1572TIP3   OH226274   2.387   3.993   8.556  0.3725 -0.2722  0.1471
 1572TIP3    H126275   2.335   3.935   8.500 -0.7137  0.1967  0.6266
 1572TIP3    H226276   2.478   3.973   8.535 -0.0040 -1.1417 -0.7078
 1573TIP3   OH226277   1.314   0.617   0.622 -0.0961 -0.2374  0.0511
 1573TIP3    H126278   1.371   0.540   0.628 -0.4530 -0.3851  2.1147
 1573TIP3    H226279   1.372   0.691   0.635 -0.3592 -0.4115  2.7506
 1574TIP3   OH226280   4.664   1.457   6.883 -0.1763  0.1005  0.4200
 1574TIP3    H126281   4.719   1.527   6.917 -1.8378  0.5910  2.3028
 1574TIP3    H226282   4.616   1.497   6.810  0.5686  0.2243 -0.0051
 1575TIP3   OH226283   4.690   6.128   7.319  0.6964  0.5463 -0.3893
 1575TIP3    H126284   4.677   6.209   7.368 -0.9036  1.1303 -1.6778
 1575TIP3    H226285   4.626   6.133   7.248  0.4356 -1.9314 -0.4110
 1576TIP3   OH226286   0.079   1.114   0.644  0.0404  0.5287 -0.5522
 1576TIP3    H126287   0.082   1.125   0.739  0.5692 -1.0347 -0.3642
 1576TIP3    H226288   0.089   1.020   0.630  0.4243  0.7800 -2.1794
 1577TIP3   OH226289   1.193   3.937   8.139  0.0769  0.3160  0.0827
 1577TIP3    H126290   1.226   3.969   8.223  0.3718 -1.2889  0.5963
 1577TIP3    H226291   1.248   3.981   8.074  1.6165 -0.4273  0.8293
 1578TIP3   OH226292   2.161   4.610   8.245  0.3530 -0.1379  0.2270
 1578TIP3    H126293   2.208   4.650   8.172 -0.8477 -0.7723 -0.9170
 1578TIP3    H226294   2.086   4.667   8.260  0.5220 -0.0788  0.8959
 1579TIP3   OH226295   5.607   1.051   1.382  0.6803  0.2540  0.0943
 1579TIP3    H126296   5.552   1.090   1.314  0.6786  1.7396  0.9026
 1579TIP3    H226297   5.544   1.006   1.439  0.7049 -1.2182 -0.9735
 1580TIP3   OH226298   4.133   6.583   1.860  0.4630  0.1277  0.2985
 1580TIP3    H126299   4.156   6.536   1.940  0.4154 -0.5253 -0.0611
 1580TIP3    H226300   4.110   6.671   1.889  0.1596 -0.1891  1.0361
 1581TIP3   OH226301   3.286   2.217   0.404 -0.1944  0.2372  0.0522
 1581TIP3    H126302   3.222   2.241   0.338 -0.7451 -2.4289 -0.5086
 1581TIP3    H226303   3.250   2.137   0.443  2.1745 -0.6235  0.6009
 1582TIP3   OH226304   5.220   3.575   7.080  0.3477  0.1355 -0.3804
 1582TIP3    H126305   5.185   3.577   7.169  0.5086  1.4301 -0.3286
 1582TIP3    H226306   5.263   3.490   7.073 -1.3311 -0.7883  0.1192
 1583TIP3   OH226307   6.087   2.047   6.660 -0.6799  0.4096 -0.1780
 1583TIP3    H126308   6.105   2.002   6.742 -2.1246 -0.8985 -0.5305
 1583TIP3    H226309   6.015   2.106   6.680 -0.3082  0.9069 -0.2698
 1584TIP3   OH226310   2.045   4.002   0.334 -0.3502  0.1965  0.2073
 1584TIP3    H126311   2.028   3.935   0.400 -1.6975 -0.1832 -0.4905
 1584TIP3    H226312   2.140   4.013   0.335 -0.3247  0.2244  2.2144
 1585TIP3   OH226313   6.823   4.527   7.165 -0.3890 -0.3007  0.0465
 1585TIP3    H126314   6.788   4.607   7.125  1.3907  0.4272 -0.1803
 1585TIP3    H226315   6.802   4.534   7.258  0.1690  0.7074  0.1140
 1586TIP3   OH226316   1.100   2.931   6.894 -0.5544  0.0911  0.4653
 1586TIP3    H126317   1.068   3.000   6.837 -0.2446  1.2943  1.6929
 1586TIP3    H226318   1.148   2.977   6.963 -0.5801 -1.3246  1.4790
 1587TIP3   OH226319   1.845   0.910   2.174  0.5591 -0.1521 -0.1291
 1587TIP3    H126320   1.769   0.959   2.203  0.0859 -2.9851  4.2505
 1587TIP3    H226321   1.919   0.971   2.187 -0.3089  0.5370  1.9674
 1588TIP3   OH226322   3.498   4.920   7.776 -0.3109 -0.3359 -0.0912
 1588TIP3    H126323   3.522   5.012   7.762 -0.7799 -0.2177 -0.1426
 1588TIP3    H226324   3.557   4.871   7.719 -0.1685 -0.0557 -0.1882
 1589TIP3   OH226325   5.750   3.467   1.010 -0.2727 -0.5367 -0.3633
 1589TIP3    H126326   5.669   3.518   1.015 -1.0389 -1.7970  1.7679
 1589TIP3    H226327   5.723   3.385   0.968  0.4744 -0.0338 -1.8645
 1590TIP3   OH226328   0.556   1.547   2.157 -0.2427  0.4023  0.3056
 1590TIP3    H126329   0.491   1.605   2.116 -0.0075  0.2927 -0.2246
 1590TIP3    H226330   0.535   1.460   2.124  0.8554  0.5145 -0.7545
 1591TIP3   OH226331   2.530   2.082   0.961 -0.0381 -0.2188 -0.7918
 1591TIP3    H126332   2.575   2.142   0.901  1.0073 -0.1282  0.0407
 1591TIP3    H226333   2.447   2.063   0.919 -0.1152  1.2999 -1.3953
 1592TIP3   OH226334   0.637   1.739   0.734  0.3956 -0.2488 -0.1242
 1592TIP3    H126335   0.633   1.832   0.759  0.3202 -0.3333  0.1788
 1592TIP3    H226336   0.643   1.741   0.638 -1.2647  0.0369 -0.2552
 1593TIP3   OH226337   0.104   6.178   1.471 -0.0257  0.5016  0.2912
 1593TIP3    H126338   0.141   6.110   1.415  0.3032  1.9664 -1.3606
 1593TIP3    H226339   0.010   6.172   1.457 -0.0882 -0.2491  0.9478
 1594TIP3   OH226340   1.403   1.713   1.198  0.3207 -0.4760  0.3442
 1594TIP3    H126341   1.439   1.680   1.281 -1.4264 -2.9062  0.2619
 1594TIP3    H226342   1.383   1.805   1.216  2.0721 -0.3347  1.8648
 1595TIP3   OH226343   4.672   6.763   7.335 -0.4125 -0.2561  0.1484
 1595TIP3    H126344   4.624   6.769   7.252  1.0145 -3.1560 -1.0149
 1595TIP3    H226345   4.604   6.764   7.402 -1.6851  0.8546 -1.0807
 1596TIP3   OH226346   1.444   3.400   0.838 -0.0955  0.5360 -0.1755
 1596TIP3    H126347   1.527   3.383   0.882 -0.1335  0.3118 -0.1869
 1596TIP3    H226348   1.469   3.436   0.753  0.1325 -2.4465 -1.5152
 1597TIP3   OH226349   2.053   4.891   7.431 -0.0705 -0.0421 -0.2284
 1597TIP3    H126350   1.977   4.906   7.375 -0.9283 -1.3788  0.5159
 1597TIP3    H226351   2.066   4.973   7.477 -1.3153  0.0879 -0.0822
 1598TIP3   OH226352   5.361   1.958   7.501  0.2805  0.5424  0.0377
 1598TIP3    H126353   5.322   2.002   7.577 -1.7008  0.2436 -0.7520
 1598TIP3    H226354   5.289   1.908   7.463  1.9925 -1.9169 -0.2048
 1599TIP3   OH226355   2.666   4.481   0.254 -0.3888  0.2948 -0.2299
 1599TIP3    H126356   2.630   4.518   0.335 -1.9403  0.3670 -0.9050
 1599TIP3    H226357   2.732   4.418   0.283 -0.0381  1.2063  1.0369
 1600TIP3   OH226358   6.734   0.139   0.667 -0.8383 -0.3468  0.0463
 1600TIP3    H126359   6.757   0.192   0.591 -0.5916 -1.0116 -0.3505
 1600TIP3    H226360   6.812   0.087   0.685 -0.3376  0.9006  1.7222
 1601TIP3   OH226361   3.322   0.928   6.806 -0.2307  0.0525  0.0971
 1601TIP3    H126362   3.329   0.901   6.714  1.1844  0.6555 -0.0059
 1601TIP3    H226363   3.347   0.851   6.856 -1.6908 -0.4966  0.0285
 1602TIP3   OH226364   3.697   6.551   1.375 -0.5656  0.0603  0.1191
 1602TIP3    H126365   3.779   6.502   1.364 -1.0200 -0.5902 -0.3980
 1602TIP3    H226366   3.719   6.640   1.345 -0.0390 -0.0958  0.0228
 1603TIP3   OH226367   5.316   5.017   1.196 -0.2311 -0.6014  0.3350
 1603TIP3    H126368   5.270   4.933   1.193  0.6189 -1.0481 -0.9102
 1603TIP3    H226369   5.397   5.002   1.148  1.1800  0.2159  2.3148
 1604TIP3   OH226370   3.167   5.171   0.434  0.2523 -0.2432  0.2248
 1604TIP3    H126371   3.080   5.167   0.472 -0.3612 -0.8950 -1.1838
 1604TIP3    H226372   3.226   5.174   0.509 -1.0169  2.3253  1.2559
 1605TIP3   OH226373   4.459   1.798   6.944 -0.3958  0.4477 -0.5207
 1605TIP3    H126374   4.546   1.835   6.935  0.5128 -0.9258  1.6644
 1605TIP3    H226375   4.449   1.740   6.868  1.5802 -1.1302  0.3506
 1606TIP3   OH226376   6.416   1.625   0.694 -0.1101  0.4292  0.1527
 1606TIP3    H126377   6.393   1.650   0.783  1.7236 -1.2638  1.1732
 1606TIP3    H226378   6.377   1.538   0.683 -0.2482  0.5901 -0.6876
 1607TIP3   OH226379   3.680   5.427   0.642 -0.3114 -0.3590 -0.3210
 1607TIP3    H126380   3.670   5.392   0.554 -1.3012 -0.2900 -0.2487
 1607TIP3    H226381   3.683   5.349   0.698 -0.7608 -0.3842 -0.3250
 1608TIP3   OH226382   2.000   4.076   7.340  0.4340  0.0136 -0.1958
 1608TIP3    H126383   1.913   4.116   7.336  0.5537  0.1896 -1.3456
 1608TIP3    H226384   2.045   4.124   7.408  0.0522  0.7842 -0.4777
 1609TIP3   OH226385   6.736   4.763   8.076 -0.4561  0.9741 -0.1963
 1609TIP3    H126386   6.677   4.723   8.140 -1.2997  0.6421 -1.1632
 1609TIP3    H226387   6.683   4.828   8.031  0.0941  1.1250 -0.6435
 1610TIP3   OH226388   6.151   5.127   0.932 -0.3935 -0.1277  0.7274
 1610TIP3    H126389   6.154   5.222   0.920 -1.9327 -0.0684  0.4827
 1610TIP3    H226390   6.107   5.095   0.852  0.8341 -1.1430  0.4256
 1611TIP3   OH226391   6.245   4.888   0.494 -0.0231 -0.0813 -0.0551
 1611TIP3    H126392   6.240   4.811   0.437 -1.7729 -0.0640  0.0038
 1611TIP3    H226393   6.178   4.947   0.460 -0.2148  0.4780  1.2283
 1612TIP3   OH226394   6.245   1.595   6.654  0.5485  0.1226  0.3443
 1612TIP3    H126395   6.180   1.531   6.626  0.1686 -0.0284  1.5183
 1612TIP3    H226396   6.280   1.631   6.573  0.1992 -0.9963 -0.3210
 1613TIP3   OH226397   1.183   1.415   0.238  0.2658  1.0157  0.1764
 1613TIP3    H126398   1.203   1.501   0.276  0.5450  0.3612  1.5847
 1613TIP3    H226399   1.198   1.353   0.310 -0.0279 -0.2063 -0.7806
 1614TIP3   OH226400   1.463   6.455   7.660 -0.1277  0.5671  0.3681
 1614TIP3    H126401   1.441   6.548   7.655  0.1094  0.6408  0.6671
 1614TIP3    H226402   1.463   6.435   7.754 -0.9725  0.0671  0.2783
 1615TIP3   OH226403   0.987   2.182   0.306 -0.0985 -0.5106 -0.4263
 1615TIP3    H126404   0.919   2.217   0.363  0.5559 -1.0650  0.7294
 1615TIP3    H226405   1.009   2.097   0.344  0.4485 -0.8413 -1.4379
 1616TIP3   OH226406   6.029   3.504   7.932  0.3735 -0.3203  0.1558
 1616TIP3    H126407   5.972   3.482   7.859  0.1276 -0.9748  0.5382
 1616TIP3    H226408   6.079   3.425   7.949  0.9026  0.0363  0.2667
 1617TIP3   OH226409   1.594   3.888   1.743  0.5365 -0.4969 -0.2515
 1617TIP3    H126410   1.571   3.796   1.727  2.6237 -0.9074 -1.3525
 1617TIP3    H226411   1.587   3.929   1.657  1.6348 -0.1436 -0.1873
 1618TIP3   OH226412   0.418   3.412   1.829  0.1537  0.0537 -0.1542
 1618TIP3    H126413   0.486   3.399   1.896 -0.8438  1.0300  1.0907
 1618TIP3    H226414   0.336   3.413   1.878 -1.1065 -3.5984 -1.8638
 1619TIP3   OH226415   5.646   5.626   0.331  0.6195 -0.2951 -0.6537
 1619TIP3    H126416   5.557   5.661   0.343  0.7596 -0.3564  0.7674
 1619TIP3    H226417   5.690   5.644   0.414  2.7274  1.9155 -2.1178
 1620TIP3   OH226418   2.146   3.026   1.043  0.5788  0.0832 -0.1091
 1620TIP3    H126419   2.103   3.094   0.991  1.3972  0.9732  0.3517
 1620TIP3    H226420   2.141   2.948   0.988  1.6650  1.0532 -1.6733
 1621TIP3   OH226421   0.042   4.075   8.301  0.0897  0.0295  0.1076
 1621TIP3    H126422   0.034   3.992   8.255 -1.1643  1.3694 -2.2774
 1621TIP3    H226423   0.095   4.055   8.378  0.4167 -2.7986 -0.7539
 1622TIP3   OH226424   0.302   2.285   7.319 -0.2092 -0.9060 -0.7263
 1622TIP3    H126425   0.340   2.205   7.281  0.4778 -1.4083  0.9344
 1622TIP3    H226426   0.225   2.255   7.367  0.2220 -0.6368  0.1559
 1623TIP3   OH226427   1.601   4.026   1.174  0.7336 -0.2008 -0.1074
 1623TIP3    H126428   1.565   4.034   1.086  0.2660 -0.8711  0.0192
 1623TIP3    H226429   1.695   4.037   1.162  0.6081  0.4347 -0.5880
 1624TIP3   OH226430   0.485   2.991   1.685  0.1881  0.4691 -0.0104
 1624TIP3    H126431   0.493   2.995   1.589  2.9212  1.6225  0.1747
 1624TIP3    H226432   0.535   2.913   1.710 -0.7076  0.0453  0.4854
 1625TIP3   OH226433   2.439   4.593   0.444 -0.7438 -0.0512  0.4720
 1625TIP3    H126434   2.370   4.615   0.508 -1.0445 -1.0042  0.4915
 1625TIP3    H226435   2.423   4.652   0.371 -0.4332  1.0195  1.2398
 1626TIP3   OH226436   5.675   6.019   0.796  0.0370  0.5639  0.3389
 1626TIP3    H126437   5.743   5.994   0.859  0.0761 -1.1640 -0.3395
 1626TIP3    H226438   5.720   6.020   0.712 -1.0316 -2.0761 -0.3385
 1627TIP3   OH226439   5.780   5.727   7.582 -0.2076 -0.0755 -0.1620
 1627TIP3    H126440   5.725   5.740   7.660  0.2138  0.2312  0.0866
 1627TIP3    H226441   5.804   5.815   7.555  1.8060 -0.2394  0.9152
 1628TIP3   OH226442   0.712   2.033   0.252 -1.0456 -0.1178 -0.0500
 1628TIP3    H126443   0.763   1.960   0.288 -1.6953  0.0176  1.2214
 1628TIP3    H226444   0.717   2.101   0.319 -2.2011  0.1981 -0.2584
 1629TIP3   OH226445   3.194   6.084   0.054 -0.1321  0.1728 -0.2694
 1629TIP3    H126446   3.146   6.127   0.125  0.8678  1.3662 -0.2911
 1629TIP3    H226447   3.127   6.063  -0.011 -1.2139 -1.7229  1.3479
 1630TIP3   OH226448   3.557   3.144   1.752 -0.3825  0.1300  0.1112
 1630TIP3    H126449   3.568   3.050   1.736  0.7646  0.5012 -1.5924
 1630TIP3    H226450   3.641   3.173   1.786 -0.9639  0.4459  1.3373
 1631TIP3   OH226451   4.570   5.234   1.893 -0.5523 -0.4481  0.0963
 1631TIP3    H126452   4.562   5.286   1.974  0.0751 -0.2218  0.0177
 1631TIP3    H226453   4.592   5.146   1.924 -0.5500 -0.4177  0.1826
 1632TIP3   OH226454   6.873   1.729   8.604 -0.5891  0.1770 -0.6071
 1632TIP3    H126455   6.780   1.720   8.627  0.0470 -0.7358  1.8790
 1632TIP3    H226456   6.896   1.646   8.563 -0.0229 -1.2577  2.3419
 1633TIP3   OH226457   5.715   2.242   1.612  0.1027 -0.2154  0.1441
 1633TIP3    H126458   5.659   2.217   1.539 -0.4400  1.7763 -0.1769
 1633TIP3    H226459   5.804   2.244   1.575  0.1769 -1.5343  0.1856
 1634TIP3   OH226460   3.663   2.165   7.563 -0.2304 -0.4852 -0.5039
 1634TIP3    H126461   3.723   2.093   7.541  0.8248 -0.0323  0.7156
 1634TIP3    H226462   3.710   2.244   7.538 -0.3797 -0.1321  0.2872
 1635TIP3   OH226463   3.291   3.815   1.149 -0.2579  0.3473  0.3049
 1635TIP3    H126464   3.348   3.850   1.217 -0.9245 -0.8734  1.5539
 1635TIP3    H226465   3.314   3.864   1.070  1.7557  0.6007  1.0062
 1636TIP3   OH226466   2.962   5.232   6.708  0.2358 -0.2374 -0.3579
 1636TIP3    H126467   2.942   5.268   6.622  2.2467  2.5438  0.1861
 1636TIP3    H226468   2.898   5.272   6.767 -1.1218 -2.1150 -0.4571
 1637TIP3   OH226469   4.057   2.801   7.682  0.0525  0.3190 -0.7237
 1637TIP3    H126470   4.061   2.895   7.697  0.0533  0.6651 -2.6737
 1637TIP3    H226471   3.964   2.782   7.671  0.1884  0.5352 -2.6129
 1638TIP3   OH226472   6.055   5.524   7.646 -0.0413 -0.1901 -0.4676
 1638TIP3    H126473   6.074   5.507   7.738 -1.4741  1.4110  0.1657
 1638TIP3    H226474   5.984   5.587   7.647  1.4807  1.7539 -2.6473
 1639TIP3   OH226475   1.227   3.513   6.867  0.6891  0.0462 -0.2205
 1639TIP3    H126476   1.222   3.428   6.823  1.0021 -0.7437  1.2119
 1639TIP3    H226477   1.141   3.523   6.908  1.3551 -0.6523  1.4460
 1640TIP3   OH226478   5.566   0.373   1.445  0.3373 -0.5401  0.0108
 1640TIP3    H126479   5.590   0.461   1.477  0.6045  0.0698 -1.7445
 1640TIP3    H226480   5.472   0.377   1.432  0.6120  0.3302 -2.2600
 1641TIP3   OH226481   3.474   6.172   0.146  0.2697 -0.1517 -0.2604
 1641TIP3    H126482   3.444   6.256   0.182  1.1279 -0.1902  0.6032
 1641TIP3    H226483   3.394   6.123   0.129 -0.2861  1.1323 -1.5336
 1642TIP3   OH226484   6.673   4.288   0.711  0.0019 -0.3494 -0.6759
 1642TIP3    H126485   6.629   4.242   0.782  0.3863 -0.7959 -0.7216
 1642TIP3    H226486   6.765   4.264   0.721  0.4988  1.7096  0.3232
 1643TIP3   OH226487   2.251   5.753   8.186 -0.3068 -0.0819  0.3920
 1643TIP3    H126488   2.208   5.668   8.175 -1.6749  0.7581 -1.1939
 1643TIP3    H226489   2.236   5.798   8.103  0.2950  1.7511  1.2342
 1644TIP3   OH226490   1.965   0.858   1.086  0.2885 -0.1749 -0.0525
 1644TIP3    H126491   2.016   0.864   1.166 -0.5303  0.2649  0.4540
 1644TIP3    H226492   2.011   0.794   1.032  1.9045  0.9155 -0.0313
 1645TIP3   OH226493   2.580   2.219   1.943 -0.2339 -0.5536 -0.7948
 1645TIP3    H126494   2.538   2.224   1.858 -3.7143 -1.6228  0.7132
 1645TIP3    H226495   2.541   2.291   1.994 -1.4779 -2.4682  1.1215
 1646TIP3   OH226496   0.048   6.334   7.767  0.8008  0.1984 -0.0315
 1646TIP3    H126497   0.020   6.422   7.743  0.5034  0.0884 -0.0943
 1646TIP3    H226498   0.025   6.326   7.860  2.1084  0.6864  0.3584
 1647TIP3   OH226499   4.782   5.242   0.298 -0.0796 -0.1073  0.0319
 1647TIP3    H126500   4.861   5.217   0.250  0.3119 -0.7864  0.9883
 1647TIP3    H226501   4.808   5.238   0.391 -1.3286 -0.7153  0.3794
 1648TIP3   OH226502   6.355   1.498   1.133 -0.0040 -0.0456 -0.7448
 1648TIP3    H126503   6.309   1.420   1.102 -1.4512  0.3882  0.2104
 1648TIP3    H226504   6.426   1.464   1.186 -0.8800 -0.7468  0.0201
 1649TIP3   OH226505   0.117   4.880   8.354  0.3807  0.1896 -0.1789
 1649TIP3    H126506   0.025   4.870   8.381  0.7328  1.0241  1.4319
 1649TIP3    H226507   0.113   4.888   8.259 -1.2314  0.3225 -0.1304
 1650TIP3   OH226508   4.958   2.161   8.594  0.2061  0.0373 -0.3140
 1650TIP3    H126509   4.926   2.071   8.600 -0.2576  0.2560  0.7150
 1650TIP3    H226510   5.040   2.160   8.644 -0.3300  0.4024  0.6026
 1651TIP3   OH226511   2.395   0.001   8.398  1.3045 -0.0669  0.1841
 1651TIP3    H126512   2.408  -0.064   8.329  0.1042  0.6849 -0.7888
 1651TIP3    H226513   2.304   0.029   8.388  1.2935  0.5257  1.6826
 1652TIP3   OH226514   3.267   3.282   0.839 -0.2075  0.2912  0.5191
 1652TIP3    H126515   3.198   3.279   0.772 -0.2891  0.1059  0.6108
 1652TIP3    H226516   3.308   3.367   0.826 -0.7104  0.5702  0.7218
 1653TIP3   OH226517   1.227   4.685   1.234  0.6153 -0.2008  0.2631
 1653TIP3    H126518   1.162   4.755   1.244  0.8736 -0.0275  0.7296
 1653TIP3    H226519   1.178   4.611   1.198 -0.0170 -0.3430  1.3885
 1654TIP3   OH226520   3.430   2.798   1.796  0.5724 -0.0519 -0.2875
 1654TIP3    H126521   3.509   2.797   1.742 -0.9498 -1.4595 -2.6685
 1654TIP3    H226522   3.409   2.706   1.809 -1.7704  0.2320 -1.5386
 1655TIP3   OH226523   1.347   3.093   7.731  0.1033 -0.1591  0.0931
 1655TIP3    H126524   1.288   3.065   7.661  2.3730 -1.0206 -1.5606
 1655TIP3    H226525   1.347   3.020   7.793  1.1057 -1.1550 -1.0359
 1656TIP3   OH226526   1.689   3.906   6.587 -0.1337 -0.2233 -0.5600
 1656TIP3    H126527   1.707   3.834   6.526  1.2147 -0.0500 -0.4010
 1656TIP3    H226528   1.693   3.985   6.533  0.8308 -0.0887 -0.3200
 1657TIP3   OH226529   1.355   6.816   7.253 -0.0794  0.4579 -0.0955
 1657TIP3    H126530   1.312   6.856   7.178 -0.7336  3.4529  1.7051
 1657TIP3    H226531   1.306   6.735   7.268 -0.9401  0.5957 -1.9371
 1658TIP3   OH226532   1.158   3.342   1.685 -0.8728 -0.0503 -0.0727
 1658TIP3    H126533   1.199   3.387   1.759  0.2072 -1.2032  0.0867
 1658TIP3    H226534   1.115   3.266   1.725 -0.9158 -0.2739 -0.5399
 1659TIP3   OH226535   4.977   3.421   0.453 -0.7422  0.3239 -0.5114
 1659TIP3    H126536   4.903   3.365   0.428 -0.6219 -0.2768  0.4366
 1659TIP3    H226537   5.052   3.362   0.455 -0.6459  0.4748  0.6820
 1660TIP3   OH226538   2.309   4.750   6.907 -0.2942 -0.6850 -0.3850
 1660TIP3    H126539   2.224   4.711   6.891 -1.8088  1.5293  1.5953
 1660TIP3    H226540   2.370   4.699   6.853 -2.9018 -1.9865 -2.2941
 1661TIP3   OH226541   3.716   6.452   0.272 -0.5125  0.9874 -0.2981
 1661TIP3    H126542   3.668   6.476   0.193 -0.8451 -1.6034 -0.9937
 1661TIP3    H226543   3.698   6.523   0.333 -2.0550  2.0020 -1.8085
 1662TIP3   OH226544   3.389   3.902   0.885 -0.5447  0.1867  0.2910
 1662TIP3    H126545   3.458   3.866   0.940 -0.7660  0.3697  0.6926
 1662TIP3    H226546   3.382   3.841   0.811  0.3426  0.3966  0.0215
 1663TIP3   OH226547   4.734   4.290   0.928  0.0661  0.1791  0.3265
 1663TIP3    H126548   4.792   4.214   0.924 -1.2390 -0.8600  0.6825
 1663TIP3    H226549   4.730   4.322   0.837 -1.7366 -2.0229 -0.4486
 1664TIP3   OH226550   6.728   5.484   6.674  0.2967  0.2416 -0.8976
 1664TIP3    H126551   6.668   5.536   6.619 -1.1370  1.0550  1.3047
 1664TIP3    H226552   6.798   5.544   6.697 -0.5161  0.7727  0.3111
 1665TIP3   OH226553   2.774   6.438   1.263 -0.0298 -0.7426 -0.2070
 1665TIP3    H126554   2.706   6.505   1.264 -0.6901 -1.3794  1.7922
 1665TIP3    H226555   2.854   6.486   1.243 -0.8758  0.1626 -1.6793
 1666TIP3   OH226556   4.609   3.905   1.367  0.3219  0.2235  0.4725
 1666TIP3    H126557   4.701   3.932   1.359  0.1651  0.5030 -0.4990
 1666TIP3    H226558   4.566   3.979   1.409  0.3176  0.5971 -0.1738
 1667TIP3   OH226559   5.324   6.523   7.418 -0.0882  0.2450  0.0922
 1667TIP3    H126560   5.260   6.565   7.361 -0.2342 -0.4916 -0.3004
 1667TIP3    H226561   5.403   6.517   7.364  0.2679  0.9904  0.5152
 1668TIP3   OH226562   5.316   6.241   2.264 -0.2373  0.1230  0.0492
 1668TIP3    H126563   5.353   6.255   2.351 -0.3084  0.4955  0.0243
 1668TIP3    H226564   5.256   6.315   2.251  1.2270  1.2053 -1.0793
 1669TIP3   OH226565   0.513   4.809   8.370  0.1312 -0.2828 -0.0669
 1669TIP3    H126566   0.537   4.717   8.358  1.5403  0.0701 -0.1807
 1669TIP3    H226567   0.446   4.808   8.439  1.5911 -1.2614  1.4304
 1670TIP3   OH226568   1.920   2.422   6.096 -0.6893 -0.0507 -0.2743
 1670TIP3    H126569   1.847   2.368   6.066 -1.0639 -0.4330  1.2263
 1670TIP3    H226570   1.905   2.507   6.056 -2.2715  0.0321  0.4072
 1671TIP3   OH226571   6.813   5.791   6.455  0.2357  0.5071 -0.3580
 1671TIP3    H126572   6.720   5.766   6.457  0.1455  0.7989  1.7969
 1671TIP3    H226573   6.813   5.882   6.425 -0.2733  0.7587  0.3731
 1672TIP3   OH226574   1.819   1.249   8.101 -0.1287 -0.3563  0.1981
 1672TIP3    H126575   1.854   1.337   8.092 -1.6567  0.3120  0.5067
 1672TIP3    H226576   1.777   1.231   8.017  0.3747 -0.9059  0.0519
 1673TIP3   OH226577   5.769   2.171   2.174  0.1676  0.3489  0.0303
 1673TIP3    H126578   5.845   2.201   2.125 -0.3424  0.6989 -0.5580
 1673TIP3    H226579   5.800   2.093   2.221  1.3602  1.4569  1.1581
 1674TIP3   OH226580   6.488   1.075   8.351 -0.1524 -0.2485 -0.7666
 1674TIP3    H126581   6.568   1.066   8.403  0.4275 -1.0879 -1.7504
 1674TIP3    H226582   6.476   0.988   8.312 -1.1087  0.0918 -1.2557
 1675TIP3   OH226583   5.995   0.976   5.839  0.0325 -0.1891 -0.7771
 1675TIP3    H126584   5.943   1.056   5.847 -1.3180 -0.9784 -1.2427
 1675TIP3    H226585   5.945   0.910   5.888  0.9263 -0.8407 -0.7077
 1676TIP3   OH226586   0.238   3.515   7.686 -0.1268  0.0685  0.5838
 1676TIP3    H126587   0.205   3.579   7.623  1.8359  0.8090  0.2417
 1676TIP3    H226588   0.247   3.564   7.768 -0.8908 -0.4175  0.9744
 1677TIP3   OH226589   0.851   4.638   6.576 -0.3032 -0.0746  0.3201
 1677TIP3    H126590   0.943   4.666   6.578  0.0524 -0.8488 -2.0514
 1677TIP3    H226591   0.855   4.543   6.568 -1.2831 -0.0442 -0.6946
 1678TIP3   OH226592   0.951   0.780   0.205  0.4054 -0.7509 -0.0868
 1678TIP3    H126593   0.899   0.813   0.132  1.0787 -0.5491 -0.4875
 1678TIP3    H226594   1.007   0.854   0.231  0.5034 -0.9633  0.3262
 1679TIP3   OH226595   6.166   0.884   0.672  0.0642 -0.3602  0.0083
 1679TIP3    H126596   6.250   0.855   0.707  0.5097  1.1754  0.3157
 1679TIP3    H226597   6.178   0.881   0.577 -0.0579 -1.5560  0.0249
 1680TIP3   OH226598   3.116   3.393   1.605 -0.2022 -0.1844 -0.3527
 1680TIP3    H126599   3.035   3.443   1.609  0.6591  1.3014 -0.3294
 1680TIP3    H226600   3.160   3.425   1.526  0.8213 -0.1799  0.1894
 1681TIP3   OH226601   1.419   0.763   6.267 -0.2889 -0.2511  0.0032
 1681TIP3    H126602   1.429   0.700   6.338 -0.8763 -1.0095 -0.5599
 1681TIP3    H226603   1.410   0.709   6.188  2.0370  0.5722 -0.9103
 1682TIP3   OH226604   2.001   6.721   1.793 -0.2805  0.0768 -0.3207
 1682TIP3    H126605   2.046   6.655   1.844 -0.5887 -0.7527 -1.0936
 1682TIP3    H226606   1.945   6.672   1.732 -1.2922  1.0525 -0.2304
 1683TIP3   OH226607   4.999   0.845   6.139 -0.6961 -0.1299 -0.2510
 1683TIP3    H126608   4.952   0.773   6.181 -0.4391  0.1823  0.5810
 1683TIP3    H226609   4.930   0.906   6.112 -0.9553 -0.8984 -1.3992
 1684TIP3   OH226610   5.737   4.241   0.771 -0.9739  0.2027  0.3519
 1684TIP3    H126611   5.671   4.187   0.814 -0.9134  0.7049  1.1015
 1684TIP3    H226612   5.790   4.276   0.843  0.7702 -1.0086 -0.2901
 1685TIP3   OH226613   5.229   0.812   0.807  0.4206  0.1071  0.2657
 1685TIP3    H126614   5.282   0.889   0.828 -0.7429  0.2729  3.0514
 1685TIP3    H226615   5.281   0.738   0.839  0.2398  0.0028  0.3176
 1686TIP3   OH226616   6.720   3.068   2.082  0.0464  0.6225  0.1447
 1686TIP3    H126617   6.624   3.059   2.088  0.1844 -1.3088  0.0576
 1686TIP3    H226618   6.752   2.978   2.079  1.9553  1.2158  1.3100
 1687TIP3   OH226619   4.181   2.806   8.430  0.0543 -0.0847  0.4002
 1687TIP3    H126620   4.272   2.826   8.452  0.7979 -1.2990 -1.2985
 1687TIP3    H226621   4.138   2.795   8.515  0.9400  2.5366  1.3002
 1688TIP3   OH226622   6.196   0.970   6.061  0.0880  0.1334 -0.1834
 1688TIP3    H126623   6.157   0.965   5.974  1.4015  0.1517 -0.7926
 1688TIP3    H226624   6.154   1.047   6.101  1.1956  1.6064 -1.7127
 1689TIP3   OH226625   5.279   2.146   1.182 -0.3880 -0.0564  0.0127
 1689TIP3    H126626   5.371   2.119   1.183  0.0450  1.3286  0.2168
 1689TIP3    H226627   5.280   2.229   1.134 -1.2215  0.9683  1.7041
 1690TIP3   OH226628   0.987   6.603   2.196  0.2056  0.2903 -0.0084
 1690TIP3    H126629   1.077   6.573   2.208  0.0788  0.2580  0.9001
 1690TIP3    H226630   0.945   6.532   2.147  0.0040 -0.9187  1.8070
 1691TIP3   OH226631   0.219   2.309   1.740 -0.2358  0.1978 -0.2219
 1691TIP3    H126632   0.287   2.338   1.680 -0.9352  1.9183 -0.2285
 1691TIP3    H226633   0.149   2.277   1.683  1.4296 -4.0738 -0.2400
 1692TIP3   OH226634   4.096   6.856   1.907 -0.6292 -0.4702  0.1429
 1692TIP3    H126635   4.174   6.907   1.886 -1.1438  0.4864  0.5094
 1692TIP3    H226636   4.039   6.917   1.954 -2.6893 -0.3203 -2.2888
 1693TIP3   OH226637   6.174   4.561   7.891  0.0693 -0.2799 -0.2130
 1693TIP3    H126638   6.084   4.567   7.922  0.3877 -1.2951  0.9910
 1693TIP3    H226639   6.174   4.609   7.808 -0.7264  3.0792  1.5196
 1694TIP3   OH226640   0.012   1.298   6.967 -0.2860  0.7775 -0.1779
 1694TIP3    H126641  -0.014   1.226   7.024  1.4875 -0.0807 -0.3901
 1694TIP3    H226642   0.043   1.256   6.887 -0.0419  1.8207 -0.6491
 1695TIP3   OH226643   1.901   2.636   7.389  0.2376 -0.2143 -0.4301
 1695TIP3    H126644   1.880   2.719   7.345  0.2670  0.1932  0.3189
 1695TIP3    H226645   1.821   2.585   7.383 -0.3093  0.4979  0.5125
 1696TIP3   OH226646   4.755   5.362   7.980  0.0699 -0.4389  0.1099
 1696TIP3    H126647   4.748   5.267   7.973 -2.1111 -0.5247  1.9701
 1696TIP3    H226648   4.725   5.395   7.895 -1.2560 -1.4314  0.1571
 1697TIP3   OH226649   3.174   2.231   6.726 -0.2669  0.3375  0.3139
 1697TIP3    H126650   3.193   2.141   6.699  0.1746  0.2246  0.9690
 1697TIP3    H226651   3.247   2.282   6.691  0.2367  0.2109  1.1358
 1698TIP3   OH226652   6.029   4.970   1.203  0.4621  0.3634  0.1390
 1698TIP3    H126653   6.045   4.880   1.231  0.3969  0.0695 -0.7612
 1698TIP3    H226654   5.936   4.973   1.180  0.6132  0.4834 -0.4712
 1699TIP3   OH226655   5.282   3.113   1.385  0.0363 -0.1843  0.4758
 1699TIP3    H126656   5.231   3.189   1.412 -1.3956 -1.8323  2.7306
 1699TIP3    H226657   5.230   3.073   1.316  0.9429  0.9683 -0.9354
 1700TIP3   OH226658   1.694   5.707   0.102 -0.0435  0.5931  0.3807
 1700TIP3    H126659   1.762   5.771   0.082 -0.9426  1.3412 -0.4034
 1700TIP3    H226660   1.634   5.712   0.028 -1.8179  1.1447  1.7617
 1701TIP3   OH226661   1.067   6.095   1.926  0.5081 -0.6960  0.2481
 1701TIP3    H126662   1.079   6.164   1.991  0.1662 -0.9197  0.5581
 1701TIP3    H226663   1.107   6.129   1.846 -0.4082  0.2287  0.1585
 1702TIP3   OH226664   0.854   3.920   0.057 -0.2605 -0.3029  0.1204
 1702TIP3    H126665   0.928   3.900  -0.000 -0.9811 -1.7567 -0.3327
 1702TIP3    H226666   0.788   3.957  -0.001 -1.4205 -2.8057 -0.2749
 1703TIP3   OH226667   3.473   0.512   1.617  0.0326  0.5064  0.2057
 1703TIP3    H126668   3.543   0.503   1.682 -0.5191  2.6940  1.1902
 1703TIP3    H226669   3.491   0.595   1.574 -0.9103  0.1781 -0.8790
 1704TIP3   OH226670   2.600   4.609   2.332  0.0801  0.3912 -0.1761
 1704TIP3    H126671   2.550   4.660   2.268 -0.3732  0.7761  0.4726
 1704TIP3    H226672   2.686   4.649   2.333 -0.7438  2.3141  1.5682
 1705TIP3   OH226673   3.835   0.780   1.399  0.0497 -0.0861  0.7204
 1705TIP3    H126674   3.834   0.839   1.323 -1.2936 -0.5712  0.3279
 1705TIP3    H226675   3.927   0.770   1.420  0.3648  1.3004  0.1230
 1706TIP3   OH226676   6.823   0.412   6.486 -0.3318 -0.1887 -0.2082
 1706TIP3    H126677   6.878   0.353   6.537 -0.0265  0.5978  0.4018
 1706TIP3    H226678   6.790   0.476   6.550  0.7697  1.3497 -1.1106
 1707TIP3   OH226679   3.109   1.970   0.385  0.1363 -0.3571  0.4122
 1707TIP3    H126680   3.044   2.003   0.322 -0.1878 -1.2184  0.2753
 1707TIP3    H226681   3.102   1.875   0.378  2.3233 -0.4854 -0.5194
 1708TIP3   OH226682   6.045   1.387   7.718 -0.3870  0.5382  0.2624
 1708TIP3    H126683   6.134   1.416   7.740  0.2630 -0.4516 -0.9142
 1708TIP3    H226684   6.018   1.443   7.645 -0.0268 -0.2563 -0.5064
 1709TIP3   OH226685   4.705   5.189   6.117  0.0506  0.2640 -0.4363
 1709TIP3    H126686   4.680   5.269   6.070 -1.3879 -0.6749 -1.3803
 1709TIP3    H226687   4.622   5.143   6.131  0.7204 -0.5730  1.0478
 1710TIP3   OH226688   4.714   2.396   2.062 -0.1216 -0.8486 -0.6073
 1710TIP3    H126689   4.668   2.440   2.134  0.9925  1.4850 -1.1998
 1710TIP3    H226690   4.771   2.333   2.105 -0.9317 -0.9266  0.3985
 1711TIP3   OH226691   1.968   3.703   6.405  0.2524 -0.4328 -0.4595
 1711TIP3    H126692   2.006   3.636   6.463  0.0922  1.0833  1.4793
 1711TIP3    H226693   1.873   3.692   6.415  0.2119  0.8329  0.8521
 1712TIP3   OH226694   2.310   1.422   1.801 -0.6209  0.3068 -0.1649
 1712TIP3    H126695   2.240   1.475   1.839 -2.2062 -0.6638 -1.5505
 1712TIP3    H226696   2.265   1.344   1.767  1.3250 -0.9655 -0.0148
 1713TIP3   OH226697   5.518   6.680   1.190 -0.6311 -0.3090 -0.1993
 1713TIP3    H126698   5.457   6.741   1.147 -0.4495  0.2958  0.3925
 1713TIP3    H226699   5.468   6.599   1.200 -0.6597 -0.4969 -1.6102
 1714TIP3   OH226700   3.290   6.206   2.302 -0.5289  0.1220 -0.5105
 1714TIP3    H126701   3.277   6.134   2.364  1.1606  0.3891  0.2166
 1714TIP3    H226702   3.367   6.179   2.251  1.2247  2.1322  0.9250
 1715TIP3   OH226703   3.762   5.040   7.588  0.0517 -0.1778 -0.3086
 1715TIP3    H126704   3.785   4.947   7.584 -1.0663 -0.5112  0.4618
 1715TIP3    H226705   3.716   5.057   7.506  0.6232 -0.1963 -0.6336
 1716TIP3   OH226706   1.602   5.775   8.508 -0.2510 -0.5034  0.7245
 1716TIP3    H126707   1.562   5.813   8.430  2.7319  1.7155  0.0816
 1716TIP3    H226708   1.654   5.702   8.474  1.7018  0.9641  0.3898
 1717TIP3   OH226709   4.462   2.714   7.023 -0.1129  0.3829 -0.6195
 1717TIP3    H126710   4.463   2.684   6.932 -2.3099  1.2366 -0.9694
 1717TIP3    H226711   4.456   2.633   7.074 -0.5846 -0.0347 -1.3166
 1718TIP3   OH226712   2.627   3.827   1.717 -0.4602 -0.4458 -0.4788
 1718TIP3    H126713   2.642   3.734   1.701  0.2068 -0.8827  2.1170
 1718TIP3    H226714   2.535   3.833   1.743  0.2138 -1.0174  2.4536
 1719TIP3   OH226715   2.067   6.773   7.766  0.2311 -0.3819  0.6326
 1719TIP3    H126716   2.155   6.794   7.797  0.4676 -0.4162  0.0081
 1719TIP3    H226717   2.024   6.732   7.840  0.2574  0.9330  1.4182
 1720TIP3   OH226718   3.204   3.210   0.266 -0.3540 -0.2770  0.0788
 1720TIP3    H126719   3.153   3.133   0.292 -0.7758 -0.1252 -0.2901
 1720TIP3    H226720   3.177   3.228   0.176  0.3721 -0.2098 -0.1380
 1721TIP3   OH226721   6.646   2.945   1.195  0.0244 -0.5530  0.4640
 1721TIP3    H126722   6.693   2.997   1.130 -2.3162 -0.1796 -1.0616
 1721TIP3    H226723   6.682   2.971   1.279  1.0265  1.2612 -0.4848
 1722TIP3   OH226724   0.221   6.435   1.676  0.2404 -0.1061  0.6615
 1722TIP3    H126725   0.204   6.518   1.721 -0.4779 -0.6848  1.4952
 1722TIP3    H226726   0.149   6.378   1.704 -0.5166 -0.3527 -1.6035
 1723TIP3   OH226727   2.265   5.481   6.780 -0.5974  0.2275 -0.4193
 1723TIP3    H126728   2.265   5.414   6.711 -0.4330  0.0913 -0.2880
 1723TIP3    H226729   2.256   5.564   6.733 -1.1508  0.0903 -0.5575
 1724TIP3   OH226730   6.074   1.248   1.285 -0.0266  0.2014 -0.2711
 1724TIP3    H126731   6.105   1.282   1.201 -0.3507  2.0068  0.2876
 1724TIP3    H226732   6.150   1.256   1.343 -0.0487 -0.2439 -0.1807
 1725TIP3   OH226733   2.186   6.341   2.454  0.0282  0.7930  0.7126
 1725TIP3    H126734   2.107   6.317   2.405  0.5236 -1.0636  0.7172
 1725TIP3    H226735   2.169   6.429   2.486 -1.9016  0.5765  0.4313
 1726TIP3   OH226736   4.012   1.838   6.901 -0.6085  0.2549  0.0092
 1726TIP3    H126737   4.049   1.924   6.923 -0.7313  0.3569 -0.1786
 1726TIP3    H226738   4.050   1.778   6.966  0.5181  0.2075 -0.6617
 1727TIP3   OH226739   1.675   2.473   7.599  0.6917  0.5840  0.2825
 1727TIP3    H126740   1.766   2.446   7.617  0.7281  0.9339  0.6328
 1727TIP3    H226741   1.645   2.512   7.681 -0.0237 -0.1862  0.4086
 1728TIP3   OH226742   2.922   2.255   1.792  0.3967 -0.1999 -0.0848
 1728TIP3    H126743   2.893   2.218   1.708  0.4993 -0.2703 -0.0896
 1728TIP3    H226744   3.012   2.225   1.801  1.8266  3.0844 -1.8589
 1729TIP3   OH226745   1.827   3.819   7.392  0.3337  0.1474  0.0980
 1729TIP3    H126746   1.793   3.840   7.305  0.8068  0.0639 -0.1078
 1729TIP3    H226747   1.909   3.869   7.399  1.2941 -1.3176 -0.2607
 1730TIP3   OH226748   5.170   4.369   7.771 -0.8113 -0.3250 -0.1233
 1730TIP3    H126749   5.202   4.459   7.779 -1.3375 -0.2209  1.0237
 1730TIP3    H226750   5.147   4.359   7.679  1.2446  0.0149 -0.7118
 1731TIP3   OH226751   1.372   0.884   6.953 -0.1373 -0.3112 -0.2109
 1731TIP3    H126752   1.358   0.790   6.964 -1.3494 -0.1007  0.1952
 1731TIP3    H226753   1.377   0.897   6.858 -3.6285 -0.3680 -0.5340
 1732TIP3   OH226754   5.380   2.762   7.951 -0.4856 -0.0301 -0.1240
 1732TIP3    H126755   5.445   2.768   8.021 -2.1399  1.0255  1.4011
 1732TIP3    H226756   5.379   2.850   7.913  0.2251 -0.5310 -1.3743
 1733TIP3   OH226757   1.113   2.505   0.988  0.0773  0.4301 -0.0003
 1733TIP3    H126758   1.057   2.567   0.941 -1.1037 -0.4344  0.2269
 1733TIP3    H226759   1.052   2.447   1.034  1.1794 -0.0165  0.9488
 1734TIP3   OH226760   3.597   3.946   7.501  0.1287 -0.3471 -0.1397
 1734TIP3    H126761   3.682   3.912   7.527  0.3150 -0.1521 -0.4827
 1734TIP3    H226762   3.617   4.020   7.443 -0.2686  0.1071  0.2839
 1735TIP3   OH226763   1.248   1.065   7.215  0.1802 -0.6630 -0.4190
 1735TIP3    H126764   1.216   1.102   7.297  0.9335 -0.2563 -0.2995
 1735TIP3    H226765   1.186   1.095   7.149  0.7461  0.7793 -0.3117
 1736TIP3   OH226766   4.565   3.272   6.265 -0.4539  0.1683  0.4543
 1736TIP3    H126767   4.558   3.362   6.233  1.3642 -0.0624 -0.7353
 1736TIP3    H226768   4.635   3.234   6.213  0.1095 -1.3755  2.2549
 1737TIP3   OH226769   2.101   3.589   7.166 -0.3317 -0.3519  0.4977
 1737TIP3    H126770   2.061   3.570   7.251 -0.1061 -1.7116  0.3214
 1737TIP3    H226771   2.053   3.535   7.104  0.6282 -0.6920  0.0251
 1738TIP3   OH226772   6.089   1.160   7.008 -0.0437  0.9247  0.1583
 1738TIP3    H126773   6.048   1.138   7.092 -4.7315  0.4020 -1.9529
 1738TIP3    H226774   6.127   1.078   6.978 -1.5183  0.1739  0.2555
 1739TIP3   OH226775   5.978   4.679   7.666 -0.0629 -0.4499 -0.4614
 1739TIP3    H126776   5.944   4.593   7.689 -2.4972  0.3264 -0.7720
 1739TIP3    H226777   6.023   4.666   7.582  0.3122 -1.5549 -0.0945
 1740TIP3   OH226778   3.128   5.634   8.607 -0.7584 -0.1332 -0.0837
 1740TIP3    H126779   3.113   5.561   8.667  2.3833 -1.2103 -0.4148
 1740TIP3    H226780   3.172   5.700   8.661 -1.7205  0.6894 -0.2738
 1741TIP3   OH226781   6.444   5.829   6.712 -0.3341 -0.2253  0.2253
 1741TIP3    H126782   6.519   5.885   6.735  0.1696 -0.3302 -1.0780
 1741TIP3    H226783   6.373   5.891   6.694  0.4627  0.1038 -2.0809
 1742TIP3   OH226784   5.173   6.425   2.131 -0.1739  0.3867 -0.2188
 1742TIP3    H126785   5.169   6.348   2.074  0.9890  1.5698 -2.0375
 1742TIP3    H226786   5.125   6.493   2.083  1.0559  1.5026  0.0624
 1743TIP3   OH226787   1.460   4.486   0.076 -0.2044  0.1162 -0.1164
 1743TIP3    H126788   1.533   4.424   0.086 -0.8396 -0.5406  0.5584
 1743TIP3    H226789   1.461   4.509  -0.017  0.1490 -0.7673 -0.3449
 1744TIP3   OH226790   1.606   1.044   2.124  0.0130 -0.0404 -0.3535
 1744TIP3    H126791   1.542   1.033   2.053  1.2421 -1.6532 -1.2843
 1744TIP3    H226792   1.686   1.072   2.079  1.2801 -2.6288  0.0766
 1745TIP3   OH226793   5.232   5.931   6.652 -0.4696 -0.1039  0.0743
 1745TIP3    H126794   5.195   5.959   6.568  1.4041 -1.7446 -1.3985
 1745TIP3    H226795   5.327   5.931   6.638  0.0004  0.8414  2.6565
 1746TIP3   OH226796   1.202   4.410   0.820  0.1333 -0.0133 -0.1934
 1746TIP3    H126797   1.245   4.374   0.742 -1.2975  0.2820 -1.1519
 1746TIP3    H226798   1.189   4.503   0.799 -2.7901 -0.4760 -0.8461
 1747TIP3   OH226799   5.165   0.407   8.582 -0.1444 -0.0752  0.0874
 1747TIP3    H126800   5.126   0.332   8.536 -0.0206 -0.8030  1.1422
 1747TIP3    H226801   5.116   0.412   8.664 -0.1490  1.0147  0.0231
 1748TIP3   OH226802   1.149   1.070   0.238 -0.5026 -0.2933  0.4748
 1748TIP3    H126803   1.177   1.147   0.288 -0.3106  0.1911 -0.3611
 1748TIP3    H226804   1.175   1.090   0.148  0.6902 -1.8662  0.4299
 1749TIP3   OH226805   4.281   4.908   6.358  0.0884 -0.0135 -0.2054
 1749TIP3    H126806   4.274   4.981   6.419 -0.4730  0.0119 -0.2971
 1749TIP3    H226807   4.300   4.832   6.412 -1.8701 -0.2782  0.1978
 1750TIP3   OH226808   6.345   4.046   8.309  0.2042 -0.1066  0.1194
 1750TIP3    H126809   6.319   4.013   8.395  1.1575  0.2114  0.5438
 1750TIP3    H226810   6.348   3.968   8.253  1.0593 -0.5546  0.7624
 1751TIP3   OH226811   0.673   2.653   0.117 -0.5757  0.1279  0.2531
 1751TIP3    H126812   0.579   2.669   0.104 -0.7487 -0.7040  0.4253
 1751TIP3    H226813   0.680   2.630   0.210 -0.0388  1.2642  0.5078
 1752TIP3   OH226814   5.027   4.446   6.472  0.5413  0.3810 -0.0999
 1752TIP3    H126815   5.023   4.368   6.528  3.3561  0.6206  0.5744
 1752TIP3    H226816   5.015   4.413   6.383 -2.0290 -0.2563  0.3878
 1753TIP3   OH226817   5.311   4.207   1.188  0.4645  0.1490  0.2247
 1753TIP3    H126818   5.407   4.207   1.194  0.4911 -0.3014 -0.1095
 1753TIP3    H226819   5.282   4.175   1.274  0.6631 -0.9528 -0.0930
 1754TIP3   OH226820   2.539   1.266   8.615 -0.1230  0.0394 -0.1463
 1754TIP3    H126821   2.558   1.232   8.702  0.0081  0.4457 -0.0132
 1754TIP3    H226822   2.447   1.294   8.619 -0.1992 -0.1993 -0.2236
 1755TIP3   OH226823   4.411   4.061   1.204  0.3841 -0.2076 -0.2977
 1755TIP3    H126824   4.449   3.973   1.207  0.8218 -0.0203 -0.2529
 1755TIP3    H226825   4.481   4.118   1.236 -0.6035 -0.0581  1.7428
 1756TIP3   OH226826   5.840   4.093   0.189 -0.5161  0.0369  0.2613
 1756TIP3    H126827   5.749   4.122   0.177 -0.3254  1.9150  2.5177
 1756TIP3    H226828   5.887   4.127   0.113 -1.7500 -1.4382 -1.2198
 1757TIP3   OH226829   1.984   0.570   1.119  0.0751 -0.2396 -0.4962
 1757TIP3    H126830   2.048   0.617   1.066 -0.4291  1.8997  0.6925
 1757TIP3    H226831   1.908   0.558   1.061  0.7379 -0.8672 -1.2435
 1758TIP3   OH226832   6.217   4.573   2.257 -0.2366  0.8861 -0.3704
 1758TIP3    H126833   6.233   4.664   2.283 -0.2997  0.4310  1.4051
 1758TIP3    H226834   6.133   4.551   2.298 -0.2858  0.0645 -0.8887
 1759TIP3   OH226835   2.987   1.977   1.304  0.5698  0.0888  0.4746
 1759TIP3    H126836   3.059   2.021   1.350  0.3233 -1.0301  1.9841
 1759TIP3    H226837   2.909   2.001   1.354  0.2654 -0.9571  0.5102
 1760TIP3   OH226838   6.032   3.257   8.280 -0.6436 -0.0334 -0.1490
 1760TIP3    H126839   5.969   3.329   8.274  0.5656  1.0911  0.1786
 1760TIP3    H226840   6.087   3.266   8.202  1.2162  1.0959  1.2337
 1761TIP3   OH226841   0.615   3.293   2.015 -0.2253  0.2950  0.0581
 1761TIP3    H126842   0.630   3.214   2.067 -1.0168 -0.2205 -0.4605
 1761TIP3    H226843   0.617   3.365   2.078  0.8153 -0.1029  0.4926
 1762TIP3   OH226844   1.106   2.207   8.596  0.5086 -0.1636 -0.4271
 1762TIP3    H126845   1.042   2.271   8.628  1.4273  0.1762  0.8203
 1762TIP3    H226846   1.083   2.126   8.641  0.1528 -0.3773 -0.9926
 1763TIP3   OH226847   5.917   3.158   0.037 -0.0505 -0.2339  0.1870
 1763TIP3    H126848   5.878   3.226  -0.017 -0.9010  0.1946  1.3090
 1763TIP3    H226849   5.928   3.083  -0.022  0.5083  0.7152 -0.9520
 1764TIP3   OH226850   3.461   2.199   7.987  0.2548  0.0579  0.0588
 1764TIP3    H126851   3.383   2.150   8.012 -0.9437  2.4113  1.3013
 1764TIP3    H226852   3.514   2.137   7.937 -3.3096 -1.1549 -2.6622
 1765TIP3   OH226853   4.517   3.986   0.336  0.1360  0.0407  0.2396
 1765TIP3    H126854   4.512   4.039   0.256  1.6698  0.3137  0.2939
 1765TIP3    H226855   4.463   4.033   0.399  1.4571  1.5965  0.2875
 1766TIP3   OH226856   5.936   5.174   7.828  0.5910  0.4387  0.0482
 1766TIP3    H126857   5.931   5.216   7.914 -1.6597 -1.4417  0.9380
 1766TIP3    H226858   5.845   5.150   7.808  1.5643 -3.3798 -0.6234
 1767TIP3   OH226859   1.502   4.334   8.070  0.6125 -0.0709 -0.9047
 1767TIP3    H126860   1.487   4.427   8.086 -1.8988 -0.5893  0.2215
 1767TIP3    H226861   1.597   4.324   8.072  0.8830  2.1433  0.9321
 1768TIP3   OH226862   4.766   5.607   7.233  0.5672 -0.0572 -0.3636
 1768TIP3    H126863   4.720   5.673   7.284  1.0650  0.8130 -1.0003
 1768TIP3    H226864   4.716   5.600   7.152  1.3655  0.6995 -0.9475
 1769TIP3   OH226865   0.842   6.378   1.545 -0.0872 -0.3189  0.1031
 1769TIP3    H126866   0.753   6.400   1.516  0.1850 -0.3734 -0.7704
 1769TIP3    H226867   0.890   6.460   1.536  0.0495 -0.3860  0.2219
 1770TIP3   OH226868   6.553   6.789   8.435  0.1152  0.2593 -0.2901
 1770TIP3    H126869   6.537   6.882   8.421  0.3110  0.5583  1.2088
 1770TIP3    H226870   6.529   6.774   8.527  0.0652 -1.1770 -0.5095
 1771TIP3   OH226871   2.585   6.446   0.149 -0.3111  0.4756  0.8561
 1771TIP3    H126872   2.545   6.490   0.074 -2.0277  0.2993  1.6212
 1771TIP3    H226873   2.626   6.368   0.113  0.2251  1.1753 -0.0997
 1772TIP3   OH226874   3.663   5.034   8.068  0.1358 -0.0910 -0.2236
 1772TIP3    H126875   3.703   4.949   8.082  1.6744  0.4835 -0.8739
 1772TIP3    H226876   3.698   5.063   7.984  0.9078  1.8516  0.7044
 1773TIP3   OH226877   5.772   3.745   7.062  0.3181  0.3602 -0.2766
 1773TIP3    H126878   5.848   3.719   7.115  0.1492  1.4761  0.5417
 1773TIP3    H226879   5.756   3.670   7.005  0.8297 -0.6811  0.9006
 1774TIP3   OH226880   2.676   2.891   6.460  0.6651  0.3397  0.2344
 1774TIP3    H126881   2.771   2.908   6.457  0.6513  0.3030 -0.5236
 1774TIP3    H226882   2.665   2.810   6.412  0.3164 -0.0147  0.9045
 1775TIP3   OH226883   1.889   0.373   1.490  0.5131  0.5916  0.3094
 1775TIP3    H126884   1.891   0.468   1.495  2.4183  0.6183 -0.0807
 1775TIP3    H226885   1.945   0.351   1.415 -0.5329 -0.8152 -0.1020
 1776TIP3   OH226886   6.167   3.379   7.239 -0.0023  0.1025 -0.2708
 1776TIP3    H126887   6.151   3.355   7.148  0.4326 -0.2840 -0.2522
 1776TIP3    H226888   6.199   3.469   7.235  1.7483 -0.5054 -0.6785
 1777TIP3   OH226889   3.309   0.547   7.469 -0.2447  0.5712  0.2028
 1777TIP3    H126890   3.298   0.622   7.527 -0.1184  0.8887 -0.1812
 1777TIP3    H226891   3.358   0.581   7.394  1.4611 -0.3121  0.8739
 1778TIP3   OH226892   6.804   6.716   8.369 -0.0449 -0.0121  0.3269
 1778TIP3    H126893   6.840   6.792   8.323  0.5064 -0.7855 -0.5418
 1778TIP3    H226894   6.713   6.739   8.385 -0.5254 -0.0363 -1.9536
 1779TIP3   OH226895   0.883   4.155   1.961  0.1440  0.0725  0.3274
 1779TIP3    H126896   0.898   4.181   2.052  0.8823 -0.7040  0.4398
 1779TIP3    H226897   0.790   4.169   1.947 -0.1205 -0.4779  1.4304
 1780TIP3   OH226898   5.739   6.160   8.183 -0.1375 -0.0374 -0.7507
 1780TIP3    H126899   5.738   6.191   8.093 -1.3013  0.0963 -0.7167
 1780TIP3    H226900   5.667   6.207   8.225  0.7502  0.3371  0.4079
 1781TIP3   OH226901   5.069   4.071   6.883  0.4266  0.4112 -0.4901
 1781TIP3    H126902   5.007   4.011   6.842  0.7943 -1.8818  2.0034
 1781TIP3    H226903   5.095   4.027   6.963  2.3206  3.0764  0.5041
 1782TIP3   OH226904   3.832   2.969   0.725 -0.2772  0.0861  0.2756
 1782TIP3    H126905   3.768   2.922   0.778 -0.5855  1.1813  0.9024
 1782TIP3    H226906   3.798   2.963   0.636 -1.0613  0.3278  0.5502
 1783TIP3   OH226907   3.096   0.937   1.675  0.5870 -0.1487 -0.4565
 1783TIP3    H126908   3.145   0.957   1.596  1.8687  0.1632  0.3880
 1783TIP3    H226909   3.029   1.006   1.680  0.8900  0.1815 -0.9308
 1784TIP3   OH226910   6.058   6.247   1.556 -0.3482 -0.4158 -0.7115
 1784TIP3    H126911   6.018   6.330   1.529  0.3766  0.4259  0.7173
 1784TIP3    H226912   6.151   6.267   1.565 -0.4038 -0.8753  1.4105
 1785TIP3   OH226913   2.652   6.194   7.678  0.2687 -0.2444  0.3488
 1785TIP3    H126914   2.566   6.163   7.648  0.1248 -0.2261  0.7378
 1785TIP3    H226915   2.714   6.154   7.618  0.0191 -0.6068  0.3298
 1786TIP3   OH226916   0.867   1.433   7.689  0.8259  0.3567  0.2600
 1786TIP3    H126917   0.787   1.484   7.703  0.8339  0.8493 -1.3361
 1786TIP3    H226918   0.924   1.457   7.763  0.3170  1.6640  0.2540
 1787TIP3   OH226919   1.738   3.630   2.400 -0.0483  0.3374 -0.1779
 1787TIP3    H126920   1.691   3.572   2.459  2.2780  0.1078  1.6114
 1787TIP3    H226921   1.697   3.716   2.412 -0.0670  0.1405  1.2855
 1788TIP3   OH226922   1.296   3.280   8.478  0.0647 -0.3663 -0.2987
 1788TIP3    H126923   1.310   3.364   8.520  1.0697 -0.2153 -0.8977
 1788TIP3    H226924   1.382   3.237   8.482 -0.3631 -1.2292 -0.2722
 1789TIP3   OH226925   1.015   4.528   1.118 -0.0996 -0.2543 -1.2531
 1789TIP3    H126926   0.988   4.436   1.114 -0.8754 -0.4224  3.0936
 1789TIP3    H226927   0.946   4.572   1.167  0.3195  2.7385 -3.0459
 1790TIP3   OH226928   6.504   5.097   1.900  0.2304 -0.2016 -0.4754
 1790TIP3    H126929   6.485   5.080   1.808 -1.3585 -0.7279 -0.0938
 1790TIP3    H226930   6.423   5.138   1.933  1.3422  1.4652  0.3315
 1791TIP3   OH226931   0.210   5.025   6.816 -0.4575 -0.2698  0.1287
 1791TIP3    H126932   0.168   5.006   6.732 -1.5162 -0.9742  0.7910
 1791TIP3    H226933   0.270   4.952   6.830 -0.1610 -0.0702 -0.0771
 1792TIP3   OH226934   0.004   6.516   0.763 -0.4957 -0.0564  0.6066
 1792TIP3    H126935  -0.017   6.451   0.697 -1.8217  0.0608  0.8862
 1792TIP3    H226936  -0.066   6.581   0.756 -0.2666  0.3248  1.6391
 1793TIP3   OH226937   4.165   0.018   8.411 -0.0323 -0.4640  0.3196
 1793TIP3    H126938   4.205   0.028   8.498  0.2110 -1.4034  0.3253
 1793TIP3    H226939   4.109  -0.060   8.419  0.6822 -1.0945 -0.6060
 1794TIP3   OH226940   4.802   1.793   7.687 -0.1470  0.4590 -0.1785
 1794TIP3    H126941   4.895   1.804   7.665 -0.3235  1.9776 -0.2935
 1794TIP3    H226942   4.785   1.863   7.751 -1.2457  0.2887 -0.2720
 1795TIP3   OH226943   2.320   5.279   6.573 -0.8593  0.3228 -0.0824
 1795TIP3    H126944   2.274   5.199   6.596 -1.0171  0.2680 -0.5754
 1795TIP3    H226945   2.311   5.286   6.478 -1.3438  1.2326  0.0182
 1796TIP3   OH226946   0.927   4.875   1.545 -0.3892 -0.3537 -0.8864
 1796TIP3    H126947   0.839   4.891   1.511 -0.5081  1.7341  0.2485
 1796TIP3    H226948   0.917   4.869   1.640  0.9573  3.1834 -0.3543
 1797TIP3   OH226949   6.819   4.385   7.452  0.2970  0.3768  0.4383
 1797TIP3    H126950   6.790   4.476   7.463  0.7135  0.7143 -0.9859
 1797TIP3    H226951   6.842   4.356   7.541 -1.6489  1.0108  1.1925
 1798TIP3   OH226952   3.313   6.512   7.325  0.6330 -0.3462  0.2745
 1798TIP3    H126953   3.379   6.481   7.263 -0.2903  0.9451 -1.4378
 1798TIP3    H226954   3.232   6.514   7.275 -0.7346 -1.7325  2.2707
 1799TIP3   OH226955   6.190   5.909   1.287 -0.1657 -0.5946  0.1198
 1799TIP3    H126956   6.096   5.918   1.275 -0.2709 -1.0365  0.5443
 1799TIP3    H226957   6.225   5.998   1.281 -0.6378 -0.4057  0.1792
 1800TIP3   OH226958   5.513   4.437   6.828 -0.1189 -0.2215 -0.0547
 1800TIP3    H126959   5.577   4.487   6.877 -1.2401 -0.1924  1.4494
 1800TIP3    H226960   5.445   4.500   6.803  0.1037 -0.3662 -1.0855
 1801TIP3   OH226961   1.975   5.882   7.234  0.1256 -0.3259 -0.0963
 1801TIP3    H126962   1.903   5.934   7.269  0.7848  1.4300 -1.2181
 1801TIP3    H226963   1.956   5.874   7.141 -0.1016 -2.4203  0.0784
 1802TIP3   OH226964   0.704   3.693   0.024  0.0625 -0.4397 -0.8414
 1802TIP3    H126965   0.726   3.782   0.053 -3.5482  0.7786 -1.2686
 1802TIP3    H226966   0.783   3.642   0.040  1.3770  2.2016  2.1801
 1803TIP3   OH226967   3.175   4.392   6.584 -0.1181  0.3863 -0.2901
 1803TIP3    H126968   3.137   4.362   6.667 -0.3795  2.4898  0.4076
 1803TIP3    H226969   3.261   4.427   6.607 -0.8447  2.5007 -0.5652
 1804TIP3   OH226970   3.315   4.383   0.206 -0.4407 -0.6674  0.0035
 1804TIP3    H126971   3.234   4.408   0.162 -0.6631  0.6455  1.1174
 1804TIP3    H226972   3.377   4.453   0.185 -0.1677 -0.6828  0.7235
 1805TIP3   OH226973   3.989   6.332   0.635  0.0338  0.3956 -0.0475
 1805TIP3    H126974   3.958   6.349   0.724 -0.7502 -1.8685  0.1659
 1805TIP3    H226975   3.910   6.334   0.581 -0.6902 -4.6014  0.3745
 1806TIP3   OH226976   3.504   2.357   7.434  0.2626 -0.4717  0.0331
 1806TIP3    H126977   3.416   2.394   7.447  0.7767  0.8516 -0.1096
 1806TIP3    H226978   3.519   2.304   7.512  0.2777  1.2415  1.2469
 1807TIP3   OH226979   4.822   5.999   7.735 -0.7417  0.0870  0.1221
 1807TIP3    H126980   4.757   6.020   7.669 -0.7482 -1.6743 -0.4728
 1807TIP3    H226981   4.877   5.932   7.694  1.0698  1.0525  0.8367
 1808TIP3   OH226982   2.068   2.517   8.166  0.6183  0.9199 -1.2571
 1808TIP3    H126983   2.016   2.441   8.139 -0.8659  0.3702  2.4999
 1808TIP3    H226984   2.071   2.573   8.089  0.2528 -2.1081 -3.6403
 1809TIP3   OH226985   5.856   6.839   1.255 -0.8067 -0.1096  0.2926
 1809TIP3    H126986   5.858   6.909   1.190  0.9825 -0.5884 -0.2480
 1809TIP3    H226987   5.811   6.767   1.211 -1.6606  0.3285  0.4436
 1810TIP3   OH226988   1.364   0.101   7.896 -1.4380  0.3279 -0.0751
 1810TIP3    H126989   1.340   0.093   7.988  1.1379 -0.4733  0.6105
 1810TIP3    H226990   1.343   0.192   7.874 -0.1826  1.1791  1.9568
 1811TIP3   OH226991   6.528   1.181   7.854  0.2141  0.0706 -0.1824
 1811TIP3    H126992   6.595   1.241   7.887  2.8461 -1.2177 -2.7338
 1811TIP3    H226993   6.519   1.114   7.922  0.6434  0.8803  0.6909
 1812TIP3   OH226994   2.445   6.538   2.033 -0.6542 -0.7751 -0.4117
 1812TIP3    H126995   2.474   6.599   2.101 -1.2092 -0.7296 -0.2100
 1812TIP3    H226996   2.358   6.510   2.061 -0.3778 -1.7116 -0.4757
 1813TIP3   OH226997   4.821   6.324   0.653  0.3055 -0.2297  0.0090
 1813TIP3    H126998   4.799   6.231   0.655 -2.0715  0.2214 -1.5168
 1813TIP3    H226999   4.736   6.369   0.657  1.4252  1.9378  1.6260
 1814TIP3   OH227000   3.487   1.103   8.317 -0.1402 -0.0030  0.0866
 1814TIP3    H127001   3.433   1.024   8.321 -1.4413  0.7816 -0.9709
 1814TIP3    H227002   3.576   1.071   8.299 -0.5293 -1.2479  0.2941
 1815TIP3   OH227003   5.230   4.326   2.125  0.0790  0.3215 -0.2924
 1815TIP3    H127004   5.287   4.402   2.111  1.7380 -0.6374  0.9330
 1815TIP3    H227005   5.174   4.351   2.198  1.1208  0.1357  0.5934
 1816TIP3   OH227006   5.171   6.564   8.171 -0.0113 -0.5786  0.0130
 1816TIP3    H127007   5.128   6.647   8.147 -0.1385 -1.0353 -1.4424
 1816TIP3    H227008   5.248   6.591   8.220 -0.0450  0.4224 -0.4451
 1817TIP3   OH227009   2.701   2.618   8.238 -0.2218 -0.2161  0.0103
 1817TIP3    H127010   2.618   2.635   8.192 -0.8154 -0.7111  0.8776
 1817TIP3    H227011   2.726   2.530   8.209 -0.8864 -0.7595  1.0328
 1818TIP3   OH227012   5.120   3.147   1.674 -0.1479  0.1821  0.2231
 1818TIP3    H127013   5.025   3.162   1.669 -0.2805 -0.7096 -0.1917
 1818TIP3    H227014   5.142   3.159   1.766 -1.1759 -2.3644  0.8757
 1819TIP3   OH227015   1.415   6.245   8.308  0.0395 -0.1886  0.7449
 1819TIP3    H127016   1.352   6.267   8.240  0.6603  0.9141  0.5034
 1819TIP3    H227017   1.440   6.154   8.291 -1.8708 -0.8363  1.1732
 1820TIP3   OH227018   3.244   5.059   1.314 -0.0127  0.4960  0.1949
 1820TIP3    H127019   3.279   4.981   1.271 -1.0462 -0.3778  0.9101
 1820TIP3    H227020   3.293   5.132   1.275  0.8951 -0.4936 -0.5482
 1821TIP3   OH227021   0.462   2.153   1.040  0.0657 -0.1794  0.2232
 1821TIP3    H127022   0.516   2.197   0.974 -0.0375 -0.1422  0.1633
 1821TIP3    H227023   0.410   2.090   0.991  1.8597 -2.0184  0.5737
 1822TIP3   OH227024   5.126   4.824   1.445  0.5870  0.2215  0.8948
 1822TIP3    H127025   5.197   4.883   1.472 -0.5895  1.7007  0.8458
 1822TIP3    H227026   5.131   4.751   1.507  2.9208 -0.3515  0.1421
 1823TIP3   OH227027   0.622   2.423   6.857  0.1852  0.9425  0.1925
 1823TIP3    H127028   0.634   2.514   6.884  1.1015  0.7788  0.3583
 1823TIP3    H227029   0.700   2.403   6.804 -0.1831  0.3613 -0.1407
 1824TIP3   OH227030   6.355   2.997   0.820  0.7309 -0.4818 -0.2577
 1824TIP3    H127031   6.336   2.989   0.913  1.5633  1.3337  0.1075
 1824TIP3    H227032   6.325   3.085   0.797 -2.6629 -2.0017 -2.5702
 1825TIP3   OH227033   2.470   3.966   1.425  0.1590  0.5160 -0.3322
 1825TIP3    H127034   2.556   3.972   1.383  0.5744 -1.5615  0.1424
 1825TIP3    H227035   2.483   4.005   1.512  1.6672 -2.9203  1.1369
 1826TIP3   OH227036   4.458   1.323   1.448  0.1136 -0.4436  0.7508
 1826TIP3    H127037   4.447   1.228   1.450  0.8375 -0.6537 -1.7337
 1826TIP3    H227038   4.504   1.344   1.529 -1.8890 -1.8909  2.3576
 1827TIP3   OH227039   5.108   2.828   8.627 -0.4980 -0.2248  0.2488
 1827TIP3    H127040   5.081   2.768   8.697  1.1062 -1.5571 -0.2309
 1827TIP3    H227041   5.095   2.779   8.546 -3.1067  1.5703 -0.5730
 1828TIP3   OH227042   3.334   4.128   0.002 -0.0452 -0.0622 -0.1912
 1828TIP3    H127043   3.429   4.126   0.010 -0.0279 -0.3875 -0.4970
 1828TIP3    H227044   3.304   4.052   0.052 -0.1501  0.0439 -0.0884
 1829TIP3   OH227045   2.103   1.238   7.288 -0.1741  0.3850 -0.1802
 1829TIP3    H127046   2.136   1.316   7.332 -1.7781  0.5302  0.8955
 1829TIP3    H227047   2.117   1.254   7.195 -0.2775  1.8774  0.0337
 1830TIP3   OH227048   5.018   5.944   1.136 -0.4786  0.0660  0.0547
 1830TIP3    H127049   4.942   5.979   1.182 -0.9262 -0.5409 -0.2122
 1830TIP3    H227050   5.082   6.016   1.137 -0.0339 -0.2589  2.5875
 1831TIP3   OH227051   3.812   2.489   8.134  0.0855 -0.3093 -0.1552
 1831TIP3    H127052   3.835   2.575   8.100  2.6648 -0.6221  0.5924
 1831TIP3    H227053   3.733   2.464   8.086 -0.0173  1.9233 -1.2607
 1832TIP3   OH227054   1.625   4.914   8.121 -0.3645  0.3623  0.2392
 1832TIP3    H127055   1.551   4.936   8.064  0.1702 -0.4885 -0.7923
 1832TIP3    H227056   1.703   4.935   8.069  0.1323 -0.6382  0.5589
 1833TIP3   OH227057   1.502   2.444   0.065  0.2165 -0.2803 -0.4954
 1833TIP3    H127058   1.513   2.534   0.035  1.0400 -0.3121 -0.3064
 1833TIP3    H227059   1.407   2.429   0.063 -0.0438  0.9957  0.6161
 1834TIP3   OH227060   5.124   4.607   0.323 -0.3318 -0.1788  0.3532
 1834TIP3    H127061   5.082   4.524   0.348 -0.5052 -0.0514  0.4918
 1834TIP3    H227062   5.205   4.609   0.375  0.0316 -0.5943 -0.1847
 1835TIP3   OH227063   0.260   6.550   0.823  0.0650 -0.3602 -0.0948
 1835TIP3    H127064   0.181   6.516   0.781  0.4984 -0.5031 -0.8187
 1835TIP3    H227065   0.321   6.566   0.750  0.4805  0.3383  0.3890
 1836TIP3   OH227066   1.925   5.759   8.069  0.0519 -0.3732 -0.4678
 1836TIP3    H127067   1.986   5.687   8.084  1.1923  0.8297  0.9705
 1836TIP3    H227068   1.952   5.797   7.985  2.2238  0.9792  0.7721
 1837TIP3   OH227069   4.147   0.859   6.410  0.1886 -0.1184 -0.3343
 1837TIP3    H127070   4.201   0.910   6.472  0.2697 -0.4994 -0.0877
 1837TIP3    H227071   4.075   0.826   6.464 -0.0585  0.0322 -0.5728
 1838TIP3   OH227072   1.814   4.484   2.471 -0.0054 -0.3105  0.1743
 1838TIP3    H127073   1.778   4.473   2.383  1.5898 -0.3085 -0.5129
 1838TIP3    H227074   1.795   4.574   2.494 -0.9087 -0.4671  0.0645
 1839TIP3   OH227075   4.489   4.224   0.750 -0.8982 -0.1575  0.2895
 1839TIP3    H127076   4.538   4.147   0.721 -0.4595  0.8296 -1.7616
 1839TIP3    H227077   4.527   4.246   0.835 -0.6309 -1.8278  0.6383
 1840TIP3   OH227078   3.048   5.377   0.821 -0.4283 -0.2825 -0.2814
 1840TIP3    H127079   2.971   5.432   0.809 -2.2972 -2.4799  0.7981
 1840TIP3    H227080   3.110   5.405   0.753 -2.0896  1.6783 -1.0581
 1841TIP3   OH227081   3.944   0.927   6.198 -0.0100  0.4885 -0.5103
 1841TIP3    H127082   4.006   0.903   6.267 -1.2629 -1.8389 -0.0858
 1841TIP3    H227083   3.948   0.853   6.137 -1.2056  1.0503 -1.2937
 1842TIP3   OH227084   6.588   3.774   6.309 -0.2766 -0.1437 -0.1750
 1842TIP3    H127085   6.669   3.820   6.331 -0.6607  0.5291 -0.1206
 1842TIP3    H227086   6.519   3.827   6.350 -0.8831  0.2470 -1.6319
 1843TIP3   OH227087   5.263   3.013   0.092  0.3667 -0.5821  0.5869
 1843TIP3    H127088   5.181   3.025   0.141 -0.1263 -0.6359 -0.2055
 1843TIP3    H227089   5.241   2.950   0.023  0.1585  1.7348 -1.6372
 1844TIP3   OH227090   0.483   0.078   6.179 -0.4293  0.2887 -0.3128
 1844TIP3    H127091   0.567   0.056   6.138 -1.3541 -0.9958 -1.5990
 1844TIP3    H227092   0.490   0.041   6.267  0.9505  1.6386  0.2040
 1845TIP3   OH227093   1.856   4.406   7.500 -0.4277 -0.7250  0.1499
 1845TIP3    H127094   1.949   4.386   7.510 -0.1204  0.6446  0.2389
 1845TIP3    H227095   1.850   4.500   7.518 -2.2155 -1.2139  2.6052
 1846TIP3   OH227096   0.298   4.209   0.818  0.2836 -0.2724 -0.0753
 1846TIP3    H127097   0.301   4.282   0.880  0.7531 -0.1804 -0.2045
 1846TIP3    H227098   0.389   4.185   0.804  0.2885  0.6122 -1.8114
 1847TIP3   OH227099   2.786   1.209   7.116 -0.6026 -0.3692 -0.4034
 1847TIP3    H127100   2.882   1.207   7.114 -0.5479  1.2785 -1.6348
 1847TIP3    H227101   2.760   1.139   7.056 -0.1125  0.3084 -1.4384
 1848TIP3   OH227102   6.656   3.348   0.730  0.4035  0.8211 -0.2217
 1848TIP3    H127103   6.635   3.274   0.672 -0.7160  1.1397 -0.2430
 1848TIP3    H227104   6.611   3.328   0.811  1.2197  0.8290  0.2449
 1849TIP3   OH227105   6.450   6.152   2.468  0.0446  0.6827 -0.6298
 1849TIP3    H127106   6.480   6.070   2.507 -1.6162 -0.3855 -1.4782
 1849TIP3    H227107   6.531   6.200   2.450  1.0391 -0.4838  0.4380
 1850TIP3   OH227108   1.104   0.593   2.347  0.2096 -0.1308  0.0820
 1850TIP3    H127109   1.195   0.595   2.376 -0.2504  0.0785  1.6334
 1850TIP3    H227110   1.107   0.558   2.259  1.7686 -0.3760  0.2094
 1851TIP3   OH227111   3.626   0.990   7.349 -0.2783 -0.4514  0.2022
 1851TIP3    H127112   3.544   1.009   7.304  0.1400 -2.1428 -1.3946
 1851TIP3    H227113   3.674   1.073   7.348 -1.8428  0.5080  0.9845
 1852TIP3   OH227114   3.384   1.321   1.134 -0.2485 -0.0038 -0.2020
 1852TIP3    H127115   3.471   1.307   1.096  0.4427  0.2572  1.2216
 1852TIP3    H227116   3.399   1.382   1.206 -1.4050 -0.8652  0.8067
 1853TIP3   OH227117   2.148   3.055   0.483  0.2525 -0.5205  0.8117
 1853TIP3    H127118   2.184   3.004   0.555 -0.1411 -0.7470  0.8477
 1853TIP3    H227119   2.158   2.999   0.406  1.8808  0.2235  0.4300
 1854TIP3   OH227120   3.425   4.486   8.290  0.9025 -0.3846  0.0865
 1854TIP3    H127121   3.396   4.416   8.232 -0.1528 -1.7764  2.1753
 1854TIP3    H227122   3.451   4.442   8.371  1.9914  1.4912  0.8358
 1855TIP3   OH227123   3.688   5.079   0.393  0.0057  0.1326  0.1513
 1855TIP3    H127124   3.630   5.154   0.408  1.1689  1.8545 -2.9499
 1855TIP3    H227125   3.630   5.009   0.363 -0.8414  0.6598  0.5435
 1856TIP3   OH227126   2.590   1.880   0.206  0.1040  0.5822 -0.6814
 1856TIP3    H127127   2.577   1.974   0.195  0.2311  0.9217  1.5645
 1856TIP3    H227128   2.547   1.841   0.131 -1.0853  2.3807 -0.9974
 1857TIP3   OH227129   1.240   4.141   1.242  0.3696 -0.3362  0.3334
 1857TIP3    H127130   1.321   4.143   1.293 -0.7241  0.7168  2.1503
 1857TIP3    H227131   1.237   4.226   1.198  0.4096 -0.5121 -0.0130
 1858TIP3   OH227132   5.724   6.394   6.552 -0.5377 -0.5259  0.4841
 1858TIP3    H127133   5.764   6.481   6.551 -0.3592 -0.5613 -2.0373
 1858TIP3    H227134   5.798   6.333   6.547 -0.7615 -0.6886 -1.1960
 1859TIP3   OH227135   4.596   3.369   0.965  0.0574  0.1571 -0.1134
 1859TIP3    H127136   4.628   3.419   0.889 -0.3312  0.5628 -0.0137
 1859TIP3    H227137   4.536   3.304   0.928  1.2959 -0.8978 -0.3518
 1860TIP3   OH227138   6.015   6.145   1.065  0.3649  0.2641  0.1930
 1860TIP3    H127139   6.039   6.228   1.025  0.5024  0.8205  1.3987
 1860TIP3    H227140   6.086   6.126   1.126  1.3924 -1.7924 -1.5285
 1861TIP3   OH227141   0.515   4.818   7.492 -0.2626  0.3851 -0.1495
 1861TIP3    H127142   0.531   4.896   7.546 -0.1516  0.3270 -0.0966
 1861TIP3    H227143   0.603   4.785   7.473 -0.3057  0.3467 -0.2797
 1862TIP3   OH227144   6.504   0.621   6.870  0.0861 -0.2361  0.3337
 1862TIP3    H127145   6.562   0.696   6.884  0.5550 -0.7786  1.4353
 1862TIP3    H227146   6.423   0.645   6.915  0.3598 -0.5312  0.9885
 1863TIP3   OH227147   2.306   3.872   7.693  0.1770  0.3105  0.0454
 1863TIP3    H127148   2.344   3.959   7.701 -0.0728  0.3591  0.7794
 1863TIP3    H227149   2.358   3.829   7.625  1.1068  0.6019  0.5541
 1864TIP3   OH227150   0.952   0.023   1.916 -0.0846  0.8523 -0.0426
 1864TIP3    H127151   0.931  -0.069   1.899 -1.6568  0.6278  2.5401
 1864TIP3    H227152   1.047   0.024   1.927 -0.0747 -0.5571  0.2579
 1865TIP3   OH227153   5.028   5.969   8.182  0.0321 -0.2224 -0.3168
 1865TIP3    H127154   4.999   5.897   8.239 -1.5137  1.1808  0.7740
 1865TIP3    H227155   5.082   6.024   8.239 -0.0795  0.2801 -0.6913
 1866TIP3   OH227156   5.979   4.169   8.647 -0.2004  0.1975  0.5368
 1866TIP3    H127157   6.019   4.253   8.668  0.2928 -0.0874  0.7706
 1866TIP3    H227158   6.046   4.124   8.595 -0.5587  0.0499  0.2080
 1867TIP3   OH227159   4.525   5.909   0.781 -0.0065  0.0512 -0.0122
 1867TIP3    H127160   4.431   5.914   0.762 -0.2855 -1.2266  0.8689
 1867TIP3    H227161   4.550   5.821   0.751  0.8970  0.3535 -0.1699
 1868TIP3   OH227162   2.350   1.690   1.524  0.5867 -0.4792  0.3342
 1868TIP3    H127163   2.313   1.661   1.441  0.2046 -1.5145  0.8422
 1868TIP3    H227164   2.281   1.673   1.588  1.4840 -1.2567  1.1187
 1869TIP3   OH227165   1.303   6.784   6.376 -0.0638  0.0066  0.1677
 1869TIP3    H127166   1.326   6.693   6.394  1.0457  0.3500  0.5482
 1869TIP3    H227167   1.219   6.797   6.421 -0.5452 -0.9932 -0.4217
 1870TIP3   OH227168   4.657   3.748   1.844 -0.1278 -0.1585  0.0915
 1870TIP3    H127169   4.624   3.835   1.823  0.0855 -0.0247  0.3083
 1870TIP3    H227170   4.580   3.691   1.839 -0.2433  0.0204 -0.1753
 1871TIP3   OH227171   0.299   3.653   7.906 -0.2582  0.2638  0.6530
 1871TIP3    H127172   0.249   3.608   7.975  1.6591 -1.1571  1.1776
 1871TIP3    H227173   0.348   3.721   7.953 -0.2148  0.3843  0.4330
 1872TIP3   OH227174   3.727   1.665   0.565  0.2631 -0.7584 -0.3473
 1872TIP3    H127175   3.682   1.607   0.627  1.9728 -0.4953  1.2223
 1872TIP3    H227176   3.817   1.635   0.565  0.9927  1.2686 -0.2090
 1873TIP3   OH227177   4.487   4.654   1.830 -0.2573  0.2181 -0.0511
 1873TIP3    H127178   4.490   4.710   1.908 -0.5928 -0.1911  0.2617
 1873TIP3    H227179   4.516   4.568   1.861 -0.7776 -0.0482 -0.2841
 1874TIP3   OH227180   6.430   4.122   0.695 -0.3458 -0.5886  0.3250
 1874TIP3    H127181   6.463   4.123   0.785  0.0377  0.0637  0.1860
 1874TIP3    H227182   6.490   4.064   0.648  1.2434  1.3206 -0.1372
 1875TIP3   OH227183   2.901   6.101   6.504  0.4439 -0.4087 -0.4869
 1875TIP3    H127184   2.866   6.118   6.416 -0.3493 -1.3581 -0.3728
 1875TIP3    H227185   2.986   6.060   6.489  0.9574  0.7438 -0.7870
 1876TIP3   OH227186   2.459   6.501   1.767 -0.5085 -0.4824 -0.3042
 1876TIP3    H127187   2.375   6.469   1.733 -1.3420 -0.6420  1.7678
 1876TIP3    H227188   2.440   6.527   1.857  1.0098  2.3486 -0.6956
 1877TIP3   OH227189   5.783   2.248   0.501 -0.1132 -0.0177  0.0182
 1877TIP3    H127190   5.858   2.305   0.515  0.6537 -0.5717 -1.5859
 1877TIP3    H227191   5.807   2.196   0.424 -1.6635 -1.0192  0.1751
 1878TIP3   OH227192   1.026   6.496   1.007  0.3007 -0.1779  0.2019
 1878TIP3    H127193   0.946   6.473   1.053 -0.0692 -0.0806 -0.3859
 1878TIP3    H227194   1.060   6.413   0.974  0.2358 -0.1698  0.1160
 1879TIP3   OH227195   0.571   6.044   7.601 -0.2407  0.0734 -0.0068
 1879TIP3    H127196   0.664   6.048   7.623  0.1059  0.3944 -1.4637
 1879TIP3    H227197   0.535   6.126   7.636 -0.2627 -0.6232  1.6928
 1880TIP3   OH227198   4.185   2.069   8.105  0.1533 -0.2149 -0.4208
 1880TIP3    H127199   4.231   1.993   8.068 -1.0634 -0.7770 -0.8545
 1880TIP3    H227200   4.195   2.060   8.199  1.1666 -0.1557 -0.5106
 1881TIP3   OH227201   6.462   0.117   1.101  0.2294 -0.7368 -0.0050
 1881TIP3    H127202   6.367   0.118   1.113  0.0269 -1.6207 -1.3448
 1881TIP3    H227203   6.498   0.119   1.189 -1.0741 -3.2786  0.6718
 1882TIP3   OH227204   4.031   5.815   8.271  0.1469 -0.3410 -0.0733
 1882TIP3    H127205   4.056   5.827   8.363 -0.9358  1.2470  0.0597
 1882TIP3    H227206   4.108   5.773   8.231 -0.2591 -3.4042  2.0013
 1883TIP3   OH227207   2.679   0.423   7.293  0.5413 -0.0766 -0.6473
 1883TIP3    H127208   2.705   0.488   7.228 -0.5602 -0.1658 -1.1947
 1883TIP3    H227209   2.591   0.449   7.321  0.1108 -1.2654 -0.8208
 1884TIP3   OH227210   4.382   3.175   7.342  0.0986 -0.1272 -0.0523
 1884TIP3    H127211   4.418   3.197   7.256  1.0893 -2.7417 -0.3966
 1884TIP3    H227212   4.314   3.240   7.357  1.1137  1.4872 -1.9857
 1885TIP3   OH227213   5.567   0.555   0.190 -0.3820  0.1644 -0.5136
 1885TIP3    H127214   5.566   0.584   0.099 -0.7604  1.1705 -0.1996
 1885TIP3    H227215   5.475   0.538   0.210 -0.4227  0.9682 -0.0061
 1886TIP3   OH227216   2.434   3.769   7.416  0.1218  0.3174  0.9306
 1886TIP3    H127217   2.440   3.707   7.344 -0.1025 -0.5610  1.6587
 1886TIP3    H227218   2.346   3.807   7.407 -0.0952 -0.1550  1.0379
 1887TIP3   OH227219   5.062   5.109   1.180 -0.0466  0.3443  0.0853
 1887TIP3    H127220   5.060   5.182   1.242  0.8373  0.1050  0.4080
 1887TIP3    H227221   5.155   5.091   1.166 -0.2471 -0.4086 -0.3641
 1888TIP3   OH227222   4.824   0.674   7.339 -0.5859 -0.1734 -0.0224
 1888TIP3    H127223   4.789   0.606   7.282  0.6301 -1.5470  0.7884
 1888TIP3    H227224   4.779   0.755   7.311  0.3730 -0.6235 -3.2808
 1889TIP3   OH227225   4.807   2.467   7.334 -0.2976 -0.8802  0.2926
 1889TIP3    H127226   4.861   2.389   7.329 -1.7837 -1.9455  0.2727
 1889TIP3    H227227   4.820   2.512   7.250  2.2231  0.0899  1.1132
 1890TIP3   OH227228   1.205   5.710   7.260 -0.0429  0.6366  0.0801
 1890TIP3    H127229   1.226   5.758   7.340 -1.3004  0.7961  0.3278
 1890TIP3    H227230   1.120   5.670   7.277  0.1481 -0.1799 -0.8003
 1891TIP3   OH227231   3.184   5.665   6.404 -0.1237 -0.1489  0.2929
 1891TIP3    H127232   3.271   5.640   6.436  0.3992 -0.3673 -1.2352
 1891TIP3    H227233   3.192   5.758   6.383 -0.6118  0.1168  1.2259
 1892TIP3   OH227234   6.313   0.598   1.528  0.3020  0.1047 -0.0424
 1892TIP3    H127235   6.282   0.646   1.451  0.5838  2.2041  1.0595
 1892TIP3    H227236   6.337   0.667   1.591  1.7752 -1.5077  1.2666
 1893TIP3   OH227237   0.225   5.478   0.968 -0.4304 -0.1227  0.2923
 1893TIP3    H127238   0.226   5.463   1.062  0.1948 -0.7091  0.2004
 1893TIP3    H227239   0.237   5.392   0.929  1.8938  0.3622 -0.2644
 1894TIP3   OH227240   1.125   2.857   8.132 -0.0604 -0.0882 -0.2792
 1894TIP3    H127241   1.078   2.797   8.074 -2.6243  1.9367 -0.4621
 1894TIP3    H227242   1.132   2.810   8.215  0.8039 -1.7934 -1.2670
 1895TIP3   OH227243   0.986   5.316   1.723  0.4193  0.6303  0.3980
 1895TIP3    H127244   1.043   5.259   1.673 -0.9237 -0.6654  0.2691
 1895TIP3    H227245   0.933   5.361   1.657 -1.3473 -1.0714  0.5562
 1896TIP3   OH227246   6.319   4.506   2.012 -0.3657  0.1594 -0.2335
 1896TIP3    H127247   6.265   4.541   2.083 -0.2651 -1.3308  0.6331
 1896TIP3    H227248   6.400   4.557   2.017 -0.3306  0.0270  0.7923
 1897TIP3   OH227249   6.609   5.549   7.980 -0.5910 -0.7383 -0.4202
 1897TIP3    H127250   6.630   5.631   8.025 -0.5943  0.1254 -1.9535
 1897TIP3    H227251   6.694   5.514   7.952 -0.5713 -1.3823  0.3885
 1898TIP3   OH227252   4.889   3.677   8.524  0.0015 -0.3735 -0.1400
 1898TIP3    H127253   4.847   3.600   8.561 -1.3557  0.4807  0.1842
 1898TIP3    H227254   4.980   3.670   8.550  0.5008 -3.0854 -2.1367
 1899TIP3   OH227255   4.848   5.990   1.704 -0.1504  0.3026 -0.3367
 1899TIP3    H127256   4.846   5.951   1.617  1.7167  1.0513 -0.7574
 1899TIP3    H227257   4.940   6.014   1.718 -0.3029 -0.2137  2.0253
 1900TIP3   OH227258   1.539   1.255   7.412  0.1525  0.2928  0.1246
 1900TIP3    H127259   1.584   1.292   7.336 -0.4840 -1.2839 -1.0601
 1900TIP3    H227260   1.488   1.328   7.447 -1.1664  0.6002 -2.2193
 1901TIP3   OH227261   4.674   0.704   1.243  0.6121 -0.0794 -0.3482
 1901TIP3    H127262   4.634   0.683   1.159  2.2081 -1.3175 -0.8565
 1901TIP3    H227263   4.646   0.633   1.301  1.9771 -0.9860 -0.7215
 1902TIP3   OH227264   4.496   0.593   7.225  0.5322  0.1672  0.0576
 1902TIP3    H127265   4.431   0.524   7.214 -1.4134  1.6167  1.7354
 1902TIP3    H227266   4.445   0.672   7.243  2.7260  1.7566 -0.2616
 1903TIP3   OH227267   2.068   3.933   6.978 -0.2474 -0.3579 -0.0273
 1903TIP3    H127268   1.992   3.887   7.014 -0.2052 -1.0969 -0.8229
 1903TIP3    H227269   2.045   3.950   6.887  0.5246 -0.5734 -0.2763
 1904TIP3   OH227270   5.541   1.433   1.284  0.4331 -0.1870 -0.2798
 1904TIP3    H127271   5.479   1.413   1.354 -0.4400  0.3675 -0.8700
 1904TIP3    H227272   5.611   1.370   1.296 -1.3153 -2.3979 -0.9586
 1905TIP3   OH227273   5.458   4.509   2.186  0.1534  0.3803  0.1291
 1905TIP3    H127274   5.393   4.540   2.249 -0.2868 -0.7721  0.2814
 1905TIP3    H227275   5.511   4.586   2.166  0.4123  0.7687  2.0336
 1906TIP3   OH227276   1.123   1.098   8.366 -0.4007  0.0805 -0.0352
 1906TIP3    H127277   1.066   1.021   8.375 -0.5101  0.3438  2.1422
 1906TIP3    H227278   1.206   1.063   8.335 -0.7318 -0.7992  0.0463
 1907TIP3   OH227279   4.515   0.996   8.165 -0.7418  0.1318  0.1754
 1907TIP3    H127280   4.480   1.077   8.128  0.3447 -0.3539 -2.0438
 1907TIP3    H227281   4.438   0.941   8.179 -1.2484  0.5684 -0.8123
 1908TIP3   OH227282   3.706   0.138   0.268  0.3956  0.2695  0.2317
 1908TIP3    H127283   3.743   0.064   0.220 -0.0145  0.1013  0.1741
 1908TIP3    H227284   3.768   0.154   0.340  0.5915  0.0062  0.1186
 1909TIP3   OH227285   2.988   3.733   6.727 -0.3310  0.5227 -0.5447
 1909TIP3    H127286   2.897   3.705   6.717 -0.4803  0.3255  0.9926
 1909TIP3    H227287   2.982   3.826   6.750 -0.3800 -0.0402  2.1094
 1910TIP3   OH227288   6.621   3.574   7.368 -0.0857  0.1654  0.5294
 1910TIP3    H127289   6.684   3.502   7.372  1.0168  1.0241 -0.5693
 1910TIP3    H227290   6.613   3.593   7.275 -1.7347  0.3202  0.6743
 1911TIP3   OH227291   5.883   4.055   7.592 -0.6164  0.2961  0.3686
 1911TIP3    H127292   5.859   3.962   7.590  0.6268 -0.0335 -0.6158
 1911TIP3    H227293   5.959   4.061   7.534 -1.1556  2.0760 -0.2010
 1912TIP3   OH227294   4.473   4.415   8.544 -0.2461  0.3036  0.1302
 1912TIP3    H127295   4.464   4.330   8.501  1.2895 -0.0925  0.5205
 1912TIP3    H227296   4.398   4.466   8.512 -1.0326 -1.0826 -0.3425
 1913TIP3   OH227297   1.928   2.082   7.842  0.0714 -0.6383 -0.2631
 1913TIP3    H127298   1.869   2.038   7.780 -1.4697  1.7796 -0.6895
 1913TIP3    H227299   1.880   2.081   7.925  0.2576 -0.2587 -0.1496
 1914TIP3   OH227300   3.278   3.627   7.111 -0.1404 -0.0417 -0.6359
 1914TIP3    H127301   3.325   3.548   7.084  0.9747  0.7718 -1.1456
 1914TIP3    H227302   3.333   3.665   7.179 -0.3968  0.5886 -0.7818
 1915TIP3   OH227303   5.977   0.215   7.315 -0.1575  0.0252 -0.3137
 1915TIP3    H127304   5.995   0.177   7.401 -0.4990  1.7822  0.5672
 1915TIP3    H227305   5.907   0.279   7.331  0.0028  0.6226 -1.8382
 1916TIP3   OH227306   5.155   6.732   8.436  0.8155 -0.2682 -0.2199
 1916TIP3    H127307   5.130   6.776   8.517 -1.9074  0.7928 -1.4928
 1916TIP3    H227308   5.132   6.640   8.450 -1.7810  0.2692 -0.4575
 1917TIP3   OH227309   5.918   6.492   1.607  0.4879  0.4468  0.1305
 1917TIP3    H127310   5.872   6.573   1.628  1.7110  0.9995  0.7577
 1917TIP3    H227311   6.000   6.498   1.655  0.4162 -1.3746  0.5558
 1918TIP3   OH227312   2.534   4.625   1.171  0.2943 -0.2588 -0.1813
 1918TIP3    H127313   2.449   4.644   1.212  0.2688 -0.2775 -0.2248
 1918TIP3    H227314   2.548   4.532   1.188  0.1359 -0.3376 -0.4839
 1919TIP3   OH227315   1.337   6.799   8.145 -0.0882  0.0922  0.3615
 1919TIP3    H127316   1.394   6.755   8.082 -0.5331 -0.0485  0.0504
 1919TIP3    H227317   1.387   6.800   8.226  1.2512  1.8707 -0.4121
 1920TIP3   OH227318   6.006   0.725   1.199  0.9845 -0.0196 -0.5287
 1920TIP3    H127319   5.912   0.706   1.193  1.1003 -0.6498 -0.4849
 1920TIP3    H227320   6.010   0.815   1.230  0.3880 -0.0770 -0.2607
 1921TIP3   OH227321   5.397   5.343   1.644  0.2720  0.2899 -0.4072
 1921TIP3    H127322   5.392   5.263   1.591 -2.0132 -0.3485  0.6557
 1921TIP3    H227323   5.373   5.413   1.584 -1.4056 -0.3115 -0.4781
 1922TIP3   OH227324   6.490   2.154   7.250 -0.3093  0.5274 -0.3136
 1922TIP3    H127325   6.535   2.165   7.166  1.4022  2.7664  0.7832
 1922TIP3    H227326   6.538   2.085   7.295  1.5876  2.2545  0.4645
 1923TIP3   OH227327   0.951   2.946   6.556 -0.3095  0.4744  0.2482
 1923TIP3    H127328   1.018   3.012   6.570 -0.1432  0.4884 -0.5633
 1923TIP3    H227329   0.998   2.863   6.559 -0.2629  0.4786 -0.2090
 1924TIP3   OH227330   1.361   4.451   7.170 -0.5803  0.5464 -1.0475
 1924TIP3    H127331   1.341   4.504   7.093  0.4937  0.7519 -1.1944
 1924TIP3    H227332   1.276   4.419   7.199 -1.0599  0.9210 -1.9898
 1925TIP3   OH227333   1.201   1.226   1.135 -0.1625  0.0882  0.0044
 1925TIP3    H127334   1.239   1.217   1.048  2.5049 -1.5930  1.1977
 1925TIP3    H227335   1.273   1.262   1.188 -0.6719 -1.7918  2.1190
 1926TIP3   OH227336   4.475   0.158   7.454 -0.5870 -0.0335  0.4613
 1926TIP3    H127337   4.420   0.099   7.403 -1.0639  1.0919 -0.3609
 1926TIP3    H227338   4.449   0.245   7.427  0.6989  0.5595  1.0230
 1927TIP3   OH227339   3.627   1.698   1.859  0.2898 -0.0389  0.3313
 1927TIP3    H127340   3.693   1.749   1.906  1.2659  0.7693 -1.8048
 1927TIP3    H227341   3.677   1.649   1.793 -1.0987 -0.4976 -0.4165
 1928TIP3   OH227342   5.407   4.218   7.407 -0.2439  0.0460 -0.1399
 1928TIP3    H127343   5.442   4.299   7.445 -0.1580  0.4805 -1.1153
 1928TIP3    H227344   5.359   4.247   7.329  1.1370 -0.9592 -1.4389
 1929TIP3   OH227345   0.365   5.538   7.285  0.2317  0.2095 -0.3632
 1929TIP3    H127346   0.448   5.562   7.242  1.0242 -1.1111  0.3810
 1929TIP3    H227347   0.376   5.446   7.310 -2.3493 -0.7461 -2.3120
 1930TIP3   OH227348   1.020   3.717   8.225 -0.3608 -0.0683  0.9039
 1930TIP3    H127349   1.074   3.781   8.179 -0.6987 -0.8268 -0.6157
 1930TIP3    H227350   0.993   3.656   8.157 -2.2396 -0.3225  1.8292
 1931TIP3   OH227351   6.621   1.265   8.190  0.3626 -0.2560  0.2308
 1931TIP3    H127352   6.577   1.197   8.241  1.5029 -0.4293  1.0312
 1931TIP3    H227353   6.698   1.222   8.154 -0.2265 -0.0319 -1.3766
 1932TIP3   OH227354   1.888   4.511   6.732  0.5259  0.1447  0.1457
 1932TIP3    H127355   1.963   4.496   6.675  2.1530  1.4006  1.8567
 1932TIP3    H227356   1.899   4.447   6.803 -1.1673 -1.0197 -0.5567
 1933TIP3   OH227357   2.233   5.555   0.424 -0.1098  0.4145 -0.1611
 1933TIP3    H127358   2.247   5.509   0.341 -0.0124  2.6554 -1.4627
 1933TIP3    H227359   2.320   5.587   0.448 -0.0944 -0.4167  0.9887
 1934TIP3   OH227360   5.715   0.780   0.908  0.1036 -0.2158 -0.5963
 1934TIP3    H127361   5.727   0.821   0.994  0.9577  0.2490 -0.9234
 1934TIP3    H227362   5.765   0.835   0.848 -0.4315 -0.5770 -1.3858
 1935TIP3   OH227363   3.827   6.057   1.810 -0.0254 -0.2180 -0.2643
 1935TIP3    H127364   3.869   5.995   1.870 -0.7156  1.0101  1.5425
 1935TIP3    H227365   3.864   6.142   1.832  0.6009  0.1286 -2.4406
 1936TIP3   OH227366   1.938   0.246   7.156  0.1304 -0.6963  0.8317
 1936TIP3    H127367   1.842   0.241   7.163 -0.0840 -1.2245 -1.4622
 1936TIP3    H227368   1.962   0.166   7.110  1.7469 -0.7706  1.7604
 1937TIP3   OH227369   2.627   5.194   0.685  0.0862  0.0655 -0.0083
 1937TIP3    H127370   2.603   5.153   0.768  0.3943 -2.5060 -1.0961
 1937TIP3    H227371   2.554   5.175   0.626  0.5476  0.5227 -0.7501
 1938TIP3   OH227372   4.872   1.929   7.325 -0.3133 -0.4782 -0.0728
 1938TIP3    H127373   4.861   1.995   7.257 -1.4871  0.4121  0.9276
 1938TIP3    H227374   4.793   1.876   7.320 -1.0580  0.4110  1.3977
 1939TIP3   OH227375   6.053   1.857   6.427 -0.0107 -0.6962  0.0456
 1939TIP3    H127376   6.035   1.950   6.447  2.5967 -0.2993  0.8770
 1939TIP3    H227377   6.130   1.836   6.479  1.8326 -2.2326 -3.0766
 1940TIP3   OH227378   6.385   5.551   0.738  0.4248 -0.2192  0.1029
 1940TIP3    H127379   6.478   5.554   0.762  0.5629  1.4302 -0.5102
 1940TIP3    H227380   6.384   5.509   0.653  0.5028 -1.0564  0.5044
 1941TIP3   OH227381   1.167   1.226   6.779 -0.1490  0.2821  0.3865
 1941TIP3    H127382   1.230   1.279   6.730 -0.2493  0.2584  0.2323
 1941TIP3    H227383   1.144   1.281   6.854  1.3363 -0.3760  1.3775
 1942TIP3   OH227384   2.223   3.181   1.278  0.2089 -0.0757  0.0707
 1942TIP3    H127385   2.298   3.228   1.240  0.0560  1.3444  1.4194
 1942TIP3    H227386   2.183   3.135   1.204  0.8575  1.2761 -1.1696
 1943TIP3   OH227387   6.609   6.219   1.660  0.0901 -0.8300  0.1857
 1943TIP3    H127388   6.645   6.143   1.705  2.5212 -0.7597 -1.4431
 1943TIP3    H227389   6.664   6.292   1.688 -1.5218  0.1916  0.8763
 1944TIP3   OH227390   0.705   6.650   8.023  0.1314 -0.4380  0.1628
 1944TIP3    H127391   0.783   6.703   8.038 -0.0571  0.6843 -2.3622
 1944TIP3    H227392   0.633   6.711   8.030 -0.2568 -0.7841 -0.6864
 1945TIP3   OH227393   0.275   6.773   0.976 -0.2272  0.3257 -0.0423
 1945TIP3    H127394   0.226   6.762   1.057 -0.5928  0.6953 -0.2087
 1945TIP3    H227395   0.271   6.687   0.934  1.3159 -0.3384  1.0561
 1946TIP3   OH227396   6.557   4.767   0.282 -0.5666  0.3828 -0.0252
 1946TIP3    H127397   6.566   4.701   0.351  0.9700  0.9759  0.3674
 1946TIP3    H227398   6.647   4.788   0.257 -1.0872  0.3582 -2.0639
 1947TIP3   OH227399   0.633   5.637   0.167 -0.3246 -0.8839  0.1234
 1947TIP3    H127400   0.701   5.644   0.234 -0.2267  1.2581 -0.1428
 1947TIP3    H227401   0.680   5.638   0.084 -0.6525  2.4021 -0.1376
 1948TIP3   OH227402   4.465   6.534   6.572 -0.5769 -0.3012 -0.2047
 1948TIP3    H127403   4.529   6.503   6.509  0.2898  1.3665 -0.2116
 1948TIP3    H227404   4.404   6.462   6.582  1.2243 -1.9165 -0.2915
 1949TIP3   OH227405   5.104   3.978   7.330 -0.2167  0.2400  0.4097
 1949TIP3    H127406   5.069   3.950   7.415 -0.7519 -0.8976 -0.1672
 1949TIP3    H227407   5.036   4.035   7.294 -0.6998 -0.5245  0.0809
 1950TIP3   OH227408   3.475   3.623   6.665  0.1919 -0.9274 -0.3580
 1950TIP3    H127409   3.489   3.530   6.687  3.2374 -0.3511  0.6416
 1950TIP3    H227410   3.491   3.628   6.571 -0.0623 -1.4333 -0.4300
 1951TIP3   OH227411   1.811   5.030   7.984 -0.6206 -0.3081 -0.1383
 1951TIP3    H127412   1.820   5.115   8.028 -3.8239 -0.8206  1.8354
 1951TIP3    H227413   1.791   5.052   7.893  0.8245  0.9476 -0.1909
 1952TIP3   OH227414   3.696   5.886   7.227  0.6158  0.3367  0.0402
 1952TIP3    H127415   3.730   5.974   7.211 -0.6397  0.9945  0.8764
 1952TIP3    H227416   3.658   5.891   7.315 -1.1204 -0.5126 -0.6347
 1953TIP3   OH227417   5.432   6.844   8.286  0.8879  0.3055  0.0658
 1953TIP3    H127418   5.436   6.895   8.367  0.2083 -0.1069  0.3773
 1953TIP3    H227419   5.340   6.850   8.260  1.0550  0.2257 -0.5391
 1954TIP3   OH227420   1.969   2.869   0.803 -0.6091  0.2642 -0.1512
 1954TIP3    H127421   1.958   2.774   0.814  0.7233  0.0624 -0.3461
 1954TIP3    H227422   1.891   2.907   0.842 -1.0285 -0.9065  0.1916
 1955TIP3   OH227423   4.369   6.771   2.670  0.3314 -0.2193 -0.1738
 1955TIP3    H127424   4.388   6.799   2.760 -0.0440  1.3596 -0.5624
 1955TIP3    H227425   4.454   6.743   2.636  0.4028 -1.2936  0.8039
 1956TIP3   OH227426   3.054   4.093   0.187 -0.0396 -0.0408 -0.8936
 1956TIP3    H127427   3.029   4.001   0.186  2.0031 -0.6315 -2.0013
 1956TIP3    H227428   3.136   4.095   0.236 -1.3909  1.6452  1.5407
 1957TIP3   OH227429   3.708   3.260   7.355 -0.2434 -0.2244 -0.4589
 1957TIP3    H127430   3.641   3.328   7.367  0.5166  0.2706  1.3254
 1957TIP3    H227431   3.662   3.190   7.309 -1.3129  1.0867 -1.4910
 1958TIP3   OH227432   4.528   3.784   0.518 -0.6525  0.1720  0.1433
 1958TIP3    H127433   4.572   3.711   0.475 -0.6518  0.3531 -0.1660
 1958TIP3    H227434   4.509   3.846   0.448 -0.9984  0.2982  0.3444
 1959TIP3   OH227435   1.823   0.783   6.649 -0.1189  0.3597  0.0840
 1959TIP3    H127436   1.850   0.697   6.680  0.5966  0.4206 -0.3510
 1959TIP3    H227437   1.885   0.805   6.580 -0.9566  0.7468 -0.5684
 1960TIP3   OH227438   2.129   2.397   2.486  0.4515 -1.0566 -0.2155
 1960TIP3    H127439   2.207   2.405   2.430 -0.4744 -1.0712 -1.5498
 1960TIP3    H227440   2.118   2.483   2.525 -0.1554 -0.3841 -1.8125
 1961TIP3   OH227441   5.201   5.956   1.402 -0.1764 -0.1815  0.2726
 1961TIP3    H127442   5.200   6.043   1.442 -3.1792 -0.9317  2.2013
 1961TIP3    H227443   5.111   5.943   1.372  0.2930 -2.4636 -0.3241
 1962TIP3   OH227444   2.259   3.800   2.539  0.1126 -0.7705 -0.2444
 1962TIP3    H127445   2.168   3.790   2.569  0.1249  0.6713  0.3475
 1962TIP3    H227446   2.254   3.866   2.470  0.4941 -1.9625 -1.4626
 1963TIP3   OH227447   3.126   2.775   7.312 -0.0142 -0.5930  0.2033
 1963TIP3    H127448   3.169   2.748   7.231 -0.8989 -3.3016  0.5311
 1963TIP3    H227449   3.197   2.802   7.370  1.0049 -2.1445 -0.2623
 1964TIP3   OH227450   4.627   2.521   0.510  0.2768 -0.2034 -0.8594
 1964TIP3    H127451   4.646   2.605   0.469  0.7189  0.1879  0.1092
 1964TIP3    H227452   4.701   2.506   0.569 -0.4473 -0.6164 -0.0213
 1965TIP3   OH227453   6.700   4.384   6.996  0.0927 -0.0840 -0.0540
 1965TIP3    H127454   6.629   4.432   6.953  1.0843  0.0458 -1.6344
 1965TIP3    H227455   6.735   4.446   7.061 -0.5016  0.2557 -0.0546
 1966TIP3   OH227456   6.434   0.957   7.994 -0.2490 -0.0079  0.4317
 1966TIP3    H127457   6.495   0.913   7.935  1.8701  1.4542  1.3691
 1966TIP3    H227458   6.438   0.906   8.075 -0.1945  0.1163  0.5088
 1967TIP3   OH227459   1.470   4.644   1.381  0.4506 -0.2963 -0.0784
 1967TIP3    H127460   1.477   4.549   1.367  2.9848 -0.1437 -0.4314
 1967TIP3    H227461   1.383   4.666   1.350  0.0400 -2.4157 -0.6357
 1968TIP3   OH227462   0.922   5.671   2.393  0.7293  0.6460  0.5709
 1968TIP3    H127463   0.873   5.752   2.411 -0.0342  0.4714 -0.6240
 1968TIP3    H227464   0.946   5.678   2.301  2.3677  0.3902  0.9457
 1969TIP3   OH227465   4.123   0.625   2.242 -0.5209  0.2824  0.5112
 1969TIP3    H127466   4.078   0.540   2.250  0.2511 -0.2934 -1.0089
 1969TIP3    H227467   4.052   0.689   2.243 -1.1859 -0.4306  0.7955
 1970TIP3   OH227468   2.914   2.369   1.191  0.2359  0.1486 -0.2264
 1970TIP3    H127469   2.987   2.367   1.252 -0.5591 -1.5622  0.7586
 1970TIP3    H227470   2.955   2.367   1.104  1.3569  0.5284  0.2772
 1971TIP3   OH227471   4.954   3.515   0.715  0.3979 -0.4371  0.2860
 1971TIP3    H127472   4.970   3.467   0.634 -0.9955  1.3050 -1.1268
 1971TIP3    H227473   5.023   3.486   0.775  0.9773 -2.3956 -1.2318
 1972TIP3   OH227474   1.114   6.259   0.876 -0.8295 -0.4735 -0.4101
 1972TIP3    H127475   1.196   6.228   0.836 -0.5255 -1.7110  1.0712
 1972TIP3    H227476   1.047   6.201   0.841 -0.7711 -0.6677 -0.2074
 1973TIP3   OH227477   1.679   6.101   1.811 -0.4810 -0.9562 -0.0132
 1973TIP3    H127478   1.641   6.154   1.881  1.8305  0.0783  0.5359
 1973TIP3    H227479   1.728   6.032   1.856  2.5565  0.7722 -0.4108
 1974TIP3   OH227480   2.204   0.295   1.736  0.3943  0.2501 -0.4933
 1974TIP3    H127481   2.126   0.272   1.685  2.6614 -0.9395 -3.7453
 1974TIP3    H227482   2.243   0.210   1.758  2.1980  0.7967 -1.4276
 1975TIP3   OH227483   1.307   1.901   7.040 -0.5829 -0.1529  0.5192
 1975TIP3    H127484   1.283   1.961   6.969  1.6032  0.2443  0.0438
 1975TIP3    H227485   1.264   1.938   7.117 -0.5201  1.1847 -0.0499
 1976TIP3   OH227486   1.614   4.154   7.773 -0.0664 -0.5252 -0.4492
 1976TIP3    H127487   1.679   4.220   7.796 -0.2522 -0.8034  0.9303
 1976TIP3    H227488   1.664   4.072   7.767 -0.1550 -0.5923 -0.2518
 1977TIP3   OH227489   5.074   6.797   1.505  0.0525 -0.9887  0.4224
 1977TIP3    H127490   5.013   6.869   1.496 -0.9553 -1.5775  2.0711
 1977TIP3    H227491   5.160   6.839   1.512  0.1486 -0.2077 -3.4350
 1978TIP3   OH227492   3.233   6.746   7.648  0.1298 -0.3256 -0.8518
 1978TIP3    H127493   3.261   6.837   7.652 -1.0717  0.0535  2.3617
 1978TIP3    H227494   3.140   6.750   7.624  0.6799 -0.9908 -3.3948
 1979TIP3   OH227495   1.886   2.806   0.553 -0.2667 -0.0799  0.8291
 1979TIP3    H127496   1.946   2.849   0.615 -0.6523  0.4907  0.8141
 1979TIP3    H227497   1.859   2.876   0.494  0.1681 -0.6383 -0.0514
 1980TIP3   OH227498   5.746   5.272   8.571  0.2543 -0.1926 -0.1659
 1980TIP3    H127499   5.838   5.290   8.593 -0.1001  0.5845  0.7779
 1980TIP3    H227500   5.749   5.234   8.484  1.6987 -2.6297  0.8528
 1981TIP3   OH227501   6.693   3.674   1.487  0.1551 -0.4594 -0.1991
 1981TIP3    H127502   6.710   3.760   1.449  4.6472 -1.6128 -1.3514
 1981TIP3    H227503   6.603   3.653   1.461 -0.8470  3.4964 -0.4386
 1982TIP3   OH227504   1.803   1.998   8.578 -0.0621 -0.2002  0.0076
 1982TIP3    H127505   1.814   2.090   8.600  0.3834 -0.1739 -0.3061
 1982TIP3    H227506   1.724   1.971   8.625  0.1779  0.1680  0.6417
 1983TIP3   OH227507   3.087   4.956   6.987  0.8624 -0.5529  0.0729
 1983TIP3    H127508   3.063   4.927   6.899 -2.5396  0.0371  0.6556
 1983TIP3    H227509   3.089   5.052   6.981 -2.2117 -0.3121  1.0932
 1984TIP3   OH227510   2.292   1.982   0.521  0.1050 -0.1694 -0.2436
 1984TIP3    H127511   2.293   1.977   0.617  0.6662  0.3752 -0.2127
 1984TIP3    H227512   2.207   2.020   0.499 -0.1366 -0.5535  0.0214
 1985TIP3   OH227513   3.946   3.840   0.622 -0.5684  0.1549 -0.0428
 1985TIP3    H127514   4.010   3.834   0.551  0.9725  1.4827  1.1584
 1985TIP3    H227515   3.861   3.832   0.578  0.3576 -0.5712 -1.8274
 1986TIP3   OH227516   0.874   1.427   7.407  0.4970 -0.7656  0.1866
 1986TIP3    H127517   0.948   1.486   7.387  0.8353 -1.3988 -0.5043
 1986TIP3    H227518   0.859   1.438   7.500  2.0222 -1.2211  0.5183
 1987TIP3   OH227519   1.594   6.492   0.035  0.5653  0.5069 -0.4558
 1987TIP3    H127520   1.608   6.587   0.032  0.3273  0.6804  1.9988
 1987TIP3    H227521   1.672   6.458   0.079  0.8559 -0.5282 -1.6967
 1988TIP3   OH227522   3.819   1.459   6.551 -0.2313  0.4958 -0.2541
 1988TIP3    H127523   3.846   1.526   6.615  0.1270 -0.0353  0.1572
 1988TIP3    H227524   3.725   1.450   6.565  0.0068 -0.3821  0.9557
 1989TIP3   OH227525   5.143   1.503   7.222 -0.5064 -0.4332 -0.2627
 1989TIP3    H127526   5.209   1.460   7.277  1.4869  4.0376  1.3373
 1989TIP3    H227527   5.075   1.532   7.283  0.0784  1.7076 -0.5275
 1990TIP3   OH227528   4.808   4.391   1.446 -0.4072 -0.1206 -0.4127
 1990TIP3    H127529   4.849   4.346   1.519 -1.8388 -1.2112 -0.2311
 1990TIP3    H227530   4.714   4.383   1.462 -0.7333  1.7029 -1.1423
 1991TIP3   OH227531   4.036   6.035   7.324 -0.3070 -0.0740  0.4404
 1991TIP3    H127532   4.027   6.058   7.231  1.9996  0.4036  0.2702
 1991TIP3    H227533   4.109   5.972   7.326 -0.0990  0.1713  1.9435
 1992TIP3   OH227534   5.846   1.400   7.938  0.0283 -0.0643  0.0938
 1992TIP3    H127535   5.857   1.412   7.843 -0.6209  0.8170  0.1208
 1992TIP3    H227536   5.888   1.316   7.956  2.1380  0.7670 -0.6154
 1993TIP3   OH227537   6.849   2.922   6.853  0.3090 -0.5131 -0.2962
 1993TIP3    H127538   6.848   3.018   6.849  0.2622 -0.4055  1.6094
 1993TIP3    H227539   6.775   2.896   6.799 -0.7716  0.6226  0.5713
 1994TIP3   OH227540   5.288   6.514   0.806  0.4129  0.0650  0.1102
 1994TIP3    H127541   5.228   6.570   0.757  0.8370  0.1546 -0.3156
 1994TIP3    H227542   5.350   6.575   0.846  1.1452 -0.1125 -0.7189
 1995TIP3   OH227543   5.843   3.923   1.962  0.1563  0.2199 -0.4259
 1995TIP3    H127544   5.864   3.981   2.035  1.3688 -1.1331  0.3345
 1995TIP3    H227545   5.790   3.853   2.000  0.2662 -0.1733 -0.9768
 1996TIP3   OH227546   0.868   1.535   0.166  0.5216 -0.0708 -0.0177
 1996TIP3    H127547   0.797   1.471   0.160  0.9451 -0.5263 -0.2588
 1996TIP3    H227548   0.947   1.483   0.155  0.8850  0.4556  0.1115
 1997TIP3   OH227549   0.253   0.724   7.813 -0.6361  0.1543 -0.1856
 1997TIP3    H127550   0.163   0.752   7.800 -0.7653 -0.4854 -0.7313
 1997TIP3    H227551   0.251   0.629   7.804 -0.1269 -0.0014  1.1701
 1998TIP3   OH227552   1.368   6.681   0.075 -0.2440  0.6621  0.1805
 1998TIP3    H127553   1.345   6.696  -0.016 -1.4725  1.0569  0.5347
 1998TIP3    H227554   1.438   6.615   0.072  1.0920  2.0633 -1.1276
 1999TIP3   OH227555   5.601   5.352   7.968  0.0073  0.0286  0.4504
 1999TIP3    H127556   5.515   5.376   7.934 -0.0143 -0.4029  0.1807
 1999TIP3    H227557   5.607   5.394   8.053 -0.2546  0.5021  0.2388
 2000TIP3   OH227558   2.367   6.600   1.307 -0.2934 -0.4913 -0.3250
 2000TIP3    H127559   2.444   6.603   1.363 -0.4211 -0.2160 -0.1595
 2000TIP3    H227560   2.318   6.523   1.336 -0.5291 -0.1612  0.1717
 2001TIP3   OH227561   0.217   0.087   0.520 -0.0575 -0.0611  0.7108
 2001TIP3    H127562   0.154   0.062   0.588 -0.3420 -0.4555  0.3034
 2001TIP3    H227563   0.221   0.182   0.526 -2.0977  0.1578 -0.4731
 2002TIP3   OH227564   5.618   3.480   7.977 -0.5583 -0.4896  0.4683
 2002TIP3    H127565   5.535   3.519   7.950 -0.2265 -0.7153 -0.9799
 2002TIP3    H227566   5.642   3.527   8.057 -1.2303  0.7683 -0.0423
 2003TIP3   OH227567   4.423   2.087   7.218 -0.4393 -0.6441  0.2017
 2003TIP3    H127568   4.480   2.139   7.275 -1.5359  0.2925  0.4679
 2003TIP3    H227569   4.384   2.151   7.158 -2.0873 -1.0727  0.7610
 2004TIP3   OH227570   1.119   2.470   0.610 -0.4723 -0.0178  0.1523
 2004TIP3    H127571   1.089   2.511   0.691  1.1258  0.5633  0.4834
 2004TIP3    H227572   1.116   2.376   0.628  0.4888  0.1164  1.1547
 2005TIP3   OH227573   1.339   4.857   7.078 -0.4219 -0.3511  0.0939
 2005TIP3    H127574   1.414   4.918   7.073 -1.2764  0.7508  0.2868
 2005TIP3    H227575   1.301   4.874   7.164  0.0581 -2.0987  0.6981
 2006TIP3   OH227576   4.954   2.971   8.142  0.0396  0.2182 -0.3409
 2006TIP3    H127577   4.866   2.936   8.132  0.4850 -0.6769 -1.3822
 2006TIP3    H227578   5.010   2.893   8.146  0.7154  0.7463  1.1384
 2007TIP3   OH227579   4.344   6.247   6.833  0.3438  0.3010 -0.0961
 2007TIP3    H127580   4.440   6.247   6.842  0.6306 -0.3231 -2.5393
 2007TIP3    H227581   4.315   6.173   6.885  1.1957  0.3463  0.4716
 2008TIP3   OH227582   6.399   5.448   0.015 -0.2685  0.1041  1.1288
 2008TIP3    H127583   6.341   5.372   0.016 -0.4255  0.2299  1.5938
 2008TIP3    H227584   6.486   5.411   0.031  0.0104 -0.2650 -1.0060
 2009TIP3   OH227585   2.600   6.460   7.715 -0.4170  0.0781  0.6458
 2009TIP3    H127586   2.683   6.502   7.736 -0.6084 -0.8609  3.8402
 2009TIP3    H227587   2.623   6.368   7.702 -0.7560  0.1197 -0.3024
 2010TIP3   OH227588   2.060   2.307   7.926 -0.3283 -0.4498  0.5387
 2010TIP3    H127589   2.042   2.232   7.870  0.6495 -0.1313 -0.2153
 2010TIP3    H227590   2.007   2.291   8.005 -0.6119 -1.6070  0.1320
 2011TIP3   OH227591   2.406   1.527   0.241  0.0280 -0.1198  0.2846
 2011TIP3    H127592   2.393   1.433   0.232 -1.2700  0.1702 -1.4289
 2011TIP3    H227593   2.362   1.549   0.323 -1.4212 -0.7478 -0.2783
 2012TIP3   OH227594   6.632   5.822   7.331  0.2374  0.1576 -0.7669
 2012TIP3    H127595   6.602   5.752   7.273 -0.9063  1.0707 -1.3159
 2012TIP3    H227596   6.635   5.899   7.275  3.9554  0.1221 -0.8301
 2013TIP3   OH227597   1.730   0.853   7.974 -0.7687 -0.5841  0.1497
 2013TIP3    H127598   1.808   0.870   7.921 -0.1326  0.6447  1.4062
 2013TIP3    H227599   1.668   0.811   7.914  0.1552  0.1521 -1.3703
 2014TIP3   OH227600   6.862   0.140   7.541 -0.5584 -0.1480  0.2727
 2014TIP3    H127601   6.830   0.088   7.468 -2.8159  0.7083  0.5895
 2014TIP3    H227602   6.952   0.109   7.555 -0.1035 -0.4182 -2.7223
 2015TIP3   OH227603   0.330   5.753   1.274  0.2048 -0.6083 -0.2482
 2015TIP3    H127604   0.387   5.699   1.329  1.6233  0.6686 -0.4037
 2015TIP3    H227605   0.358   5.733   1.185 -0.6308 -1.0793 -0.4121
 2016TIP3   OH227606   3.872   5.271   8.430 -0.3206 -0.4289  0.6591
 2016TIP3    H127607   3.788   5.259   8.385 -0.4101  0.3110  0.6279
 2016TIP3    H227608   3.909   5.350   8.393  0.1763 -0.4861  1.0168
 2017TIP3   OH227609   1.493   1.167   8.662 -0.2236  0.4688  0.0137
 2017TIP3    H127610   1.546   1.144   8.586 -0.2765 -1.6607  0.5772
 2017TIP3    H227611   1.547   1.228   8.712  0.4715  0.6271 -0.9057
 2018TIP3   OH227612   6.483   2.239   0.197  0.2764  0.1290 -0.2478
 2018TIP3    H127613   6.578   2.232   0.200  0.2158 -1.1661 -0.7256
 2018TIP3    H227614   6.465   2.331   0.213  1.5988  0.3452  0.0963
 2019TIP3   OH227615   4.061   2.591   1.430 -0.5184  0.2278  0.2201
 2019TIP3    H127616   4.139   2.635   1.464 -0.2564 -0.8329  1.0372
 2019TIP3    H227617   4.090   2.501   1.412 -1.3171  0.0701 -0.3568
 2020TIP3   OH227618   5.123   6.389   7.724 -0.5574  0.3807 -0.1472
 2020TIP3    H127619   5.089   6.324   7.786 -0.3974  1.6787  1.3763
 2020TIP3    H227620   5.191   6.342   7.676  1.9612  0.1741  3.2126
 2021TIP3   OH227621   1.361   3.634   8.152  0.0140  0.4984  0.1738
 2021TIP3    H127622   1.427   3.611   8.217  0.3643  1.3212  0.1218
 2021TIP3    H227623   1.288   3.574   8.170  1.4740 -1.7876 -1.0132
 2022TIP3   OH227624   5.825   1.989   1.894  0.2309  0.0096  0.2855
 2022TIP3    H127625   5.775   1.996   1.975  1.1040  0.9376  0.7717
 2022TIP3    H227626   5.829   2.079   1.861 -1.5020 -0.5681 -1.6760
 2023TIP3   OH227627   6.173   5.337   7.506 -0.1873 -0.5185 -0.3422
 2023TIP3    H127628   6.266   5.336   7.525 -0.0293  0.8340 -0.9546
 2023TIP3    H227629   6.140   5.414   7.553 -0.9646 -0.8748 -0.2869
 2024TIP3   OH227630   4.423   5.311   7.954 -0.1449 -0.6019  0.1806
 2024TIP3    H127631   4.380   5.293   7.870 -0.8863 -0.9180  0.6177
 2024TIP3    H227632   4.506   5.353   7.930 -0.5220 -0.3343 -0.6921
 2025TIP3   OH227633   1.825   0.246   2.014  0.2511  0.8828  0.1121
 2025TIP3    H127634   1.811   0.252   1.919 -2.8999  1.3896  0.5166
 2025TIP3    H227635   1.862   0.331   2.038  0.3215  1.0466 -0.5566
 2026TIP3   OH227636   6.481   5.665   0.350  0.3778 -0.2020 -0.2266
 2026TIP3    H127637   6.436   5.595   0.396 -1.2273  1.8260  1.5222
 2026TIP3    H227638   6.423   5.687   0.277 -0.4798  0.8975  0.7172
 2027TIP3   OH227639   4.774   4.951   2.204 -0.1640  0.0064  0.0646
 2027TIP3    H127640   4.811   4.914   2.284 -2.2724 -0.9849  0.6691
 2027TIP3    H227641   4.693   4.992   2.233  0.3461  2.0186 -1.1885
 2028TIP3   OH227642   2.122   1.482   0.725 -0.4162 -0.0159 -0.2930
 2028TIP3    H127643   2.168   1.563   0.702 -1.5909  0.5691 -0.6516
 2028TIP3    H227644   2.160   1.416   0.668  0.5772  0.2747  0.0184
 2029TIP3   OH227645   4.472   0.176   1.574 -0.1455 -0.1427  0.4683
 2029TIP3    H127646   4.518   0.138   1.500 -2.6091 -0.8739 -0.7915
 2029TIP3    H227647   4.520   0.257   1.593  0.0524  0.5536 -2.5390
 2030TIP3   OH227648   3.250   0.074   7.392  0.0932 -0.0344  0.1647
 2030TIP3    H127649   3.303  -0.002   7.418  0.5631  0.1831 -0.1485
 2030TIP3    H227650   3.216   0.109   7.475  3.3523  1.9755  0.8307
 2031TIP3   OH227651   5.831   1.159   0.930 -0.2801 -0.4659 -0.1929
 2031TIP3    H127652   5.863   1.243   0.896 -1.0326 -0.6642 -1.4613
 2031TIP3    H227653   5.889   1.139   1.003 -0.5070  1.5005  0.5955
 2032TIP3   OH227654   6.729   5.356   7.517  0.0556 -0.5275  0.0983
 2032TIP3    H127655   6.824   5.341   7.518  0.0632 -0.4985 -0.0652
 2032TIP3    H227656   6.694   5.291   7.578  0.2683  0.1056  0.9176
 2033TIP3   OH227657   4.117   1.240   1.594  0.1411 -0.2443  0.3595
 2033TIP3    H127658   4.205   1.210   1.618  0.8608  1.4336 -0.0267
 2033TIP3    H227659   4.108   1.216   1.502 -0.3247 -1.5057  0.7073
 2034TIP3   OH227660   4.115   3.533   7.703  0.9355 -0.4661  0.4239
 2034TIP3    H127661   4.024   3.507   7.715  0.2343  1.6953  0.2730
 2034TIP3    H227662   4.164   3.477   7.763 -0.1907 -3.0187 -0.8786
 2035TIP3   OH227663   5.448   5.371   2.479 -0.5115  0.3437 -0.2645
 2035TIP3    H127664   5.455   5.437   2.547  0.8233 -0.9341  0.8867
 2035TIP3    H227665   5.390   5.305   2.516  0.0387 -0.2486 -0.4432
 2036TIP3   OH227666   1.118   5.447   7.816  0.0140 -0.0307  0.0664
 2036TIP3    H127667   1.158   5.364   7.839 -0.7553  0.1258  2.1197
 2036TIP3    H227668   1.189   5.511   7.824 -0.4269  0.2231  3.5432
 2037TIP3   OH227669   2.483   0.522   0.316  0.2090 -0.1839  0.2915
 2037TIP3    H127670   2.407   0.579   0.322 -0.1905 -0.7433  0.6384
 2037TIP3    H227671   2.451   0.436   0.343  1.0675 -0.3262  0.8986
 2038TIP3   OH227672   3.699   6.012   0.286 -0.2014 -0.0411 -0.0242
 2038TIP3    H127673   3.657   5.929   0.265 -1.8840  0.0177  2.6387
 2038TIP3    H227674   3.632   6.078   0.267  0.3149  0.5042  0.0249
 2039TIP3   OH227675   0.692   3.957   0.394 -0.6757  0.3380  0.0204
 2039TIP3    H127676   0.779   3.997   0.402 -0.5224  0.1065 -0.4475
 2039TIP3    H227677   0.692   3.884   0.456 -0.5555  0.3669  0.0537
 2040TIP3   OH227678   4.910   3.774   0.634  0.3671  0.2347 -1.0147
 2040TIP3    H127679   4.933   3.688   0.668 -1.4741  1.0070  2.7661
 2040TIP3    H227680   4.989   3.827   0.647  0.1895  0.1078  0.9327
 2041TIP3   OH227681   3.015   4.016   8.153 -0.8935 -0.6350  0.4470
 2041TIP3    H127682   3.106   4.031   8.126 -0.7506 -1.1389  0.6379
 2041TIP3    H227683   2.968   4.001   8.071 -0.4951 -1.9845  0.4493
 2042TIP3   OH227684   0.395   5.767   6.919 -0.2802  0.0308 -0.1368
 2042TIP3    H127685   0.486   5.790   6.938 -0.2996 -0.9424  1.3776
 2042TIP3    H227686   0.398   5.675   6.894 -0.6423  0.5195 -2.1084
 2043TIP3   OH227687   4.017   6.621   0.500 -0.7165 -0.1100 -0.3361
 2043TIP3    H127688   4.091   6.585   0.548 -1.4152 -1.3992 -0.2012
 2043TIP3    H227689   3.968   6.671   0.565 -1.5076 -1.6163  0.2699
 2044TIP3   OH227690   4.417   3.112   7.858  0.0607  0.2764  0.1034
 2044TIP3    H127691   4.501   3.075   7.829  0.3805  0.5594  0.6580
 2044TIP3    H227692   4.389   3.167   7.785  0.4089  0.2668 -0.0403
 2045TIP3   OH227693   2.484   4.278   0.872  0.0243  0.2841  0.3224
 2045TIP3    H127694   2.545   4.220   0.918 -0.5337 -0.2395  0.4217
 2045TIP3    H227695   2.400   4.232   0.876 -0.6407  1.5069  1.1900
 2046TIP3   OH227696   4.363   4.867   0.679  0.1972  0.2544  0.5173
 2046TIP3    H127697   4.291   4.805   0.673  1.2136 -1.0094  0.9597
 2046TIP3    H227698   4.398   4.856   0.767  1.7534 -0.1413 -0.1078
 2047TIP3   OH227699   0.923   6.046   8.108 -0.1906 -0.0206  0.2015
 2047TIP3    H127700   1.010   6.009   8.125 -0.6679 -1.0881  0.3926
 2047TIP3    H227701   0.869   5.970   8.085 -1.1331  0.6071  0.3047
 2048TIP3   OH227702   6.769   5.960   0.510 -0.6795  0.0066 -0.2901
 2048TIP3    H127703   6.692   5.977   0.456 -0.3691 -2.1031 -1.5348
 2048TIP3    H227704   6.781   5.865   0.505  0.5040 -0.0315  1.9743
 2049TIP3   OH227705   3.390   3.042   8.642  0.0290  0.2268  0.6862
 2049TIP3    H127706   3.466   3.086   8.678 -1.3158  1.5037  2.0978
 2049TIP3    H227707   3.357   2.987   8.713 -0.8095  0.2846  0.3559
 2050TIP3   OH227708   2.244   1.017   0.723  1.1117 -0.4633  0.1034
 2050TIP3    H127709   2.254   0.932   0.764 -2.1017 -0.8839  0.2541
 2050TIP3    H227710   2.261   1.080   0.793  3.7629 -0.8858 -0.0748
 2051TIP3   OH227711   3.667   4.158   1.463  0.0681  0.1179 -0.3393
 2051TIP3    H127712   3.599   4.217   1.431 -1.8376 -0.4289  2.2645
 2051TIP3    H227713   3.707   4.205   1.536 -1.9702 -1.8340  2.2584
 2052TIP3   OH227714   2.944   3.916   7.910 -0.0188 -0.7658  0.2789
 2052TIP3    H127715   2.874   3.979   7.893 -0.8614 -1.2115  1.9308
 2052TIP3    H227716   2.919   3.838   7.861 -0.4431 -0.7630  0.4893
 2053TIP3   OH227717   5.703   1.690   0.199  0.3009 -0.0082 -0.0407
 2053TIP3    H127718   5.697   1.659   0.289  0.1628  2.6015  0.9156
 2053TIP3    H227719   5.628   1.650   0.155 -1.3003  0.8740  1.7510
 2054TIP3   OH227720   4.936   6.845   7.296 -0.1973 -0.0483 -0.0267
 2054TIP3    H127721   4.917   6.803   7.380 -0.6835 -1.0270 -0.6122
 2054TIP3    H227722   4.852   6.877   7.265 -0.1205 -0.2440 -0.4397
 2055TIP3   OH227723   0.078   5.722   1.179 -0.3229 -0.1519  0.3395
 2055TIP3    H127724   0.034   5.806   1.165 -1.1209 -0.3197  1.6700
 2055TIP3    H227725   0.170   5.745   1.192 -0.0257  0.2458 -2.0114
 2056TIP3   OH227726   0.592   4.208   7.746 -0.3057  0.5523  0.1303
 2056TIP3    H127727   0.655   4.279   7.757 -1.2668  1.4378  0.0828
 2056TIP3    H227728   0.633   4.132   7.787  1.0264  0.9672 -0.4036
 2057TIP3   OH227729   2.586   5.616   1.497  0.5281 -0.1147 -0.1645
 2057TIP3    H127730   2.642   5.585   1.568 -0.1436  0.5397  0.6741
 2057TIP3    H227731   2.509   5.561   1.502 -0.8143  1.7687  1.5372
 2058TIP3   OH227732   6.346   2.287   1.641  1.0032 -0.0576 -0.0367
 2058TIP3    H127733   6.416   2.251   1.696  1.0991  0.4740  0.1922
 2058TIP3    H227734   6.324   2.216   1.580  2.0465 -0.0716 -0.4055
 2059TIP3   OH227735   1.664   1.894   6.000  0.0603 -0.1896  0.5621
 2059TIP3    H127736   1.632   1.962   6.058  0.1726  0.8483 -0.5525
 2059TIP3    H227737   1.750   1.870   6.036  0.9886  1.7857 -0.1917
 2060TIP3   OH227738   3.608   2.841   0.820 -0.0354  0.0454  0.6178
 2060TIP3    H127739   3.548   2.899   0.866  0.3278  0.6561  0.3467
 2060TIP3    H227740   3.555   2.802   0.750 -0.3153 -0.0487  0.8806
 2061TIP3   OH227741   4.226   3.602   8.160 -0.2629 -0.9603  0.5592
 2061TIP3    H127742   4.159   3.597   8.228 -1.9234  0.9298 -0.8318
 2061TIP3    H227743   4.188   3.557   8.085 -0.0565  0.2439 -0.2944
 2062TIP3   OH227744   5.127   2.576   0.415 -0.0655  0.3963  0.1671
 2062TIP3    H127745   5.081   2.603   0.335  0.9319 -0.4490 -0.7440
 2062TIP3    H227746   5.120   2.480   0.415  0.6518  0.3317  0.6380
 2063TIP3   OH227747   2.339   1.414   6.541 -0.2395 -0.6660 -0.1490
 2063TIP3    H127748   2.296   1.369   6.469  2.3704 -1.5167 -1.3139
 2063TIP3    H227749   2.383   1.345   6.590  1.2079  0.2625 -0.0658
 2064TIP3   OH227750   3.742   1.640   7.316  0.3197 -0.2470 -0.2352
 2064TIP3    H127751   3.717   1.549   7.328  0.6276 -0.4701 -1.1670
 2064TIP3    H227752   3.662   1.690   7.333  0.0578 -0.7192 -0.0868
 2065TIP3   OH227753   1.901   4.540   0.683  0.3076  0.2880  0.8141
 2065TIP3    H127754   1.851   4.621   0.681  0.9664  0.6895  0.1819
 2065TIP3    H227755   1.952   4.546   0.764 -1.2760 -0.5220  1.9202
 2066TIP3   OH227756   6.174   3.063   8.435 -0.2528 -0.2840  0.1890
 2066TIP3    H127757   6.221   3.112   8.502 -1.0236  0.9078 -0.1044
 2066TIP3    H227758   6.127   3.130   8.385 -0.7947 -1.2716 -0.6713
 2067TIP3   OH227759   5.574   2.309   7.915  0.3934  0.4933  0.1248
 2067TIP3    H127760   5.523   2.386   7.941 -1.7727 -0.6869 -0.3699
 2067TIP3    H227761   5.510   2.237   7.914  2.0478 -1.0488 -0.7508
 2068TIP3   OH227762   4.045   5.281   7.542  0.1641 -0.0849 -0.6697
 2068TIP3    H127763   3.988   5.205   7.554 -0.0257 -0.1810 -2.0056
 2068TIP3    H227764   4.111   5.252   7.480  0.5799  0.5954 -0.5544
 2069TIP3   OH227765   6.519   4.833   1.767 -0.3320  0.1142  0.4114
 2069TIP3    H127766   6.504   4.906   1.826 -0.6502 -0.4046  0.9924
 2069TIP3    H227767   6.465   4.852   1.690 -4.0684 -1.6024  2.3478
 2070TIP3   OH227768   1.975   4.684   2.728 -0.2309 -0.0561  0.2072
 2070TIP3    H127769   1.950   4.592   2.740 -3.1120  0.7596  1.2694
 2070TIP3    H227770   1.917   4.716   2.660  0.0484  1.2426  0.5560
 2071TIP3   OH227771   1.706   2.385   0.633 -0.3970  0.1144  0.2189
 2071TIP3    H127772   1.768   2.331   0.683 -1.2569 -2.0106 -0.8840
 2071TIP3    H227773   1.647   2.322   0.592 -3.8367  2.0042  1.8130
 2072TIP3   OH227774   2.192   1.393   7.049 -0.2508 -0.7048 -0.0311
 2072TIP3    H127775   2.273   1.440   7.069 -0.3988  0.0122 -1.0636
 2072TIP3    H227776   2.190   1.387   6.954 -1.6181 -0.3529 -0.0487
 2073TIP3   OH227777   5.114   3.323   1.425 -0.2647 -0.0725 -0.2304
 2073TIP3    H127778   5.101   3.370   1.508  1.7988  2.9259 -1.4372
 2073TIP3    H227779   5.075   3.379   1.359  0.4843 -1.0726 -1.5758
 2074TIP3   OH227780   3.054   4.854   0.295 -0.0106  0.3570  1.0687
 2074TIP3    H127781   2.966   4.838   0.262  0.4181  1.9163 -1.0467
 2074TIP3    H227782   3.042   4.881   0.386 -1.7516  1.1334  0.6313
 2075TIP3   OH227783   4.593   1.120   8.550 -0.0630  0.4974  0.1315
 2075TIP3    H127784   4.625   1.105   8.460 -0.8581  0.9349 -0.2347
 2075TIP3    H227785   4.668   1.099   8.605  0.0719 -1.0283 -0.5585
 2076TIP3   OH227786   5.901   5.983   7.522 -0.4868  0.1074  0.7081
 2076TIP3    H127787   5.976   5.950   7.572  2.3494  2.9505 -1.3203
 2076TIP3    H227788   5.895   6.075   7.546 -0.1501  1.1441 -2.7665
 2077TIP3   OH227789   2.327   4.105   0.319  0.1935 -0.1282  0.1769
 2077TIP3    H127790   2.396   4.038   0.320  0.6965  0.2758 -1.9803
 2077TIP3    H227791   2.369   4.182   0.355  0.7719 -0.0160 -0.6929
 2078TIP3   OH227792   3.855   4.274   6.225  0.5061  0.0154 -0.1240
 2078TIP3    H127793   3.926   4.212   6.242  0.2045  0.1315  1.7830
 2078TIP3    H227794   3.789   4.224   6.178  1.6570 -0.1883 -1.6109
 2079TIP3   OH227795   0.483   3.788   7.240  0.5248 -0.3174 -0.8295
 2079TIP3    H127796   0.532   3.713   7.205 -0.2466 -0.9356 -0.6046
 2079TIP3    H227797   0.407   3.749   7.283 -1.1317  0.6901 -2.6646
 2080TIP3   OH227798   4.732   2.221   0.867 -0.2653 -0.1534 -0.0701
 2080TIP3    H127799   4.766   2.138   0.832 -1.0668 -1.0082  1.0814
 2080TIP3    H227800   4.778   2.233   0.950 -1.4466 -0.4196  0.6548
 2081TIP3   OH227801   2.751   3.064   0.031  0.1811 -0.5094 -0.4210
 2081TIP3    H127802   2.661   3.066  -0.002  0.6440  0.2834 -1.7103
 2081TIP3    H227803   2.756   3.138   0.092  0.0587 -0.3249 -0.6341
 2082TIP3   OH227804   2.232   3.927   0.103 -0.1908 -0.2852 -0.2142
 2082TIP3    H127805   2.272   3.953   0.020  0.0727  0.0200  0.0063
 2082TIP3    H227806   2.257   3.996   0.165  0.2841 -0.9181  0.3131
 2083TIP3   OH227807   3.633   2.736   1.218 -0.0723 -0.0773 -0.6879
 2083TIP3    H127808   3.605   2.656   1.175  0.7897 -0.1100 -1.2081
 2083TIP3    H227809   3.572   2.803   1.187  0.2532 -0.1947 -1.5977
 2084TIP3   OH227810   0.479   5.253   1.880  0.6539 -0.1335  0.0199
 2084TIP3    H127811   0.516   5.167   1.860  0.9513  0.1583 -0.7322
 2084TIP3    H227812   0.473   5.297   1.795  0.4580  0.5683  0.3877
 2085TIP3   OH227813   2.109   1.767   0.632  0.3565  0.0928  0.4671
 2085TIP3    H127814   2.052   1.826   0.582  1.3363 -0.0839 -0.9017
 2085TIP3    H227815   2.139   1.821   0.705 -0.0204  0.7972  0.1174
 2086TIP3   OH227816   4.461   4.485   0.632 -0.2323 -0.3124 -0.5456
 2086TIP3    H127817   4.469   4.393   0.655 -1.0010 -0.7571 -1.9521
 2086TIP3    H227818   4.435   4.528   0.714 -0.9359 -1.5056 -0.1236
 2087TIP3   OH227819   4.077   0.909   0.161  0.6629  0.1112  0.5162
 2087TIP3    H127820   4.022   0.986   0.174  0.1298  0.0335 -1.0396
 2087TIP3    H227821   4.133   0.931   0.087  1.0207 -0.7285  0.5198
 2088TIP3   OH227822   6.476   6.754   8.164 -0.1975  0.4637  0.0183
 2088TIP3    H127823   6.510   6.781   8.249  1.4730  1.0690 -0.7749
 2088TIP3    H227824   6.392   6.714   8.182 -0.0067  0.8469  1.9124
 2089TIP3   OH227825   4.362   3.239   1.258  0.2755  0.6624 -0.1995
 2089TIP3    H127826   4.441   3.202   1.220 -0.9286 -1.6901 -0.5616
 2089TIP3    H227827   4.354   3.197   1.343 -2.0286 -1.4384 -1.3142
 2090TIP3   OH227828   6.153   6.180   8.622 -0.2211  0.3274 -0.3688
 2090TIP3    H127829   6.156   6.088   8.598 -0.4897  0.6148 -1.6270
 2090TIP3    H227830   6.150   6.181   8.717 -1.8725 -1.0244 -0.3573
 2091TIP3   OH227831   0.339   0.397   1.474 -0.1582  0.4607 -0.1077
 2091TIP3    H127832   0.326   0.334   1.545  1.2825 -1.2615 -1.2655
 2091TIP3    H227833   0.412   0.451   1.505 -1.0544  1.2636  0.6693
 2092TIP3   OH227834   3.198   3.440   8.476  0.2565  0.2092 -0.2581
 2092TIP3    H127835   3.173   3.416   8.565  1.2149 -0.1470 -0.0747
 2092TIP3    H227836   3.162   3.371   8.420  3.2673 -2.0061  0.2895
 2093TIP3   OH227837   2.031   1.681   7.451  0.2225 -0.3678 -0.1716
 2093TIP3    H127838   1.957   1.626   7.477 -0.2492  0.1764 -0.3176
 2093TIP3    H227839   2.108   1.630   7.472 -0.2019 -1.5745 -1.3675
 2094TIP3   OH227840   3.469   5.738   7.754  0.2241 -0.1350 -0.3017
 2094TIP3    H127841   3.509   5.727   7.840  0.2346  0.3197 -0.2457
 2094TIP3    H227842   3.543   5.747   7.694  0.2593 -1.9713 -0.5924
 2095TIP3   OH227843   0.131   6.204   6.962  0.0795 -0.1640  0.5770
 2095TIP3    H127844   0.171   6.126   7.001  1.3542  0.5945  0.8457
 2095TIP3    H227845   0.183   6.221   6.883 -0.2334  0.3763  0.4775
 2096TIP3   OH227846   4.188   1.468   0.038 -0.2905  0.5868  0.3574
 2096TIP3    H127847   4.201   1.385   0.082 -1.1418 -0.4462 -1.2419
 2096TIP3    H227848   4.223   1.534   0.098  0.2414 -0.9023  1.7175
 2097TIP3   OH227849   3.559   5.174   7.369  0.0669  0.8843 -0.5709
 2097TIP3    H127850   3.558   5.105   7.303  0.8297  2.0084 -1.8120
 2097TIP3    H227851   3.470   5.175   7.404  0.3512 -1.5750  0.4595
 2098TIP3   OH227852   5.826   1.388   6.955  0.6212 -0.4503 -0.4560
 2098TIP3    H127853   5.732   1.392   6.973  0.6168  1.7148 -0.7068
 2098TIP3    H227854   5.833   1.328   6.882 -0.6557 -0.1437 -0.8671
 2099TIP3   OH227855   6.662   3.879   1.311 -0.7598  0.4516  0.0092
 2099TIP3    H127856   6.594   3.898   1.247 -1.2428  0.3969  0.5002
 2099TIP3    H227857   6.645   3.940   1.383 -0.6209  0.0639  0.3742
 2100TIP3   OH227858   1.837   2.684   8.439 -0.0032  0.3018 -0.1622
 2100TIP3    H127859   1.781   2.758   8.462 -1.2944 -0.8142  0.4185
 2100TIP3    H227860   1.926   2.717   8.452 -0.5571  1.0920  2.3222
 2101TIP3   OH227861   3.966   0.027   1.402 -0.0673 -0.1260  0.5529
 2101TIP3    H127862   4.055   0.009   1.433  0.8742  0.7328 -1.4395
 2101TIP3    H227863   3.910   0.006   1.476  1.8293 -0.2405  2.0395
 2102TIP3   OH227864   4.568   6.084   6.481  0.3699 -0.1220 -0.0854
 2102TIP3    H127865   4.615   6.007   6.450  1.4918  0.4483  0.1634
 2102TIP3    H227866   4.622   6.119   6.553  0.7804  1.8423 -1.2627
 2103TIP3   OH227867   5.596   1.744   7.483  0.3572  0.0612  0.3185
 2103TIP3    H127868   5.562   1.681   7.546  3.6165 -0.0629  2.1764
 2103TIP3    H227869   5.633   1.691   7.413 -1.9306  0.1759 -1.0910
 2104TIP3   OH227870   5.909   5.490   1.908  0.3059 -0.0293  0.0949
 2104TIP3    H127871   5.969   5.463   1.978  0.1288 -0.0014  0.2568
 2104TIP3    H227872   5.845   5.546   1.952  0.8063  0.8478 -0.2737
 2105TIP3   OH227873   2.571   2.245   0.396  0.1412 -0.3627 -0.1114
 2105TIP3    H127874   2.485   2.287   0.396 -0.4301 -1.4822  0.5430
 2105TIP3    H227875   2.586   2.221   0.304 -0.0769  0.1699 -0.2852
 2106TIP3   OH227876   5.130   2.388   7.241  0.1682  0.0110 -0.2211
 2106TIP3    H127877   5.099   2.375   7.152 -1.1139 -1.4156  0.3934
 2106TIP3    H227878   5.218   2.351   7.241 -0.1126 -0.6677 -0.7062
 2107TIP3   OH227879   1.817   6.649   0.527  0.6807 -0.1564  0.3186
 2107TIP3    H127880   1.803   6.555   0.532 -0.1748  0.0173  1.7617
 2107TIP3    H227881   1.732   6.684   0.499  0.7834  0.2444  0.5023
 2108TIP3   OH227882   2.726   1.895   6.531  0.6675 -0.4445 -0.6364
 2108TIP3    H127883   2.818   1.913   6.511  0.4718  0.5899 -0.6577
 2108TIP3    H227884   2.725   1.879   6.626  0.4371  2.8450  0.0251
 2109TIP3   OH227885   1.424   0.549   0.963  0.2422 -0.1991  0.4849
 2109TIP3    H127886   1.424   0.557   1.058  1.5793  0.0783  0.4818
 2109TIP3    H227887   1.339   0.512   0.942 -0.3099  0.3041  1.7376
 2110TIP3   OH227888   2.537   3.906   0.633 -0.4794 -0.5574 -0.0178
 2110TIP3    H127889   2.587   3.971   0.585 -2.1252  1.1867  0.5076
 2110TIP3    H227890   2.572   3.822   0.603  1.8219  0.5266 -0.5986
 2111TIP3   OH227891   0.227   2.478   1.455  0.0846 -0.1672  0.1952
 2111TIP3    H127892   0.319   2.486   1.430  0.2046 -1.5408  0.0740
 2111TIP3    H227893   0.209   2.384   1.448 -1.2438  0.0430  0.5195
 2112TIP3   OH227894   1.936   6.324   2.317  0.0646 -0.1380 -0.1545
 2112TIP3    H127895   1.919   6.259   2.249 -1.8159 -1.3426  1.3613
 2112TIP3    H227896   1.849   6.351   2.347  0.7921  0.1214  1.9392
 2113TIP3   OH227897   1.905   1.886   0.932  0.0207 -0.5856 -0.2584
 2113TIP3    H127898   1.967   1.954   0.958  1.0628  0.0365 -3.8677
 2113TIP3    H227899   1.957   1.805   0.934 -0.2450 -0.7507  0.6118
 2114TIP3   OH227900   0.807   0.236   2.264 -0.0126 -0.2285  0.2838
 2114TIP3    H127901   0.854   0.176   2.321 -1.4250 -1.9241 -0.2339
 2114TIP3    H227902   0.770   0.180   2.196 -1.1653  1.2722 -0.3770
 2115TIP3   OH227903   0.746   0.336   0.096  1.0253  0.5058  0.5606
 2115TIP3    H127904   0.819   0.387   0.130  0.8796  2.3837 -1.7108
 2115TIP3    H227905   0.722   0.380   0.014 -0.1722 -2.3069 -0.7159
 2116TIP3   OH227906   1.489   1.965   0.913 -0.0158  0.2850 -0.3252
 2116TIP3    H127907   1.535   2.044   0.885 -0.7549  0.5913 -0.6810
 2116TIP3    H227908   1.405   1.996   0.946 -0.3618 -0.3643 -0.5883
 2117TIP3   OH227909   4.733   1.203   0.241  0.3257  0.4148 -0.3937
 2117TIP3    H127910   4.745   1.273   0.176  1.3777  0.8284  0.2102
 2117TIP3    H227911   4.729   1.249   0.325  2.5597 -0.2802  0.1780
 2118TIP3   OH227912   4.404   4.633   7.741  0.1004 -0.2115 -0.0459
 2118TIP3    H127913   4.393   4.546   7.701 -0.0971 -0.2592  0.1117
 2118TIP3    H227914   4.403   4.616   7.835 -2.0667  0.2028  0.0511
 2119TIP3   OH227915   5.007   2.784   6.493  0.3006  0.0568  0.3737
 2119TIP3    H127916   5.088   2.821   6.459 -0.3271  1.0138 -0.1313
 2119TIP3    H227917   4.939   2.822   6.438 -0.6115  0.3804  1.6909
 2120TIP3   OH227918   5.649   4.869   8.309 -0.3650 -0.2994 -0.3880
 2120TIP3    H127919   5.556   4.854   8.290 -0.4202 -0.8588  0.2666
 2120TIP3    H227920   5.659   4.842   8.401  0.2150  0.8000 -0.1137
 2121TIP3   OH227921   2.739   1.452   8.534  0.2317  0.0629 -0.1410
 2121TIP3    H127922   2.671   1.391   8.563  0.7883  0.7282  2.8457
 2121TIP3    H227923   2.707   1.538   8.560  2.4731  0.3270  2.1272
 2122TIP3   OH227924   3.493   5.335   7.150 -0.6092 -0.5250  0.6668
 2122TIP3    H127925   3.524   5.263   7.205 -1.4198 -1.0333  0.4786
 2122TIP3    H227926   3.573   5.380   7.122 -0.2119  0.4192  3.1125
 2123TIP3   OH227927   5.282   4.118   8.355  0.3305 -0.5233  0.0268
 2123TIP3    H127928   5.287   4.206   8.317  1.1609 -0.9939 -1.0262
 2123TIP3    H227929   5.305   4.131   8.447 -1.2295  0.5820  0.3092
 2124TIP3   OH227930   4.728   3.551   1.633 -0.4824 -0.1327  0.2496
 2124TIP3    H127931   4.749   3.631   1.681  0.2247 -0.2054  0.0632
 2124TIP3    H227932   4.799   3.541   1.570  0.7194 -2.1742  1.8282
 2125TIP3   OH227933   2.426   2.399   1.787 -0.1686 -0.0215  0.3557
 2125TIP3    H127934   2.455   2.357   1.706  1.0365 -2.1532  1.7847
 2125TIP3    H227935   2.339   2.434   1.767 -0.1746 -1.0641 -1.6631
 2126TIP3   OH227936   6.183   0.258   7.750  0.2629  0.0110  0.4486
 2126TIP3    H127937   6.250   0.290   7.690  0.6254  1.6196  1.6357
 2126TIP3    H227938   6.153   0.336   7.797 -1.7338 -0.8211  0.6648
 2127TIP3   OH227939   2.652   4.536   6.301  0.0464  0.1769 -0.2501
 2127TIP3    H127940   2.715   4.521   6.231 -1.9104 -1.1145 -1.8555
 2127TIP3    H227941   2.611   4.451   6.316 -1.2493  0.9363  0.7769
 2128TIP3   OH227942   5.600   2.596   7.725  0.5124  0.1781  0.3797
 2128TIP3    H127943   5.677   2.539   7.724  0.2571 -0.2300 -2.0212
 2128TIP3    H227944   5.634   2.683   7.705  0.3003 -0.2404 -2.2032
 2129TIP3   OH227945   6.726   1.916   7.298 -0.2380  0.9190  0.4222
 2129TIP3    H127946   6.657   1.878   7.351  0.3156  1.4437  1.5484
 2129TIP3    H227947   6.729   1.862   7.219 -1.3497  0.3797  0.7436
 2130TIP3   OH227948   5.038   5.250   8.289  0.0066  0.2766  0.1454
 2130TIP3    H127949   5.035   5.271   8.196  0.5175 -1.1692 -0.2239
 2130TIP3    H227950   4.949   5.265   8.320 -0.7924 -1.4764 -1.1199
 2131TIP3   OH227951   4.223   5.379   1.256  0.0481 -0.1259  0.1938
 2131TIP3    H127952   4.278   5.303   1.239  1.6364  0.9005  0.5364
 2131TIP3    H227953   4.156   5.376   1.188  0.0622 -1.8280  0.2215
 2132TIP3   OH227954   4.667   6.341   2.375 -0.4463  0.4664 -0.0432
 2132TIP3    H127955   4.587   6.295   2.401 -0.1861 -0.9118 -1.5265
 2132TIP3    H227956   4.637   6.428   2.349 -1.8015 -0.6337 -2.4385
 2133TIP3   OH227957   0.832   0.530   0.867 -0.3751  0.3378 -0.3284
 2133TIP3    H127958   0.757   0.552   0.813 -1.1920  1.7664  1.2891
 2133TIP3    H227959   0.908   0.547   0.812 -1.1920 -0.2555 -1.6816
 2134TIP3   OH227960   5.813   3.440   7.755  0.2775 -0.0659 -0.0821
 2134TIP3    H127961   5.791   3.356   7.714  0.4494  0.3001 -0.9308
 2134TIP3    H227962   5.734   3.464   7.804 -0.3978  0.1072 -1.2244
 2135TIP3   OH227963   4.048   2.060   7.318  0.6415 -0.2744  0.2806
 2135TIP3    H127964   4.102   2.124   7.272  1.7669 -0.9631  0.5870
 2135TIP3    H227965   4.083   1.975   7.290 -2.0038 -0.8896 -1.5822
 2136TIP3   OH227966   4.849   0.527   7.924  0.3724  0.1401 -0.6207
 2136TIP3    H127967   4.843   0.447   7.871 -0.2339  0.3832 -0.9381
 2136TIP3    H227968   4.790   0.510   7.998  1.2354 -0.2075  0.0027
 2137TIP3   OH227969   4.875   4.259   6.785 -0.4489 -0.1617  0.4319
 2137TIP3    H127970   4.935   4.220   6.848  0.9759 -1.7778 -1.7957
 2137TIP3    H227971   4.920   4.251   6.701 -2.8144  0.7066 -1.0066
 2138TIP3   OH227972   4.250   0.904   8.062  0.9108 -0.1539 -0.2715
 2138TIP3    H127973   4.201   0.983   8.087 -0.1181 -0.5147 -1.0955
 2138TIP3    H227974   4.227   0.840   8.129 -1.0065 -0.7927 -1.4628
 2139TIP3   OH227975   0.058   5.644   6.758  0.2159  0.5103  0.4859
 2139TIP3    H127976   0.044   5.737   6.738 -0.7882  0.2514 -0.0979
 2139TIP3    H227977   0.122   5.615   6.693 -0.3749  0.5200 -0.1113
 2140TIP3   OH227978   3.241   6.648   6.710 -0.2282  0.4197 -0.1932
 2140TIP3    H127979   3.297   6.579   6.676 -0.2213  1.3301 -2.1786
 2140TIP3    H227980   3.174   6.603   6.761 -0.1085 -1.0287 -1.2658
 2141TIP3   OH227981   4.310   0.646   8.102 -0.2489 -0.0050  0.1326
 2141TIP3    H127982   4.272   0.565   8.067  0.1004  0.3828 -1.2082
 2141TIP3    H227983   4.388   0.660   8.049 -0.1775  1.0932  0.5072
 2142TIP3   OH227984   3.042   6.375   8.354 -0.1255 -0.3502  0.4815
 2142TIP3    H127985   3.074   6.460   8.323  0.4803 -0.9297 -0.5421
 2142TIP3    H227986   3.027   6.325   8.273 -0.2199 -1.3027  1.0806
 2143TIP3   OH227987   4.412   1.963   7.638  0.0374  0.6087 -0.0504
 2143TIP3    H127988   4.447   1.890   7.688 -0.4527  0.4603  0.0846
 2143TIP3    H227989   4.319   1.965   7.660  0.2206  1.9196  0.7798
 2144TIP3   OH227990   1.479   3.583   6.874  0.0861 -0.4241 -0.5090
 2144TIP3    H127991   1.501   3.503   6.922  0.0683  0.5711  1.2621
 2144TIP3    H227992   1.384   3.589   6.880  0.0866 -0.2770 -0.6531
 2145TIP3   OH227993   6.357   5.853   7.848 -0.2391 -0.5880  0.5787
 2145TIP3    H127994   6.409   5.880   7.773 -0.0452 -1.4491  0.3913
 2145TIP3    H227995   6.410   5.786   7.891 -0.2041  0.1044  1.6707
 2146TIP3   OH227996   1.321   0.971   7.784  0.7439  0.1589 -0.6333
 2146TIP3    H127997   1.274   0.888   7.780 -0.3119  0.7290 -0.4814
 2146TIP3    H227998   1.291   1.012   7.865  1.7698  0.3996 -0.3604
 2147TIP3   OH227999   5.105   3.832   7.060  0.2469 -0.3751  0.8811
 2147TIP3    H128000   5.141   3.744   7.054 -0.0120 -0.4974  1.1070
 2147TIP3    H228001   5.138   3.866   7.143 -0.6134 -0.6917  1.3512
 2148TIP3   OH228002   1.043   1.440   0.590  0.5928  0.1879  0.2802
 2148TIP3    H128003   1.044   1.409   0.681  0.1359 -3.7577 -0.8510
 2148TIP3    H228004   1.133   1.467   0.573  1.6333 -2.4766  0.9980
 2149TIP3   OH228005   4.562   1.965   0.017  0.0709  0.7066 -0.7559
 2149TIP3    H128006   4.545   1.957   0.111 -2.0675  1.1919 -1.0419
 2149TIP3    H228007   4.650   1.929   0.005  1.0011  1.9458  1.6262
 2150TIP3   OH228008   0.499   0.670   7.830  0.6153  0.2491 -0.1952
 2150TIP3    H128009   0.526   0.715   7.910 -1.9298 -0.2452  1.0389
 2150TIP3    H228010   0.407   0.692   7.820  0.0055 -2.3825 -1.1130
 2151TIP3   OH228011   2.958   4.298   7.676 -0.0068  0.0597 -0.3182
 2151TIP3    H128012   2.959   4.386   7.638  1.6145 -0.3364 -1.2958
 2151TIP3    H228013   3.017   4.247   7.620 -0.4148 -1.4930  0.6060
 2152TIP3   OH228014   4.414   2.131   0.479 -0.1688 -0.0792  0.3680
 2152TIP3    H128015   4.378   2.214   0.447  0.2194  1.1515  2.8877
 2152TIP3    H228016   4.503   2.153   0.507 -0.0443 -1.3654  1.0265
 2153TIP3   OH228017   0.656   2.796   7.331 -0.0917  0.2237  0.0505
 2153TIP3    H128018   0.608   2.877   7.351 -0.9370 -0.1447 -0.4264
 2153TIP3    H228019   0.614   2.730   7.386 -2.0872 -0.6921 -2.3714
 2154TIP3   OH228020   5.331   4.449   1.053  0.6263  0.4866 -0.1155
 2154TIP3    H128021   5.293   4.367   1.086  1.0122  0.6769  0.8362
 2154TIP3    H228022   5.298   4.456   0.963 -0.2351 -0.1920  0.1304
 2155TIP3   OH228023   6.065   3.729   8.137  0.1837 -0.9996 -0.2850
 2155TIP3    H128024   6.075   3.661   8.070  2.0683 -0.8075 -0.2320
 2155TIP3    H228025   6.059   3.811   8.088 -0.4655 -1.0318 -0.2752
 2156TIP3   OH228026   0.786   4.034   6.637  0.7218 -0.0757 -0.8076
 2156TIP3    H128027   0.713   4.038   6.699  1.0651  3.9719 -0.3493
 2156TIP3    H228028   0.745   4.030   6.551  0.1413 -1.9883 -0.4766
 2157TIP3   OH228029   3.523   0.385   7.221  0.0151 -0.8192 -0.1374
 2157TIP3    H128030   3.454   0.386   7.155  0.4401  1.4583 -0.6264
 2157TIP3    H228031   3.478   0.361   7.302 -1.7902  2.1153 -0.1127
 2158TIP3   OH228032   5.735   5.151   0.732  0.1692 -0.2346 -0.1785
 2158TIP3    H128033   5.675   5.135   0.805  1.7031  1.0512  1.4362
 2158TIP3    H228034   5.685   5.204   0.670 -1.0435 -1.0492  0.0710
 2159TIP3   OH228035   0.597   0.071   1.438  0.4060 -0.1251  0.1125
 2159TIP3    H128036   0.654   0.043   1.366  0.7165 -0.4791  0.4973
 2159TIP3    H228037   0.651   0.128   1.492 -1.0935  4.2426 -2.4819
 2160TIP3   OH228038   5.384   0.015   7.695 -0.3846 -0.2421 -0.3754
 2160TIP3    H128039   5.444  -0.043   7.740  0.2328 -0.1356 -1.0299
 2160TIP3    H228040   5.297  -0.024   7.707 -0.2658 -0.0943  1.0535
 2161TIP3   OH228041   3.780   2.554   7.113  0.1683  0.6560  0.1145
 2161TIP3    H128042   3.779   2.632   7.057 -1.1288  0.2029 -0.5108
 2161TIP3    H228043   3.782   2.589   7.202  2.9983  1.3936 -0.1391
 2162TIP3   OH228044   5.644   5.203   1.594 -0.7425  0.2898 -0.0566
 2162TIP3    H128045   5.723   5.149   1.584 -2.1832 -2.7457  2.8882
 2162TIP3    H228046   5.573   5.145   1.569 -2.2494  1.8747  0.4104
 2163TIP3   OH228047   6.613   5.445   0.537  0.1161  0.1428 -0.0191
 2163TIP3    H128048   6.634   5.354   0.560 -4.1092 -0.7421  1.2199
 2163TIP3    H228049   6.588   5.441   0.444  1.5397  0.4558 -0.4424
 2164TIP3   OH228050   1.028   6.275   7.687  0.3375 -0.0310  0.2720
 2164TIP3    H128051   0.935   6.253   7.676  0.2323  0.2506  0.5796
 2164TIP3    H228052   1.038   6.292   7.780  0.7342 -0.2049  0.2627
 2165TIP3   OH228053   4.306   6.384   7.953 -0.0182 -0.3039 -0.3570
 2165TIP3    H128054   4.264   6.379   7.867 -2.2857 -0.7379  0.6932
 2165TIP3    H228055   4.364   6.308   7.956 -0.4491 -0.6895 -1.2442
 2166TIP3   OH228056   3.681   0.518   7.520  0.1118  0.1694 -0.4035
 2166TIP3    H128057   3.649   0.428   7.533 -1.8140  0.5541 -2.0066
 2166TIP3    H228058   3.768   0.507   7.481  0.6630 -0.9583  1.0481
 2167TIP3   OH228059   5.179   0.865   8.537 -0.5783  0.1898 -0.3978
 2167TIP3    H128060   5.237   0.895   8.607 -0.3367 -0.2337 -0.4117
 2167TIP3    H228061   5.192   0.929   8.467 -1.5767  1.2067  0.2937
 2168TIP3   OH228062   1.643   6.340   1.385 -0.0553 -0.2029 -0.0044
 2168TIP3    H128063   1.707   6.386   1.330 -0.1154  0.3119  0.3423
 2168TIP3    H228064   1.695   6.274   1.432  0.4550  0.9473  1.1166
 2169TIP3   OH228065   1.475   3.599   8.403 -0.3053  0.2886  0.6636
 2169TIP3    H128066   1.540   3.546   8.450 -0.7241 -0.7489  0.1211
 2169TIP3    H228067   1.396   3.594   8.458 -0.1909  0.8121  0.8802
 2170TIP3   OH228068   2.937   5.415   7.924 -0.0379 -0.0868  1.0280
 2170TIP3    H128069   2.933   5.463   8.006 -0.8704 -1.0129  1.5597
 2170TIP3    H228070   2.989   5.337   7.944  0.8849  0.3183  0.3087
 2171TIP3   OH228071   1.814   1.894   2.418  0.9617 -0.3242 -0.4144
 2171TIP3    H128072   1.740   1.847   2.381  0.4691  0.1829 -0.0945
 2171TIP3    H228073   1.852   1.941   2.344  0.1877  0.4177 -0.3635
 2172TIP3   OH228074   6.782   0.712   0.711  0.1026  0.0660  0.4573
 2172TIP3    H128075   6.775   0.645   0.779 -0.0413 -1.3149 -0.8887
 2172TIP3    H228076   6.731   0.679   0.638  1.7797  0.6322 -1.0410
 2173TIP3   OH228077   6.636   5.450   2.545 -0.1803  0.0763  0.2589
 2173TIP3    H128078   6.622   5.377   2.485  1.3460 -0.7369  0.8313
 2173TIP3    H228079   6.695   5.509   2.498 -0.1363  0.1578  0.4166
 2174TIP3   OH228080   6.580   4.926   7.436 -0.1313  0.0878 -0.3227
 2174TIP3    H128081   6.575   4.959   7.346 -0.5744 -2.2740 -1.2504
 2174TIP3    H228082   6.489   4.922   7.465 -0.3446 -2.3044 -1.0934
 2175TIP3   OH228083   4.367   0.878   7.798  0.3759  0.0436 -0.0353
 2175TIP3    H128084   4.431   0.945   7.775  0.2672 -0.4558 -1.9025
 2175TIP3    H228085   4.331   0.907   7.882  1.5662  1.3900  0.0434
 2176TIP3   OH228086   6.786   3.694   7.621 -0.0366  0.2951 -0.6194
 2176TIP3    H128087   6.747   3.657   7.541 -2.4293  1.0961  0.0889
 2176TIP3    H228088   6.879   3.701   7.601 -0.3339 -0.9388 -2.7751
 2177TIP3   OH228089   5.095   0.224   1.623 -0.2473  0.1385  0.6409
 2177TIP3    H128090   5.018   0.243   1.569 -0.5855 -0.4389  0.9077
 2177TIP3    H228091   5.061   0.223   1.713 -0.2777 -1.7356  0.6441
 2178TIP3   OH228092   0.246   4.310   1.256  0.0966  0.6663 -0.0199
 2178TIP3    H128093   0.266   4.379   1.193 -0.5092  0.4329 -0.4717
 2178TIP3    H228094   0.161   4.334   1.293 -0.2487  0.0169 -0.3831
 2179TIP3   OH228095   5.671   4.531   8.555  0.0663 -0.8195 -0.3503
 2179TIP3    H128096   5.622   4.518   8.474  1.3058 -1.8520 -0.9778
 2179TIP3    H228097   5.689   4.625   8.557 -0.9802 -0.6037 -0.6571
 2180TIP3   OH228098   4.720   1.457   2.095 -0.5192  0.0210 -0.0190
 2180TIP3    H128099   4.794   1.417   2.048 -1.4490 -0.2660 -1.2923
 2180TIP3    H228100   4.723   1.549   2.070 -0.5532  0.0249 -0.0087
 2181TIP3   OH228101   4.445   0.845   6.691  0.1931  0.3049  0.0468
 2181TIP3    H128102   4.382   0.775   6.678 -0.0416  0.1983  1.5763
 2181TIP3    H228103   4.408   0.919   6.643 -0.3482 -0.1698 -0.2850
 2182TIP3   OH228104   6.800   4.737   0.628 -0.3638  0.2735  0.6873
 2182TIP3    H128105   6.737   4.678   0.669  0.0265 -0.3279  0.4225
 2182TIP3    H228106   6.823   4.695   0.545 -1.0569  1.4183 -0.1182
 2183TIP3   OH228107   2.929   5.226   0.161 -0.6473  0.3321  0.3464
 2183TIP3    H128108   2.839   5.259   0.153  0.2983  2.5992 -2.3194
 2183TIP3    H228109   2.929   5.144   0.111 -1.3775 -0.1303  1.0708
 2184TIP3   OH228110   1.619   0.601   1.877  0.4445  0.5137 -0.0233
 2184TIP3    H128111   1.547   0.655   1.910  1.5249  2.2513 -0.3954
 2184TIP3    H228112   1.614   0.521   1.929 -0.6187  1.3628  1.2501
 2185TIP3   OH228113   5.552   6.637   7.225 -0.2559  0.2497  0.1428
 2185TIP3    H128114   5.561   6.697   7.299 -0.6152 -2.2488  2.3973
 2185TIP3    H228115   5.474   6.668   7.179  1.5211  3.5107 -0.9832
 2186TIP3   OH228116   4.917   0.655   0.526  0.1202 -0.5618  0.1280
 2186TIP3    H128117   4.928   0.563   0.501 -2.9642 -1.1816  0.6686
 2186TIP3    H228118   4.852   0.689   0.465 -2.9971 -0.4261  3.2285
 2187TIP3   OH228119   1.686   4.103   6.385 -0.5554 -0.0091 -0.3316
 2187TIP3    H128120   1.592   4.121   6.379 -0.3268  1.2941 -0.0857
 2187TIP3    H228121   1.706   4.061   6.301 -1.0517  1.1706 -1.0722
 2188TIP3   OH228122   2.811   0.717   0.558 -0.0075 -0.3346 -0.0416
 2188TIP3    H128123   2.816   0.634   0.606 -2.0149  0.9663  2.7499
 2188TIP3    H228124   2.897   0.758   0.572  0.3756 -1.1616  0.0792
 2189TIP3   OH228125   2.489   5.154   8.669  0.4697 -0.1313 -0.2819
 2189TIP3    H128126   2.550   5.226   8.684  3.3929 -1.9587 -2.4068
 2189TIP3    H228127   2.527   5.080   8.716 -2.6528 -0.4080  2.1675
 2190TIP3   OH228128   5.553   3.143   0.054 -0.3182 -0.2473 -0.6558
 2190TIP3    H128129   5.589   3.120  -0.032  0.5468  1.0431 -0.6683
 2190TIP3    H228130   5.472   3.191   0.034 -0.4457 -0.4899 -0.7265
 2191TIP3   OH228131   2.929   4.660   7.342 -0.0221  0.1365 -0.1950
 2191TIP3    H128132   3.005   4.616   7.303  0.9249  0.8999  0.7251
 2191TIP3    H228133   2.921   4.620   7.429  0.1454  0.9605  0.2079
 2192TIP3   OH228134   3.090   0.627   8.574  0.0966  0.0059  0.5466
 2192TIP3    H128135   3.022   0.563   8.595 -0.1044 -0.2326 -0.7421
 2192TIP3    H228136   3.171   0.589   8.609 -0.2985 -0.0623  1.4198
 2193TIP3   OH228137   0.528   0.788   8.125  0.2632  0.0255  0.0851
 2193TIP3    H128138   0.468   0.721   8.158 -0.3695 -0.6386 -2.2494
 2193TIP3    H228139   0.498   0.869   8.166 -2.0684 -0.3449 -0.6978
 2194TIP3   OH228140   1.426   1.701   0.920 -0.0838  0.0834  0.0995
 2194TIP3    H128141   1.448   1.794   0.915 -2.3453  0.6739 -0.1313
 2194TIP3    H228142   1.414   1.684   1.014 -2.1449  0.7383  0.0090
 2195TIP3   OH228143   3.512   1.809   7.776 -0.1450 -0.1530 -0.6204
 2195TIP3    H128144   3.524   1.808   7.871 -2.5507  0.2577 -0.2460
 2195TIP3    H228145   3.580   1.751   7.742 -1.1704 -2.8998  1.6401
 2196TIP3   OH228146   5.876   0.294   7.825 -0.2089  0.0236  0.1202
 2196TIP3    H128147   5.950   0.329   7.875 -0.4880  0.6001  0.1471
 2196TIP3    H228148   5.858   0.361   7.759  0.0598 -0.6621 -0.6662
 2197TIP3   OH228149   6.439   6.725   1.639 -0.1193  0.5305 -1.1678
 2197TIP3    H128150   6.349   6.758   1.637  0.1940  1.4190 -0.9845
 2197TIP3    H228151   6.473   6.754   1.724  0.9325  1.8385 -2.0025
 2198TIP3   OH228152   2.821   0.570   1.323 -0.0889 -0.1081 -0.2452
 2198TIP3    H128153   2.787   0.650   1.363  1.1686  0.7504 -0.8249
 2198TIP3    H228154   2.811   0.584   1.229  3.0866  0.8274 -0.5435
 2199TIP3   OH228155   5.163   0.944   1.110 -0.1884  0.0163 -0.6454
 2199TIP3    H128156   5.147   0.951   1.204  0.4060  1.1517 -0.6174
 2199TIP3    H228157   5.252   0.908   1.103  0.2114  1.0031 -0.7562
 2200TIP3   OH228158   6.753   5.344   1.668  0.1182  0.0202  0.0293
 2200TIP3    H128159   6.766   5.362   1.761 -0.1261 -0.5028  0.1707
 2200TIP3    H228160   6.792   5.258   1.654 -1.7510 -0.9060  0.1421
 2201TIP3   OH228161   5.772   2.056   0.716 -0.2040  0.1647 -0.8159
 2201TIP3    H128162   5.692   2.007   0.702  0.0157 -0.8079  1.1020
 2201TIP3    H228163   5.758   2.138   0.668 -3.2893  1.0092  1.2028
 2202TIP3   OH228164   2.513   2.336   6.863  0.1630 -0.2239 -0.1799
 2202TIP3    H128165   2.499   2.427   6.838 -0.0417 -0.4685 -0.9908
 2202TIP3    H228166   2.427   2.306   6.893  0.1854 -0.2037 -0.0961
 2203TIP3   OH228167   1.306   6.057   1.774  0.4501 -0.0307  0.0315
 2203TIP3    H128168   1.356   5.977   1.791 -0.4661 -0.6000  0.1469
 2203TIP3    H228169   1.353   6.126   1.820 -0.3704 -1.0149  2.5054
 2204TIP3   OH228170   1.851   2.756   7.728  0.4263 -0.2378 -0.1298
 2204TIP3    H128171   1.919   2.736   7.664  1.0195  0.7200  0.1748
 2204TIP3    H228172   1.771   2.767   7.677  1.2146  2.2392 -0.9464
 2205TIP3   OH228173   1.257   1.999   6.782  0.1426 -0.0266  0.2000
 2205TIP3    H128174   1.184   2.007   6.722 -0.2584  0.3472  0.7284
 2205TIP3    H228175   1.333   1.985   6.726 -0.3352 -0.4360 -0.3489
 2206TIP3   OH228176   0.289   0.506   6.332 -0.4493 -0.1677  0.2036
 2206TIP3    H128177   0.212   0.511   6.275 -0.3515  0.5141  0.1252
 2206TIP3    H228178   0.358   0.552   6.285 -0.2809  0.1360  0.7336
 2207TIP3   OH228179   3.030   5.396   0.363 -0.4270 -0.3209 -0.5155
 2207TIP3    H128180   3.102   5.334   0.376 -0.6812 -0.8902 -1.7265
 2207TIP3    H228181   2.976   5.356   0.296 -1.9202  0.0823  0.4032
 2208TIP3   OH228182   2.647   2.344   8.459 -0.5982  0.1077 -0.0893
 2208TIP3    H128183   2.684   2.316   8.376 -1.6170 -2.1976  0.1608
 2208TIP3    H228184   2.579   2.408   8.435 -2.8725 -2.5827 -1.3809
 2209TIP3   OH228185   1.574   2.595   6.523 -0.0608  0.3399  0.1919
 2209TIP3    H128186   1.596   2.684   6.496 -0.8952  0.9455  1.3718
 2209TIP3    H228187   1.521   2.607   6.602 -0.5374 -1.1929  0.1408
 2210TIP3   OH228188   6.178   3.437   1.632  0.3443  0.3232 -0.4202
 2210TIP3    H128189   6.188   3.532   1.630 -0.9048  0.4639 -0.9972
 2210TIP3    H228190   6.152   3.413   1.543 -1.2851 -0.2966  0.1749
 2211TIP3   OH228191   3.103   2.831   8.508 -0.4505 -0.0280 -0.3474
 2211TIP3    H128192   3.159   2.763   8.472  0.8980  0.6594  0.3487
 2211TIP3    H228193   3.109   2.903   8.445  1.1426  0.8138  0.6949
 2212TIP3   OH228194   5.684   3.367   6.454 -0.0096  0.1845 -0.0420
 2212TIP3    H128195   5.654   3.338   6.540 -0.9856  1.4252  0.0704
 2212TIP3    H228196   5.604   3.378   6.403  0.2905  2.3031 -0.1603
 2213TIP3   OH228197   0.559   1.276   8.009 -0.3630  0.4808 -0.2733
 2213TIP3    H128198   0.512   1.343   7.959 -1.9362  0.6708  1.3580
 2213TIP3    H228199   0.634   1.321   8.047 -1.1326  1.2113  0.4012
 2214TIP3   OH228200   4.096   0.221   6.653 -0.1491 -0.2198  0.2958
 2214TIP3    H128201   4.097   0.312   6.624 -0.7699  0.2479  1.6513
 2214TIP3    H228202   4.006   0.193   6.642 -0.6376  0.2861  2.5932
 2215TIP3   OH228203   5.921   4.670   0.926  0.7859  0.1978 -0.1383
 2215TIP3    H128204   5.903   4.596   0.868 -0.0313 -0.8157  1.3291
 2215TIP3    H228205   6.010   4.698   0.903  0.3538  0.0952 -2.0962
 2216TIP3   OH228206   0.542   3.064   8.068  0.7795 -0.0221 -0.6055
 2216TIP3    H128207   0.560   3.157   8.083 -0.1315  0.0844 -0.1075
 2216TIP3    H228208   0.449   3.055   8.086  0.3983 -0.6263 -2.6713
 2217TIP3   OH228209   0.287   3.853   0.928  0.4376  0.3606 -0.0478
 2217TIP3    H128210   0.268   3.926   0.987  2.3269  1.0510 -0.2217
 2217TIP3    H228211   0.345   3.892   0.861  2.3051 -1.4903  0.3981
 2218TIP3   OH228212   6.617   3.861   7.066  0.0275  0.0409  0.1044
 2218TIP3    H128213   6.686   3.909   7.020  0.6376  0.4910  1.4538
 2218TIP3    H228214   6.598   3.787   7.008  0.3378  0.9019 -1.1520
 2219TIP3   OH228215   6.663   6.422   7.215  0.0003 -0.0240 -0.3230
 2219TIP3    H128216   6.713   6.368   7.153 -0.7171 -0.1732 -0.7859
 2219TIP3    H228217   6.598   6.467   7.160  0.7914  1.5822  0.0029
 2220TIP3   OH228218   1.233   1.548   0.776  0.2866 -0.0021  0.4103
 2220TIP3    H128219   1.154   1.600   0.766  0.2927 -0.0382  0.1671
 2220TIP3    H228220   1.297   1.608   0.815 -0.1335 -0.2316  1.4885
 2221TIP3   OH228221   3.291   4.023   8.405  0.3251  0.1066 -0.3384
 2221TIP3    H128222   3.308   4.072   8.486 -2.2989 -1.1789  1.0946
 2221TIP3    H228223   3.256   3.939   8.434  3.0725 -2.1083 -2.7583
 2222TIP3   OH228224   6.606   5.298   0.255 -0.0942  0.2485 -0.2098
 2222TIP3    H128225   6.521   5.290   0.299  0.5616 -0.3104  1.0147
 2222TIP3    H228226   6.660   5.230   0.295  0.9227  0.5786 -0.9834
 2223TIP3   OH228227   0.523   4.209   1.246  0.2337  0.4057 -0.4625
 2223TIP3    H128228   0.528   4.115   1.230  3.5196 -0.3096  3.1674
 2223TIP3    H228229   0.438   4.223   1.286  0.5084 -1.4800  0.8698
 2224TIP3   OH228230   0.698   2.557   0.363  0.2159 -0.2369  0.3492
 2224TIP3    H128231   0.794   2.549   0.366  0.3527  1.1518  0.3370
 2224TIP3    H228232   0.668   2.471   0.334  1.5649 -0.2469 -1.1668
 2225TIP3   OH228233   5.175   3.790   6.785  0.2120  0.2394 -1.0078
 2225TIP3    H128234   5.110   3.827   6.844  0.5588 -0.9143  0.1398
 2225TIP3    H228235   5.171   3.846   6.707 -0.2431  1.8212  0.0952
 2226TIP3   OH228236   1.948   0.103   1.659  0.7232  0.0577 -0.0931
 2226TIP3    H128237   1.989   0.103   1.573  2.3944 -0.7502  0.6464
 2226TIP3    H228238   1.993   0.034   1.707 -0.9102 -0.2305  1.1035
 2227TIP3   OH228239   2.636   2.594   1.997 -0.2070 -0.1443  0.1603
 2227TIP3    H128240   2.542   2.586   2.011 -0.3915 -1.1120 -1.4350
 2227TIP3    H228241   2.675   2.553   2.075 -1.0555  0.9345  1.2019
 2228TIP3   OH228242   6.808   0.586   0.368  0.6482  0.1483 -0.5506
 2228TIP3    H128243   6.770   0.519   0.425  2.5611  0.4566  1.1995
 2228TIP3    H228244   6.794   0.553   0.279 -2.2585 -0.4422  0.0491
 2229TIP3   OH228245   0.264   2.321   7.627 -0.2856 -0.2084  0.4164
 2229TIP3    H128246   0.289   2.259   7.559 -1.2188  0.1023 -0.2317
 2229TIP3    H228247   0.268   2.271   7.708  0.3600 -0.7206  0.0710
 2230TIP3   OH228248   3.131   5.494   1.824 -0.6789  0.1636 -0.1655
 2230TIP3    H128249   3.212   5.479   1.874 -0.7548 -2.1739 -0.6410
 2230TIP3    H228250   3.160   5.541   1.746  0.0250  0.4459  0.2473
 2231TIP3   OH228251   4.253   5.301   0.510  0.3351  0.4508 -0.0901
 2231TIP3    H128252   4.273   5.371   0.573  0.5371 -0.3736  0.7862
 2231TIP3    H228253   4.334   5.252   0.502  0.7255  1.3339 -2.0789
 2232TIP3   OH228254   3.402   1.713   1.073 -0.3527  0.2371  0.0359
 2232TIP3    H128255   3.483   1.696   1.025 -0.2391 -1.4264  0.7517
 2232TIP3    H228256   3.431   1.760   1.152 -0.1940  0.4638 -0.1562
 2233TIP3   OH228257   5.477   2.057   7.980  0.3027  0.0581  0.1515
 2233TIP3    H128258   5.402   2.036   8.037 -0.4689 -1.1633 -1.2349
 2233TIP3    H228259   5.527   1.975   7.976  0.3133  0.1062 -0.9477
 2234TIP3   OH228260   4.069   5.068   0.536 -0.4295 -0.3773  0.3282
 2234TIP3    H128261   4.126   4.992   0.525 -0.6160 -0.6829  1.3422
 2234TIP3    H228262   3.985   5.030   0.565 -1.1503  0.0568 -1.1053
 2235TIP3   OH228263   1.756   3.722   0.787  0.3379 -0.4016 -0.0513
 2235TIP3    H128264   1.817   3.734   0.859  0.4855  0.3656 -0.2975
 2235TIP3    H228265   1.802   3.754   0.710 -0.4582  0.4111 -0.2028
 2236TIP3   OH228266   4.268   0.418   0.846  0.0281  0.1921  0.5403
 2236TIP3    H128267   4.318   0.337   0.856 -0.7026 -0.2539  0.6392
 2236TIP3    H228268   4.326   0.486   0.880  1.2609 -0.0658 -0.9159
 2237TIP3   OH228269   5.298   0.285   1.224 -0.5640  0.8357  0.6214
 2237TIP3    H128270   5.292   0.202   1.271 -3.5942 -0.1140 -1.1303
 2237TIP3    H228271   5.236   0.343   1.269 -3.1197  0.0695 -1.6296
 2238TIP3   OH228272   3.777   5.424   1.844  0.2445  0.5500 -0.1714
 2238TIP3    H128273   3.870   5.403   1.836  0.5386  1.5423  0.4233
 2238TIP3    H228274   3.739   5.398   1.760  0.4712 -2.5673  0.6027
 2239TIP3   OH228275   0.965   3.461   2.018  0.3199 -0.0904  0.2004
 2239TIP3    H128276   0.948   3.490   2.108  0.2164  0.8349 -0.1162
 2239TIP3    H228277   0.934   3.370   2.016  0.8136 -0.2989  1.2462
 2240TIP3   OH228278   0.771   1.517   2.339  0.6508  0.3554  0.2961
 2240TIP3    H128279   0.729   1.467   2.410  0.3369  0.5292  0.2352
 2240TIP3    H228280   0.699   1.539   2.280  1.1089 -0.9493 -0.7896
 2241TIP3   OH228281   3.122   4.716   6.688 -0.3699 -0.3992  0.0173
 2241TIP3    H128282   3.086   4.802   6.711 -0.2512 -0.5832  0.9359
 2241TIP3    H228283   3.048   4.656   6.696 -0.3291 -0.4672 -0.1103
 2242TIP3   OH228284   1.883   3.467   0.182  0.1341  0.3083  0.4877
 2242TIP3    H128285   1.859   3.386   0.228 -1.4488  0.3086 -0.2597
 2242TIP3    H228286   1.976   3.459   0.166 -0.3667 -2.5666 -1.7366
 2243TIP3   OH228287   5.130   3.118   7.755  0.4767  0.4114  0.0625
 2243TIP3    H128288   5.050   3.124   7.702  0.6330  0.1742 -0.2071
 2243TIP3    H228289   5.193   3.175   7.710  1.4909 -1.8914 -1.6486
 2244TIP3   OH228290   1.790   3.024   1.662  0.1724  0.1110 -0.0799
 2244TIP3    H128291   1.709   3.055   1.702  1.3663  2.0398  1.0065
 2244TIP3    H228292   1.799   3.078   1.583  1.3306  1.3549  0.8456
 2245TIP3   OH228293   6.491   2.072   2.157 -0.0079  0.3893  0.3328
 2245TIP3    H128294   6.574   2.105   2.191  0.4669 -0.9190  0.5257
 2245TIP3    H228295   6.464   2.006   2.221  0.0322 -0.8840 -0.8965
 2246TIP3   OH228296   4.773   0.071   7.881 -0.2386 -0.8323  0.7847
 2246TIP3    H128297   4.728   0.097   7.800 -1.2456 -2.0398  0.9270
 2246TIP3    H228298   4.702   0.046   7.941  0.4230  0.9650  2.4163
 2247TIP3   OH228299   3.070   4.308   8.253 -0.0117  0.1645  0.4361
 2247TIP3    H128300   3.100   4.220   8.231  2.5879  1.4095 -1.6347
 2247TIP3    H228301   2.991   4.321   8.202  0.1841 -0.6068 -0.0738
 2248TIP3   OH228302   3.681   2.931   8.193  0.2675  0.1021  0.5796
 2248TIP3    H128303   3.709   3.021   8.212  1.6954 -0.1697 -0.1279
 2248TIP3    H228304   3.688   2.885   8.277 -1.0378  0.7596  1.0828
 2249TIP3   OH228305   3.643   4.776   1.046 -0.3503  0.4541 -0.2778
 2249TIP3    H128306   3.581   4.812   0.983 -0.5980 -1.0843 -0.9486
 2249TIP3    H228307   3.716   4.745   0.993 -0.2395 -0.2021  0.2424
 2250TIP3   OH228308   0.634   2.086   1.238 -0.1403  0.0058  0.2911
 2250TIP3    H128309   0.718   2.127   1.218  0.4766 -0.9343  0.8933
 2250TIP3    H228310   0.583   2.096   1.158  0.2112  1.3787  0.2167
 2251TIP3   OH228311   4.254   0.918   8.602  0.0978 -0.4671 -0.6987
 2251TIP3    H128312   4.335   0.872   8.626  0.6928 -0.0584 -1.7984
 2251TIP3    H228313   4.216   0.863   8.533  1.4603  1.1814 -2.9350
 2252TIP3   OH228314   1.258   2.506   7.565  0.3740  0.2227  0.4504
 2252TIP3    H128315   1.226   2.583   7.517 -0.1555 -0.3696 -0.1807
 2252TIP3    H228316   1.257   2.532   7.657  1.6148  1.4672  0.1424
 2253TIP3   OH228317   1.783   1.132   6.332 -0.1515  0.2241 -0.4073
 2253TIP3    H128318   1.697   1.098   6.304 -0.4167  0.2568  0.3493
 2253TIP3    H228319   1.797   1.094   6.419  0.6976  0.0599 -0.6062
 2254TIP3   OH228320   3.059   1.741   6.795 -0.0878 -0.7857  0.5921
 2254TIP3    H128321   2.993   1.809   6.804 -1.2297 -1.8771  0.8364
 2254TIP3    H228322   3.083   1.742   6.702 -0.1888 -0.1541  0.5686
 2255TIP3   OH228323   1.080   4.702   0.031  0.4417  0.3090 -0.1479
 2255TIP3    H128324   1.056   4.740  -0.054  1.6810 -1.3286 -1.2890
 2255TIP3    H228325   1.007   4.643   0.051  0.0189  0.8987  0.0637
 2256TIP3   OH228326   5.290   4.809   0.871  0.4119 -0.3757 -0.1999
 2256TIP3    H128327   5.279   4.755   0.792 -0.2972 -0.5094 -0.0199
 2256TIP3    H228328   5.209   4.794   0.921  1.2468 -1.0059  0.9914
 2257TIP3   OH228329   0.920   0.963   1.121  0.2008 -0.5338  0.0122
 2257TIP3    H128330   0.979   0.995   1.189  0.9035  0.5197 -1.0794
 2257TIP3    H228331   0.967   0.975   1.039 -0.3026 -2.5340 -0.6344
 2258TIP3   OH228332   1.572   4.512   6.239 -0.0410 -0.0803  0.4051
 2258TIP3    H128333   1.621   4.589   6.211  0.2025 -0.3229  0.1539
 2258TIP3    H228334   1.621   4.478   6.314  1.0358 -1.1778 -0.7521
 2259TIP3   OH228335   1.568   6.819   0.517  0.1348 -0.4615 -0.0353
 2259TIP3    H128336   1.536   6.905   0.545  1.7651  0.1368  0.0611
 2259TIP3    H228337   1.521   6.757   0.572 -3.0441  0.1126 -1.8176
 2260TIP3   OH228338   0.720   6.622   0.486 -0.2308 -0.7436 -0.0854
 2260TIP3    H128339   0.803   6.581   0.463 -1.5295 -2.1218 -2.9348
 2260TIP3    H228340   0.731   6.714   0.463  0.8296 -0.7061  0.5559
 2261TIP3   OH228341   2.102   3.270   7.584  0.3753  0.8469 -0.6165
 2261TIP3    H128342   2.040   3.277   7.657 -0.2126 -1.1893 -0.8785
 2261TIP3    H228343   2.128   3.361   7.567 -0.8652  1.5456  0.9179
 2262TIP3   OH228344   5.850   1.794   7.167 -0.1321  0.3544 -0.5188
 2262TIP3    H128345   5.790   1.729   7.200 -0.3581  0.5894 -0.4637
 2262TIP3    H228346   5.831   1.799   7.073 -0.0163  0.2387 -0.5491
 2263TIP3   OH228347   5.568   0.741   8.638  0.3286 -0.2786 -0.2035
 2263TIP3    H128348   5.495   0.715   8.582  1.0779 -1.8776 -0.4928
 2263TIP3    H228349   5.552   0.834   8.656 -2.2195 -0.7380  0.4284
 2264TIP3   OH228350   0.053   2.119   2.051  0.5621  0.4943  0.4807
 2264TIP3    H128351  -0.025   2.072   2.078  1.1824  0.0965  1.6354
 2264TIP3    H228352   0.035   2.211   2.073  0.2004  0.4878  0.2103
 2265TIP3   OH228353   2.165   1.413   7.690 -0.2719 -0.3932  0.1420
 2265TIP3    H128354   2.088   1.364   7.661 -0.1726 -0.0337 -0.7698
 2265TIP3    H228355   2.149   1.430   7.782 -1.2885 -0.3286 -0.0350
 2266TIP3   OH228356   4.423   3.901   0.760 -0.3203 -0.0610  0.4590
 2266TIP3    H128357   4.427   3.852   0.679  1.0309 -2.3976  1.8510
 2266TIP3    H228358   4.329   3.918   0.773 -0.6208 -0.4084 -1.0947
 2267TIP3   OH228359   2.800   2.266   7.424  0.9881 -0.2632  0.1945
 2267TIP3    H128360   2.814   2.253   7.330  2.0500  0.8826  0.1692
 2267TIP3    H228361   2.709   2.293   7.431  0.8824 -0.4145 -0.4993
 2268TIP3   OH228362   0.249   3.035   0.922  0.3498  0.0598  0.2875
 2268TIP3    H128363   0.304   3.002   0.993  1.0403  1.8239  0.6343
 2268TIP3    H228364   0.310   3.076   0.861 -0.4451  0.7907 -0.0476
 2269TIP3   OH228365   5.716   3.997   6.989  0.0083  0.2808  0.2537
 2269TIP3    H128366   5.723   3.905   7.014  3.0522  0.8945  2.2072
 2269TIP3    H228367   5.793   4.013   6.934 -0.4534  1.6900 -0.0460
 2270TIP3   OH228368   4.253   0.293   0.135  0.2029  0.5047 -0.6029
 2270TIP3    H128369   4.159   0.308   0.130  0.3014  1.1071 -0.8367
 2270TIP3    H228370   4.284   0.354   0.202  0.5056  0.7768 -0.9767
 2271TIP3   OH228371   5.694   2.139   6.877 -0.1542 -0.0096 -0.3565
 2271TIP3    H128372   5.660   2.054   6.903  1.2992  0.2191  2.6562
 2271TIP3    H228373   5.760   2.119   6.811  0.2855 -1.2715  0.4342
 2272TIP3   OH228374   5.920   2.925   1.009  0.5321 -0.0876  0.0508
 2272TIP3    H128375   5.900   2.891   1.097  0.9671 -1.1239 -0.2381
 2272TIP3    H228376   5.867   2.871   0.950  2.6274 -1.6074 -0.5704
 2273TIP3   OH228377   5.198   5.514   8.349  0.1416  0.1017 -0.2097
 2273TIP3    H128378   5.276   5.565   8.328  0.3556  0.2673  0.9255
 2273TIP3    H228379   5.216   5.426   8.316  0.0909  0.5446 -1.4793
 2274TIP3   OH228380   3.522   3.828   6.859  0.8416  0.2020  0.3705
 2274TIP3    H128381   3.505   3.759   6.795 -0.8384  1.6456 -0.8438
 2274TIP3    H228382   3.576   3.891   6.811 -0.3652  1.2588  0.3682
 2275TIP3   OH228383   4.958   6.844   6.731  0.1026  0.3959  0.1731
 2275TIP3    H128384   4.972   6.937   6.712  2.0144  0.4536  1.5408
 2275TIP3    H228385   5.032   6.799   6.692  0.1555 -0.3285  1.0541
 2276TIP3   OH228386   5.101   2.816   0.949 -0.5565  0.0901  0.1307
 2276TIP3    H128387   5.083   2.757   1.023 -0.0099  1.6979  1.6235
 2276TIP3    H228388   5.016   2.829   0.908 -2.0187  3.0060  3.5241
 2277TIP3   OH228389   5.049   6.150   2.257  0.3514  0.1868  0.0523
 2277TIP3    H128390   5.142   6.172   2.257  0.1893  0.8728 -0.5087
 2277TIP3    H228391   5.043   6.071   2.202  0.6677 -0.1903  0.5438
 2278TIP3   OH228392   0.663   0.193   8.096 -0.4484 -0.0287 -0.0557
 2278TIP3    H128393   0.632   0.250   8.026  1.7988  0.5225 -0.6921
 2278TIP3    H228394   0.647   0.243   8.177  0.0847  0.8517 -0.4825
 2279TIP3   OH228395   2.809   0.649   6.286 -0.5619  0.1133 -0.2100
 2279TIP3    H128396   2.757   0.569   6.292 -2.6030  1.3801 -0.0341
 2279TIP3    H228397   2.780   0.689   6.203 -0.8040  1.4488  0.4963
 2280TIP3   OH228398   2.437   2.047   8.004 -0.4006  0.2239 -0.2510
 2280TIP3    H128399   2.341   2.043   7.995 -0.2844 -2.3326 -1.3961
 2280TIP3    H228400   2.465   1.955   7.997  2.2483  1.0217 -1.2950
 2281TIP3   OH228401   0.600   2.540   0.884 -0.0258  0.4709 -0.5906
 2281TIP3    H128402   0.619   2.564   0.793  0.1483  1.4460 -0.3103
 2281TIP3    H228403   0.604   2.623   0.932  1.0391 -0.1750  0.5051
 2282TIP3   OH228404   1.787   4.871   0.949  0.4259 -0.7447  0.2495
 2282TIP3    H128405   1.753   4.806   0.887  0.5284  0.2164 -0.8608
 2282TIP3    H228406   1.713   4.929   0.967  1.1229  0.7705 -1.4076
 2283TIP3   OH228407   0.065   5.708   0.199 -0.1940  0.1839  0.4247
 2283TIP3    H128408   0.048   5.660   0.280 -0.1635 -0.3741  0.1036
 2283TIP3    H228409   0.160   5.713   0.193 -0.1934  0.0171  0.3007
 2284TIP3   OH228410   6.240   0.513   0.118  0.2929  0.8745  0.0429
 2284TIP3    H128411   6.308   0.570   0.153  1.0280  0.2963 -0.4170
 2284TIP3    H228412   6.271   0.490   0.030 -0.5073  0.6242 -0.1803
 2285TIP3   OH228413   2.349   6.090   1.932 -0.1943  0.5961  0.6720
 2285TIP3    H128414   2.340   6.163   1.994 -1.4213  0.0909  1.1182
 2285TIP3    H228415   2.260   6.057   1.922  0.5268 -1.8501  1.7116
 2286TIP3   OH228416   0.049   5.699   7.033 -0.4752 -0.1779  0.1689
 2286TIP3    H128417  -0.011   5.625   7.041  0.4896 -0.9076  0.9051
 2286TIP3    H228418   0.076   5.698   6.941 -1.1320 -0.1954 -0.0298
 2287TIP3   OH228419   2.433   0.346   2.137  0.0863 -0.5880  0.3043
 2287TIP3    H128420   2.509   0.397   2.167 -0.1349 -0.3232  0.4186
 2287TIP3    H228421   2.415   0.287   2.209 -0.5549  0.1701  0.7779
 2288TIP3   OH228422   3.992   5.400   7.174  0.0622 -0.3517 -0.0655
 2288TIP3    H128423   4.076   5.425   7.214 -0.7144  0.2687  1.2359
 2288TIP3    H228424   3.970   5.317   7.215 -0.1252 -0.3460 -0.1553
 2289TIP3   OH228425   2.477   1.647   6.637  0.4022  0.2344 -0.2103
 2289TIP3    H128426   2.413   1.578   6.618 -1.5559  1.6672  0.9115
 2289TIP3    H228427   2.468   1.709   6.564 -0.3678  1.0168  0.5254
 2290TIP3   OH228428   0.680   5.617   0.903  0.1518 -0.2562 -0.3424
 2290TIP3    H128429   0.698   5.539   0.850  3.0672  0.3127 -0.3362
 2290TIP3    H228430   0.766   5.654   0.921 -1.0574  2.1192  0.9852
 2291TIP3   OH228431   3.433   0.102   1.491  0.4312 -0.5641  0.0506
 2291TIP3    H128432   3.399   0.096   1.580  0.4290  1.9894  0.3183
 2291TIP3    H228433   3.373   0.163   1.447  1.4139 -0.4269 -1.1605
 2292TIP3   OH228434   5.944   3.406   0.305 -0.0389 -0.1362 -0.6906
 2292TIP3    H128435   5.874   3.352   0.271  0.3227 -0.1525 -1.4135
 2292TIP3    H228436   5.988   3.442   0.228  3.0659 -2.9900 -0.4872
 2293TIP3   OH228437   4.082   5.147   7.908  0.3901  0.0739 -0.7611
 2293TIP3    H128438   4.039   5.225   7.874 -0.7584 -1.5082 -3.1846
 2293TIP3    H228439   4.030   5.121   7.984  0.3886  1.2534 -0.3476
 2294TIP3   OH228440   1.558   5.828   7.642  0.2045  0.1395 -0.0679
 2294TIP3    H128441   1.610   5.875   7.578  0.6031 -0.6888 -0.3608
 2294TIP3    H228442   1.609   5.831   7.722 -0.8488  2.2581  0.6081
 2295TIP3   OH228443   2.310   3.440   6.003  0.6415 -0.3748  0.0204
 2295TIP3    H128444   2.250   3.487   5.946 -0.1516 -2.1702 -0.7171
 2295TIP3    H228445   2.347   3.371   5.948  1.4776 -0.8517  1.1254
 2296TIP3   OH228446   5.712   4.363   1.116  0.2062  0.1891  0.2315
 2296TIP3    H128447   5.661   4.299   1.065  0.0152  0.0900  0.5476
 2296TIP3    H228448   5.696   4.447   1.072 -0.1375  0.1402  0.2575
 2297TIP3   OH228449   5.495   1.252   0.440  0.1569  0.2296  0.0539
 2297TIP3    H128450   5.439   1.197   0.495 -0.5715 -0.3326 -1.1995
 2297TIP3    H228451   5.441   1.328   0.418  0.0495 -0.0580 -0.7236
 2298TIP3   OH228452   0.735   0.761   1.575  0.4632  0.4996 -0.1223
 2298TIP3    H128453   0.779   0.751   1.490  0.5535 -0.8026  0.0455
 2298TIP3    H228454   0.806   0.755   1.639  0.3742  1.3067  0.0598
 2299TIP3   OH228455   4.629   4.221   1.184 -0.2522 -0.1885 -0.3814
 2299TIP3    H128456   4.675   4.304   1.172 -2.3447  1.1182  0.0961
 2299TIP3    H228457   4.581   4.208   1.102  0.8230 -1.4974 -0.8475
 2300TIP3   OH228458   0.838   2.606   1.164 -0.0726 -0.2075 -0.4527
 2300TIP3    H128459   0.930   2.622   1.185 -0.0352 -1.2530  0.2745
 2300TIP3    H228460   0.807   2.687   1.123  0.9886  0.3864 -0.0889
 2301TIP3   OH228461   5.970   1.971   0.028 -0.2578  0.2672  0.2653
 2301TIP3    H128462   5.910   2.007  -0.037  0.5718  1.1053 -0.0775
 2301TIP3    H228463   6.056   1.976  -0.014 -0.0028 -1.4966  0.4951
 2302TIP3   OH228464   3.752   3.436   0.829  0.4517 -0.3511 -0.1676
 2302TIP3    H128465   3.785   3.350   0.804  2.0443  0.3009 -0.4548
 2302TIP3    H228466   3.810   3.464   0.900  0.5664  0.8896 -0.7330
 2303TIP3   OH228467   1.761   0.932   1.508  0.3323 -0.4205  0.2761
 2303TIP3    H128468   1.679   0.890   1.534 -0.0097  1.1552  1.9785
 2303TIP3    H228469   1.818   0.924   1.586  0.9652  0.4545 -0.0745
 2304TIP3   OH228470   4.018   2.182   7.910 -0.4828  0.2013 -0.1805
 2304TIP3    H128471   4.047   2.148   7.995 -0.7506  1.2087  0.3188
 2304TIP3    H228472   3.923   2.177   7.913 -0.4791 -0.3651 -0.6883
 2305TIP3   OH228473   3.547   1.170   1.388  0.0345 -0.7785 -0.2729
 2305TIP3    H128474   3.477   1.125   1.341  0.4248 -1.2898 -0.3669
 2305TIP3    H228475   3.626   1.153   1.337  0.7382 -2.5775  1.3078
 2306TIP3   OH228476   2.044   2.296   8.494 -0.4837  0.4098 -0.0224
 2306TIP3    H128477   1.956   2.321   8.523 -0.4438  1.1309 -0.5118
 2306TIP3    H228478   2.087   2.379   8.472  0.3879  0.0839  0.3862
 2307TIP3   OH228479   3.625   3.683   6.449 -0.4935  0.1187  0.0255
 2307TIP3    H128480   3.679   3.660   6.374 -0.9810 -1.3525  0.0943
 2307TIP3    H228481   3.653   3.771   6.473  0.3302  0.2359 -1.2866
 2308TIP3   OH228482   4.588   4.987   6.915  0.6510  0.1921  0.2506
 2308TIP3    H128483   4.658   4.952   6.859 -0.5313 -0.8550 -0.6448
 2308TIP3    H228484   4.533   5.038   6.855 -0.9513 -1.3971  0.2674
 2309TIP3   OH228485   0.742   2.155   8.420 -0.1823  0.5166 -0.6785
 2309TIP3    H128486   0.813   2.214   8.446  0.2969  0.7325 -2.3624
 2309TIP3    H228487   0.757   2.075   8.470  2.3621 -0.1189 -2.2958
 2310TIP3   OH228488   0.941   1.188   1.263  0.3421 -0.2270 -0.6642
 2310TIP3    H128489   0.985   1.204   1.346  1.5479  1.2960 -1.5468
 2310TIP3    H228490   1.005   1.213   1.196 -0.9294 -0.4968 -2.0486
 2311TIP3   OH228491   0.469   5.523   7.887  0.5528 -0.2324 -0.2172
 2311TIP3    H128492   0.440   5.605   7.848  0.9020 -0.8037 -1.7625
 2311TIP3    H228493   0.482   5.543   7.979 -1.0685  0.9830 -0.2243
 2312TIP3   OH228494   3.606   3.047   7.668 -0.2229 -0.3439 -0.1890
 2312TIP3    H128495   3.535   2.989   7.694  0.7690 -0.3296  2.9940
 2312TIP3    H228496   3.562   3.124   7.631 -1.7211 -1.3903 -0.6483
 2313TIP3   OH228497   3.961   1.678   6.702  0.0930  0.1834 -0.0464
 2313TIP3    H128498   3.962   1.756   6.758  0.2035  0.6582 -0.6943
 2313TIP3    H228499   4.046   1.637   6.718 -0.9991 -1.3582  2.3818
 2314TIP3   OH228500   4.574   0.484   2.219  0.3552 -0.1008  0.4551
 2314TIP3    H128501   4.502   0.503   2.279  0.8799 -0.6665  1.2734
 2314TIP3    H228502   4.532   0.439   2.146 -0.1626 -0.2006  0.8082
 2315TIP3   OH228503   0.945   5.981   7.375 -0.0434  0.5446 -0.2281
 2315TIP3    H128504   0.907   5.902   7.337 -0.6709  0.5540  0.3649
 2315TIP3    H228505   0.953   5.961   7.468 -1.5259  1.6781  0.1738
 2316TIP3   OH228506   0.651   5.362   6.329  0.1630  0.3677 -0.5559
 2316TIP3    H128507   0.727   5.311   6.357 -0.8935 -1.1160 -0.3016
 2316TIP3    H228508   0.611   5.393   6.410 -0.2347  0.0396 -0.6221
 2317TIP3   OH228509   0.877   4.502   7.595 -0.3167 -0.1916  0.3278
 2317TIP3    H128510   0.889   4.412   7.566  0.4129  0.3443 -1.1204
 2317TIP3    H228511   0.965   4.532   7.618 -0.3017  0.6438 -0.7501
 2318TIP3   OH228512   6.371   5.465   8.234  0.0410  0.2029  0.1959
 2318TIP3    H128513   6.367   5.371   8.251 -0.2599  0.3054  0.6931
 2318TIP3    H228514   6.323   5.505   8.306 -0.7530  0.6800 -0.5758
 2319TIP3   OH228515   0.852   4.257   8.155 -0.6200 -0.0593 -0.3035
 2319TIP3    H128516   0.769   4.245   8.201 -1.4996 -0.8054 -1.9630
 2319TIP3    H228517   0.884   4.168   8.139  0.8225  0.2244  0.8141
 2320TIP3   OH228518   2.254   0.757   0.285 -0.4514 -0.5761  0.1954
 2320TIP3    H128519   2.314   0.831   0.273  0.4280 -1.3137 -0.0650
 2320TIP3    H228520   2.273   0.699   0.212  1.1208 -2.5646  2.0563
 2321TIP3   OH228521   4.590   6.519   1.227  0.1280 -0.0044 -0.1009
 2321TIP3    H128522   4.574   6.477   1.312  0.9763 -0.6313 -0.2401
 2321TIP3    H228523   4.548   6.604   1.235  1.5198  0.5998  1.5468
 2322TIP3   OH228524   0.738   5.147   0.124  0.2347 -0.4538 -0.5631
 2322TIP3    H128525   0.699   5.186   0.046  1.3975  1.2396 -0.3445
 2322TIP3    H228526   0.688   5.066   0.138 -1.7485  0.5502 -1.4959
 2323TIP3   OH228527   5.245   1.470   7.857 -0.7454  0.1667  1.0107
 2323TIP3    H128528   5.256   1.375   7.853 -0.6441  0.1335  1.8755
 2323TIP3    H228529   5.156   1.483   7.888 -1.3073  0.3820 -0.6254
 2324TIP3   OH228530   2.870   0.795   1.591 -0.0811  0.2583  0.1179
 2324TIP3    H128531   2.916   0.713   1.573  1.0671  1.0467 -0.6549
 2324TIP3    H228532   2.935   0.849   1.637 -0.6573  0.9217  0.1656
 2325TIP3   OH228533   3.963   0.490   1.327  0.3999 -0.0352  0.7870
 2325TIP3    H128534   3.958   0.394   1.332  1.7751 -0.1696  0.1816
 2325TIP3    H228535   4.012   0.506   1.246  1.6423  1.1253  1.7394
 2326TIP3   OH228536   2.237   6.210   6.977 -0.0368 -0.0452  0.0117
 2326TIP3    H128537   2.318   6.252   6.949  1.0368 -1.4049  0.8987
 2326TIP3    H228538   2.169   6.276   6.964  1.1915  1.0998 -0.8403
 2327TIP3   OH228539   2.290   1.489   0.968 -0.2299  0.3220 -0.1620
 2327TIP3    H128540   2.351   1.418   0.949 -0.7989  0.1777 -1.5291
 2327TIP3    H228541   2.337   1.569   0.946 -0.1292  0.2804 -0.0968
 2328TIP3   OH228542   0.001   5.482   3.007  0.1057  0.3071 -0.2019
 2328TIP3    H128543   0.073   5.465   3.067  0.1702 -1.6754 -0.7452
 2328TIP3    H228544   0.040   5.533   2.936 -0.2185  3.6953  1.8444
 2329TIP3   OH228545   2.086   6.668   7.519  0.2210 -0.0726 -0.3349
 2329TIP3    H128546   2.010   6.611   7.509 -0.8366  1.3410 -0.6982
 2329TIP3    H228547   2.077   6.704   7.607  0.5982 -0.0666 -0.2987
 2330TIP3   OH228548   6.638   2.452   1.045 -0.3388  0.2138  0.5759
 2330TIP3    H128549   6.572   2.519   1.027 -1.5025 -0.4262  2.2336
 2330TIP3    H228550   6.678   2.435   0.960 -2.0632  0.8797 -0.4254
 2331TIP3   OH228551   4.184   1.802   0.058 -0.4699  0.7815 -0.2526
 2331TIP3    H128552   4.209   1.894   0.053 -0.0059  0.7292  0.8783
 2331TIP3    H228553   4.240   1.759  -0.007  0.5619  1.0564  0.4240
 2332TIP3   OH228554   5.482   1.025   1.646  0.2714  0.2668 -0.7886
 2332TIP3    H128555   5.503   1.024   1.739  3.4275  0.7549 -1.4040
 2332TIP3    H228556   5.412   1.090   1.638 -1.5229 -1.2491  1.4324
 2333TIP3   OH228557   3.199   2.095   2.401  0.1101  0.5421 -0.4764
 2333TIP3    H128558   3.127   2.157   2.412 -0.1710  0.0677  0.4642
 2333TIP3    H228559   3.259   2.139   2.340 -0.6108  1.2585 -0.6874
 2334TIP3   OH228560   5.469   0.879   2.224 -0.1508  0.4845  0.5216
 2334TIP3    H128561   5.539   0.855   2.163  0.1105  0.2199  0.9160
 2334TIP3    H228562   5.500   0.959   2.266  0.0156  0.2575  0.8423
 2335TIP3   OH228563   3.188   5.648   1.606  0.0782 -0.8260 -0.0302
 2335TIP3    H128564   3.268   5.692   1.636 -0.5145  0.8398 -0.7530
 2335TIP3    H228565   3.207   5.625   1.515  0.4079 -2.1834  0.3646
 2336TIP3   OH228566   5.444   4.213   0.410  0.7594  0.3530  0.7200
 2336TIP3    H128567   5.448   4.241   0.319 -0.3796 -1.1905  0.1503
 2336TIP3    H228568   5.353   4.230   0.436  0.9604  0.3730  1.4331
 2337TIP3   OH228569   3.154   2.454   1.348 -0.1989  0.0080  0.1309
 2337TIP3    H128570   3.236   2.504   1.350 -0.4205  0.4104 -0.7087
 2337TIP3    H228571   3.088   2.516   1.378  0.0889 -0.9574  3.1125
 2338TIP3   OH228572   2.945   6.047   7.050 -0.1371 -0.0277 -0.2083
 2338TIP3    H128573   2.903   6.077   7.130  0.1885  1.4939 -0.5905
 2338TIP3    H228574   3.038   6.036   7.073 -0.0694  0.2664 -0.3433
 2339TIP3   OH228575   5.921   6.155   8.469 -0.3769  0.0151  0.1220
 2339TIP3    H128576   5.994   6.201   8.511  2.6429 -1.2980 -3.1900
 2339TIP3    H228577   5.890   6.215   8.402 -0.7693 -0.3466 -0.0257
 2340TIP3   OH228578   0.030   6.459   2.130  0.0733  0.3679  0.4661
 2340TIP3    H128579   0.107   6.515   2.115 -0.0801  0.1642 -1.4068
 2340TIP3    H228580   0.058   6.397   2.196  1.7328 -0.0133 -0.5267
 2341TIP3   OH228581   5.757   2.524   8.077 -0.5305  0.5290  0.4430
 2341TIP3    H128582   5.680   2.563   8.119 -1.2979  0.7131 -1.0782
 2341TIP3    H228583   5.750   2.549   7.985 -0.3926 -2.0892 -0.3786
 2342TIP3   OH228584   5.524   3.042   8.129  0.4519  0.1554 -0.2724
 2342TIP3    H128585   5.521   3.094   8.049 -0.8886 -0.8775 -0.9405
 2342TIP3    H228586   5.610   3.062   8.168  0.9789  0.9502 -1.7664
 2343TIP3   OH228587   0.875   2.927   7.536  0.2487 -0.0099  0.2412
 2343TIP3    H128588   0.875   2.906   7.442 -1.0932 -0.9260  0.4202
 2343TIP3    H228589   0.785   2.953   7.555  0.5728  0.4132  1.2331
 2344TIP3   OH228590   1.099   6.319   0.423  0.6653  0.3667 -0.3411
 2344TIP3    H128591   1.017   6.286   0.387 -0.3786  1.3950  1.0043
 2344TIP3    H228592   1.160   6.316   0.349 -0.8308  0.4989 -1.6322
 2345TIP3   OH228593   3.311   5.292   7.970  0.2947 -0.1705 -0.1027
 2345TIP3    H128594   3.300   5.364   7.909  0.6740 -0.7670 -0.8948
 2345TIP3    H228595   3.380   5.320   8.029  0.9818 -0.1923 -0.8885
 2346TIP3   OH228596   0.607   2.454   7.957  0.6027 -0.6846  0.1512
 2346TIP3    H128597   0.524   2.474   8.002  1.0095  0.7112  0.3237
 2346TIP3    H228598   0.609   2.359   7.952 -0.4929 -0.7806  1.1350
 2347TIP3   OH228599   3.073   6.721   0.971 -0.0753 -0.0837 -0.2663
 2347TIP3    H128600   3.117   6.801   0.999  0.3397 -0.8449  1.4200
 2347TIP3    H228601   3.009   6.704   1.040  0.4552 -1.6558 -0.1191
 2348TIP3   OH228602   0.668   5.892   7.873  0.1996 -0.2369  0.5973
 2348TIP3    H128603   0.658   5.976   7.918 -3.0061 -0.8967  1.3942
 2348TIP3    H228604   0.722   5.839   7.931  3.9403  1.7259 -0.7965
 2349TIP3   OH228605   5.987   0.941   6.650 -0.2797  0.1289  0.1609
 2349TIP3    H128606   5.960   0.886   6.577  0.3699  0.5083 -0.3741
 2349TIP3    H228607   6.080   0.922   6.662 -0.5812 -0.6803  1.5622
 2350TIP3   OH228608   3.876   6.143   6.166  0.2374 -0.0970 -0.6672
 2350TIP3    H128609   3.820   6.078   6.124  0.7373 -1.1172  0.2096
 2350TIP3    H228610   3.962   6.101   6.173  1.1023  1.3573 -1.7887
 2351TIP3   OH228611   4.452   2.003   1.917  0.0874  0.8158  0.6230
 2351TIP3    H128612   4.374   1.998   1.861 -1.0930  2.5356  1.9943
 2351TIP3    H228613   4.438   2.081   1.970  0.9971 -0.8297  3.4988
 2352TIP3   OH228614   4.205   3.772   0.133  0.7194  0.0250 -0.0853
 2352TIP3    H128615   4.181   3.708   0.066 -0.3759 -0.9792  1.2219
 2352TIP3    H228616   4.155   3.747   0.210  0.8709  1.9915  0.7242
 2353TIP3   OH228617   1.056   0.002   1.574 -0.0825  0.3847  0.8633
 2353TIP3    H128618   1.127   0.020   1.513 -1.4308  1.6777 -0.4064
 2353TIP3    H228619   1.017  -0.080   1.543 -1.1115  1.3241 -0.3951
 2354TIP3   OH228620   0.329   0.081   1.415  0.2863 -0.4903  0.2892
 2354TIP3    H128621   0.425   0.083   1.417  0.2781  0.2677 -0.0016
 2354TIP3    H228622   0.302   0.170   1.435 -0.3450 -0.4981 -0.4800
 2355TIP3   OH228623   5.545   0.220   0.337 -0.1788  0.4553 -0.0479
 2355TIP3    H128624   5.517   0.300   0.381 -2.4257 -0.5503  0.4887
 2355TIP3    H228625   5.586   0.251   0.256  3.0431  2.2921  2.0831
 2356TIP3   OH228626   0.238   0.981   8.005  0.2528 -0.7305 -0.2404
 2356TIP3    H128627   0.280   0.972   7.920 -0.7171  0.8191 -0.9283
 2356TIP3    H228628   0.214   0.892   8.030  0.4146 -1.1928 -1.6711
 2357TIP3   OH228629   2.182   3.772   6.640 -0.6775  0.0272  0.0923
 2357TIP3    H128630   2.226   3.856   6.632  0.7128 -0.6596  0.0773
 2357TIP3    H228631   2.253   3.710   6.661 -1.1713 -1.6231 -2.5798
 2358TIP3   OH228632   1.289   1.807   8.657  0.0004 -0.3242  0.1261
 2358TIP3    H128633   1.347   1.731   8.668 -0.1889 -0.5287 -0.2496
 2358TIP3    H228634   1.305   1.861   8.735  0.5586 -0.4665  0.1160
 2359TIP3   OH228635   5.406   6.236   6.919  0.2025 -0.4534  0.4440
 2359TIP3    H128636   5.409   6.256   7.013  1.2376  1.1588  0.0942
 2359TIP3    H228637   5.337   6.293   6.885  1.1977  0.4520 -0.0940
 2360TIP3   OH228638   4.409   6.449   7.618 -0.3231  0.2104 -0.3129
 2360TIP3    H128639   4.439   6.386   7.683  0.6502 -0.2346 -1.1748
 2360TIP3    H228640   4.341   6.499   7.664 -0.0999 -0.4936  0.8409
 2361TIP3   OH228641   5.926   4.679   1.194 -0.3361  0.3034 -0.2539
 2361TIP3    H128642   5.928   4.694   1.100 -1.5406  1.1952 -0.1622
 2361TIP3    H228643   6.018   4.682   1.221 -0.1024  2.2966 -1.0754
 2362TIP3   OH228644   1.708   2.575   2.616  0.2567  0.0113 -0.0714
 2362TIP3    H128645   1.755   2.539   2.541 -0.8216 -0.6410 -0.4606
 2362TIP3    H228646   1.709   2.669   2.603  2.5953  0.1415  0.6287
 2363TIP3   OH228647   5.075   3.593   8.086 -0.2332  0.2304 -0.5475
 2363TIP3    H128648   5.124   3.516   8.114 -0.3327  1.1030  2.2764
 2363TIP3    H228649   4.986   3.561   8.072  0.6179 -1.1032 -4.5037
 2364TIP3   OH228650   1.869   2.314   2.420  0.0232 -0.4463  0.2956
 2364TIP3    H128651   1.841   2.256   2.490  1.5111 -2.0841 -0.3770
 2364TIP3    H228652   1.957   2.342   2.446  0.0400  0.0380 -0.2651
 2365TIP3   OH228653   0.175   5.887   0.792 -0.3703  0.2794 -0.0608
 2365TIP3    H128654   0.135   5.947   0.855  0.2956 -1.2200  1.8705
 2365TIP3    H228655   0.262   5.924   0.776 -0.4894  0.5926 -0.0028
 2366TIP3   OH228656   6.546   1.618   6.452 -0.9036  0.1838 -0.4160
 2366TIP3    H128657   6.572   1.540   6.500 -0.6786 -0.1260 -1.0334
 2366TIP3    H228658   6.620   1.636   6.393 -1.1477  0.5892 -0.6025
 2367TIP3   OH228659   3.083   5.687   7.299  0.1967 -0.3872 -0.2320
 2367TIP3    H128660   3.141   5.611   7.300  0.8124  0.0764 -0.6613
 2367TIP3    H228661   3.121   5.746   7.235 -1.0546 -0.3108 -0.9430
 2368TIP3   OH228662   6.638   6.475   8.335 -0.0185 -0.1343 -0.0341
 2368TIP3    H128663   6.658   6.565   8.309  0.7276  0.3501  1.9780
 2368TIP3    H228664   6.561   6.451   8.283 -0.5195  1.8401 -0.2746
 2369TIP3   OH228665   3.544   1.961   0.267  0.5554  0.3230  0.6350
 2369TIP3    H128666   3.542   2.034   0.328 -1.0302 -0.2784  1.3650
 2369TIP3    H228667   3.463   1.969   0.217  1.2006  0.0498 -0.4790
 2370TIP3   OH228668   0.866   2.535   7.389  0.2229 -0.0384  0.2156
 2370TIP3    H128669   0.824   2.515   7.306  0.3010 -2.0555  0.6151
 2370TIP3    H228670   0.838   2.625   7.409  0.5560  0.6507 -2.1593
 2371TIP3   OH228671   6.217   6.572   8.024  0.1041 -0.0013 -0.4709
 2371TIP3    H128672   6.165   6.653   8.026  1.6165  1.0015  1.8846
 2371TIP3    H228673   6.285   6.589   7.958  1.2915  1.3045  1.0155
 2372TIP3   OH228674   5.355   4.885   2.357 -0.0588  0.4555 -0.2567
 2372TIP3    H128675   5.306   4.805   2.375 -0.4980  0.8699  0.4426
 2372TIP3    H228676   5.410   4.898   2.434 -0.5258  1.2108 -0.0347
 2373TIP3   OH228677   1.997   5.984   1.490 -0.6086 -0.1532  0.1995
 2373TIP3    H128678   2.080   5.979   1.537 -0.0973  0.5285 -0.5965
 2373TIP3    H228679   2.018   5.950   1.403 -1.4317 -0.9826  0.3081
 2374TIP3   OH228680   0.083   4.543   6.714  0.5030  0.3361 -0.2118
 2374TIP3    H128681   0.136   4.569   6.790 -0.1243 -0.4865  0.5276
 2374TIP3    H228682   0.029   4.471   6.746 -1.3230  1.3726 -0.8490
 2375TIP3   OH228683   0.249   1.849   7.390  0.2312  0.5482  0.0814
 2375TIP3    H128684   0.259   1.754   7.395  0.2307  0.4721 -1.1299
 2375TIP3    H228685   0.166   1.867   7.435  0.2269 -0.0251  0.3090
 2376TIP3   OH228686   1.436   1.909   1.596 -0.4387 -0.4050  0.1742
 2376TIP3    H128687   1.495   1.861   1.653  1.2078 -1.0543 -1.9434
 2376TIP3    H228688   1.407   1.984   1.648  0.4680 -1.2888  2.0222
 2377TIP3   OH228689   3.872   1.114   6.642 -0.1096 -0.2023 -0.3907
 2377TIP3    H128690   3.900   1.027   6.614 -0.8212 -0.3079 -0.8015
 2377TIP3    H228691   3.797   1.098   6.700 -1.1493  0.1603 -1.5726
 2378TIP3   OH228692   5.661   6.202   7.920  0.3687 -0.2344 -0.2382
 2378TIP3    H128693   5.678   6.237   7.832  1.4016  1.9769  0.7822
 2378TIP3    H228694   5.567   6.183   7.920  0.3899 -0.5496 -1.8844
 2379TIP3   OH228695   4.925   4.955   0.727  0.0347  0.1250  0.2220
 2379TIP3    H128696   4.919   4.970   0.822 -0.2262 -0.3614  0.2852
 2379TIP3    H228697   4.888   5.034   0.688 -1.4993 -0.4083  0.5528
 2380TIP3   OH228698   4.336   5.258   8.428  0.0686 -0.6013 -0.1913
 2380TIP3    H128699   4.283   5.241   8.350 -0.0656 -1.8909  0.1512
 2380TIP3    H228700   4.296   5.203   8.496  2.3948 -2.4005 -0.1704
 2381TIP3   OH228701   0.723   6.228   7.202 -0.2222 -0.0502  0.4947
 2381TIP3    H128702   0.670   6.161   7.245 -2.6529  0.1275 -1.9577
 2381TIP3    H228703   0.753   6.187   7.121  1.0782  0.7894  0.5235
 2382TIP3   OH228704   1.154   0.247   8.081  0.1959 -0.1611 -0.0083
 2382TIP3    H128705   1.084   0.214   8.136  1.3620 -2.7753  0.0318
 2382TIP3    H228706   1.196   0.315   8.134  0.2279 -1.4200  1.6641
 2383TIP3   OH228707   1.673   3.572   7.188  0.2215  0.2841  0.4074
 2383TIP3    H128708   1.677   3.563   7.283  1.7523 -1.1448  0.2566
 2383TIP3    H228709   1.653   3.484   7.156 -1.4857  0.9884 -0.5722
 2384TIP3   OH228710   1.661   2.255   1.776 -0.3100 -0.4998  0.5208
 2384TIP3    H128711   1.589   2.312   1.748  1.5094  1.1561 -1.1243
 2384TIP3    H228712   1.675   2.195   1.703 -0.1419 -0.9416  0.9061
 2385TIP3   OH228713   5.587   1.869   6.193  0.1347 -0.1056 -0.2226
 2385TIP3    H128714   5.660   1.813   6.167 -1.3275 -1.6115 -1.3327
 2385TIP3    H228715   5.534   1.814   6.251 -0.2179  0.9166  0.4668
 2386TIP3   OH228716   1.959   0.409   0.187 -0.5434 -0.0273 -0.1647
 2386TIP3    H128717   2.037   0.434   0.236 -1.1070  0.4308  0.5263
 2386TIP3    H228718   1.915   0.492   0.169 -0.7169 -0.2564 -0.8145
 2387TIP3   OH228719   0.135   0.828   0.647  0.0816 -0.3127  0.4695
 2387TIP3    H128720   0.193   0.777   0.703  0.3091  1.8397  2.3683
 2387TIP3    H228721   0.048   0.791   0.663  0.5315 -1.6949 -0.1605
 2388TIP3   OH228722   4.520   3.780   1.084  0.2345  0.0460  0.1671
 2388TIP3    H128723   4.449   3.734   1.039 -0.7998  0.9533  0.8239
 2388TIP3    H228724   4.566   3.711   1.133  0.7531 -0.7849 -1.4145
 2389TIP3   OH228725   5.181   3.922   1.204 -0.0239 -0.2681 -0.2617
 2389TIP3    H128726   5.178   3.975   1.284 -2.1330  1.4764 -1.3859
 2389TIP3    H228727   5.187   3.832   1.235 -1.0466  0.3255  1.8908
 2390TIP3   OH228728   2.290   5.661   7.859  0.5070 -0.3068 -0.0449
 2390TIP3    H128729   2.371   5.610   7.858  1.0830  0.5947 -0.1995
 2390TIP3    H228730   2.279   5.690   7.768 -0.9907 -1.9452 -0.4391
 2391TIP3   OH228731   0.149   5.452   1.654 -0.0644  0.1523 -0.1664
 2391TIP3    H128732   0.086   5.396   1.608 -0.4647  0.9905 -0.6664
 2391TIP3    H228733   0.101   5.487   1.729 -0.0886  0.4914 -0.3356
 2392TIP3   OH228734   4.169   6.480   2.121 -0.5542  0.4234 -0.1205
 2392TIP3    H128735   4.160   6.565   2.163 -0.8260 -0.3597  1.4451
 2392TIP3    H228736   4.090   6.433   2.143  0.8184 -1.2631  1.5047
 2393TIP3   OH228737   2.734   0.850   7.225  0.3101  0.0425  0.4865
 2393TIP3    H128738   2.712   0.786   7.158 -0.5417  1.9285 -1.1453
 2393TIP3    H228739   2.812   0.814   7.268 -0.6711 -2.4807  0.2995
 2394TIP3   OH228740   1.287   3.482   2.297 -0.3844 -0.5447  0.1396
 2394TIP3    H128741   1.327   3.525   2.221 -3.2173  0.8313 -0.7435
 2394TIP3    H228742   1.317   3.391   2.292 -0.4961 -0.5216 -2.6946
 2395TIP3   OH228743   0.115   2.807   0.858 -0.1229  0.3668  0.0663
 2395TIP3    H128744   0.152   2.894   0.877  2.1162 -0.7261  1.1270
 2395TIP3    H228745   0.080   2.777   0.942 -0.1049 -0.1138 -0.0946
 2396TIP3   OH228746   5.557   6.855   6.019 -0.0417  0.1790  0.8060
 2396TIP3    H128747   5.612   6.905   6.079 -0.3468 -0.7652  1.9227
 2396TIP3    H228748   5.561   6.765   6.052 -1.9473  0.0122  0.7481
 2397TIP3   OH228749   5.472   1.058   6.739  0.1753 -0.4428  0.0142
 2397TIP3    H128750   5.542   1.102   6.787  1.3889 -2.1632 -0.0795
 2397TIP3    H228751   5.517   0.997   6.681 -1.3726 -0.6705 -1.0219
 2398TIP3   OH228752   6.704   5.384   1.199  0.2835 -0.7848 -0.2224
 2398TIP3    H128753   6.718   5.467   1.153  0.7540 -0.2746  0.8249
 2398TIP3    H228754   6.728   5.318   1.135  1.4481 -0.0714 -0.5629
 2399TIP3   OH228755   6.089   3.803   1.108 -0.2184  0.5066  0.0712
 2399TIP3    H128756   6.002   3.771   1.132 -0.0631  0.8687  1.1341
 2399TIP3    H228757   6.073   3.864   1.035 -0.7094 -0.4345 -0.6250
 2400TIP3   OH228758   0.913   6.483   8.487 -0.4097  0.5262  0.0566
 2400TIP3    H128759   0.970   6.415   8.451 -3.0779 -1.2107 -1.3144
 2400TIP3    H228760   0.919   6.556   8.426 -0.6747 -0.2046 -0.8644
 2401TIP3   OH228761   6.846   5.203   2.319 -0.0709 -0.4875 -0.8049
 2401TIP3    H128762   6.893   5.259   2.382  0.4192 -1.6132 -0.1337
 2401TIP3    H228763   6.756   5.200   2.353  0.6383 -2.7727  1.1208
 2402TIP3   OH228764   4.753   3.089   6.822 -0.3156 -0.0711 -0.1658
 2402TIP3    H128765   4.692   3.057   6.888  0.6866  0.4480  1.0483
 2402TIP3    H228766   4.718   3.056   6.739 -1.8555 -0.3555  0.5574
 2403TIP3   OH228767   1.751   5.916   7.854  0.5043  0.2706  0.7282
 2403TIP3    H128768   1.829   5.969   7.871  0.5935  0.1368  0.7384
 2403TIP3    H228769   1.687   5.947   7.918  0.0356  1.4508 -0.2718
 2404TIP3   OH228770   5.313   4.713   1.158 -0.1800  0.7411  0.3645
 2404TIP3    H128771   5.319   4.620   1.139 -0.0985  0.4455  1.7471
 2404TIP3    H228772   5.232   4.742   1.115 -0.3118  0.0031  0.1075
 2405TIP3   OH228773   2.872   2.672   7.351 -0.1395  0.3883  0.3421
 2405TIP3    H128774   2.956   2.718   7.353  0.3279 -0.2569 -2.1000
 2405TIP3    H228775   2.845   2.674   7.259 -1.0599 -2.4906  0.4528
 2406TIP3   OH228776   3.039   2.804   0.611  0.7372 -0.5857  0.4896
 2406TIP3    H128777   2.977   2.733   0.629  0.1052 -0.6972 -1.8345
 2406TIP3    H228778   3.125   2.764   0.622  0.3868 -1.6437 -0.3986
 2407TIP3   OH228779   2.823   5.557   1.344  0.1425 -0.2250  0.1181
 2407TIP3    H128780   2.760   5.556   1.272 -0.0906 -1.8456  0.3024
 2407TIP3    H228781   2.771   5.578   1.422 -0.2223 -1.5726  0.2714
 2408TIP3   OH228782   1.785   4.714   6.209  0.0932  0.0144 -0.5772
 2408TIP3    H128783   1.871   4.717   6.169  0.4601  0.4907  0.2255
 2408TIP3    H228784   1.802   4.703   6.302 -0.7253 -0.3982 -0.4674
 2409TIP3   OH228785   6.523   1.175   7.248  0.4801 -0.1160 -0.2923
 2409TIP3    H128786   6.574   1.113   7.300  1.0879 -0.5195 -1.3362
 2409TIP3    H228787   6.461   1.120   7.200  0.3568  0.1854 -0.4818
 2410TIP3   OH228788   2.607   2.699   0.842 -0.2760  0.8059  0.2296
 2410TIP3    H128789   2.620   2.639   0.768 -0.5427  2.4230 -1.1962
 2410TIP3    H228790   2.664   2.665   0.911 -0.4938 -1.1161 -0.4793
 2411TIP3   OH228791   4.422   3.235   0.793 -0.1692  0.0046  0.2834
 2411TIP3    H128792   4.383   3.314   0.756 -0.3672 -0.8314 -1.3501
 2411TIP3    H228793   4.379   3.163   0.749  0.3706 -1.0356  1.3771
 2412TIP3   OH228794   0.668   6.849   8.431  0.2016  0.0886  0.0872
 2412TIP3    H128795   0.594   6.851   8.371 -0.7812  0.6821  1.2888
 2412TIP3    H228796   0.638   6.797   8.505  0.6013  1.1875  1.0512
 2413TIP3   OH228797   3.981   4.402   8.278 -0.0556  0.0095  0.0865
 2413TIP3    H128798   4.032   4.320   8.277 -1.1243 -0.6775  0.5256
 2413TIP3    H228799   3.903   4.381   8.328 -0.5320  1.2104 -0.1231
 2414TIP3   OH228800   2.406   6.717   8.175  0.0134  0.2622 -0.1345
 2414TIP3    H128801   2.481   6.770   8.147  0.0916 -0.0944 -0.6125
 2414TIP3    H228802   2.443   6.630   8.191 -0.7077 -0.6718 -2.9844
 2415TIP3   OH228803   0.732   5.409   0.753 -0.2566  0.0067 -0.0795
 2415TIP3    H128804   0.699   5.417   0.664 -0.3228  3.4966  0.1197
 2415TIP3    H228805   0.731   5.315   0.771 -3.8534 -0.5824 -2.3844
 2416TIP3   OH228806   5.202   3.669   1.286  0.0388 -0.7223 -0.3115
 2416TIP3    H128807   5.288   3.633   1.264  0.7101  1.4306 -1.6059
 2416TIP3    H228808   5.140   3.602   1.259  1.2631 -2.3218  0.6163
 2417TIP3   OH228809   3.472   6.276   7.703  0.2211 -0.4158  0.2054
 2417TIP3    H128810   3.539   6.291   7.771 -0.2609 -0.4456  0.6967
 2417TIP3    H228811   3.443   6.363   7.678 -0.1687 -0.4277  0.6144
 2418TIP3   OH228812   3.647   4.502   7.725  0.8572 -0.1874  0.0419
 2418TIP3    H128813   3.666   4.409   7.720 -1.7265 -0.8021  0.3605
 2418TIP3    H228814   3.560   4.511   7.685  0.0676  1.7300  2.0125
 2419TIP3   OH228815   4.979   2.602   0.078  0.3635  0.6192 -0.1665
 2419TIP3    H128816   4.965   2.523   0.131  1.2293  0.7737  0.3140
 2419TIP3    H228817   4.923   2.590   0.002 -0.1267 -0.0880  0.2912
 2420TIP3   OH228818   4.057   5.675   7.397 -0.4330 -0.0879 -0.8759
 2420TIP3    H128819   3.995   5.603   7.407 -0.1116 -0.1423  1.1827
 2420TIP3    H228820   4.103   5.679   7.481  1.1229  1.0903 -1.7216
 2421TIP3   OH228821   1.766   1.951   1.931 -0.2316  0.0595 -0.0538
 2421TIP3    H128822   1.670   1.954   1.920 -0.1408  0.4051 -0.7979
 2421TIP3    H228823   1.786   1.858   1.933 -0.5266 -0.0200 -0.4862
 2422TIP3   OH228824   2.015   4.720   6.897  0.0429  0.5771 -0.0296
 2422TIP3    H128825   1.986   4.666   6.824  0.3410  0.7276 -0.2593
 2422TIP3    H228826   2.027   4.658   6.969 -2.0924  0.6545  0.4746
 2423TIP3   OH228827   6.447   3.848   8.609  0.9745  0.2605  0.1899
 2423TIP3    H128828   6.380   3.814   8.550 -1.1217 -0.9397  3.0164
 2423TIP3    H228829   6.426   3.941   8.619 -0.6944 -0.2126  1.4508
 2424TIP3   OH228830   6.074   0.950   8.602  0.6593  0.4160 -0.3576
 2424TIP3    H128831   6.007   0.903   8.650  0.0105  0.9532 -0.7210
 2424TIP3    H228832   6.069   1.040   8.634  1.8653  0.2701  0.3087
 2425TIP3   OH228833   2.281   2.028   6.409 -0.5386  0.8969 -0.3856
 2425TIP3    H128834   2.227   1.950   6.422  1.1198 -0.4230 -1.1560
 2425TIP3    H228835   2.224   2.089   6.363 -2.1226  0.4763  0.9164
 2426TIP3   OH228836   3.431   2.065   7.642  0.3722 -0.2914  0.5168
 2426TIP3    H128837   3.515   2.098   7.611  0.2814 -2.0751 -1.9692
 2426TIP3    H228838   3.454   1.994   7.702  0.6633 -0.6314  0.0099
 2427TIP3   OH228839   5.939   4.084   2.156  0.2720  0.7091 -0.3017
 2427TIP3    H128840   6.024   4.046   2.133  1.3417  3.3696 -1.1057
 2427TIP3    H228841   5.937   4.080   2.252  1.1433  0.3409 -0.2832
 2428TIP3   OH228842   3.922   3.995   7.282  0.0041 -0.4811  0.6951
 2428TIP3    H128843   3.848   4.016   7.339  0.2567  0.0110  0.8489
 2428TIP3    H228844   3.885   3.995   7.194 -0.1370 -0.0207  0.7501
 2429TIP3   OH228845   1.488   6.250   2.005  0.5624 -0.2416  0.0698
 2429TIP3    H128846   1.528   6.196   2.072  0.3454  0.8103  1.0733
 2429TIP3    H228847   1.483   6.338   2.043  1.5555  0.6762 -1.7638
 2430TIP3   OH228848   1.513   2.721   8.054  0.0923  0.3219 -0.5332
 2430TIP3    H128849   1.473   2.806   8.070 -0.4224  0.0665 -0.4166
 2430TIP3    H228850   1.590   2.720   8.110 -1.0329 -0.0893  1.0863
 2431TIP3   OH228851   4.256   6.152   8.315  0.1412  0.0361  0.0062
 2431TIP3    H128852   4.341   6.196   8.322 -0.2582  0.7273  0.7825
 2431TIP3    H228853   4.275   6.060   8.331  1.1003 -0.2368 -2.2990
 2432TIP3   OH228854   4.778   4.215   8.450  0.0199  0.0025  0.3746
 2432TIP3    H128855   4.798   4.182   8.363 -1.1991  0.2227 -0.0114
 2432TIP3    H228856   4.841   4.171   8.508  1.6642  0.8076 -0.7460
 2433TIP3   OH228857   5.021   1.786   1.482  0.4392  0.3359  0.3357
 2433TIP3    H128858   4.966   1.743   1.548 -0.5615 -1.3979 -1.5418
 2433TIP3    H228859   5.079   1.843   1.534 -0.2724 -0.9443  2.7075
 2434TIP3   OH228860   0.499   5.524   8.379  0.0368  0.8294  0.0351
 2434TIP3    H128861   0.430   5.538   8.444  0.1843 -0.8945  0.5998
 2434TIP3    H228862   0.483   5.436   8.345  2.4396 -0.0100  0.8230
 2435TIP3   OH228863   0.730   1.782   7.195  0.4454  0.4314  0.0318
 2435TIP3    H128864   0.654   1.840   7.190 -0.1392 -0.4567 -2.7327
 2435TIP3    H228865   0.693   1.694   7.201  1.3326  0.1427  2.5444
 2436TIP3   OH228866   2.326   2.370   0.340  0.4198  0.1591 -0.3093
 2436TIP3    H128867   2.233   2.356   0.356  0.6543  0.2546  1.2641
 2436TIP3    H228868   2.330   2.453   0.292 -0.3056  0.1328 -0.4232
 2437TIP3   OH228869   0.624   1.791   0.458  0.1879  0.1089  0.1782
 2437TIP3    H128870   0.672   1.730   0.402 -0.0589  1.6802 -1.8745
 2437TIP3    H228871   0.535   1.792   0.422 -0.4557 -0.0716  1.6806
 2438TIP3   OH228872   6.481   2.355   6.993  0.0839 -0.3704  0.0560
 2438TIP3    H128873   6.557   2.318   7.038  1.3682 -0.5136 -2.0614
 2438TIP3    H228874   6.509   2.443   6.969 -0.3137 -0.5111 -0.9537
 2439TIP3   OH228875   1.357   5.884   0.970 -0.6218  0.4034 -0.1271
 2439TIP3    H128876   1.349   5.963   0.917  2.0422  0.9857  0.1605
 2439TIP3    H228877   1.347   5.812   0.908  0.0953  1.0459 -1.0168
 2440TIP3   OH228878   2.588   3.642   7.909 -0.4430 -0.4004 -0.0018
 2440TIP3    H128879   2.611   3.728   7.943 -1.1676 -0.3817  0.4701
 2440TIP3    H228880   2.575   3.655   7.815  0.2717 -0.1742 -0.0688
 2441TIP3   OH228881   0.497   0.748   0.406  0.2009  0.0771 -0.3560
 2441TIP3    H128882   0.592   0.753   0.414  0.1495 -0.7604  1.2114
 2441TIP3    H228883   0.476   0.656   0.420 -1.0108  0.6426  2.1818
 2442TIP3   OH228884   2.626   4.364   7.679  0.1641 -0.4938  0.1800
 2442TIP3    H128885   2.619   4.278   7.721 -1.4252  0.1550  1.3430
 2442TIP3    H228886   2.621   4.427   7.751 -0.4705  0.6093 -0.7851
 2443TIP3   OH228887   1.774   3.687   7.723  0.1094  0.2262  0.2631
 2443TIP3    H128888   1.754   3.661   7.633 -0.3396 -0.5395  0.5751
 2443TIP3    H228889   1.745   3.613   7.776 -0.2967  0.9690  1.0995
 2444TIP3   OH228890   4.006   6.055   1.585 -0.2651  0.0647 -0.3495
 2444TIP3    H128891   4.089   6.051   1.632 -0.5024  0.7146  0.1519
 2444TIP3    H228892   3.943   6.018   1.646 -0.3009 -0.6926 -0.8407
 2445TIP3   OH228893   4.156   2.235   2.003  0.0271  0.0545  0.1251
 2445TIP3    H128894   4.087   2.267   1.944  1.5675  0.6461 -1.4639
 2445TIP3    H228895   4.216   2.309   2.011  0.4705 -0.4326  1.5069
 2446TIP3   OH228896   5.824   5.491   0.766 -0.1483 -0.3233  0.2040
 2446TIP3    H128897   5.782   5.430   0.705  0.9315 -0.8375 -0.0473
 2446TIP3    H228898   5.785   5.470   0.851  0.1514 -1.3361  0.1087
 2447TIP3   OH228899   1.721   6.565   1.943 -0.1692 -0.4639  0.0600
 2447TIP3    H128900   1.661   6.525   2.006 -0.7895 -0.8388 -0.7338
 2447TIP3    H228901   1.786   6.496   1.925 -0.8727 -0.9207 -0.8320
 2448TIP3   OH228902   3.296   2.861   0.416  0.3946  0.2892  0.1620
 2448TIP3    H128903   3.227   2.845   0.351 -0.8678 -0.6694  1.6527
 2448TIP3    H228904   3.371   2.890   0.365 -0.5597 -0.3558 -1.7049
 2449TIP3   OH228905   5.302   6.712   2.122 -0.6584 -0.4557 -0.2681
 2449TIP3    H128906   5.307   6.802   2.154  1.9608 -0.0102 -1.6591
 2449TIP3    H228907   5.338   6.659   2.193  0.7552  0.0136 -0.5888
 2450TIP3   OH228908   4.293   0.386   7.532 -0.5524  0.0448 -0.1324
 2450TIP3    H128909   4.330   0.469   7.562 -0.6743  0.4155 -0.9997
 2450TIP3    H228910   4.211   0.410   7.489 -0.5108 -0.5062 -0.5279
 2451TIP3   OH228911   0.485   5.342   7.663 -0.6287  0.0151 -0.5602
 2451TIP3    H128912   0.480   5.405   7.735  1.2951 -2.1265  1.6024
 2451TIP3    H228913   0.438   5.265   7.694  0.5749 -1.1042 -1.4096
 2452TIP3   OH228914   1.544   3.269   1.584  0.1299 -0.2426  0.0776
 2452TIP3    H128915   1.483   3.245   1.515 -0.6317 -0.1408  0.6958
 2452TIP3    H228916   1.630   3.250   1.548 -0.2531 -0.2351 -0.8749
 2453TIP3   OH228917   3.842   2.373   1.190 -0.2197  0.0978 -0.5119
 2453TIP3    H128918   3.829   2.302   1.127  0.1620 -1.2892  0.8890
 2453TIP3    H228919   3.770   2.362   1.253  0.0009  0.7855 -0.1305
 2454TIP3   OH228920   1.649   6.115   0.386  0.0541  0.2100  0.2176
 2454TIP3    H128921   1.695   6.162   0.317  2.9238 -0.2201  1.6949
 2454TIP3    H228922   1.633   6.180   0.454 -2.1170  0.4709 -0.4678
 2455TIP3   OH228923   5.088   4.854   8.449  0.2244  0.0932  0.7862
 2455TIP3    H128924   5.011   4.873   8.502 -1.1795 -1.4989 -0.5959
 2455TIP3    H228925   5.066   4.887   8.362  1.0612 -0.4792  0.3506
 2456TIP3   OH228926   1.738   2.064   1.578 -0.2026 -0.1477  0.3465
 2456TIP3    H128927   1.680   1.989   1.560 -1.8712  1.0698  0.3655
 2456TIP3    H228928   1.795   2.034   1.648 -0.0330 -1.7813 -0.4406
 2457TIP3   OH228929   0.563   3.245   8.359  0.4699 -0.3097  0.5721
 2457TIP3    H128930   0.597   3.156   8.355 -1.3130 -0.9784 -1.0311
 2457TIP3    H228931   0.541   3.258   8.452 -0.9536 -2.2714  0.5801
 2458TIP3   OH228932   2.339   3.101   8.049 -0.3305  0.1055  0.4515
 2458TIP3    H128933   2.429   3.135   8.042  0.5802 -1.8784  1.6426
 2458TIP3    H228934   2.307   3.099   7.959  1.4452 -0.6533 -0.2105
 2459TIP3   OH228935   1.426   1.844   8.025  0.1542 -0.8269 -0.0910
 2459TIP3    H128936   1.467   1.763   8.054 -1.7564 -1.7100  0.2607
 2459TIP3    H228937   1.412   1.833   7.931 -0.2373 -0.9697 -0.0171
 2460TIP3   OH228938   4.279   1.254   7.807  0.2252  0.4208  0.1317
 2460TIP3    H128939   4.314   1.300   7.731  1.4063  0.0205  0.4208
 2460TIP3    H228940   4.233   1.179   7.770  1.3995 -0.1734 -0.1809
 2461TIP3   OH228941   0.984   0.610   7.996 -0.6435 -0.1690  0.7739
 2461TIP3    H128942   0.940   0.572   7.920  0.2771  2.0733 -1.0154
 2461TIP3    H228943   0.936   0.691   8.012  1.2818  1.1425  0.2754
 2462TIP3   OH228944   2.373   6.359   1.102  0.3915 -0.7311  0.0932
 2462TIP3    H128945   2.467   6.346   1.116  0.8862  1.5817 -0.6139
 2462TIP3    H228946   2.334   6.345   1.188  1.7142  0.6302  0.9633
 2463TIP3   OH228947   0.252   5.228   0.807 -0.4146 -0.0018  0.4533
 2463TIP3    H128948   0.207   5.150   0.839 -0.6429  0.1204  0.4318
 2463TIP3    H228949   0.345   5.206   0.814 -0.4009  0.4312  2.3039
 2464TIP3   OH228950   1.040   3.876   6.686  0.3626 -0.2720 -0.3912
 2464TIP3    H128951   1.003   3.794   6.653  0.2562 -0.4767  0.2253
 2464TIP3    H228952   0.978   3.943   6.657 -0.0222 -0.5132 -0.1457
 2465TIP3   OH228953   0.810   5.132   2.046  0.1341 -0.4342  0.1514
 2465TIP3    H128954   0.746   5.192   2.085  0.0942 -0.8316  0.6980
 2465TIP3    H228955   0.810   5.156   1.953  0.9458  1.1649  0.5229
 2466TIP3   OH228956   2.341   1.121   2.191 -0.3579  0.1457 -0.5435
 2466TIP3    H128957   2.397   1.198   2.179  1.0534 -0.7617  0.0044
 2466TIP3    H228958   2.332   1.084   2.104 -0.7005  0.6810 -0.7439
 2467TIP3   OH228959   0.154   1.884   8.419  0.1079 -0.0645 -0.4811
 2467TIP3    H128960   0.087   1.910   8.356  0.4748  1.6684 -0.2180
 2467TIP3    H228961   0.113   1.895   8.504  0.8331  1.5373 -0.2923
 2468TIP3   OH228962   2.587   4.534   7.936 -0.4210  0.0368  0.0301
 2468TIP3    H128963   2.567   4.570   8.022  0.5856 -1.5606  0.9572
 2468TIP3    H228964   2.615   4.444   7.952 -1.7813 -0.8506 -2.1202
 2469TIP3   OH228965   1.990   6.002   1.062 -0.2079  0.0883  0.2324
 2469TIP3    H128966   2.032   5.929   1.016 -0.4809  0.8133 -1.2233
 2469TIP3    H228967   1.909   6.018   1.014 -0.0740  1.4515  0.4137
 2470TIP3   OH228968   6.337   1.437   7.756  0.8605  0.1064  0.7662
 2470TIP3    H128969   6.350   1.438   7.850  2.3907  2.3837  0.6211
 2470TIP3    H228970   6.385   1.361   7.725 -2.0798 -2.4372  1.9943
 2471TIP3   OH228971   4.788   0.951   2.065  0.0830  0.3726  0.1528
 2471TIP3    H128972   4.766   1.002   2.142 -0.0222  1.7859 -0.7662
 2471TIP3    H228973   4.741   0.868   2.075 -2.2585  1.6388  0.2622
 2472TIP3   OH228974   4.913   6.857   0.477 -0.3888 -0.0471 -0.3118
 2472TIP3    H128975   4.929   6.902   0.394 -0.3596 -1.2944 -0.9955
 2472TIP3    H228976   4.818   6.846   0.481 -0.2641 -1.7242 -1.1446
 2473TIP3   OH228977   2.248   6.302   8.604  0.2127  0.2673 -0.2553
 2473TIP3    H128978   2.269   6.396   8.602  0.7194  0.1772  0.5606
 2473TIP3    H228979   2.257   6.274   8.513  1.9679  0.5964 -0.2227
 2474TIP3   OH228980   4.594   0.619   1.490 -0.3736  0.6374  0.4721
 2474TIP3    H128981   4.669   0.678   1.488  0.5708 -0.4893  1.4311
 2474TIP3    H228982   4.525   0.669   1.533  0.3686  1.1020  1.1536
 2475TIP3   OH228983   0.676   1.734   1.199 -0.7714  0.4580  0.4355
 2475TIP3    H128984   0.697   1.803   1.136  1.6423 -1.5103 -1.0725
 2475TIP3    H228985   0.624   1.671   1.148 -0.6587 -0.1215  1.0352
 2476TIP3   OH228986   1.216   1.619   8.125 -0.6582 -0.2565 -0.1202
 2476TIP3    H128987   1.203   1.706   8.162  3.3897 -0.5561  2.7181
 2476TIP3    H228988   1.263   1.634   8.043 -1.5865  0.1894 -0.5920
 2477TIP3   OH228989   0.395   3.556   8.611 -0.4632  0.2564 -0.0036
 2477TIP3    H128990   0.432   3.642   8.591 -0.7798  0.7855  1.5531
 2477TIP3    H228991   0.319   3.549   8.553 -1.1791  1.5971  0.7055
 2478TIP3   OH228992   0.928   6.497   0.116  0.6873 -0.1585  0.9042
 2478TIP3    H128993   0.930   6.469   0.025 -1.5461 -1.5004  1.1915
 2478TIP3    H228994   0.905   6.418   0.165 -0.8344  1.0689  2.3155
 2479TIP3   OH228995   4.012   2.127   6.467  0.2511 -0.0363  0.6068
 2479TIP3    H128996   3.944   2.092   6.410  0.8607  0.8275 -0.7110
 2479TIP3    H228997   4.060   2.050   6.497 -1.6198 -0.7018  2.0299
 2480TIP3   OH228998   6.649   2.632   6.963 -0.2307 -0.4139  0.3679
 2480TIP3    H128999   6.700   2.596   6.891  0.3182  0.2327  0.4259
 2480TIP3    H229000   6.697   2.710   6.990  0.3181 -1.3915  2.3422
 2481TIP3   OH229001   4.685   6.323   7.142 -0.3416 -0.5134  0.2698
 2481TIP3    H129002   4.602   6.362   7.116 -0.0785  0.3362  0.6906
 2481TIP3    H229003   4.722   6.289   7.060 -1.2288 -1.1653  0.1221
 2482TIP3   OH229004   0.850   3.782   7.603  0.5267 -0.0068 -0.0605
 2482TIP3    H129005   0.879   3.725   7.531 -0.3578  2.2633 -2.3895
 2482TIP3    H229006   0.773   3.738   7.639  0.4056 -0.7570 -1.1845
 2483TIP3   OH229007   2.332   5.192   0.617  0.2520  0.3574  0.0796
 2483TIP3    H129008   2.254   5.174   0.564 -0.2518  0.8146  0.6495
 2483TIP3    H229009   2.326   5.132   0.691 -0.5528  1.6272  1.0970
 2484TIP3   OH229010   1.113   5.821   1.083  0.6497  0.1170  0.4980
 2484TIP3    H129011   1.115   5.839   1.177  1.3137 -0.0090  0.5111
 2484TIP3    H229012   1.202   5.837   1.053  0.5403 -0.2386 -0.0410
 2485TIP3   OH229013   4.522   6.214   8.054  0.0037  0.2797  0.2518
 2485TIP3    H129014   4.585   6.142   8.063  0.7352  0.9594  0.6393
 2485TIP3    H229015   4.482   6.221   8.141 -1.2074 -0.6681 -0.1936
 2486TIP3   OH229016   1.857   3.116   1.202  0.1392  0.1522 -0.1226
 2486TIP3    H129017   1.844   3.048   1.137  1.0175 -0.9628  0.8310
 2486TIP3    H229018   1.944   3.151   1.184  1.2134 -1.4758  1.5591
 2487TIP3   OH229019   2.616   2.042   8.522  0.2898  0.1972  0.0964
 2487TIP3    H129020   2.589   2.127   8.487  1.1771  1.5286  2.4718
 2487TIP3    H229021   2.690   2.017   8.467  0.8277  1.5932  0.1364
 2488TIP3   OH229022   5.634   5.369   0.274 -0.1271  0.0649  0.6743
 2488TIP3    H129023   5.589   5.339   0.195 -1.1116  0.9226  0.8866
 2488TIP3    H229024   5.624   5.464   0.273 -0.1436  0.0922  1.8070
 2489TIP3   OH229025   3.408   0.986   1.225 -0.2173 -0.3421 -0.0181
 2489TIP3    H129026   3.377   1.000   1.136  0.4032  0.0419 -0.1814
 2489TIP3    H229027   3.490   0.938   1.214 -0.2842 -0.5474  0.3599
 2490TIP3   OH229028   1.540   3.615   1.714  0.1274 -0.2264  0.6280
 2490TIP3    H129029   1.495   3.540   1.752  2.0550 -0.8677  1.7931
 2490TIP3    H229030   1.632   3.603   1.738  0.7491  1.6751 -0.5402
 2491TIP3   OH229031   6.513   4.280   7.486 -0.2454  0.1630 -0.0422
 2491TIP3    H129032   6.463   4.329   7.421 -0.9464  0.9735  1.0795
 2491TIP3    H229033   6.592   4.253   7.439  0.4161  2.7780 -0.6053
 2492TIP3   OH229034   6.863   3.861   6.411 -0.1790 -0.1200 -0.0195
 2492TIP3    H129035   6.838   3.870   6.503 -0.9876  0.0856 -0.2475
 2492TIP3    H229036   6.921   3.785   6.410 -1.6754 -1.3365  0.4038
 2493TIP3   OH229037   5.917   6.401   1.221  0.2838 -0.2790  0.1772
 2493TIP3    H129038   5.871   6.458   1.160  0.4827  0.1309  0.4067
 2493TIP3    H229039   5.885   6.313   1.201 -0.9062  0.0351  0.5915
 2494TIP3   OH229040   2.512   2.419   0.835 -0.0121  0.5874  0.2918
 2494TIP3    H129041   2.422   2.414   0.802  0.2812  1.0260 -0.6156
 2494TIP3    H229042   2.503   2.452   0.924 -0.8992 -1.5086  1.0477
 2495TIP3   OH229043   2.666   4.578   1.873 -0.6786  0.2269 -0.2239
 2495TIP3    H129044   2.751   4.534   1.881 -1.1052 -0.6837 -0.5562
 2495TIP3    H229045   2.686   4.671   1.886  0.5016  0.1259 -1.1214
 2496TIP3   OH229046   2.298   4.666   1.329  1.2816 -0.3607 -0.0422
 2496TIP3    H129047   2.290   4.746   1.380 -2.6667  0.0682 -0.9865
 2496TIP3    H229048   2.277   4.596   1.392  1.2195 -0.2970  0.0083
 2497TIP3   OH229049   0.979   4.040   0.318  0.0615 -0.2317 -0.6828
 2497TIP3    H129050   0.968   3.995   0.234 -2.2000  0.2176 -0.6786
 2497TIP3    H229051   1.018   3.974   0.375 -0.8824 -1.4225 -1.3521
 2498TIP3   OH229052   6.409   6.167   6.585 -0.7955 -0.3438  0.2834
 2498TIP3    H129053   6.455   6.142   6.665  0.1515  0.3661 -0.0205
 2498TIP3    H229054   6.327   6.117   6.588 -0.6436 -0.5525  1.5371
 2499TIP3   OH229055   1.215   1.419   8.608 -0.3259  0.2674 -0.5608
 2499TIP3    H129056   1.195   1.325   8.612 -0.5959  0.2847 -1.3574
 2499TIP3    H229057   1.232   1.443   8.699 -0.8645 -0.4225 -0.2661
 2500TIP3   OH229058   4.650   2.741   0.365  0.5847  0.6466  0.3210
 2500TIP3    H129059   4.626   2.691   0.287  1.7656 -1.9711  1.5029
 2500TIP3    H229060   4.714   2.805   0.334 -1.0182  1.5642 -1.2621
 2501TIP3   OH229061   1.721   5.041   8.346  0.1976  0.2211  0.0011
 2501TIP3    H129062   1.702   5.006   8.259 -0.7687  0.0097  0.2835
 2501TIP3    H229063   1.712   4.966   8.405  1.2937  0.2628  0.2393
 2502TIP3   OH229064   5.131   5.085   1.835 -0.5933  0.4008 -0.1792
 2502TIP3    H129065   5.214   5.058   1.875 -0.5665 -1.3176 -1.2827
 2502TIP3    H229066   5.096   5.151   1.895  1.8511  1.6409  0.0045
 2503TIP3   OH229067   2.926   6.683   6.937  0.1141  0.0483  0.5619
 2503TIP3    H129068   2.868   6.641   7.000 -0.1769  0.9422  0.9075
 2503TIP3    H229069   2.966   6.611   6.888 -1.8152 -0.5826 -0.1756
 2504TIP3   OH229070   2.763   4.468   1.500 -0.4364  0.9261 -0.2987
 2504TIP3    H129071   2.791   4.415   1.575 -1.4390  1.3758  0.4100
 2504TIP3    H229072   2.703   4.533   1.537 -2.0367  0.3043 -1.6675
 2505TIP3   OH229073   4.714   6.493   0.062 -0.0018  0.2693  0.0052
 2505TIP3    H129074   4.775   6.516   0.132  0.2519  0.9151 -0.4257
 2505TIP3    H229075   4.629   6.523   0.093 -0.5924 -2.7560  1.6911
 2506TIP3   OH229076   4.931   5.797   1.511  0.5074  0.2791 -0.5447
 2506TIP3    H129077   4.931   5.705   1.484 -0.0529 -0.0684  0.5711
 2506TIP3    H229078   4.999   5.803   1.577 -1.5172 -0.1205  1.7325
 2507TIP3   OH229079   3.441   6.506   8.135  0.1387  0.2490 -0.3578
 2507TIP3    H129080   3.533   6.493   8.113  1.0851  2.4221  1.7507
 2507TIP3    H229081   3.424   6.442   8.204  0.1068 -0.0491 -0.6393
 2508TIP3   OH229082   5.427   6.295   0.752 -0.0328  0.0564  0.4042
 2508TIP3    H129083   5.497   6.359   0.735 -0.3101  0.2864  0.1336
 2508TIP3    H229084   5.348   6.347   0.764 -0.2241 -0.2238  0.3833
 2509TIP3   OH229085   5.843   6.290   7.593  0.3529 -0.0534 -0.0823
 2509TIP3    H129086   5.891   6.354   7.540  0.4482  0.2458  0.3663
 2509TIP3    H229087   5.792   6.343   7.654 -3.9646 -0.0287 -3.2597
 2510TIP3   OH229088   0.138   5.371   7.452 -0.8491 -0.5383  0.0896
 2510TIP3    H129089   0.117   5.378   7.359 -0.2959  1.8565  0.0908
 2510TIP3    H229090   0.230   5.345   7.454 -0.8792 -0.6581 -0.0140
 2511TIP3   OH229091   2.779   1.202   0.837  0.3572 -0.5847 -0.0746
 2511TIP3    H129092   2.835   1.124   0.835  1.0179 -0.1163 -2.5541
 2511TIP3    H229093   2.838   1.275   0.820 -0.2454  0.5679  2.2889
 2512TIP3   OH229094   5.185   2.148   0.089  0.6069  0.2516 -0.0724
 2512TIP3    H129095   5.177   2.217   0.155 -1.5605 -0.0517  0.0561
 2512TIP3    H229096   5.224   2.074   0.137  1.4730  0.8439  0.1733
 2513TIP3   OH229097   2.483   4.327   1.230  0.3443 -0.1604 -0.1384
 2513TIP3    H129098   2.464   4.266   1.158 -2.9921  0.5844 -0.0766
 2513TIP3    H229099   2.424   4.300   1.300  0.1479  1.9675  0.5848
 2514TIP3   OH229100   1.989   2.112   7.191  0.8306  0.0734  0.1299
 2514TIP3    H129101   2.060   2.054   7.163 -0.8455 -1.3975 -1.3437
 2514TIP3    H229102   1.936   2.125   7.112 -0.7722  0.7647  1.2579
 2515TIP3   OH229103   2.428   6.111   0.057 -0.5184 -0.2794 -0.3611
 2515TIP3    H129104   2.383   6.146  -0.019  0.8269  1.0492 -0.5917
 2515TIP3    H229105   2.383   6.150   0.132  0.4143  1.3222 -0.5948
 2516TIP3   OH229106   6.313   5.247   7.790  0.2421 -0.4669 -0.5873
 2516TIP3    H129107   6.239   5.305   7.809  0.0347 -0.9560  0.1292
 2516TIP3    H229108   6.368   5.253   7.868  1.5040  0.7012 -1.5324
 2517TIP3   OH229109   1.634   5.336   2.010 -0.0543  0.0780  0.1879
 2517TIP3    H129110   1.728   5.317   2.004 -0.3133 -1.6617  1.0764
 2517TIP3    H229111   1.596   5.290   1.935 -0.1794  1.0196 -0.3361
 2518TIP3   OH229112   3.114   5.209   2.227 -0.5862 -0.0923  0.0847
 2518TIP3    H129113   3.197   5.175   2.195 -1.1263 -0.4839 -0.9298
 2518TIP3    H229114   3.138   5.291   2.271  0.2001  0.4483 -1.2780
 2519TIP3   OH229115   3.559   2.811   1.525 -0.1807 -0.4391 -0.1981
 2519TIP3    H129116   3.497   2.884   1.516 -0.1802 -0.5454 -1.2681
 2519TIP3    H229117   3.610   2.813   1.444  1.1272 -0.4477  0.5974
 2520TIP3   OH229118   1.882   5.145   2.023  0.6405  0.1082  1.2053
 2520TIP3    H129119   1.945   5.146   2.095  1.4453 -0.5405  0.5213
 2520TIP3    H229120   1.915   5.079   1.963  0.7013  1.5593 -0.4189
 2521TIP3   OH229121   3.561   3.394   6.382 -0.2709 -0.2542  0.2869
 2521TIP3    H129122   3.474   3.424   6.357 -0.6698 -0.1392  1.7367
 2521TIP3    H229123   3.613   3.474   6.387 -0.0174 -0.3379 -0.7347
 2522TIP3   OH229124   1.470   4.925   7.428  0.1191  0.2023 -0.4545
 2522TIP3    H129125   1.498   4.882   7.508 -0.2545  0.9592  0.0899
 2522TIP3    H229126   1.407   4.864   7.389 -0.2574  0.1580  0.2062
 2523TIP3   OH229127   5.730   5.653   2.012  0.2742  0.3307  0.1152
 2523TIP3    H129128   5.681   5.672   2.092  0.2451 -0.4138  0.2812
 2523TIP3    H229129   5.755   5.739   1.978 -0.2602  0.6749  0.5808
 2524TIP3   OH229130   0.877   1.614   0.427 -0.5112  0.1543  0.0198
 2524TIP3    H129131   0.895   1.545   0.490  1.6981  0.7731  0.1485
 2524TIP3    H229132   0.900   1.576   0.342  0.7444  0.6991  0.0947
 2525TIP3   OH229133   5.208   1.060   8.335  0.2867 -0.1240 -0.1000
 2525TIP3    H129134   5.125   1.104   8.322 -1.5594 -2.3048  2.9276
 2525TIP3    H229135   5.256   1.118   8.395 -0.3950 -0.2906  0.6218
 2526TIP3   OH229136   0.351   4.618   7.157 -0.7153  0.0291 -0.0954
 2526TIP3    H129137   0.381   4.581   7.240 -0.7696  0.2291  0.0145
 2526TIP3    H229138   0.430   4.655   7.117 -0.7211  0.0936 -0.0478
 2527TIP3   OH229139   3.575   5.224   0.111  0.0510 -0.1906  0.7532
 2527TIP3    H129140   3.528   5.148   0.079 -1.3024  0.8956  0.0467
 2527TIP3    H229141   3.537   5.241   0.198  1.4874 -1.2339  1.6394
 2528TIP3   OH229142   4.188   2.870   7.205 -0.3308  0.2455 -0.1125
 2528TIP3    H129143   4.217   2.959   7.183 -0.9866  0.4134 -0.3106
 2528TIP3    H229144   4.096   2.880   7.227 -0.1296 -0.2076  0.9978
 2529TIP3   OH229145   3.565   4.655   1.277 -0.4526  0.0641  0.1436
 2529TIP3    H129146   3.586   4.733   1.328  0.1382  0.0048 -0.0014
 2529TIP3    H229147   3.587   4.678   1.187 -0.9592 -0.0248 -0.0033
 2530TIP3   OH229148   6.705   0.012   7.794 -0.1306 -0.3146 -0.2545
 2530TIP3    H129149   6.690  -0.030   7.709  0.1185 -1.4134  0.2175
 2530TIP3    H229150   6.728  -0.061   7.852  0.9629  0.5673  0.4579
 2531TIP3   OH229151   2.969   5.528   7.664  0.5237  0.5561  0.5562
 2531TIP3    H129152   2.954   5.503   7.755 -1.0063  0.8098  0.3993
 2531TIP3    H229153   2.916   5.606   7.652  0.0235  0.0261 -0.7993
 2532TIP3   OH229154   2.701   0.866   0.328  0.1946 -0.1367 -0.6042
 2532TIP3    H129155   2.723   0.828   0.243  0.6351 -0.4475 -0.3561
 2532TIP3    H229156   2.746   0.810   0.392 -0.1951  0.0455 -0.1627
 2533TIP3   OH229157   3.472   2.019   8.252 -0.7429  1.1928 -0.4024
 2533TIP3    H129158   3.382   2.030   8.224 -1.4099  1.5179  1.6635
 2533TIP3    H229159   3.468   2.025   8.348  0.9375 -2.2672  0.0661
 2534TIP3   OH229160   2.661   6.013   2.715  0.2975 -0.2581  0.2173
 2534TIP3    H129161   2.607   5.935   2.724 -0.7541  0.0791 -2.1970
 2534TIP3    H229162   2.750   5.983   2.729 -0.1203 -1.8434 -0.2944
 2535TIP3   OH229163   4.100   1.041   0.898  0.0024 -0.1596  0.0766
 2535TIP3    H129164   4.089   1.117   0.955 -1.5039 -0.9000  0.8026
 2535TIP3    H229165   4.181   1.000   0.928 -0.2407  0.0302  1.0131
 2536TIP3   OH229166   2.056   1.080   8.162  0.0895 -0.2159  0.3023
 2536TIP3    H129167   2.025   1.002   8.208  0.6821 -0.4389  0.3228
 2536TIP3    H229168   1.976   1.120   8.128 -0.2757 -0.5228  0.7732
 2537TIP3   OH229169   6.171   3.113   0.434  0.3305 -1.0106 -0.0288
 2537TIP3    H129170   6.104   3.160   0.484  1.6868 -0.0684  0.9894
 2537TIP3    H229171   6.169   3.153   0.347  0.0842 -0.4533  0.2264
 2538TIP3   OH229172   0.790   5.018   7.764  0.2703 -0.2459 -0.3255
 2538TIP3    H129173   0.827   4.991   7.680  2.7653  0.3053  0.4907
 2538TIP3    H229174   0.841   4.969   7.829 -1.2403 -0.2663  0.8938
 2539TIP3   OH229175   4.378   4.186   1.527 -0.2249 -0.4364  0.0206
 2539TIP3    H129176   4.434   4.243   1.475 -0.8345 -0.1806 -0.3728
 2539TIP3    H229177   4.293   4.189   1.482 -0.2325 -1.7691 -0.1100
 2540TIP3   OH229178   0.622   4.235   2.730  0.0582 -0.4550  0.3950
 2540TIP3    H129179   0.707   4.205   2.697 -0.3252 -1.3676  0.1923
 2540TIP3    H229180   0.641   4.318   2.774  0.5940  0.8386 -2.0919
 2541TIP3   OH229181   5.957   2.130   6.375  0.5824  0.1952  0.0284
 2541TIP3    H129182   6.023   2.189   6.411 -0.1780  0.1232  1.6515
 2541TIP3    H229183   5.876   2.182   6.377  0.7481  0.7559 -3.1857
 2542TIP3   OH229184   5.285   4.325   1.455 -0.6586 -0.1768  0.1609
 2542TIP3    H129185   5.376   4.324   1.426 -1.0687  0.4705 -1.2315
 2542TIP3    H229186   5.240   4.379   1.390 -2.3399 -1.8454 -0.1669
 2543TIP3   OH229187   0.014   2.656   8.324  0.0199 -0.0282 -0.1106
 2543TIP3    H129188   0.042   2.574   8.365 -0.1044 -0.4106 -0.7776
 2543TIP3    H229189  -0.077   2.641   8.300 -0.2455  0.5950  0.4897
 2544TIP3   OH229190   4.246   3.487   7.170  0.3357  0.0834 -0.3365
 2544TIP3    H129191   4.285   3.418   7.116  0.1970 -0.7206  0.5718
 2544TIP3    H229192   4.302   3.563   7.155  1.4054 -0.6411 -0.1843
 2545TIP3   OH229193   2.285   3.450   7.717  0.2405 -0.2011  0.2974
 2545TIP3    H129194   2.325   3.363   7.724 -0.5688 -0.8053 -1.8438
 2545TIP3    H229195   2.359   3.509   7.705  0.6735 -1.0735 -1.7640
 2546TIP3   OH229196   0.522   5.195   7.181 -0.1121  0.0688  0.1939
 2546TIP3    H129197   0.529   5.117   7.127  0.6126 -2.3010  3.4046
 2546TIP3    H229198   0.612   5.227   7.190 -0.5788  2.7526 -2.7945
 2547TIP3   OH229199   3.371   3.269   1.108 -0.8081  0.1865 -0.2747
 2547TIP3    H129200   3.457   3.308   1.096 -0.2265 -0.9783  0.0085
 2547TIP3    H229201   3.341   3.249   1.019  0.4283 -1.9107 -0.2902
 2548TIP3   OH229202   4.053   3.325   8.207 -0.0145 -0.0397  0.0916
 2548TIP3    H129203   4.026   3.271   8.281 -0.2725  0.7745  0.6020
 2548TIP3    H229204   4.019   3.412   8.227  0.0682  0.2318 -0.9001
 2549TIP3   OH229205   0.246   5.074   2.298  0.2221 -0.1640  0.5536
 2549TIP3    H129206   0.286   4.987   2.306  0.3009 -0.0513  1.5799
 2549TIP3    H229207   0.276   5.121   2.376  1.1998  1.2229 -0.5933
 2550TIP3   OH229208   6.215   4.054   6.931 -0.0414 -0.6983  0.0180
 2550TIP3    H129209   6.263   3.986   6.885  1.9090 -0.6965  1.9024
 2550TIP3    H229210   6.220   4.130   6.873  0.3528 -1.3184 -0.7783
 2551TIP3   OH229211   1.194   4.701   2.252 -0.5082 -0.0711  0.1286
 2551TIP3    H129212   1.223   4.709   2.343 -0.9289  0.0674  0.2525
 2551TIP3    H229213   1.249   4.632   2.216 -0.8061 -0.6091  0.6838
 2552TIP3   OH229214   2.916   2.294   1.512 -0.1644 -0.7436  0.3401
 2552TIP3    H129215   2.900   2.205   1.480  0.9952 -1.1843  0.9356
 2552TIP3    H229216   3.004   2.315   1.483 -1.0177  0.8990 -1.2421
 2553TIP3   OH229217   2.965   1.142   6.679  0.5748 -0.9752  0.2702
 2553TIP3    H129218   3.004   1.084   6.614  0.4002 -0.7707 -0.0177
 2553TIP3    H229219   3.019   1.130   6.757  0.3887 -1.7207  0.3003
 2554TIP3   OH229220   1.712   4.715   1.323 -0.0828  0.5466  0.1784
 2554TIP3    H129221   1.678   4.783   1.265 -0.2745  1.3333  1.1630
 2554TIP3    H229222   1.637   4.693   1.379  0.1033 -0.1714  0.1446
 2555TIP3   OH229223   2.940   4.307   6.454 -0.3262 -0.3450  0.0311
 2555TIP3    H129224   2.900   4.258   6.526 -0.9082  1.1583  0.7649
 2555TIP3    H229225   3.021   4.343   6.491 -0.7617  0.6575  0.0203
 2556TIP3   OH229226   0.363   2.566   7.280  0.1100  0.2827 -0.1488
 2556TIP3    H129227   0.420   2.562   7.356  2.4438  0.7948 -1.7605
 2556TIP3    H229228   0.299   2.496   7.294  1.6776 -0.9422  1.3270
 2557TIP3   OH229229   0.144   1.492   0.200  1.2289  0.5659  0.7720
 2557TIP3    H129230   0.140   1.586   0.214 -1.6148  0.7299 -0.3420
 2557TIP3    H229231   0.124   1.454   0.285 -0.9384  1.1390  0.5944
 2558TIP3   OH229232   2.761   6.580   7.109  0.3567 -0.0014  0.3709
 2558TIP3    H129233   2.728   6.572   7.198 -2.9088  0.8571 -0.6272
 2558TIP3    H229234   2.693   6.542   7.054  1.8863  0.2464 -1.8416
 2559TIP3   OH229235   5.486   3.972   7.322 -0.0602 -0.1304 -0.1161
 2559TIP3    H129236   5.471   4.065   7.341  0.8849  0.4909 -2.1602
 2559TIP3    H229237   5.407   3.944   7.277 -0.0978 -0.1405 -0.0423
 2560TIP3   OH229238   4.944   3.362   7.400  0.0790  0.2596  0.6917
 2560TIP3    H129239   4.947   3.331   7.309 -0.9123 -0.6432  0.9392
 2560TIP3    H229240   4.949   3.458   7.393  0.0178  0.2009 -0.3186
 2561TIP3   OH229241   4.023   1.890   8.404 -0.3729 -0.4259  0.4532
 2561TIP3    H129242   4.054   1.804   8.375  0.8688  0.4321 -0.9371
 2561TIP3    H229243   3.935   1.897   8.367  0.3375 -0.2657 -1.3196
 2562TIP3   OH229244   4.120   5.705   7.677  0.1712 -0.3531  0.0268
 2562TIP3    H129245   4.140   5.632   7.735 -0.0704 -0.6057 -0.2015
 2562TIP3    H229246   4.036   5.738   7.708  1.2737  1.2392  1.5133
 2563TIP3   OH229247   1.738   5.832   0.406 -0.5342  0.6579 -0.3589
 2563TIP3    H129248   1.686   5.912   0.397 -0.0216  1.0997  0.5094
 2563TIP3    H229249   1.804   5.838   0.337 -2.1236 -0.3324 -2.0678
 2564TIP3   OH229250   3.914   1.464   8.633  0.2449 -0.9022 -0.9741
 2564TIP3    H129251   3.870   1.548   8.636  0.2690 -0.9255  1.3128
 2564TIP3    H229252   4.004   1.483   8.661 -0.1380 -1.8594  1.0946
 2565TIP3   OH229253   6.720   0.732   1.763 -0.8191  0.0299  0.2440
 2565TIP3    H129254   6.686   0.815   1.798 -0.2647  0.1749  0.4489
 2565TIP3    H229255   6.762   0.690   1.837 -1.5601 -0.6965  0.2679
 2566TIP3   OH229256   1.043   3.826   0.455 -0.7904 -0.3852 -0.1639
 2566TIP3    H129257   1.033   3.841   0.549 -1.6129 -0.5062 -0.2278
 2566TIP3    H229258   1.121   3.771   0.447 -0.2472  0.2967  0.3874
 2567TIP3   OH229259   2.185   1.925   1.657  0.0064 -0.3260 -0.2056
 2567TIP3    H129260   2.119   1.954   1.594 -0.1086 -0.1928 -0.0261
 2567TIP3    H229261   2.166   1.832   1.669 -0.7014 -0.1005  0.4963
 2568TIP3   OH229262   6.322   3.595   8.600 -0.2480 -0.4343 -0.0231
 2568TIP3    H129263   6.274   3.527   8.553 -0.5425  0.0538 -0.4183
 2568TIP3    H229264   6.414   3.568   8.592 -0.3548 -0.7386 -0.2535
 2569TIP3   OH229265   2.417   4.662   6.129 -0.2050  0.2184  0.0582
 2569TIP3    H129266   2.504   4.680   6.164 -0.3795  0.3806  0.4148
 2569TIP3    H229267   2.377   4.748   6.115 -0.7966  0.1501  1.1563
 2570TIP3   OH229268   4.582   2.226   8.171  0.3018  0.3217  0.5658
 2570TIP3    H129269   4.624   2.140   8.176 -0.9160 -0.2362  2.3770
 2570TIP3    H229270   4.529   2.221   8.091  0.3884 -0.5358  0.5423
 2571TIP3   OH229271   6.677   0.645   1.309 -0.5747  0.3193  0.0736
 2571TIP3    H129272   6.626   0.723   1.331 -1.8373 -0.2332 -0.7892
 2571TIP3    H229273   6.768   0.675   1.309 -1.0656  1.9073 -0.7124
 2572TIP3   OH229274   1.338   5.865   7.477 -0.5945  0.1751  0.5760
 2572TIP3    H129275   1.397   5.855   7.551 -0.6616 -0.8510  0.5029
 2572TIP3    H229276   1.310   5.957   7.481  0.8162  0.6247  0.7417
 2573TIP3   OH229277   4.701   1.395   0.437  0.5707  0.5094  0.6767
 2573TIP3    H129278   4.739   1.369   0.522  0.4855 -0.2623  0.4869
 2573TIP3    H229279   4.615   1.431   0.459  0.5014  0.2083  0.9113
 2574TIP3   OH229280   3.147   3.162   8.633  0.1212 -0.3525  0.4494
 2574TIP3    H129281   3.221   3.104   8.614  1.2269  1.6427 -2.0197
 2574TIP3    H229282   3.080   3.135   8.571 -0.4002 -0.7273  1.1704
 2575TIP3   OH229283   5.501   3.839   6.276  0.0080 -0.0820 -0.1445
 2575TIP3    H129284   5.449   3.906   6.232 -0.1109 -0.3240 -0.3772
 2575TIP3    H229285   5.440   3.766   6.288  0.6731 -0.9581 -1.7797
 2576TIP3   OH229286   2.444   5.639   0.608  0.1615  0.2463  0.3529
 2576TIP3    H129287   2.489   5.583   0.672 -1.9888 -0.4556  1.3402
 2576TIP3    H229288   2.384   5.691   0.661  0.1159  1.4801 -0.8762
 2577TIP3   OH229289   6.540   1.365   7.459 -0.5818 -0.6459 -0.2433
 2577TIP3    H129290   6.529   1.306   7.384  0.3032 -0.6489 -0.3849
 2577TIP3    H229291   6.494   1.322   7.531  0.0470 -1.5178 -0.3426
 2578TIP3   OH229292   2.105   1.661   1.700  0.1026  0.7004 -0.5310
 2578TIP3    H129293   2.021   1.648   1.656  0.0107  0.5646 -0.3126
 2578TIP3    H229294   2.098   1.613   1.782  1.0170 -0.7540 -1.2595
 2579TIP3   OH229295   1.569   2.983   7.932  0.2756  0.1140 -0.1414
 2579TIP3    H129296   1.540   2.900   7.895 -0.8797  0.8296 -0.8981
 2579TIP3    H229297   1.654   2.999   7.892  0.4277 -0.6216 -0.1168
 2580TIP3   OH229298   6.480   3.656   7.971 -0.1218  0.4798 -0.4792
 2580TIP3    H129299   6.545   3.612   7.916  0.6041  1.2973 -0.2962
 2580TIP3    H229300   6.422   3.700   7.908  1.5115  2.5554 -0.6250
 2581TIP3   OH229301   4.381   5.149   6.801 -0.1392  0.0488 -0.3394
 2581TIP3    H129302   4.337   5.074   6.761  0.3406  0.3081 -1.3927
 2581TIP3    H229303   4.321   5.222   6.786 -0.1546  0.0674 -0.1887
 2582TIP3   OH229304   0.329   2.904   8.434 -0.9128 -1.0221  0.1362
 2582TIP3    H129305   0.419   2.872   8.431  0.3808  2.2534  0.2606
 2582TIP3    H229306   0.327   2.964   8.509 -2.7172  0.2679 -0.8619
 2583TIP3   OH229307   6.782   3.409   8.208 -0.4318 -0.2314 -0.6400
 2583TIP3    H129308   6.812   3.345   8.272  1.1767 -0.4125 -1.5025
 2583TIP3    H229309   6.738   3.358   8.141 -2.3113 -0.0190  0.3813
 2584TIP3   OH229310   1.492   2.404   6.824 -0.2278  0.4368 -0.1158
 2584TIP3    H129311   1.563   2.417   6.888 -0.1260  0.8262 -0.3022
 2584TIP3    H229312   1.518   2.326   6.775  0.6137  1.1682 -0.8775
 2585TIP3   OH229313   2.954   2.401   6.741  0.3389  0.6733 -0.3209
 2585TIP3    H129314   3.027   2.347   6.710 -2.5611 -3.1766 -1.2828
 2585TIP3    H229315   2.893   2.403   6.667 -3.0690 -1.4672  2.1493
 2586TIP3   OH229316   0.088   5.615   2.776 -0.0373  0.6931  0.5239
 2586TIP3    H129317   0.051   5.703   2.777 -0.6570  0.4784 -0.9744
 2586TIP3    H229318   0.151   5.616   2.705  0.2563  0.0416  0.7702
 2587TIP3   OH229319   2.673   4.629   7.218 -0.3426 -0.2202  0.6206
 2587TIP3    H129320   2.743   4.673   7.266 -0.7839  0.6716  0.4659
 2587TIP3    H229321   2.610   4.604   7.286 -0.1313 -0.5580  0.6980
 2588TIP3   OH229322   5.121   0.839   8.142  0.4983 -0.8983  0.4052
 2588TIP3    H129323   5.135   0.926   8.179 -0.7468  0.0849 -1.3163
 2588TIP3    H229324   5.195   0.827   8.082 -0.8049  0.2650 -1.5374
 2589TIP3   OH229325   2.052   3.392   8.251 -0.4825  0.4043 -0.2756
 2589TIP3    H129326   2.083   3.305   8.224  1.6930  0.3244  2.1723
 2589TIP3    H229327   2.064   3.446   8.173  1.4069 -0.7561 -0.8684
 2590TIP3   OH229328   5.597   6.495   8.040 -0.2043 -0.1067  0.3121
 2590TIP3    H129329   5.553   6.493   8.125 -2.7454 -3.6880 -0.8728
 2590TIP3    H229330   5.533   6.534   7.981  1.3750  1.9419 -0.1732
 2591TIP3   OH229331   1.726   4.685   6.952 -0.9367 -0.1717  0.3878
 2591TIP3    H129332   1.708   4.761   7.008  0.6010  0.2779  0.2947
 2591TIP3    H229333   1.810   4.705   6.911 -0.7171 -1.7469  0.0404
 2592TIP3   OH229334   6.375   4.352   0.556 -0.4958  0.3084  0.0609
 2592TIP3    H129335   6.386   4.275   0.612  0.0744  1.3440  1.4336
 2592TIP3    H229336   6.293   4.336   0.510 -0.2641 -1.2277  0.1282
 2593TIP3   OH229337   5.972   2.443   0.563 -0.4771 -0.2089 -0.0025
 2593TIP3    H129338   6.053   2.397   0.544 -1.1148 -1.3254 -0.1030
 2593TIP3    H229339   5.994   2.536   0.551  1.4273 -0.2684  2.3631
 2594TIP3   OH229340   2.698   1.022   8.542 -0.1220 -0.2370  0.2667
 2594TIP3    H129341   2.644   0.991   8.470 -1.0527 -1.4813  1.4455
 2594TIP3    H229342   2.640   1.079   8.593  0.5903  0.8107 -0.0708
 2595TIP3   OH229343   2.205   4.199   0.567 -0.2477 -0.5133 -0.2974
 2595TIP3    H129344   2.265   4.177   0.496  0.3174  0.4974 -0.1460
 2595TIP3    H229345   2.256   4.256   0.625 -1.5785  1.0267 -0.5728
 2596TIP3   OH229346   0.138   5.057   1.103 -1.1137  0.4392 -0.0991
 2596TIP3    H129347   0.147   4.963   1.085  1.1245  0.1034  2.1189
 2596TIP3    H229348   0.051   5.080   1.071 -2.6213 -2.8845  1.1404
 2597TIP3   OH229349   6.681   4.418   1.798 -0.3276 -0.1099  0.2448
 2597TIP3    H129350   6.746   4.382   1.739 -0.2177  0.9068 -0.2855
 2597TIP3    H229351   6.708   4.388   1.885  1.7544  1.4912  0.2339
 2598TIP3   OH229352   5.338   6.653   7.077 -0.0119  0.1848  0.0559
 2598TIP3    H129353   5.312   6.715   7.010  0.2988 -2.4013 -2.6633
 2598TIP3    H229354   5.256   6.633   7.124 -0.8864 -0.1532 -1.5471
 2599TIP3   OH229355   6.554   0.408   6.380  0.2487  0.2978 -0.0437
 2599TIP3    H129356   6.573   0.502   6.377  0.0523  0.3233 -2.3620
 2599TIP3    H229357   6.639   0.367   6.397  1.4707  0.7284 -4.1500
 2600TIP3   OH229358   6.811   4.915   0.171 -0.0442 -0.4879  0.0824
 2600TIP3    H129359   6.805   4.980   0.101 -0.4972 -0.6368 -0.0239
 2600TIP3    H229360   6.899   4.879   0.163  0.4370  0.5397  0.5341
 2601TIP3   OH229361   5.345   4.045   1.738 -0.1427  0.0726  0.3306
 2601TIP3    H129362   5.283   4.048   1.811  0.6998  0.5112  1.0537
 2601TIP3    H229363   5.360   4.137   1.716 -1.4752 -0.0611 -1.3843
 2602TIP3   OH229364   6.164   6.673   0.204  0.1026 -0.0615 -0.4110
 2602TIP3    H129365   6.220   6.695   0.279  0.7972 -2.4939 -0.1124
 2602TIP3    H229366   6.225   6.663   0.131 -0.3872  0.7062 -0.9384
 2603TIP3   OH229367   0.469   0.917   7.598  0.1803 -0.0163 -0.1975
 2603TIP3    H129368   0.523   0.964   7.661  0.5945 -1.0380  0.2353
 2603TIP3    H229369   0.410   0.864   7.653  1.0652 -1.5057 -0.6324
 2604TIP3   OH229370   3.559   3.610   0.396  0.0033 -0.3438  0.2009
 2604TIP3    H129371   3.591   3.605   0.486  1.1128  1.6932 -0.0198
 2604TIP3    H229372   3.475   3.564   0.398  0.9661 -2.1871  1.7713
 2605TIP3   OH229373   3.390   5.434   0.827 -0.2519  0.1392 -0.3068
 2605TIP3    H129374   3.364   5.483   0.749  0.5495  0.6506 -0.2628
 2605TIP3    H229375   3.356   5.485   0.900  0.8291  0.8079 -0.2492
 2606TIP3   OH229376   2.148   4.337   1.833  0.2395 -0.2747  0.1976
 2606TIP3    H129377   2.127   4.244   1.823 -1.3648  0.1426 -0.8225
 2606TIP3    H229378   2.240   4.339   1.857  0.6266 -2.0896 -0.9452
 2607TIP3   OH229379   1.379   0.398   0.338  0.2582 -0.1681  0.0783
 2607TIP3    H129380   1.301   0.343   0.327  0.4588 -0.6185  0.8627
 2607TIP3    H229381   1.344   0.488   0.339 -0.2285 -0.3520  0.2188
 2608TIP3   OH229382   3.125   0.044   1.607 -0.4823  0.1945  0.0169
 2608TIP3    H129383   3.185   0.050   1.681  1.3701 -0.4277 -1.3352
 2608TIP3    H229384   3.088  -0.044   1.612  0.2780 -0.1461 -0.2329
 2609TIP3   OH229385   1.482   3.420   2.023  0.1919 -0.3919 -0.0619
 2609TIP3    H129386   1.479   3.356   2.094  2.1790 -0.6990 -0.2035
 2609TIP3    H229387   1.538   3.490   2.056 -0.7066  0.5557 -0.4973
 2610TIP3   OH229388   0.429   6.658   8.068  0.5426  0.1251 -0.3135
 2610TIP3    H129389   0.423   6.620   8.155 -0.7596  0.7492 -0.1019
 2610TIP3    H229390   0.423   6.583   8.009 -0.8216 -0.1332  0.1122
 2611TIP3   OH229391   1.947   0.321   7.465  0.2998 -0.5027  0.0058
 2611TIP3    H129392   1.951   0.258   7.536 -0.3397 -0.1332  0.3853
 2611TIP3    H229393   1.913   0.271   7.390 -1.4155 -0.3613  0.6375
 2612TIP3   OH229394   2.979   0.268   0.885  0.3468 -0.2964 -0.1396
 2612TIP3    H129395   2.925   0.341   0.854  0.3840  0.2618  1.0643
 2612TIP3    H229396   3.024   0.237   0.807  1.6956  2.1096 -0.4178
 2613TIP3   OH229397   0.682   4.828   0.702 -0.2808 -0.1498 -0.1920
 2613TIP3    H129398   0.641   4.746   0.673  0.0938 -0.3941 -0.0411
 2613TIP3    H229399   0.686   4.820   0.798  0.6631 -0.3948 -0.2402
 2614TIP3   OH229400   4.540   6.094   1.287 -0.1006  0.3634  0.0137
 2614TIP3    H129401   4.628   6.116   1.320 -0.4963  1.2708  0.4970
 2614TIP3    H229402   4.557   6.040   1.210  0.8649 -1.9510  1.7206
 2615TIP3   OH229403   1.266   0.651   0.304  0.1680 -0.5827 -0.2271
 2615TIP3    H129404   1.246   0.691   0.389  1.5759  1.7579 -0.8977
 2615TIP3    H229405   1.344   0.697   0.274  0.0066 -1.7028 -2.5882
 2616TIP3   OH229406   1.304   4.384   8.325  0.4417 -0.2399 -0.3123
 2616TIP3    H129407   1.332   4.455   8.383 -0.1222  0.1455 -0.4997
 2616TIP3    H229408   1.372   4.378   8.258  1.8291 -1.6235  1.1451
 2617TIP3   OH229409   3.272   3.534   0.167  0.8603 -0.8974 -0.0641
 2617TIP3    H129410   3.203   3.469   0.157  0.8294 -0.9884  0.6867
 2617TIP3    H229411   3.234   3.601   0.224  0.8331 -0.1268 -0.9680
 2618TIP3   OH229412   1.776   5.929   7.466 -0.2536 -0.1684  0.0173
 2618TIP3    H129413   1.844   5.890   7.522  0.2759  1.2360  0.3949
 2618TIP3    H229414   1.762   5.864   7.397  1.1901 -0.6550  0.1483
 2619TIP3   OH229415   4.431   6.767   6.356  0.2302  0.2573 -0.2067
 2619TIP3    H129416   4.494   6.810   6.298 -0.9553  2.4390 -0.0118
 2619TIP3    H229417   4.371   6.722   6.297  1.4958 -1.2034 -0.4235
 2620TIP3   OH229418   5.053   4.300   6.234  0.4649 -0.3514 -0.2803
 2620TIP3    H129419   5.083   4.222   6.281  0.7000 -0.7937 -1.1463
 2620TIP3    H229420   4.959   4.305   6.256  0.7482 -0.0432  0.9210
 2621TIP3   OH229421   5.914   1.189   6.765 -0.2391 -0.0480 -0.0418
 2621TIP3    H129422   5.944   1.112   6.715 -1.2480 -0.7193  0.3634
 2621TIP3    H229423   5.937   1.169   6.856 -0.2515  0.2613  0.0308
 2622TIP3   OH229424   4.721   1.586   1.269  0.0284  0.3506  0.3903
 2622TIP3    H129425   4.778   1.540   1.331  1.6234  1.7198  0.0336
 2622TIP3    H229426   4.648   1.618   1.323  1.4767  1.6764  1.6677
 2623TIP3   OH229427   1.039   5.851   6.702 -0.7121  0.0759 -0.3201
 2623TIP3    H129428   1.093   5.809   6.769 -1.3908  1.3989  1.1235
 2623TIP3    H229429   1.042   5.790   6.628  1.3933 -0.6731  0.2833
 2624TIP3   OH229430   0.181   1.865   7.809 -0.3115  0.1809  0.4752
 2624TIP3    H129431   0.143   1.778   7.821  0.3024 -0.0319  0.9737
 2624TIP3    H229432   0.214   1.889   7.896 -1.6303  1.4857  0.6406
 2625TIP3   OH229433   2.327   1.163   8.145 -0.0151 -0.0393 -0.0417
 2625TIP3    H129434   2.239   1.128   8.158 -0.3562  0.5407 -0.7100
 2625TIP3    H229435   2.367   1.104   8.082 -1.4302  1.9934 -3.1005
 2626TIP3   OH229436   3.125   4.601   8.289  0.3792 -0.0769 -0.6162
 2626TIP3    H129437   3.180   4.644   8.224  1.2568  1.2771  0.9381
 2626TIP3    H229438   3.151   4.509   8.286  1.9007  0.3350 -0.7400
 2627TIP3   OH229439   4.329   1.561   1.341 -0.0022  0.4020 -0.1140
 2627TIP3    H129440   4.302   1.484   1.391 -0.7495  1.5335  1.2852
 2627TIP3    H229441   4.402   1.598   1.390  1.8511 -0.5898 -1.9548
 2628TIP3   OH229442   4.829   6.557   7.903  0.4145  0.4253  0.0357
 2628TIP3    H129443   4.866   6.627   7.957  1.2006  0.6889 -0.8218
 2628TIP3    H229444   4.815   6.484   7.964  0.4820  1.0037  0.7518
 2629TIP3   OH229445   4.454   6.472   7.041 -0.1186 -0.0606 -0.3536
 2629TIP3    H129446   4.379   6.459   6.983 -0.6866  2.2747 -0.2760
 2629TIP3    H229447   4.419   6.526   7.113  1.0631 -1.0822  1.0426
 2630TIP3   OH229448   6.652   3.922   7.342  0.1711 -0.3022  0.0304
 2630TIP3    H129449   6.650   3.887   7.253 -1.6456 -0.4410  0.0910
 2630TIP3    H229450   6.573   3.976   7.348  0.2491 -0.3287  1.5641
 2631TIP3   OH229451   0.198   6.660   0.381 -0.8492  0.3585 -0.4921
 2631TIP3    H129452   0.112   6.701   0.394  0.0154  2.4558 -1.0005
 2631TIP3    H229453   0.255   6.703   0.445  0.2117  0.2608 -1.3503
 2632TIP3   OH229454   6.251   4.673   0.059 -0.1489 -0.2504  0.6467
 2632TIP3    H129455   6.300   4.598   0.026 -0.0621 -0.4261  1.1663
 2632TIP3    H229456   6.262   4.670   0.154  1.0514  1.2423  0.6077
 2633TIP3   OH229457   5.403   1.341   8.107  0.5198 -0.3107 -0.3253
 2633TIP3    H129458   5.392   1.248   8.127 -0.6823 -0.2427 -0.6119
 2633TIP3    H229459   5.320   1.381   8.134  0.5571  0.4852 -1.3586
 2634TIP3   OH229460   4.619   4.812   1.368  0.0153 -0.1036  0.2851
 2634TIP3    H129461   4.543   4.850   1.413  0.7158  0.5628  0.9202
 2634TIP3    H229462   4.661   4.757   1.434  0.5896  0.2348  0.2074
 2635TIP3   OH229463   5.880   0.305   0.606 -0.3772  0.2602 -0.4932
 2635TIP3    H129464   5.883   0.358   0.686  1.3054 -0.8398  0.2356
 2635TIP3    H229465   5.878   0.368   0.535  0.1454  1.2861  0.3754
 2636TIP3   OH229466   0.887   3.056   0.170  0.3758 -0.1136  0.2452
 2636TIP3    H129467   0.970   3.084   0.130  0.8686  0.6347  1.7394
 2636TIP3    H229468   0.845   3.003   0.102  2.4306 -1.1635 -0.3046
 2637TIP3   OH229469   4.216   0.590   0.622  0.3529  0.3357 -0.1483
 2637TIP3    H129470   4.254   0.512   0.663 -0.6056 -0.7511 -1.2066
 2637TIP3    H229471   4.136   0.557   0.580 -0.0168  1.8853 -0.7103
 2638TIP3   OH229472   2.725   4.601   0.944  0.4585  0.5978 -0.3251
 2638TIP3    H129473   2.686   4.534   0.888  2.1165  0.1911 -1.0746
 2638TIP3    H229474   2.695   4.579   1.032  1.2457 -1.4194 -0.4910
 2639TIP3   OH229475   6.570   3.952   0.539 -0.1571 -0.0557 -0.1001
 2639TIP3    H129476   6.635   3.888   0.568 -0.5050 -0.7633 -0.8281
 2639TIP3    H229477   6.592   3.967   0.447 -0.4980  0.3479 -0.1134
 2640TIP3   OH229478   4.574   5.699   7.769 -0.3937 -0.0217  0.6677
 2640TIP3    H129479   4.502   5.726   7.711  0.2635  1.0622  0.3336
 2640TIP3    H229480   4.567   5.758   7.844 -1.0147 -1.1782  1.5561
 2641TIP3   OH229481   3.270   1.907   0.162 -0.2032  0.4113 -0.3001
 2641TIP3    H129482   3.233   1.988   0.195  1.2720  1.7762 -1.8100
 2641TIP3    H229483   3.207   1.878   0.095  0.4256  1.6829 -1.4972
 2642TIP3   OH229484   2.816   1.601   8.181 -0.1081 -0.0010 -0.2200
 2642TIP3    H129485   2.756   1.561   8.243 -1.9527  0.4001 -1.6510
 2642TIP3    H229486   2.854   1.528   8.132 -1.6948 -0.1614 -1.2620
 2643TIP3   OH229487   0.595   1.419   8.496  0.7381 -0.2808  0.4399
 2643TIP3    H129488   0.590   1.514   8.504  0.2380 -0.3572  1.2081
 2643TIP3    H229489   0.534   1.398   8.426  1.2510  0.0027 -0.1006
 2644TIP3   OH229490   2.338   6.754   0.431 -0.1261 -0.2644 -0.4571
 2644TIP3    H129491   2.270   6.816   0.456  1.2779  0.8594  0.7089
 2644TIP3    H229492   2.295   6.668   0.437 -1.1380  0.3194  1.3466
 2645TIP3   OH229493   0.599   3.550   7.133 -0.4773  0.2712 -0.2159
 2645TIP3    H129494   0.624   3.612   7.064 -1.2213  1.9924  1.0004
 2645TIP3    H229495   0.514   3.516   7.105 -1.8690  2.6635  0.8439
 2646TIP3   OH229496   6.121   2.549   7.110  0.1425 -0.0355  0.2157
 2646TIP3    H129497   6.191   2.488   7.090 -0.6523 -0.9590  0.1655
 2646TIP3    H229498   6.109   2.600   7.030  1.9469  1.4100  0.7795
 2647TIP3   OH229499   4.082   6.358   1.018  0.1441  0.1043 -0.1688
 2647TIP3    H129500   4.051   6.429   0.962 -0.3653  0.6991  0.8430
 2647TIP3    H229501   4.086   6.397   1.106 -0.3517 -1.1819  0.4379
 2648TIP3   OH229502   0.712   5.985   1.431 -0.0335 -0.6693 -0.1549
 2648TIP3    H129503   0.771   6.061   1.434 -0.3655 -0.4565  1.2649
 2648TIP3    H229504   0.646   6.009   1.366  0.1099  0.0659 -0.0377
 2649TIP3   OH229505   5.859   6.449   8.099  0.7867 -0.2209 -0.1850
 2649TIP3    H129506   5.895   6.536   8.081  1.0936 -0.0746  1.0602
 2649TIP3    H229507   5.768   6.454   8.070  0.7795  0.5404 -0.0365
 2650TIP3   OH229508   1.215   0.370   7.838 -0.4597  0.2864 -0.1255
 2650TIP3    H129509   1.157   0.348   7.911 -2.5604 -0.2280 -1.8552
 2650TIP3    H229510   1.158   0.410   7.773  2.0054  4.9461  0.0934
 2651TIP3   OH229511   2.031   4.793   1.579 -1.1456  0.3866  0.2633
 2651TIP3    H129512   2.064   4.714   1.623  0.5946  1.1179  0.3860
 2651TIP3    H229513   1.949   4.766   1.538  0.3759 -2.0862 -1.4523
 2652TIP3   OH229514   4.652   3.124   8.069 -0.2592 -0.0123 -0.3075
 2652TIP3    H129515   4.661   3.219   8.070  0.5153 -0.0746  1.4320
 2652TIP3    H229516   4.672   3.099   7.979  0.5176  1.3926 -0.5490
 2653TIP3   OH229517   0.711   0.118   7.089  0.2283 -0.5028 -0.6885
 2653TIP3    H129518   0.798   0.100   7.125  0.6965  0.7635 -1.0993
 2653TIP3    H229519   0.651   0.074   7.148  1.1696 -2.1985 -0.9197
 2654TIP3   OH229520   2.444   6.183   0.685 -0.5847 -0.4276  0.1836
 2654TIP3    H129521   2.419   6.275   0.684  1.2477  0.1047  0.1694
 2654TIP3    H229522   2.424   6.153   0.774  0.4437  0.4731  0.7301
 2655TIP3   OH229523   1.342   0.304   1.403 -0.6023  0.0797 -0.4202
 2655TIP3    H129524   1.417   0.299   1.344 -0.0624 -2.0129  0.3335
 2655TIP3    H229525   1.377   0.346   1.482 -0.9592  1.5617 -1.0139
 2656TIP3   OH229526   3.977   0.998   7.487 -0.1273 -0.0254  0.0734
 2656TIP3    H129527   4.050   1.034   7.437  0.4024  0.4379  1.1356
 2656TIP3    H229528   3.934   0.937   7.427  0.2664  0.7619 -1.0506
 2657TIP3   OH229529   4.715   0.403   8.146  0.0189 -0.2965 -0.4479
 2657TIP3    H129530   4.621   0.399   8.163 -0.3347 -1.1998 -2.3553
 2657TIP3    H229531   4.740   0.313   8.129  1.6798 -0.3659  1.9373
 2658TIP3   OH229532   6.119   3.807   7.647  0.2079 -0.0630  0.8608
 2658TIP3    H129533   6.048   3.863   7.614  0.7792  0.6738  0.8562
 2658TIP3    H229534   6.116   3.729   7.591 -0.9918 -0.3364  1.2587
 2659TIP3   OH229535   6.459   1.624   7.172  0.5534 -0.7081 -0.8942
 2659TIP3    H129536   6.413   1.633   7.088 -0.0636  0.0705 -0.4802
 2659TIP3    H229537   6.463   1.712   7.207  0.6256 -1.0584 -0.0047
 2660TIP3   OH229538   3.846   2.250   0.920 -0.5955 -0.4960  0.0735
 2660TIP3    H129539   3.784   2.210   0.858 -0.3023  0.0125 -0.5579
 2660TIP3    H229540   3.876   2.330   0.876  0.5329 -0.7450  0.3500
 2661TIP3   OH229541   0.456   4.722   1.116  0.4139  0.8198 -0.9672
 2661TIP3    H129542   0.501   4.689   1.193 -1.1890 -1.0349 -0.7694
 2661TIP3    H229543   0.367   4.688   1.123  0.1150  0.9112 -3.4310
 2662TIP3   OH229544   3.155   2.227   0.181  0.1956 -0.6022  0.1394
 2662TIP3    H129545   3.161   2.294   0.113 -0.1680 -1.3680 -0.6700
 2662TIP3    H229546   3.079   2.175   0.157  0.9061 -1.7675  0.3102
 2663TIP3   OH229547   0.909   1.220   0.101  0.2448  0.1057  0.3752
 2663TIP3    H129548   0.991   1.204   0.055  0.6476  1.1731  0.6954
 2663TIP3    H229549   0.895   1.141   0.153  0.7799 -0.3111 -0.1001
 2664TIP3   OH229550   6.142   6.344   7.367  0.1337  0.6117  0.0350
 2664TIP3    H129551   6.192   6.310   7.293  0.7074 -1.4191  1.2473
 2664TIP3    H229552   6.051   6.340   7.339  0.2090 -1.6320 -0.1100
 2665TIP3   OH229553   6.589   2.503   0.702  0.3529  0.1464 -0.5772
 2665TIP3    H129554   6.609   2.590   0.736  0.5687 -0.2810  0.4083
 2665TIP3    H229555   6.494   2.494   0.714  0.8048 -1.2273  2.9784
 2666TIP3   OH229556   3.334   2.272   2.232  0.1911  0.5457 -1.1706
 2666TIP3    H129557   3.292   2.315   2.158 -1.9493  1.8655  0.6671
 2666TIP3    H229558   3.409   2.329   2.252 -1.6753  2.7012  0.2110
 2667TIP3   OH229559   6.680   2.670   7.677 -0.1643  0.2100 -0.2688
 2667TIP3    H129560   6.599   2.637   7.717  1.4129 -3.4243  0.3497
 2667TIP3    H229561   6.704   2.603   7.613  2.8442  0.6186  0.2806
 2668TIP3   OH229562   6.052   0.117   7.546 -0.7080 -0.4523 -0.4701
 2668TIP3    H129563   5.979   0.072   7.588 -1.5191  0.5617 -0.7397
 2668TIP3    H229564   6.089   0.172   7.615 -1.4922  0.5542 -0.8216
 2669TIP3   OH229565   2.318   0.878   8.501 -0.2364 -0.0146 -0.2028
 2669TIP3    H129566   2.230   0.865   8.464 -0.6423  0.3573  0.5904
 2669TIP3    H229567   2.377   0.841   8.437 -1.0647 -1.6220 -0.0908
 2670TIP3   OH229568   4.876   5.669   0.282  0.6053  0.2350 -0.4754
 2670TIP3    H129569   4.823   5.703   0.210  0.1340 -0.4525 -0.4625
 2670TIP3    H229570   4.817   5.612   0.331  0.9413  0.6213  0.4130
 2671TIP3   OH229571   1.283   0.750   1.535  0.1122 -0.1108  0.3672
 2671TIP3    H129572   1.325   0.831   1.561 -0.5019  1.3020 -2.6270
 2671TIP3    H229573   1.190   0.773   1.526  0.0317 -0.9144 -1.1896
 2672TIP3   OH229574   2.111   5.574   8.046 -0.0155 -0.2267 -0.4147
 2672TIP3    H129575   2.163   5.579   7.966 -0.1494 -0.9562 -0.5512
 2672TIP3    H229576   2.139   5.494   8.089 -1.0074 -0.6254 -0.4836
 2673TIP3   OH229577   3.402   5.852   7.468  0.7744 -0.4513  0.9682
 2673TIP3    H129578   3.480   5.797   7.478  1.3287  0.3782  1.3408
 2673TIP3    H229579   3.329   5.794   7.490  1.3394 -1.0497  1.3036
 2674TIP3   OH229580   0.552   2.702   8.366  1.1189 -0.0947  0.5018
 2674TIP3    H129581   0.595   2.664   8.443  2.1070  0.4218  0.2283
 2674TIP3    H229582   0.605   2.670   8.292  0.7061  0.1236  0.1100
 2675TIP3   OH229583   2.479   3.060   7.090 -0.3009 -0.0272  0.2493
 2675TIP3    H129584   2.455   3.148   7.060 -1.3797 -0.6771 -0.8716
 2675TIP3    H229585   2.411   3.037   7.153 -0.6043 -0.4391 -0.2163
 2676TIP3   OH229586   2.513   3.896   0.291 -0.3109 -0.2256 -0.0005
 2676TIP3    H129587   2.550   3.853   0.213  0.6402  0.3193  0.1351
 2676TIP3    H229588   2.471   3.825   0.340 -0.7805 -0.6036 -0.9246
 2677TIP3   OH229589   1.449   1.638   1.467 -0.2670  0.5353  0.3947
 2677TIP3    H129590   1.448   1.551   1.505  2.3494 -0.0462 -0.7015
 2677TIP3    H229591   1.489   1.693   1.534  1.7535  0.0588 -0.3618
 2678TIP3   OH229592   5.685   3.650   8.210 -0.9447  0.1416 -0.1071
 2678TIP3    H129593   5.671   3.661   8.304 -2.4126 -0.4882 -0.2239
 2678TIP3    H229594   5.616   3.703   8.170  0.6670  1.7525 -0.8881
 2679TIP3   OH229595   4.967   4.854   2.028 -0.0019 -1.0425  0.1408
 2679TIP3    H129596   5.060   4.857   2.051 -0.2741 -0.6702  1.2677
 2679TIP3    H229597   4.926   4.916   2.088 -0.6779  0.6030 -1.8928
 2680TIP3   OH229598   0.861   5.299   7.779 -0.0592  0.4349  0.1909
 2680TIP3    H129599   0.819   5.223   7.739  0.8854 -1.2102  2.1097
 2680TIP3    H229600   0.954   5.291   7.756  0.2347  0.3276  1.3445
 2681TIP3   OH229601   3.640   1.672   0.921  0.3452 -0.1372  0.0750
 2681TIP3    H129602   3.662   1.587   0.883  0.5831  0.1954 -0.5624
 2681TIP3    H229603   3.716   1.695   0.974 -0.9984 -1.7630  2.9308
 2682TIP3   OH229604   1.182   1.432   7.686 -0.1418 -0.2354  0.4678
 2682TIP3    H129605   1.171   1.363   7.752 -1.0582 -1.4452 -0.8759
 2682TIP3    H229606   1.093   1.461   7.666  0.1512  0.4162  0.0863
 2683TIP3   OH229607   2.000   2.402   7.285 -0.3756  0.7202 -0.3423
 2683TIP3    H129608   1.981   2.493   7.306 -0.3795  0.9706 -1.4043
 2683TIP3    H229609   1.915   2.358   7.289 -0.5560  1.0047 -0.9872
 2684TIP3   OH229610   5.591   4.651   1.578  0.3189 -0.0895  0.5785
 2684TIP3    H129611   5.620   4.560   1.567 -1.4812 -0.4742 -1.8109
 2684TIP3    H229612   5.652   4.702   1.525 -0.3263 -0.2993 -0.4017
 2685TIP3   OH229613   5.913   4.140   6.715  0.2388  0.2851  0.3323
 2685TIP3    H129614   5.965   4.176   6.643  0.8851 -0.0447  0.6326
 2685TIP3    H229615   5.837   4.198   6.721  0.2328  0.3867 -0.5389
 2686TIP3   OH229616   5.432   0.108   1.002  0.2716  0.1594  0.1978
 2686TIP3    H129617   5.426   0.163   0.924 -2.3975  0.3313  0.4415
 2686TIP3    H229618   5.424   0.169   1.076  0.5831 -0.2290  0.5620
 2687TIP3   OH229619   0.667   3.466   7.379  0.1343 -0.1995  0.8268
 2687TIP3    H129620   0.588   3.496   7.425 -1.9153 -2.8177 -0.7140
 2687TIP3    H229621   0.648   3.482   7.286  0.7968 -2.0258  0.3266
 2688TIP3   OH229622   3.605   1.377   8.652  0.6350  0.0663 -0.6781
 2688TIP3    H129623   3.690   1.394   8.693  0.6501  1.1298 -1.1307
 2688TIP3    H229624   3.606   1.428   8.572 -0.3471 -0.0933 -0.8042
 2689TIP3   OH229625   3.388   3.000   0.877  0.1913  0.6784  0.0978
 2689TIP3    H129626   3.410   3.088   0.849  0.8648  0.0629 -1.4358
 2689TIP3    H229627   3.293   2.995   0.871  0.0320  1.6662  1.4256
 2690TIP3   OH229628   5.862   5.463   7.996  0.2033  0.5739 -0.5225
 2690TIP3    H129629   5.771   5.450   7.971 -0.0909 -0.1920  0.8654
 2690TIP3    H229630   5.887   5.546   7.954 -0.4181 -0.3107 -2.7579
 2691TIP3   OH229631   4.174   5.606   8.132  0.2642 -0.1502 -0.7632
 2691TIP3    H129632   4.210   5.553   8.061  1.3471 -0.2351 -0.1686
 2691TIP3    H229633   4.079   5.603   8.119  0.2186 -2.9144 -0.2961
 2692TIP3   OH229634   0.081   2.412   0.646  0.6130  0.2085  0.0532
 2692TIP3    H129635   0.137   2.463   0.705  0.8753 -0.2776  0.2315
 2692TIP3    H229636   0.137   2.390   0.572  0.3307  0.6736 -0.3040
 2693TIP3   OH229637   6.015   5.331   8.495 -0.1342  0.0737 -0.5695
 2693TIP3    H129638   6.072   5.405   8.476 -2.6826  1.7774 -2.2649
 2693TIP3    H229639   5.960   5.322   8.417 -1.2681 -2.3242  0.3972
 2694TIP3   OH229640   1.620   5.084   0.970  0.1207  0.0478  0.2239
 2694TIP3    H129641   1.679   5.148   1.009  0.0592  0.5582 -0.4964
 2694TIP3    H229642   1.621   5.104   0.876  0.3001 -1.1719 -0.0476
 2695TIP3   OH229643   5.700   5.443   1.341 -0.1221  0.1618 -0.5829
 2695TIP3    H129644   5.772   5.421   1.399 -0.3478 -0.2825 -0.4652
 2695TIP3    H229645   5.721   5.530   1.307 -0.1426  0.5588  0.4020
 2696TIP3   OH229646   2.832   1.769   7.570 -0.1452  0.1922  0.1704
 2696TIP3    H129647   2.865   1.848   7.613  0.2834  1.1919 -1.8732
 2696TIP3    H229648   2.862   1.697   7.625  0.2815  1.3976  1.5735
 2697TIP3   OH229649   3.757   3.103   1.000  0.0298  0.6187  0.1739
 2697TIP3    H129650   3.826   3.118   0.935 -0.5700 -0.6159 -0.7917
 2697TIP3    H229651   3.743   3.009   0.998 -0.7770  0.6963  1.3296
 2698TIP3   OH229652   1.724   1.071   0.407  0.2173  0.3989 -0.1622
 2698TIP3    H129653   1.733   1.086   0.501  0.7654 -2.3354  0.3063
 2698TIP3    H229654   1.633   1.045   0.395 -0.6230  3.2284 -0.9048
 2699TIP3   OH229655   5.765   2.138   7.876  0.2710 -0.0074 -0.2973
 2699TIP3    H129656   5.701   2.210   7.871  1.8137  1.3832 -1.3358
 2699TIP3    H229657   5.824   2.163   7.947 -0.3996 -1.3683  0.7735
 2700TIP3   OH229658   1.519   1.610   8.164  0.0161 -0.4660 -0.6417
 2700TIP3    H129659   1.437   1.581   8.204 -0.4879  1.4579 -0.1855
 2700TIP3    H229660   1.539   1.542   8.100 -2.4861 -0.4960 -1.5164
 2701TIP3   OH229661   0.392   0.557   6.766  0.4873 -0.3632  0.3121
 2701TIP3    H129662   0.389   0.653   6.772 -1.2216 -0.4469  1.5147
 2701TIP3    H229663   0.475   0.532   6.805  0.1242  0.5580  1.7460
 2702TIP3   OH229664   3.567   2.451   7.960  0.0417 -0.6641 -0.4402
 2702TIP3    H129665   3.537   2.472   7.872  0.9170  1.4421 -0.2773
 2702TIP3    H229666   3.534   2.362   7.975 -0.0836 -1.1082 -2.8809
 2703TIP3   OH229667   3.253   6.224   1.645 -0.0381  0.7693  0.5068
 2703TIP3    H129668   3.325   6.214   1.583 -0.7835  1.0745 -0.4404
 2703TIP3    H229669   3.182   6.173   1.606  0.7097 -2.7832  3.2518
 2704TIP3   OH229670   5.440   6.620   0.082 -0.1316  0.0733  0.1096
 2704TIP3    H129671   5.419   6.650   0.171  1.5786 -0.0496  0.5846
 2704TIP3    H229672   5.503   6.684   0.050  1.3021 -1.3343  0.0182
 2705TIP3   OH229673   6.009   3.752   6.575  0.4004 -0.0512  0.5936
 2705TIP3    H129674   5.958   3.700   6.513  0.9424 -0.4908  0.5037
 2705TIP3    H229675   5.949   3.770   6.647 -0.3924  0.8851 -0.2720
 2706TIP3   OH229676   0.878   1.162   7.615 -0.6345  0.0472 -0.3101
 2706TIP3    H129677   0.822   1.162   7.537 -1.6586 -0.2101  0.4096
 2706TIP3    H229678   0.901   1.254   7.628  2.0274 -0.1395 -2.6064
 2707TIP3   OH229679   0.613   5.711   7.622  0.2052 -0.3189 -0.0982
 2707TIP3    H129680   0.677   5.697   7.691  0.1814 -1.7372 -0.3389
 2707TIP3    H229681   0.638   5.650   7.552 -0.6102  0.0634 -0.7499
 2708TIP3   OH229682   6.313   1.689   2.452 -0.0157  0.1877  0.1864
 2708TIP3    H129683   6.244   1.704   2.387  0.4498 -0.2290 -0.4103
 2708TIP3    H229684   6.299   1.599   2.482 -0.6039  0.5747  1.1303
 2709TIP3   OH229685   4.981   5.723   8.283  0.2939  0.0176 -0.6552
 2709TIP3    H129686   4.902   5.671   8.301  0.0617  0.0782 -1.4615
 2709TIP3    H229687   5.052   5.659   8.283  0.5259  0.1757  1.7384
 2710TIP3   OH229688   3.743   6.255   0.478 -0.4965  0.2124  0.0437
 2710TIP3    H129689   3.717   6.323   0.415 -2.1057 -0.1371  0.2782
 2710TIP3    H229690   3.733   6.173   0.429  3.0163  0.1193 -0.7814
 2711TIP3   OH229691   1.949   3.424   7.008 -0.2055 -0.0501 -0.0764
 2711TIP3    H129692   1.939   3.369   7.085  0.9785  0.5432  0.5230
 2711TIP3    H229693   1.879   3.395   6.949 -0.4654 -1.2386  0.7740
 2712TIP3   OH229694   5.081   3.434   0.933  0.5823  0.5550 -0.2283
 2712TIP3    H129695   5.001   3.397   0.972  0.6258  0.6545 -0.0418
 2712TIP3    H229696   5.151   3.402   0.989  0.6869  0.3610 -0.4699
 2713TIP3   OH229697   4.922   4.407   1.214 -0.3587 -0.8210  0.6707
 2713TIP3    H129698   4.948   4.320   1.184  0.5467 -1.2790  2.6466
 2713TIP3    H229699   4.865   4.391   1.289  1.3312  0.2559  2.2636
 2714TIP3   OH229700   6.808   4.928   7.584  0.0417 -0.3093 -0.0235
 2714TIP3    H129701   6.741   4.928   7.516  0.3489  1.1127 -0.3461
 2714TIP3    H229702   6.816   5.019   7.610  2.1326 -0.3863 -0.2551
 2715TIP3   OH229703   4.153   4.166   8.271 -0.7295 -0.0978  0.4144
 2715TIP3    H129704   4.215   4.109   8.317 -0.8427  0.5507  1.3976
 2715TIP3    H229705   4.158   4.138   8.180 -0.4289 -1.3587  0.7971
 2716TIP3   OH229706   3.495   4.527   7.323 -0.0683  0.4290 -0.4159
 2716TIP3    H129707   3.579   4.571   7.338  0.9751 -2.1792  2.4408
 2716TIP3    H229708   3.506   4.480   7.241  0.9493  0.7688 -0.4824
 2717TIP3   OH229709   5.526   6.659   6.877  0.3352  0.1091 -0.0887
 2717TIP3    H129710   5.450   6.625   6.925  0.4737  2.8781  2.4037
 2717TIP3    H229711   5.600   6.608   6.910  0.0594  0.0705  0.4792
 2718TIP3   OH229712   0.421   0.228   8.549 -0.3272 -0.4574  0.3571
 2718TIP3    H129713   0.374   0.206   8.629 -1.1010 -1.9061 -0.4495
 2718TIP3    H229714   0.438   0.144   8.507  0.2823  0.2499 -0.8743
 2719TIP3   OH229715   0.176   5.561   2.173 -0.2705  0.4410 -0.4465
 2719TIP3    H129716   0.239   5.594   2.236 -2.1335 -0.1770  1.8696
 2719TIP3    H229717   0.124   5.637   2.147 -0.6005  0.4029  0.1017
 2720TIP3   OH229718   0.664   1.371   0.598  0.4570  0.1970 -0.5754
 2720TIP3    H129719   0.593   1.429   0.572 -1.2040 -1.7177 -0.4783
 2720TIP3    H229720   0.679   1.392   0.690 -0.8576 -0.2433 -0.2501
 2721TIP3   OH229721   0.192   2.595   6.881  0.8351  0.0679 -0.1026
 2721TIP3    H129722   0.276   2.582   6.837  1.3839  1.5175  0.4484
 2721TIP3    H229723   0.187   2.523   6.944  1.3524 -0.4020 -0.5859
 2722TIP3   OH229724   6.322   0.831   0.181  0.1458 -0.5010 -0.1976
 2722TIP3    H129725   6.392   0.775   0.215 -0.8601 -0.1017  2.7549
 2722TIP3    H229726   6.363   0.917   0.171 -0.2568  0.2759  3.5474
 2723TIP3   OH229727   1.924   1.304   1.347 -0.1057 -0.1820  0.8210
 2723TIP3    H129728   1.874   1.291   1.266  0.7420 -0.0847  0.2662
 2723TIP3    H229729   1.951   1.396   1.345 -0.3197 -0.1023  1.3612
 2724TIP3   OH229730   1.721   1.738   2.185  0.6556  0.1572  0.6131
 2724TIP3    H129731   1.708   1.678   2.258  0.7079 -0.6673 -0.0536
 2724TIP3    H229732   1.810   1.720   2.154  1.9836  2.8324  2.4558
 2725TIP3   OH229733   3.136   4.325   8.662  0.1355  0.4654 -0.1175
 2725TIP3    H129734   3.082   4.250   8.687  0.6981  0.0870 -0.0146
 2725TIP3    H229735   3.224   4.288   8.652  1.2260  1.6890  3.4580
 2726TIP3   OH229736   2.909   1.195   0.191  0.4179  0.2368  0.0197
 2726TIP3    H129737   2.921   1.142   0.111  0.0407  3.2115 -2.1747
 2726TIP3    H229738   2.965   1.152   0.256  0.8165 -2.2918 -1.8242
 2727TIP3   OH229739   1.794   4.801   2.070 -0.1185  0.7381  0.4350
 2727TIP3    H129740   1.833   4.846   1.995 -1.8413  1.2142 -0.2223
 2727TIP3    H229741   1.861   4.804   2.138  0.9687  1.5105 -0.6454
 2728TIP3   OH229742   6.706   6.069   7.245  0.3573 -0.1481 -0.0505
 2728TIP3    H129743   6.772   6.079   7.314  0.8192 -0.3837 -0.4487
 2728TIP3    H229744   6.738   6.123   7.173  1.4101 -2.1114 -1.1521
 2729TIP3   OH229745   4.658   5.482   0.789 -0.3988 -0.1513 -0.2881
 2729TIP3    H129746   4.620   5.533   0.860  0.2089 -0.5344  0.3230
 2729TIP3    H229747   4.595   5.410   0.776  0.3520 -1.1186  1.1178
 2730TIP3   OH229748   2.233   5.076   0.248 -0.1837  0.6409  0.0308
 2730TIP3    H129749   2.171   5.081   0.321  0.3190  1.4138  0.4196
 2730TIP3    H229750   2.282   4.995   0.264 -0.0795  0.8021  0.5532
 2731TIP3   OH229751   4.098   2.177   6.814  0.1193  0.7258 -0.0088
 2731TIP3    H129752   4.066   2.184   6.904 -1.2228 -0.9463 -0.2996
 2731TIP3    H229753   4.021   2.197   6.760  0.2817 -0.5506 -0.7490
 2732TIP3   OH229754   5.805   4.315   2.361 -0.3340 -0.4441  0.6079
 2732TIP3    H129755   5.752   4.291   2.437 -0.7574 -1.3921  0.0348
 2732TIP3    H229756   5.761   4.273   2.286  1.4896 -1.7579  0.1732
 2733TIP3   OH229757   2.491   1.320   8.314 -0.0917 -0.0605  0.4620
 2733TIP3    H129758   2.461   1.270   8.390  1.8758 -2.2079 -0.0689
 2733TIP3    H229759   2.437   1.289   8.242  0.4816 -0.7627  0.3206
 2734TIP3   OH229760   0.075   0.723   1.282 -0.5223 -0.0877  0.4900
 2734TIP3    H129761   0.120   0.690   1.204 -1.8247  0.5559 -0.5894
 2734TIP3    H229762   0.121   0.683   1.356  2.2396  1.0508 -0.4821
 2735TIP3   OH229763   5.742   5.362   1.024 -0.6213 -0.1197 -0.1894
 2735TIP3    H129764   5.666   5.317   0.988  0.2951 -3.0504  1.2858
 2735TIP3    H229765   5.730   5.360   1.118 -1.0099  3.8312  0.0295
 2736TIP3   OH229766   3.923   6.616   7.673  0.1904  0.9089  0.0074
 2736TIP3    H129767   3.829   6.603   7.670  0.3309 -0.1016 -0.3613
 2736TIP3    H229768   3.955   6.575   7.592  1.2551 -1.5667  1.5598
 2737TIP3   OH229769   1.012   4.572   1.497  0.8711 -0.1566  0.3311
 2737TIP3    H129770   0.965   4.627   1.434  0.3689 -2.1414 -1.1344
 2737TIP3    H229771   0.977   4.599   1.582  1.8057  2.8358 -0.0930
 2738TIP3   OH229772   4.434   3.420   7.759 -0.2636 -0.0917  0.0460
 2738TIP3    H129773   4.511   3.383   7.716 -0.3090 -0.6424  0.4430
 2738TIP3    H229774   4.460   3.511   7.778  0.5115 -0.4446  0.7321
 2739TIP3   OH229775   0.025   0.516   5.855 -0.0504  0.1466 -0.2272
 2739TIP3    H129776  -0.057   0.566   5.859 -0.8333 -0.9135 -2.0251
 2739TIP3    H229777   0.075   0.557   5.785  0.6539  0.2818  0.3329
 2740TIP3   OH229778   6.310   1.069   1.473  0.3885 -0.4264  0.0196
 2740TIP3    H129779   6.387   1.057   1.418 -0.7313 -1.2695 -1.4266
 2740TIP3    H229780   6.336   1.137   1.536  2.2408 -0.5919 -0.5191
 2741TIP3   OH229781   2.920   4.938   7.335  0.6908 -0.0679 -0.1134
 2741TIP3    H129782   2.932   4.984   7.417  0.8535 -1.0977  0.4582
 2741TIP3    H229783   2.937   4.846   7.356  2.6580 -0.1484 -1.6990
 2742TIP3   OH229784   2.676   3.914   1.978  0.5555  0.1425 -0.6376
 2742TIP3    H129785   2.722   3.910   1.894 -0.0128 -2.4324 -0.9164
 2742TIP3    H229786   2.638   4.002   1.980  2.4118  1.0537 -2.0368
 2743TIP3   OH229787   3.866   4.149   8.406  0.5744  0.4048 -0.2311
 2743TIP3    H129788   3.951   4.135   8.365  0.3922  0.7404 -0.7238
 2743TIP3    H229789   3.802   4.127   8.338  0.2578 -0.3440  0.2914
 2744TIP3   OH229790   5.492   6.254   8.259 -0.1120 -0.0558  0.2241
 2744TIP3    H129791   5.414   6.269   8.206 -0.3833  1.4485  0.9932
 2744TIP3    H229792   5.510   6.339   8.300 -0.3343 -1.2553  3.0571
 2745TIP3   OH229793   2.401   0.022   7.779 -0.2030  0.4770  0.0848
 2745TIP3    H129794   2.492   0.018   7.807 -0.3873 -1.0086  0.5382
 2745TIP3    H229795   2.396  -0.036   7.703 -0.8056  0.4182  0.1638
 2746TIP3   OH229796   6.822   1.702   0.993  0.0782 -0.2275 -0.4699
 2746TIP3    H129797   6.889   1.742   0.938  1.2335 -0.6061  0.6040
 2746TIP3    H229798   6.794   1.625   0.944 -0.1108  0.3423 -1.2655
 2747TIP3   OH229799   5.750   4.048   1.334  0.1874  0.0932  0.0614
 2747TIP3    H129800   5.808   3.979   1.367  0.0749 -0.2856 -0.5281
 2747TIP3    H229801   5.787   4.073   1.250  0.8505  1.5260  0.7459
 2748TIP3   OH229802   1.057   0.688   1.064  0.3360  0.0128 -0.0512
 2748TIP3    H129803   1.061   0.608   1.011  0.4666 -1.4109  1.9788
 2748TIP3    H229804   1.118   0.672   1.136 -0.1311  1.6998  0.7723
 2749TIP3   OH229805   6.284   6.295   7.132  0.0930  0.0828  0.1929
 2749TIP3    H129806   6.344   6.276   7.204 -0.7600  0.3387  0.9850
 2749TIP3    H229807   6.316   6.241   7.060  0.9162 -0.2353  0.7733
 2750TIP3   OH229808   5.262   4.522   0.770 -1.0623  0.0598  0.3164
 2750TIP3    H129809   5.173   4.555   0.757 -1.2642 -0.9388 -1.1939
 2750TIP3    H229810   5.310   4.550   0.692 -0.5883 -1.0438  0.1838
 2751TIP3   OH229811   3.835   6.858   6.755  0.0492  0.1935 -0.2803
 2751TIP3    H129812   3.778   6.848   6.831  0.2627  1.1870  0.0316
 2751TIP3    H229813   3.809   6.942   6.717  3.3705  2.3394  1.7242
 2752TIP3   OH229814   5.757   4.655   7.471 -0.1821  0.3067  0.3000
 2752TIP3    H129815   5.673   4.633   7.512  0.3376 -2.1773  0.1935
 2752TIP3    H229816   5.818   4.662   7.544  0.0593 -0.7695  0.2247
 2753TIP3   OH229817   3.845   3.157   1.260  0.3316  0.0408 -0.1313
 2753TIP3    H129818   3.926   3.107   1.248  2.4752  3.3799 -0.7193
 2753TIP3    H229819   3.792   3.136   1.182  1.9649  0.0597 -1.2950
 2754TIP3   OH229820   0.979   4.933   7.023 -0.3545  0.1656 -0.1068
 2754TIP3    H129821   1.055   4.964   7.072  0.6882 -1.2128 -0.7858
 2754TIP3    H229822   1.015   4.876   6.956 -1.9356  0.1975 -1.0413
 2755TIP3   OH229823   1.786   6.130   8.161  0.0683 -0.0298  0.1242
 2755TIP3    H129824   1.822   6.153   8.247 -0.6798  3.0542 -0.2945
 2755TIP3    H229825   1.704   6.085   8.181  1.2264 -1.8967  0.9894
 2756TIP3   OH229826   3.347   5.567   7.204  0.2157 -0.2219  0.3182
 2756TIP3    H129827   3.334   5.608   7.119 -1.5111 -0.1070  0.6058
 2756TIP3    H229828   3.378   5.479   7.183  1.3351  0.3084 -0.3639
 2757TIP3   OH229829   4.424   5.654   7.176  0.6011  0.1437 -0.6379
 2757TIP3    H129830   4.374   5.725   7.136 -0.6252 -0.0514  0.4984
 2757TIP3    H229831   4.505   5.651   7.125 -0.1658  1.0317 -1.9870
 2758TIP3   OH229832   0.791   1.546   0.911  0.3932 -0.2050  0.2542
 2758TIP3    H129833   0.739   1.510   0.983 -0.6088  0.7016  0.0060
 2758TIP3    H229834   0.730   1.601   0.862  1.0143 -0.9248 -1.3878
 2759TIP3   OH229835   2.837   3.002   6.926 -0.0436  0.1683 -0.9312
 2759TIP3    H129836   2.897   3.039   6.991  0.0431  0.3081 -1.0919
 2759TIP3    H229837   2.814   3.076   6.870  0.2828 -0.0588 -1.3735
 2760TIP3   OH229838   3.219   3.579   6.822 -0.2103 -0.1780 -0.3236
 2760TIP3    H129839   3.281   3.630   6.873  1.6379 -1.1853 -1.4576
 2760TIP3    H229840   3.158   3.643   6.787  1.7598  1.2396 -1.3304
 2761TIP3   OH229841   4.928   2.875   7.493 -0.6019 -0.1896  0.4781
 2761TIP3    H129842   4.924   2.970   7.483  0.6090  0.1822  2.7070
 2761TIP3    H229843   4.993   2.846   7.428 -0.1280  0.6795  0.5522
 2762TIP3   OH229844   2.843   6.496   0.681 -0.0952 -0.2731  0.4070
 2762TIP3    H129845   2.783   6.561   0.719 -1.6986 -0.4785 -1.5951
 2762TIP3    H229846   2.787   6.444   0.623  1.7377 -1.5487 -0.2910
 2763TIP3   OH229847   2.435   1.458   0.619  0.0055 -0.1661  0.0581
 2763TIP3    H129848   2.496   1.384   0.616 -0.6584 -0.7001 -2.1764
 2763TIP3    H229849   2.349   1.418   0.604 -0.6367  0.8382  0.9422
 2764TIP3   OH229850   2.327   3.392   1.437 -0.2093 -0.2990 -0.3371
 2764TIP3    H129851   2.374   3.367   1.358  1.0408  1.3494 -0.1688
 2764TIP3    H229852   2.315   3.310   1.485 -0.8443 -1.2965 -2.1201
 2765TIP3   OH229853   6.025   3.178   0.906  0.5347 -0.0068 -0.2404
 2765TIP3    H129854   5.991   3.092   0.931  0.5393  0.1822  0.4503
 2765TIP3    H229855   6.049   3.168   0.814  0.4495 -0.7167 -0.1973
 2766TIP3   OH229856   2.769   0.583   7.094  0.2163  0.0650 -0.6442
 2766TIP3    H129857   2.772   0.615   7.003  0.5308  0.6165 -0.4473
 2766TIP3    H229858   2.860   0.558   7.113  0.4480  1.3193 -0.0136
 2767TIP3   OH229859   4.029   3.660   0.337  0.1007 -0.0101 -0.3225
 2767TIP3    H129860   4.023   3.578   0.385 -0.0730  1.5124  2.4804
 2767TIP3    H229861   3.941   3.674   0.301  0.4638 -1.6044 -1.9442
 2768TIP3   OH229862   6.017   0.537   7.210 -0.2310 -0.1296 -0.3112
 2768TIP3    H129863   5.942   0.596   7.206 -0.2739 -0.0794  0.9106
 2768TIP3    H229864   6.066   0.566   7.287  0.7557 -0.5063 -0.7844
 2769TIP3   OH229865   1.301   1.544   0.477 -0.0333  0.0673  0.4961
 2769TIP3    H129866   1.369   1.488   0.515 -0.5716 -1.1859 -0.3344
 2769TIP3    H229867   1.347   1.596   0.411  0.1671 -0.6024  0.1058
 2770TIP3   OH229868   3.674   6.604   1.029  0.6843  0.3558 -0.4207
 2770TIP3    H129869   3.579   6.601   1.039  0.9247 -1.5559  2.0803
 2770TIP3    H229870   3.699   6.688   1.067  0.1028  0.3601 -0.0300
 2771TIP3   OH229871   1.348   1.131   6.458 -0.0605 -0.1080  0.5156
 2771TIP3    H129872   1.273   1.120   6.516 -0.3610  2.0598  0.6062
 2771TIP3    H229873   1.316   1.184   6.386  1.2615  0.5144  0.3501
 2772TIP3   OH229874   1.032   4.308   1.490 -0.5254 -0.4946 -0.1101
 2772TIP3    H129875   1.029   4.403   1.481  1.4690 -0.4686 -0.9521
 2772TIP3    H229876   1.071   4.293   1.576 -1.1328 -0.5667  0.1572
 2773TIP3   OH229877   1.159   0.227   7.086  0.0486 -0.2549  0.5470
 2773TIP3    H129878   1.234   0.184   7.045 -0.8005 -0.5797 -0.7351
 2773TIP3    H229879   1.095   0.236   7.015 -0.8164  0.7430  1.4194
 2774TIP3   OH229880   5.517   1.923   1.303  0.0346  0.2633  0.2507
 2774TIP3    H129881   5.447   1.858   1.309  0.3946 -0.1081  0.4043
 2774TIP3    H229882   5.517   1.966   1.388  0.2317  0.0190  0.3742
 2775TIP3   OH229883   5.608   1.008   7.636  0.1538 -0.0322 -0.7074
 2775TIP3    H129884   5.626   1.090   7.590  2.6789  1.3543  2.3322
 2775TIP3    H229885   5.682   0.951   7.614  0.4252 -0.0271  0.1416
 2776TIP3   OH229886   0.982   1.873   7.159 -0.1278 -0.2725 -0.2170
 2776TIP3    H129887   1.016   1.833   7.078 -0.1168 -0.4286 -0.1367
 2776TIP3    H229888   0.895   1.833   7.170 -0.1526 -0.2083 -0.1823
 2777TIP3   OH229889   1.590   2.519   2.320  0.1354  0.6323 -0.4470
 2777TIP3    H129890   1.579   2.586   2.388 -0.7816 -0.3132  0.3666
 2777TIP3    H229891   1.515   2.532   2.261 -0.5838 -0.2783  0.2514
 2778TIP3   OH229892   3.649   0.733   6.133 -0.0219  0.3845 -0.4617
 2778TIP3    H129893   3.626   0.821   6.103 -1.4524  0.0856 -0.3048
 2778TIP3    H229894   3.743   0.726   6.114 -0.3257  1.1179 -2.5420
 2779TIP3   OH229895   1.006   2.860   0.351  0.2267 -0.2483  0.0117
 2779TIP3    H129896   0.958   2.929   0.305  1.1157 -0.5175 -1.3873
 2779TIP3    H229897   0.999   2.884   0.443  1.0776  2.1253 -0.4610
 2780TIP3   OH229898   2.762   4.824   2.085  0.2855  0.4843 -0.5454
 2780TIP3    H129899   2.798   4.792   2.167  2.4091 -0.5450 -1.7883
 2780TIP3    H229900   2.830   4.882   2.050 -1.8889  3.4963 -0.1680
 2781TIP3   OH229901   3.352   1.543   0.817 -0.1718 -0.1531 -0.1171
 2781TIP3    H129902   3.296   1.559   0.741  0.2337 -0.0763 -0.4012
 2781TIP3    H229903   3.353   1.627   0.864 -1.2252 -0.4753  0.5190
 2782TIP3   OH229904   4.140   6.058   1.206  0.1695 -0.2256 -0.5338
 2782TIP3    H129905   4.164   6.101   1.288 -0.1391 -1.0050 -0.0268
 2782TIP3    H229906   4.048   6.080   1.193 -0.3451 -1.7064  0.3709
 2783TIP3   OH229907   2.197   6.045   1.220  0.3501 -0.3806  0.4490
 2783TIP3    H129908   2.129   6.021   1.157  3.1364 -0.5084 -2.8379
 2783TIP3    H229909   2.162   6.121   1.265 -1.8096 -0.1596 -1.4022
 2784TIP3   OH229910   3.438   5.194   1.210  0.1180 -0.0424  0.0340
 2784TIP3    H129911   3.457   5.225   1.121  0.3784  2.8980  1.0279
 2784TIP3    H229912   3.517   5.146   1.235  0.8642  0.7954 -0.6338
 2785TIP3   OH229913   1.047   2.036   8.335 -0.0522  0.1150  0.5591
 2785TIP3    H129914   1.095   2.087   8.400 -0.0327 -0.2249  0.8117
 2785TIP3    H229915   1.020   2.101   8.269  0.7119  0.3242  0.4381
 2786TIP3   OH229916   4.263   0.675   0.163  0.0705  0.3929 -0.7244
 2786TIP3    H129917   4.201   0.746   0.144 -0.6155  0.0278  0.0960
 2786TIP3    H229918   4.276   0.631   0.078  0.8349  1.7346 -1.3341
 2787TIP3   OH229919   3.043   0.562   1.604  0.3702 -0.5178 -0.1488
 2787TIP3    H129920   3.077   0.473   1.594  0.6818 -0.5110  0.8164
 2787TIP3    H229921   3.093   0.599   1.676  1.4016  1.0218 -1.5713
 2788TIP3   OH229922   2.073   4.529   8.509  0.2850 -0.1520  0.1427
 2788TIP3    H129923   2.122   4.500   8.432 -1.7433 -0.7994 -0.9886
 2788TIP3    H229924   2.044   4.617   8.488 -1.5677 -0.8778 -0.5724
 2789TIP3   OH229925   0.263   4.896   8.604 -0.6366 -0.4822  0.1681
 2789TIP3    H129926   0.197   4.902   8.536 -2.1014  0.4440  1.5838
 2789TIP3    H229927   0.219   4.852   8.677  0.9799 -1.7615  0.4204
 2790TIP3   OH229928   3.002   3.462   6.613 -0.2592  0.3292  0.3656
 2790TIP3    H129929   2.991   3.551   6.646  0.3225  0.2318  0.8390
 2790TIP3    H229930   2.992   3.407   6.691  1.5427  0.1235  0.4719
 2791TIP3   OH229931   3.396   1.797   0.734  0.1722 -0.1204 -0.0074
 2791TIP3    H129932   3.356   1.868   0.782 -1.0861 -0.3322 -0.7103
 2791TIP3    H229933   3.490   1.808   0.749 -0.1356  0.0622  2.1217
 2792TIP3   OH229934   4.924   6.569   1.187 -0.4211 -0.4185  0.7078
 2792TIP3    H129935   4.958   6.562   1.276  0.8090 -1.6665  0.1718
 2792TIP3    H229936   4.844   6.622   1.196  0.9420  1.5100  2.1931
 2793TIP3   OH229937   4.136   2.551   0.418  0.3005  0.9769  0.0239
 2793TIP3    H129938   4.188   2.517   0.345  0.5815  1.7906 -0.1741
 2793TIP3    H229939   4.168   2.503   0.494  1.9336  2.0049  0.0324
 2794TIP3   OH229940   0.513   0.008   7.339  0.4366  0.0421  0.3971
 2794TIP3    H129941   0.547  -0.035   7.418 -0.5741 -0.4702  0.5700
 2794TIP3    H229942   0.447  -0.053   7.306  0.7778  0.3034 -0.7967
 2795TIP3   OH229943   6.433   0.612   1.076  0.1460  0.2700  0.0155
 2795TIP3    H129944   6.451   0.529   1.032 -0.0772 -0.4110  1.1460
 2795TIP3    H229945   6.518   0.641   1.108  0.1509  0.1859  0.0812
 2796TIP3   OH229946   5.894   0.890   7.060  0.3547  0.1952  0.2352
 2796TIP3    H129947   5.870   0.819   7.120  0.6663 -0.5784 -0.5339
 2796TIP3    H229948   5.946   0.847   6.992 -0.9207  0.8151 -1.2079
 2797TIP3   OH229949   6.484   1.838   7.422 -0.1191 -0.2858  0.3380
 2797TIP3    H129950   6.477   1.771   7.490 -1.7478 -1.7416 -1.1785
 2797TIP3    H229951   6.396   1.874   7.414  0.2027  0.3401 -0.5292
 2798TIP3   OH229952   2.098   2.987   7.430 -0.1182  0.2960  0.5655
 2798TIP3    H129953   2.093   3.065   7.486  1.3281 -0.3959  1.7307
 2798TIP3    H229954   2.080   2.914   7.489  0.7528 -0.4082 -0.0141
 2799TIP3   OH229955   3.702   4.397   2.064  0.3433 -0.0677  0.1639
 2799TIP3    H129956   3.658   4.416   2.147  0.0451  0.1435 -0.0400
 2799TIP3    H229957   3.725   4.304   2.070  0.2827 -0.0640  0.4639
 2800TIP3   OH229958   3.250   1.978   1.568  0.3814  0.3432  0.3866
 2800TIP3    H129959   3.254   2.042   1.497  1.7385  1.9069  1.7835
 2800TIP3    H229960   3.341   1.969   1.597 -0.0433 -0.8492  1.4244
 2801TIP3   OH229961   3.368   2.077   2.606  0.0945  0.1348  0.0278
 2801TIP3    H129962   3.289   2.075   2.553  0.5267  1.2243 -0.6835
 2801TIP3    H229963   3.352   2.146   2.671 -0.1401 -0.6957  0.8852
 2802TIP3   OH229964   3.040   6.258   8.107  0.3456  0.2665  0.1760
 2802TIP3    H129965   3.080   6.185   8.059 -0.3229  0.4921 -0.7611
 2802TIP3    H229966   2.961   6.279   8.056 -0.2109  0.7361  1.2086
 2803TIP3   OH229967   4.786   4.177   0.375 -0.0776 -0.4817  0.2049
 2803TIP3    H129968   4.732   4.155   0.298  1.1586 -0.5238 -0.6791
 2803TIP3    H229969   4.760   4.113   0.441 -0.7500 -0.8286 -0.3757
 2804TIP3   OH229970   3.312   3.586   7.952  0.2398  0.1709 -0.2269
 2804TIP3    H129971   3.272   3.515   8.003 -1.7620  0.4162 -1.3502
 2804TIP3    H229972   3.269   3.666   7.983 -0.3252  0.4264 -1.5737
 2805TIP3   OH229973   5.084   4.935   7.534  0.2580  0.3682  0.1716
 2805TIP3    H129974   5.007   4.992   7.540 -0.5584 -0.6577 -0.2974
 2805TIP3    H229975   5.115   4.948   7.444 -1.0463 -1.2891 -0.5632
 2806TIP3   OH229976   3.208   4.905   7.776  0.2774 -0.0512 -0.0390
 2806TIP3    H129977   3.304   4.902   7.778  0.2574 -0.5312  0.1826
 2806TIP3    H229978   3.188   4.954   7.697  0.7085  0.1460 -0.0311
 2807TIP3   OH229979   2.674   5.355   0.115 -0.2000  0.3792 -0.6152
 2807TIP3    H129980   2.647   5.343   0.206  0.2391  0.3293 -0.4929
 2807TIP3    H229981   2.611   5.418   0.080 -3.9696 -3.6047 -1.8895
 2808TIP3   OH229982   1.411   6.018   7.016 -0.4792  0.1326  0.2396
 2808TIP3    H129983   1.425   5.985   7.104  0.6006  1.9369  0.7942
 2808TIP3    H229984   1.498   6.021   6.977 -0.4094  2.6662  0.4150
 2809TIP3   OH229985   3.512   2.401   2.550  0.1576  0.4418 -0.1734
 2809TIP3    H129986   3.437   2.378   2.605  1.7587 -1.5144  1.3422
 2809TIP3    H229987   3.588   2.367   2.597  2.1270  2.9261 -1.3077
 2810TIP3   OH229988   3.686   6.149   1.605 -0.2774 -0.0340  0.0655
 2810TIP3    H129989   3.759   6.098   1.640  0.2321  0.9947  0.5417
 2810TIP3    H229990   3.632   6.085   1.558  1.4615 -0.6456 -1.1929
 2811TIP3   OH229991   1.778   0.154   0.690  0.3794 -0.4852  0.0097
 2811TIP3    H129992   1.800   0.174   0.599 -1.8134 -2.0848 -0.9527
 2811TIP3    H229993   1.705   0.092   0.685  1.0539 -1.7038  2.8537
 2812TIP3   OH229994   4.441   6.433   2.092 -0.0323  0.5657 -0.3307
 2812TIP3    H129995   4.350   6.435   2.064 -0.0095  1.8471 -0.4089
 2812TIP3    H229996   4.440   6.463   2.183  0.3485  1.1053 -0.4965
 2813TIP3   OH229997   1.666   6.046   6.865 -0.4732 -0.2752  0.3253
 2813TIP3    H129998   1.607   6.061   6.791  2.0950  0.4192 -1.7202
 2813TIP3    H229999   1.665   6.128   6.913 -1.3259 -0.3577  0.4740
 2814TIP3   OH230000   3.275   2.743   7.067 -0.5246 -0.2053 -0.0176
 2814TIP3    H130001   3.334   2.687   7.117  1.0598  0.3623 -1.1617
 2814TIP3    H230002   3.295   2.724   6.975 -0.5245  1.6036 -0.4340
 2815TIP3   OH230003   3.359   1.512   7.058  0.0109 -0.0393 -0.2951
 2815TIP3    H130004   3.294   1.455   7.017 -1.2924  0.4089  1.0456
 2815TIP3    H230005   3.357   1.592   7.006  0.4822 -0.5196 -1.0649
 2816TIP3   OH230006   1.461   3.471   0.194  0.2629  0.4406  0.3612
 2816TIP3    H130007   1.370   3.500   0.194  0.8258  2.4882 -1.4174
 2816TIP3    H230008   1.511   3.550   0.215  1.7197 -0.2850 -0.2319
 2817TIP3   OH230009   4.780   3.085   7.250 -0.5697  0.1253  0.4838
 2817TIP3    H130010   4.858   3.113   7.203 -0.9553  2.6378  1.2050
 2817TIP3    H230011   4.744   3.014   7.197  2.1518 -1.1249  0.1525
 2818TIP3   OH230012   3.048   4.330   7.952  0.3052  0.1557 -0.1643
 2818TIP3    H130013   3.135   4.369   7.949 -0.7905  2.7511 -0.8958
 2818TIP3    H230014   3.020   4.326   7.860 -1.1831  1.5407  0.1702
 2819TIP3   OH230015   4.366   5.979   7.816 -0.2484  0.1561  0.0317
 2819TIP3    H130016   4.410   6.021   7.891 -0.3037 -0.5230  0.4497
 2819TIP3    H230017   4.274   6.000   7.827 -0.2395  0.1728  0.0741
 2820TIP3   OH230018   1.443   5.855   0.250 -0.2016  0.1795  0.1737
 2820TIP3    H130019   1.523   5.810   0.222  0.5353 -0.6601  3.2335
 2820TIP3    H230020   1.374   5.789   0.238 -0.1101  0.1951 -0.5187
 2821TIP3   OH230021   2.822   2.445   0.846  0.2314  0.4644  0.2563
 2821TIP3    H130022   2.872   2.424   0.924 -1.8424  2.4186  2.2565
 2821TIP3    H230023   2.736   2.407   0.861  0.1060 -0.1016 -1.6353
 2822TIP3   OH230024   3.711   5.054   7.042  0.0034  0.0022  0.0175
 2822TIP3    H130025   3.616   5.063   7.048  0.1256  1.5334 -0.1352
 2822TIP3    H230026   3.732   4.983   7.102 -1.3011 -0.8354 -0.4627
 2823TIP3   OH230027   0.571   6.276   0.115 -0.2496 -0.2325 -0.3375
 2823TIP3    H130028   0.548   6.308   0.202  0.1781  0.6823 -0.5508
 2823TIP3    H230029   0.601   6.354   0.068 -0.3503 -0.7396 -1.2628
 2824TIP3   OH230030   1.917   0.631   1.365 -0.1753  0.1155 -0.4624
 2824TIP3    H130031   1.943   0.618   1.274 -0.5893 -2.7881 -0.2520
 2824TIP3    H230032   1.985   0.687   1.402  0.7531  0.1926 -2.2038
 2825TIP3   OH230033   5.891   4.690   8.270  0.3402  0.3149  0.0181
 2825TIP3    H130034   5.894   4.734   8.185  1.6344  0.3450  0.0528
 2825TIP3    H230035   5.818   4.731   8.316 -1.3593 -0.7290 -1.6035
 2826TIP3   OH230036   3.223   5.955   1.445  0.6282 -0.1501  0.7457
 2826TIP3    H130037   3.128   5.965   1.440  0.7752  1.6657  1.1562
 2826TIP3    H230038   3.253   5.977   1.357  0.6199 -1.8467  0.2801
 2827TIP3   OH230039   4.127   1.148   8.129 -0.1776  0.2369  0.7529
 2827TIP3    H130040   4.128   1.225   8.185  0.9923  1.0924 -0.3770
 2827TIP3    H230041   4.201   1.161   8.069 -1.2386 -0.7241 -0.8452
 2828TIP3   OH230042   0.931   3.004   7.847 -0.0872 -0.1080  0.1541
 2828TIP3    H130043   0.976   3.051   7.777  0.5959 -0.8319  0.0968
 2828TIP3    H230044   0.897   3.073   7.904 -0.2027  0.4749 -0.6105
 2829TIP3   OH230045   6.678   6.522   2.025  0.8291 -0.0674 -0.3519
 2829TIP3    H130046   6.745   6.478   2.076  0.8296 -0.9455 -1.0969
 2829TIP3    H230047   6.693   6.615   2.042  0.2756 -0.3455  1.9248
 2830TIP3   OH230048   2.150   5.740   6.800  0.7958  0.0126 -0.2254
 2830TIP3    H130049   2.146   5.829   6.834  0.4052 -0.8321  2.1911
 2830TIP3    H230050   2.078   5.733   6.738 -0.2854  0.8759  0.9061
 2831TIP3   OH230051   5.072   6.776   1.809  0.5967 -0.3529 -0.2241
 2831TIP3    H130052   5.131   6.851   1.818 -0.5817  0.4791  1.0234
 2831TIP3    H230053   5.059   6.767   1.715 -0.3542  1.9868 -0.3997
 2832TIP3   OH230054   2.490   6.087   0.961 -0.3405 -0.0289  0.0772
 2832TIP3    H130055   2.456   6.159   1.013  0.0118  0.0174  0.2441
 2832TIP3    H230056   2.577   6.068   0.998 -1.5233 -2.4257  1.9245
 2833TIP3   OH230057   6.494   4.651   8.157 -0.8549 -0.6762  0.8530
 2833TIP3    H130058   6.441   4.622   8.231 -2.5316  0.1967  0.0334
 2833TIP3    H230059   6.436   4.705   8.104  0.8733  0.4007 -0.0632
 2834TIP3   OH230060   5.003   6.296   1.211  0.1511  0.6147  0.2796
 2834TIP3    H130061   4.911   6.288   1.234  0.4581  0.5018  1.5580
 2834TIP3    H230062   5.014   6.387   1.185 -0.4224  0.4910 -0.4389
 2835TIP3   OH230063   2.433   4.207   7.475  0.2692  0.1003 -0.1255
 2835TIP3    H130064   2.525   4.233   7.475  0.2702  0.2308  2.2885
 2835TIP3    H230065   2.418   4.170   7.561 -2.0922  0.5901 -0.2644
 2836TIP3   OH230066   1.687   0.496   8.232  1.0390 -0.3153  0.3718
 2836TIP3    H130067   1.597   0.474   8.209  0.8815 -0.3516  1.0075
 2836TIP3    H230068   1.739   0.462   8.160  0.5748 -0.5771  0.1550
 2837TIP3   OH230069   6.509   3.271   0.951 -0.1983  0.2342 -0.1259
 2837TIP3    H130070   6.478   3.351   0.994  0.4276  0.5207 -0.1960
 2837TIP3    H230071   6.435   3.243   0.897 -0.4980  0.6488  0.0588
 2838TIP3   OH230072   1.544   2.682   1.339 -0.7747  0.0679  0.1879
 2838TIP3    H130073   1.543   2.741   1.264  0.7715  0.4467  0.4474
 2838TIP3    H230074   1.628   2.697   1.381 -1.3185 -0.6563  1.5999
 2839TIP3   OH230075   1.666   4.709   0.698 -0.0548  0.3303  0.2706
 2839TIP3    H130076   1.607   4.774   0.659 -0.2298 -1.4163 -2.7210
 2839TIP3    H230077   1.607   4.641   0.732  0.1699 -0.0831 -0.1557
 2840TIP3   OH230078   2.353   1.732   6.336  0.2441  0.2391  0.2923
 2840TIP3    H130079   2.387   1.668   6.273  0.7831  0.4981  0.3127
 2840TIP3    H230080   2.397   1.814   6.312  0.2559  0.3965  0.8429
 2841TIP3   OH230081   6.783   2.684   1.662 -0.3897  0.1595  0.2555
 2841TIP3    H130082   6.714   2.668   1.727  0.5494  0.5300  1.3642
 2841TIP3    H230083   6.851   2.731   1.710  0.6756 -0.2604 -0.8051
 2842TIP3   OH230084   5.247   4.300   6.878  0.7313 -0.4019 -0.2592
 2842TIP3    H130085   5.203   4.215   6.881  1.1616 -0.6151  2.3579
 2842TIP3    H230086   5.176   4.364   6.873  0.3692 -0.8465 -1.0745
 2843TIP3   OH230087   3.201   3.839   8.012 -0.2041 -0.1984  0.5825
 2843TIP3    H130088   3.108   3.855   7.994 -0.4101 -1.1149  0.7524
 2843TIP3    H230089   3.202   3.804   8.101  0.4719  1.2417  1.1676
 2844TIP3   OH230090   6.719   1.379   1.448  0.1428  0.6301  0.1545
 2844TIP3    H130091   6.648   1.398   1.510 -0.6469 -1.1650 -0.1436
 2844TIP3    H230092   6.770   1.311   1.491 -0.6062 -0.8811 -1.2619
 2845TIP3   OH230093   3.363   0.519   2.126 -0.0609  0.2538  0.1115
 2845TIP3    H130094   3.415   0.589   2.165  1.1170 -0.0121 -0.9204
 2845TIP3    H230095   3.396   0.439   2.167 -0.6610  0.1839  0.4871
 2846TIP3   OH230096   5.089   4.554   8.133  0.1961 -0.9768 -0.2732
 2846TIP3    H130097   5.145   4.505   8.193 -0.1631 -1.5434 -0.3965
 2846TIP3    H230098   5.000   4.543   8.168  0.2869  1.1719  0.7941
 2847TIP3   OH230099   4.480   6.581   2.356  0.0129 -0.1678 -0.2783
 2847TIP3    H130100   4.402   6.632   2.334  0.5717  0.3681 -1.0511
 2847TIP3    H230101   4.522   6.631   2.427 -0.6041 -0.7304  0.5068
 2848TIP3   OH230102   1.190   4.892   7.567 -0.0929 -0.5814  0.1006
 2848TIP3    H130103   1.174   4.822   7.631 -1.9388 -0.3565 -0.0501
 2848TIP3    H230104   1.199   4.846   7.484 -1.2404 -0.6882  0.0125
 2849TIP3   OH230105   2.985   5.109   7.550  0.0898 -0.0090  0.4198
 2849TIP3    H130106   3.059   5.167   7.532 -0.4629  0.7718  0.6273
 2849TIP3    H230107   2.968   5.119   7.644 -0.2593 -0.2071  0.3821
 2850TIP3   OH230108   1.843   1.169   7.347  0.0834  0.5190  0.2374
 2850TIP3    H130109   1.823   1.107   7.417 -0.6034  0.4711  0.0086
 2850TIP3    H230110   1.937   1.184   7.354  0.3432 -0.9185 -0.0032
 2851TIP3   OH230111   1.280   6.604   6.958 -0.3404  0.0012 -0.2477
 2851TIP3    H130112   1.222   6.646   6.895  1.3092  1.9378 -0.6057
 2851TIP3    H230113   1.246   6.631   7.044  0.2698  1.5843 -0.4621
 2852TIP3   OH230114   1.230   6.064   0.210 -0.0187  0.4871  0.5306
 2852TIP3    H130115   1.242   6.159   0.201  0.3062  0.3849 -0.1991
 2852TIP3    H230116   1.318   6.031   0.231  0.6418  0.0069 -2.4322
 2853TIP3   OH230117   1.342   5.723   0.747  0.1752 -0.5528 -0.1879
 2853TIP3    H130118   1.284   5.728   0.672  1.8803 -0.9202 -1.5978
 2853TIP3    H230119   1.378   5.634   0.744  1.0837 -0.2250  0.4274
 2854TIP3   OH230120   5.028   6.154   7.872  0.1874  0.3433  0.2728
 2854TIP3    H130121   4.942   6.121   7.846 -0.2656  0.6055  1.3630
 2854TIP3    H230122   5.079   6.075   7.894 -0.5048  0.2574  1.7197
 2855TIP3   OH230123   2.841   3.757   1.471  0.8243  0.1222 -0.2349
 2855TIP3    H130124   2.809   3.669   1.491  2.6843 -0.6210 -0.3086
 2855TIP3    H230125   2.894   3.781   1.548  1.4867  0.5818 -0.8249
 2856TIP3   OH230126   5.126   2.293   0.407 -0.5351  0.1630  0.4466
 2856TIP3    H130127   5.180   2.220   0.437  0.8711  0.2541 -1.7191
 2856TIP3    H230128   5.036   2.264   0.423  0.0315 -1.5317  0.7247
 2857TIP3   OH230129   4.865   3.510   0.087 -0.2441  0.4600  0.4723
 2857TIP3    H130130   4.935   3.552   0.137 -1.2284 -1.3900  3.7455
 2857TIP3    H230131   4.784   3.533   0.134 -1.2059 -1.7124  0.0455
 2858TIP3   OH230132   2.325   2.833   2.579 -0.2291  0.3340  0.1071
 2858TIP3    H130133   2.362   2.921   2.578  2.1391 -0.4681 -3.8008
 2858TIP3    H230134   2.234   2.846   2.552 -0.1569  1.6665  0.4262
 2859TIP3   OH230135   6.409   6.714   1.231  0.3087  0.5971 -0.1745
 2859TIP3    H130136   6.379   6.771   1.302 -0.6299  0.7212 -0.6545
 2859TIP3    H230137   6.338   6.717   1.167 -0.6178 -2.4888  0.5348
 2860TIP3   OH230138   1.836   3.973   8.303 -0.3754 -0.1164  0.5843
 2860TIP3    H130139   1.755   4.015   8.334 -0.9959 -2.0995  1.8184
 2860TIP3    H230140   1.808   3.921   8.228 -0.2471 -0.7639  0.9793
 2861TIP3   OH230141   5.743   3.184   0.917 -0.2935  0.4556 -0.4652
 2861TIP3    H130142   5.837   3.183   0.934 -0.6799 -3.1525  2.5086
 2861TIP3    H230143   5.735   3.153   0.826  1.3236  0.7801 -0.7554
 2862TIP3   OH230144   4.272   3.105   8.121  0.3378 -0.1646  0.9123
 2862TIP3    H130145   4.313   3.152   8.194  1.1427 -0.2339  0.5246
 2862TIP3    H230146   4.338   3.108   8.052 -0.5698  0.2604  0.0393
 2863TIP3   OH230147   1.941   6.473   1.592  0.0181  0.0200  0.0150
 2863TIP3    H130148   2.032   6.457   1.618 -0.2536 -0.4810  0.6847
 2863TIP3    H230149   1.909   6.387   1.564 -1.0218 -0.4003  2.2710
 2864TIP3   OH230150   0.120   5.598   7.667  0.4413  0.0729 -0.0724
 2864TIP3    H130151   0.069   5.668   7.628  2.3193  1.7921  0.3863
 2864TIP3    H230152   0.137   5.537   7.595  1.0606  1.4919 -1.1631
 2865TIP3   OH230153   4.359   0.056   1.009  0.2354  0.1329  0.1690
 2865TIP3    H130154   4.439   0.004   1.000  0.1113 -0.3063  1.3425
 2865TIP3    H230155   4.350   0.101   0.926  0.1698 -2.0137 -1.0769
 2866TIP3   OH230156   2.411   1.293   1.307  0.3718 -0.0099  0.3603
 2866TIP3    H130157   2.499   1.318   1.279  0.0321  0.3456 -0.4112
 2866TIP3    H230158   2.373   1.374   1.342  0.2103 -0.0695  0.3224
 2867TIP3   OH230159   2.500   3.630   7.661  0.7966  0.5127  0.0545
 2867TIP3    H130160   2.578   3.584   7.629  1.4750  0.7118  1.3713
 2867TIP3    H230161   2.483   3.697   7.594  0.6213 -0.7098 -1.1864
 2868TIP3   OH230162   5.713   6.707   6.361  0.1024  0.3397  0.3382
 2868TIP3    H130163   5.737   6.784   6.309  0.9386 -0.9169 -1.2168
 2868TIP3    H230164   5.795   6.677   6.400 -0.1008 -0.1276  0.4146
 2869TIP3   OH230165   3.136   1.105   8.374  1.1315  0.1742  0.3946
 2869TIP3    H130166   3.148   1.062   8.458 -1.0184  0.3107  0.8368
 2869TIP3    H230167   3.061   1.164   8.387  1.3093  0.8682 -1.3551
 2870TIP3   OH230168   6.189   0.727   6.283  0.4978 -0.2678  0.2430
 2870TIP3    H130169   6.209   0.723   6.190 -0.1347  0.7225  0.0464
 2870TIP3    H230170   6.109   0.779   6.289 -0.6905 -2.0958  1.1876
 2871TIP3   OH230171   0.347   3.721   1.360 -0.4426 -0.1260 -0.5475
 2871TIP3    H130172   0.369   3.629   1.374 -1.0100 -0.2949 -0.7216
 2871TIP3    H230173   0.297   3.746   1.438 -2.2428 -0.6213 -1.4783
 2872TIP3   OH230174   2.449   2.977   1.513  0.5957  0.1892  0.1983
 2872TIP3    H130175   2.363   2.999   1.547  0.3929  1.7389 -1.2267
 2872TIP3    H230176   2.433   2.914   1.443  0.4927  1.3178 -0.8176
 2873TIP3   OH230177   5.363   0.215   7.943  0.0781  0.0613  0.1464
 2873TIP3    H130178   5.295   0.239   7.879  0.2600  1.5193  0.4574
 2873TIP3    H230179   5.440   0.197   7.890  0.3799  1.7888 -0.0642
 2874TIP3   OH230180   5.628   1.896   1.664 -0.4542 -0.5183 -0.0255
 2874TIP3    H130181   5.650   1.890   1.757  0.8430  1.0248 -0.1813
 2874TIP3    H230182   5.627   1.990   1.646  1.6621 -0.7784 -2.0483
 2875TIP3   OH230183   0.309   2.724   6.324  0.1692 -0.6272  0.0528
 2875TIP3    H130184   0.268   2.801   6.287 -0.3784 -0.1442  1.5611
 2875TIP3    H230185   0.239   2.681   6.374  1.2651 -0.1744  2.0974
 2876TIP3   OH230186   2.984   4.363   6.846  0.1343  0.3056 -0.0878
 2876TIP3    H130187   2.943   4.382   6.931  0.3857  1.3278 -0.1759
 2876TIP3    H230188   2.992   4.449   6.805  2.0380  0.1013 -0.2265
 2877TIP3   OH230189   0.935   1.882   0.375 -0.0063  0.2133  0.1747
 2877TIP3    H130190   1.023   1.880   0.414 -0.2059 -0.7789  0.6157
 2877TIP3    H230191   0.900   1.795   0.392 -1.4281  0.8772  0.8074
 2878TIP3   OH230192   3.340   6.056   7.817 -0.5922  0.3788  0.1607
 2878TIP3    H130193   3.393   6.129   7.787  0.8256 -0.8340 -0.4294
 2878TIP3    H230194   3.376   5.980   7.771 -2.2482 -0.6497  0.4649
 2879TIP3   OH230195   5.943   1.843   0.727 -0.5954 -0.4576 -0.1995
 2879TIP3    H130196   5.873   1.908   0.723 -0.5278 -0.3364  0.5748
 2879TIP3    H230197   6.024   1.895   0.728 -0.5480 -0.5366  0.6658
 2880TIP3   OH230198   5.582   3.142   8.448 -0.1908 -0.2084 -0.3281
 2880TIP3    H130199   5.658   3.120   8.394  0.5090  0.7409  0.2345
 2880TIP3    H230200   5.552   3.227   8.415  0.6135  0.6742  1.1257
 2881TIP3   OH230201   4.575   1.031   0.606  0.1843  0.3000 -0.2294
 2881TIP3    H130202   4.557   1.042   0.513  1.4676 -0.0929 -0.5408
 2881TIP3    H230203   4.660   1.073   0.620 -0.2619  0.8628  0.8869
 2882TIP3   OH230204   3.320   2.285   1.562  0.7203  0.3978  0.2108
 2882TIP3    H130205   3.315   2.380   1.568 -0.8725  0.2516  2.4226
 2882TIP3    H230206   3.370   2.259   1.639  1.0130 -0.5807 -0.2970
 2883TIP3   OH230207   3.327   0.207   0.102 -1.2137 -0.0183 -0.1056
 2883TIP3    H130208   3.256   0.271   0.104 -1.5861 -0.3364 -1.5608
 2883TIP3    H230209   3.406   0.259   0.089 -1.4269  0.2061 -0.5265
 2884TIP3   OH230210   2.038   1.079   1.406  0.5881 -0.1651 -0.7150
 2884TIP3    H130211   2.011   1.170   1.391  0.5321  0.5669  2.9728
 2884TIP3    H230212   1.958   1.035   1.435  1.0606 -0.8870 -0.4831
 2885TIP3   OH230213   3.472   1.394   2.135  0.3284  0.0915  0.5315
 2885TIP3    H130214   3.465   1.305   2.101 -0.6873  0.0193  0.8648
 2885TIP3    H230215   3.381   1.426   2.135  0.6039  0.8950  1.0024
 2886TIP3   OH230216   5.997   1.005   1.125 -0.2693 -0.3926  0.0646
 2886TIP3    H130217   6.057   0.940   1.088 -1.7353 -3.0637  2.0072
 2886TIP3    H230218   6.037   1.029   1.209 -0.4009  0.2069 -0.0411
 2887TIP3   OH230219   2.987   1.932   6.557  0.0610 -0.5494 -0.2061
 2887TIP3    H130220   3.032   1.857   6.517  0.1371 -0.3779 -0.4468
 2887TIP3    H230221   3.055   1.975   6.608  0.8175  1.0477 -2.4089
 2888TIP3   OH230222   1.348   3.470   7.275  0.0473 -0.3622 -0.6290
 2888TIP3    H130223   1.351   3.565   7.265 -0.8697 -0.1497  0.8474
 2888TIP3    H230224   1.265   3.453   7.319 -0.2433 -1.9501 -1.7345
 2889TIP3   OH230225   1.967   3.821   7.924  0.4232  1.0599 -0.6511
 2889TIP3    H130226   1.939   3.785   7.840  0.3996  0.0340 -0.2075
 2889TIP3    H230227   2.063   3.816   7.921  0.3926 -1.0829  0.2587
 2890TIP3   OH230228   6.401   1.402   8.035 -0.1015 -0.3658 -0.7675
 2890TIP3    H130229   6.459   1.367   8.104 -0.9446 -2.1696 -0.9255
 2890TIP3    H230230   6.324   1.346   8.038 -0.5697  0.1269 -2.5540
 2891TIP3   OH230231   6.754   0.364   1.375 -0.1204  0.3518 -0.7066
 2891TIP3    H130232   6.814   0.332   1.308  1.2861  0.7734  0.2870
 2891TIP3    H230233   6.729   0.451   1.345  0.0236  0.3021 -0.9760
 2892TIP3   OH230234   1.951   0.926   1.788 -0.0301 -0.0015  0.0964
 2892TIP3    H130235   1.921   0.991   1.853  4.1063  1.1117  1.2035
 2892TIP3    H230236   1.941   0.842   1.833  1.4224  0.6318  1.7676
 2893TIP3   OH230237   1.787   4.535   7.216  0.2493 -0.0973 -0.1004
 2893TIP3    H130238   1.787   4.531   7.311  0.0056  0.0645 -0.0918
 2893TIP3    H230239   1.709   4.586   7.194 -0.0149 -0.6166 -0.4048
 2894TIP3   OH230240   6.069   4.245   7.896  0.2201 -0.1462  0.6038
 2894TIP3    H130241   6.092   4.318   7.954  0.9679  0.7732 -0.7768
 2894TIP3    H230242   6.133   4.251   7.825 -0.5241 -1.3686 -0.1928
 2895TIP3   OH230243   0.563   4.320   8.493  0.2915  0.1742  0.2606
 2895TIP3    H130244   0.601   4.406   8.474  0.3952  0.0284 -0.1920
 2895TIP3    H230245   0.496   4.307   8.426  2.8942 -1.7746 -2.2052
 2896TIP3   OH230246   2.607   4.985   0.171 -0.2428 -0.1083  0.1055
 2896TIP3    H130247   2.596   4.892   0.152  3.2582 -0.9134  1.3121
 2896TIP3    H230248   2.574   4.995   0.261 -0.6494 -0.1623 -0.0359
 2897TIP3   OH230249   0.087   6.174   1.003 -0.3492 -0.9211  0.1592
 2897TIP3    H130250   0.026   6.152   0.933 -0.8604  0.4789  0.1208
 2897TIP3    H230251   0.031   6.211   1.072  0.3671 -0.3428  0.4372
 2898TIP3   OH230252   3.853   4.780   0.055 -0.3788 -0.5764  0.3039
 2898TIP3    H130253   3.816   4.867   0.040 -2.4833 -1.2985  1.0168
 2898TIP3    H230254   3.832   4.730  -0.024  0.6463 -0.5353 -0.0182
 2899TIP3   OH230255   1.054   5.190   8.445  0.2250  0.3059 -0.2862
 2899TIP3    H130256   1.044   5.181   8.540  1.0532 -0.3905 -0.2509
 2899TIP3    H230257   1.068   5.284   8.431 -1.2261  0.6096  0.1278
 2900TIP3   OH230258   0.556   2.633   1.333  0.1241 -0.2001 -0.3534
 2900TIP3    H130259   0.594   2.679   1.257  1.3121  0.1416  0.4161
 2900TIP3    H230260   0.504   2.563   1.294  0.0898  0.4245 -1.5063
 2901TIP3   OH230261   0.857   3.652   0.361 -0.2042  0.0282 -0.2791
 2901TIP3    H130262   0.894   3.592   0.296  0.5096 -1.9939  1.8438
 2901TIP3    H230263   0.924   3.719   0.372 -0.3054  0.3646 -1.5342
 2902TIP3   OH230264   1.406   2.439   0.549  0.0222  0.3121  0.2932
 2902TIP3    H130265   1.313   2.456   0.533  0.2348  0.0714 -1.4126
 2902TIP3    H230266   1.451   2.509   0.502  0.7227  0.5605  1.2980
 2903TIP3   OH230267   6.461   5.085   0.006 -0.4424  0.7148  0.1022
 2903TIP3    H130268   6.455   5.084   0.102  1.3067 -1.4850  0.2667
 2903TIP3    H230269   6.394   5.023  -0.023 -0.1289  0.4290 -0.0143
 2904TIP3   OH230270   0.652   4.592   8.466  0.3150 -0.5530 -0.0694
 2904TIP3    H130271   0.599   4.620   8.542 -0.5283  0.6319 -1.0449
 2904TIP3    H230272   0.709   4.666   8.448  1.0458 -1.1270 -0.1336
 2905TIP3   OH230273   1.222   5.533   1.129 -0.9667  0.1687  0.3075
 2905TIP3    H130274   1.167   5.593   1.180  0.1344  0.4477  1.2044
 2905TIP3    H230275   1.176   5.524   1.046 -2.8090 -0.2819  1.3215
 2906TIP3   OH230276   6.145   2.892   1.166  0.1692 -0.1275 -0.3336
 2906TIP3    H130277   6.111   2.960   1.226 -1.7991 -2.5419  1.5227
 2906TIP3    H230278   6.101   2.909   1.083  0.2183  1.2270 -0.1066
 2907TIP3   OH230279   2.087   2.589   0.526 -0.5249  0.1787  0.0399
 2907TIP3    H130280   2.046   2.650   0.587  0.6808  2.0334 -0.9045
 2907TIP3    H230281   2.015   2.558   0.471 -1.2900  0.0910  1.0530
 2908TIP3   OH230282   0.395   3.053   8.655  0.1154 -0.4468  0.6868
 2908TIP3    H130283   0.443   3.136   8.657 -1.8797  0.8697 -1.2866
 2908TIP3    H230284   0.313   3.071   8.700 -0.4710 -1.2500 -0.0247
 2909TIP3   OH230285   2.928   6.102   2.341 -0.0992  0.7177 -0.5444
 2909TIP3    H130286   2.964   6.073   2.257 -2.0267 -2.5169 -0.4300
 2909TIP3    H230287   2.834   6.109   2.326 -0.4264  0.5373  1.1842
 2910TIP3   OH230288   5.399   1.210   8.508  0.6309  0.0334 -0.0807
 2910TIP3    H130289   5.489   1.240   8.492  0.9477 -1.4168 -1.2928
 2910TIP3    H230290   5.369   1.263   8.581  1.1045  3.3323 -2.0572
 2911TIP3   OH230291   3.832   6.000   7.510 -0.4950  0.1766 -0.0687
 2911TIP3    H130292   3.915   5.991   7.462 -0.2216 -2.6656  0.7131
 2911TIP3    H230293   3.803   6.089   7.491  2.1459  0.9016 -1.3106
 2912TIP3   OH230294   5.209   0.576   6.805  0.6065  0.1201 -0.6125
 2912TIP3    H130295   5.260   0.496   6.794  0.3307  0.0264 -1.2516
 2912TIP3    H230296   5.126   0.547   6.842  0.4810  0.0975 -0.9062
 2913TIP3   OH230297   6.728   3.218   1.871 -0.5928  0.2060  0.1503
 2913TIP3    H130298   6.817   3.249   1.890  0.3024 -2.6375  1.1565
 2913TIP3    H230299   6.707   3.160   1.944 -2.0834 -1.5063 -1.5196
 2914TIP3   OH230300   4.244   5.296   8.165  0.1681 -0.3195 -0.0307
 2914TIP3    H130301   4.157   5.272   8.132  0.1615 -1.3038  0.6607
 2914TIP3    H230302   4.305   5.251   8.107  0.2606  0.9711 -0.9814
 2915TIP3   OH230303   0.114   5.512   8.076  0.1810  0.1459 -0.3711
 2915TIP3    H130304   0.168   5.588   8.055  0.4038  0.1734  0.3005
 2915TIP3    H230305   0.113   5.508   8.171 -0.3994 -0.2888 -0.3888
 2916TIP3   OH230306   1.909   2.617   2.384 -0.0973 -0.0226 -0.1844
 2916TIP3    H130307   1.973   2.623   2.455 -1.1716  1.0824  0.7494
 2916TIP3    H230308   1.925   2.696   2.331 -0.2536 -0.0800 -0.3167
 2917TIP3   OH230309   5.552   0.410   0.567 -0.3170  0.1029 -0.3107
 2917TIP3    H130310   5.609   0.383   0.638 -0.4980 -0.1337 -0.2553
 2917TIP3    H230311   5.611   0.437   0.496 -0.1431 -0.3805 -0.3469
 2918TIP3   OH230312   0.849   5.882   1.665 -0.4365 -0.1059 -0.4558
 2918TIP3    H130313   0.792   5.893   1.741 -0.0783  0.5769 -0.2746
 2918TIP3    H230314   0.804   5.929   1.594  0.1786  0.9600 -0.1597
 2919TIP3   OH230315   4.938   0.802   1.237  0.1751  0.5106 -0.2708
 2919TIP3    H130316   4.998   0.734   1.267 -1.2047 -1.0142 -0.7875
 2919TIP3    H230317   4.851   0.763   1.248 -0.6110  1.8753 -1.3671
 2920TIP3   OH230318   0.438   3.394   1.547 -0.0580 -0.0855 -0.0708
 2920TIP3    H130319   0.494   3.327   1.509 -1.0313 -1.7804  1.3031
 2920TIP3    H230320   0.449   3.383   1.642 -0.4734  1.5256  0.1928
 2921TIP3   OH230321   3.687   0.959   6.344 -0.4908  0.3610  0.7174
 2921TIP3    H130322   3.647   0.874   6.360 -0.7284  0.3010 -0.1338
 2921TIP3    H230323   3.769   0.939   6.299 -0.9019  0.6018 -0.1669
 2922TIP3   OH230324   6.181   3.281   8.027  0.0230  0.1636 -0.3530
 2922TIP3    H130325   6.240   3.234   8.085 -1.1136 -0.8496  0.0171
 2922TIP3    H230326   6.196   3.242   7.941  0.7472  0.7567 -0.5148
 2923TIP3   OH230327   1.160   1.595   1.888  0.0518  0.0657 -0.0327
 2923TIP3    H130328   1.156   1.610   1.983  0.8572  0.3565 -0.0403
 2923TIP3    H230329   1.114   1.671   1.851  1.6578  1.1339  0.0512
 2924TIP3   OH230330   0.594   3.162   0.604  0.5147  0.0692  0.2438
 2924TIP3    H130331   0.512   3.120   0.631 -0.4236  1.3856 -0.4690
 2924TIP3    H230332   0.605   3.135   0.513  1.0488 -0.3403  0.4230
 2925TIP3   OH230333   4.591   3.408   1.887 -0.0461 -0.5983 -0.0541
 2925TIP3    H130334   4.655   3.434   1.820 -1.5342  0.6547 -1.0721
 2925TIP3    H230335   4.537   3.342   1.845 -1.8196  1.1371 -0.6287
 2926TIP3   OH230336   0.246   0.926   7.425  0.2606 -0.3278  0.4303
 2926TIP3    H130337   0.162   0.929   7.469 -0.0543 -0.8333 -0.1151
 2926TIP3    H230338   0.310   0.951   7.492 -0.2392 -0.7163  1.0602
 2927TIP3   OH230339   6.287   2.655   7.491 -0.0950 -0.5558 -0.2063
 2927TIP3    H130340   6.254   2.725   7.434 -1.9071  0.0547  1.4696
 2927TIP3    H230341   6.294   2.579   7.434 -1.4469  0.1218 -1.3428
 2928TIP3   OH230342   6.650   0.141   8.060  0.3935  0.6200 -0.4246
 2928TIP3    H130343   6.653   0.235   8.044  0.5168  0.4869 -1.1974
 2928TIP3    H230344   6.654   0.101   7.973 -0.5326 -0.0840 -0.1646
 2929TIP3   OH230345   6.693   1.932   6.331 -1.0288 -0.6862 -0.1533
 2929TIP3    H130346   6.763   1.994   6.347 -1.4492  0.1250 -1.2717
 2929TIP3    H230347   6.729   1.847   6.357 -0.3405 -0.0313  1.1206
 2930TIP3   OH230348   6.380   5.774   1.140 -0.0069  0.1120 -0.0034
 2930TIP3    H130349   6.392   5.679   1.148  0.2360  0.1892  0.5525
 2930TIP3    H230350   6.321   5.796   1.213  1.0848  0.6049  0.7481
 2931TIP3   OH230351   4.228   2.391   0.161  0.1932 -0.3028 -0.3445
 2931TIP3    H130352   4.273   2.358   0.083  0.7072  0.7569 -0.5164
 2931TIP3    H230353   4.287   2.371   0.233 -1.0360 -2.8278  0.0591
 2932TIP3   OH230354   3.600   4.151   0.016 -0.1083 -0.5180  0.2510
 2932TIP3    H130355   3.657   4.114   0.084 -1.6929 -0.5384  1.6551
 2932TIP3    H230356   3.615   4.097  -0.061  2.4874  0.1236  0.2376
 2933TIP3   OH230357   3.573   4.839   2.015  0.7241  0.5174 -0.1470
 2933TIP3    H130358   3.565   4.825   2.109  1.9727 -0.4775 -0.1678
 2933TIP3    H230359   3.490   4.808   1.979  1.0150 -1.0002  0.4428
 2934TIP3   OH230360   6.273   0.050   1.355  0.8565 -0.3089  0.4548
 2934TIP3    H130361   6.239   0.107   1.286  2.8607  1.0570  0.5207
 2934TIP3    H230362   6.300   0.110   1.425  2.3013 -1.3853  0.8669
 2935TIP3   OH230363   2.422   2.975   1.096 -0.2821  0.1285 -0.2946
 2935TIP3    H130364   2.328   2.988   1.110 -0.4127 -0.6069 -0.4534
 2935TIP3    H230365   2.436   2.881   1.113  0.7928  0.6201  1.9074
 2936TIP3   OH230366   5.103   1.569   0.833 -0.1343  0.6387  0.5505
 2936TIP3    H130367   5.159   1.641   0.804 -0.8235  0.9714  0.0199
 2936TIP3    H230368   5.079   1.592   0.923  3.0734 -1.0339  2.0048
 2937TIP3   OH230369   4.836   0.591   7.650 -0.6842 -0.7269  0.3928
 2937TIP3    H130370   4.833   0.575   7.745 -1.6968  3.2983  1.2291
 2937TIP3    H230371   4.749   0.627   7.630  0.0782  0.0566 -1.7404
 2938TIP3   OH230372   6.154   3.145   0.160 -0.1507  0.1495 -0.2824
 2938TIP3    H130373   6.192   3.232   0.145 -0.7235  0.3570 -0.5617
 2938TIP3    H230374   6.059   3.158   0.149 -0.4901 -0.0043  2.0565
 2939TIP3   OH230375   3.619   2.588   2.397  0.1265 -0.2640 -0.0552
 2939TIP3    H130376   3.596   2.554   2.311  0.7126 -0.2689 -0.2136
 2939TIP3    H230377   3.579   2.526   2.459 -2.7474  1.2591 -0.2276
 2940TIP3   OH230378   4.440   0.672   1.815 -0.0463  0.1814 -0.4842
 2940TIP3    H130379   4.403   0.722   1.743  0.3104  0.4421 -0.4867
 2940TIP3    H230380   4.411   0.718   1.894  0.3511  0.4442 -0.4887
 2941TIP3   OH230381   3.042   5.906   0.804  0.0147  0.0031 -0.0094
 2941TIP3    H130382   3.031   5.855   0.885  1.4525  2.4468  1.8395
 2941TIP3    H230383   3.096   5.980   0.829 -0.8318  1.7485 -2.8925
 2942TIP3   OH230384   6.334   1.704   8.371  0.1992 -0.3754 -0.1723
 2942TIP3    H130385   6.365   1.615   8.359 -0.1143 -0.8015  1.9427
 2942TIP3    H230386   6.244   1.702   8.339  0.5441 -0.4948 -1.1921
 2943TIP3   OH230387   5.908   6.777   7.647 -0.0015  0.1477 -0.5354
 2943TIP3    H130388   5.954   6.713   7.591  0.0627 -0.2254 -0.0617
 2943TIP3    H230389   5.846   6.724   7.697 -0.5704  0.5822 -0.7804
 2944TIP3   OH230390   0.506   6.092   1.257  0.3106  1.1347  0.4445
 2944TIP3    H130391   0.415   6.075   1.283  0.8662 -0.0256  1.7250
 2944TIP3    H230392   0.508   6.186   1.238 -1.1818  1.1555  0.2967
 2945TIP3   OH230393   4.400   5.745   8.534 -0.4713  0.2996 -0.1011
 2945TIP3    H130394   4.357   5.664   8.507  0.7650  0.4629 -2.8952
 2945TIP3    H230395   4.331   5.797   8.575 -1.5858 -1.6086  0.5468
 2946TIP3   OH230396   3.545   4.499   2.270  0.0939  0.0185  0.2524
 2946TIP3    H130397   3.503   4.585   2.276  1.3965  0.6693  0.5137
 2946TIP3    H230398   3.490   4.442   2.323  0.9172  1.4342  2.8168
 2947TIP3   OH230399   2.555   2.143   0.098 -0.1172  0.0485  0.0928
 2947TIP3    H130400   2.573   2.236   0.087 -2.4644  0.4038 -1.5589
 2947TIP3    H230401   2.567   2.105   0.011  0.3168 -1.1131  0.6335
 2948TIP3   OH230402   1.232   0.574   8.105  0.1158 -0.1147 -0.2679
 2948TIP3    H130403   1.206   0.628   8.179  1.3575  0.0990  0.0300
 2948TIP3    H230404   1.157   0.578   8.045  0.0504  1.7060 -0.1219
 2949TIP3   OH230405   3.824   5.053   0.022  0.0131 -0.2616 -0.5812
 2949TIP3    H130406   3.758   5.106   0.066  1.1899  1.0878 -0.3762
 2949TIP3    H230407   3.788   5.038  -0.065 -0.2132  1.1825 -0.7648
 2950TIP3   OH230408   3.572   3.425   8.071 -0.1950 -0.3060 -0.0304
 2950TIP3    H130409   3.570   3.383   8.157  0.2563 -1.1872 -0.4312
 2950TIP3    H230410   3.535   3.512   8.086 -2.1796 -1.1914  0.6297
 2951TIP3   OH230411   3.430   3.413   7.035  0.1618  0.0281 -0.1881
 2951TIP3    H130412   3.421   3.362   6.955  2.7037 -1.3384  0.2856
 2951TIP3    H230413   3.523   3.407   7.056 -0.0682  2.1275  1.7306
 2952TIP3   OH230414   6.138   6.434   6.662 -0.1487 -0.1155  0.1524
 2952TIP3    H130415   6.229   6.434   6.634 -0.3946 -0.0023 -0.6731
 2952TIP3    H230416   6.128   6.354   6.713  0.8211  0.6721  1.6498
 2953TIP3   OH230417   5.073   0.529   8.329 -0.0075  0.1116 -0.0841
 2953TIP3    H130418   5.097   0.490   8.245 -0.1687  1.4560 -0.7697
 2953TIP3    H230419   5.128   0.484   8.393 -0.4685 -1.5266 -0.7722
 2954TIP3   OH230420   4.978   3.909   0.086  0.3666 -0.2586 -0.3829
 2954TIP3    H130421   5.007   3.886   0.174 -0.7706  1.0977  0.4020
 2954TIP3    H230422   4.883   3.902   0.090  0.3196 -0.4590 -1.5985
 2955TIP3   OH230423   6.364   3.905   1.547 -0.2976 -0.5001  0.1853
 2955TIP3    H130424   6.336   3.926   1.636  0.0088  0.7579  0.0094
 2955TIP3    H230425   6.321   3.971   1.493  2.4601  1.1816 -0.1553
 2956TIP3   OH230426   1.091   3.151   8.648 -0.0665 -0.3555  0.1322
 2956TIP3    H130427   1.143   3.199   8.584  1.3353  1.6684  2.6180
 2956TIP3    H230428   1.001   3.178   8.631  0.3439  0.6308 -0.5610
 2957TIP3   OH230429   2.536   1.941   6.329  0.1939  0.3105 -0.1454
 2957TIP3    H130430   2.456   1.984   6.358  0.9865  1.5193  0.3561
 2957TIP3    H230431   2.601   1.963   6.396  1.2957  0.5677 -1.2474
 2958TIP3   OH230432   6.514   6.585   0.263 -0.5452 -0.2039  0.3573
 2958TIP3    H130433   6.492   6.516   0.201 -1.5703 -1.1543  1.7280
 2958TIP3    H230434   6.575   6.544   0.325 -1.3407  0.0157  1.3168
 2959TIP3   OH230435   5.938   0.413   1.022 -0.0146  0.3612 -0.1669
 2959TIP3    H130436   5.938   0.468   0.944  0.5648  2.2036  1.0792
 2959TIP3    H230437   6.013   0.443   1.073  1.2062 -2.5659 -0.0380
 2960TIP3   OH230438   0.953   5.766   0.866  0.5300 -0.2515 -0.1206
 2960TIP3    H130439   1.001   5.776   0.948  0.3102 -0.2982  0.0150
 2960TIP3    H230440   0.934   5.855   0.839  0.6329 -0.2350 -0.1387
 2961TIP3   OH230441   3.772   5.646   2.015 -0.0958 -0.1534  0.3717
 2961TIP3    H130442   3.787   5.576   1.951  0.6148  0.6298 -0.3394
 2961TIP3    H230443   3.727   5.602   2.087 -1.4313 -0.9444 -0.8897
 2962TIP3   OH230444   3.519   5.780   0.416 -0.8056  0.1778  0.4841
 2962TIP3    H130445   3.504   5.831   0.496  0.8531 -2.1130  2.3938
 2962TIP3    H230446   3.440   5.727   0.406 -0.7636  0.0282  0.9483
 2963TIP3   OH230447   0.262   2.040   1.796  0.0660 -0.6047  0.1734
 2963TIP3    H130448   0.249   2.134   1.805 -0.9695 -0.8078  1.0269
 2963TIP3    H230449   0.294   2.028   1.707 -0.8333  0.4572 -0.3097
 2964TIP3   OH230450   1.562   3.968   7.199 -0.1726  0.1288  0.1755
 2964TIP3    H130451   1.482   4.003   7.160  0.4359  1.3402 -0.0354
 2964TIP3    H230452   1.577   4.022   7.277 -0.6038 -1.3572  1.3311
 2965TIP3   OH230453   3.931   5.796   1.095  0.1694 -0.2924 -0.5090
 2965TIP3    H130454   3.856   5.838   1.053  0.6724  2.9952  1.5175
 2965TIP3    H230455   3.996   5.865   1.102  2.3337 -2.2862  0.3882
 2966TIP3   OH230456   4.640   3.644   6.850 -0.2285 -0.1617 -0.0698
 2966TIP3    H130457   4.669   3.731   6.877  1.7463 -0.5335 -0.8494
 2966TIP3    H230458   4.562   3.660   6.796 -0.1833  1.0761  0.2154
 2967TIP3   OH230459   2.786   3.512   6.882  0.3144  0.0692  0.0946
 2967TIP3    H130460   2.860   3.536   6.938  3.0511  0.8390 -3.4976
 2967TIP3    H230461   2.729   3.589   6.882  1.7954  1.1898 -0.4527
 2968TIP3   OH230462   0.400   2.765   7.972  0.4303  0.0614 -0.1690
 2968TIP3    H130463   0.476   2.722   8.011 -0.4788 -1.7271 -0.2769
 2968TIP3    H230464   0.349   2.796   8.046  1.1186  1.0953 -0.0925
 2969TIP3   OH230465   1.511   1.123   7.688 -0.5147 -0.4759  0.1634
 2969TIP3    H130466   1.474   1.175   7.616  0.6341  1.5079  0.9227
 2969TIP3    H230467   1.441   1.062   7.712 -1.1453 -0.7714 -2.2021
 2970TIP3   OH230468   0.479   5.426   3.010 -0.0254 -0.0068  0.0664
 2970TIP3    H130469   0.501   5.363   2.941  0.3196 -0.7178  0.8107
 2970TIP3    H230470   0.495   5.379   3.092 -0.2404  0.8888  0.6392
 2971TIP3   OH230471   1.763   0.621   0.359 -0.2269 -0.2373 -0.2157
 2971TIP3    H130472   1.786   0.576   0.440 -0.8067 -0.4973 -0.1880
 2971TIP3    H230473   1.844   0.665   0.332 -0.2288  0.4901  0.9055
 2972TIP3   OH230474   6.444   6.538   7.380 -0.4162  0.3410  0.1649
 2972TIP3    H130475   6.445   6.628   7.348 -1.0534  0.2699 -0.0844
 2972TIP3    H230476   6.519   6.497   7.339 -0.4960  0.5916 -0.2401
 2973TIP3   OH230477   6.050   1.884   1.004  0.8079  0.2103  0.1814
 2973TIP3    H130478   6.100   1.907   0.926  0.2757  0.5512 -0.0652
 2973TIP3    H230479   6.081   1.797   1.028 -0.7397 -0.9937 -1.8445
 2974TIP3   OH230480   5.503   3.387   2.207 -0.0283 -0.0127 -0.7787
 2974TIP3    H130481   5.556   3.458   2.172 -0.8843  0.8119 -0.4519
 2974TIP3    H230482   5.424   3.388   2.154 -0.7423  0.3554  0.2599
 2975TIP3   OH230483   2.770   6.497   2.483 -0.5764 -0.1058  0.4563
 2975TIP3    H130484   2.713   6.433   2.526 -1.1051  0.3255  0.4040
 2975TIP3    H230485   2.711   6.569   2.458 -0.2828 -0.3162 -0.9395
 2976TIP3   OH230486   6.372   1.971   1.503  0.0151 -0.1075 -0.4174
 2976TIP3    H130487   6.383   1.904   1.435  1.9148  1.0595 -1.3651
 2976TIP3    H230488   6.420   1.936   1.578 -0.7769 -0.7190 -0.1888
 2977TIP3   OH230489   0.632   5.933   2.596  0.2080  0.5024 -0.5549
 2977TIP3    H130490   0.637   6.028   2.606  0.7890  0.4428 -0.2840
 2977TIP3    H230491   0.578   5.904   2.670  1.9493  0.3894  0.7277
 2978TIP3   OH230492   2.408   3.576   6.723 -0.1602 -0.1609 -0.1109
 2978TIP3    H130493   2.375   3.501   6.772  0.8820 -0.2909  0.4053
 2978TIP3    H230494   2.456   3.539   6.650  1.2957 -0.0461  0.7533
 2979TIP3   OH230495   5.503   0.993   1.915  0.6152 -0.0548  0.0841
 2979TIP3    H130496   5.417   0.975   1.952 -0.3165  0.2275 -1.8443
 2979TIP3    H230497   5.558   0.921   1.947 -0.9026 -1.5530 -0.5131
 2980TIP3   OH230498   5.359   0.923   6.946  0.2429 -0.2274 -0.3231
 2980TIP3    H130499   5.425   0.926   7.015  1.2167  0.2258 -1.2555
 2980TIP3    H230500   5.401   0.964   6.870 -1.2281  0.4021 -0.8377
 2981TIP3   OH230501   5.254   4.035   8.092 -0.2592  0.4031 -0.3875
 2981TIP3    H130502   5.258   4.121   8.051  2.0757  0.6678  0.2146
 2981TIP3    H230503   5.284   4.051   8.182  1.8616 -1.2288 -0.7248
 2982TIP3   OH230504   4.961   1.577   7.416  0.2557 -0.1323 -0.4826
 2982TIP3    H130505   4.979   1.496   7.465 -0.4941 -0.0966 -0.1249
 2982TIP3    H230506   4.938   1.641   7.484  1.8142  0.6751 -0.6855
 2983TIP3   OH230507   2.001   4.356   0.419  0.2642 -0.0109 -0.2049
 2983TIP3    H130508   1.976   4.421   0.484  0.2763 -1.4019  1.2599
 2983TIP3    H230509   2.058   4.295   0.466 -0.3375 -1.4984 -1.3154
 2984TIP3   OH230510   2.801   2.314   6.545 -0.3913  0.1710 -0.5581
 2984TIP3    H130511   2.871   2.278   6.491  0.3119  2.2679 -1.1577
 2984TIP3    H230512   2.733   2.341   6.482 -1.6305 -1.5079 -0.0115
 2985TIP3   OH230513   3.356   1.397   7.419 -0.0892 -0.0854 -0.3355
 2985TIP3    H130514   3.302   1.466   7.380  2.0036  1.5302 -0.5915
 2985TIP3    H230515   3.309   1.370   7.498 -0.9233  1.7284 -0.1694
 2986TIP3   OH230516   4.550   4.480   0.219  0.2948 -0.0542  0.2197
 2986TIP3    H130517   4.465   4.439   0.235 -1.1733  1.8701 -1.8286
 2986TIP3    H230518   4.601   4.413   0.173 -1.2794 -0.3414 -1.2413
 2987TIP3   OH230519   1.557   4.983   6.971  0.0528 -0.1065 -0.0477
 2987TIP3    H130520   1.524   5.072   6.989  0.6439 -0.0267  0.6917
 2987TIP3    H230521   1.636   4.997   6.919  0.1528 -0.1998  0.0803
 2988TIP3   OH230522   6.209   6.279   2.485  0.3864  0.7119  0.6995
 2988TIP3    H130523   6.134   6.223   2.463  0.3201  1.7179 -1.9672
 2988TIP3    H230524   6.284   6.220   2.479  0.0790  0.3120  0.6754
 2989TIP3   OH230525   3.767   1.869   1.428 -0.3498 -0.2428 -0.4171
 2989TIP3    H130526   3.702   1.800   1.414 -0.3560  0.0045 -1.7292
 2989TIP3    H230527   3.793   1.896   1.340  0.8176  0.3413  0.0831
 2990TIP3   OH230528   0.647   1.214   7.447 -0.1349 -0.2323 -0.0983
 2990TIP3    H130529   0.560   1.179   7.426 -0.6045  0.9855 -0.3075
 2990TIP3    H230530   0.630   1.304   7.476  1.1104  0.2707 -0.8359
 2991TIP3   OH230531   0.427   6.105   8.569  0.2484  0.1119 -1.1183
 2991TIP3    H130532   0.515   6.098   8.607  0.5229 -0.6317 -1.8527
 2991TIP3    H230533   0.376   6.150   8.636  0.6099 -1.4902  0.3224
 2992TIP3   OH230534   0.336   5.180   0.352  0.2803 -0.0187 -0.0436
 2992TIP3    H130535   0.379   5.266   0.358 -0.7443  0.4934  0.1932
 2992TIP3    H230536   0.253   5.192   0.397  0.1293 -1.1538 -0.0052
 2993TIP3   OH230537   6.171   0.521   1.129  0.4306 -0.8999 -0.1927
 2993TIP3    H130538   6.264   0.544   1.131  0.3054  0.0294 -2.0191
 2993TIP3    H230539   6.126   0.601   1.154  0.0832 -2.0315  3.2652
 2994TIP3   OH230540   6.469   2.611   7.205  0.6272 -0.3599  0.0807
 2994TIP3    H130541   6.442   2.604   7.114  1.9162  1.6995 -0.5294
 2994TIP3    H230542   6.544   2.671   7.204 -0.5908  1.4090  2.7167
 2995TIP3   OH230543   4.322   6.519   1.673  1.3029  0.4905 -0.2314
 2995TIP3    H130544   4.391   6.465   1.713  0.9208  1.1456  1.3606
 2995TIP3    H230545   4.274   6.555   1.747 -0.8345 -0.0237 -1.3040
 2996TIP3   OH230546   5.348   2.725   6.596  0.1860 -0.2968 -0.4815
 2996TIP3    H130547   5.407   2.717   6.672 -0.9445  1.3356  0.6251
 2996TIP3    H230548   5.398   2.686   6.524  2.3797  0.4441  0.5213
 2997TIP3   OH230549   5.886   0.389   2.434  0.7620  0.4125  0.2701
 2997TIP3    H130550   5.912   0.300   2.458 -3.0655 -0.8187  0.4143
 2997TIP3    H230551   5.947   0.445   2.483  1.4242 -2.1028  2.5509
 2998TIP3   OH230552   1.821   2.833   1.850  0.0796  0.3825  0.5826
 2998TIP3    H130553   1.808   2.894   1.778 -0.1939 -1.0213 -0.6003
 2998TIP3    H230554   1.864   2.885   1.918  2.4907  1.2504 -1.4339
 2999TIP3   OH230555   2.550   2.136   0.661 -0.4458  0.1292  0.0029
 2999TIP3    H130556   2.514   2.219   0.695 -0.9785 -0.6052  1.3008
 2999TIP3    H230557   2.557   2.150   0.567  1.4528  2.4193  0.3700
 3000TIP3   OH230558   6.336   3.606   2.118 -1.1114  0.3670 -0.6755
 3000TIP3    H130559   6.394   3.663   2.067  0.3160  0.2913  0.7832
 3000TIP3    H230560   6.319   3.655   2.198 -0.2118 -1.0331  0.4205
 3001TIP3   OH230561   3.447   3.087   7.314 -0.3103  0.1763 -0.3154
 3001TIP3    H130562   3.438   3.170   7.361  1.1317 -0.6306  1.4827
 3001TIP3    H230563   3.412   3.106   7.227  0.0404  2.7081 -0.0020
 3002TIP3   OH230564   0.358   3.502   7.005 -0.0014  0.1556  0.0176
 3002TIP3    H130565   0.380   3.465   6.920  0.5309 -1.0236  0.6421
 3002TIP3    H230566   0.271   3.541   6.993  0.3663  0.6256 -1.2337
 3003TIP3   OH230567   6.126   2.069   1.779  0.3637  0.1339  0.1270
 3003TIP3    H130568   6.035   2.100   1.783  0.7545  1.5749 -1.1454
 3003TIP3    H230569   6.176   2.137   1.824  0.9636  0.0183 -0.3598
 3004TIP3   OH230570   0.854   4.278   0.135 -0.2489 -0.2233  0.1993
 3004TIP3    H130571   0.881   4.186   0.123  0.7915  0.0686  0.2235
 3004TIP3    H230572   0.759   4.276   0.126 -0.2046 -1.2491 -0.2103
 3005TIP3   OH230573   4.236   6.871   6.623  0.3774 -0.6226  0.1277
 3005TIP3    H130574   4.182   6.947   6.601  0.8134 -0.1707  0.5776
 3005TIP3    H230575   4.197   6.836   6.703  0.8622 -0.1766  0.5636
 3006TIP3   OH230576   4.437   3.524   1.528  0.0148  0.0768  0.4737
 3006TIP3    H130577   4.432   3.428   1.533 -0.0294  0.0055 -0.5812
 3006TIP3    H230578   4.527   3.544   1.551  0.7768 -0.4589 -1.7453
 3007TIP3   OH230579   3.403   5.218   8.395  0.1472 -0.4702 -0.4413
 3007TIP3    H130580   3.385   5.282   8.464 -0.5755 -1.4310  0.2877
 3007TIP3    H230581   3.367   5.136   8.428 -1.1925 -0.7525 -2.3857
 3008TIP3   OH230582   2.884   2.817   8.292 -0.1671  0.2263 -0.7047
 3008TIP3    H130583   2.848   2.744   8.243  2.0010 -0.9023 -0.7003
 3008TIP3    H230584   2.955   2.779   8.345 -0.2005  1.9955  0.7259
 3009TIP3   OH230585   3.080   2.588   7.756  0.0501  0.2651 -0.4174
 3009TIP3    H130586   3.011   2.622   7.813 -0.2709  0.8509 -1.1461
 3009TIP3    H230587   3.033   2.545   7.685  0.4287  0.7391 -0.9594
 3010TIP3   OH230588   1.646   1.151   7.149 -0.3588 -0.6388 -0.3768
 3010TIP3    H130589   1.711   1.162   7.080  1.7052 -1.3257  1.3290
 3010TIP3    H230590   1.695   1.161   7.231 -2.5411 -0.5453  1.0290
 3011TIP3   OH230591   4.740   2.971   6.573  0.1872 -0.6742  0.1477
 3011TIP3    H130592   4.655   2.927   6.569 -0.7415  1.1496 -1.1471
 3011TIP3    H230593   4.741   3.029   6.498  2.4246 -0.3117  0.3876
 3012TIP3   OH230594   4.892   6.521   0.829  0.2067  0.2166  0.2105
 3012TIP3    H130595   4.878   6.465   0.752  0.6017 -1.9990  1.6567
 3012TIP3    H230596   4.947   6.468   0.887 -0.5918  1.5571  2.2876
 3013TIP3   OH230597   3.365   5.763   1.844 -0.2514  0.3717 -0.0873
 3013TIP3    H130598   3.434   5.826   1.862 -0.9216  1.5940 -1.5799
 3013TIP3    H230599   3.291   5.792   1.898 -0.3508  0.4761 -0.2789
 3014TIP3   OH230600   1.025   2.696   1.701 -0.2744  0.1886  0.1379
 3014TIP3    H130601   0.982   2.748   1.769 -1.9717 -0.2156 -0.5583
 3014TIP3    H230602   0.959   2.687   1.632  1.2764  0.3353 -1.4547
 3015TIP3   OH230603   2.811   4.757   0.242  0.0655 -0.3030  0.8963
 3015TIP3    H130604   2.856   4.683   0.283 -0.3420 -0.9509  0.2102
 3015TIP3    H230605   2.732   4.718   0.203  0.6419  0.1830 -0.8661
 3016TIP3   OH230606   6.162   4.996   7.878  0.3442  0.3017  0.0143
 3016TIP3    H130607   6.066   5.003   7.876  0.2911 -0.3439  0.1211
 3016TIP3    H230608   6.192   5.067   7.821 -0.2748 -0.8913 -1.8871
 3017TIP3   OH230609   0.526   6.035   8.244 -0.2976 -0.2542  0.0778
 3017TIP3    H130610   0.584   5.959   8.248 -1.3186 -1.1754 -1.3710
 3017TIP3    H230611   0.544   6.083   8.324  2.3816 -0.5146 -0.2727
 3018TIP3   OH230612   6.049   1.420   6.587  0.5904  0.1324 -0.1547
 3018TIP3    H130613   6.010   1.390   6.504  0.8036  0.6349 -0.4352
 3018TIP3    H230614   6.017   1.357   6.652  0.7591 -0.5143 -0.6850
 3019TIP3   OH230615   4.092   6.539   1.216 -0.4026  0.3109 -0.4598
 3019TIP3    H130616   4.127   6.575   1.297 -0.5785  0.1294 -0.3014
 3019TIP3    H230617   4.097   6.611   1.153  0.1916  0.3056 -0.4239
 3020TIP3   OH230618   2.968   2.730   7.071  0.6629 -0.2339  0.5039
 3020TIP3    H130619   3.030   2.663   7.042  0.7169  0.3832 -0.8993
 3020TIP3    H230620   3.016   2.781   7.136  1.2200 -0.4835  0.2919
 3021TIP3   OH230621   1.278   4.622   8.027 -0.5716  0.6040  0.3780
 3021TIP3    H130622   1.204   4.669   8.066 -0.8676  1.0665 -0.7031
 3021TIP3    H230623   1.252   4.530   8.032 -0.3664  0.5936  1.7325
 3022TIP3   OH230624   2.894   6.684   8.410 -0.9101  0.1213  0.5203
 3022TIP3    H130625   2.944   6.766   8.406  0.9993 -0.6274  4.2013
 3022TIP3    H230626   2.925   6.633   8.335 -0.8324  2.0438 -0.8181
 3023TIP3   OH230627   5.057   5.761   7.722  0.5071 -0.2103  0.2763
 3023TIP3    H130628   4.970   5.740   7.689  0.4411  2.5229 -1.5668
 3023TIP3    H230629   5.115   5.748   7.648  1.3337  0.1704  0.8420
 3024TIP3   OH230630   5.503   6.022   0.455 -0.3059  0.2033 -0.1062
 3024TIP3    H130631   5.584   5.972   0.454 -0.9775 -1.2237  2.8670
 3024TIP3    H230632   5.450   5.984   0.385  0.4236 -1.0563 -0.0031
 3025TIP3   OH230633   0.581   4.865   0.333  0.3714 -0.0401  0.0113
 3025TIP3    H130634   0.633   4.813   0.273 -0.3737 -0.0645 -0.6294
 3025TIP3    H230635   0.643   4.926   0.373  0.7288  0.6374 -1.5125
 3026TIP3   OH230636   0.164   4.451   2.344 -0.2060  0.3244  0.2213
 3026TIP3    H130637   0.097   4.513   2.373  0.4664  0.1181  2.4087
 3026TIP3    H230638   0.239   4.467   2.402  1.4547  0.1214 -1.7311
 3027TIP3   OH230639   0.907   0.682   7.215 -0.3391  0.2218 -0.5723
 3027TIP3    H130640   0.846   0.736   7.166  0.1058  0.9528 -0.3354
 3027TIP3    H230641   0.855   0.606   7.242 -1.6151  1.6006  1.0433
 3028TIP3   OH230642   3.701   1.072   7.986  0.0348  0.2847  0.4188
 3028TIP3    H130643   3.680   1.165   7.981 -2.7093 -0.2974 -0.7669
 3028TIP3    H230644   3.647   1.039   8.059  2.3473 -0.1249  2.0382
 3029TIP3   OH230645   0.338   5.067   7.860 -0.3634  0.3612 -0.6738
 3029TIP3    H130646   0.270   5.003   7.842 -0.5809  0.0261  1.1146
 3029TIP3    H230647   0.301   5.122   7.929  0.9041  0.6111 -0.1694
 3030TIP3   OH230648   6.440   3.057   2.163  0.4410 -0.1276  0.1914
 3030TIP3    H130649   6.427   3.012   2.246 -0.2794  0.3297  0.3352
 3030TIP3    H230650   6.376   3.017   2.104  0.2627  0.2332  0.1359
 3031TIP3   OH230651   6.792   6.062   8.606  0.3824  0.0255  0.2172
 3031TIP3    H130652   6.742   6.132   8.646  2.9317  1.2431  1.5698
 3031TIP3    H230653   6.851   6.106   8.545 -0.6248 -1.4190 -1.9183
 3032TIP3   OH230654   0.054   2.896   8.434  0.1947  0.1466 -0.2866
 3032TIP3    H130655   0.039   2.807   8.401  0.8808  0.5037 -1.6009
 3032TIP3    H230656   0.148   2.910   8.423 -0.0026  1.2506 -0.6126
 3033TIP3   OH230657   4.295   5.927   1.010 -0.6269  0.1024 -0.2720
 3033TIP3    H130658   4.283   5.980   0.931 -0.6639  1.2041  0.4460
 3033TIP3    H230659   4.241   5.971   1.076 -1.0499 -1.1305  0.2289
 3034TIP3   OH230660   3.758   3.231   1.912  0.3355 -0.7348 -0.2696
 3034TIP3    H130661   3.717   3.306   1.955 -1.5534 -0.3295 -2.6115
 3034TIP3    H230662   3.739   3.157   1.969 -1.9021 -0.1871 -0.2395
 3035TIP3   OH230663   1.331   1.209   8.214 -0.8624  0.3485 -0.1813
 3035TIP3    H130664   1.390   1.159   8.272  0.0798  0.8725 -0.6659
 3035TIP3    H230665   1.321   1.293   8.257  0.4996  1.0404 -1.1402
 3036TIP3   OH230666   2.853   5.527   7.260 -0.7890  0.3328  0.0314
 3036TIP3    H130667   2.793   5.567   7.323 -1.5212  0.2202 -0.5831
 3036TIP3    H230668   2.937   5.572   7.275 -1.7619  2.6684 -1.1539
 3037TIP3   OH230669   2.998   3.577   0.428  0.0198 -0.5065 -0.2040
 3037TIP3    H130670   3.014   3.488   0.458  1.4387 -0.6211 -1.1998
 3037TIP3    H230671   2.928   3.569   0.363 -0.1992 -0.8150  0.0669
 3038TIP3   OH230672   3.247   4.301   0.596 -0.0080  0.3090  0.1580
 3038TIP3    H130673   3.328   4.285   0.644  1.1523  3.4092 -0.5255
 3038TIP3    H230674   3.180   4.311   0.664  0.7324  0.3855  0.8934
 3039TIP3   OH230675   3.109   6.011   7.982 -0.3467 -0.4196  0.3173
 3039TIP3    H130676   3.039   5.953   7.951  0.3871 -0.6273 -1.0249
 3039TIP3    H230677   3.182   5.994   7.923  0.2038  1.2066  0.4875
 3040TIP3   OH230678   1.351   5.869   6.755 -0.1237  0.3246 -0.0644
 3040TIP3    H130679   1.338   5.892   6.847  0.4352  0.7768 -0.0903
 3040TIP3    H230680   1.374   5.952   6.713 -0.8527  0.2102 -0.7050
 3041TIP3   OH230681   1.404   0.181   0.649  0.5069  0.3320  0.6170
 3041TIP3    H130682   1.415   0.141   0.736  1.4222  0.2684  0.4813
 3041TIP3    H230683   1.341   0.124   0.605  3.3187 -2.3296 -0.3427
 3042TIP3   OH230684   2.716   3.906   7.029 -0.2357  0.0527 -0.1158
 3042TIP3    H130685   2.668   3.842   6.976 -1.3728  1.1209 -0.4402
 3042TIP3    H230686   2.807   3.879   7.022 -0.7990 -2.3767  0.9655
 3043TIP3   OH230687   2.728   4.865   1.790 -0.0350  0.3597  0.3611
 3043TIP3    H130688   2.646   4.911   1.777  0.3034  0.9770  0.3783
 3043TIP3    H230689   2.773   4.914   1.858  0.5022  0.2328  0.1030
 3044TIP3   OH230690   3.344   1.060   0.254 -0.1018  0.2890 -0.0261
 3044TIP3    H130691   3.362   1.077   0.347 -1.0809 -0.4895  0.3292
 3044TIP3    H230692   3.375   1.138   0.209 -1.1182  1.4046  1.1401
 3045TIP3   OH230693   1.933   4.916   0.690  0.6198 -0.5611  0.1624
 3045TIP3    H130694   1.896   4.928   0.778  0.9626 -0.5078  0.3008
 3045TIP3    H230695   1.872   4.858   0.646  0.6124 -0.8460  0.5445
 3046TIP3   OH230696   2.048   1.075   2.269 -0.2296  0.1083  0.3796
 3046TIP3    H130697   2.038   1.090   2.363  0.3339  1.6368  0.2274
 3046TIP3    H230698   2.139   1.096   2.250 -0.3944  0.0465 -0.5509
 3047TIP3   OH230699   2.541   5.378   6.681  0.0328 -0.0336  0.6160
 3047TIP3    H130700   2.576   5.450   6.628  1.2699 -0.9941  0.0704
 3047TIP3    H230701   2.457   5.357   6.639  0.6803 -0.3357 -0.5824
 3048TIP3   OH230702   3.050   1.398   0.588 -0.2053 -0.1919 -0.0332
 3048TIP3    H130703   3.022   1.395   0.679  0.4483 -0.4098  0.1674
 3048TIP3    H230704   3.118   1.466   0.586 -1.7567  1.4237 -0.8092
 3049TIP3   OH230705   6.331   3.823   2.312  0.0177  0.4089  0.4878
 3049TIP3    H130706   6.342   3.784   2.399  0.7518  0.1382  0.2812
 3049TIP3    H230707   6.417   3.858   2.290  0.4709 -1.5082 -1.0598
 3050TIP3   OH230708   3.716   0.999   0.403  0.4144  0.2841 -0.2292
 3050TIP3    H130709   3.719   1.095   0.404  0.7582  0.2878 -0.9034
 3050TIP3    H230710   3.760   0.973   0.483  0.0272  0.6956  0.1209
 3051TIP3   OH230711   5.083   0.330   7.149  0.1871  0.4330 -0.0707
 3051TIP3    H130712   5.057   0.399   7.088 -1.5466  0.7376  0.9535
 3051TIP3    H230713   5.033   0.253   7.122  0.4958  0.1698  0.0925
 3052TIP3   OH230714   3.736   5.207   1.546  0.2645  0.7857  0.4611
 3052TIP3    H130715   3.830   5.227   1.536  0.2157  0.2992 -1.3678
 3052TIP3    H230716   3.694   5.292   1.555  0.5667  1.3334 -2.3256
 3053TIP3   OH230717   2.215   0.936   2.590  0.4805 -0.4368 -0.3154
 3053TIP3    H130718   2.286   0.936   2.526 -0.4804 -0.1847 -1.4184
 3053TIP3    H230719   2.185   0.845   2.593  0.0391 -0.3119 -0.7964
 3054TIP3   OH230720   1.943   4.184   6.441 -0.0196  0.4151  0.3087
 3054TIP3    H130721   1.854   4.155   6.419  0.1445  0.1257  0.0228
 3054TIP3    H230722   1.999   4.111   6.415  0.2573  0.3879  0.9645
 3055TIP3   OH230723   4.856   0.328   1.203 -0.1269  0.5238  0.3580
 3055TIP3    H130724   4.887   0.237   1.197 -0.5078  0.3769  0.5955
 3055TIP3    H230725   4.823   0.336   1.293 -2.2493  0.1952 -0.3510
 3056TIP3   OH230726   5.685   5.119   8.050  0.1560 -0.9542 -0.9697
 3056TIP3    H130727   5.703   5.198   7.999  2.3138 -1.0554 -0.4525
 3056TIP3    H230728   5.594   5.129   8.078  0.4869  1.5490 -0.5569
 3057TIP3   OH230729   3.396   0.532   0.250  0.3708 -0.4691  0.0171
 3057TIP3    H130730   3.339   0.578   0.312 -1.0581 -1.8176 -0.2269
 3057TIP3    H230731   3.435   0.461   0.302  0.2074 -0.7943 -0.3012
 3058TIP3   OH230732   2.773   0.971   6.400  0.2894 -0.0020 -0.7780
 3058TIP3    H130733   2.792   1.037   6.334 -1.2947 -0.6857 -1.9640
 3058TIP3    H230734   2.740   1.021   6.475  0.9029  0.6793 -0.9494
 3059TIP3   OH230735   3.267   1.983   6.631  0.6730 -0.1132  0.0095
 3059TIP3    H130736   3.250   1.985   6.537  1.2978 -0.3662 -0.1111
 3059TIP3    H230737   3.330   1.911   6.642 -2.0328 -2.5349  1.0384
 3060TIP3   OH230738   6.095   5.912   8.560 -0.2726 -0.1721 -0.5358
 3060TIP3    H130739   6.005   5.880   8.558 -0.3386 -0.0558  0.3284
 3060TIP3    H230740   6.130   5.891   8.473 -0.4947 -2.0133 -0.2200
 3061TIP3   OH230741   3.384   1.136   7.271  0.0644  0.0529 -0.2983
 3061TIP3    H130742   3.353   1.206   7.329  0.2122 -1.3298  1.5277
 3061TIP3    H230743   3.321   1.065   7.283  1.4737 -1.1723  0.0967
 3062TIP3   OH230744   4.346   0.470   8.337 -0.4033  0.2661  0.0430
 3062TIP3    H130745   4.296   0.391   8.317  0.4101 -0.1466 -0.4356
 3062TIP3    H230746   4.358   0.513   8.253  0.6714 -0.0355  0.0208
 3063TIP3   OH230747   5.087   4.757   1.022 -0.0831  0.1495  0.5048
 3063TIP3    H130748   5.027   4.682   1.025  0.1844 -0.0366  2.1951
 3063TIP3    H230749   5.029   4.834   1.026 -0.3084  0.0128 -0.1379
 3064TIP3   OH230750   0.616   2.202   7.081 -0.3729  0.4467  0.0403
 3064TIP3    H130751   0.696   2.177   7.037 -0.1863  0.1074  0.5596
 3064TIP3    H230752   0.630   2.178   7.173 -0.6041  1.4600  0.3584
 3065TIP3   OH230753   4.837   6.064   0.816 -0.2126  0.1389 -1.0347
 3065TIP3    H130754   4.851   5.993   0.753  0.9494 -0.3421 -0.2790
 3065TIP3    H230755   4.757   6.040   0.862  1.4872 -2.1458  1.0087
 3066TIP3   OH230756   4.715   0.301   1.904 -0.2151 -0.0172 -0.5706
 3066TIP3    H130757   4.626   0.289   1.937 -0.5259 -0.9805 -1.7054
 3066TIP3    H230758   4.737   0.391   1.929 -0.7469 -0.3956  1.4305
 3067TIP3   OH230759   1.601   6.848   7.151 -0.0967  0.2073  0.4091
 3067TIP3    H130760   1.648   6.774   7.112  0.1289  0.6059 -0.0949
 3067TIP3    H230761   1.514   6.814   7.169  0.0517 -0.2281  0.3272
 3068TIP3   OH230762   3.946   1.696   0.216 -0.5301 -0.1862  0.3526
 3068TIP3    H130763   4.000   1.728   0.144  0.2086 -0.4148  0.7913
 3068TIP3    H230764   4.009   1.678   0.286 -1.0594 -1.3606  0.5548
 3069TIP3   OH230765   3.829   2.225   6.693  0.4332 -0.4380 -0.2391
 3069TIP3    H130766   3.867   2.168   6.627  0.0953  0.4764 -1.2594
 3069TIP3    H230767   3.737   2.199   6.699  0.6382 -1.0155  0.4211
 3070TIP3   OH230768   0.455   0.667   6.191 -0.5851  0.4148  0.8987
 3070TIP3    H130769   0.424   0.725   6.121  0.2737 -0.2488 -0.0552
 3070TIP3    H230770   0.544   0.697   6.209 -0.2611 -0.3523  0.6398
 3071TIP3   OH230771   4.781   1.190   0.616 -0.5762  0.0136  0.6263
 3071TIP3    H130772   4.771   1.203   0.711  0.3300 -0.6018  0.8213
 3071TIP3    H230773   4.874   1.175   0.604 -0.8562 -1.2047 -0.2027
 3072TIP3   OH230774   4.257   0.169   6.897 -0.2188 -0.3042 -0.1149
 3072TIP3    H130775   4.179   0.194   6.946  1.2846  1.4063  1.5445
 3072TIP3    H230776   4.229   0.170   6.806 -2.2072 -0.0578  0.4481
 3073TIP3   OH230777   5.661   1.410   8.165 -0.2619 -0.6381 -0.2582
 3073TIP3    H130778   5.705   1.435   8.083 -1.9342  2.1352 -0.4003
 3073TIP3    H230779   5.572   1.386   8.138 -0.7778  0.1307  0.7282
 3074TIP3   OH230780   3.409   6.669   1.100  0.1676  0.2754 -0.7822
 3074TIP3    H130781   3.402   6.640   1.191  1.3903  0.6315 -0.5564
 3074TIP3    H230782   3.384   6.761   1.102 -1.3131 -0.0930 -1.0877
 3075TIP3   OH230783   3.326   4.256   7.349 -0.3873  0.5573 -0.1731
 3075TIP3    H130784   3.326   4.271   7.255 -1.0142 -0.7909 -0.4056
 3075TIP3    H230785   3.413   4.222   7.368 -0.8600 -0.9447 -0.5891
 3076TIP3   OH230786   6.337   0.539   8.224 -0.1119 -0.1728 -0.0522
 3076TIP3    H130787   6.428   0.510   8.220 -0.0604 -0.0827  0.4312
 3076TIP3    H230788   6.286   0.461   8.204  0.0417 -0.4506  0.6333
 3077TIP3   OH230789   1.252   3.187   1.272 -0.3542 -0.1559 -0.3007
 3077TIP3    H130790   1.347   3.185   1.269 -0.2557  1.3659  0.7728
 3077TIP3    H230791   1.225   3.187   1.180  0.6707 -0.4578 -0.6133
 3078TIP3   OH230792   3.726   4.495   7.980 -0.5328  0.4447 -0.0649
 3078TIP3    H130793   3.700   4.408   8.010  1.6759  0.0045  0.7842
 3078TIP3    H230794   3.683   4.505   7.895 -0.0679 -1.8974 -0.6498
 3079TIP3   OH230795   5.575   4.163   1.932 -0.3176  0.1285  0.0509
 3079TIP3    H130796   5.548   4.080   1.892 -0.8572 -0.2440  1.1230
 3079TIP3    H230797   5.536   4.231   1.877  1.6426 -0.2348 -1.9238
 3080TIP3   OH230798   2.992   6.782   7.254 -0.3510  0.4967  0.1866
 3080TIP3    H130799   3.082   6.809   7.234 -0.8862  2.0483 -0.2462
 3080TIP3    H230800   2.957   6.751   7.171 -0.4880  0.6972  0.1701
 3081TIP3   OH230801   0.611   4.057   6.857  0.7774  0.4481  0.0801
 3081TIP3    H130802   0.540   4.053   6.793  1.4551 -1.7421 -0.6238
 3081TIP3    H230803   0.566   4.056   6.942 -0.0609 -0.2745 -0.3498
 3082TIP3   OH230804   6.594   0.969   1.843 -0.0424 -0.1815 -0.8978
 3082TIP3    H130805   6.648   1.044   1.818 -0.7090  0.7278  0.2861
 3082TIP3    H230806   6.532   1.005   1.908 -0.6830 -1.6497 -0.6691
 3083TIP3   OH230807   1.720   4.596   8.188 -0.1195 -0.4727 -0.3796
 3083TIP3    H130808   1.771   4.645   8.123  0.7085 -0.3701  0.3339
 3083TIP3    H230809   1.712   4.508   8.151  0.9621 -0.6147 -0.3131
 3084TIP3   OH230810   5.589   1.886   8.423  0.3042 -0.1643  0.5280
 3084TIP3    H130811   5.527   1.953   8.394 -0.9977 -1.7961 -0.7064
 3084TIP3    H230812   5.535   1.808   8.437  2.2738 -2.6963 -3.9032
 3085TIP3   OH230813   5.596   5.904   7.340  0.5274  0.0225  0.3166
 3085TIP3    H130814   5.581   5.823   7.389  0.0813  0.4072  0.8298
 3085TIP3    H230815   5.631   5.875   7.256 -1.5531 -0.8246 -0.3148
 3086TIP3   OH230816   1.930   4.384   6.111  0.2449  0.3895  0.3301
 3086TIP3    H130817   1.862   4.382   6.178  2.8046  0.6597  3.1617
 3086TIP3    H230818   1.955   4.477   6.105  0.1395  0.3490 -0.9442
 3087TIP3   OH230819   4.792   4.451   0.726  0.5115  0.1305  0.0933
 3087TIP3    H130820   4.832   4.495   0.802  0.2119 -1.4721  1.2235
 3087TIP3    H230821   4.816   4.506   0.652  2.1124  0.9318  1.1454
 3088TIP3   OH230822   6.284   2.804   8.392 -0.9438 -0.0594 -0.9677
 3088TIP3    H130823   6.266   2.773   8.480 -1.5845 -1.8077 -1.6775
 3088TIP3    H230824   6.226   2.879   8.381 -0.7504  0.2699  0.1383
 3089TIP3   OH230825   2.615   0.962   1.839  0.8567 -0.5137  0.1307
 3089TIP3    H130826   2.664   1.035   1.877 -0.8112  0.2444  0.8851
 3089TIP3    H230827   2.643   0.961   1.747 -0.0720  1.9659 -0.2484
 3090TIP3   OH230828   5.034   1.358   0.145  0.2140  0.0660  0.0510
 3090TIP3    H130829   5.017   1.406   0.226  2.5993 -0.7064  1.0981
 3090TIP3    H230830   4.957   1.376   0.090 -1.6086  0.3960  2.5443
 3091TIP3   OH230831   3.746   5.410   7.041 -0.1520 -0.2628 -0.0198
 3091TIP3    H130832   3.771   5.479   6.980  0.4478 -2.0276 -1.8943
 3091TIP3    H230833   3.828   5.370   7.069 -0.3832  0.8499  2.4542
 3092TIP3   OH230834   5.121   6.037   1.677 -0.0773 -0.5080 -0.3116
 3092TIP3    H130835   5.107   6.126   1.707 -0.2883 -0.6874  0.1276
 3092TIP3    H230836   5.211   6.036   1.643  0.2218 -0.3543  0.4761
 3093TIP3   OH230837   0.565   6.154   6.388  0.2378 -0.1332  0.2202
 3093TIP3    H130838   0.510   6.162   6.466 -0.4935  2.7784 -0.4624
 3093TIP3    H230839   0.569   6.060   6.370  0.3765 -0.9041  3.6640
 3094TIP3   OH230840   5.491   0.657   0.801 -0.0511  0.2277  0.4947
 3094TIP3    H130841   5.560   0.694   0.857 -0.7058  0.5667  1.0879
 3094TIP3    H230842   5.514   0.688   0.713  0.2481  0.8103  0.7681
 3095TIP3   OH230843   4.918   2.168   8.240  0.1233 -0.0642  0.4428
 3095TIP3    H130844   4.826   2.143   8.238 -0.0202  0.4385 -0.9699
 3095TIP3    H230845   4.932   2.204   8.327 -0.3794 -2.3476  1.5157
 3096TIP3   OH230846   4.623   0.767   7.574 -0.2598  0.0478  0.5869
 3096TIP3    H130847   4.647   0.853   7.608  0.3409  0.3416 -0.5695
 3096TIP3    H230848   4.589   0.783   7.486 -0.6118 -0.8464  0.5431
 3097TIP3   OH230849   6.099   3.095   7.274  0.7267  0.8781  0.1665
 3097TIP3    H130850   6.122   3.186   7.259 -0.3652  0.9734 -1.1114
 3097TIP3    H230851   6.036   3.097   7.346  0.5417  1.1427 -0.0047
 3098TIP3   OH230852   6.629   5.748   0.860 -0.3336 -0.1862  0.3278
 3098TIP3    H130853   6.603   5.817   0.922  2.3141  0.5666  0.7312
 3098TIP3    H230854   6.681   5.687   0.913 -0.5196 -1.1532 -0.5654
 3099TIP3   OH230855   6.861   5.094   1.658 -0.2453 -0.2398  0.1036
 3099TIP3    H130856   6.954   5.101   1.680 -0.5659  0.3891  1.3186
 3099TIP3    H230857   6.848   5.002   1.636  0.6883 -0.3045 -0.2187
 3100TIP3   OH230858   1.653   6.001   1.023  0.1832  0.2878 -0.0996
 3100TIP3    H130859   1.663   6.032   0.933  1.1414  0.7365  0.1416
 3100TIP3    H230860   1.643   5.906   1.015  1.6223  0.1578 -0.6167
 3101TIP3   OH230861   4.940   3.948   1.521 -0.6297  0.1771 -0.1738
 3101TIP3    H130862   4.927   3.956   1.615 -1.0946  0.0070 -0.2224
 3101TIP3    H230863   4.885   4.015   1.483 -0.2814  0.3823 -0.3168
 3102TIP3   OH230864   4.382   4.882   7.653 -0.0022  0.2134 -0.0629
 3102TIP3    H130865   4.318   4.911   7.717  0.7800  1.7296  0.0814
 3102TIP3    H230866   4.386   4.787   7.663 -1.5289  0.1980  0.5507
 3103TIP3   OH230867   4.743   1.537   0.787 -0.1746 -0.1681 -0.1868
 3103TIP3    H130868   4.678   1.596   0.749 -1.1218 -1.6292 -0.9567
 3103TIP3    H230869   4.827   1.568   0.753 -0.7351  0.2759 -1.2101
 3104TIP3   OH230870   2.223   0.651   8.292 -0.5196  0.0276  0.1497
 3104TIP3    H130871   2.166   0.724   8.314 -1.2808 -0.7389  0.8073
 3104TIP3    H230872   2.164   0.581   8.265  0.1878 -0.3766 -0.4037
 3105TIP3   OH230873   5.388   6.323   2.512 -0.5586  1.1928 -0.1914
 3105TIP3    H130874   5.372   6.384   2.585  1.2352  0.5892  0.7674
 3105TIP3    H230875   5.472   6.350   2.476  1.1449 -1.6156  1.3185
 3106TIP3   OH230876   2.058   5.219   0.028 -0.0933  0.2020  0.2361
 3106TIP3    H130877   2.126   5.255   0.084 -0.0929  1.6145 -0.6230
 3106TIP3    H230878   2.088   5.131   0.005  0.5451  0.1250  1.3287
 3107TIP3   OH230879   2.866   2.604   0.615  0.5493 -0.0632  0.1905
 3107TIP3    H130880   2.791   2.560   0.576  0.5480 -0.3365  0.5048
 3107TIP3    H230881   2.872   2.569   0.703  0.6237  0.4704  0.4025
 3108TIP3   OH230882   4.611   2.225   0.635  0.6547  0.1692  0.6519
 3108TIP3    H130883   4.666   2.220   0.713  0.6960  0.7841  0.6678
 3108TIP3    H230884   4.608   2.318   0.614  0.1334  0.0723  0.2829
 3109TIP3   OH230885   0.585   4.050   0.149 -0.2461 -0.1530 -0.5948
 3109TIP3    H130886   0.547   3.965   0.125 -3.0783  0.1915  2.0813
 3109TIP3    H230887   0.607   4.040   0.242  1.0674  1.5350 -0.6854
 3110TIP3   OH230888   5.760   4.905   1.384 -0.2959 -0.0999 -0.2876
 3110TIP3    H130889   5.720   4.969   1.325 -2.4540  0.2625  1.4295
 3110TIP3    H230890   5.723   4.821   1.357 -0.5327 -0.0622 -0.0916
 3111TIP3   OH230891   6.665   1.701   0.610  0.4042 -0.0145  0.2950
 3111TIP3    H130892   6.579   1.697   0.651  1.0509 -0.5054  1.6711
 3111TIP3    H230893   6.657   1.648   0.531 -0.5685 -0.0155  0.3901
 3112TIP3   OH230894   5.322   0.646   1.456  0.2168  0.3052 -0.1994
 3112TIP3    H130895   5.255   0.699   1.500  1.3702  1.0572  0.7153
 3112TIP3    H230896   5.303   0.556   1.482 -1.5535  0.2418 -1.4793
 3113TIP3   OH230897   3.340   2.257   1.119 -0.1357  0.2798  0.1792
 3113TIP3    H130898   3.272   2.321   1.102 -0.1071  0.0477 -0.8441
 3113TIP3    H230899   3.411   2.307   1.161 -0.5048  0.7217  0.2789
 3114TIP3   OH230900   1.189   5.880   1.375 -0.6914 -0.4982 -0.6327
 3114TIP3    H130901   1.150   5.940   1.439 -0.2061 -0.5880 -0.2459
 3114TIP3    H230902   1.264   5.928   1.340  0.0722 -1.0976  0.1288
 3115TIP3   OH230903   5.328   2.530   6.854 -0.0648  0.0289  0.3090
 3115TIP3    H130904   5.345   2.621   6.876 -0.4275  0.2558 -0.3180
 3115TIP3    H230905   5.411   2.485   6.871  1.2532  1.1091 -2.6894
 3116TIP3   OH230906   3.486   4.731   8.212 -0.0039  0.4172  0.0576
 3116TIP3    H130907   3.487   4.729   8.116 -0.3312  0.1531  0.0588
 3116TIP3    H230908   3.463   4.641   8.238  0.0578  0.4933  0.3814
 3117TIP3   OH230909   5.126   3.448   7.592  0.1137 -0.2565  0.2963
 3117TIP3    H130910   5.209   3.404   7.609  0.0358 -0.1884  0.8569
 3117TIP3    H230911   5.081   3.391   7.529 -0.6219 -1.7941  2.0986
 3118TIP3   OH230912   5.778   1.849   6.421 -0.5424  0.4314 -0.4974
 3118TIP3    H130913   5.742   1.931   6.386 -0.5447  1.1115  1.0265
 3118TIP3    H230914   5.873   1.862   6.417 -0.4457 -0.4431 -2.3633
 3119TIP3   OH230915   4.000   0.037   0.034  0.0439  0.3474  0.0594
 3119TIP3    H130916   3.956  -0.014  -0.034 -1.3614  0.4500  0.8474
 3119TIP3    H230917   4.009  -0.024   0.107 -0.9839  0.9840  0.7472
 3120TIP3   OH230918   5.391   5.534   7.695 -0.5878 -0.8208  0.9497
 3120TIP3    H130919   5.461   5.599   7.703 -1.6062  0.1080  3.0800
 3120TIP3    H230920   5.407   5.493   7.610 -0.1072  2.4655 -0.7343
 3121TIP3   OH230921   2.426   0.487   1.064  0.1539 -0.5916  0.3205
 3121TIP3    H130922   2.365   0.516   1.132 -1.8328 -0.1311 -1.5658
 3121TIP3    H230923   2.410   0.394   1.055  0.2123 -0.5987  0.2909
 3122TIP3   OH230924   2.750   5.355   0.948 -0.4791  0.2614  0.3148
 3122TIP3    H130925   2.840   5.339   0.922 -1.2645 -1.1510 -1.8622
 3122TIP3    H230926   2.740   5.308   1.031  1.2888  2.2662  1.7645
 3123TIP3   OH230927   1.602   1.175   1.453 -0.0769  0.2033  0.0850
 3123TIP3    H130928   1.541   1.102   1.465  0.9669 -0.7200 -0.0541
 3123TIP3    H230929   1.666   1.143   1.390  1.4826  0.5105  1.4293
 3124TIP3   OH230930   0.780   0.726   0.469 -0.1880 -0.4835  0.4961
 3124TIP3    H130931   0.742   0.653   0.517 -1.3778 -0.2703 -0.0696
 3124TIP3    H230932   0.865   0.741   0.510  0.3540 -2.5614  0.2172
 3125TIP3   OH230933   4.465   5.899   0.405 -0.2004  0.1237 -0.0876
 3125TIP3    H130934   4.449   5.850   0.325 -0.4764 -0.0803  0.0911
 3125TIP3    H230935   4.380   5.939   0.426 -0.0760  0.3508 -0.0146
 3126TIP3   OH230936   1.004   5.272   0.972 -0.0550  0.0288 -0.5455
 3126TIP3    H130937   0.966   5.316   0.896  0.6159  0.3497 -0.7036
 3126TIP3    H230938   1.099   5.281   0.960  0.0840 -0.8308 -0.2101
 3127TIP3   OH230939   0.338   3.563   1.046 -0.1780  0.5391  0.4527
 3127TIP3    H130940   0.334   3.536   0.955 -0.6483  1.2145  0.2607
 3127TIP3    H230941   0.331   3.659   1.043 -1.5883  0.4965  1.2592
 3128TIP3   OH230942   5.107   0.091   7.484 -0.0275  0.1354  0.3004
 3128TIP3    H130943   5.095   0.040   7.564  0.1944  1.3405  1.1293
 3128TIP3    H230944   5.055   0.045   7.418 -0.8551 -0.4316  1.3245
 3129TIP3   OH230945   6.196   4.277   7.668  0.1717 -0.3516 -0.5510
 3129TIP3    H130946   6.228   4.357   7.627  0.3680 -0.4033 -0.4966
 3129TIP3    H230947   6.163   4.225   7.595 -0.5386  0.0420 -0.5228
 3130TIP3   OH230948   1.521   6.042   0.030  0.8489 -0.4209  0.3045
 3130TIP3    H130949   1.454   6.018  -0.035 -0.3226  0.8550  0.9906
 3130TIP3    H230950   1.525   5.968   0.090  0.9949 -1.0514 -0.4704
 3131TIP3   OH230951   5.109   6.199   1.974 -0.2167 -0.4407  0.1203
 3131TIP3    H130952   5.097   6.219   1.881  0.6140 -2.2256 -0.4131
 3131TIP3    H230953   5.063   6.117   1.987 -0.3724 -0.1766  1.3260
 3132TIP3   OH230954   3.559   0.556   6.454  0.2806  0.4006 -0.0411
 3132TIP3    H130955   3.626   0.602   6.503 -0.0999  1.0787 -0.1368
 3132TIP3    H230956   3.587   0.464   6.453  1.1612  0.6686 -0.0305
 3133TIP3   OH230957   1.223   6.097   7.666  0.1735  0.4532 -0.2809
 3133TIP3    H130958   1.312   6.129   7.651  0.3005 -0.1377 -0.8216
 3133TIP3    H230959   1.167   6.173   7.650  0.5565  0.7381 -0.2842
 3134TIP3   OH230960   6.585   4.083   6.837 -0.2383 -0.0906 -0.0808
 3134TIP3    H130961   6.591   4.147   6.766 -2.2179 -1.3123 -1.4700
 3134TIP3    H230962   6.670   4.038   6.837 -0.3003 -0.2726 -1.9413
 3135TIP3   OH230963   3.633   0.055   2.406  0.9341 -0.0163 -0.4043
 3135TIP3    H130964   3.596   0.032   2.321  0.7016 -1.4264  0.0602
 3135TIP3    H230965   3.576   0.013   2.470  2.0514 -0.3852  0.3936
 3136TIP3   OH230966   0.527   1.002   7.012 -0.1425  0.3007  0.9833
 3136TIP3    H130967   0.583   1.021   6.937 -0.5801  3.0064  1.2706
 3136TIP3    H230968   0.440   1.031   6.985 -0.5734  0.0447  2.0478
 3137TIP3   OH230969   4.438   4.626   1.560  0.2126  0.3018  0.1988
 3137TIP3    H130970   4.454   4.639   1.653 -0.4986  1.0491  0.2230
 3137TIP3    H230971   4.347   4.596   1.556  0.7619 -1.4432 -0.1276
 3138TIP3   OH230972   5.676   2.567   1.012 -0.0220 -0.1445  0.1469
 3138TIP3    H130973   5.695   2.473   1.015  1.7386  0.1946  0.2463
 3138TIP3    H230974   5.683   2.597   1.102  0.8276  0.3345 -0.0699
 3139TIP3   OH230975   2.815   5.582   0.346  0.3831  0.3703  0.1289
 3139TIP3    H130976   2.897   5.560   0.390  0.8688  0.0751 -0.8940
 3139TIP3    H230977   2.840   5.643   0.278 -0.2914  0.4838 -0.0222
 3140TIP3   OH230978   5.007   5.311   8.035 -0.2947 -0.0614 -0.0341
 3140TIP3    H130979   5.057   5.361   7.970 -1.2921 -0.1755 -0.9131
 3140TIP3    H230980   4.916   5.335   8.018 -0.6804 -1.1795  0.4020
 3141TIP3   OH230981   2.315   4.882   2.595  0.3799 -0.0124 -0.0261
 3141TIP3    H130982   2.286   4.907   2.508 -2.2006  0.0678  0.7863
 3141TIP3    H230983   2.346   4.792   2.585 -2.1504 -0.8859 -0.6325
 3142TIP3   OH230984   1.004   3.809   1.383  0.9731  0.1551  0.2635
 3142TIP3    H130985   0.918   3.846   1.364 -0.6969 -2.2787  2.3674
 3142TIP3    H230986   1.043   3.868   1.447  0.2057  0.4922  0.4220
 3143TIP3   OH230987   2.580   3.606   6.421 -0.2793  0.2598 -0.3739
 3143TIP3    H130988   2.551   3.526   6.463  0.6491 -0.0644 -0.3349
 3143TIP3    H230989   2.612   3.578   6.335 -0.1244  0.6127 -0.4329
 3144TIP3   OH230990   5.814   5.089   1.878  0.3840 -0.0688 -0.0065
 3144TIP3    H130991   5.749   5.030   1.917 -0.2835 -0.6284 -1.8329
 3144TIP3    H230992   5.865   5.033   1.820  0.6993  0.8772 -0.6602
 3145TIP3   OH230993   1.649   3.593   2.125 -0.0241 -0.3832  0.2144
 3145TIP3    H130994   1.582   3.662   2.128 -0.7198 -1.0110 -0.4224
 3145TIP3    H230995   1.683   3.590   2.215 -2.1206 -1.2379  1.0518
 3146TIP3   OH230996   0.396   5.045   1.431 -0.4152  0.2694 -0.5257
 3146TIP3    H130997   0.426   5.044   1.340 -0.0948 -0.1329 -0.4192
 3146TIP3    H230998   0.302   5.065   1.425 -0.0488  2.0212 -0.8271
 3147TIP3   OH230999   3.781   1.427   1.170  0.1989  0.4282  0.1684
 3147TIP3    H131000   3.874   1.449   1.170 -0.0653  1.5814 -0.2625
 3147TIP3    H231001   3.757   1.422   1.077  0.0292 -0.7806  0.2611
 3148TIP3   OH231002   5.767   1.256   1.323  0.7787  0.0640  0.4804
 3148TIP3    H131003   5.854   1.250   1.283  0.6159  1.0996 -0.0719
 3148TIP3    H231004   5.749   1.168   1.354  1.5057 -0.4560 -0.4996
 3149TIP3   OH231005   5.188   3.552   7.340  0.0934  0.2422 -0.1063
 3149TIP3    H131006   5.280   3.527   7.333 -0.1976 -0.8904 -0.1428
 3149TIP3    H231007   5.166   3.536   7.432 -0.2329 -0.1033 -0.2433
 3150TIP3   OH231008   3.980   2.192   7.072 -0.2105 -0.1281 -0.0852
 3150TIP3    H131009   3.921   2.167   7.143  0.2895  2.1867  1.2682
 3150TIP3    H231010   4.047   2.246   7.114  0.3819  0.9495 -2.2407
 3151TIP3   OH231011   4.018   6.064   7.054  0.2956 -0.5596 -0.4776
 3151TIP3    H131012   3.985   5.974   7.046 -0.5358 -0.2028 -1.2712
 3151TIP3    H231013   4.102   6.063   7.009  0.2636 -0.9218 -0.5362
 3152TIP3   OH231014   2.837   4.570   6.085  0.0626 -0.0235  0.3235
 3152TIP3    H131015   2.778   4.567   6.010 -0.9178 -2.5090  1.0952
 3152TIP3    H231016   2.910   4.513   6.061  0.0479 -0.3418  1.0295
 3153TIP3   OH231017   6.113   6.575   1.775 -0.2710 -0.0024 -0.3738
 3153TIP3    H131018   6.165   6.637   1.724 -1.1421 -0.1217 -1.4438
 3153TIP3    H231019   6.083   6.625   1.851  1.9940 -0.1383  0.6820
 3154TIP3   OH231020   1.875   5.870   6.989 -0.0642  0.5639  0.2900
 3154TIP3    H131021   1.825   5.788   6.989  0.0771  0.4388 -1.3698
 3154TIP3    H231022   1.823   5.930   6.936  1.3845  0.4981 -1.2804
 3155TIP3   OH231023   2.430   1.244   6.718 -0.3436 -0.0016 -0.3489
 3155TIP3    H131024   2.394   1.156   6.732 -0.2533 -0.0537 -0.4452
 3155TIP3    H231025   2.469   1.267   6.802 -0.7436  0.1211 -0.1934
 3156TIP3   OH231026   3.184   2.982   8.296 -0.0784  0.1723  0.2992
 3156TIP3    H131027   3.167   2.918   8.226 -0.1408 -1.8482  2.0409
 3156TIP3    H231028   3.278   2.998   8.291 -0.1283  0.2863 -0.4171
 3157TIP3   OH231029   5.378   3.925   0.436 -0.0296 -0.1071 -0.3283
 3157TIP3    H131030   5.456   3.871   0.450 -0.2551 -0.3342  0.0601
 3157TIP3    H231031   5.412   4.007   0.398  0.3589 -0.3369 -0.4832
 3158TIP3   OH231032   6.794   0.224   6.808  0.0802  0.1665  0.0566
 3158TIP3    H131033   6.722   0.262   6.758  0.7411  0.7650 -0.4634
 3158TIP3    H231034   6.873   0.259   6.766  0.6589  0.2614  1.1932
 3159TIP3   OH231035   2.399   1.964   6.820 -0.2744 -0.1276 -0.5492
 3159TIP3    H131036   2.378   2.049   6.781 -2.1584  0.2689  1.1642
 3159TIP3    H231037   2.318   1.913   6.812  0.2534 -1.1041  0.1083
 3160TIP3   OH231038   6.492   0.523   7.801  0.4788  0.2180  0.8230
 3160TIP3    H131039   6.447   0.474   7.732  0.6381  0.7952  0.2940
 3160TIP3    H231040   6.425   0.581   7.837  0.6656  0.7339  0.3629
 3161TIP3   OH231041   1.029   2.313   7.347  0.3344 -0.2907  0.3889
 3161TIP3    H131042   1.016   2.313   7.253  3.4586  3.0055 -0.2760
 3161TIP3    H231043   0.974   2.385   7.379  0.3845 -0.4481  0.8375
 3162TIP3   OH231044   2.655   3.908   7.996  0.3374  0.3499  0.1707
 3162TIP3    H131045   2.628   3.958   8.073 -0.7825  0.4804 -0.2776
 3162TIP3    H231046   2.682   3.974   7.932 -1.8446  0.5073 -0.6882
 3163TIP3   OH231047   0.024   2.039   8.090 -0.5135  0.3619 -0.3193
 3163TIP3    H131048   0.004   2.122   8.134 -0.9978  0.1766 -0.1837
 3163TIP3    H231049  -0.008   2.052   8.000 -0.6387  0.3058 -0.2836
 3164TIP3   OH231050   6.141   4.139   7.186  0.4086  0.1648 -0.1975
 3164TIP3    H131051   6.073   4.204   7.172  0.7099  0.6137  0.3978
 3164TIP3    H231052   6.167   4.112   7.098  1.2301  1.8301 -0.4974
 3165TIP3   OH231053   1.204   1.146   8.632 -0.5737  0.4169 -0.3838
 3165TIP3    H131054   1.299   1.141   8.633 -0.6203 -0.9171 -0.7671
 3165TIP3    H231055   1.179   1.116   8.545 -1.3856 -0.5298  0.1511
 3166TIP3   OH231056   4.163   2.559   7.167  0.4173 -0.4000  0.4991
 3166TIP3    H131057   4.130   2.561   7.256 -0.1460 -0.0490  0.2852
 3166TIP3    H231058   4.188   2.650   7.149 -0.2165 -0.3122  0.0284
 3167TIP3   OH231059   2.635   1.659   1.805 -0.1808 -0.2118 -0.1186
 3167TIP3    H131060   2.604   1.571   1.784 -0.0201  0.1993 -2.2943
 3167TIP3    H231061   2.665   1.652   1.896 -0.2894 -2.3541 -0.1804
 3168TIP3   OH231062   3.895   1.896   7.509 -0.1858  1.4854 -0.0522
 3168TIP3    H131063   3.859   1.853   7.587 -0.3818  1.2390 -0.2783
 3168TIP3    H231064   3.974   1.940   7.541 -0.2636  1.3827  0.2867
 3169TIP3   OH231065   0.414   1.150   1.169  0.2454 -0.2716 -0.0761
 3169TIP3    H131066   0.465   1.229   1.150  0.0912 -0.5724 -1.9919
 3169TIP3    H231067   0.479   1.081   1.175  0.2303 -0.3241 -0.4807
 3170TIP3   OH231068   4.887   1.732   0.614 -0.0779 -0.7583 -0.8322
 3170TIP3    H131069   4.960   1.714   0.555 -0.0623  0.4250 -1.1875
 3170TIP3    H231070   4.912   1.811   0.662 -0.4792 -1.1928  0.1294
 3171TIP3   OH231071   0.549   4.642   0.564 -0.4865  0.0538 -0.1596
 3171TIP3    H131072   0.545   4.710   0.497  0.1845 -0.0584 -0.3202
 3171TIP3    H231073   0.620   4.584   0.535  0.6354  0.6699  1.2669
 3172TIP3   OH231074   4.037   2.806   0.412 -0.5484  0.0543  0.1496
 3172TIP3    H131075   4.077   2.823   0.326 -2.3468  1.4217 -0.4923
 3172TIP3    H231076   4.071   2.721   0.438  1.1096  0.2143 -1.2771
 3173TIP3   OH231077   0.661   1.276   1.245 -0.6490  0.5982  0.5634
 3173TIP3    H131078   0.753   1.247   1.244 -0.4764  1.1569 -0.5020
 3173TIP3    H231079   0.645   1.299   1.337 -0.2318 -1.0491  1.0971
 3174TIP3   OH231080   3.458   5.048   6.215  0.1059 -0.6023 -0.0821
 3174TIP3    H131081   3.489   4.992   6.286  2.1292  1.5473  0.8817
 3174TIP3    H231082   3.528   5.045   6.150  0.2898  0.7641  0.0118
 3175TIP3   OH231083   0.040   5.646   8.333 -0.3345 -0.3001  0.2728
 3175TIP3    H131084   0.018   5.730   8.374  0.8081 -0.0467  0.3822
 3175TIP3    H231085   0.116   5.615   8.382 -0.7826 -1.4369  0.2668
 3176TIP3   OH231086   6.300   3.681   6.705 -0.2548  0.2242 -0.3718
 3176TIP3    H131087   6.299   3.771   6.738 -1.7323 -0.2438  0.9799
 3176TIP3    H231088   6.223   3.675   6.649 -1.0236 -0.5981  0.7449
 3177TIP3   OH231089   6.748   6.078   0.786  0.7745 -0.4567  0.0745
 3177TIP3    H131090   6.748   5.988   0.754 -0.3849 -0.4481 -0.0114
 3177TIP3    H231091   6.678   6.080   0.851  1.5142  0.1217  0.8742
 3178TIP3   OH231092   5.970   5.709   8.267 -0.7010  0.1987 -0.9367
 3178TIP3    H131093   5.957   5.797   8.301  0.1390  0.3671 -1.0257
 3178TIP3    H231094   5.986   5.722   8.173  1.9424  0.2247 -0.5644
 3179TIP3   OH231095   4.201   4.042   0.228  0.2583  0.2201  0.1571
 3179TIP3    H131096   4.228   3.951   0.245  1.5429  0.4768 -0.4314
 3179TIP3    H231097   4.172   4.041   0.137  1.2844  0.6143 -0.1841
 3180TIP3   OH231098   4.802   5.767   7.578 -0.4134 -0.6604 -0.0470
 3180TIP3    H131099   4.754   5.779   7.496 -0.2398  1.0810  0.0697
 3180TIP3    H231100   4.737   5.729   7.638 -1.1949  0.1287 -0.3652
 3181TIP3   OH231101   4.410   3.998   7.146 -0.4744 -0.4921  0.0180
 3181TIP3    H131102   4.344   4.002   7.214  0.3875  0.4196  0.8262
 3181TIP3    H231103   4.408   4.084   7.104  0.3964 -0.3413  0.2565
 3182TIP3   OH231104   5.502   5.239   0.988  0.1824 -0.1162  0.0576
 3182TIP3    H131105   5.452   5.208   0.912 -0.6266 -0.3184  0.6585
 3182TIP3    H231106   5.437   5.251   1.057  0.6639  1.6457  0.2583
 3183TIP3   OH231107   2.783   1.750   7.916 -0.2682 -0.3469 -0.1427
 3183TIP3    H131108   2.797   1.726   8.008 -2.7169  1.4798  0.8273
 3183TIP3    H231109   2.691   1.777   7.913  0.0519  0.6676 -2.9279
 3184TIP3   OH231110   1.983   6.391   0.420  0.5981  0.4648  0.7326
 3184TIP3    H131111   2.046   6.344   0.475  0.0970 -0.6371  0.4025
 3184TIP3    H231112   1.901   6.387   0.468  0.1253 -0.6133 -0.1102
 3185TIP3   OH231113   1.591   1.712   8.452  0.7435  0.1385 -0.3929
 3185TIP3    H131114   1.581   1.660   8.372  0.0128  0.4496 -0.5115
 3185TIP3    H231115   1.540   1.791   8.436  0.0119 -0.0991  0.6476
 3186TIP3   OH231116   0.933   0.150   0.211  0.1340  0.0795  0.5873
 3186TIP3    H131117   0.958   0.077   0.154  1.1472  0.3401  0.6853
 3186TIP3    H231118   0.870   0.201   0.160  1.6164  0.7476 -0.6317
 3187TIP3   OH231119   3.634   3.133   0.063 -0.6910 -0.1770  0.0937
 3187TIP3    H131120   3.713   3.150   0.114 -0.3645 -0.7236 -0.2165
 3187TIP3    H231121   3.596   3.219   0.048 -0.2935  0.0679  0.4689
 3188TIP3   OH231122   3.471   6.795   8.180 -0.5300  0.5226  0.1036
 3188TIP3    H131123   3.477   6.712   8.227  2.3305  1.1803  1.1062
 3188TIP3    H231124   3.448   6.859   8.248  0.9000  1.0594  0.1195
 3189TIP3   OH231125   1.130   1.268   7.912 -0.4141 -0.1974  0.3172
 3189TIP3    H131126   1.081   1.294   7.990  1.3963  0.2745  1.3604
 3189TIP3    H231127   1.155   1.177   7.928  1.5449  0.4449  1.2138
 3190TIP3   OH231128   2.799   1.308   7.596 -0.3378 -0.5128  0.3260
 3190TIP3    H131129   2.830   1.391   7.633 -0.4383 -0.2160 -0.2362
 3190TIP3    H231130   2.796   1.248   7.670 -0.3484  0.0122  0.7602
 3191TIP3   OH231131   3.474   2.689   0.558 -0.0992 -0.1240  0.3680
 3191TIP3    H131132   3.419   2.672   0.634 -0.8003 -0.5966 -0.2231
 3191TIP3    H231133   3.417   2.738   0.498  0.2865 -0.1682 -0.0455
 3192TIP3   OH231134   0.586   4.987   8.196 -0.7363  0.1478  0.2029
 3192TIP3    H131135   0.533   4.940   8.260  0.4033 -2.9167 -0.9197
 3192TIP3    H231136   0.668   5.004   8.242  0.0953 -2.0823 -0.3080
 3193TIP3   OH231137   4.237   4.881   1.539 -0.2222  0.1157  0.4375
 3193TIP3    H131138   4.221   4.788   1.523  2.5107 -0.3653  0.1023
 3193TIP3    H231139   4.223   4.922   1.453 -0.7801 -0.0750  0.4338
 3194TIP3   OH231140   5.334   3.194   7.319 -0.0266  0.9113 -0.6036
 3194TIP3    H131141   5.415   3.147   7.299 -0.4296  0.4930 -1.3190
 3194TIP3    H231142   5.338   3.210   7.413  0.4339  0.0235 -0.4612
 3195TIP3   OH231143   1.467   6.845   1.648 -0.0659 -0.4550  0.6571
 3195TIP3    H131144   1.517   6.766   1.669 -1.7787 -1.5325  0.8789
 3195TIP3    H231145   1.529   6.902   1.603  2.0072 -0.7120  2.9624
 3196TIP3   OH231146   1.743   3.861   0.374  0.0179 -0.0647 -0.0503
 3196TIP3    H131147   1.761   3.951   0.347  0.5873 -0.1104  0.1637
 3196TIP3    H231148   1.807   3.843   0.443 -2.3986  0.6371  2.6033
 3197TIP3   OH231149   6.674   2.305   1.898  0.5465  0.1977 -0.3849
 3197TIP3    H131150   6.740   2.339   1.837  0.9152  0.5426  0.1955
 3197TIP3    H231151   6.711   2.321   1.984 -0.9862  1.8667  0.0175
 3198TIP3   OH231152   6.027   6.749   1.980 -0.5354  0.4331 -0.3540
 3198TIP3    H131153   6.027   6.843   1.998 -0.0135  0.0640  1.9824
 3198TIP3    H231154   6.083   6.712   2.048 -2.2227 -1.7382 -0.0444
 3199TIP3   OH231155   1.250   5.310   0.883 -0.1163  0.7887 -0.1744
 3199TIP3    H131156   1.198   5.285   0.806  1.5735 -1.6306 -0.6497
 3199TIP3    H231157   1.330   5.347   0.846  0.7932 -0.5701  0.3423
 3200TIP3   OH231158   6.012   6.865   7.006  0.6131  0.1717  0.1633
 3200TIP3    H131159   5.981   6.920   6.934  1.4337 -0.3066 -0.5811
 3200TIP3    H231160   5.956   6.888   7.080 -0.3229  0.5935 -0.6582
 3201TIP3   OH231161   6.227   1.045   7.495 -0.3093 -0.0535 -0.3003
 3201TIP3    H131162   6.255   1.073   7.582 -4.2682 -0.8516  1.4519
 3201TIP3    H231163   6.292   0.982   7.467  1.5843  0.9279  1.6218
 3202TIP3   OH231164   3.308   5.410   8.581 -0.1938 -0.6150  0.2186
 3202TIP3    H131165   3.280   5.492   8.539 -0.7774 -1.3987 -0.9846
 3202TIP3    H231166   3.228   5.359   8.591  0.3202 -1.5188 -0.1551
 3203TIP3   OH231167   1.566   2.776   6.736  0.1187  0.1712 -0.0882
 3203TIP3    H131168   1.495   2.827   6.697 -0.6306 -1.2038 -0.5688
 3203TIP3    H231169   1.641   2.837   6.738 -0.9339  1.5106  0.0414
 3204TIP3   OH231170   5.626   2.704   8.435 -0.3131 -0.0051  0.2599
 3204TIP3    H131171   5.569   2.692   8.510  0.5971  0.8719  1.1155
 3204TIP3    H231172   5.700   2.756   8.468  0.2553  0.1436 -1.1580
 3205TIP3   OH231173   4.362   2.980   7.000 -0.0645  0.0591  0.2280
 3205TIP3    H131174   4.410   2.987   6.917 -0.6331  1.6206 -0.0158
 3205TIP3    H231175   4.359   2.886   7.019  1.2189 -0.2252 -0.8381
 3206TIP3   OH231176   1.918   6.188   8.380  0.6845  0.6439 -0.6936
 3206TIP3    H131177   1.994   6.231   8.417  1.0823 -1.0309  0.5521
 3206TIP3    H231178   1.864   6.163   8.455 -0.8802  1.3596 -1.5208
 3207TIP3   OH231179   0.001   1.925   6.771  0.0140  0.2495  0.2629
 3207TIP3    H131180  -0.016   2.018   6.755 -0.4267  0.1020 -0.1863
 3207TIP3    H231181  -0.001   1.886   6.683  0.8279 -0.0820  0.3930
 3208TIP3   OH231182   3.280   1.574   8.476 -0.2549 -0.2019 -0.1223
 3208TIP3    H131183   3.352   1.520   8.446 -0.6425 -0.6579 -0.2456
 3208TIP3    H231184   3.218   1.513   8.516 -0.1539  0.2924  0.8211
 3209TIP3   OH231185   1.801   6.025   1.261 -0.5812 -0.1221  0.2118
 3209TIP3    H131186   1.880   5.995   1.217 -0.6767 -0.7064  0.4300
 3209TIP3    H231187   1.739   6.041   1.190 -1.8832 -4.2926  0.1770
 3210TIP3   OH231188   6.017   2.734   8.053  0.1981  0.3870 -0.6067
 3210TIP3    H131189   6.095   2.757   8.003  0.6829  0.0597 -0.0092
 3210TIP3    H231190   6.031   2.643   8.079  0.2403  0.7201  0.6292
 3211TIP3   OH231191   3.533   1.406   0.678  0.3467 -0.2496 -0.3286
 3211TIP3    H131192   3.462   1.432   0.738 -0.5924 -0.7338 -1.1970
 3211TIP3    H231193   3.499   1.427   0.591  1.4193 -0.1871 -0.7437
 3212TIP3   OH231194   2.730   5.844   1.482 -0.0231 -0.8229  0.4559
 3212TIP3    H131195   2.781   5.816   1.558 -0.4516  0.1450  1.1120
 3212TIP3    H231196   2.669   5.773   1.467  0.9208 -1.6039  0.2066
 3213TIP3   OH231197   0.985   4.828   8.477 -0.5997 -0.2322 -0.0125
 3213TIP3    H131198   0.916   4.890   8.500 -1.3276 -1.3801  0.9981
 3213TIP3    H231199   0.954   4.784   8.398 -1.1569 -0.9218  0.5805
 3214TIP3   OH231200   6.595   3.295   7.478 -0.0581 -0.1423  0.7072
 3214TIP3    H131201   6.529   3.243   7.431 -1.8113  2.5446 -0.0215
 3214TIP3    H231202   6.678   3.250   7.461 -0.8531 -0.4058 -3.4397
 3215TIP3   OH231203   5.690   5.008   7.638  0.8819  0.0540  0.5748
 3215TIP3    H131204   5.744   4.987   7.562  0.2626  1.0103 -0.1513
 3215TIP3    H231205   5.644   5.088   7.613 -0.9610 -0.7858  1.1205
 3216TIP3   OH231206   1.750   5.968   0.728  0.2030  0.5270 -0.3909
 3216TIP3    H131207   1.684   5.907   0.696 -0.1430  1.1414 -0.8740
 3216TIP3    H231208   1.818   5.966   0.660  0.2620  0.5733 -0.3332
 3217TIP3   OH231209   3.270   0.315   1.251 -0.2369 -0.3378 -0.2551
 3217TIP3    H131210   3.176   0.317   1.269 -0.2762 -1.0780 -0.3312
 3217TIP3    H231211   3.310   0.361   1.325 -0.6438 -0.2408 -0.0933
 3218TIP3   OH231212   4.175   2.357   1.371 -0.1731  0.1510 -0.7134
 3218TIP3    H131213   4.271   2.355   1.364 -0.2160  0.0148 -1.3238
 3218TIP3    H231214   4.151   2.265   1.382 -0.2626  0.1456 -0.9618
 3219TIP3   OH231215   2.227   2.830   8.154 -0.4005  0.2029  0.5393
 3219TIP3    H131216   2.254   2.741   8.129 -1.1142 -0.1638  1.0239
 3219TIP3    H231217   2.205   2.873   8.071  0.6401  0.1707  0.2370
 3220TIP3   OH231218   3.300   4.203   7.713  0.7062 -0.2418 -0.1702
 3220TIP3    H131219   3.342   4.125   7.750 -0.5250 -0.2122  1.4047
 3220TIP3    H231220   3.230   4.168   7.657 -0.5562 -0.3334  1.3861
 3221TIP3   OH231221   4.230   3.225   8.555  0.3131  0.6467 -0.2543
 3221TIP3    H131222   4.241   3.169   8.631  1.0292 -0.1012 -0.8944
 3221TIP3    H231223   4.140   3.210   8.526 -0.2245  1.5258  0.8830
 3222TIP3   OH231224   5.864   5.900   0.301  0.5819 -0.0205  0.8284
 3222TIP3    H131225   5.856   5.988   0.264  0.7834 -0.0844  0.6292
 3222TIP3    H231226   5.937   5.861   0.253 -1.6915 -1.5815 -1.5889
 3223TIP3   OH231227   0.260   4.024   8.489 -0.3132 -0.9878  0.0074
 3223TIP3    H131228   0.259   3.950   8.549  1.3797 -1.5746 -0.6339
 3223TIP3    H231229   0.269   4.101   8.545 -3.1011 -1.0847  0.7612
 3224TIP3   OH231230   1.088   4.929   1.290 -0.2527  0.4545  0.5943
 3224TIP3    H131231   1.033   4.917   1.367 -0.8119 -1.4346 -0.0377
 3224TIP3    H231232   1.027   4.946   1.219  0.0673 -0.0927  0.1717
 3225TIP3   OH231233   0.237   1.153   7.627 -0.4306 -1.1271  0.2367
 3225TIP3    H131234   0.217   1.245   7.645  0.2149 -0.6972 -1.1362
 3225TIP3    H231235   0.267   1.119   7.712  1.2021  0.4475  0.3711
 3226TIP3   OH231236   3.741   3.101   7.100  0.4398  0.4284 -0.0843
 3226TIP3    H131237   3.688   3.166   7.055  1.1825  0.4862 -0.9084
 3226TIP3    H231238   3.830   3.117   7.069  0.6241 -1.0503 -0.3901
 3227TIP3   OH231239   2.481   5.948   2.324 -0.2043  0.3725  0.7024
 3227TIP3    H131240   2.549   6.009   2.354 -0.5916  0.2162  1.9502
 3227TIP3    H231241   2.446   5.911   2.404  0.5221 -2.0722 -0.0331
 3228TIP3   OH231242   3.392   0.625   7.881  0.0864  0.3468  0.0612
 3228TIP3    H131243   3.478   0.606   7.844  0.7794  1.8026  0.8212
 3228TIP3    H231244   3.376   0.717   7.856 -0.8371  0.3703  0.7017
 3229TIP3   OH231245   5.200   5.778   7.992 -0.0922  0.4263  0.1065
 3229TIP3    H131246   5.149   5.754   7.915 -0.7627 -0.4739  0.8043
 3229TIP3    H231247   5.137   5.822   8.050  0.1170  0.0759  0.6126
 3230TIP3   OH231248   1.294   1.447   8.321 -0.0414  0.2411 -0.2030
 3230TIP3    H131249   1.235   1.490   8.259 -1.3460  0.4294  1.0921
 3230TIP3    H231250   1.273   1.488   8.405  2.2704  0.6123  0.2606
 3231TIP3   OH231251   1.703   2.943   8.530 -0.1841  0.1645  0.0621
 3231TIP3    H131252   1.658   3.001   8.469 -0.2428 -0.5655 -0.6078
 3231TIP3    H231253   1.757   3.001   8.584 -0.8714  0.9174 -0.0301
 3232TIP3   OH231254   2.822   3.843   0.563 -0.6102 -0.5267  0.1075
 3232TIP3    H131255   2.858   3.801   0.641 -1.1696 -0.5754  0.3486
 3232TIP3    H231256   2.767   3.776   0.523  2.3177 -1.7200 -2.2839
 3233TIP3   OH231257   2.069   2.986   1.780 -0.1890  0.1288  0.3108
 3233TIP3    H131258   2.004   3.054   1.796 -0.2713 -0.0084  0.5560
 3233TIP3    H231259   2.047   2.952   1.693 -0.2330  0.3154  0.2475
 3234TIP3   OH231260   0.818   4.397   0.795 -0.4206 -0.4759 -0.5341
 3234TIP3    H131261   0.870   4.462   0.748  0.0005 -0.2108  0.2851
 3234TIP3    H231262   0.753   4.448   0.843  0.5033 -0.5647  0.8602
 3235TIP3   OH231263   0.494   6.405   7.170  0.4819 -0.6495  0.8912
 3235TIP3    H131264   0.573   6.355   7.188  0.8339 -0.4492 -0.0133
 3235TIP3    H231265   0.524   6.479   7.117 -0.1512  0.0628  1.5055
 3236TIP3   OH231266   3.744   5.920   8.522 -0.0743 -0.0073  0.1832
 3236TIP3    H131267   3.655   5.955   8.512  0.2664  1.2250  1.0936
 3236TIP3    H231268   3.751   5.851   8.456 -0.9906  1.3104 -1.3679
 3237TIP3   OH231269   5.607   0.759   0.573 -0.3502 -0.1302 -1.1468
 3237TIP3    H131270   5.579   0.765   0.482  1.2494  1.6316 -1.5850
 3237TIP3    H231271   5.625   0.850   0.599  2.0762 -0.8462 -0.0460
 3238TIP3   OH231272   6.246   4.270   1.451 -0.0323  0.1180  0.1471
 3238TIP3    H131273   6.206   4.300   1.533 -0.7131  0.0226 -0.1436
 3238TIP3    H231274   6.203   4.187   1.433 -0.0813  0.2749 -0.4562
 3239TIP3   OH231275   4.709   6.737   6.556  0.7168 -0.1526  0.0738
 3239TIP3    H131276   4.729   6.644   6.557  1.9274  0.0453 -1.4936
 3239TIP3    H231277   4.778   6.778   6.608 -0.4898 -0.1909  1.7938
 3240TIP3   OH231278   6.590   4.604   0.068 -0.0258 -0.0906 -0.5751
 3240TIP3    H131279   6.558   4.666   0.134 -0.6097  0.4723 -1.3661
 3240TIP3    H231280   6.512   4.559   0.037  0.0573  0.5839 -1.8183
 3241TIP3   OH231281   4.370   1.364   0.911 -0.5121  0.3241  0.0480
 3241TIP3    H131282   4.275   1.364   0.923 -0.4409  1.5381  0.7827
 3241TIP3    H231283   4.405   1.358   1.000  0.0773  1.5340 -0.0839
 3242TIP3   OH231284   5.329   6.349   8.482  0.1506  0.3311  0.1561
 3242TIP3    H131285   5.256   6.314   8.533 -0.0354  0.2351 -0.1749
 3242TIP3    H231286   5.353   6.277   8.424  0.6046  0.3123  0.3643
 3243TIP3   OH231287   1.466   5.782   1.536  0.4016  0.2072  0.1846
 3243TIP3    H131288   1.446   5.847   1.468  0.0457  0.1826  0.2669
 3243TIP3    H231289   1.555   5.753   1.515  0.6701  0.9188  0.3114
 3244TIP3   OH231290   6.151   2.390   0.847  0.2393 -0.4606  0.3741
 3244TIP3    H131291   6.119   2.431   0.927  1.9041  0.1433  0.7803
 3244TIP3    H231292   6.186   2.463   0.796 -0.3954 -0.8954 -0.7204
 3245TIP3   OH231293   5.324   6.293   7.562 -0.0647 -0.3405 -0.3827
 3245TIP3    H131294   5.389   6.229   7.531 -0.2726 -0.8149  0.1435
 3245TIP3    H231295   5.334   6.368   7.503  0.1218 -0.8912 -1.0643
 3246TIP3   OH231296   4.084   2.152   8.489 -0.2667  0.6222  0.4266
 3246TIP3    H131297   4.083   2.062   8.457  0.9903  0.3787  1.0074
 3246TIP3    H231298   3.992   2.173   8.506 -0.5077 -0.8689  1.1222
 3247TIP3   OH231299   1.222   6.698   0.316  0.4866 -0.1536  0.4969
 3247TIP3    H131300   1.259   6.703   0.227  1.0335 -0.1637  0.7187
 3247TIP3    H231301   1.251   6.612   0.349 -1.0555 -0.8562  0.1080
 3248TIP3   OH231302   1.885   1.236   7.716  0.7890 -0.5028  0.3454
 3248TIP3    H131303   1.824   1.232   7.790  0.7370  0.1691  0.3490
 3248TIP3    H231304   1.885   1.148   7.680  1.8583 -1.2338  1.9947
 3249TIP3   OH231305   2.564   4.027   8.237 -0.2209 -0.1764 -0.3565
 3249TIP3    H131306   2.552   3.980   8.320 -1.4668 -1.0483 -0.9940
 3249TIP3    H231307   2.591   4.115   8.263 -3.9325  0.7181  1.2125
 3250TIP3   OH231308   1.775   2.821   7.035 -0.1068  0.0467  0.6647
 3250TIP3    H131309   1.757   2.908   7.000  1.0408  0.2963  0.6578
 3250TIP3    H231310   1.800   2.835   7.126  0.0921 -0.2688  0.6625
 3251TIP3   OH231311   3.281   3.074   1.938 -0.3530  0.0969 -0.0392
 3251TIP3    H131312   3.260   3.004   1.877 -1.7917  1.5579 -1.3132
 3251TIP3    H231313   3.247   3.044   2.023 -0.3018 -1.0192 -0.4029
 3252TIP3   OH231314   2.473   3.699   0.055  0.0345 -0.6033 -0.4930
 3252TIP3    H131315   2.423   3.769   0.097  1.2645 -0.4778  0.8783
 3252TIP3    H231316   2.413   3.660  -0.008 -1.2771  0.4836  0.0393
 3253TIP3   OH231317   3.329   3.884   1.809  0.2364  0.2944 -0.5841
 3253TIP3    H131318   3.371   3.799   1.796  1.3067  0.8107 -0.6864
 3253TIP3    H231319   3.324   3.894   1.904  0.3168  0.2129 -0.5712
 3254TIP3   OH231320   6.615   3.886   8.164  0.3436 -0.2599 -0.0637
 3254TIP3    H131321   6.629   3.796   8.193 -0.2879 -0.4104 -0.2021
 3254TIP3    H231322   6.552   3.878   8.092  0.9993  0.2143 -0.7018
 3255TIP3   OH231323   4.451   2.024   0.982 -0.1190 -0.2134  0.1518
 3255TIP3    H131324   4.386   1.976   1.034 -0.2800  0.9005  1.0202
 3255TIP3    H231325   4.512   2.060   1.047  1.3392 -1.1457 -0.6368
 3256TIP3   OH231326   0.366   6.055   7.830 -0.4711 -0.3220  0.5661
 3256TIP3    H131327   0.441   6.111   7.851 -0.4368  0.4891 -1.4266
 3256TIP3    H231328   0.296   6.085   7.888 -0.4353  1.8399 -0.4178
 3257TIP3   OH231329   4.486   2.248   1.130 -0.2026  0.3088 -0.6655
 3257TIP3    H131330   4.568   2.293   1.151 -0.3369  0.5481 -0.6538
 3257TIP3    H231331   4.434   2.313   1.083 -0.3902  0.1617 -0.6613
 3258TIP3   OH231332   3.678   0.610   7.783  0.5478 -0.4137  0.0928
 3258TIP3    H131333   3.656   0.604   7.690  0.8363  0.4182 -0.0318
 3258TIP3    H231334   3.773   0.599   7.785  0.2829 -4.0676  0.6314
 3259TIP3   OH231335   4.294   2.328   8.542  0.3456 -0.1081  0.2749
 3259TIP3    H131336   4.256   2.396   8.486  0.4904  2.0261  2.6110
 3259TIP3    H231337   4.232   2.256   8.536 -0.1986  0.4446 -1.7418
 3260TIP3   OH231338   2.893   3.213   8.521 -0.3718  0.5784 -0.0712
 3260TIP3    H131339   2.822   3.256   8.473  0.3379  1.8435 -0.0171
 3260TIP3    H231340   2.848   3.148   8.575 -1.4657  1.1317 -0.2662
 3261TIP3   OH231341   6.390   4.840   1.513  0.7426 -0.1906 -0.3357
 3261TIP3    H131342   6.442   4.766   1.482 -0.5738 -0.8480 -1.0688
 3261TIP3    H231343   6.330   4.859   1.441  0.6400  1.2048  0.0885
 3262TIP3   OH231344   3.708   1.118   0.984 -0.0882 -0.4758 -0.1815
 3262TIP3    H131345   3.706   1.213   0.970  2.2962 -0.3130  0.1485
 3262TIP3    H231346   3.637   1.084   0.930 -0.8298  1.4699 -0.5056
 3263TIP3   OH231347   4.451   1.348   1.178 -0.5005 -0.2252  0.1855
 3263TIP3    H131348   4.450   1.378   1.269  0.4551  1.5910 -0.3413
 3263TIP3    H231349   4.531   1.387   1.141  0.5722 -3.0402 -0.7870
 3264TIP3   OH231350   1.240   3.842   0.159  0.3459 -0.0061 -0.4449
 3264TIP3    H131351   1.238   3.863   0.253  2.1937 -1.2719 -0.0741
 3264TIP3    H231352   1.193   3.914   0.118 -1.0416  0.2865  1.4947
 3265TIP3   OH231353   0.667   6.328   8.351 -0.4247 -0.4566  0.4577
 3265TIP3    H131354   0.653   6.393   8.419  0.0349  0.4287 -0.2744
 3265TIP3    H231355   0.752   6.289   8.371 -0.3170 -0.2402  0.4168
 3266TIP3   OH231356   4.306   3.774   2.376  0.0934 -0.1409  0.2622
 3266TIP3    H131357   4.231   3.721   2.352 -0.8749 -0.0131  2.8184
 3266TIP3    H231358   4.285   3.862   2.343  0.5127 -0.6938 -1.6103
 3267TIP3   OH231359   3.917   0.824   7.204  0.4625 -0.2377  0.4375
 3267TIP3    H131360   3.946   0.786   7.122  1.0650 -0.9673  0.9741
 3267TIP3    H231361   3.825   0.847   7.190  0.7594  0.3182 -0.6602
 3268TIP3   OH231362   4.979   2.367   8.422 -0.3307 -0.4006 -0.1515
 3268TIP3    H131363   5.029   2.439   8.459 -1.9194  0.1982  0.9308
 3268TIP3    H231364   5.001   2.292   8.478 -1.3363  0.0884  0.9536
 3269TIP3   OH231365   2.234   4.213   0.966 -0.5607  0.3316 -0.3220
 3269TIP3    H131366   2.303   4.175   1.020 -0.5045 -0.2010 -0.7511
 3269TIP3    H231367   2.156   4.213   1.022 -0.1885  1.0603  0.2100
 3270TIP3   OH231368   4.133   4.710   0.685 -0.2351 -0.0563  0.1727
 3270TIP3    H131369   4.058   4.750   0.640  0.0304 -1.3090 -1.4928
 3270TIP3    H231370   4.179   4.661   0.616  0.8533 -1.1439  1.6057
 3271TIP3   OH231371   3.655   6.091   8.034  0.3420  0.3359  0.4717
 3271TIP3    H131372   3.704   6.027   8.085 -1.4000 -0.1632  1.5913
 3271TIP3    H231373   3.646   6.051   7.947 -0.6482 -0.9473  1.1358
 3272TIP3   OH231374   6.549   0.699   0.518  0.4729  0.7936 -0.1724
 3272TIP3    H131375   6.609   0.717   0.446  0.0726 -0.1885 -0.7780
 3272TIP3    H231376   6.470   0.667   0.475  0.1142  0.4918  0.6967
 3273TIP3   OH231377   0.250   3.799   2.299  0.4403  0.7299  0.0898
 3273TIP3    H131378   0.171   3.852   2.295 -0.7373 -1.0194 -2.4264
 3273TIP3    H231379   0.228   3.729   2.361 -1.0566 -1.1242 -2.3447
 3274TIP3   OH231380   5.093   0.339   1.014  0.5409 -0.1915  0.1805
 3274TIP3    H131381   5.172   0.326   1.068 -0.5999 -0.2072  1.9200
 3274TIP3    H231382   5.026   0.286   1.057  0.1599 -2.3932 -2.7878
 3275TIP3   OH231383   0.256   2.818   8.188  0.2677 -0.0296  0.4921
 3275TIP3    H131384   0.174   2.868   8.186  0.2836  0.2404  3.0897
 3275TIP3    H231385   0.303   2.852   8.264  2.6664 -0.4368 -0.7154
 3276TIP3   OH231386   4.036   6.766   0.275  0.3696 -0.6864  0.4064
 3276TIP3    H131387   4.067   6.849   0.311 -0.1415  0.0024 -0.7151
 3276TIP3    H231388   4.020   6.712   0.353 -0.0523  0.5279  1.2023
 3277TIP3   OH231389   3.325   2.631   8.400 -0.0365  0.4511  0.3317
 3277TIP3    H131390   3.389   2.697   8.429 -0.3198  0.2155  1.5562
 3277TIP3    H231391   3.368   2.547   8.418 -0.5570  0.2941  0.8761
 3278TIP3   OH231392   6.859   2.289   8.255  0.1062  0.5426 -0.0736
 3278TIP3    H131393   6.793   2.345   8.296 -0.8745  0.0434 -0.8951
 3278TIP3    H231394   6.846   2.303   8.161  0.1478 -0.7108 -0.2803
 3279TIP3   OH231395   1.024   2.306   7.085  0.9675 -0.6486 -0.2816
 3279TIP3    H131396   0.953   2.250   7.051  0.6730 -0.0512 -0.6645
 3279TIP3    H231397   1.070   2.335   7.007 -0.0218  1.1478 -0.2511
 3280TIP3   OH231398   2.773   4.933   0.447 -0.8584  0.1312  0.3528
 3280TIP3    H131399   2.731   4.880   0.514  1.7325 -2.4545  0.1300
 3280TIP3    H231400   2.776   4.876   0.370  0.9489  1.0198 -0.2815
 3281TIP3   OH231401   5.466   3.202   6.935  0.0994 -0.1187 -0.2500
 3281TIP3    H131402   5.511   3.157   7.007  1.7685  0.6849 -0.7470
 3281TIP3    H231403   5.406   3.136   6.901  0.8851 -1.2593  0.4659
 3282TIP3   OH231404   2.122   3.506   8.006 -0.3157  0.6885 -0.0416
 3282TIP3    H131405   2.206   3.459   8.006 -0.0817  1.1037 -0.0576
 3282TIP3    H231406   2.137   3.582   7.950 -1.0572  0.1511 -1.0181
 3283TIP3   OH231407   3.948   4.101   0.683  0.2159  0.0138  0.2166
 3283TIP3    H131408   3.866   4.129   0.641  0.4939  1.8968  0.8523
 3283TIP3    H231409   3.951   4.007   0.668 -1.0765  0.2003 -1.5580
 3284TIP3   OH231410   1.764   3.983   1.960 -0.5380  0.5023 -0.3062
 3284TIP3    H131411   1.710   4.016   2.033 -1.6320 -0.6517 -0.5460
 3284TIP3    H231412   1.702   3.973   1.888  0.1908 -0.0090 -0.8683
 3285TIP3   OH231413   1.267   2.557   8.518  0.1957 -0.2980 -0.0390
 3285TIP3    H131414   1.243   2.501   8.444 -0.4073  1.2252 -1.0623
 3285TIP3    H231415   1.319   2.627   8.478  0.3888  0.2072  1.0848
 3286TIP3   OH231416   0.961   2.507   2.337  0.2415 -0.4241 -0.4552
 3286TIP3    H131417   0.969   2.535   2.246 -0.7839  0.2891 -0.3449
 3286TIP3    H231418   1.038   2.545   2.380  1.7793 -2.3564 -1.3599
 3287TIP3   OH231419   0.191   4.151   0.369 -0.2976  0.6613  0.3533
 3287TIP3    H131420   0.128   4.183   0.304 -1.4356  0.7236  1.4426
 3287TIP3    H231421   0.197   4.223   0.433  0.6568  0.5313  0.4145
 3288TIP3   OH231422   1.138   6.510   7.536 -0.8733  1.0404  0.3539
 3288TIP3    H131423   1.068   6.445   7.533 -1.0509  1.2444 -0.0137
 3288TIP3    H231424   1.144   6.535   7.628 -0.5926  0.2782  0.5519
 3289TIP3   OH231425   0.875   2.958   6.298  0.3846 -0.7623 -0.3147
 3289TIP3    H131426   0.958   2.930   6.258  1.3083  1.6104 -0.2157
 3289TIP3    H231427   0.898   2.982   6.387 -0.6662 -1.1679  0.0820
 3290TIP3   OH231428   2.082   3.944   6.397  0.4877  0.3938 -0.5983
 3290TIP3    H131429   2.038   3.859   6.396  1.6681 -0.3368  1.5989
 3290TIP3    H231430   2.146   3.936   6.468  2.9306  1.9969 -2.4738
 3291TIP3   OH231431   4.846   1.407   1.408 -0.2232 -0.5538  0.1272
 3291TIP3    H131432   4.915   1.414   1.474 -0.2598  0.6123  0.0565
 3291TIP3    H231433   4.881   1.346   1.343  0.4360 -0.5281  0.4532
 3292TIP3   OH231434   2.151   4.013   6.155  0.3329 -0.3776 -0.0709
 3292TIP3    H131435   2.231   4.064   6.153 -0.9322  1.8417  1.5989
 3292TIP3    H231436   2.141   3.988   6.247 -2.3504  2.0400  0.4378
 3293TIP3   OH231437   0.519   0.822   2.185 -0.0868  0.5378 -0.1416
 3293TIP3    H131438   0.610   0.839   2.160  0.0499 -0.7326 -0.5946
 3293TIP3    H231439   0.526   0.773   2.267 -0.3830  0.8786  0.0878
 3294TIP3   OH231440   2.914   6.286   0.106 -0.0384 -0.0027 -0.2171
 3294TIP3    H131441   2.836   6.241   0.073  0.3736 -2.3376  1.6816
 3294TIP3    H231442   2.908   6.276   0.201  2.2852  0.2414  0.0134
 3295TIP3   OH231443   1.060   1.345   1.825  0.4518  0.5813  0.2112
 3295TIP3    H131444   0.990   1.326   1.887  1.9986 -0.8747  1.6312
 3295TIP3    H231445   1.078   1.438   1.836 -0.8019  0.8347  0.2618
 3296TIP3   OH231446   3.769   3.168   0.359  0.3491 -0.1892 -0.4675
 3296TIP3    H131447   3.747   3.080   0.330 -0.0449 -0.6234  1.0720
 3296TIP3    H231448   3.702   3.189   0.425  0.9995  0.8681 -0.1253
 3297TIP3   OH231449   5.565   4.172   0.994  0.3599 -0.0400 -0.0588
 3297TIP3    H131450   5.479   4.152   0.958  0.1090  0.8294  0.0481
 3297TIP3    H231451   5.588   4.094   1.045 -0.2388 -0.3835 -0.3068
 3298TIP3   OH231452   5.544   1.402   7.141  0.4034 -0.4291 -0.2662
 3298TIP3    H131453   5.460   1.436   7.170  0.0644  0.8944 -2.5495
 3298TIP3    H231454   5.531   1.307   7.136 -1.5339 -0.1415 -2.0927
 3299TIP3   OH231455   0.210   1.748   1.445  0.1561  0.1907 -0.5400
 3299TIP3    H131456   0.235   1.840   1.459  0.9828  0.0119 -0.7539
 3299TIP3    H231457   0.118   1.752   1.419 -0.5299  0.7796  1.6877
 3300TIP3   OH231458   5.290   6.642   0.344 -0.1482 -0.1832 -0.4341
 3300TIP3    H131459   5.335   6.719   0.378  0.1681  0.2395 -1.7443
 3300TIP3    H231460   5.208   6.677   0.307  1.2515  0.0744 -3.6599
 3301TIP3   OH231461   3.800   3.591   6.240  0.0478  0.0672  0.0955
 3301TIP3    H131462   3.809   3.550   6.154 -0.9773  0.3364 -0.1543
 3301TIP3    H231463   3.885   3.578   6.282 -0.4654 -3.0406  0.3702
 3302TIP3   OH231464   6.364   3.518   7.526  0.0337 -0.3296 -1.2167
 3302TIP3    H131465   6.434   3.454   7.510 -0.6080 -0.8197 -2.1171
 3302TIP3    H231466   6.399   3.601   7.493  1.4203  0.1464  1.1815
 3303TIP3   OH231467   3.678   2.596   1.670 -0.3352  0.1412  0.0630
 3303TIP3    H131468   3.615   2.535   1.708 -0.0724 -1.6654 -2.1945
 3303TIP3    H231469   3.626   2.647   1.608  0.4582 -2.0595 -2.5820
 3304TIP3   OH231470   5.962   6.608   6.530  0.4920  0.6235 -0.6106
 3304TIP3    H131471   6.007   6.523   6.533  0.6275  0.7045  1.0239
 3304TIP3    H231472   6.032   6.671   6.514  0.6014  0.5361 -0.4875
 3305TIP3   OH231473   6.090   6.519   2.408 -0.5471 -0.1393  0.1194
 3305TIP3    H131474   6.018   6.490   2.351  1.0026 -1.6500 -1.1693
 3305TIP3    H231475   6.124   6.437   2.446  1.3773  0.3864 -0.4000
 3306TIP3   OH231476   6.060   1.387   6.181  0.0674  0.4073 -0.3022
 3306TIP3    H131477   5.991   1.363   6.243  1.1759  2.3860  1.8414
 3306TIP3    H231478   6.057   1.483   6.177  2.7713  0.6002  0.0665
 3307TIP3   OH231479   2.386   4.338   0.124  0.0570  0.2482  0.5259
 3307TIP3    H131480   2.445   4.362   0.052 -0.4065 -0.8041 -0.2293
 3307TIP3    H231481   2.434   4.270   0.173  0.2624  0.7735  1.0628
 3308TIP3   OH231482   4.227   4.310   0.811  0.1820 -0.3852 -0.5166
 3308TIP3    H131483   4.255   4.366   0.883  0.0477  0.9742 -1.4827
 3308TIP3    H231484   4.302   4.254   0.793  0.3611 -0.4537  0.3836
 3309TIP3   OH231485   3.759   1.981   8.329 -0.0314  0.2150  0.1037
 3309TIP3    H131486   3.672   2.001   8.293  0.6500  0.1910 -1.6294
 3309TIP3    H231487   3.806   2.064   8.328 -0.0245  0.2418  1.1017
 3310TIP3   OH231488   6.130   1.996   0.257 -0.4247  0.4656  0.8974
 3310TIP3    H131489   6.052   1.980   0.205 -1.0032  1.8192  1.3044
 3310TIP3    H231490   6.195   2.029   0.195 -1.2901  2.6265  1.0613
 3311TIP3   OH231491   2.172   2.496   6.246  0.3988 -0.1359 -0.0263
 3311TIP3    H131492   2.253   2.469   6.203  0.2427 -0.3710 -0.1717
 3311TIP3    H231493   2.105   2.436   6.213  0.9969 -3.2063  3.7485
 3312TIP3   OH231494   4.947   0.896   7.181 -0.7279 -0.1393  0.1474
 3312TIP3    H131495   5.020   0.871   7.124 -1.2892  0.2436 -0.7577
 3312TIP3    H231496   4.984   0.894   7.269  0.5176  0.5226 -0.3381
 3313TIP3   OH231497   1.078   1.569   2.463  0.0200  0.2284 -0.0158
 3313TIP3    H131498   1.087   1.579   2.557  1.7290  1.0065 -0.2236
 3313TIP3    H231499   1.111   1.651   2.426  1.0714 -0.7234 -1.3363
 3314TIP3   OH231500   3.610   3.731   1.595  0.3355 -0.4392 -0.0467
 3314TIP3    H131501   3.543   3.662   1.598  1.0656 -1.2171 -0.8764
 3314TIP3    H231502   3.649   3.723   1.508  1.3513  0.1382  0.3309
 3315TIP3   OH231503   1.298   6.578   0.968 -0.1033 -0.1931 -0.9320
 3315TIP3    H131504   1.205   6.569   0.947 -0.0007 -1.6732 -0.8529
 3315TIP3    H231505   1.317   6.503   1.024  1.1362  0.1170 -0.9156
 3316TIP3   OH231506   0.759   3.945   1.390 -0.4133  0.1079 -0.0716
 3316TIP3    H131507   0.677   3.937   1.342 -0.4222 -1.2716  0.1191
 3316TIP3    H231508   0.795   4.029   1.363 -1.5920  0.4520 -0.6218
 3317TIP3   OH231509   3.375   6.702   8.477  0.1984  0.6412  0.2668
 3317TIP3    H131510   3.460   6.738   8.502  1.3893 -1.5078 -0.4463
 3317TIP3    H231511   3.362   6.628   8.536 -0.8532  0.4915 -0.1301
 3318TIP3   OH231512   2.325   5.767   1.520  0.2167 -0.0628  0.0989
 3318TIP3    H131513   2.353   5.708   1.590  0.7111 -0.4947 -0.4511
 3318TIP3    H231514   2.297   5.709   1.449 -0.2677  0.3688 -0.0710
 3319TIP3   OH231515   0.402   6.376   1.018  0.2064 -0.4471  0.3272
 3319TIP3    H131516   0.335   6.348   1.080 -0.8308  2.8384  0.8940
 3319TIP3    H231517   0.355   6.435   0.958  1.7005 -1.5797 -2.1193
 3320TIP3   OH231518   6.216   1.470   7.185  0.0091 -0.1273  0.1250
 3320TIP3    H131519   6.179   1.551   7.219  0.3248 -0.1253  0.4783
 3320TIP3    H231520   6.311   1.485   7.188  0.0436 -0.2116 -0.5571
 3321TIP3   OH231521   0.223   4.401   7.543  0.3737 -0.2042  0.3646
 3321TIP3    H131522   0.128   4.403   7.544  0.3426 -1.1764  0.7359
 3321TIP3    H231523   0.249   4.492   7.551 -0.5337 -0.0404  1.9778
 3322TIP3   OH231524   2.692   0.991   6.913  0.4838 -0.0085 -0.1663
 3322TIP3    H131525   2.752   0.916   6.915 -0.4798 -0.8727 -1.9195
 3322TIP3    H231526   2.605   0.952   6.920 -0.0198  0.9561 -0.8633
 3323TIP3   OH231527   0.133   4.894   7.789  0.1174  0.3453 -0.1047
 3323TIP3    H131528   0.169   4.807   7.807 -1.4416 -0.6780 -1.6523
 3323TIP3    H231529   0.070   4.880   7.719 -2.4116  2.2400  1.6150
 3324TIP3   OH231530   6.466   5.484   2.024 -0.4431 -0.2707 -0.6307
 3324TIP3    H131531   6.399   5.512   2.086 -0.2884 -1.7703  0.2544
 3324TIP3    H231532   6.540   5.458   2.079 -0.1434 -1.2204 -1.4606
 3325TIP3   OH231533   1.237   3.578   7.905 -0.1146 -0.1491 -0.8496
 3325TIP3    H131534   1.265   3.595   7.996  0.1988  0.0368 -0.9769
 3325TIP3    H231535   1.286   3.641   7.853 -3.0465  2.3650 -0.8257
 3326TIP3   OH231536   2.095   2.249   0.411  0.2068  0.0607 -0.3557
 3326TIP3    H131537   2.051   2.165   0.423  1.3546 -0.2291  2.5489
 3326TIP3    H231538   2.024   2.314   0.412 -0.5563 -0.7234 -1.1654
 3327TIP3   OH231539   1.520   1.947   6.647 -0.1576 -0.0867 -0.2343
 3327TIP3    H131540   1.490   1.857   6.663 -1.0826  0.2180 -0.2438
 3327TIP3    H231541   1.562   1.943   6.561  1.1981 -0.8344  0.4182
 3328TIP3   OH231542   3.571   1.322   6.811  0.6456 -0.0802  0.4624
 3328TIP3    H131543   3.482   1.319   6.847  0.6380 -1.3934  0.3885
 3328TIP3    H231544   3.560   1.355   6.722  0.1834 -0.5685  0.3351
 3329TIP3   OH231545   0.243   6.006   1.265 -0.1692 -0.5479 -0.2867
 3329TIP3    H131546   0.283   5.922   1.290 -0.0219 -0.2933  0.3435
 3329TIP3    H231547   0.227   5.997   1.171  0.9341 -0.8436 -0.4627
 3330TIP3   OH231548   2.023   3.516   7.656  0.1730 -0.4936  0.3484
 3330TIP3    H131549   2.002   3.608   7.641 -1.6456 -1.1748 -1.8772
 3330TIP3    H231550   2.112   3.517   7.690  0.2941  2.0463  0.1557
 3331TIP3   OH231551   3.815   1.860   8.062 -0.0892  0.8963 -0.6695
 3331TIP3    H131552   3.837   1.871   8.154  0.4425  0.1265 -0.6940
 3331TIP3    H231553   3.721   1.841   8.062  0.0480  0.1815 -0.2204
 3332TIP3   OH231554   5.852   5.930   1.290  0.6822 -1.3477 -0.0797
 3332TIP3    H131555   5.766   5.972   1.289  0.9484 -0.7299  1.1609
 3332TIP3    H231556   5.833   5.837   1.275 -0.1755 -1.1836 -0.0832
 3333TIP3   OH231557   0.241   2.626   8.646  0.6583 -0.0234 -0.3345
 3333TIP3    H131558   0.258   2.600   8.555 -0.7316  0.0187 -0.6233
 3333TIP3    H231559   0.201   2.549   8.686  0.2658  0.3194 -0.0654
 3334TIP3   OH231560   2.392   2.714   7.777 -0.6718  0.0128 -0.6617
 3334TIP3    H131561   2.350   2.737   7.694 -0.0826 -2.3845 -1.7020
 3334TIP3    H231562   2.351   2.632   7.803 -0.0660  0.1541  0.8647
 3335TIP3   OH231563   6.267   2.362   7.834 -0.5546  1.0228  0.7929
 3335TIP3    H131564   6.237   2.339   7.922 -1.9942 -0.8409 -0.1297
 3335TIP3    H231565   6.244   2.287   7.780  2.0149  1.2833 -0.8528
 3336TIP3   OH231566   4.181   2.298   7.224 -0.2692 -0.2833 -0.0897
 3336TIP3    H131567   4.170   2.390   7.197  2.6414  0.1305 -0.2822
 3336TIP3    H231568   4.247   2.302   7.294 -0.0035 -2.2329 -0.1765
 3337TIP3   OH231569   0.005   1.182   1.519 -0.0317  0.5730 -0.6806
 3337TIP3    H131570  -0.052   1.109   1.494 -1.5022  0.8638  1.5418
 3337TIP3    H231571   0.050   1.153   1.598 -1.5259  2.4028  0.9460
 3338TIP3   OH231572   5.978   5.065   0.109 -0.2589  0.0100 -0.1092
 3338TIP3    H131573   5.891   5.081   0.073 -0.2680  0.4031  0.0730
 3338TIP3    H231574   5.978   4.973   0.133  0.3135 -0.7104 -2.6036
 3339TIP3   OH231575   0.679   1.504   7.230 -0.3048 -0.1366  0.1931
 3339TIP3    H131576   0.733   1.463   7.297  0.8861  0.4425 -0.3716
 3339TIP3    H231577   0.638   1.431   7.184  2.9583 -0.9219 -1.7910
 3340TIP3   OH231578   6.354   5.175   8.407  0.0413  0.4373  0.2268
 3340TIP3    H131579   6.284   5.221   8.454  0.5021  2.4292 -0.9297
 3340TIP3    H231580   6.412   5.144   8.477 -1.5811 -0.6650  1.1661
 3341TIP3   OH231581   6.090   1.662   1.208  0.3560  0.1607  0.3342
 3341TIP3    H131582   6.154   1.593   1.188  0.6455  0.0549  1.5398
 3341TIP3    H231583   6.144   1.737   1.236 -0.0113 -0.5684  3.3628
 3342TIP3   OH231584   6.452   4.588   1.721 -0.5763  0.0971 -0.5531
 3342TIP3    H131585   6.492   4.531   1.787 -3.3955  0.4622  1.7162
 3342TIP3    H231586   6.495   4.672   1.733 -0.2709 -0.1393  0.0621
 3343TIP3   OH231587   3.836   2.238   8.309 -0.3817 -0.2630  0.7946
 3343TIP3    H131588   3.754   2.265   8.268 -0.2480  0.4543  0.9859
 3343TIP3    H231589   3.876   2.320   8.338  0.4491 -0.5938  0.6109
 3344TIP3   OH231590   4.594   4.621   0.441  0.4442  0.3593  0.6902
 3344TIP3    H131591   4.561   4.579   0.362 -0.4350  1.5901  0.3730
 3344TIP3    H231592   4.559   4.568   0.513  0.0869  0.0364  0.2819
 3345TIP3   OH231593   0.096   6.655   8.043 -0.6165 -0.1988  0.2346
 3345TIP3    H131594   0.112   6.599   8.119  0.4170  0.4254  0.5006
 3345TIP3    H231595   0.001   6.661   8.037 -0.7466 -1.8069  0.3155
 3346TIP3   OH231596   5.820   0.834   8.282  0.0123 -0.0459  0.1729
 3346TIP3    H131597   5.895   0.874   8.238  0.3489 -0.7535  0.0859
 3346TIP3    H231598   5.843   0.837   8.375 -0.4373  0.9122  0.2683
 3347TIP3   OH231599   2.593   3.360   0.052 -0.2036  0.0941 -0.3669
 3347TIP3    H131600   2.582   3.359  -0.043  0.8341  0.6542 -0.5040
 3347TIP3    H231601   2.533   3.292   0.084 -2.0583  1.2169 -1.2440
 3348TIP3   OH231602   2.700   4.857   8.313  0.5077  0.3586 -0.4887
 3348TIP3    H131603   2.625   4.903   8.276  0.2314 -0.3696 -0.8562
 3348TIP3    H231604   2.753   4.833   8.237  0.4922 -0.1954 -0.3265
 3349TIP3   OH231605   3.890   6.756   2.039  0.2826  0.0646 -0.0228
 3349TIP3    H131606   3.874   6.805   1.958  3.1480 -0.6008 -1.1256
 3349TIP3    H231607   3.983   6.772   2.058  0.0462 -0.9765  2.3653
 3350TIP3   OH231608   6.265   0.529   7.359 -0.0199  0.2705 -0.2707
 3350TIP3    H131609   6.257   0.508   7.266  0.8408  1.7390 -0.7081
 3350TIP3    H231610   6.347   0.578   7.366  1.8675 -2.7927  1.8377
 3351TIP3   OH231611   5.048   5.178   5.856  0.2284 -0.4088  0.2415
 3351TIP3    H131612   5.045   5.183   5.951 -0.3463  1.5673  0.1800
 3351TIP3    H231613   5.060   5.085   5.836  1.3210 -0.7428  2.2417
 3352TIP3   OH231614   5.415   0.659   1.936  0.1448 -0.1867 -1.2353
 3352TIP3    H131615   5.481   0.684   1.871  1.4654 -0.3783 -0.0268
 3352TIP3    H231616   5.438   0.709   2.014 -2.1945  1.0487 -1.2532
 3353TIP3   OH231617   5.124   4.686   1.692 -0.3511  0.3028 -0.7743
 3353TIP3    H131618   5.062   4.759   1.694 -0.1257  0.5047  1.1857
 3353TIP3    H231619   5.162   4.685   1.780  1.1336 -0.9295 -1.3836
 3354TIP3   OH231620   3.988   0.455   0.295 -0.2923 -0.1430  0.3601
 3354TIP3    H131621   3.910   0.505   0.269 -1.1155 -0.3819  2.2021
 3354TIP3    H231622   4.053   0.522   0.316 -0.8660  0.1310  1.2957
 3355TIP3   OH231623   1.752   5.807   1.457 -0.0213  0.4799  0.3158
 3355TIP3    H131624   1.829   5.757   1.432  0.0747 -0.3960  2.2554
 3355TIP3    H231625   1.760   5.889   1.407 -0.2080 -1.3190 -2.9777
 3356TIP3   OH231626   1.894   4.267   0.897  0.1512  0.4945  0.3797
 3356TIP3    H131627   1.939   4.191   0.861 -0.3164  0.8184 -0.9609
 3356TIP3    H231628   1.801   4.250   0.880  0.0059  1.1354  0.5148
 3357TIP3   OH231629   6.338   3.252   0.706 -0.0643  0.4876  0.4317
 3357TIP3    H131630   6.274   3.315   0.674  0.9129  0.7158 -1.1489
 3357TIP3    H231631   6.423   3.288   0.680  0.6092 -0.7052  0.8863
 3358TIP3   OH231632   3.655   5.155   8.297  0.2915  0.2219 -0.3804
 3358TIP3    H131633   3.572   5.181   8.338  0.8024  2.8975 -0.8368
 3358TIP3    H231634   3.629   5.114   8.214 -0.5916  0.4917 -0.2526
 3359TIP3   OH231635   6.386   6.031   8.332  1.0282 -0.2432  0.0479
 3359TIP3    H131636   6.378   5.942   8.365 -1.1753  0.4117  1.4795
 3359TIP3    H231637   6.301   6.051   8.294  0.3373  2.2179  2.4893
 3360TIP3   OH231638   6.809   0.577   7.581 -0.1139 -0.1642  0.1039
 3360TIP3    H131639   6.796   0.521   7.658 -1.8071  1.0433  0.7479
 3360TIP3    H231640   6.837   0.661   7.617 -1.1030  0.4735 -0.5710
 3361TIP3   OH231641   0.342   4.577   1.436 -0.7839  0.2981  0.4248
 3361TIP3    H131642   0.385   4.629   1.505 -2.1918  0.8902  0.8822
 3361TIP3    H231643   0.412   4.560   1.372  0.9531 -1.4626  2.6112
 3362TIP3   OH231644   4.569   5.261   2.375  0.8281 -0.4387  0.1892
 3362TIP3    H131645   4.516   5.268   2.454  0.9918 -0.2907  0.2882
 3362TIP3    H231646   4.574   5.167   2.357  1.2920 -0.5160  0.7006
 3363TIP3   OH231647   1.904   2.025   2.183 -0.0572 -0.3930  0.5544
 3363TIP3    H131648   1.905   2.119   2.199 -0.9623 -0.2168 -0.3120
 3363TIP3    H231649   1.863   2.016   2.097 -1.1958 -1.6468  1.1951
 3364TIP3   OH231650   2.328   1.663   8.123  0.0293 -0.1018 -0.2962
 3364TIP3    H131651   2.336   1.589   8.184  1.5673  0.0797 -0.2293
 3364TIP3    H231652   2.257   1.716   8.159 -0.1729 -0.8479  0.4273
 3365TIP3   OH231653   6.655   1.210   8.566 -0.1368 -0.7679 -0.6845
 3365TIP3    H131654   6.563   1.194   8.587  0.0710 -0.9179  0.1527
 3365TIP3    H231655   6.700   1.207   8.650  0.3702  1.2223 -0.8241
 3366TIP3   OH231656   1.771   4.355   1.935 -0.2886 -0.2335 -0.8193
 3366TIP3    H131657   1.683   4.319   1.944 -0.8619  1.4099  0.9034
 3366TIP3    H231658   1.757   4.439   1.891 -0.1161  1.6203  2.3626
 3367TIP3   OH231659   2.738   1.266   8.195  0.1697  0.8177 -0.0995
 3367TIP3    H131660   2.759   1.174   8.208  0.0940  0.6456 -1.1014
 3367TIP3    H231661   2.651   1.277   8.234 -0.2177  0.2402 -0.7885
 3368TIP3   OH231662   5.691   3.607   0.590 -0.3827 -0.5642 -0.0357
 3368TIP3    H131663   5.779   3.617   0.555 -0.3753 -1.4288 -0.2650
 3368TIP3    H231664   5.638   3.667   0.537  0.0251 -0.1931 -0.0310
 3369TIP3   OH231665   3.867   2.834   1.443  0.2382 -0.3796 -0.0023
 3369TIP3    H131666   3.873   2.738   1.446  1.6102 -0.3591 -1.0587
 3369TIP3    H231667   3.938   2.863   1.501  0.1382  0.0026 -0.0730
 3370TIP3   OH231668   2.814   5.757   8.184  1.0216 -0.4074  0.7236
 3370TIP3    H131669   2.766   5.840   8.189  0.4149 -0.7752  1.0885
 3370TIP3    H231670   2.858   5.750   8.269  1.2933 -0.3273  0.5894
 3371TIP3   OH231671   4.681   0.906   7.270  0.1909  0.0145  0.3065
 3371TIP3    H131672   4.594   0.931   7.240  0.1615  0.9161  1.0999
 3371TIP3    H231673   4.738   0.923   7.195 -0.2604 -0.2701 -0.1071
 3372TIP3   OH231674   6.354   5.069   7.526 -0.3217 -0.1040  0.1384
 3372TIP3    H131675   6.428   5.114   7.566 -0.6299 -0.0944  0.7128
 3372TIP3    H231676   6.277   5.107   7.568 -0.5581 -2.0225  1.6054
 3373TIP3   OH231677   2.878   2.900   7.878  0.0956  0.5230 -0.2118
 3373TIP3    H131678   2.791   2.905   7.839 -0.5158  0.6095  1.0869
 3373TIP3    H231679   2.936   2.942   7.815 -1.0548  1.9042 -0.4055
 3374TIP3   OH231680   6.827   1.106   7.148  0.0548 -0.2372 -0.6627
 3374TIP3    H131681   6.877   1.034   7.109  0.9324 -0.4320  0.7460
 3374TIP3    H231682   6.825   1.085   7.241 -0.6949  0.9759 -0.3909
 3375TIP3   OH231683   4.132   2.023   7.652 -0.2367  0.2595  0.4113
 3375TIP3    H131684   4.127   2.118   7.658 -1.2494  0.4120 -1.8410
 3375TIP3    H231685   4.076   1.991   7.722  0.1613  1.3032  1.2178
 3376TIP3   OH231686   3.189   4.831   7.206 -0.3124  0.0451  0.0200
 3376TIP3    H131687   3.138   4.865   7.132 -1.1884  0.3232  0.7459
 3376TIP3    H231688   3.165   4.739   7.212  0.2413 -0.1371 -0.4273
 3377TIP3   OH231689   2.761   5.980   1.149 -0.1825 -0.3539  0.9208
 3377TIP3    H131690   2.797   5.906   1.100 -0.1019  0.0677  0.3243
 3377TIP3    H231691   2.702   5.941   1.213 -1.0392 -0.8784 -0.1615
 3378TIP3   OH231692   5.017   6.735   0.210  0.1356 -0.5166  0.0186
 3378TIP3    H131693   4.981   6.664   0.264  0.3058 -0.2897  0.4324
 3378TIP3    H231694   5.063   6.690   0.140  0.0832 -0.8170  0.1742
 3379TIP3   OH231695   2.406   3.771   8.140 -0.8581 -0.0372  0.6162
 3379TIP3    H131696   2.458   3.734   8.212  1.9190  0.5466 -0.9688
 3379TIP3    H231697   2.400   3.865   8.161 -2.7349 -0.3156  1.5728
 3380TIP3   OH231698   3.700   4.243   7.679  0.3085  0.6993  0.5251
 3380TIP3    H131699   3.784   4.212   7.645 -0.1571 -1.8274  1.4331
 3380TIP3    H231700   3.656   4.163   7.709 -3.1000  1.7008 -1.3461
 3381TIP3   OH231701   2.428   1.713   0.020 -0.3679  0.3764  0.3124
 3381TIP3    H131702   2.355   1.767   0.050  0.0291  2.3589 -1.9090
 3381TIP3    H231703   2.417   1.629   0.065 -1.8663  1.8035  2.8403
 3382TIP3   OH231704   5.188   1.202   1.029 -0.6962  0.4781  0.0753
 3382TIP3    H131705   5.185   1.113   1.064  1.3436  0.4732  0.3476
 3382TIP3    H231706   5.236   1.194   0.947  2.2245  1.6696  1.5241
 3383TIP3   OH231707   2.496   4.450   7.061  0.3830 -0.2188  0.5770
 3383TIP3    H131708   2.552   4.526   7.078  0.8152 -0.7175  1.4492
 3383TIP3    H231709   2.541   4.377   7.103  1.2510 -1.4743 -2.3297
 3384TIP3   OH231710   0.779   2.963   2.152  0.2749  0.9142  0.2528
 3384TIP3    H131711   0.740   2.879   2.176 -0.2139  0.9164 -0.5026
 3384TIP3    H231712   0.716   3.028   2.182 -0.3397  0.9176 -0.9531
 3385TIP3   OH231713   5.735   3.576   6.703  0.5060 -0.4471 -0.0209
 3385TIP3    H131714   5.669   3.645   6.693  1.0562 -0.0845 -1.2273
 3385TIP3    H231715   5.692   3.496   6.673  0.9592 -0.0048 -1.9907
 3386TIP3   OH231716   3.899   3.712   0.877  0.7952 -0.5450  0.3693
 3386TIP3    H131717   3.973   3.651   0.869  2.1162  1.0803 -0.5973
 3386TIP3    H231718   3.884   3.742   0.788 -0.6804 -0.4074  0.6510
 3387TIP3   OH231719   1.524   4.126   6.848  0.6862  0.3751  0.0122
 3387TIP3    H131720   1.435   4.095   6.832  0.5095  1.2379 -0.7823
 3387TIP3    H231721   1.580   4.062   6.804  0.3695  0.6786 -0.8614
 3388TIP3   OH231722   2.990   0.370   1.235  0.2150  0.8284 -0.4416
 3388TIP3    H131723   2.929   0.332   1.172 -1.1145 -2.1441  2.3388
 3388TIP3    H231724   2.944   0.446   1.271 -0.7107  0.1997 -0.2782
 3389TIP3   OH231725   4.737   6.840   1.207  0.7898  0.4174  0.0269
 3389TIP3    H131726   4.665   6.780   1.225  1.8768 -0.9810 -0.1088
 3389TIP3    H231727   4.714   6.881   1.124 -1.2222  2.2250  1.3539
 3390TIP3   OH231728   5.386   0.862   7.250  0.4327 -0.6208  0.4214
 3390TIP3    H131729   5.399   0.782   7.198  0.3440  0.0768 -0.7138
 3390TIP3    H231730   5.405   0.836   7.340 -1.1567 -2.3088  0.3091
 3391TIP3   OH231731   3.552   2.537   0.903  0.2476  0.2651  0.3279
 3391TIP3    H131732   3.552   2.452   0.859 -2.1478  1.4910 -2.3838
 3391TIP3    H231733   3.635   2.577   0.878 -0.0873  0.0208 -1.2669
 3392TIP3   OH231734   0.897   3.450   7.752 -0.5839  0.0813 -0.3987
 3392TIP3    H131735   0.910   3.460   7.658 -1.0204  0.4911 -0.4189
 3392TIP3    H231736   0.982   3.419   7.785 -0.8665 -1.5838 -1.1339
 3393TIP3   OH231737   6.411   5.091   1.635 -0.3969 -0.0901  0.4802
 3393TIP3    H131738   6.317   5.107   1.630 -0.3819 -0.1990 -0.3718
 3393TIP3    H231739   6.425   5.012   1.582  0.6290  2.0113 -2.6843
 3394TIP3   OH231740   6.254   0.912   5.725 -0.3745  0.1010  0.4237
 3394TIP3    H131741   6.278   1.004   5.736 -0.5737  0.8706 -3.7645
 3394TIP3    H231742   6.161   0.909   5.743 -0.6760  1.1282 -0.7690
 3395TIP3   OH231743   6.361   1.135   5.820  0.2001 -0.1679  0.2497
 3395TIP3    H131744   6.443   1.159   5.865  0.8099  0.3639 -1.0809
 3395TIP3    H231745   6.292   1.170   5.877  0.9995  2.2528 -0.1544
 3396TIP3   OH231746   0.485   3.654   8.254 -0.1233 -0.0672  0.2807
 3396TIP3    H131747   0.470   3.683   8.344  0.7486  0.0656  0.3894
 3396TIP3    H231748   0.457   3.562   8.253  0.1416 -0.1518  0.7598
 3397TIP3   OH231749   5.511   0.318   8.170 -0.0082 -0.0583 -0.7083
 3397TIP3    H131750   5.477   0.250   8.112 -0.1722 -0.3260 -0.3113
 3397TIP3    H231751   5.582   0.275   8.218 -1.3973 -0.5816  0.9735
 3398TIP3   OH231752   1.201   5.731   8.581 -0.2015  0.0277  0.2955
 3398TIP3    H131753   1.258   5.698   8.512 -1.4710  1.4174 -1.5222
 3398TIP3    H231754   1.121   5.679   8.573 -1.2163  1.6818 -0.8541
 3399TIP3   OH231755   5.271   3.603   0.060 -0.1337  0.5849  0.2141
 3399TIP3    H131756   5.209   3.581   0.129  0.2241 -0.0070  0.3530
 3399TIP3    H231757   5.222   3.659  -0.000 -1.0743 -0.6094 -0.1608
 3400TIP3   OH231758   0.805   5.345   8.045 -0.0315 -0.3940  0.2582
 3400TIP3    H131759   0.823   5.339   7.951 -2.3652 -0.2637 -0.2621
 3400TIP3    H231760   0.709   5.341   8.051 -0.2464  3.4335  2.2846
 3401TIP3   OH231761   1.479   0.471   7.878  0.0726  0.0764 -0.0410
 3401TIP3    H131762   1.386   0.464   7.860 -0.6349  4.7405  0.6106
 3401TIP3    H231763   1.486   0.470   7.974  0.4999  1.0730 -0.0524
 3402TIP3   OH231764   1.583   0.501   2.567 -0.1466 -0.3110  0.4270
 3402TIP3    H131765   1.587   0.431   2.632 -2.3569 -0.1344  0.8077
 3402TIP3    H231766   1.636   0.469   2.493  1.2349 -1.1076  1.7100
 3403TIP3   OH231767   0.981   6.249   8.308 -0.1823  0.3045 -0.0079
 3403TIP3    H131768   0.955   6.166   8.268 -1.3426 -0.5318  2.3198
 3403TIP3    H231769   1.060   6.275   8.260 -0.5875 -1.3912 -1.7327
 3404TIP3   OH231770   2.667   0.615   1.064 -0.4233 -0.6325  0.0507
 3404TIP3    H131771   2.589   0.561   1.053 -0.8844 -0.2883  1.5253
 3404TIP3    H231772   2.635   0.705   1.061 -0.0663 -0.4849  0.5869
 3405TIP3   OH231773   4.849   4.863   7.967  0.0279 -0.0424  0.3985
 3405TIP3    H131774   4.801   4.830   8.043 -1.2130 -1.7224 -1.0194
 3405TIP3    H231775   4.898   4.787   7.935  1.3270  0.9005  0.0938
 3406TIP3   OH231776   1.931   6.784   6.461 -0.7163 -0.0189 -0.1073
 3406TIP3    H131777   1.940   6.737   6.544 -0.5439  1.5718  0.8291
 3406TIP3    H231778   1.912   6.874   6.487 -1.0137  0.4511 -1.8166
 3407TIP3   OH231779   3.887   3.831   0.001  0.0541  0.5596 -0.8491
 3407TIP3    H131780   3.853   3.844   0.090 -0.1159 -1.2822 -0.6000
 3407TIP3    H231781   3.982   3.838   0.010  0.1890 -1.5219 -0.0923
 3408TIP3   OH231782   2.686   5.797   8.475  0.0241 -0.1837 -0.9357
 3408TIP3    H131783   2.709   5.878   8.428  1.2398  0.1664  0.1855
 3408TIP3    H231784   2.771   5.758   8.497 -0.4790 -0.2896  0.9831
 3409TIP3   OH231785   5.429   3.569   6.735  0.0240  0.3416 -0.0035
 3409TIP3    H131786   5.415   3.627   6.661 -0.6804  0.8359  0.5067
 3409TIP3    H231787   5.398   3.618   6.811  0.1507 -0.3935  0.5418
 3410TIP3   OH231788   2.544   1.296   0.975 -0.3709 -0.2752 -0.2299
 3410TIP3    H131789   2.623   1.264   0.932  0.2461  2.5230 -1.4469
 3410TIP3    H231790   2.495   1.217   0.998  2.5991 -2.1128  0.3257
 3411TIP3   OH231791   0.669   0.667   0.054 -0.5888 -0.0504  0.6869
 3411TIP3    H131792   0.687   0.597  -0.009  0.4162  0.5602  0.2812
 3411TIP3    H231793   0.592   0.636   0.102 -0.0963 -1.4930  0.5950
 3412TIP3   OH231794   1.583   2.310   8.342 -0.6625  0.1020  0.6393
 3412TIP3    H131795   1.507   2.289   8.396  1.5928  0.1619  4.2083
 3412TIP3    H231796   1.593   2.234   8.284 -1.4298 -1.6453  2.6355
 3413TIP3   OH231797   3.910   0.236   0.461 -0.1397 -0.3215 -0.2375
 3413TIP3    H131798   3.976   0.252   0.528  0.1559 -0.6971 -0.4351
 3413TIP3    H231799   3.909   0.316   0.408 -0.1963 -0.1237  0.0654
 3414TIP3   OH231800   5.037   2.036   6.934  0.0858  0.1825 -0.7057
 3414TIP3    H131801   5.096   2.043   6.858 -0.5993 -2.8139 -1.6541
 3414TIP3    H231802   5.018   1.942   6.941 -1.4853  0.5993  1.9877
 3415TIP3   OH231803   5.556   6.372   7.267  0.2750 -0.2032  0.0020
 3415TIP3    H131804   5.591   6.457   7.240  1.8163 -1.4648 -2.3951
 3415TIP3    H231805   5.467   6.369   7.231  0.5007  0.1122 -0.5943
 3416TIP3   OH231806   2.319   3.039   8.315  0.8635 -0.0553 -0.4200
 3416TIP3    H131807   2.346   3.093   8.241 -0.1608  1.2468  0.1060
 3416TIP3    H231808   2.275   2.964   8.276  1.4356 -0.0241 -1.1493
 3417TIP3   OH231809   5.630   5.369   0.600  0.2921  0.3054 -0.6230
 3417TIP3    H131810   5.552   5.394   0.649  0.2415  1.6929 -1.3591
 3417TIP3    H231811   5.606   5.380   0.508  1.4815  1.2747 -0.8517
 3418TIP3   OH231812   4.375   6.177   7.418  0.9379  0.1663 -1.0644
 3418TIP3    H131813   4.422   6.249   7.460 -1.4669  0.6469  1.1233
 3418TIP3    H231814   4.426   6.099   7.439  1.8762  0.8769 -0.6536
 3419TIP3   OH231815   4.950   0.343   7.489  0.6736  0.6807 -0.3761
 3419TIP3    H131816   4.922   0.318   7.401  0.8081 -0.0353 -0.2212
 3419TIP3    H231817   4.975   0.261   7.530  0.1392  0.9487  0.5026
 3420TIP3   OH231818   6.151   0.229   0.883 -0.0933  0.0453 -0.1498
 3420TIP3    H131819   6.153   0.304   0.823  0.3649 -0.3470 -0.6394
 3420TIP3    H231820   6.082   0.173   0.849  0.8505 -0.6726 -0.9436
 3421TIP3   OH231821   0.561   4.535   0.916 -0.2969  0.4330 -0.4375
 3421TIP3    H131822   0.541   4.598   0.985  0.8825 -0.5746  0.8875
 3421TIP3    H231823   0.485   4.538   0.858 -1.4269  1.1765  1.0104
 3422TIP3   OH231824   0.194   4.818   0.207 -0.1449 -0.5282 -0.1805
 3422TIP3    H131825   0.211   4.726   0.226 -0.7570 -0.5023  0.5264
 3422TIP3    H231826   0.237   4.866   0.278 -1.2875 -0.3644  0.4305
 3423TIP3   OH231827   2.867   0.363   0.522 -0.4469  0.0946 -0.3942
 3423TIP3    H131828   2.793   0.392   0.468 -1.1427  0.1746  0.5814
 3423TIP3    H231829   2.849   0.398   0.609 -0.4112 -1.7673  0.4073
 3424TIP3   OH231830   6.576   4.673   1.182  0.3069 -0.4385  0.0386
 3424TIP3    H131831   6.505   4.613   1.157  0.4580 -0.3186 -0.7229
 3424TIP3    H231832   6.559   4.694   1.273 -1.2143  0.3771 -0.4015
 3425TIP3   OH231833   4.782   5.184   0.681 -0.0594  0.2362  0.4131
 3425TIP3    H131834   4.731   5.154   0.756 -0.2325 -0.9442 -0.1588
 3425TIP3    H231835   4.765   5.278   0.678 -1.4119  0.0353  0.8439
 3426TIP3   OH231836   4.491   2.604   1.199 -0.0253 -0.9232  0.1719
 3426TIP3    H131837   4.565   2.543   1.198 -1.3779 -2.6177 -0.0740
 3426TIP3    H231838   4.433   2.573   1.130 -0.5105  1.0117 -0.3523
 3427TIP3   OH231839   6.114   5.422   7.891 -0.3584  0.0185  0.9646
 3427TIP3    H131840   6.184   5.479   7.923  0.6111 -2.0097  2.6524
 3427TIP3    H231841   6.053   5.416   7.965 -1.7886  0.8309 -0.0877
 3428TIP3   OH231842   1.390   1.998   1.316 -0.3217 -0.1725 -0.1482
 3428TIP3    H131843   1.420   1.972   1.403  0.5782 -0.6099 -0.5749
 3428TIP3    H231844   1.433   2.082   1.300  0.3653 -0.5987 -0.5893
 3429TIP3   OH231845   0.998   1.947   7.843  0.2758  0.3413 -0.5533
 3429TIP3    H131846   1.009   2.037   7.812 -2.7972  0.7735 -0.6976
 3429TIP3    H231847   1.052   1.894   7.784  2.0122  2.0359 -0.5612
 3430TIP3   OH231848   2.245   2.227   6.954  0.2974  0.4963 -0.2137
 3430TIP3    H131849   2.240   2.199   6.863  2.2419  1.1215 -0.5544
 3430TIP3    H231850   2.171   2.184   6.996 -0.5184  0.0170 -2.0251
 3431TIP3   OH231851   1.423   3.867   7.564 -0.1275 -0.3528  0.0160
 3431TIP3    H131852   1.467   3.945   7.530  0.3264  0.3767  2.0784
 3431TIP3    H231853   1.341   3.901   7.601 -0.4481 -1.0370 -0.0515
 3432TIP3   OH231854   0.261   5.094   1.943  0.5253  0.6028  0.2695
 3432TIP3    H131855   0.283   5.025   1.880 -3.2105 -0.5149 -0.0394
 3432TIP3    H231856   0.273   5.176   1.894  0.3931 -0.0952 -0.9609
 3433TIP3   OH231857   3.989   6.225   1.969 -0.1540 -0.0158 -0.3053
 3433TIP3    H131858   3.980   6.276   2.049 -0.5217 -0.6621  0.0752
 3433TIP3    H231859   4.044   6.151   1.993 -0.5883 -0.4259 -0.5410
 3434TIP3   OH231860   5.089   5.015   0.197  0.2938  0.1516 -0.2945
 3434TIP3    H131861   5.108   5.108   0.210  0.9238 -0.2436  1.9481
 3434TIP3    H231862   5.034   4.991   0.271  1.5671 -1.6607  0.1205
 3435TIP3   OH231863   5.214   5.330   6.980 -0.2548  0.1103 -0.2908
 3435TIP3    H131864   5.137   5.359   6.933 -1.1642 -0.9361  0.4990
 3435TIP3    H231865   5.285   5.333   6.915 -0.7154  2.0324 -0.7542
 3436TIP3   OH231866   6.713   5.528   7.013  0.0929 -0.2411  0.1442
 3436TIP3    H131867   6.635   5.559   6.966 -0.1991 -2.3537 -0.8956
 3436TIP3    H231868   6.682   5.511   7.102 -0.8749 -1.8005 -0.4521
 3437TIP3   OH231869   4.782   1.324   8.466 -0.0484  0.1464  0.1153
 3437TIP3    H131870   4.746   1.363   8.387 -0.2484 -0.7629 -0.2550
 3437TIP3    H231871   4.709   1.276   8.505  0.1256  0.3336  0.6947
 3438TIP3   OH231872   3.762   1.837   6.544  0.5508  0.0405  0.4298
 3438TIP3    H131873   3.837   1.786   6.573  0.0245 -1.4897 -0.7621
 3438TIP3    H231874   3.800   1.914   6.501  1.5002 -1.1964 -1.0468
 3439TIP3   OH231875   3.483   2.388   8.481  0.1439  0.0916  0.0045
 3439TIP3    H131876   3.562   2.409   8.531  0.2508  0.6196 -0.3799
 3439TIP3    H231877   3.515   2.339   8.405  0.1711  0.7659 -0.4327
 3440TIP3   OH231878   1.710   5.209   7.653 -0.2781  0.3189 -0.3598
 3440TIP3    H131879   1.657   5.134   7.679 -1.3881  1.0228 -0.4989
 3440TIP3    H231880   1.766   5.227   7.728  1.5127 -1.8890 -1.0595
 3441TIP3   OH231881   5.599   0.776   1.743  0.4693 -0.1149  0.3332
 3441TIP3    H131882   5.561   0.864   1.736  2.9554  0.9055 -2.2527
 3441TIP3    H231883   5.692   0.788   1.722  1.0157 -3.3002  0.4758
 3442TIP3   OH231884   5.950   2.804   0.153 -0.6314  0.2827 -0.1610
 3442TIP3    H131885   5.935   2.734   0.216  0.0015  1.3334  1.2052
 3442TIP3    H231886   5.863   2.839   0.134 -0.7348  0.7215  1.0576
 3443TIP3   OH231887   6.804   1.256   7.536 -0.1743  0.2503  0.1172
 3443TIP3    H131888   6.743   1.317   7.494  0.3123  1.7273  1.4182
 3443TIP3    H231889   6.859   1.312   7.591  0.8820 -1.2984  0.7164
 3444TIP3   OH231890   4.654   1.198   0.859 -0.3758 -0.4106 -0.9155
 3444TIP3    H131891   4.560   1.215   0.867 -0.4968 -1.6584  0.7274
 3444TIP3    H231892   4.695   1.263   0.916 -0.3994 -1.2341  0.0574
 3445TIP3   OH231893   3.074   3.111   1.485 -0.4086 -0.9685 -0.5577
 3445TIP3    H131894   3.075   3.068   1.570 -2.0927 -0.9047 -0.4664
 3445TIP3    H231895   3.061   3.204   1.505  0.4933 -0.7719 -0.8490
 3446TIP3   OH231896   3.211   1.045   1.924  0.2125 -0.3485 -0.3222
 3446TIP3    H131897   3.250   1.126   1.890 -2.5681  1.3464  0.1382
 3446TIP3    H231898   3.172   1.003   1.847 -2.1224  1.1139 -0.0255
 3447TIP3   OH231899   4.681   4.975   7.411 -0.0542 -0.5422 -0.0107
 3447TIP3    H131900   4.721   5.039   7.470 -1.0729 -0.0186  0.1254
 3447TIP3    H231901   4.740   4.971   7.336 -0.0810  0.7091 -0.1156
 3448TIP3   OH231902   4.607   5.932   7.034 -0.2377 -0.3649  0.4400
 3448TIP3    H131903   4.531   5.990   7.042 -0.1958 -0.5640  4.1409
 3448TIP3    H231904   4.667   5.979   6.976 -1.7809  1.4177  0.1820
 3449TIP3   OH231905   6.584   0.619   7.428  0.1140 -0.2183  0.5034
 3449TIP3    H131906   6.613   0.607   7.338  0.5750 -0.3962  0.6704
 3449TIP3    H231907   6.663   0.604   7.481  0.5089  2.5686  0.8177
 3450TIP3   OH231908   2.845   6.130   7.477  0.1953  0.0464  0.2989
 3450TIP3    H131909   2.919   6.071   7.464 -0.4905 -0.7785 -0.0029
 3450TIP3    H231910   2.807   6.140   7.389 -1.2388 -1.1787  0.7274
 3451TIP3   OH231911   0.109   4.446   7.937 -0.3038  0.4304 -0.1221
 3451TIP3    H131912   0.178   4.407   7.885 -0.4752 -0.0555  0.0057
 3451TIP3    H231913   0.120   4.407   8.024 -0.9987  0.0098 -0.2119
 3452TIP3   OH231914   4.388   3.229   8.326  0.2342 -0.3941 -0.2185
 3452TIP3    H131915   4.460   3.180   8.365 -0.5178 -0.5416  1.0337
 3452TIP3    H231916   4.329   3.249   8.399  0.0866  1.6396 -0.8157
 3453TIP3   OH231917   1.127   1.006   6.600  0.2639  0.1761  0.1225
 3453TIP3    H131918   1.114   1.066   6.673  0.4091 -0.4183  0.6402
 3453TIP3    H231919   1.047   1.015   6.548 -0.4509 -0.3849  1.0803
 3454TIP3   OH231920   0.619   2.977   8.436 -0.4669 -0.0047 -0.1356
 3454TIP3    H131921   0.694   2.962   8.494 -0.2264  0.2512 -0.3776
 3454TIP3    H231922   0.607   2.894   8.390  0.8528  0.4854 -1.4630
 3455TIP3   OH231923   1.765   1.993   0.720  0.5637 -0.3966 -0.6621
 3455TIP3    H131924   1.833   1.972   0.785  0.1966 -0.2451 -0.2221
 3455TIP3    H231925   1.716   2.065   0.759 -0.5259 -1.2101 -0.4703
 3456TIP3   OH231926   4.694   1.296   7.348  0.7411 -0.1912 -0.1986
 3456TIP3    H131927   4.651   1.281   7.264  0.7320 -0.5809 -0.1244
 3456TIP3    H231928   4.698   1.392   7.355  1.2457 -0.1495 -0.8986
 3457TIP3   OH231929   4.081   4.378   7.829  0.0254 -0.2503  0.3532
 3457TIP3    H131930   4.175   4.394   7.830  0.1462 -0.9669  0.5729
 3457TIP3    H231931   4.044   4.456   7.871  0.3506  0.9868 -1.5532
 3458TIP3   OH231932   0.919   4.627   8.306 -0.5254  0.1839  0.5254
 3458TIP3    H131933   0.965   4.549   8.339 -2.0087 -0.6327  0.7472
 3458TIP3    H231934   0.848   4.592   8.253 -0.3231  1.4368 -0.6203
 3459TIP3   OH231935   2.518   5.849   1.993  0.1067  0.1332  0.0120
 3459TIP3    H131936   2.483   5.912   1.930 -1.7316  0.3027  1.1228
 3459TIP3    H231937   2.455   5.850   2.065  1.2091 -1.3558  1.0558
 3460TIP3   OH231938   0.548   4.465   7.862 -0.1901 -0.5461  0.4872
 3460TIP3    H131939   0.468   4.415   7.845 -1.7257  0.6958  3.1883
 3460TIP3    H231940   0.526   4.517   7.940  3.0120  0.4865  0.8253
 3461TIP3   OH231941   0.366   6.222   1.584 -0.1258  0.3730 -0.4238
 3461TIP3    H131942   0.379   6.310   1.618  1.8170  0.6175 -1.6491
 3461TIP3    H231943   0.271   6.213   1.575 -0.5339  1.4000  1.9953
 3462TIP3   OH231944   2.153   1.071   6.552  0.1173  0.9384  1.0167
 3462TIP3    H131945   2.208   1.032   6.620 -1.0501 -1.2925  0.7586
 3462TIP3    H231946   2.093   1.001   6.526 -0.8360  2.3629 -0.8625
 3463TIP3   OH231947   5.638   1.026   0.650 -0.7763 -0.0341  0.0870
 3463TIP3    H131948   5.693   1.048   0.575  1.3578 -0.1589  1.5180
 3463TIP3    H231949   5.595   1.108   0.674  0.7521  0.7051  0.4254
 3464TIP3   OH231950   1.323   5.612   8.354 -0.6343  0.3052  0.1808
 3464TIP3    H131951   1.407   5.657   8.341 -0.5407 -0.4473 -2.3686
 3464TIP3    H231952   1.346   5.520   8.368 -1.0031  0.2360  0.3559
 3465TIP3   OH231953   4.418   2.678   7.750 -0.2477  0.3480 -0.3668
 3465TIP3    H131954   4.429   2.749   7.688 -0.0860  0.7329  0.1000
 3465TIP3    H231955   4.499   2.628   7.745 -0.2540  0.3497 -0.4915
 3466TIP3   OH231956   0.377   1.326   8.313 -0.2428  0.4986 -0.0048
 3466TIP3    H131957   0.339   1.354   8.230  0.0032 -0.5193 -0.4762
 3466TIP3    H231958   0.408   1.237   8.297 -0.3328  0.2256  1.2273
 3467TIP3   OH231959   4.331   4.231   2.010  0.2029  0.1867 -0.2569
 3467TIP3    H131960   4.335   4.161   2.076  1.5422  0.4618 -0.0220
 3467TIP3    H231961   4.381   4.303   2.048  1.2733  0.2414 -1.6722
 3468TIP3   OH231962   5.040   1.676   8.545  0.2036  0.1415  0.5483
 3468TIP3    H131963   5.039   1.591   8.501  0.9146  1.7947 -2.9246
 3468TIP3    H231964   5.104   1.728   8.497 -0.2169  2.7247  2.5387
 3469TIP3   OH231965   6.485   5.315   6.848 -0.0708 -0.0385  0.2869
 3469TIP3    H131966   6.445   5.313   6.761  0.7416 -2.3310 -0.0943
 3469TIP3    H231967   6.412   5.325   6.908 -0.9686 -1.5212 -0.5173
 3470TIP3   OH231968   3.422   2.265   0.736 -0.7850 -0.1494  0.2951
 3470TIP3    H131969   3.475   2.317   0.675 -0.3920 -0.4021  0.4121
 3470TIP3    H231970   3.332   2.281   0.710 -0.6096 -0.5130 -0.5724
 3471TIP3   OH231971   2.023   0.980   7.866  0.2687 -0.1292  0.0462
 3471TIP3    H131972   2.103   1.012   7.825  1.2605 -0.5895  1.5722
 3471TIP3    H231973   2.021   1.022   7.951 -0.5353 -0.9845  0.4687
 3472TIP3   OH231974   0.665   4.076   8.259 -0.3375  0.2021  0.7049
 3472TIP3    H131975   0.594   4.080   8.195  0.9558  0.0898 -0.7692
 3472TIP3    H231976   0.709   3.993   8.242 -0.1770  0.0001  1.9909
 3473TIP3   OH231977   5.862   6.696   8.560  0.1770 -0.0928 -0.0953
 3473TIP3    H131978   5.816   6.766   8.514 -0.4058  0.0628  0.6973
 3473TIP3    H231979   5.936   6.739   8.602 -0.8301  0.3081  1.3612
 3474TIP3   OH231980   4.224   3.323   0.963 -0.0622  0.2496 -0.8230
 3474TIP3    H131981   4.239   3.333   1.057 -1.1176 -0.9365 -0.4958
 3474TIP3    H231982   4.311   3.305   0.927  0.1786 -0.7074  0.1522
 3475TIP3   OH231983   4.331   1.190   8.594 -0.1590 -0.7073  0.4500
 3475TIP3    H131984   4.421   1.160   8.587  0.5796  1.0402  1.5578
 3475TIP3    H231985   4.282   1.115   8.626  0.9298 -1.6339 -0.0166
 3476TIP3   OH231986   0.405   2.810   7.152 -0.4759 -0.5484  0.4303
 3476TIP3    H131987   0.318   2.837   7.124 -1.5396 -0.6079  3.3450
 3476TIP3    H231988   0.391   2.730   7.203  1.2760 -0.6174  0.8924
 3477TIP3   OH231989   4.663   2.509   1.505  0.5148 -0.2883 -0.5231
 3477TIP3    H131990   4.672   2.589   1.453 -1.9025 -0.3518 -1.1241
 3477TIP3    H231991   4.575   2.478   1.488 -0.3677 -0.4798  3.3785
 3478TIP3   OH231992   6.822   4.610   1.050  0.4400  1.0161  0.4655
 3478TIP3    H131993   6.735   4.635   1.081  0.1061  0.2730  0.1480
 3478TIP3    H231994   6.854   4.547   1.115  0.0103 -0.0438 -0.3356
 3479TIP3   OH231995   5.290   4.490   7.383 -1.0178 -0.5944 -0.1701
 3479TIP3    H131996   5.298   4.540   7.302 -0.1882 -0.8607 -0.2645
 3479TIP3    H231997   5.347   4.536   7.445 -0.8581 -0.9710 -0.0351
 3480TIP3   OH231998   6.584   2.118   8.236 -0.4643 -0.0912 -1.1292
 3480TIP3    H131999   6.607   2.040   8.286 -1.0577 -0.3782 -1.2926
 3480TIP3    H232000   6.654   2.180   8.255 -1.2280  0.2018  0.9137
 3481TIP3   OH232001   4.059   3.029   0.582 -0.6478 -0.1524  0.2708
 3481TIP3    H132002   4.057   2.946   0.534 -0.9996  1.3208 -2.4817
 3481TIP3    H232003   3.978   3.029   0.633 -1.4216 -0.8481 -0.9062
 3482TIP3   OH232004   4.550   4.894   0.468  0.4188 -0.8607 -0.2809
 3482TIP3    H132005   4.558   4.807   0.429  1.4786 -1.1678  0.5778
 3482TIP3    H232006   4.492   4.880   0.544  0.2607 -0.7382 -0.3797
 3483TIP3   OH232007   0.990   1.360   0.889  0.9953  0.0533 -0.1643
 3483TIP3    H132008   1.033   1.412   0.956  1.2392  0.1274 -0.3740
 3483TIP3    H232009   0.904   1.399   0.879  0.5939 -0.5466  0.7847
 3484TIP3   OH232010   2.584   5.633   8.050 -0.5707  0.6293  0.4196
 3484TIP3    H132011   2.513   5.697   8.060 -1.0221 -0.0518  1.7117
 3484TIP3    H232012   2.663   5.683   8.071 -0.9554  0.7170  1.8060
 3485TIP3   OH232013   3.189   2.240   7.601  0.1942 -0.5088  0.2883
 3485TIP3    H132014   3.256   2.218   7.665  0.8983  0.9230  0.0933
 3485TIP3    H232015   3.223   2.207   7.518  0.6059  0.0887  0.2135
 3486TIP3   OH232016   4.283   5.476   0.764 -0.0172  0.3347  0.1527
 3486TIP3    H132017   4.278   5.550   0.704  3.7082  0.2923 -0.4341
 3486TIP3    H232018   4.291   5.516   0.851 -1.2123  0.4906  0.2059
 3487TIP3   OH232019   1.248   3.497   1.888 -0.4998 -0.0992  0.1928
 3487TIP3    H132020   1.334   3.483   1.928 -0.3369 -2.7591 -0.8946
 3487TIP3    H232021   1.188   3.445   1.942 -0.9490 -0.4125 -0.5884
 3488TIP3   OH232022   6.653   5.453   7.276  0.2365 -0.6137 -0.4203
 3488TIP3    H132023   6.566   5.486   7.298 -0.9259 -3.3059 -0.5809
 3488TIP3    H232024   6.697   5.442   7.361 -0.4192 -1.2541 -0.1497
 3489TIP3   OH232025   6.101   6.671   8.315  0.2867  0.7142 -0.9854
 3489TIP3    H132026   6.098   6.626   8.399 -1.3626  0.8161 -0.9455
 3489TIP3    H232027   6.174   6.631   8.268  0.3651 -0.2972 -0.0337
 3490TIP3   OH232028   4.486   2.229   7.640 -0.2037  1.0557  0.0088
 3490TIP3    H132029   4.449   2.142   7.626  1.4995  0.2096  0.5428
 3490TIP3    H232030   4.444   2.283   7.574 -1.6161 -0.0661 -0.0562
 3491TIP3   OH232031   4.743   1.401   2.586  0.3087  0.2593  0.0210
 3491TIP3    H132032   4.672   1.463   2.572 -1.6416 -1.8107  0.0621
 3491TIP3    H232033   4.761   1.364   2.499 -0.1810 -0.7155  0.3122
 3492TIP3   OH232034   2.840   6.593   7.792 -0.5214 -0.1522  0.3518
 3492TIP3    H132035   2.823   6.635   7.876 -0.4233  1.8029 -0.5469
 3492TIP3    H232036   2.892   6.657   7.743 -3.0499  0.0940 -2.2861
 3493TIP3   OH232037   1.495   2.760   1.745 -0.3404 -0.2753  0.2753
 3493TIP3    H132038   1.572   2.722   1.701 -0.4421  1.3296 -1.4180
 3493TIP3    H232039   1.521   2.768   1.836  0.9902 -1.0163 -0.0081
 3494TIP3   OH232040   3.881   3.242   0.717  0.5900  0.4272 -0.4890
 3494TIP3    H132041   3.964   3.220   0.760  0.8055 -0.4513 -1.3135
 3494TIP3    H232042   3.830   3.161   0.721 -0.0385  0.8177 -0.4300
 3495TIP3   OH232043   1.857   2.165   1.344 -0.2451  0.2175 -0.1885
 3495TIP3    H132044   1.857   2.213   1.427 -0.9009 -1.0615  0.5862
 3495TIP3    H232045   1.797   2.092   1.359 -1.4888  0.7399 -2.2704
 3496TIP3   OH232046   5.525   2.948   0.607  0.4410  0.0079  0.4994
 3496TIP3    H132047   5.482   2.894   0.673 -0.6075 -3.6800 -2.7734
 3496TIP3    H232048   5.456   3.006   0.574  0.7006  1.1090  1.8143
 3497TIP3   OH232049   4.644   4.584   2.465  0.0107  0.3788  0.3861
 3497TIP3    H132050   4.610   4.526   2.533 -0.7242  1.7881  1.2559
 3497TIP3    H232051   4.567   4.607   2.413  0.3070  0.5070  0.0019
 3498TIP3   OH232052   0.280   4.645   8.379  0.4511  0.0890 -0.4611
 3498TIP3    H132053   0.231   4.724   8.357  1.5964  0.5982 -1.2624
 3498TIP3    H232054   0.220   4.573   8.360 -0.4468  0.7316 -0.1440
 3499TIP3   OH232055   2.522   3.334   6.976  0.8276 -0.2114  0.2739
 3499TIP3    H132056   2.428   3.341   6.961  1.0534  0.6696 -0.8783
 3499TIP3    H232057   2.555   3.423   6.963  1.6367 -0.1699  2.2113
 3500TIP3   OH232058   0.763   6.822   7.560 -0.5054 -0.4963  0.2340
 3500TIP3    H132059   0.828   6.845   7.627 -0.0405 -1.3570  0.0922
 3500TIP3    H232060   0.682   6.863   7.590  0.3729  1.7799 -0.2888
 3501TIP3   OH232061   0.425   2.608   0.482 -0.6245 -0.5435  0.6165
 3501TIP3    H132062   0.364   2.569   0.419  0.1536  1.0031 -1.1992
 3501TIP3    H232063   0.511   2.599   0.440  0.2339 -1.3078  2.4389
 3502TIP3   OH232064   4.768   5.846   0.076 -0.2082  0.8783  0.2389
 3502TIP3    H132065   4.819   5.921   0.105 -0.0394  1.1761 -0.8129
 3502TIP3    H232066   4.788   5.836  -0.017 -1.4014  0.4789 -0.0041
 3503TIP3   OH232067   3.170   1.613   7.582 -0.5602 -0.4841  0.7727
 3503TIP3    H132068   3.193   1.652   7.666 -2.5481  0.3019  1.0084
 3503TIP3    H232069   3.170   1.687   7.521 -0.2934 -0.8525  0.3172
 3504TIP3   OH232070   0.422   3.511   7.497 -0.2155  0.2834 -0.0751
 3504TIP3    H132071   0.377   3.492   7.579  2.8362  0.7088  1.8245
 3504TIP3    H232072   0.361   3.568   7.450 -1.5258  1.1684  2.4783
 3505TIP3   OH232073   6.640   2.506   8.273 -0.3895  0.1308 -0.8757
 3505TIP3    H132074   6.617   2.485   8.183 -2.1641 -2.5665  0.0602
 3505TIP3    H232075   6.577   2.573   8.300 -0.2623  0.4773 -1.4348
 3506TIP3   OH232076   3.091   6.630   1.688  0.3769  0.1255  0.5114
 3506TIP3    H132077   3.085   6.588   1.602  0.4121  1.7265 -0.3205
 3506TIP3    H232078   3.104   6.558   1.749 -3.0630 -1.4396 -0.3678
 3507TIP3   OH232079   1.903   6.452   1.249  0.3331 -0.3821 -0.1490
 3507TIP3    H132080   1.862   6.535   1.270  2.1156  0.2976  0.8002
 3507TIP3    H232081   1.845   6.412   1.184 -1.3220  0.9047  0.4899
 3508TIP3   OH232082   2.099   0.134   0.790  1.0871 -0.3206 -0.3140
 3508TIP3    H132083   2.097   0.095   0.702 -0.4688 -2.0632  0.4062
 3508TIP3    H232084   2.111   0.228   0.774  1.4630 -0.6518 -2.3459
 3509TIP3   OH232085   3.214   4.540   0.433  0.0116  0.1906 -0.1516
 3509TIP3    H132086   3.241   4.494   0.512 -1.5130 -2.3143 -0.9476
 3509TIP3    H232087   3.264   4.498   0.363 -0.5923  0.4964 -0.7791
 3510TIP3   OH232088   3.676   5.994   6.063  0.3172 -0.1190 -0.3588
 3510TIP3    H132089   3.620   6.068   6.041  2.7301  1.3287 -2.2161
 3510TIP3    H232090   3.632   5.918   6.026 -0.8800  0.8098 -0.9019
 3511TIP3   OH232091   0.079   6.862   0.748 -0.1523  0.4457 -0.2312
 3511TIP3    H132092   0.102   6.778   0.786  1.0687  0.4942 -0.8126
 3511TIP3    H232093   0.105   6.927   0.814  1.4830  0.5008 -0.8868
 3512TIP3   OH232094   5.550   6.780   7.438 -0.6149 -0.4693  0.1129
 3512TIP3    H132095   5.570   6.711   7.501 -1.2863 -0.2406  0.5893
 3512TIP3    H232096   5.602   6.854   7.466 -1.3395 -0.1882  0.7550
 3513TIP3   OH232097   6.861   5.169   7.716  0.1781  0.3037  0.0146
 3513TIP3    H132098   6.848   5.259   7.748  0.6245  1.2322 -2.2078
 3513TIP3    H232099   6.919   5.130   7.781 -2.0796  0.6901  2.4460
 3514TIP3   OH232100   2.558   5.562   7.647  0.4181  0.4039 -0.0206
 3514TIP3    H132101   2.526   5.473   7.637  2.3177 -0.1151 -2.4610
 3514TIP3    H232102   2.480   5.617   7.636 -0.4067 -0.8814 -0.8029
 3515TIP3   OH232103   4.842   6.394   7.655 -0.6636  0.1672  0.2372
 3515TIP3    H132104   4.801   6.457   7.713 -1.1890  0.3398 -0.3045
 3515TIP3    H232105   4.934   6.391   7.683  0.2025  3.5296 -1.6642
 3516TIP3   OH232106   4.027   4.255   2.001 -0.5207  0.0822  0.6551
 3516TIP3    H132107   4.069   4.284   2.082 -0.1570 -0.7731  0.7808
 3516TIP3    H232108   3.966   4.187   2.029 -0.1865 -0.4194  0.1835
 3517TIP3   OH232109   2.633   2.886   7.774 -0.2906 -0.1442  0.1237
 3517TIP3    H132110   2.580   2.842   7.840 -0.1600  0.7275  0.8260
 3517TIP3    H232111   2.572   2.944   7.728  0.0432  0.9748  1.0337
 3518TIP3   OH232112   0.971   5.414   1.973  0.1610 -0.3138  0.0508
 3518TIP3    H132113   0.878   5.406   1.993 -0.1826  2.2818 -0.1422
 3518TIP3    H232114   0.984   5.362   1.893 -1.4415  0.3855 -0.6985
 3519TIP3   OH232115   3.679   5.077   1.317 -0.2706  0.6634 -0.3211
 3519TIP3    H132116   3.643   4.994   1.350  0.5641 -0.3039 -1.7075
 3519TIP3    H232117   3.733   5.110   1.389 -0.7677  0.1078  0.3255
 3520TIP3   OH232118   5.544   4.204   7.850 -0.2196 -0.3211  0.1348
 3520TIP3    H132119   5.637   4.189   7.861 -0.0742 -0.4581 -1.2100
 3520TIP3    H232120   5.511   4.126   7.807 -0.7082  0.2950 -0.6368
 3521TIP3   OH232121   4.592   0.180   6.917 -0.2377 -0.0923 -0.0842
 3521TIP3    H132122   4.608   0.095   6.959 -0.0854 -0.0739 -0.1029
 3521TIP3    H232123   4.652   0.240   6.962 -0.9144  0.1785  0.4917
 3522TIP3   OH232124   1.059   4.232   1.754 -0.2008 -0.2005 -0.3685
 3522TIP3    H132125   1.069   4.137   1.753  0.4227 -0.1907  1.3916
 3522TIP3    H232126   0.987   4.248   1.815 -0.2061  0.4564 -0.5418
 3523TIP3   OH232127   1.287   2.458   6.569  0.5127  0.1230  0.6963
 3523TIP3    H132128   1.201   2.422   6.589  0.8479 -0.0862  1.8140
 3523TIP3    H232129   1.290   2.541   6.617  1.1075 -0.1019  1.0637
 3524TIP3   OH232130   3.209   4.816   8.041  0.0012 -0.4904 -0.5495
 3524TIP3    H132131   3.289   4.853   8.079  0.1201  0.1001 -1.3603
 3524TIP3    H232132   3.197   4.863   7.959 -1.4146 -0.2868 -0.2487
 3525TIP3   OH232133   5.483   3.894   8.293  0.0815 -0.5176  0.4044
 3525TIP3    H132134   5.535   3.973   8.302 -1.6473  0.6670  0.4930
 3525TIP3    H232135   5.478   3.878   8.199  0.2626 -0.4031  0.3761
 3526TIP3   OH232136   2.572   6.852   1.684  0.1153  0.1530 -0.2892
 3526TIP3    H132137   2.641   6.914   1.708 -0.0928 -0.3225  1.6977
 3526TIP3    H232138   2.613   6.766   1.692 -0.0791 -0.0603 -1.3829
 3527TIP3   OH232139   6.780   0.531   1.985  0.5059 -0.3312 -0.9225
 3527TIP3    H132140   6.785   0.474   1.908  0.1631 -1.1341 -0.3676
 3527TIP3    H232141   6.739   0.476   2.052  2.7048 -0.3868  0.4817
 3528TIP3   OH232142   0.923   2.297   0.944  0.2584  0.5408  0.0568
 3528TIP3    H132143   0.833   2.323   0.921  0.3788  0.5921 -0.3611
 3528TIP3    H232144   0.949   2.237   0.874  0.3795  0.1481  0.4366
 3529TIP3   OH232145   2.266   1.645   1.255 -0.5209 -0.0874 -0.6224
 3529TIP3    H132146   2.318   1.603   1.187  3.1663  1.0320  1.2570
 3529TIP3    H232147   2.242   1.730   1.219 -0.0090 -0.1400 -1.0977
 3530TIP3   OH232148   4.795   1.770   0.256  0.2209 -0.7532  0.0186
 3530TIP3    H132149   4.791   1.778   0.351 -1.4006 -1.5675  0.0427
 3530TIP3    H232150   4.828   1.855   0.226  0.0148 -0.2236  1.2510
 3531TIP3   OH232151   3.002   6.435   0.909 -0.0181 -0.7904  0.0161
 3531TIP3    H132152   3.064   6.503   0.933 -1.1983 -0.2028  1.6011
 3531TIP3    H232153   2.944   6.476   0.845 -0.6116 -0.3216  0.8285
 3532TIP3   OH232154   5.535   4.558   0.661  0.6974 -0.6858  0.1163
 3532TIP3    H132155   5.603   4.616   0.625  0.3294 -0.5408 -0.3416
 3532TIP3    H232156   5.556   4.553   0.754  0.7846  0.1168  0.1444
 3533TIP3   OH232157   1.768   1.621   6.552 -0.2903  0.1313 -0.2087
 3533TIP3    H132158   1.699   1.652   6.493  0.4737  0.3473 -1.0114
 3533TIP3    H232159   1.811   1.550   6.504 -1.1461 -1.2962  1.0600
 3534TIP3   OH232160   4.636   3.553   0.400  0.4649 -1.0166  0.0230
 3534TIP3    H132161   4.687   3.474   0.416  0.3788 -0.5976  2.8311
 3534TIP3    H232162   4.545   3.524   0.401  0.4817 -1.2083 -1.4320
 3535TIP3   OH232163   5.237   1.805   8.374 -0.4331 -0.0536  0.1071
 3535TIP3    H132164   5.282   1.754   8.307 -0.8173  0.7878 -0.8190
 3535TIP3    H232165   5.168   1.852   8.327  0.0602  1.5039  0.8644
 3536TIP3   OH232166   5.780   3.140   0.406  0.1063 -0.0160  1.1660
 3536TIP3    H132167   5.746   3.065   0.358 -1.4158  1.2075  0.2227
 3536TIP3    H232168   5.804   3.203   0.338  3.0482 -0.2407  1.8497
 3537TIP3   OH232169   5.594   2.420   6.915  0.3855  0.5822 -0.1060
 3537TIP3    H132170   5.646   2.466   6.849  1.2398  0.8944  0.7702
 3537TIP3    H232171   5.619   2.328   6.905 -0.0720  0.5168 -0.7283
 3538TIP3   OH232172   4.610   3.013   0.849  0.4276  0.0387  0.5047
 3538TIP3    H132173   4.700   3.043   0.860  0.3835  0.0705  0.7907
 3538TIP3    H232174   4.556   3.090   0.869  0.2844 -0.4523  2.1525
 3539TIP3   OH232175   5.528   5.909   1.897  0.2645 -0.3725 -0.4234
 3539TIP3    H132176   5.525   5.880   1.988  2.4097  0.7308  0.0560
 3539TIP3    H232177   5.581   5.842   1.852  1.5977  0.4965 -0.2144
 3540TIP3   OH232178   5.931   2.192   1.430 -0.0922  0.4087  0.0028
 3540TIP3    H132179   5.951   2.179   1.338  1.1483  1.1316  0.1407
 3540TIP3    H232180   5.986   2.129   1.476  1.8493  2.2599  0.3824
 3541TIP3   OH232181   1.414   0.344   7.144 -0.0049  0.0936 -0.3412
 3541TIP3    H132182   1.324   0.343   7.111  0.2819  0.2616 -1.1538
 3541TIP3    H232183   1.405   0.328   7.238 -0.8818  0.1019 -0.4118
 3542TIP3   OH232184   6.742   4.212   1.202  0.6654 -0.1220 -0.7014
 3542TIP3    H132185   6.810   4.145   1.200  1.8187  1.0397 -1.8368
 3542TIP3    H232186   6.786   4.290   1.235 -0.6246  0.1593  0.4482
 3543TIP3   OH232187   0.564   0.676   7.160 -0.1258 -0.1525  0.0922
 3543TIP3    H132188   0.558   0.581   7.161  2.4082 -0.3864 -0.4302
 3543TIP3    H232189   0.518   0.702   7.080 -1.7728 -0.7862  0.7812
 3544TIP3   OH232190   4.080   2.048   1.495  0.1022 -0.1325  0.6748
 3544TIP3    H132191   4.126   2.054   1.411  0.6963 -0.8612  0.9426
 3544TIP3    H232192   4.117   1.971   1.537 -0.5027 -0.0192  1.4266
 3545TIP3   OH232193   3.302   5.753   8.326 -0.2454 -0.6403  0.3061
 3545TIP3    H132194   3.350   5.670   8.334 -1.4589 -1.4371 -0.3203
 3545TIP3    H232195   3.353   5.815   8.377  2.3394 -1.0283 -1.6167
 3546TIP3   OH232196   3.520   6.427   7.095 -0.7000  0.1513 -0.3120
 3546TIP3    H132197   3.491   6.462   7.011 -1.9927 -0.8019 -0.2808
 3546TIP3    H232198   3.507   6.333   7.087  0.7459 -0.1373  0.3694
 3547TIP3   OH232199   3.692   0.571   0.061 -0.0248 -0.3494 -0.1178
 3547TIP3    H132200   3.757   0.620   0.011  0.2354 -0.3798  0.1843
 3547TIP3    H232201   3.716   0.479   0.050  0.9726 -0.2928  1.3026
 3548TIP3   OH232202   5.434   6.425   1.187  0.3291 -0.0709  0.1828
 3548TIP3    H132203   5.352   6.409   1.139  0.2843  1.3670 -0.2649
 3548TIP3    H232204   5.457   6.340   1.224 -1.7826 -0.3670  0.9690
 3549TIP3   OH232205   0.054   4.879   2.125 -0.6089  0.3912  1.3250
 3549TIP3    H132206   0.057   4.823   2.203 -1.5023 -0.8566  0.5056
 3549TIP3    H232207  -0.038   4.878   2.099 -0.0028 -1.1671 -1.0797
 3550TIP3   OH232208   3.239   2.075   8.558  0.0571 -0.5475  0.2276
 3550TIP3    H132209   3.187   1.999   8.584  1.1407 -1.0451  1.0139
 3550TIP3    H232210   3.328   2.042   8.552  0.3457  0.3655 -0.7801
 3551TIP3   OH232211   0.830   2.475   8.107  0.0432  0.0337  0.0513
 3551TIP3    H132212   0.749   2.478   8.055 -0.5252  0.0617  0.9093
 3551TIP3    H232213   0.821   2.547   8.169  0.9070  0.2667 -0.0832
 3552TIP3   OH232214   1.496   5.529   6.864 -0.2072  0.6207 -0.3091
 3552TIP3    H132215   1.463   5.596   6.923 -1.0328  0.5748 -0.7078
 3552TIP3    H232216   1.592   5.538   6.869 -0.2910  1.3728  0.1485
 3553TIP3   OH232217   6.436   5.391   7.569  0.0135 -0.0099 -0.4257
 3553TIP3    H132218   6.528   5.389   7.543  0.2500 -0.3901  0.4061
 3553TIP3    H232219   6.430   5.329   7.642 -1.0107 -0.3862 -0.8105
 3554TIP3   OH232220   5.660   2.724   0.201 -0.5757 -0.0380  0.2514
 3554TIP3    H132221   5.635   2.712   0.293 -1.4406 -3.2883 -0.2619
 3554TIP3    H232222   5.710   2.645   0.180 -0.5852  0.5136 -2.1091
 3555TIP3   OH232223   1.152   2.979   1.706 -0.1811  0.2112  0.5533
 3555TIP3    H132224   1.142   2.894   1.749 -0.4526 -0.9297 -1.6374
 3555TIP3    H232225   1.088   3.035   1.749 -1.4955 -1.3004  0.6617
 3556TIP3   OH232226   2.908   4.547   6.680  1.0686  0.0864 -0.5817
 3556TIP3    H132227   2.831   4.511   6.724  0.9980  1.0239  0.1042
 3556TIP3    H232228   2.873   4.615   6.623  1.4144  0.8463  0.0911
 3557TIP3   OH232229   5.594   3.073   6.457  0.1621  0.2471  0.0329
 3557TIP3    H132230   5.650   2.999   6.436  0.8108  0.0143  2.2658
 3557TIP3    H232231   5.549   3.094   6.376  1.1045 -1.6096 -1.0212
 3558TIP3   OH232232   5.818   0.023   0.628  0.0134 -0.7595  0.1394
 3558TIP3    H132233   5.846  -0.028   0.552  0.9719 -0.5800  0.3678
 3558TIP3    H232234   5.836   0.114   0.605  0.5246 -0.7214  0.6706
 3559TIP3   OH232235   1.422   1.682   0.284  0.2368 -0.6396  0.0303
 3559TIP3    H132236   1.448   1.640   0.202  0.5818 -2.2019  0.8884
 3559TIP3    H232237   1.501   1.725   0.315  0.4195 -1.0231  0.1022
 3560TIP3   OH232238   0.062   3.584   0.319  0.0698  0.3963  0.0879
 3560TIP3    H132239   0.025   3.540   0.396 -0.6601  0.5893 -0.1465
 3560TIP3    H232240   0.133   3.526   0.291 -0.9105 -0.6799 -0.2479
 3561TIP3   OH232241   2.352   4.812   0.227  0.1020  0.6659 -0.2852
 3561TIP3    H132242   2.282   4.771   0.176 -2.0649  0.8311  2.2826
 3561TIP3    H232243   2.427   4.816   0.168 -1.6035 -0.9037 -2.7277
 3562TIP3   OH232244   4.338   5.177   2.187  0.2809 -0.1851  0.2957
 3562TIP3    H132245   4.300   5.166   2.099  1.6677 -0.3360 -0.3050
 3562TIP3    H232246   4.262   5.182   2.245 -0.7172  1.1459 -1.0378
 3563TIP3   OH232247   6.515   4.315   1.584 -0.1229  0.0111  0.1160
 3563TIP3    H132248   6.428   4.340   1.552 -0.5434  0.6370  1.6482
 3563TIP3    H232249   6.527   4.367   1.664  1.3988 -0.5363  0.2776
 3564TIP3   OH232250   3.704   0.809   8.043  0.4897  0.6363 -0.8876
 3564TIP3    H132251   3.685   0.749   7.971  1.1267  0.9469 -1.3270
 3564TIP3    H232252   3.719   0.893   8.000  1.7763  0.6327 -0.4907
 3565TIP3   OH232253   6.803   1.403   1.043  0.1331  0.3142 -0.1325
 3565TIP3    H132254   6.719   1.420   1.087 -0.4322  1.3086 -1.5232
 3565TIP3    H232255   6.799   1.456   0.964  1.7900 -0.2036 -0.5901
 3566TIP3   OH232256   5.231   1.141   7.335 -0.3093  0.0456 -0.1510
 3566TIP3    H132257   5.141   1.109   7.327 -0.6073  1.1406 -1.5367
 3566TIP3    H232258   5.276   1.073   7.385 -2.0712 -0.1601  1.2521
 3567TIP3   OH232259   5.885   0.769   0.222 -0.3070 -0.5265  0.1342
 3567TIP3    H132260   5.939   0.778   0.301  1.1442  1.2317 -0.9629
 3567TIP3    H232261   5.905   0.682   0.190  2.3128  0.1861 -0.4353
 3568TIP3   OH232262   6.083   0.051   8.209  0.2187  0.2205  0.0755
 3568TIP3    H132263   6.065  -0.030   8.257  0.3947  0.1765  0.0664
 3568TIP3    H232264   6.144   0.025   8.140 -0.7677  0.0901 -0.7712
 3569TIP3   OH232265   4.717   0.977   8.356 -0.3592 -0.0276  0.0014
 3569TIP3    H132266   4.658   0.983   8.281  0.9067  1.2538 -0.9571
 3569TIP3    H232267   4.726   0.883   8.373  0.8392 -0.4982 -2.7499
 3570TIP3   OH232268   5.749   1.036   6.474 -0.2341  0.4434  0.0353
 3570TIP3    H132269   5.690   0.978   6.523  0.8228 -1.1951 -0.5437
 3570TIP3    H232270   5.696   1.067   6.400 -1.8708  2.9883  2.0868
 3571TIP3   OH232271   0.405   1.114   8.157  0.1891  0.7437 -0.4223
 3571TIP3    H132272   0.460   1.148   8.086 -0.1759  1.5176 -0.3355
 3571TIP3    H232273   0.341   1.058   8.113  2.1397 -1.7310 -0.3852
 3572TIP3   OH232274   6.672   2.129   7.033 -0.0320  0.4173 -0.6838
 3572TIP3    H132275   6.701   2.038   7.042 -0.6906  0.1667 -0.9796
 3572TIP3    H232276   6.707   2.156   6.948  0.0779  0.4032 -0.6430
 3573TIP3   OH232277   6.271   2.609   0.710  0.5178  0.2311 -0.2051
 3573TIP3    H132278   6.215   2.685   0.693  0.4782  0.2485  0.0048
 3573TIP3    H232279   6.315   2.629   0.792  0.5534  0.0522 -0.1797
 3574TIP3   OH232280   1.364   4.964   1.294  0.0462  0.2014  0.1113
 3574TIP3    H132281   1.392   4.989   1.206 -0.5038 -0.6497 -0.3240
 3574TIP3    H232282   1.275   4.933   1.282  0.1153 -0.3125  0.9019
 3575TIP3   OH232283   5.337   1.759   1.630  0.0509 -0.4537 -0.1126
 3575TIP3    H132284   5.422   1.792   1.658 -0.0398 -0.6896  0.4418
 3575TIP3    H232285   5.337   1.769   1.535  1.2831 -1.8240 -0.2900
 3576TIP3   OH232286   1.755   0.908   8.252  0.0886 -0.5350  0.6483
 3576TIP3    H132287   1.741   0.888   8.159 -0.1293 -0.0753  0.5773
 3576TIP3    H232288   1.778   0.824   8.292  1.8871 -0.4625 -0.1443
 3577TIP3   OH232289   3.029   5.164   7.846  0.8266 -0.2410  0.3935
 3577TIP3    H132290   3.114   5.206   7.831  0.6401  0.1750  0.4869
 3577TIP3    H232291   3.030   5.139   7.938  1.2555 -1.1752  0.1516
 3578TIP3   OH232292   4.699   6.473   2.633 -0.3789 -0.0144  0.6592
 3578TIP3    H132293   4.676   6.558   2.596 -0.3341 -0.1585  0.2945
 3578TIP3    H232294   4.695   6.413   2.559 -1.2994 -0.5014  1.0945
 3579TIP3   OH232295   0.726   5.024   1.753  0.2360 -0.1380 -0.1893
 3579TIP3    H132296   0.738   5.115   1.727  0.3892 -0.2474 -0.5057
 3579TIP3    H232297   0.637   5.002   1.727  0.3838 -0.2427 -0.6108
 3580TIP3   OH232298   5.551   6.213   0.205 -0.4585  0.2749  0.5713
 3580TIP3    H132299   5.555   6.276   0.133 -1.0489 -0.9260 -0.5383
 3580TIP3    H232300   5.507   6.137   0.169  1.5360 -1.3805  1.4426
 3581TIP3   OH232301   5.249   1.400   8.635  0.0442  0.2223  0.3233
 3581TIP3    H132302   5.198   1.401   8.554  0.5372 -0.4033 -0.0006
 3581TIP3    H232303   5.184   1.387   8.704 -0.4801  1.5714  0.1202
 3582TIP3   OH232304   0.334   2.341   8.538 -0.1049  0.5535 -0.3206
 3582TIP3    H132305   0.361   2.412   8.481 -0.6889  0.0627 -1.2303
 3582TIP3    H232306   0.309   2.270   8.478 -1.8180  0.4178  0.4873
 3583TIP3   OH232307   5.372   5.534   7.154 -0.1944  0.5292 -0.0239
 3583TIP3    H132308   5.314   5.462   7.127  0.0321  0.0442  0.7638
 3583TIP3    H232309   5.428   5.548   7.078 -1.4446  1.1417 -0.8796
 3584TIP3   OH232310   4.633   1.201   6.730 -0.4854  0.1552 -0.4236
 3584TIP3    H132311   4.695   1.175   6.661 -1.3495 -1.6357 -0.5973
 3584TIP3    H232312   4.603   1.287   6.703 -0.3802 -0.2614 -2.0204
 3585TIP3   OH232313   5.915   0.277   6.603 -0.1322  0.2665 -0.2023
 3585TIP3    H132314   5.941   0.216   6.534  1.6365  0.7482 -0.0032
 3585TIP3    H232315   5.934   0.364   6.567 -1.1086  0.6354  0.1352
 3586TIP3   OH232316   3.680   2.129   0.081 -0.1270 -0.1408 -0.2162
 3586TIP3    H132317   3.588   2.138   0.108  0.5354  0.6123  2.0913
 3586TIP3    H232318   3.703   2.215   0.047 -0.3554 -0.4249 -1.0968
 3587TIP3   OH232319   5.138   4.534   1.342  0.2229  0.1006 -0.2500
 3587TIP3    H132320   5.065   4.495   1.294  2.2390 -2.0958 -1.8260
 3587TIP3    H232321   5.176   4.596   1.280  0.6201  0.0477 -0.0627
 3588TIP3   OH232322   4.085   0.045   7.292 -0.5093  0.0732  0.5415
 3588TIP3    H132323   4.013   0.108   7.294  1.8003  3.1602 -1.8817
 3588TIP3    H232324   4.131   0.058   7.375  0.9991  3.2341 -0.6330
 3589TIP3   OH232325   5.995   1.569   7.525  0.0399  0.4256 -1.3372
 3589TIP3    H132326   6.033   1.611   7.447 -1.1114  1.9200 -1.1207
 3589TIP3    H232327   5.969   1.642   7.582 -0.1321 -0.6284 -0.0168
 3590TIP3   OH232328   3.887   3.949   7.581  0.5646  0.0778 -0.1756
 3590TIP3    H132329   3.956   4.012   7.560  1.3186 -0.8814 -0.6602
 3590TIP3    H232330   3.915   3.868   7.539 -0.7436 -0.4028 -0.1692
 3591TIP3   OH232331   0.965   3.614   7.136 -0.3813 -0.0711  0.0341
 3591TIP3    H132332   1.033   3.677   7.114 -1.5956  1.6121  0.8608
 3591TIP3    H232333   0.919   3.598   7.053  0.0715 -0.0462 -0.2243
 3592TIP3   OH232334   4.525   1.410   6.619  0.4445 -0.0366 -0.1480
 3592TIP3    H132335   4.485   1.360   6.548  0.4601 -0.4806  0.1470
 3592TIP3    H232336   4.543   1.496   6.582 -0.5524  0.0874 -0.3606
 3593TIP3   OH232337   3.495   0.741   7.410  0.5010 -0.5207 -0.2337
 3593TIP3    H132338   3.549   0.816   7.384 -0.4148 -0.2501 -1.4423
 3593TIP3    H232339   3.558   0.676   7.442  1.3138  0.7262  0.7984
 3594TIP3   OH232340   1.564   5.086   0.508  0.2779 -0.2724 -0.0742
 3594TIP3    H132341   1.543   4.999   0.541 -0.7349  0.0720  0.2336
 3594TIP3    H232342   1.543   5.082   0.414 -0.1775 -0.2325  0.0262
 3595TIP3   OH232343   1.511   2.189   0.525  0.0925  0.1415  0.0468
 3595TIP3    H132344   1.470   2.275   0.527  0.8906  0.5726 -1.1604
 3595TIP3    H232345   1.438   2.127   0.521 -0.4756  0.7759  0.4545
 3596TIP3   OH232346   2.860   2.674   6.789 -0.0506 -0.6740  0.0917
 3596TIP3    H132347   2.810   2.703   6.713 -1.2507 -1.1856  0.6678
 3596TIP3    H232348   2.928   2.618   6.752  0.0076 -0.1194 -0.6864
 3597TIP3   OH232349   5.390   5.069   7.735  0.9544  0.1094 -0.0078
 3597TIP3    H132350   5.434   5.119   7.667  0.4356  1.1808  0.4140
 3597TIP3    H232351   5.314   5.122   7.759  1.2787 -0.0758  1.5997
 3598TIP3   OH232352   6.864   2.133   6.412 -0.1027  0.4237  0.2041
 3598TIP3    H132353   6.853   2.227   6.398  0.6769  0.4729 -0.1648
 3598TIP3    H232354   6.930   2.126   6.482  1.3954  0.1759 -1.1656
 3599TIP3   OH232355   6.040   3.978   8.032  0.0512 -0.2842 -0.0637
 3599TIP3    H132356   6.089   4.060   8.019  0.7500 -0.8386 -1.0286
 3599TIP3    H232357   5.964   3.987   7.976  0.6432 -0.6995 -0.9532
 3600TIP3   OH232358   1.431   5.399   8.517 -0.2251 -0.0689  0.0274
 3600TIP3    H132359   1.498   5.364   8.576  0.0934  0.9357  0.2932
 3600TIP3    H232360   1.348   5.377   8.558 -0.1110 -2.0895 -0.7390
 3601TIP3   OH232361   0.073   5.366   6.862 -0.3885 -0.6723 -0.1637
 3601TIP3    H132362   0.140   5.315   6.816 -0.7179 -0.4389 -0.9150
 3601TIP3    H232363   0.098   5.457   6.847 -0.5676 -0.5945  0.0177
 3602TIP3   OH232364   3.913   6.669   8.582 -0.3561 -0.1968  0.1779
 3602TIP3    H132365   3.964   6.627   8.652 -0.5768  1.6532  1.5196
 3602TIP3    H232366   3.827   6.684   8.622 -0.2248  1.6413 -0.1874
 3603TIP3   OH232367   2.358   1.098   1.055 -0.2520 -0.8649 -0.2085
 3603TIP3    H132368   2.357   1.098   1.151  0.2811 -1.9535 -0.1788
 3603TIP3    H232369   2.269   1.122   1.030  0.1415  1.5960  0.4993
 3604TIP3   OH232370   2.468   6.336   2.428 -0.0964 -0.1081 -0.0653
 3604TIP3    H132371   2.379   6.309   2.450 -0.6979 -0.3935 -2.5453
 3604TIP3    H232372   2.469   6.430   2.444 -0.3703 -0.3291  1.3625
 3605TIP3   OH232373   3.901   1.950   0.005  0.2347 -0.5379 -0.4156
 3605TIP3    H132374   3.912   2.032   0.052 -1.3728  0.1734 -1.2202
 3605TIP3    H232375   3.990   1.915  -0.003  1.4653  2.6559 -2.8301
 3606TIP3   OH232376   3.126   5.104   2.483 -0.0600  0.0078  0.0632
 3606TIP3    H132377   3.088   5.176   2.534  0.5835  1.0959 -0.9424
 3606TIP3    H232378   3.097   5.121   2.393 -0.6724 -1.5375 -0.0507
 3607TIP3   OH232379   5.062   1.234   0.607 -0.2913 -0.6648  0.3558
 3607TIP3    H132380   5.114   1.276   0.676  0.4809 -1.3995  0.2492
 3607TIP3    H232381   5.115   1.158   0.581 -0.1414  0.0606 -1.6533
 3608TIP3   OH232382   6.716   0.528   0.963  0.1821 -0.1834 -0.0904
 3608TIP3    H132383   6.644   0.472   0.934  1.2520 -1.1981 -0.8788
 3608TIP3    H232384   6.787   0.467   0.984  1.4784  0.8675 -1.2346
 3609TIP3   OH232385   6.585   1.555   0.406  0.5072 -1.1928  0.5013
 3609TIP3    H132386   6.504   1.564   0.356  0.2314 -0.9604  0.9820
 3609TIP3    H232387   6.580   1.468   0.446  0.8865 -1.5185 -0.1431
 3610TIP3   OH232388   2.906   0.358   7.414  0.2988 -0.0107  0.0313
 3610TIP3    H132389   2.823   0.384   7.376  1.4054 -0.3308 -2.9163
 3610TIP3    H232390   2.902   0.262   7.416  0.2789  0.0000  0.7233
 3611TIP3   OH232391   2.729   2.978   1.529 -0.0720 -0.1694  0.3711
 3611TIP3    H132392   2.760   2.893   1.558  0.3677 -0.0061  0.3860
 3611TIP3    H232393   2.633   2.969   1.525 -0.0602 -0.5151  0.8319
 3612TIP3   OH232394   1.602   2.806   2.404 -0.0406 -0.6352  0.0968
 3612TIP3    H132395   1.543   2.881   2.409  0.1673 -0.4261 -0.5804
 3612TIP3    H232396   1.659   2.825   2.330  0.5085 -1.1048  0.3969
 3613TIP3   OH232397   5.305   3.693   1.566 -0.0678 -0.1873  0.0495
 3613TIP3    H132398   5.300   3.661   1.476 -0.1887 -0.2626  0.0826
 3613TIP3    H232399   5.370   3.763   1.563  1.3172 -1.4353  0.2842
 3614TIP3   OH232400   3.345   0.245   7.758  0.0594  0.1392 -0.1742
 3614TIP3    H132401   3.350   0.175   7.823  2.1171  1.0064  0.6767
 3614TIP3    H232402   3.339   0.325   7.810  2.7605  0.9349 -0.9107
 3615TIP3   OH232403   1.973   1.397   0.433  0.2324 -0.7633 -0.0398
 3615TIP3    H132404   1.901   1.347   0.396  0.2220 -1.4868  0.9361
 3615TIP3    H232405   1.942   1.426   0.518  0.6687 -0.0749 -0.1028
 3616TIP3   OH232406   2.783   5.679   1.968  0.0523 -0.3633  0.2503
 3616TIP3    H132407   2.861   5.702   2.018 -0.8772  0.2688  1.4676
 3616TIP3    H232408   2.746   5.763   1.941 -1.7590 -0.4206  2.2014
 3617TIP3   OH232409   1.275   5.015   0.431 -0.3564 -0.4193 -0.4443
 3617TIP3    H132410   1.209   5.080   0.406 -1.8048 -2.2122 -1.5995
 3617TIP3    H232411   1.310   4.984   0.348 -0.7478 -2.1104 -0.0125
 3618TIP3   OH232412   4.868   2.940   1.506  0.3504 -0.1446  0.6462
 3618TIP3    H132413   4.836   2.963   1.593 -0.7245 -0.2812  0.3094
 3618TIP3    H232414   4.789   2.913   1.458  1.1730 -1.9984  0.2427
 3619TIP3   OH232415   5.870   3.431   1.405 -0.1545  0.3819  0.0250
 3619TIP3    H132416   5.873   3.467   1.494 -0.6892 -0.2251  0.2994
 3619TIP3    H232417   5.783   3.392   1.398  0.8607 -2.1594  0.3008
 3620TIP3   OH232418   4.033   6.065   8.145  0.1541  0.2208 -0.2498
 3620TIP3    H132419   3.983   5.990   8.177 -0.2303  0.5773 -0.0070
 3620TIP3    H232420   4.085   6.093   8.220 -2.0167  2.1273  0.6599
 3621TIP3   OH232421   5.099   5.764   0.489  0.2248  0.4730 -0.4409
 3621TIP3    H132422   5.061   5.775   0.576  0.0562 -1.4636 -0.2328
 3621TIP3    H232423   5.028   5.729   0.436  0.6783  0.4234 -1.0315
 3622TIP3   OH232424   4.697   2.608   0.928  0.1030 -0.1096 -0.0125
 3622TIP3    H132425   4.635   2.535   0.938 -0.0384  0.2167  1.9581
 3622TIP3    H232426   4.773   2.581   0.979 -0.2802  1.4312  1.4523
 3623TIP3   OH232427   3.253   6.449   2.427 -0.1714  0.3810 -0.0938
 3623TIP3    H132428   3.160   6.428   2.435 -0.4553  1.0589 -1.3652
 3623TIP3    H232429   3.293   6.367   2.399 -0.6137  0.4184 -0.8756
 3624TIP3   OH232430   6.540   4.398   0.298  0.2147 -0.7602 -0.5475
 3624TIP3    H132431   6.622   4.417   0.343 -0.4034  1.6976 -0.3363
 3624TIP3    H232432   6.479   4.377   0.369  0.0219 -0.0188 -0.4937
 3625TIP3   OH232433   0.413   1.456   7.818  0.2061  0.1334 -0.0848
 3625TIP3    H132434   0.458   1.540   7.808  1.6136 -0.4333  1.2061
 3625TIP3    H232435   0.342   1.475   7.880 -0.6942  0.7645 -1.2556
 3626TIP3   OH232436   5.305   6.287   7.248 -0.7531 -0.0471  0.3626
 3626TIP3    H132437   5.288   6.250   7.335 -2.1556  0.8930  0.5274
 3626TIP3    H232438   5.222   6.328   7.223 -0.2047  0.1677 -1.1913
 3627TIP3   OH232439   1.174   3.331   7.779  0.4025  0.5637  0.1515
 3627TIP3    H132440   1.212   3.329   7.691  0.3231  0.1306  0.1261
 3627TIP3    H232441   1.226   3.396   7.826  1.4030 -0.2643  0.2218
 3628TIP3   OH232442   2.268   0.583   1.697  0.1511 -0.3014 -0.1980
 3628TIP3    H132443   2.322   0.548   1.626  1.5666 -0.9877  1.1572
 3628TIP3    H232444   2.221   0.507   1.731  0.9611 -0.3694  0.8242
 3629TIP3   OH232445   2.722   1.763   6.212  0.3508 -0.7224  0.0628
 3629TIP3    H132446   2.814   1.790   6.211  0.2749 -0.2575  2.0793
 3629TIP3    H232447   2.677   1.831   6.261 -0.7278 -1.9554  0.8587
 3630TIP3   OH232448   2.997   5.565   8.162  0.1838  0.5140  0.1415
 3630TIP3    H132449   2.923   5.626   8.167  0.7519  1.1244  1.3462
 3630TIP3    H232450   2.978   5.499   8.229 -0.0628 -0.2684 -0.6621
 3631TIP3   OH232451   0.172   2.226   6.939  0.4796  1.2615 -0.1537
 3631TIP3    H132452   0.231   2.300   6.922  1.7884  0.0874 -1.0829
 3631TIP3    H232453   0.228   2.149   6.925 -1.5493  0.0456 -2.3003
 3632TIP3   OH232454   1.772   6.022   8.572  0.0636 -0.4422  0.9023
 3632TIP3    H132455   1.755   5.927   8.574  1.5314 -0.7288  0.7754
 3632TIP3    H232456   1.686   6.061   8.561 -0.4833 -1.8092 -0.0300
 3633TIP3   OH232457   2.143   2.215   0.911 -0.3543  0.3316 -0.3649
 3633TIP3    H132458   2.192   2.133   0.903 -0.9679 -0.1865  0.9498
 3633TIP3    H232459   2.166   2.264   0.832  0.5044 -0.8425 -0.8759
 3634TIP3   OH232460   5.874   2.516   0.259  0.4650  0.0120 -0.3920
 3634TIP3    H132461   5.872   2.421   0.259  0.8673 -0.0009 -0.9149
 3634TIP3    H232462   5.876   2.540   0.352  0.9940 -0.5051 -0.2630
 3635TIP3   OH232463   6.198   2.818   7.305  0.3608  0.1874 -0.8021
 3635TIP3    H132464   6.259   2.791   7.236 -0.6318  0.2061 -1.6979
 3635TIP3    H232465   6.190   2.913   7.295  0.7998  0.3055 -0.1537
 3636TIP3   OH232466   5.116   5.564   8.606 -0.6158 -0.0182 -0.2366
 3636TIP3    H132467   5.020   5.558   8.607 -0.5885 -0.8475 -1.0258
 3636TIP3    H232468   5.141   5.533   8.519  0.2633  2.3751 -0.9218
 3637TIP3   OH232469   1.061   4.712   6.879 -0.0472  0.1597  0.6364
 3637TIP3    H132470   1.020   4.628   6.900  1.9029 -0.4687  2.4016
 3637TIP3    H232471   1.117   4.693   6.804  0.6737 -0.2650  1.2598
 3638TIP3   OH232472   4.761   4.284   8.068 -0.2161  0.1296  0.4131
 3638TIP3    H132473   4.758   4.196   8.029  0.4189 -0.4448  1.6013
 3638TIP3    H232474   4.784   4.342   7.995 -1.7987 -0.5037 -0.6421
 3639TIP3   OH232475   3.373   3.020   7.028  0.3282 -0.1746 -0.0838
 3639TIP3    H132476   3.319   2.941   7.038 -0.2548  0.2884  0.4657
 3639TIP3    H232477   3.437   2.996   6.961 -0.7623 -0.6197 -0.9999
 3640TIP3   OH232478   5.895   3.650   0.438 -0.1949  0.7482 -0.2764
 3640TIP3    H132479   5.909   3.559   0.412 -1.7448  0.5414 -0.4768
 3640TIP3    H232480   5.944   3.701   0.373  0.1636  0.0857 -0.5357
 3641TIP3   OH232481   0.954   1.995   1.584 -0.1248 -0.0970  0.3419
 3641TIP3    H132482   0.906   1.974   1.504  0.5906 -0.1874 -0.0690
 3641TIP3    H232483   1.004   2.073   1.562 -0.9392  0.6656  1.1218
 3642TIP3   OH232484   2.044   0.845   8.406 -0.2521  0.3932 -0.0973
 3642TIP3    H132485   1.968   0.791   8.384 -0.4107  1.5787 -2.9731
 3642TIP3    H232486   2.016   0.900   8.479 -0.8247 -1.7459  1.3812
 3643TIP3   OH232487   0.724   5.842   7.256  0.2982 -0.1448  0.0999
 3643TIP3    H132488   0.773   5.760   7.268 -0.3557 -0.6654 -0.6662
 3643TIP3    H232489   0.677   5.829   7.174  0.5095  1.1721 -0.2543
 3644TIP3   OH232490   3.516   1.999   7.316  0.4530  0.1626 -0.0211
 3644TIP3    H132491   3.428   2.016   7.281 -0.0902  0.0915  1.2655
 3644TIP3    H232492   3.502   1.933   7.384  1.4638  0.3559  0.3912
 3645TIP3   OH232493   5.401   5.092   1.487 -0.1765  0.2498 -0.2616
 3645TIP3    H132494   5.377   5.139   1.407 -0.1245 -1.4576 -1.3185
 3645TIP3    H232495   5.394   5.000   1.464 -0.0304 -0.2875  1.6818
 3646TIP3   OH232496   1.197   6.320   8.125 -0.1550  0.0644  0.2240
 3646TIP3    H132497   1.131   6.292   8.061 -0.4983 -0.4194  0.7737
 3646TIP3    H232498   1.248   6.387   8.080 -1.3850  0.8711 -0.0340
 3647TIP3   OH232499   2.086   6.224   1.737  0.7908  0.1424 -0.7225
 3647TIP3    H132500   2.119   6.189   1.655  0.5367  0.9689 -1.1889
 3647TIP3    H232501   2.089   6.150   1.798 -1.5208 -1.2248 -2.1548
 3648TIP3   OH232502   3.962   1.279   8.440 -0.8208 -0.4679 -0.1311
 3648TIP3    H132503   4.021   1.326   8.380  1.2003 -2.4122  0.2234
 3648TIP3    H232504   3.939   1.344   8.507 -1.2311  1.0627 -1.6729
 3649TIP3   OH232505   1.739   0.164   0.026  0.2776  0.1449 -0.9100
 3649TIP3    H132506   1.679   0.166   0.101  0.0242 -2.0203 -0.9905
 3649TIP3    H232507   1.825   0.177   0.065 -0.0251  0.9714 -0.4926
 3650TIP3   OH232508   3.153   5.242   6.927  0.1697 -0.0359 -0.3965
 3650TIP3    H132509   3.075   5.260   6.981  1.2027  0.6068  0.9304
 3650TIP3    H232510   3.125   5.266   6.839 -1.2788 -0.2174 -0.0269
 3651TIP3   OH232511   2.468   1.097   6.468  0.3216  0.7279 -0.1351
 3651TIP3    H132512   2.389   1.049   6.494 -0.2756  0.1148 -2.8411
 3651TIP3    H232513   2.501   1.134   6.550 -1.7989 -0.4290  1.3372
 3652TIP3   OH232514   5.356   4.008   2.120  0.2053 -0.1900 -0.1030
 3652TIP3    H132515   5.350   4.098   2.152 -1.4721  0.1923 -1.3428
 3652TIP3    H232516   5.353   3.955   2.199 -0.7255  0.8001  0.5632
 3653TIP3   OH232517   1.028   1.528   7.938 -0.5622 -0.1769  0.3247
 3653TIP3    H132518   1.021   1.623   7.950  1.2800 -0.0728  0.7947
 3653TIP3    H232519   1.079   1.498   8.013  0.0695 -1.3483 -0.5513
 3654TIP3   OH232520   6.518   2.385   8.566 -0.1951  0.8780 -0.8983
 3654TIP3    H132521   6.470   2.421   8.641  0.1364  0.2047 -0.3578
 3654TIP3    H232522   6.610   2.397   8.588 -0.0801 -0.1645 -0.7774
 3655TIP3   OH232523   4.620   3.109   7.465  0.2977  0.0561 -0.1064
 3655TIP3    H132524   4.680   3.084   7.395 -0.0758 -1.7447  0.1445
 3655TIP3    H232525   4.537   3.125   7.420  0.7583  1.8414 -0.3736
 3656TIP3   OH232526   6.270   0.275   8.144  0.1586 -0.0207  0.1066
 3656TIP3    H132527   6.332   0.251   8.075  0.0279  0.7950 -0.3006
 3656TIP3    H232528   6.208   0.202   8.147  0.2224 -0.1111 -0.5787
 3657TIP3   OH232529   1.160   5.962   8.174 -0.5137  0.1243  0.6913
 3657TIP3    H132530   1.131   5.871   8.182  0.2721 -0.2388 -0.3236
 3657TIP3    H232531   1.229   5.971   8.239  0.6884 -0.5762 -0.4463
 3658TIP3   OH232532   2.591   1.473   7.734  0.3121  0.2508 -0.2288
 3658TIP3    H132533   2.615   1.417   7.807  0.3940  0.4477 -0.1064
 3658TIP3    H232534   2.674   1.504   7.698  0.3107  3.4259  2.0829
 3659TIP3   OH232535   5.146   6.244   1.440  0.2401  0.1229 -0.7568
 3659TIP3    H132536   5.112   6.286   1.361 -0.4266 -0.6625 -0.9029
 3659TIP3    H232537   5.080   6.261   1.507  1.0308  1.1959 -0.2309
 3660TIP3   OH232538   3.431   2.190   0.116 -0.2341 -0.1796  0.1200
 3660TIP3    H132539   3.440   2.260   0.052 -0.1543  0.1135  0.4478
 3660TIP3    H232540   3.341   2.199   0.149 -0.4811 -0.7111 -0.3869
 3661TIP3   OH232541   3.158   0.409   8.195 -0.3383 -0.3591 -0.5533
 3661TIP3    H132542   3.086   0.469   8.180  0.4721  0.8788  0.2746
 3661TIP3    H232543   3.206   0.407   8.112 -0.4972 -0.0492 -0.6519
 3662TIP3   OH232544   4.507   3.677   7.811 -0.2777  0.4743  0.7135
 3662TIP3    H132545   4.496   3.749   7.749  0.0487 -0.6796 -0.7283
 3662TIP3    H232546   4.595   3.690   7.847  0.7140 -0.4043 -1.2270
 3663TIP3   OH232547   5.692   6.125   1.646  0.0246  0.4889 -0.2892
 3663TIP3    H132548   5.717   6.162   1.562  0.1822  0.4072 -0.2785
 3663TIP3    H232549   5.768   6.140   1.702  0.5470 -0.8959 -0.6083
 3664TIP3   OH232550   5.769   0.348   7.497 -0.5605 -0.1005  0.1765
 3664TIP3    H132551   5.677   0.373   7.495 -0.5486 -0.1191 -1.5867
 3664TIP3    H232552   5.770   0.264   7.543 -1.4718 -0.2892 -0.1269
 3665TIP3   OH232553   5.115   5.218   6.428  0.4060  0.3717  0.1730
 3665TIP3    H132554   5.114   5.313   6.444  2.9121  0.4689  0.0437
 3665TIP3    H232555   5.098   5.210   6.334  0.3291  0.6899  0.1569
 3666TIP3   OH232556   3.225   6.030   7.013  0.3980 -0.4925  0.7671
 3666TIP3    H132557   3.219   6.122   7.040 -1.1407 -0.5344  0.6707
 3666TIP3    H232558   3.310   6.001   7.046  1.5834  1.3488 -0.4942
 3667TIP3   OH232559   3.135   6.272   2.086  0.6736  0.8996  0.3615
 3667TIP3    H132560   3.208   6.261   2.148  0.9813  1.5655  0.1267
 3667TIP3    H232561   3.075   6.200   2.106  0.4666  1.4655  1.8482
 3668TIP3   OH232562   6.185   2.551   8.245 -0.2313 -0.1991 -0.2049
 3668TIP3    H132563   6.149   2.535   8.333 -1.3883 -1.9678 -0.9389
 3668TIP3    H232564   6.251   2.619   8.258 -0.3996 -0.3837  2.0214
 3669TIP3   OH232565   3.118   2.358   7.185  0.0382 -0.5341  0.6619
 3669TIP3    H132566   3.064   2.425   7.144 -1.3675 -1.0289  1.6390
 3669TIP3    H232567   3.122   2.288   7.120 -0.3289 -0.4143  0.5085
 3670TIP3   OH232568   0.571   0.144   0.183 -0.0859  0.2111 -0.0031
 3670TIP3    H132569   0.491   0.187   0.151  0.1236 -0.5839 -1.7450
 3670TIP3    H232570   0.642   0.202   0.156  0.0089  0.2048  0.2372
 3671TIP3   OH232571   5.753   4.272   8.463 -0.5925  0.2212  0.0476
 3671TIP3    H132572   5.825   4.234   8.513 -0.6610  1.5377  1.2301
 3671TIP3    H232573   5.719   4.342   8.520 -0.9742  1.4886 -1.6452
 3672TIP3   OH232574   0.345   3.377   8.125 -0.1030  0.9884 -0.0480
 3672TIP3    H132575   0.408   3.423   8.069 -1.6215  2.3765 -0.7094
 3672TIP3    H232576   0.265   3.371   8.072 -0.7205 -0.2268  0.9528
 3673TIP3   OH232577   6.231   0.879   1.054 -0.5673  0.1057  0.4151
 3673TIP3    H132578   6.312   0.878   1.002 -0.9997 -0.0559 -0.2601
 3673TIP3    H232579   6.259   0.849   1.141  0.0610 -0.1463  0.1340
 3674TIP3   OH232580   4.100   5.990   7.896 -0.2087 -0.7759 -0.1051
 3674TIP3    H132581   4.066   6.021   7.980 -0.0216 -0.8340 -0.0077
 3674TIP3    H232582   4.053   5.908   7.879 -0.4930 -0.5907 -0.2218
 3675TIP3   OH232583   1.557   2.719   0.055  0.0815  0.1188  0.8500
 3675TIP3    H132584   1.625   2.766   0.102  0.9109 -1.0240  0.8476
 3675TIP3    H232585   1.500   2.787   0.020  2.8623  1.3564 -1.7019
 3676TIP3   OH232586   0.635   5.296   8.593  0.4334  0.0321  0.3777
 3676TIP3    H132587   0.638   5.332   8.504  0.4218  0.8861  0.7075
 3676TIP3    H232588   0.543   5.300   8.618  0.4219 -0.3046  0.3869
 3677TIP3   OH232589   4.856   6.560   7.227  0.3962 -0.0272  0.4518
 3677TIP3    H132590   4.803   6.631   7.265  2.3351  2.6029 -1.4487
 3677TIP3    H232591   4.791   6.496   7.198 -1.7786  2.4566 -0.6754
 3678TIP3   OH232592   1.299   0.610   6.963 -0.1548 -0.2542 -0.2529
 3678TIP3    H132593   1.232   0.651   6.908  0.2086 -0.5064 -0.8935
 3678TIP3    H232594   1.271   0.630   7.052  0.7762  2.7391 -0.4927
 3679TIP3   OH232595   1.119   0.510   2.086  0.2437  0.0841 -0.1646
 3679TIP3    H132596   1.202   0.488   2.045  0.9544  0.9950  0.7331
 3679TIP3    H232597   1.090   0.429   2.127  0.2151 -0.4762 -1.2597
 3680TIP3   OH232598   3.328   6.755   1.378 -0.4116 -0.0573 -0.6717
 3680TIP3    H132599   3.379   6.821   1.423  1.0007 -1.4228 -0.1987
 3680TIP3    H232600   3.238   6.787   1.382  0.4943  3.3172 -3.0657
 3681TIP3   OH232601   6.847   4.268   6.792 -0.3925 -0.1803 -0.3783
 3681TIP3    H132602   6.915   4.207   6.819 -0.0204  0.2275 -0.3794
 3681TIP3    H232603   6.799   4.287   6.873  0.4274  0.6746 -0.0744
 3682TIP3   OH232604   3.153   6.860   7.010 -0.0277 -0.0540  0.4362
 3682TIP3    H132605   3.077   6.819   6.969  1.0793 -2.5521  0.7229
 3682TIP3    H232606   3.174   6.933   6.953 -1.0942 -0.8666 -1.0640
 3683TIP3   OH232607   4.598   1.416   8.277 -0.6447  0.7115 -0.1615
 3683TIP3    H132608   4.583   1.468   8.198  0.3920  0.2816 -0.6668
 3683TIP3    H232609   4.511   1.404   8.315 -1.0570  1.6494 -0.7713
 3684TIP3   OH232610   4.421   3.768   2.109  0.6207  0.2317 -0.0273
 3684TIP3    H132611   4.433   3.763   2.204 -0.5888  1.2101  0.1990
 3684TIP3    H232612   4.397   3.679   2.083 -1.8989  0.5294  1.0407
 3685TIP3   OH232613   6.400   6.385   6.866 -0.0867 -0.6879 -0.4789
 3685TIP3    H132614   6.353   6.443   6.926 -0.5403 -1.0369 -0.4928
 3685TIP3    H232615   6.359   6.300   6.877  0.3085 -0.9203 -0.7571
 3686TIP3   OH232616   0.339   6.352   2.005 -0.5646  0.4858  0.2342
 3686TIP3    H132617   0.361   6.286   1.940 -1.2192  0.3807  0.1182
 3686TIP3    H232618   0.403   6.422   1.991 -0.2411  0.1388 -0.0295
 3687TIP3   OH232619   5.163   6.522   0.070  0.2708 -0.2571 -0.1062
 3687TIP3    H132620   5.251   6.550   0.094  0.4132  0.4727 -1.4337
 3687TIP3    H232621   5.177   6.448   0.011 -0.0262 -0.5003  0.1256
 3688TIP3   OH232622   1.954   3.453   7.353 -0.0209  0.0105  0.1932
 3688TIP3    H132623   1.976   3.387   7.419 -0.7669 -1.6987 -1.1667
 3688TIP3    H232624   1.864   3.431   7.327  0.6427 -0.1827 -2.2167
 3689TIP3   OH232625   4.051   5.054   8.442 -0.1340 -0.7939  0.1908
 3689TIP3    H132626   3.986   5.119   8.468 -2.2109 -3.1715  1.3830
 3689TIP3    H232627   4.121   5.063   8.506 -0.1325  0.5496  0.0318
 3690TIP3   OH232628   3.506   2.149   6.307 -0.1214  0.3466 -0.0141
 3690TIP3    H132629   3.438   2.211   6.333 -0.3742  0.0551  0.0362
 3690TIP3    H232630   3.481   2.067   6.350  1.0497  0.5894  1.1895
 3691TIP3   OH232631   5.666   0.611   7.840 -0.1259  0.0260  0.1462
 3691TIP3    H132632   5.757   0.602   7.814  0.1743  1.4072  0.6352
 3691TIP3    H232633   5.667   0.600   7.935  0.1459  3.5786  0.6894
 3692TIP3   OH232634   2.120   5.978   6.928  0.2205  0.5404  0.1802
 3692TIP3    H132635   2.050   5.971   6.993  1.1102 -0.3230  1.0874
 3692TIP3    H232636   2.170   6.055   6.955  1.1261 -0.3345  1.1116
 3693TIP3   OH232637   2.165   1.804   6.500  0.3464 -0.3631 -0.0199
 3693TIP3    H132638   2.225   1.747   6.452  0.3822 -0.8358  0.5679
 3693TIP3    H232639   2.198   1.802   6.590 -0.3973 -0.4189  0.2584
 3694TIP3   OH232640   4.304   2.062   0.045 -0.7771  0.0717  0.4698
 3694TIP3    H132641   4.292   2.148   0.004  0.2929  0.5045  1.0411
 3694TIP3    H232642   4.395   2.038   0.027 -0.7113 -0.3927  1.3444
 3695TIP3   OH232643   6.797   6.259   6.647  0.3136  0.2428  0.6321
 3695TIP3    H132644   6.817   6.342   6.605  1.3062  0.1184  0.8307
 3695TIP3    H232645   6.875   6.206   6.633 -0.4773 -0.8265  0.1081
 3696TIP3   OH232646   3.040   3.509   7.392  0.4735 -0.3487  0.2902
 3696TIP3    H132647   3.135   3.509   7.400  0.5466 -0.3415 -0.4796
 3696TIP3    H232648   3.018   3.418   7.372  0.6195  0.1000 -2.3931
 3697TIP3   OH232649   4.607   4.543   8.057  0.0458 -0.6258 -0.3910
 3697TIP3    H132650   4.652   4.530   7.973  1.8840 -0.4029  0.5013
 3697TIP3    H232651   4.678   4.551   8.121 -1.3160 -1.7765  1.3607
 3698TIP3   OH232652   1.644   0.358   0.260 -0.2740  0.5373  0.3349
 3698TIP3    H132653   1.549   0.348   0.267 -0.0862 -0.2112  2.7325
 3698TIP3    H232654   1.663   0.442   0.302  0.2356 -0.0487  1.3141
 3699TIP3   OH232655   2.757   3.434   7.995 -0.3433  0.2873  0.2605
 3699TIP3    H132656   2.687   3.491   7.962 -0.7209 -0.6838 -0.6671
 3699TIP3    H232657   2.805   3.489   8.057 -1.1493  1.3740 -0.0434
 3700TIP3   OH232658   3.738   5.127   7.834 -0.5475 -0.1993  0.3806
 3700TIP3    H132659   3.760   5.105   7.744 -1.5131 -0.7055  0.2645
 3700TIP3    H232660   3.722   5.221   7.833 -2.2677 -0.4764 -0.3452
 3701TIP3   OH232661   2.334   3.872   7.061 -0.2693  0.0464 -0.3196
 3701TIP3    H132662   2.240   3.868   7.041 -0.4838 -1.0080  0.7599
 3701TIP3    H232663   2.341   3.839   7.150  1.1772 -0.2648 -0.5217
 3702TIP3   OH232664   1.129   4.030   8.664 -0.1800 -0.0144  0.3728
 3702TIP3    H132665   1.090   3.991   8.586 -0.5253  2.3482 -0.7449
 3702TIP3    H232666   1.166   4.113   8.633  0.5988  0.5186  2.5370
 3703TIP3   OH232667   0.836   2.843   1.340  0.4585 -0.1952  0.1703
 3703TIP3    H132668   0.836   2.774   1.406  0.8558  0.3681  0.7798
 3703TIP3    H232669   0.912   2.898   1.363  1.0792 -0.4219 -1.2183
 3704TIP3   OH232670   1.657   6.748   8.638  0.4342  0.1975 -0.1658
 3704TIP3    H132671   1.723   6.776   8.574 -0.0467  2.5749  0.3017
 3704TIP3    H232672   1.682   6.793   8.719 -0.7032 -0.3517  0.5124
 3705TIP3   OH232673   3.788   2.026   6.340  0.2495 -0.1751  0.0847
 3705TIP3    H132674   3.733   2.103   6.326  2.8123  1.3186 -3.2542
 3705TIP3    H232675   3.745   1.956   6.291 -0.8947 -0.2966  1.2168
 3706TIP3   OH232676   2.653   2.070   7.020  0.3113 -0.0134  0.7489
 3706TIP3    H132677   2.680   2.109   6.936 -0.3603 -0.8069  0.1457
 3706TIP3    H232678   2.732   2.075   7.074  0.3949  1.6605  0.5167
 3707TIP3   OH232679   1.488   3.045   8.173  0.0942  0.3543 -0.1069
 3707TIP3    H132680   1.552   3.040   8.102  0.8961 -0.1537  0.6108
 3707TIP3    H232681   1.404   3.055   8.130  0.6130  0.5774 -1.1046
 3708TIP3   OH232682   0.277   6.755   1.254  0.7116  0.3303 -0.2860
 3708TIP3    H132683   0.300   6.820   1.320 -1.0141 -0.1441  0.8449
 3708TIP3    H232684   0.280   6.672   1.301  1.7081 -0.3080 -1.4115
 3709TIP3   OH232685   6.787   1.025   1.247  0.0888  0.2527 -0.1469
 3709TIP3    H132686   6.834   1.094   1.200  0.1537 -0.9249 -1.8885
 3709TIP3    H232687   6.834   0.945   1.226 -1.5281 -0.6946 -0.3293
 3710TIP3   OH232688   0.913   2.197   1.218  0.1387  0.0520  0.3014
 3710TIP3    H132689   1.007   2.181   1.224  0.4449  0.9713 -1.3552
 3710TIP3    H232690   0.899   2.227   1.128 -1.4624  1.6246  1.0006
 3711TIP3   OH232691   3.027   3.393   0.096  0.1275 -0.3836  0.3451
 3711TIP3    H132692   2.954   3.361   0.148  0.3204 -0.2640  0.6883
 3711TIP3    H232693   3.016   3.350   0.011  0.3832 -1.3762  0.8019
 3712TIP3   OH232694   4.238   5.877   0.686  0.1011  0.1453 -0.4034
 3712TIP3    H132695   4.246   5.876   0.591 -1.1659  1.6715 -0.5650
 3712TIP3    H232696   4.146   5.900   0.702  0.1970 -0.4739  1.1899
 3713TIP3   OH232697   5.736   5.834   1.716 -0.0581  0.5758  0.3831
 3713TIP3    H132698   5.787   5.857   1.794  0.3430  2.4815 -0.3939
 3713TIP3    H232699   5.695   5.916   1.689 -1.3660 -0.3624 -0.5847
 3714TIP3   OH232700   1.405   4.647   2.464 -0.4475  0.3924  0.3296
 3714TIP3    H132701   1.428   4.555   2.477  0.1006  0.4633 -0.0748
 3714TIP3    H232702   1.487   4.688   2.435 -0.3510  1.2817  1.7569
 3715TIP3   OH232703   4.522   4.150   8.486 -0.0320 -0.0080 -0.7380
 3715TIP3    H132704   4.614   4.173   8.474  0.4759 -0.4572  1.7011
 3715TIP3    H232705   4.524   4.060   8.518 -1.2825  0.1361 -0.2133
 3716TIP3   OH232706   2.388   6.483   0.672 -0.3080  0.2108 -0.1501
 3716TIP3    H132707   2.336   6.459   0.749  0.0664  0.3229  0.1403
 3716TIP3    H232708   2.420   6.571   0.692  1.9928 -0.7641  0.7540
 3717TIP3   OH232709   4.310   6.587   7.256 -0.0670 -0.2157 -0.0191
 3717TIP3    H132710   4.364   6.621   7.327  0.4869 -0.1960 -0.4472
 3717TIP3    H232711   4.235   6.647   7.253  0.5784  0.6067 -0.3432
 3718TIP3   OH232712   5.937   3.843   0.236  0.3487  0.7135 -0.3677
 3718TIP3    H132713   6.015   3.840   0.182  1.6248 -0.8060  1.4154
 3718TIP3    H232714   5.921   3.936   0.250  3.1509  1.1292  0.8974
 3719TIP3   OH232715   5.831   1.126   8.553  0.0751 -0.4824 -0.1118
 3719TIP3    H132716   5.830   1.030   8.548  0.1709 -0.4999  0.1751
 3719TIP3    H232717   5.778   1.154   8.479 -1.6791 -0.7954  0.9704
 3720TIP3   OH232718   1.505   1.155   1.194 -0.1314 -0.2718  0.1920
 3720TIP3    H132719   1.477   1.240   1.227 -1.8930 -1.1971  1.2123
 3720TIP3    H232720   1.595   1.145   1.226 -0.8126  0.0980  2.3102
 3721TIP3   OH232721   3.722   1.940   7.001 -0.1508 -0.4608  0.2791
 3721TIP3    H132722   3.791   1.873   6.996  0.6560  0.4168 -0.8149
 3721TIP3    H232723   3.741   1.988   7.082 -0.6485 -1.4372  0.9935
 3722TIP3   OH232724   6.729   6.352   7.462 -0.4017  0.0668 -0.1736
 3722TIP3    H132725   6.758   6.268   7.426  1.6706  1.3744 -1.7501
 3722TIP3    H232726   6.704   6.403   7.386 -1.0596  1.1214  0.7225
 3723TIP3   OH232727   0.375   1.735   0.369  0.2626 -0.1235  0.0479
 3723TIP3    H132728   0.315   1.675   0.413 -1.3922  0.6854 -1.0012
 3723TIP3    H232729   0.425   1.680   0.309 -0.8027 -0.5486 -0.4656
 3724TIP3   OH232730   5.834   5.320   2.166  0.1643 -0.3203  0.1071
 3724TIP3    H132731   5.873   5.405   2.186 -0.1802  0.1246 -1.0087
 3724TIP3    H232732   5.744   5.327   2.199 -0.2738  0.2563 -1.1468
 3725TIP3   OH232733   1.732   1.197   1.696  0.4757 -0.4897 -0.4057
 3725TIP3    H132734   1.682   1.150   1.630  0.9612  1.2500 -2.1017
 3725TIP3    H232735   1.791   1.253   1.646  2.3876 -0.6407  1.5176
 3726TIP3   OH232736   3.839   6.702   0.675  0.2271 -0.3681  0.3646
 3726TIP3    H132737   3.823   6.797   0.670  0.9792 -0.1949  0.9965
 3726TIP3    H232738   3.760   6.663   0.640  0.4747  0.5110 -1.2574
 3727TIP3   OH232739   4.737   3.999   0.623 -0.3672 -0.1822 -0.2699
 3727TIP3    H132740   4.798   3.931   0.653 -0.5261  0.9302  2.8897
 3727TIP3    H232741   4.654   3.953   0.613 -0.3025 -0.6268  1.0786
 3728TIP3   OH232742   1.676   6.372   8.029 -0.1057  0.6638 -0.5931
 3728TIP3    H132743   1.696   6.285   8.063 -0.4441  1.4891  1.9316
 3728TIP3    H232744   1.755   6.398   7.981  0.6101 -0.4042 -0.0248
 3729TIP3   OH232745   0.348   5.338   6.710 -0.1627 -0.0880 -0.0319
 3729TIP3    H132746   0.408   5.387   6.654 -0.4046 -0.3562 -0.5362
 3729TIP3    H232747   0.318   5.266   6.654 -0.9178  0.0179  0.2257
 3730TIP3   OH232748   6.841   1.516   6.727 -0.2048 -0.8343 -0.7565
 3730TIP3    H132749   6.800   1.476   6.651 -0.0873  2.2162 -2.6005
 3730TIP3    H232750   6.934   1.520   6.705 -0.1143 -0.2662 -0.3106
 3731TIP3   OH232751   6.576   4.737   7.748 -0.5770 -0.2841 -0.2694
 3731TIP3    H132752   6.645   4.688   7.793 -0.5711  0.1306  0.1750
 3731TIP3    H232753   6.609   4.826   7.743 -1.1966 -0.0312  0.1736
 3732TIP3   OH232754   5.710   2.821   0.885  0.2977  0.8132 -0.1419
 3732TIP3    H132755   5.712   2.741   0.938  0.4974  1.0503  0.2113
 3732TIP3    H232756   5.645   2.876   0.928  1.4134  1.5485  0.6595
 3733TIP3   OH232757   3.619   0.753   1.562  0.0078 -0.1731  0.0767
 3733TIP3    H132758   3.683   0.750   1.491 -0.0703  0.3332 -0.0183
 3733TIP3    H232759   3.670   0.736   1.641  0.5096  1.5169  0.1553
 3734TIP3   OH232760   2.023   2.904   0.007 -0.7379 -0.0973  0.6248
 3734TIP3    H132761   1.983   2.825   0.043 -2.1741 -0.3636 -1.3380
 3734TIP3    H232762   1.989   2.975   0.061 -2.0190 -0.5636  0.4775
 3735TIP3   OH232763   0.267   6.208   0.110 -0.1109  0.8019  0.2070
 3735TIP3    H132764   0.178   6.204   0.143 -0.0950  0.1413  0.1933
 3735TIP3    H232765   0.297   6.296   0.130 -0.6257  0.8943  0.5806
 3736TIP3   OH232766   1.353   4.253   1.608  0.4483 -0.2742  0.3942
 3736TIP3    H132767   1.317   4.171   1.644 -0.4677 -0.9040 -1.8383
 3736TIP3    H232768   1.425   4.224   1.551 -0.2571  0.4183 -0.8721
 3737TIP3   OH232769   6.630   2.718   8.625  0.2220  0.1785 -0.0745
 3737TIP3    H132770   6.703   2.662   8.596 -0.0744  0.6502 -1.8267
 3737TIP3    H232771   6.565   2.711   8.555 -1.3404 -0.0166  1.3342
 3738TIP3   OH232772   6.601   1.831   8.366 -0.2461  0.2761 -0.1803
 3738TIP3    H132773   6.512   1.802   8.386 -0.2233  0.4326  0.1620
 3738TIP3    H232774   6.630   1.774   8.295 -0.3818 -0.2012  0.1501
 3739TIP3   OH232775   2.512   4.856   7.082  0.0488  0.3688 -0.4913
 3739TIP3    H132776   2.533   4.779   7.134  1.1979  0.6081 -0.5759
 3739TIP3    H232777   2.421   4.843   7.055 -0.1653 -0.3383  0.5440
 3740TIP3   OH232778   4.614   6.347   7.476  0.0939 -0.1758  0.4247
 3740TIP3    H132779   4.548   6.402   7.517 -0.0465 -0.7616  0.9988
 3740TIP3    H232780   4.694   6.399   7.479  0.4188 -0.7032  2.6732
 3741TIP3   OH232781   0.210   6.168   7.619 -0.0312 -0.2676 -0.3368
 3741TIP3    H132782   0.296   6.167   7.661 -0.7740 -0.3666  1.2671
 3741TIP3    H232783   0.160   6.233   7.668 -2.0859 -2.9342  1.4220
 3742TIP3   OH232784   2.306   0.035   1.799 -0.0003 -0.4231  0.1312
 3742TIP3    H132785   2.252   0.003   1.726 -1.1448  2.0894 -0.2420
 3742TIP3    H232786   2.394   0.002   1.781 -0.4743 -0.7350 -1.8259
 3743TIP3   OH232787   0.411   0.853   0.882  0.0324  0.3561 -0.0465
 3743TIP3    H132788   0.423   0.913   0.809 -0.6520  1.5290  0.7627
 3743TIP3    H232789   0.499   0.843   0.920  0.2495  0.3765 -0.5421
 3744TIP3   OH232790   3.280   4.676   0.736 -0.3752 -0.4504 -0.4090
 3744TIP3    H132791   3.190   4.659   0.708  0.3451 -1.9026 -2.0553
 3744TIP3    H232792   3.318   4.724   0.663  0.8901 -2.1589 -0.9172
 3745TIP3   OH232793   6.588   1.356   1.222 -0.3335  0.4834  0.3141
 3745TIP3    H132794   6.650   1.376   1.292 -0.0400 -0.3601  0.3087
 3745TIP3    H232795   6.578   1.261   1.226 -0.8320  0.5056 -0.3562
 3746TIP3   OH232796   1.367   4.943   1.593  0.1987 -0.5287 -0.2150
 3746TIP3    H132797   1.403   4.856   1.609 -0.6653 -0.9640 -0.5702
 3746TIP3    H232798   1.374   4.956   1.499 -1.5935 -1.1100 -0.4632
 3747TIP3   OH232799   2.432   4.556   8.461 -0.4706  0.0417 -0.7502
 3747TIP3    H132800   2.371   4.594   8.525  0.4554 -0.1844  0.2825
 3747TIP3    H232801   2.405   4.464   8.455  0.5119 -0.3757  0.6572
 3748TIP3   OH232802   1.897   5.202   1.107  0.1858 -0.1031 -0.0822
 3748TIP3    H132803   1.951   5.263   1.056 -0.2785  1.5441  1.3087
 3748TIP3    H232804   1.835   5.258   1.153 -1.0147 -1.7502  0.3756
 3749TIP3   OH232805   1.058   1.624   7.345 -0.0077 -0.7274 -0.1681
 3749TIP3    H132806   1.121   1.613   7.273 -1.7134  1.6455 -2.1997
 3749TIP3    H232807   1.069   1.715   7.373 -1.4206 -0.7393  0.5034
 3750TIP3   OH232808   0.458   0.050   7.966  0.2127 -0.3669  0.2858
 3750TIP3    H132809   0.528   0.080   8.024 -0.5673 -0.2639  1.1953
 3750TIP3    H232810   0.444  -0.041   7.991  0.1831 -0.4539 -0.0521
 3751TIP3   OH232811   5.338   0.100   1.416  0.3916 -0.0520 -0.2483
 3751TIP3    H132812   5.322   0.069   1.506 -0.7999 -1.1746 -0.8177
 3751TIP3    H232813   5.433   0.093   1.406  0.7370  1.4333  1.3677
 3752TIP3   OH232814   4.983   3.202   7.975  0.0216  0.1274 -0.8121
 3752TIP3    H132815   4.941   3.129   8.020 -0.5063  0.2708 -1.0562
 3752TIP3    H232816   5.054   3.162   7.924  3.3481  0.3435  3.1368
 3753TIP3   OH232817   5.563   2.053   1.051 -0.3228 -0.6973 -0.0476
 3753TIP3    H132818   5.545   2.023   1.141  2.0202  0.9100  1.0611
 3753TIP3    H232819   5.629   1.991   1.018  0.6966  0.1566  0.3300
 3754TIP3   OH232820   0.402   6.404   8.220 -0.2853  0.5875  0.1593
 3754TIP3    H132821   0.332   6.375   8.279 -1.8794 -1.1962 -2.4040
 3754TIP3    H232822   0.479   6.353   8.246 -0.6844  0.5456  1.2822
 3755TIP3   OH232823   5.660   4.232   7.579  0.7137 -0.6231  0.0383
 3755TIP3    H132824   5.610   4.155   7.608  2.8105 -1.6938  1.0638
 3755TIP3    H232825   5.751   4.208   7.595  1.4049  2.4747  1.3097
 3756TIP3   OH232826   2.978   2.667   1.354 -0.4160 -0.2460  0.3235
 3756TIP3    H132827   2.957   2.690   1.444 -0.9057  0.0179  0.1421
 3756TIP3    H232828   2.989   2.751   1.310 -1.7115 -0.3397 -0.2259
 3757TIP3   OH232829   5.484   4.574   1.862  0.5651  0.3851  0.6829
 3757TIP3    H132830   5.528   4.631   1.925 -0.8113  2.5684 -0.2509
 3757TIP3    H232831   5.516   4.602   1.777  2.5060 -2.6269  0.2704
 3758TIP3   OH232832   4.672   6.434   8.449 -0.5367  0.5189  0.2083
 3758TIP3    H132833   4.747   6.475   8.405 -1.3143  1.1329 -0.5987
 3758TIP3    H232834   4.692   6.442   8.542  0.5271  0.4117  0.0061
 3759TIP3   OH232835   1.094   6.132   6.612  0.2586  0.1064 -0.7612
 3759TIP3    H132836   1.089   6.054   6.668  0.9292  0.2279 -0.5332
 3759TIP3    H232837   1.019   6.123   6.553 -0.1822 -0.2605 -0.1566
 3760TIP3   OH232838   2.761   1.750   8.581 -0.2090 -0.0817  0.4141
 3760TIP3    H132839   2.812   1.787   8.652  0.4220 -0.5739  0.2234
 3760TIP3    H232840   2.825   1.724   8.515 -0.4961 -2.4768  0.9677
 3761TIP3   OH232841   5.597   3.318   1.392 -0.3707 -0.1948  0.4112
 3761TIP3    H132842   5.558   3.336   1.306  0.3293  0.9828  0.3123
 3761TIP3    H232843   5.612   3.224   1.393 -0.9329 -0.3064 -0.5166
 3762TIP3   OH232844   1.254   2.318   0.848 -0.8323  0.1725  0.7961
 3762TIP3    H132845   1.202   2.277   0.779 -0.4495  0.3565  0.3899
 3762TIP3    H232846   1.192   2.370   0.898 -0.9481  0.8720 -0.0469
 3763TIP3   OH232847   3.904   5.543   8.074  0.2433 -0.0119 -0.4503
 3763TIP3    H132848   3.857   5.460   8.074 -1.2200  0.7787  1.1858
 3763TIP3    H232849   3.849   5.603   8.024  1.0773  0.1294 -1.2423
 3764TIP3   OH232850   5.173   2.991   1.173 -0.1591 -0.1271 -0.2814
 3764TIP3    H132851   5.152   3.036   1.091  0.0687  0.8394  0.1785
 3764TIP3    H232852   5.114   2.917   1.175  0.3436 -0.6080 -1.6875
 3765TIP3   OH232853   2.666   6.511   1.600  0.0406  0.1205 -0.4032
 3765TIP3    H132854   2.730   6.454   1.643  1.0143  0.4415 -1.3543
 3765TIP3    H232855   2.582   6.489   1.640  0.8677  0.3305  1.5434
 3766TIP3   OH232856   5.224   5.715   0.995 -0.0008  0.0804 -0.3390
 3766TIP3    H132857   5.242   5.806   1.019  2.5631 -0.1643 -1.0025
 3766TIP3    H232858   5.189   5.675   1.075 -0.1956  1.4069  0.2596
 3767TIP3   OH232859   2.924   4.473   1.922  0.0577  0.4467  0.4926
 3767TIP3    H132860   2.945   4.398   1.977  1.3853 -1.2361 -2.0711
 3767TIP3    H232861   3.008   4.519   1.911 -0.4027  1.3595  0.7274
 3768TIP3   OH232862   5.631   0.160   7.906 -0.1972  0.5391 -1.0209
 3768TIP3    H132863   5.658   0.121   7.989  2.1901  2.4163 -0.8283
 3768TIP3    H232864   5.709   0.204   7.873 -1.1006 -0.0244 -4.2332
 3769TIP3   OH232865   0.558   1.474   1.080 -0.1530  0.2217  0.3758
 3769TIP3    H132866   0.589   1.395   1.125 -1.4199 -1.0456 -0.8940
 3769TIP3    H232867   0.475   1.495   1.123 -0.4704  0.0770 -0.1586
 3770TIP3   OH232868   0.751   4.839   0.983 -0.1055  0.3088 -0.3328
 3770TIP3    H132869   0.837   4.800   0.973 -0.1235  0.5399 -1.5145
 3770TIP3    H232870   0.765   4.915   1.039  0.1333 -0.6501  0.9558
 3771TIP3   OH232871   2.663   1.588   6.860 -0.1988 -0.3440  0.2316
 3771TIP3    H132872   2.571   1.587   6.832 -0.3832 -0.0750  0.8162
 3771TIP3    H232873   2.696   1.673   6.832 -1.2956  1.3721  3.6305
 3772TIP3   OH232874   3.742   2.095   1.863 -0.3655 -0.1479  0.0841
 3772TIP3    H132875   3.710   2.159   1.927 -1.1566  1.2348 -1.5955
 3772TIP3    H232876   3.773   2.149   1.790  2.9802 -1.5576  0.3171
 3773TIP3   OH232877   4.443   5.638   8.228 -0.6137 -0.3378 -0.4277
 3773TIP3    H132878   4.352   5.653   8.202 -0.2814 -1.4080 -2.4069
 3773TIP3    H232879   4.492   5.646   8.146  0.5597 -3.7356 -0.2141
 3774TIP3   OH232880   4.074   5.785   8.545  0.3543  0.1798 -0.1254
 3774TIP3    H132881   4.073   5.694   8.576  0.1164  0.1735 -0.1482
 3774TIP3    H232882   4.029   5.834   8.614 -2.4786 -0.1934 -1.5382
 3775TIP3   OH232883   3.857   4.354   8.565  0.6889  0.1718 -0.2308
 3775TIP3    H132884   3.927   4.346   8.630 -0.2603  1.2911  0.9844
 3775TIP3    H232885   3.863   4.274   8.513  3.1002  0.4315 -0.4219
 3776TIP3   OH232886   3.217   5.182   0.169  0.3263 -0.0735 -0.1036
 3776TIP3    H132887   3.223   5.159   0.261  0.9843  1.1202  0.1703
 3776TIP3    H232888   3.124   5.202   0.155 -0.0655 -1.7396 -0.1014
 3777TIP3   OH232889   3.376   5.980   8.474  0.4343 -0.8365 -0.1331
 3777TIP3    H132890   3.288   6.014   8.457  0.3092 -1.3266 -0.4828
 3777TIP3    H232891   3.432   6.057   8.470  0.1813 -0.6900 -1.1169
 3778TIP3   OH232892   2.630   5.244   8.293  0.3136  0.0944 -0.9361
 3778TIP3    H132893   2.630   5.226   8.387 -0.1210  4.0402 -0.0064
 3778TIP3    H232894   2.720   5.227   8.266  0.5214 -0.8239  0.2603
 3779TIP3   OH232895   5.853   5.607   6.980  0.0387  0.6653 -0.7463
 3779TIP3    H132896   5.873   5.648   6.896  1.7299 -1.6747 -1.5838
 3779TIP3    H232897   5.926   5.547   6.996  0.1895  1.5839  2.8285
 3780TIP3   OH232898   6.554   4.356   1.064  0.4632 -0.1185  0.1544
 3780TIP3    H132899   6.499   4.392   1.134  1.0663  3.8717 -1.1721
 3780TIP3    H232900   6.628   4.317   1.110 -0.6773 -0.4541  1.7944
 3781TIP3   OH232901   6.140   4.095   7.475 -1.2326 -0.0533  0.3705
 3781TIP3    H132902   6.154   4.003   7.496  1.6390  0.6571  2.1727
 3781TIP3    H232903   6.172   4.105   7.386  1.7121 -0.2697  1.3026
 3782TIP3   OH232904   6.078   0.731   6.907  0.1647 -0.1020 -0.1779
 3782TIP3    H132905   6.122   0.695   6.831 -0.3647  0.5013 -0.7815
 3782TIP3    H232906   6.142   0.726   6.978  1.3856  1.2084 -1.1355
 3783TIP3   OH232907   6.472   0.377   0.971  0.3779  0.3675 -0.4279
 3783TIP3    H132908   6.480   0.350   0.880 -1.0341 -2.3057  0.1354
 3783TIP3    H232909   6.517   0.308   1.021 -1.5070  0.1139  1.0362
 3784TIP3   OH232910   0.320   2.038   2.290  0.1534 -0.1844  0.2163
 3784TIP3    H132911   0.307   2.060   2.198  1.6188 -0.9305 -0.2039
 3784TIP3    H232912   0.415   2.034   2.301  0.0318 -2.4751  1.1313
 3785TIP3   OH232913   6.653   5.477   8.294 -0.7262 -0.3897  0.9600
 3785TIP3    H132914   6.696   5.552   8.252  1.1344 -2.3113 -0.7804
 3785TIP3    H232915   6.560   5.487   8.271 -0.2994  0.6417 -0.4365
 3786TIP3   OH232916   3.647   0.159   0.845 -0.7962  0.1412 -0.0649
 3786TIP3    H132917   3.628   0.210   0.924  0.6948  2.7548 -1.2506
 3786TIP3    H232918   3.563   0.121   0.820 -1.5114  0.0929  2.1698
 3787TIP3   OH232919   5.903   5.145   1.418  0.4449  0.2040  0.1955
 3787TIP3    H132920   5.875   5.155   1.327 -3.1604 -0.4403  1.0864
 3787TIP3    H232921   5.887   5.053   1.439  0.4165  0.5231  1.7097
 3788TIP3   OH232922   6.241   6.161   8.088 -0.4669  0.6589 -0.3999
 3788TIP3    H132923   6.164   6.214   8.073 -0.8736 -0.1325 -1.2368
 3788TIP3    H232924   6.302   6.187   8.019 -0.9602 -0.4676 -1.2881
 3789TIP3   OH232925   6.182   2.854   0.648  0.2385 -0.4550  0.4198
 3789TIP3    H132926   6.113   2.921   0.647  0.4330 -0.2455  0.9426
 3789TIP3    H232927   6.262   2.902   0.668  0.5129 -0.7304  0.0152
 3790TIP3   OH232928   0.025   4.676   6.484 -0.3282 -0.3339 -0.5545
 3790TIP3    H132929   0.105   4.727   6.474  0.1183 -1.1481 -1.2612
 3790TIP3    H232930   0.043   4.617   6.556  0.1291 -1.2631 -1.4065
 3791TIP3   OH232931   4.860   3.444   7.935 -0.0019  0.7494  0.3906
 3791TIP3    H132932   4.769   3.416   7.944  0.2563 -0.2073  0.1817
 3791TIP3    H232933   4.910   3.362   7.933  1.0592  1.2813  2.3314
 3792TIP3   OH232934   6.075   2.518   1.075  0.5917  0.3891  0.2341
 3792TIP3    H132935   5.995   2.491   1.120  0.4180  1.5971  0.6896
 3792TIP3    H232936   6.098   2.602   1.116  2.0675  0.0838  0.0781
 3793TIP3   OH232937   6.693   3.308   1.238  0.5158  0.4930  0.2323
 3793TIP3    H132938   6.617   3.351   1.277 -0.6604 -0.4778 -0.8982
 3793TIP3    H232939   6.694   3.220   1.276  3.8148  1.7782  3.7220
 3794TIP3   OH232940   1.113   6.243   2.172 -0.0553  1.1186  0.4726
 3794TIP3    H132941   1.172   6.319   2.174  1.2394  0.1847 -0.6798
 3794TIP3    H232942   1.086   6.232   2.263  1.6761  1.5058  1.0787
 3795TIP3   OH232943   1.677   0.256   6.188 -0.1381 -0.2258 -0.3232
 3795TIP3    H132944   1.626   0.324   6.143  0.1910 -0.6748 -1.4186
 3795TIP3    H232945   1.724   0.212   6.117  0.0442 -1.2650  0.4295
 3796TIP3   OH232946   4.389   2.266   7.018  0.3827 -0.5518 -0.2267
 3796TIP3    H132947   4.305   2.288   6.977 -0.7275 -1.4969  1.3806
 3796TIP3    H232948   4.425   2.350   7.046 -1.4385 -0.2619  1.5345
 3797TIP3   OH232949   0.864   1.075   8.052  0.2072 -0.0074  0.1265
 3797TIP3    H132950   0.951   1.108   8.072  0.9491 -2.4304  1.2223
 3797TIP3    H232951   0.810   1.100   8.128  0.7443 -1.1555  0.9129
 3798TIP3   OH232952   3.536   1.936   1.711  0.3175  0.3300 -0.2449
 3798TIP3    H132953   3.623   1.966   1.738  0.4462 -0.6280  0.4792
 3798TIP3    H232954   3.532   1.845   1.741 -0.5655  0.0569 -1.1519
 3799TIP3   OH232955   4.243   2.761   1.278  0.2173  1.0775  0.0649
 3799TIP3    H132956   4.200   2.769   1.193 -0.2183  1.4542  0.3141
 3799TIP3    H232957   4.336   2.752   1.257  0.0375  0.4226 -0.4740
 3800TIP3   OH232958   4.507   4.175   6.465  0.1090  0.2843 -0.2626
 3800TIP3    H132959   4.576   4.110   6.483 -0.1352  0.0657 -0.1026
 3800TIP3    H232960   4.528   4.248   6.523  0.1702  0.1894 -0.1634
 3801TIP3   OH232961   1.893   3.944   6.768 -0.3498 -0.0086 -0.4803
 3801TIP3    H132962   1.967   3.899   6.728 -0.3478  2.0452 -3.1011
 3801TIP3    H232963   1.818   3.918   6.714 -1.4967 -1.5345  1.7242
 3802TIP3   OH232964   6.126   1.793   6.807  0.4356  0.3097  0.5903
 3802TIP3    H132965   6.152   1.755   6.724  0.1015  0.8276  0.2411
 3802TIP3    H232966   6.036   1.761   6.821  0.1012  1.0531  0.2264
 3803TIP3   OH232967   1.758   4.100   0.582 -0.0137 -0.2986 -0.4140
 3803TIP3    H132968   1.777   4.095   0.488 -0.1270  1.5865 -0.5741
 3803TIP3    H232969   1.820   4.038   0.622  2.1788  1.0518 -1.4988
 3804TIP3   OH232970   3.941   5.335   0.482  0.2050 -0.6646 -0.4405
 3804TIP3    H132971   3.971   5.402   0.544  0.0280  0.2640 -1.3421
 3804TIP3    H232972   3.951   5.253   0.530  0.5283 -0.0118  0.6517
 3805TIP3   OH232973   2.134   6.077   0.784  0.3543  0.0519  0.0423
 3805TIP3    H132974   2.180   5.994   0.797  1.5442  0.9166  1.5876
 3805TIP3    H232975   2.062   6.054   0.725  0.0591 -2.2946  1.1715
 3806TIP3   OH232976   6.026   1.156   7.900 -0.6159 -0.2526 -0.4298
 3806TIP3    H132977   6.064   1.225   7.845  0.2738 -1.4469 -1.3720
 3806TIP3    H232978   6.036   1.076   7.848 -2.3868 -0.9884  0.2679
 3807TIP3   OH232979   4.782   4.945   6.686 -0.1721  0.2921 -0.1963
 3807TIP3    H132980   4.704   4.891   6.673  0.0974  0.1824 -1.4754
 3807TIP3    H232981   4.846   4.912   6.623  1.5692 -0.7674  1.9490
 3808TIP3   OH232982   4.060   1.047   7.019 -0.5915  0.1223 -0.1931
 3808TIP3    H132983   4.113   1.110   6.971 -1.8468  0.1983 -1.5315
 3808TIP3    H232984   4.059   0.969   6.964  0.5340 -0.9610  1.2130
 3809TIP3   OH232985   3.163   5.982   8.242 -0.2547 -0.8048 -0.3254
 3809TIP3    H132986   3.133   5.999   8.153 -0.1419 -1.6273 -0.5285
 3809TIP3    H232987   3.246   5.936   8.232  1.1381  1.4536  0.2382
 3810TIP3   OH232988   0.506   2.940   2.683  0.1142  0.4653  0.2481
 3810TIP3    H132989   0.584   2.993   2.675  0.9856 -0.9019 -0.7980
 3810TIP3    H232990   0.468   2.939   2.596 -0.5054  0.2739  0.5103
 3811TIP3   OH232991   0.728   3.893   2.566 -0.4097 -0.3787 -0.3490
 3811TIP3    H132992   0.727   3.940   2.483  0.2920 -1.4165 -0.9598
 3811TIP3    H232993   0.798   3.828   2.557  1.4577  1.1569  1.9979
 3812TIP3   OH232994   6.034   5.559   0.029  0.2207  0.5489  0.0033
 3812TIP3    H132995   5.950   5.567  -0.015  0.7082  0.2018 -1.0225
 3812TIP3    H232996   6.043   5.640   0.079  0.5805  1.9482 -2.2056
 3813TIP3   OH232997   2.649   2.377   1.555  0.0750 -0.4995 -0.4250
 3813TIP3    H132998   2.732   2.334   1.537  1.4815  1.5523  0.7793
 3813TIP3    H232999   2.624   2.417   1.472  0.3705 -0.9933 -0.7540
 3814TIP3   OH233000   4.886   3.320   8.328 -0.0182 -0.0912  0.2748
 3814TIP3    H133001   4.923   3.321   8.240  0.2386  1.5001  0.3849
 3814TIP3    H233002   4.812   3.380   8.323 -1.1198 -1.3697  0.6989
 3815TIP3   OH233003   2.865   2.626   7.920 -0.3597 -0.2809  0.3669
 3815TIP3    H133004   2.778   2.600   7.951 -0.1767 -0.3052  0.8761
 3815TIP3    H233005   2.858   2.720   7.905 -0.3457 -0.1920  0.8771
 3816TIP3   OH233006   2.775   1.464   1.343 -0.2452 -0.0418  0.3149
 3816TIP3    H133007   2.744   1.468   1.253  2.1017  0.3604 -0.5631
 3816TIP3    H233008   2.715   1.404   1.387 -1.7099  0.0918 -1.3801
 3817TIP3   OH233009   5.791   2.083   8.505  0.3604 -0.7010  0.1455
 3817TIP3    H133010   5.727   2.020   8.472  0.2706 -0.6786  0.2753
 3817TIP3    H233011   5.743   2.166   8.509  0.7796 -0.3733 -1.0721
 3818TIP3   OH233012   1.474   2.257   1.303  0.4790 -0.2698  0.3531
 3818TIP3    H133013   1.401   2.294   1.253  0.3808 -1.0110 -0.0735
 3818TIP3    H233014   1.496   2.324   1.367 -0.4333  0.0516  0.3437
 3819TIP3   OH233015   4.607   5.426   7.759  0.2215  0.1038 -0.0586
 3819TIP3    H133016   4.650   5.413   7.675 -1.7717 -0.0590 -1.1289
 3819TIP3    H233017   4.613   5.520   7.775  0.6449  0.1280 -0.3524
 3820TIP3   OH233018   2.702   3.585   8.639  0.4511 -0.1893 -0.1949
 3820TIP3    H133019   2.623   3.629   8.671 -0.9738 -1.5697 -1.6021
 3820TIP3    H233020   2.676   3.493   8.633  2.0506 -0.6089 -1.1025
 3821TIP3   OH233021   5.695   6.451   1.803 -0.2826 -0.3840  0.9410
 3821TIP3    H133022   5.751   6.386   1.761  1.0657 -0.1456  2.2751
 3821TIP3    H233023   5.730   6.535   1.776  0.8146 -0.2213  2.6803
 3822TIP3   OH233024   4.498   3.015   0.262  0.0826 -0.0853 -0.0984
 3822TIP3    H133025   4.529   3.017   0.352  0.8658  1.5386 -0.3616
 3822TIP3    H233026   4.547   3.084   0.218 -0.9935 -0.1763 -1.5359
 3823TIP3   OH233027   3.112   4.140   6.982  0.1215 -0.0517  0.1292
 3823TIP3    H133028   3.197   4.165   7.018 -0.3746  0.8451  0.7374
 3823TIP3    H233029   3.078   4.221   6.944 -0.0199 -0.6409 -1.0483
 3824TIP3   OH233030   5.311   1.829   8.621 -0.0575 -0.1576  0.2633
 3824TIP3    H133031   5.291   1.846   8.529 -0.8120  1.1319  0.6402
 3824TIP3    H233032   5.232   1.857   8.668 -0.5305 -2.7172  1.1787
 3825TIP3   OH233033   4.181   2.573   7.762 -0.0396 -0.0379  0.2427
 3825TIP3    H133034   4.274   2.596   7.768 -0.0435 -0.3666  2.2395
 3825TIP3    H233035   4.138   2.654   7.735  0.8378  0.0158 -1.1149
 3826TIP3   OH233036   6.330   3.514   8.175  0.5635  0.5820 -0.2138
 3826TIP3    H133037   6.385   3.534   8.099  0.0947 -0.9199 -0.9832
 3826TIP3    H233038   6.270   3.446   8.144 -1.1233  1.5196  0.8842
 3827TIP3   OH233039   4.675   1.028   7.723 -0.1341  0.2651 -0.1977
 3827TIP3    H133040   4.730   1.094   7.766 -0.6655  0.2813  0.4833
 3827TIP3    H233041   4.618   1.079   7.665 -1.9940  0.6936  1.8669
 3828TIP3   OH233042   3.785   0.712   0.876 -0.6114 -0.3344  0.4070
 3828TIP3    H133043   3.857   0.763   0.839 -1.5000  0.1696 -0.6518
 3828TIP3    H233044   3.728   0.776   0.917 -1.7728 -0.4304 -0.9968
 3829TIP3   OH233045   2.643   5.953   7.193 -0.5024 -0.3867  0.3185
 3829TIP3    H133046   2.648   5.891   7.120  0.6289 -0.3678  0.3604
 3829TIP3    H233047   2.641   6.039   7.151 -0.8987 -0.4152  0.2829
 3830TIP3   OH233048   6.097   0.692   7.610  0.2292  0.1170  0.2757
 3830TIP3    H133049   6.094   0.728   7.522  0.7138  0.6239  0.4577
 3830TIP3    H233050   6.153   0.615   7.603  0.0042 -0.0294  0.0808
 3831TIP3   OH233051   4.142   4.755   8.613  0.1187  0.2178 -0.4906
 3831TIP3    H133052   4.065   4.795   8.652  0.3081  0.6680 -0.5762
 3831TIP3    H233053   4.175   4.820   8.551  0.8773  0.2527 -0.0644
 3832TIP3   OH233054   4.264   5.096   1.038 -0.0488 -0.3945 -0.1534
 3832TIP3    H133055   4.311   5.079   1.119 -1.1814 -0.5930  0.4762
 3832TIP3    H233056   4.184   5.141   1.065  0.3605  1.1285 -1.3200
 3833TIP3   OH233057   0.853   5.828   0.068  0.5233  0.5139 -0.4086
 3833TIP3    H133058   0.822   5.905   0.115  0.8460  0.8824 -0.8003
 3833TIP3    H233059   0.944   5.847   0.047  1.3892 -0.9856  1.6436
 3834TIP3   OH233060   3.235   4.587   1.014 -0.5335  0.4323 -0.3726
 3834TIP3    H133061   3.141   4.579   1.029 -0.6958  2.0796 -0.2719
 3834TIP3    H233062   3.244   4.603   0.920 -0.4098  0.9111 -0.2811
 3835TIP3   OH233063   3.084   6.670   0.464 -0.4770 -0.2901  0.7327
 3835TIP3    H133064   3.138   6.590   0.463 -1.9916 -1.3566  1.0659
 3835TIP3    H233065   3.145   6.739   0.490  0.4849 -1.6452  2.3290
 3836TIP3   OH233066   1.425   2.966   8.652  0.4380  0.1135  0.2716
 3836TIP3    H133067   1.396   2.976   8.561  1.3523 -2.6589 -0.4270
 3836TIP3    H233068   1.521   2.966   8.647  0.5068 -1.7923  0.9491
 3837TIP3   OH233069   3.364   4.565   6.686  0.2126 -0.1305  0.3878
 3837TIP3    H133070   3.289   4.622   6.705  0.5468  0.3945  0.1559
 3837TIP3    H233071   3.434   4.625   6.660  0.0517 -0.7240 -1.5976
 3838TIP3   OH233072   2.383   0.492   7.229  0.1058  0.4855 -1.0016
 3838TIP3    H133073   2.337   0.462   7.150  1.4436 -0.4600 -1.4618
 3838TIP3    H233074   2.411   0.581   7.207 -0.1164  0.4834 -1.3157
 3839TIP3   OH233075   4.483   4.195   7.796  0.4708 -0.6114  0.4556
 3839TIP3    H133076   4.496   4.190   7.891 -0.0591  0.1388  0.5799
 3839TIP3    H233077   4.531   4.120   7.761  3.6632  0.9881  1.0056
 3840TIP3   OH233078   3.044   6.512   8.662  0.2098 -0.1740 -0.5076
 3840TIP3    H133079   3.019   6.503   8.570 -0.7985 -0.3465 -0.2342
 3840TIP3    H233080   2.999   6.440   8.706  0.4605  0.0696  0.1573
 3841TIP3   OH233081   0.541   5.028   7.670  0.1081  0.0041  0.1691
 3841TIP3    H133082   0.611   5.067   7.723 -1.0794  1.5333  0.6873
 3841TIP3    H233083   0.466   5.023   7.729 -0.9406  0.7201 -1.0568
 3842TIP3   OH233084   5.385   2.805   1.217  0.0900 -0.1268  0.0784
 3842TIP3    H133085   5.305   2.855   1.206  0.7647  1.0606  0.4134
 3842TIP3    H233086   5.415   2.826   1.306  0.5194 -0.9375  0.1394
 3843TIP3   OH233087   4.771   6.672   8.189  0.7604  0.3654  0.5208
 3843TIP3    H133088   4.718   6.596   8.213  2.1067  0.0912  3.0602
 3843TIP3    H233089   4.717   6.748   8.211  0.2989  0.1141  0.2448
 3844TIP3   OH233090   4.660   1.375   7.833 -0.0086  0.4283 -0.6275
 3844TIP3    H133091   4.634   1.445   7.893  0.0912 -0.8013  0.9223
 3844TIP3    H233092   4.621   1.399   7.749  0.3678  2.5263 -0.2557
 3845TIP3   OH233093   0.900   3.267   8.276 -0.3600 -0.0687  0.2861
 3845TIP3    H133094   0.924   3.181   8.241  0.9264  1.1191 -1.9817
 3845TIP3    H233095   0.821   3.292   8.229  0.8496  1.1385 -1.2082
 3846TIP3   OH233096   1.782   0.133   1.267  0.5095 -0.3550  0.6688
 3846TIP3    H133097   1.774   0.076   1.190 -2.0314 -0.3819  0.8828
 3846TIP3    H233098   1.850   0.196   1.243 -2.9795  2.3923 -3.4962
 3847TIP3   OH233099   1.906   1.971   8.102  0.1535  0.3403 -0.3175
 3847TIP3    H133100   1.965   2.000   8.171 -0.7426  0.8517  0.2465
 3847TIP3    H233101   1.828   1.939   8.148 -0.4559  0.6836 -1.0866
 3848TIP3   OH233102   3.366   6.378   0.333  0.1938  0.5455  0.1755
 3848TIP3    H133103   3.284   6.351   0.375 -0.4731  1.8681 -0.2327
 3848TIP3    H233104   3.426   6.394   0.406 -0.4816  1.3416  0.5688
 3849TIP3   OH233105   5.347   4.690   0.493 -0.0383  0.0417  0.0119
 3849TIP3    H133106   5.421   4.666   0.549 -1.1301  0.6980  1.8013
 3849TIP3    H233107   5.386   4.746   0.425  1.0092  1.0140  1.3672
 3850TIP3   OH233108   1.641   0.092   8.303  0.3123  1.0429  0.0818
 3850TIP3    H133109   1.672   0.096   8.212  1.2243 -1.4000  0.2011
 3850TIP3    H233110   1.609   0.002   8.313  2.8184  0.2900  2.8866
 3851TIP3   OH233111   3.546   6.854   7.417 -0.0096  0.2245 -0.2849
 3851TIP3    H133112   3.598   6.775   7.404 -1.4958 -1.2171  1.8225
 3851TIP3    H233113   3.547   6.869   7.512  1.4150  3.6714 -0.6912
 3852TIP3   OH233114   0.459   5.021   1.693  0.2183  0.0870 -0.0750
 3852TIP3    H133115   0.444   5.042   1.601 -0.0434 -0.6764 -0.2101
 3852TIP3    H233116   0.400   4.949   1.712  0.1640  0.3315  0.7378
 3853TIP3   OH233117   4.558   4.330   1.769 -0.0588 -0.0512 -0.4933
 3853TIP3    H133118   4.559   4.386   1.847  0.4502 -0.6738 -0.0466
 3853TIP3    H233119   4.528   4.388   1.699  1.6461  1.1429 -0.3118
 3854TIP3   OH233120   0.964   3.163   2.059 -0.4895  0.7573  0.3773
 3854TIP3    H133121   0.917   3.087   2.092  0.1182  0.5649  0.8158
 3854TIP3    H233122   1.053   3.154   2.095  0.1358  0.6656 -1.1264
 3855TIP3   OH233123   6.857   4.973   3.142 -0.6017  0.4190  0.6768
 3855TIP3    H133124   6.881   5.044   3.083 -0.3129 -1.4678 -1.6651
 3855TIP3    H233125   6.766   4.953   3.118 -0.3786 -0.5717  0.6136
 3856TIP3   OH233126   5.506   5.931   6.588  0.5200  0.9585  0.2380
 3856TIP3    H133127   5.529   6.023   6.602  1.0163  0.6359  1.7334
 3856TIP3    H233128   5.576   5.896   6.534  1.6001  0.9197  1.6117
 3857TIP3   OH233129   1.155   3.511   1.057 -0.7514  0.3235  0.2915
 3857TIP3    H133130   1.181   3.422   1.035 -0.9808  0.1961  0.5253
 3857TIP3    H233131   1.063   3.503   1.083 -0.9625  0.7279 -0.3008
 3858TIP3   OH233132   5.872   1.820   7.721 -0.7256  0.3141 -0.5899
 3858TIP3    H133133   5.839   1.855   7.638 -1.7087 -0.6441 -0.6266
 3858TIP3    H233134   5.808   1.849   7.786 -1.5574 -1.3013 -0.6151
 3859TIP3   OH233135   2.607   4.845   7.600  0.2397 -0.7940  0.4901
 3859TIP3    H133136   2.672   4.832   7.669  0.3480  2.0668  1.0436
 3859TIP3    H233137   2.604   4.761   7.555  3.9301 -1.2502  0.7543
 3860TIP3   OH233138   5.750   0.755   1.342 -0.1891 -0.7104  0.6365
 3860TIP3    H133139   5.776   0.833   1.390 -1.0734  0.4567 -0.7245
 3860TIP3    H233140   5.675   0.720   1.390 -0.5296 -0.0471  0.5943
 3861TIP3   OH233141   4.415   2.190   2.109  0.5474 -0.0768 -0.5560
 3861TIP3    H133142   4.327   2.177   2.073  1.5155  0.8316 -3.5609
 3861TIP3    H233143   4.419   2.284   2.128  0.2738 -0.4383  1.5233
 3862TIP3   OH233144   6.535   0.360   6.701 -0.1520 -0.5472 -0.4219
 3862TIP3    H133145   6.510   0.445   6.737  0.9279 -0.2802 -0.2546
 3862TIP3    H233146   6.474   0.346   6.628  0.2662  0.8488 -1.0849
 3863TIP3   OH233147   0.493   0.384   6.130 -0.3012  0.4727 -0.1298
 3863TIP3    H133148   0.398   0.394   6.131 -0.8957 -3.4476 -0.6643
 3863TIP3    H233149   0.509   0.296   6.164  3.1441  0.8492 -0.3248
 3864TIP3   OH233150   3.459   0.295   2.257 -0.0614  0.8725 -0.1866
 3864TIP3    H133151   3.483   0.308   2.349  0.0662 -0.2330 -0.0480
 3864TIP3    H233152   3.496   0.210   2.235  1.1446  1.7149 -1.6836
 3865TIP3   OH233153   1.205   5.343   0.005 -0.2460  0.1094  0.0020
 3865TIP3    H133154   1.159   5.418   0.042  0.0860 -1.1436  3.2257
 3865TIP3    H233155   1.163   5.267   0.045  1.1726 -1.3129 -1.0886
 3866TIP3   OH233156   1.766   4.602   1.068 -0.3491  0.0566  0.3156
 3866TIP3    H133157   1.748   4.626   1.159 -0.9282  1.0433 -0.0385
 3866TIP3    H233158   1.690   4.550   1.041  0.3214 -1.1670  0.7009
 3867TIP3   OH233159   4.726   6.100   8.440  0.5466  0.9300 -0.4125
 3867TIP3    H133160   4.730   6.124   8.533  2.1211  0.4475 -0.3257
 3867TIP3    H233161   4.805   6.048   8.425 -0.7271 -0.7867 -1.5535
 3868TIP3   OH233162   0.519   1.444   7.557 -0.2790 -0.0835  0.1305
 3868TIP3    H133163   0.497   1.421   7.647 -0.5396 -2.0320 -0.3875
 3868TIP3    H233164   0.436   1.438   7.510  0.2126 -1.1708 -0.6294
 3869TIP3   OH233165   3.762   4.007   7.827  0.3663 -0.2852 -0.4102
 3869TIP3    H133166   3.841   4.027   7.877 -0.1933  1.6436 -0.2384
 3869TIP3    H233167   3.794   3.963   7.748  1.7875  1.8794 -1.1121
 3870TIP3   OH233168   1.557   0.717   0.209 -0.1052  0.3554  0.4168
 3870TIP3    H133169   1.641   0.693   0.247 -0.6364 -0.5785  1.0451
 3870TIP3    H233170   1.578   0.747   0.121  1.0112  1.3267  0.9777
 3871TIP3   OH233171   0.617   3.544   0.404 -0.3155 -0.0465  0.2913
 3871TIP3    H133172   0.695   3.593   0.377  0.4018 -1.0368  0.5128
 3871TIP3    H233173   0.546   3.608   0.400  0.3903  0.7142 -0.5314
 3872TIP3   OH233174   2.683   6.210   8.654  0.1242 -0.1051 -0.0094
 3872TIP3    H133175   2.702   6.222   8.561  0.1563 -2.7216 -0.4282
 3872TIP3    H233176   2.590   6.189   8.657 -0.0581  0.7776  0.6572
 3873TIP3   OH233177   3.956   5.992   0.654 -0.0304  0.1273  0.3123
 3873TIP3    H133178   4.001   6.039   0.724  1.9818 -0.3852 -0.5715
 3873TIP3    H233179   3.951   6.055   0.582  1.7276 -0.6223 -0.5091
 3874TIP3   OH233180   3.527   3.203   0.567 -0.3787  0.5984 -0.3200
 3874TIP3    H133181   3.498   3.291   0.545  0.1193  0.6054 -0.9831
 3874TIP3    H233182   3.530   3.202   0.663  0.8042  1.7091 -0.3161
 3875TIP3   OH233183   5.163   6.832   0.807  0.7018 -0.1656 -0.3912
 3875TIP3    H133184   5.238   6.890   0.791  0.0440  0.4572 -1.4047
 3875TIP3    H233185   5.177   6.758   0.748  1.8739 -1.4243  1.3668
 3876TIP3   OH233186   6.429   5.656   7.231  0.0526  0.3061 -0.5719
 3876TIP3    H133187   6.366   5.653   7.303  0.8812  1.0083  0.2113
 3876TIP3    H233188   6.382   5.622   7.156 -1.2239  0.7051  0.0235
 3877TIP3   OH233189   0.553   3.922   7.461  0.2203  0.8241  0.2769
 3877TIP3    H133190   0.530   3.860   7.392 -0.9663  2.6972 -1.0972
 3877TIP3    H233191   0.496   3.900   7.535  0.2707 -0.1015  0.0424
 3878TIP3   OH233192   2.066   2.709   7.580  0.1335 -0.0517  0.1089
 3878TIP3    H133193   2.011   2.674   7.510  0.6012  1.8232 -1.2847
 3878TIP3    H233194   2.113   2.633   7.614 -1.3200 -1.2667 -0.4799
 3879TIP3   OH233195   2.718   1.526   0.487  0.3062 -0.0131  0.1231
 3879TIP3    H133196   2.728   1.555   0.396 -0.4132  0.5832  0.2279
 3879TIP3    H233197   2.751   1.436   0.486  1.1296  0.2809 -0.5361
 3880TIP3   OH233198   6.315   4.657   7.615 -0.0960 -0.0674 -0.5066
 3880TIP3    H133199   6.299   4.742   7.574 -0.5145  1.7831  3.0651
 3880TIP3    H233200   6.406   4.660   7.643  0.3327 -1.4729 -1.6267
 3881TIP3   OH233201   1.518   5.056   2.087 -0.2699  0.2096  0.0589
 3881TIP3    H133202   1.510   5.055   1.992 -1.2201 -0.8511  0.1288
 3881TIP3    H233203   1.587   5.120   2.105  0.0750  0.2577 -1.3490
 3882TIP3   OH233204   1.886   1.494   7.584  0.1821 -0.8768 -0.2154
 3882TIP3    H133205   1.879   1.408   7.625 -1.9533 -1.0316 -0.7739
 3882TIP3    H233206   1.796   1.519   7.564  0.5814  2.0870  1.1129
 3883TIP3   OH233207   6.521   3.746   0.197  0.5939  0.3063  0.2548
 3883TIP3    H133208   6.598   3.691   0.206 -0.9764 -1.9806  0.6740
 3883TIP3    H233209   6.504   3.749   0.103 -0.3379 -1.5671  0.3166
 3884TIP3   OH233210   1.963   4.133   5.982 -0.0224 -0.6172  0.3707
 3884TIP3    H133211   2.003   4.097   6.061 -1.2571 -0.7872  0.9441
 3884TIP3    H233212   1.945   4.225   6.005 -0.1810 -0.6073  0.2071
 3885TIP3   OH233213   5.424   4.326   7.103 -0.4580  0.0963  0.2672
 3885TIP3    H133214   5.367   4.306   7.028  1.7660 -0.6975 -1.3178
 3885TIP3    H233215   5.467   4.408   7.079 -1.1453  0.8860  1.6107
 3886TIP3   OH233216   2.734   2.627   6.301 -0.4137  0.1073 -0.2602
 3886TIP3    H133217   2.679   2.678   6.242 -2.3882  0.2196  1.5492
 3886TIP3    H233218   2.822   2.635   6.265 -1.3519  1.1029 -2.4907
 3887TIP3   OH233219   1.913   0.680   0.011  0.5581 -0.0430  0.5483
 3887TIP3    H133220   1.836   0.683  -0.046  0.8869  1.8185  0.1342
 3887TIP3    H233221   1.899   0.751   0.074  2.7491  1.6222 -0.7056
 3888TIP3   OH233222   5.682   5.678   0.609 -0.0964  0.1953  0.3358
 3888TIP3    H133223   5.734   5.605   0.642  0.7326  0.8189  0.4492
 3888TIP3    H233224   5.638   5.714   0.686 -0.9874 -0.5383  0.1895
 3889TIP3   OH233225   4.399   5.542   0.415  0.0284  0.6255 -0.1376
 3889TIP3    H133226   4.374   5.587   0.335 -0.7740 -1.3665 -1.0524
 3889TIP3    H233227   4.365   5.453   0.405 -0.7533  0.5086  2.7335
 3890TIP3   OH233228   3.360   0.103   1.750 -0.4813 -0.0458 -0.5643
 3890TIP3    H133229   3.367   0.194   1.779 -0.4682  0.2503 -1.4847
 3890TIP3    H233230   3.381   0.051   1.828 -0.4841  0.7357 -0.0388
 3891TIP3   OH233231   5.262   1.209   7.866  0.4022  0.1580 -0.1635
 3891TIP3    H133232   5.248   1.175   7.954  0.2491 -0.1583 -0.3086
 3891TIP3    H233233   5.357   1.211   7.856  0.4189 -0.6302 -0.2972
 3892TIP3   OH233234   1.440   1.432   1.164  0.3986  0.1251 -0.7041
 3892TIP3    H133235   1.415   1.498   1.228  1.4823  0.0118 -0.1310
 3892TIP3    H233236   1.472   1.481   1.089 -0.0540  0.2537 -0.8149
 3893TIP3   OH233237   4.596   4.942   8.648 -0.1045  0.6480  0.0888
 3893TIP3    H133238   4.552   4.862   8.677  0.1122  0.7015  0.5558
 3893TIP3    H233239   4.593   5.001   8.723 -1.1063  1.4397 -0.5420
 3894TIP3   OH233240   5.179   2.958   7.334  0.7300 -0.1785 -0.1274
 3894TIP3    H133241   5.248   2.924   7.391 -1.0000 -1.5466  1.2693
 3894TIP3    H233242   5.202   3.050   7.322  1.8021 -0.1252  1.8437
 3895TIP3   OH233243   6.214   5.903   0.930 -0.0470 -0.0468  0.4875
 3895TIP3    H133244   6.217   5.885   1.024 -1.7204 -0.4280  0.4997
 3895TIP3    H233245   6.174   5.989   0.923 -0.5096 -0.2901  0.1053
 3896TIP3   OH233246   3.773   6.500   7.245 -0.2995 -0.3317  0.4579
 3896TIP3    H133247   3.827   6.424   7.225  0.9372  0.3310  1.1286
 3896TIP3    H233248   3.688   6.481   7.205 -0.2835 -2.4045  1.2817
 3897TIP3   OH233249   2.335   3.268   8.473 -0.3510  0.0828 -0.8043
 3897TIP3    H133250   2.304   3.274   8.563  0.1601  2.2853 -0.7397
 3897TIP3    H233251   2.320   3.176   8.449 -0.7780 -0.4707  1.3929
 3898TIP3   OH233252   3.083   2.542   0.417 -0.3564 -0.3998  0.1328
 3898TIP3    H133253   3.081   2.560   0.323  1.0722 -1.2880 -0.0953
 3898TIP3    H233254   3.006   2.588   0.451 -0.0072  1.3101 -1.2122
 3899TIP3   OH233255   1.824   3.456   1.100  0.4665  0.2732  0.6167
 3899TIP3    H133256   1.794   3.472   1.190 -0.7735  1.3650  0.0432
 3899TIP3    H233257   1.860   3.540   1.071  1.1497 -0.1559  0.1769
 3900TIP3   OH233258   6.640   2.204   1.211 -0.2439 -0.4220  0.5453
 3900TIP3    H133259   6.660   2.291   1.177  0.4487  0.5182  3.1256
 3900TIP3    H233260   6.609   2.220   1.301  0.6726 -2.8686  1.3790
 3901TIP3   OH233261   2.028   2.108   0.096  0.1232  0.0201  0.5491
 3901TIP3    H133262   1.993   2.054   0.167  0.2650 -1.0269 -0.1606
 3901TIP3    H233263   2.122   2.113   0.114 -0.1337  1.6844  1.6866
 3902TIP3   OH233264   0.522   5.598   2.181  0.0810 -0.3842  0.4608
 3902TIP3    H133265   0.544   5.683   2.218  0.4367  0.6792 -1.9828
 3902TIP3    H233266   0.446   5.568   2.232  0.8931  0.6521  2.3571
 3903TIP3   OH233267   0.878   2.924   0.951 -0.1652 -0.7995  0.7173
 3903TIP3    H133268   0.846   2.986   1.017 -0.6166 -0.5137  0.2316
 3903TIP3    H233269   0.845   2.958   0.868  0.0280 -1.4046  0.3906
 3904TIP3   OH233270   5.936   4.396   7.665 -0.4298 -0.6110 -0.2644
 3904TIP3    H133271   5.896   4.359   7.743 -0.4791 -0.8490 -0.4011
 3904TIP3    H233272   6.026   4.365   7.666  0.1429  0.9526  0.7146
 3905TIP3   OH233273   5.882   3.462   8.160 -0.7044  0.5726  0.8783
 3905TIP3    H133274   5.928   3.499   8.085 -2.3944 -0.8317 -0.9621
 3905TIP3    H233275   5.847   3.538   8.207  1.3181  1.5256  0.9319
 3906TIP3   OH233276   3.918   5.140   0.270  0.3630  0.5233 -0.6449
 3906TIP3    H133277   3.835   5.131   0.318  0.6042  1.3513 -0.0593
 3906TIP3    H233278   3.904   5.089   0.190  0.0895 -1.2084  0.4473
 3907TIP3   OH233279   5.574   1.881   0.697  0.0271 -0.2498 -0.0551
 3907TIP3    H133280   5.493   1.916   0.734  0.1223 -0.1791  0.0845
 3907TIP3    H233281   5.586   1.797   0.742  1.1359  0.6643  1.4579
 3908TIP3   OH233282   4.978   3.611   7.769 -0.1121  0.3341  0.4739
 3908TIP3    H133283   5.058   3.587   7.723  0.1751 -0.5143  1.3801
 3908TIP3    H233284   4.961   3.538   7.828 -1.8799  0.2426 -0.0839
 3909TIP3   OH233285   1.604   4.401   1.360  0.2325 -0.9404  0.8959
 3909TIP3    H133286   1.618   4.310   1.387 -1.1445 -0.7060  2.5523
 3909TIP3    H233287   1.690   4.443   1.371  1.0850 -2.1780 -0.6483
 3910TIP3   OH233288   3.868   2.610   6.318  0.4555 -1.0490  0.1287
 3910TIP3    H133289   3.901   2.536   6.370  1.0053  0.5898  2.2519
 3910TIP3    H233290   3.941   2.672   6.317 -0.1554 -0.3325 -1.2343
 3911TIP3   OH233291   2.350   4.061   1.185  0.5348  0.3387  0.2439
 3911TIP3    H133292   2.324   3.983   1.136 -0.9581  1.2877 -0.5102
 3911TIP3    H233293   2.382   4.026   1.269  0.2836 -1.0941 -0.2224
 3912TIP3   OH233294   2.823   2.001   2.192 -0.3944 -0.4444 -0.4438
 3912TIP3    H133295   2.848   1.909   2.200 -1.0139 -0.6171 -0.4446
 3912TIP3    H233296   2.807   2.029   2.282  0.2895 -0.1857 -0.3920
 3913TIP3   OH233297   3.006   1.873   1.777 -0.3630 -0.0123 -0.0336
 3913TIP3    H133298   3.041   1.871   1.866 -0.9327 -0.3403  0.1901
 3913TIP3    H233299   3.072   1.919   1.726  0.4453 -0.7386  0.3426
 3914TIP3   OH233300   4.078   4.581   1.307  0.0369 -0.5264  0.5263
 3914TIP3    H133301   4.174   4.579   1.302  0.1039  1.1708  0.4078
 3914TIP3    H233302   4.054   4.492   1.333  1.4803 -1.6929 -1.7962
 3915TIP3   OH233303   6.463   2.808   0.502 -0.0011 -0.1416 -0.3557
 3915TIP3    H133304   6.387   2.749   0.501  0.6763 -1.0386 -0.1491
 3915TIP3    H233305   6.532   2.759   0.457  0.0651  1.2337 -1.8163
 3916TIP3   OH233306   2.122   6.611   2.517  0.0816 -0.1453  0.6580
 3916TIP3    H133307   2.136   6.669   2.593 -0.9586  0.4610  0.4012
 3916TIP3    H233308   2.075   6.666   2.454  4.3773  0.7526 -2.1944
 3917TIP3   OH233309   6.756   3.429   1.624  0.0131  0.2173 -0.0350
 3917TIP3    H133310   6.696   3.355   1.613  0.0650 -0.3856  2.9359
 3917TIP3    H233311   6.727   3.493   1.559 -2.1622 -1.0741 -0.4542
 3918TIP3   OH233312   6.301   4.239   0.989 -0.1218 -0.7223  0.3716
 3918TIP3    H133313   6.391   4.255   1.018  0.4303 -1.8266 -0.5975
 3918TIP3    H233314   6.281   4.313   0.931  0.9933 -1.4993 -1.0949
 3919TIP3   OH233315   6.390   2.389   7.370 -0.1339  0.0727 -0.2421
 3919TIP3    H133316   6.402   2.308   7.321  1.6920  0.1267  0.0270
 3919TIP3    H233317   6.404   2.458   7.305  0.0010  0.1614 -0.1179
 3920TIP3   OH233318   3.956   0.994   8.428 -0.0274 -0.0940  0.4982
 3920TIP3    H133319   4.039   0.959   8.395 -0.2346  0.4554 -0.6502
 3920TIP3    H233320   3.979   1.081   8.462 -0.2186  0.2886 -0.3297
 3921TIP3   OH233321   3.720   5.864   0.937  0.3885 -0.5654 -0.5952
 3921TIP3    H133322   3.670   5.873   0.855 -0.5445  1.1470  0.1094
 3921TIP3    H233323   3.705   5.774   0.964 -0.3228 -0.7964 -1.6783
 3922TIP3   OH233324   6.219   4.456   7.438 -0.5763 -0.4959  0.5183
 3922TIP3    H133325   6.245   4.523   7.501 -2.0250  0.2759  0.3453
 3922TIP3    H233326   6.297   4.441   7.385 -0.1910  0.9818  0.6222
 3923TIP3   OH233327   3.152   1.867   0.963 -0.1837  0.0765 -0.4923
 3923TIP3    H133328   3.229   1.916   0.933 -2.0271  2.1508 -2.1062
 3923TIP3    H233329   3.184   1.818   1.039  2.4690  1.6827 -0.4294
 3924TIP3   OH233330   6.624   4.105   1.453 -0.1647 -0.4336 -0.2842
 3924TIP3    H133331   6.658   4.157   1.380 -0.8140  0.9090  0.3499
 3924TIP3    H233332   6.580   4.168   1.510 -0.6182 -1.6177  0.7243
 3925TIP3   OH233333   6.411   3.488   1.840  0.2663  0.0403  0.9315
 3925TIP3    H133334   6.377   3.400   1.821 -0.6751 -0.0942  2.9371
 3925TIP3    H233335   6.505   3.481   1.824 -0.1681 -0.4129 -1.9347
 3926TIP3   OH233336   2.535   0.030   0.555 -0.4908 -0.5022 -0.0817
 3926TIP3    H133337   2.623   0.003   0.529 -0.4655 -2.2296  1.5330
 3926TIP3    H233338   2.476  -0.022   0.500 -0.4782 -0.7979  0.1828
 3927TIP3   OH233339   2.678   4.363   6.776 -0.2220 -0.1981 -0.6137
 3927TIP3    H133340   2.747   4.346   6.840  0.4986 -2.0179 -1.7766
 3927TIP3    H233341   2.614   4.293   6.790 -2.1205  1.6881  0.7073
 3928TIP3   OH233342   2.402   3.880   2.060 -0.0494 -0.0559 -0.5888
 3928TIP3    H133343   2.492   3.865   2.030  1.0710 -1.1240  2.8339
 3928TIP3    H233344   2.368   3.793   2.079  0.7446  0.4291  4.3945
 3929TIP3   OH233345   0.686   5.826   1.875  0.0414  0.1119  0.3926
 3929TIP3    H133346   0.734   5.792   1.951  1.9664  0.6772 -0.4970
 3929TIP3    H233347   0.595   5.826   1.902  0.2253 -3.0073  1.4807
 3930TIP3   OH233348   1.434   4.859   0.617 -0.5474  0.0120  0.5706
 3930TIP3    H133349   1.376   4.916   0.567  0.9173  1.7610  0.7627
 3930TIP3    H233350   1.387   4.775   0.622 -2.0851  0.7137 -1.0489
 3931TIP3   OH233351   4.627   3.362   7.325 -0.2012  0.1243 -0.0305
 3931TIP3    H133352   4.667   3.278   7.300 -0.0755  0.4194 -0.8786
 3931TIP3    H233353   4.644   3.419   7.250 -3.1145 -0.0186 -0.9234
 3932TIP3   OH233354   1.028   5.892   7.649  0.2997  0.2025  0.4716
 3932TIP3    H133355   1.027   5.883   7.744  2.5912  1.9700  0.7455
 3932TIP3    H233356   1.115   5.927   7.628  0.4556 -1.5381 -2.4465
 3933TIP3   OH233357   0.425   3.286   2.677  0.0165  0.1445  0.1585
 3933TIP3    H133358   0.408   3.254   2.589 -1.2891 -0.7900  0.7125
 3933TIP3    H233359   0.501   3.237   2.707 -0.1981 -0.3255 -0.0610
 3934TIP3   OH233360   2.165   0.181   6.825 -0.0702  0.4914 -0.3261
 3934TIP3    H133361   2.127   0.222   6.748  2.0189  0.2387 -1.5596
 3934TIP3    H233362   2.174   0.088   6.802  1.1695  0.5259 -0.0872
 3935TIP3   OH233363   6.002   1.791   1.762  0.0999  0.0293 -0.0218
 3935TIP3    H133364   5.993   1.883   1.786  0.1351 -0.6845  3.1456
 3935TIP3    H233365   5.926   1.748   1.802  0.1284 -1.3718 -1.3603
 3936TIP3   OH233366   2.776   4.993   7.092  0.2110 -0.0156  0.2466
 3936TIP3    H133367   2.850   4.961   7.143  1.2679  1.0696 -0.5634
 3936TIP3    H233368   2.718   4.917   7.084  1.5871 -1.1012  0.2731
 3937TIP3   OH233369   5.842   4.879   7.809  0.1473  0.2731 -0.5249
 3937TIP3    H133370   5.893   4.823   7.751 -0.1314 -0.5840  0.0402
 3937TIP3    H233371   5.793   4.936   7.750  0.3813 -0.1200 -1.1087
 3938TIP3   OH233372   1.306   0.970   0.538 -0.0679 -0.4043 -0.1641
 3938TIP3    H133373   1.336   0.924   0.616 -1.4839 -2.3500 -0.6710
 3938TIP3    H233374   1.369   0.946   0.470 -0.3271 -0.9394 -0.2242
 3939TIP3   OH233375   0.966   3.332   0.829 -0.5161 -0.9887  0.0570
 3939TIP3    H133376   0.943   3.411   0.781 -0.5125 -1.5365 -0.8711
 3939TIP3    H233377   1.053   3.309   0.798 -0.1164 -0.8500  1.0168
 3940TIP3   OH233378   3.093   0.905   0.639  0.4395 -0.4398  0.0325
 3940TIP3    H133379   3.141   0.842   0.692  0.1384 -0.2849  0.4989
 3940TIP3    H233380   3.059   0.968   0.703  0.6983  0.1632 -0.4242
 3941TIP3   OH233381   1.463   4.093   1.398 -0.2486  0.1967 -0.3482
 3941TIP3    H133382   1.518   4.073   1.322 -1.1094 -2.0758 -0.4600
 3941TIP3    H233383   1.430   4.008   1.426 -4.0362  1.4361 -0.5518
 3942TIP3   OH233384   3.795   0.147   7.756  0.1063  0.7666  0.6421
 3942TIP3    H133385   3.737   0.122   7.684 -0.3910  2.3915  0.4355
 3942TIP3    H233386   3.809   0.066   7.805 -2.4548  0.2963  0.7693
 3943TIP3   OH233387   3.573   2.991   2.039  1.2468  0.4610  0.2653
 3943TIP3    H133388   3.497   3.040   2.008  0.2078 -0.9874  0.4338
 3943TIP3    H233389   3.549   2.899   2.026  2.4038 -0.0674  1.6114
 3944TIP3   OH233390   2.438   1.392   2.154  0.0381 -0.6688 -0.0596
 3944TIP3    H133391   2.404   1.410   2.242 -1.6429 -1.1746 -0.5807
 3944TIP3    H233392   2.391   1.452   2.097  1.2773 -0.1975 -0.6133
 3945TIP3   OH233393   4.752   0.778   0.979  0.5276 -0.1406 -0.0433
 3945TIP3    H133394   4.699   0.717   0.927  0.4845 -0.3783  0.2800
 3945TIP3    H233395   4.689   0.843   1.010  0.5334 -0.0650 -0.1862
 3946TIP3   OH233396   0.892   5.329   7.485  0.0210 -0.1231 -0.0053
 3946TIP3    H133397   0.970   5.374   7.517  0.4826 -1.2469  0.4654
 3946TIP3    H233398   0.913   5.236   7.491 -1.6224 -0.4757  0.8221
 3947TIP3   OH233399   1.928   3.697   1.010 -0.1574 -0.6423  0.0706
 3947TIP3    H133400   1.996   3.684   0.944 -0.8140 -0.5809 -0.6342
 3947TIP3    H233401   1.971   3.749   1.078 -0.0276  1.1158 -1.2720
 3948TIP3   OH233402   4.637   0.026   0.973 -0.3412  0.0413 -0.0523
 3948TIP3    H133403   4.715   0.003   0.922 -0.5427  0.5615 -0.6066
 3948TIP3    H233404   4.619   0.117   0.950  0.1958  0.6651  1.7840
 3949TIP3   OH233405   2.891   5.719   0.058  0.1822 -0.3536 -0.4328
 3949TIP3    H133406   2.867   5.808   0.084  0.5164 -0.1596 -0.7780
 3949TIP3    H233407   2.959   5.731  -0.008 -0.2804 -0.8496 -1.0099
 3950TIP3   OH233408   6.737   2.846   7.133 -0.3491 -0.3517 -0.4389
 3950TIP3    H133409   6.764   2.770   7.186  0.0016 -1.0368 -1.5682
 3950TIP3    H233410   6.810   2.861   7.074 -0.5634  0.6768 -0.4492
 3951TIP3   OH233411   3.717   6.344   8.217 -0.3456  0.2255 -0.7915
 3951TIP3    H133412   3.769   6.263   8.219  1.0697  1.1164  0.2899
 3951TIP3    H233413   3.630   6.317   8.246 -0.0462 -1.0051 -0.9761
 3952TIP3   OH233414   0.239   5.320   2.883  0.1394 -0.4329 -0.0047
 3952TIP3    H133415   0.284   5.350   2.804 -0.7742 -0.9932 -0.7729
 3952TIP3    H233416   0.259   5.386   2.949  0.5302  0.3082 -0.8397
 3953TIP3   OH233417   3.525   1.402   8.352  0.2164  0.5865  0.0303
 3953TIP3    H133418   3.498   1.312   8.372 -1.0875  0.9148 -0.2148
 3953TIP3    H233419   3.617   1.393   8.326  0.3289 -0.5751  0.7214
 3954TIP3   OH233420   1.636   5.675   1.178  0.3192  0.4021 -1.0822
 3954TIP3    H133421   1.651   5.702   1.087 -0.0685 -1.2260 -1.6691
 3954TIP3    H233422   1.710   5.711   1.226  1.2048  0.2536 -2.2754
 3955TIP3   OH233423   6.154   4.422   1.676  0.7418  0.1831  0.0776
 3955TIP3    H133424   6.209   4.472   1.736  0.7518  0.8674 -0.4835
 3955TIP3    H233425   6.137   4.483   1.604  1.4180 -0.8727 -1.0076
 3956TIP3   OH233426   1.534   0.647   8.449 -0.2216  0.4721  0.4612
 3956TIP3    H133427   1.535   0.565   8.497  0.7940  0.2638  0.0921
 3956TIP3    H233428   1.567   0.625   8.362  1.2947  1.4773  0.7401
 3957TIP3   OH233429   5.857   1.929   2.262  0.5881 -0.3174  0.1963
 3957TIP3    H133430   5.929   1.902   2.320 -2.2387 -1.4579  3.4939
 3957TIP3    H233431   5.835   1.850   2.213 -0.1135 -0.7604  1.1975
 3958TIP3   OH233432   3.973   2.340   1.839  0.0205  0.2715  0.7406
 3958TIP3    H133433   3.895   2.380   1.877 -0.6495  1.7211 -1.9501
 3958TIP3    H233434   3.966   2.357   1.745  2.6105 -1.2796  0.1679
 3959TIP3   OH233435   1.407   4.280   7.618 -0.6165 -0.7357  0.1325
 3959TIP3    H133436   1.478   4.246   7.671  0.4215 -1.2590 -1.5193
 3959TIP3    H233437   1.328   4.263   7.669  0.3841 -0.4620  1.8467
 3960TIP3   OH233438   2.863   2.282   2.382  0.2411  0.0052  0.2582
 3960TIP3    H133439   2.835   2.192   2.401  2.2530 -0.8990 -0.6970
 3960TIP3    H233440   2.832   2.333   2.457  0.5453 -1.8201  1.7026
 3961TIP3   OH233441   5.011   4.749   0.110 -0.2734 -0.0063 -0.3932
 3961TIP3    H133442   5.017   4.682   0.178 -1.0927 -0.8973 -1.1894
 3961TIP3    H233443   5.028   4.831   0.157 -1.8441 -0.4844  1.1113
 3962TIP3   OH233444   2.329   4.212   7.222 -0.0644 -0.1249 -0.1527
 3962TIP3    H133445   2.387   4.175   7.156  0.2740  3.2341 -1.9868
 3962TIP3    H233446   2.376   4.200   7.304  1.9233 -0.0131 -1.2096
 3963TIP3   OH233447   4.127   4.334   0.562 -0.1168  0.0191 -0.2929
 3963TIP3    H133448   4.173   4.365   0.640 -2.5132  0.9932  0.8099
 3963TIP3    H233449   4.078   4.410   0.531  0.2745 -0.5264 -2.4112
 3964TIP3   OH233450   6.205   3.705   7.197 -0.9000  0.0152 -0.7699
 3964TIP3    H133451   6.268   3.769   7.230 -0.9081  0.2224 -1.1502
 3964TIP3    H233452   6.185   3.735   7.108 -0.0745 -1.1226 -1.3622
 3965TIP3   OH233453   3.443   0.741   0.428 -0.4652  0.4088  0.3442
 3965TIP3    H133454   3.447   0.730   0.523 -0.0047 -0.0727  0.2706
 3965TIP3    H233455   3.461   0.835   0.415 -1.1033  0.5949  0.7628
 3966TIP3   OH233456   2.272   5.579   1.321 -0.1744  0.1869  0.5693
 3966TIP3    H133457   2.327   5.507   1.349  1.0928 -0.4223 -2.9792
 3966TIP3    H233458   2.183   5.543   1.322  0.0815 -0.4414  1.6414
 3967TIP3   OH233459   2.964   5.963   1.411 -0.1724 -0.0851 -0.3647
 3967TIP3    H133460   2.937   6.055   1.419  2.1900  0.6143  0.3796
 3967TIP3    H233461   2.882   5.914   1.416 -1.3427  1.8523  1.5852
 3968TIP3   OH233462   1.980   0.763   0.272 -0.3134 -0.2658  0.5405
 3968TIP3    H133463   2.071   0.738   0.254 -0.7331 -1.0699 -0.6557
 3968TIP3    H233464   1.984   0.854   0.299  0.6074  0.7031 -2.5052
 3969TIP3   OH233465   0.773   5.340   7.155  0.0347  0.7760 -0.6998
 3969TIP3    H133466   0.738   5.386   7.079 -0.2657  1.0397 -0.4002
 3969TIP3    H233467   0.846   5.288   7.119  0.3190  1.4061 -1.0559
 3970TIP3   OH233468   0.288   2.590   8.371  0.0545 -0.0198  0.1193
 3970TIP3    H133469   0.229   2.652   8.328  0.9227 -0.6947 -2.2263
 3970TIP3    H233470   0.373   2.634   8.370  0.0117  0.1367  1.6482
 3971TIP3   OH233471   6.166   1.498   0.076  0.3991  0.1931  0.2018
 3971TIP3    H133472   6.156   1.414   0.032 -0.1398 -0.7162  2.0020
 3971TIP3    H233473   6.084   1.545   0.057 -0.1780 -0.5157  0.8957
 3972TIP3   OH233474   0.534   3.316   0.255  0.3370  0.3038 -0.3215
 3972TIP3    H133475   0.529   3.225   0.285  2.7192 -0.6145 -2.3944
 3972TIP3    H233476   0.566   3.364   0.332  0.4380 -0.8631  0.4012
 3973TIP3   OH233477   1.466   5.421   0.790  0.4403 -0.2997 -0.1832
 3973TIP3    H133478   1.558   5.417   0.816  0.4499 -0.3284 -0.2220
 3973TIP3    H233479   1.464   5.386   0.701  0.3794 -0.3837 -0.1497
 3974TIP3   OH233480   3.671   0.896   7.032 -0.1345  0.1701 -0.9872
 3974TIP3    H133481   3.594   0.848   7.063 -0.1310  1.4471  1.2568
 3974TIP3    H233482   3.635   0.973   6.989 -0.1606  0.7658  0.0595
 3975TIP3   OH233483   0.896   0.961   7.795 -0.5193  0.0785 -0.2964
 3975TIP3    H133484   0.910   1.030   7.729  1.3281 -0.5177 -0.5702
 3975TIP3    H233485   0.907   1.006   7.879  4.2892 -0.3542 -0.4197
 3976TIP3   OH233486   4.300   5.096   7.058  0.0422 -0.5888 -0.1061
 3976TIP3    H133487   4.360   5.053   6.997 -1.2653 -0.2110 -1.7106
 3976TIP3    H233488   4.292   5.186   7.025  0.1087 -0.0672  1.2364
 3977TIP3   OH233489   6.111   6.415   0.952  0.0655 -0.2964  0.3704
 3977TIP3    H133490   6.182   6.432   1.014  0.2275 -2.4263  0.8635
 3977TIP3    H233491   6.154   6.383   0.873 -0.2731 -0.0733  0.0901
 3978TIP3   OH233492   3.149   3.400   8.064 -0.1349  0.2061  0.4288
 3978TIP3    H133493   3.084   3.361   8.005  2.2420 -0.6557 -1.8210
 3978TIP3    H233494   3.150   3.342   8.140 -0.5752 -0.9591 -0.4140
 3979TIP3   OH233495   2.965   5.670   0.695  0.1112 -0.0288  0.5492
 3979TIP3    H133496   2.986   5.756   0.731 -1.1227 -0.2682  1.9692
 3979TIP3    H233497   2.877   5.680   0.658  0.3398 -0.4424 -0.1206
 3980TIP3   OH233498   0.401   3.711   0.370  0.4244 -0.0407  0.1021
 3980TIP3    H133499   0.391   3.779   0.437  2.2035  0.7352 -0.3381
 3980TIP3    H233500   0.340   3.737   0.300  0.9253  1.0152  0.0325
 3981TIP3   OH233501   5.922   4.568   8.015  0.5826  0.0966 -0.2704
 3981TIP3    H133502   5.834   4.531   8.009 -0.2344  2.1327 -2.3096
 3981TIP3    H233503   5.941   4.570   8.109 -0.8047 -1.9149  0.1196
 3982TIP3   OH233504   4.550   1.660   1.451  0.2700  0.1764  0.3732
 3982TIP3    H133505   4.557   1.634   1.543  1.7902  0.4261  0.3540
 3982TIP3    H233506   4.532   1.754   1.454 -0.9707 -0.0442  0.4045
 3983TIP3   OH233507   3.576   1.932   2.523 -0.6083 -0.2020  0.3876
 3983TIP3    H133508   3.609   1.994   2.459  0.4441  0.0660  1.1581
 3983TIP3    H233509   3.494   1.969   2.554  0.3917  1.2707  1.4295
 3984TIP3   OH233510   0.105   3.346   7.941  0.0803  0.2751  0.3046
 3984TIP3    H133511   0.126   3.305   7.857  0.3425 -2.7635  1.7114
 3984TIP3    H233512   0.018   3.385   7.928  0.5168  0.7170 -1.5991
 3985TIP3   OH233513   2.895   0.710   7.414  0.1403 -0.1324 -0.2983
 3985TIP3    H133514   2.824   0.655   7.446  0.1811  0.4917  0.9085
 3985TIP3    H233515   2.921   0.763   7.489 -0.4064  2.1018 -1.5796
 3986TIP3   OH233516   6.822   2.951   0.379 -0.1350  0.3819  0.2716
 3986TIP3    H133517   6.885   2.935   0.309  0.7998 -1.8371  1.5087
 3986TIP3    H233518   6.775   2.868   0.388  0.3179  0.3345  2.7504
 3987TIP3   OH233519   6.266   1.192   8.068 -1.0503 -0.2784 -0.5625
 3987TIP3    H133520   6.314   1.112   8.089 -0.2916  0.8619  2.4464
 3987TIP3    H233521   6.179   1.161   8.041 -0.4794 -2.1154 -0.4223
 3988TIP3   OH233522   6.079   1.624   1.510  0.1090  0.4303 -0.0456
 3988TIP3    H133523   6.028   1.665   1.580  1.3497  1.2988  0.3734
 3988TIP3    H233524   6.093   1.695   1.447  1.0227  0.2654 -0.0292
 3989TIP3   OH233525   2.384   5.611   1.762  0.2550  0.3826 -0.0456
 3989TIP3    H133526   2.414   5.524   1.739 -1.0100 -0.2780  0.7072
 3989TIP3    H233527   2.440   5.637   1.835 -0.8009 -0.7796  1.2499
 3990TIP3   OH233528   4.773   1.926   0.949  0.4891  0.3965 -0.9298
 3990TIP3    H133529   4.710   1.856   0.935  0.2662  0.7031 -1.4940
 3990TIP3    H233530   4.796   1.919   1.041  0.6257 -0.5459 -1.0250
 3991TIP3   OH233531   2.610   4.486   0.710 -0.0422 -0.2711 -0.1160
 3991TIP3    H133532   2.524   4.447   0.693 -0.7304  1.0574  0.2016
 3991TIP3    H233533   2.668   4.444   0.646 -0.8395 -1.4496 -0.0972
 3992TIP3   OH233534   3.883   5.364   6.568 -0.7859  0.2933  0.0653
 3992TIP3    H133535   3.960   5.407   6.605 -1.1156  0.4591  0.5566
 3992TIP3    H233536   3.835   5.434   6.525 -0.5502  0.1502 -0.4424
 3993TIP3   OH233537   3.166   2.131   1.788  0.0876  0.2578 -0.5719
 3993TIP3    H133538   3.243   2.115   1.843 -0.0970 -0.6725 -0.5577
 3993TIP3    H233539   3.197   2.116   1.699  0.3787  1.7358 -0.7319
 3994TIP3   OH233540   3.346   2.472   7.668 -0.2925  0.2939 -0.4804
 3994TIP3    H133541   3.261   2.515   7.679  0.8590  2.4665  0.4741
 3994TIP3    H233542   3.404   2.542   7.638  1.1363 -1.2074 -1.3643
 3995TIP3   OH233543   6.419   3.458   6.831  0.2761  0.1259 -0.5327
 3995TIP3    H133544   6.430   3.403   6.754 -1.1692 -0.6909 -0.2042
 3995TIP3    H233545   6.369   3.533   6.801  2.3408  1.3761 -1.0033
 3996TIP3   OH233546   5.077   3.064   6.633  0.0845  0.5520  0.5106
 3996TIP3    H133547   5.095   3.144   6.584 -0.2237  0.6590  0.5697
 3996TIP3    H233548   5.051   3.000   6.568  0.4232  0.4703  0.4526
 3997TIP3   OH233549   3.693   4.482   1.553  0.1502 -0.0281 -0.4116
 3997TIP3    H133550   3.718   4.570   1.524  0.0286  1.6045  3.7661
 3997TIP3    H233551   3.651   4.495   1.638 -1.6976 -4.0176 -0.4607
 3998TIP3   OH233552   4.225   1.317   2.066  0.3652  0.2589  0.0263
 3998TIP3    H133553   4.163   1.244   2.064 -1.1350  1.4744 -1.6021
 3998TIP3    H233554   4.293   1.290   2.128 -0.8152 -1.9300  0.4615
 3999TIP3   OH233555   1.079   5.853   0.279  0.3755  0.4040  1.2545
 3999TIP3    H133556   1.020   5.891   0.344  0.1812  1.3958  0.5226
 3999TIP3    H233557   1.132   5.927   0.249 -0.1903  0.1768 -0.4005
 4000TIP3   OH233558   4.766   6.241   1.488  0.5203 -0.1790  0.2174
 4000TIP3    H133559   4.712   6.307   1.444  1.5308  0.9565  0.6295
 4000TIP3    H233560   4.744   6.252   1.581  0.1550 -0.9364  0.2242
 4001TIP3   OH233561   2.134   0.137   1.088  0.1503  0.0199 -0.0215
 4001TIP3    H133562   2.106   0.134   0.996 -1.4615  1.2564  0.3871
 4001TIP3    H233563   2.114   0.049   1.121 -1.4663  0.2578 -0.2753
 4002TIP3   OH233564   1.793   2.897   7.358 -0.2030 -0.2814 -0.0395
 4002TIP3    H133565   1.817   2.946   7.437  0.0151  0.9431 -0.8478
 4002TIP3    H233566   1.715   2.941   7.324  1.3644  1.0754 -2.1014
 4003TIP3   OH233567   2.948   1.295   8.396  0.2211 -1.0340  0.4797
 4003TIP3    H133568   2.899   1.271   8.318 -0.7337 -0.0343  0.7497
 4003TIP3    H233569   2.883   1.333   8.455  1.2707  0.0592  0.9768
 4004TIP3   OH233570   4.886   3.682   1.437 -0.3171 -0.0232  0.2429
 4004TIP3    H133571   4.956   3.632   1.481 -0.0618 -0.7279 -0.9265
 4004TIP3    H233572   4.921   3.770   1.428  0.1683 -0.2123  0.2452
 4005TIP3   OH233573   5.088   0.017   8.634  0.0199  0.5102 -0.7615
 4005TIP3    H133574   5.156   0.049   8.694 -0.8878  0.1344  0.4998
 4005TIP3    H233575   5.006   0.032   8.681 -0.7363  0.3425 -1.9877
 4006TIP3   OH233576   5.719   5.239   6.691  0.4168  0.2685 -0.0632
 4006TIP3    H133577   5.625   5.257   6.686  0.2720  0.3048  2.1619
 4006TIP3    H233578   5.758   5.322   6.719  1.2638  0.4970 -1.7625
 4007TIP3   OH233579   2.903   1.172   1.319 -0.4130  0.1968 -0.0504
 4007TIP3    H133580   2.948   1.202   1.398  0.3584  0.3079 -0.5281
 4007TIP3    H233581   2.956   1.205   1.247 -2.3733  2.2103 -0.7012
 4008TIP3   OH233582   6.752   3.752   0.556  0.3942  0.1782 -0.4494
 4008TIP3    H133583   6.786   3.665   0.538 -0.6721 -0.0215 -1.6011
 4008TIP3    H233584   6.799   3.809   0.495  1.1017  0.4382  0.3121
 4009TIP3   OH233585   0.396   5.983   0.962 -0.1429  0.0245  0.3266
 4009TIP3    H133586   0.380   5.890   0.948 -0.5680  0.3203 -1.3413
 4009TIP3    H233587   0.491   5.989   0.977 -0.1829 -0.7146  0.9241
 4010TIP3   OH233588   0.806   2.871   8.648 -0.4244 -0.5305  0.4811
 4010TIP3    H133589   0.781   2.782   8.675  0.9124 -0.3095  2.7403
 4010TIP3    H233590   0.902   2.868   8.644 -0.2354  1.1362  2.1530
 4011TIP3   OH233591   6.423   0.859   0.814 -0.3323 -0.4507 -1.0330
 4011TIP3    H133592   6.455   0.776   0.848  0.4879  0.2932  0.0939
 4011TIP3    H233593   6.495   0.892   0.760  0.7761  1.0470  1.1954
 4012TIP3   OH233594   0.289   6.488   0.114  0.0524 -0.1076  0.0824
 4012TIP3    H133595   0.364   6.546   0.129  0.5011 -0.1480 -1.7738
 4012TIP3    H233596   0.222   6.519   0.175  0.7086  1.5598  0.0052
 4013TIP3   OH233597   4.825   4.653   1.549 -0.4888  0.5258 -0.2646
 4013TIP3    H133598   4.845   4.584   1.485 -0.8683  1.5813 -1.5509
 4013TIP3    H233599   4.903   4.709   1.549 -0.8574  1.0432 -0.4951
 4014TIP3   OH233600   4.005   4.034   6.312 -0.1581 -0.3108 -0.5933
 4014TIP3    H133601   4.008   3.952   6.360 -0.3502 -0.9919 -1.7025
 4014TIP3    H233602   4.092   4.073   6.323 -0.2613 -0.3586  0.4347
 4015TIP3   OH233603   0.603   1.718   8.428  0.2357 -0.0337 -0.2278
 4015TIP3    H133604   0.534   1.779   8.404  0.0336  0.0755  0.6115
 4015TIP3    H233605   0.670   1.729   8.360  0.7435  2.0035  0.5269
 4016TIP3   OH233606   1.054   0.209   1.118  0.2211  0.5529  0.4244
 4016TIP3    H133607   1.036   0.141   1.184  0.3822  0.2086  0.1129
 4016TIP3    H233608   1.056   0.290   1.169  1.2290  0.1921  0.9873
 4017TIP3   OH233609   0.949   3.338   0.476 -0.0338 -0.0300 -0.2137
 4017TIP3    H133610   0.886   3.395   0.521  0.1511 -0.2238  0.2983
 4017TIP3    H233611   0.917   3.249   0.492 -0.1618 -0.0905 -0.7690
 4018TIP3   OH233612   4.847   2.818   0.851  0.2326 -0.0141 -0.6791
 4018TIP3    H133613   4.815   2.728   0.847 -1.7611  0.5469  0.8864
 4018TIP3    H233614   4.775   2.871   0.817  0.7713  1.1013 -0.1552
 4019TIP3   OH233615   1.097   4.685   7.153  0.0034  0.7562  0.4684
 4019TIP3    H133616   1.084   4.591   7.167  1.7563  0.6219  1.5215
 4019TIP3    H233617   1.103   4.695   7.058 -3.2280  0.3158  0.0925
 4020TIP3   OH233618   0.862   3.292   8.543 -0.3566  0.1569  0.0981
 4020TIP3    H133619   0.773   3.324   8.552  0.4676  2.8132 -0.3462
 4020TIP3    H233620   0.880   3.296   8.449  0.6133  0.8700  0.2925
 4021TIP3   OH233621   1.117   1.981   7.507 -0.1827 -0.5202  0.0038
 4021TIP3    H133622   1.090   2.068   7.535  0.1570  0.1108 -1.5762
 4021TIP3    H233623   1.207   1.992   7.475 -0.0797 -1.4823 -0.0743
 4022TIP3   OH233624   2.386   3.779   6.328 -0.0818  0.3998 -0.0178
 4022TIP3    H133625   2.446   3.719   6.373  1.8557 -0.2452 -3.1351
 4022TIP3    H233626   2.418   3.866   6.351 -0.0735  0.1497  0.9806
 4023TIP3   OH233627   4.199   0.005   0.752  0.6412  0.7258 -0.4962
 4023TIP3    H133628   4.223  -0.080   0.717  2.1210  0.2878  1.4654
 4023TIP3    H233629   4.278   0.059   0.743  0.1062  1.5208 -0.5892
 4024TIP3   OH233630   5.132   3.922   2.404 -0.1959  0.0716  0.0153
 4024TIP3    H133631   5.095   3.897   2.320 -0.2320 -0.5594  0.2110
 4024TIP3    H233632   5.057   3.936   2.461 -0.1816  0.8425 -0.1456
 4025TIP3   OH233633   6.730   4.653   7.406 -0.1320 -0.4399  0.4350
 4025TIP3    H133634   6.715   4.717   7.476 -1.1540 -2.0638  1.7575
 4025TIP3    H233635   6.668   4.679   7.338 -0.6356 -0.0992  1.0068
 4026TIP3   OH233636   4.700   2.785   7.731  0.2707  0.1261 -0.8876
 4026TIP3    H133637   4.717   2.802   7.638  1.7683 -0.2299 -0.7050
 4026TIP3    H233638   4.712   2.691   7.740  0.3040  0.1870 -0.3043
 4027TIP3   OH233639   2.122   1.767   8.258 -0.1703  0.0838  0.2451
 4027TIP3    H133640   2.132   1.862   8.271 -0.7325  0.3763 -1.3207
 4027TIP3    H233641   2.035   1.757   8.222  0.6172 -0.8266 -1.4992
 4028TIP3   OH233642   4.487   0.839   0.066 -0.0909  0.0317  0.1710
 4028TIP3    H133643   4.505   0.750   0.098 -1.1250  0.0431  0.8683
 4028TIP3    H233644   4.571   0.871   0.034  0.2631 -1.2666 -0.2631
 4029TIP3   OH233645   1.542   0.743   7.778 -0.1479 -0.0981 -0.0179
 4029TIP3    H133646   1.516   0.761   7.688  1.4222  0.8052 -0.3371
 4029TIP3    H233647   1.520   0.651   7.792 -1.4228  0.0395 -0.9310
 4030TIP3   OH233648   2.594   2.416   6.367  0.4204 -0.6005  0.0580
 4030TIP3    H133649   2.524   2.409   6.302  0.2761  0.8001  0.0240
 4030TIP3    H233650   2.652   2.484   6.332  0.8040 -0.4386  0.9755
 4031TIP3   OH233651   4.669   1.156   7.096  0.0386 -0.3413 -0.0382
 4031TIP3    H133652   4.713   1.193   7.020 -0.7724  2.7860  0.8447
 4031TIP3    H233653   4.577   1.153   7.070 -0.6780  3.1779  1.4229
 4032TIP3   OH233654   1.020   0.589   8.511 -0.5052  0.0221 -0.5198
 4032TIP3    H133655   1.021   0.515   8.572  2.2593  1.1399  0.9585
 4032TIP3    H233656   0.931   0.625   8.519 -0.1105  0.5642  3.5018
 4033TIP3   OH233657   4.236   0.544   6.998 -0.6325  0.1432 -0.4987
 4033TIP3    H133658   4.161   0.601   6.977 -0.1218  2.1404  2.3819
 4033TIP3    H233659   4.299   0.561   6.928 -1.9936  0.1577 -1.7662
 4034TIP3   OH233660   4.064   0.752   0.798  0.5241  0.0364  0.5122
 4034TIP3    H133661   4.092   0.830   0.750 -2.6054  1.4241  0.6645
 4034TIP3    H233662   4.117   0.681   0.763 -0.3181  1.2530 -3.7816
 4035TIP3   OH233663   3.144   3.993   0.542 -0.2573 -0.0508 -0.3624
 4035TIP3    H133664   3.164   4.072   0.593 -1.2782 -0.0466  0.0530
 4035TIP3    H233665   3.049   3.992   0.535 -0.1986 -0.6789 -1.2912
 4036TIP3   OH233666   4.694   2.708   1.337 -0.2569  0.2641 -0.0538
 4036TIP3    H133667   4.631   2.666   1.279  0.3522 -2.1402  0.9230
 4036TIP3    H233668   4.749   2.760   1.278  0.6078 -2.3946 -1.8002
 4037TIP3   OH233669   4.047   3.132   0.314  0.6462  0.4165  0.5186
 4037TIP3    H133670   4.090   3.107   0.396  0.6784 -0.3300  0.2804
 4037TIP3    H233671   3.954   3.133   0.335  0.5267 -1.2869  0.1967
 4038TIP3   OH233672   2.647   4.009   6.627  0.7255  0.0499  0.5101
 4038TIP3    H133673   2.688   3.923   6.633 -2.4170 -1.6496 -0.2107
 4038TIP3    H233674   2.619   4.017   6.536  0.3167  1.5232  0.7326
 4039TIP3   OH233675   3.970   2.369   0.011  0.0714  0.3804 -0.2613
 4039TIP3    H133676   4.001   2.440  -0.046  0.3598  0.4760  0.0080
 4039TIP3    H233677   4.039   2.360   0.077  0.6832 -1.0289 -1.0297
 4040TIP3   OH233678   2.178   3.749   6.077 -0.6625  0.2007  0.2163
 4040TIP3    H133679   2.100   3.730   6.026 -1.6484  0.6637  1.5090
 4040TIP3    H233680   2.154   3.822   6.134  0.1797 -0.6480  1.7570
 4041TIP3   OH233681   3.388   1.395   7.961 -0.2110  0.6121  0.3565
 4041TIP3    H133682   3.337   1.337   8.018 -0.6394  1.2283  0.6124
 4041TIP3    H233683   3.346   1.389   7.875 -1.1369  1.5912  0.7073
 4042TIP3   OH233684   4.880   1.477   6.232  0.3353  0.2006 -0.7330
 4042TIP3    H133685   4.809   1.538   6.209 -1.1197 -1.6075 -1.2677
 4042TIP3    H233686   4.959   1.518   6.197 -0.6469  1.5969 -1.4084
 4043TIP3   OH233687   1.471   3.833   6.744 -0.1545 -0.6384 -0.2764
 4043TIP3    H133688   1.490   3.750   6.788 -0.6059 -2.2575 -2.9428
 4043TIP3    H233689   1.548   3.848   6.689 -0.0818  0.7618  0.1706
 4044TIP3   OH233690   0.696   2.110   7.319 -0.0633 -0.1642 -0.2756
 4044TIP3    H133691   0.701   2.173   7.391  1.2385  0.3208 -0.7660
 4044TIP3    H233692   0.745   2.034   7.350 -2.0550 -1.1972  0.5160
 4045TIP3   OH233693   3.395   2.588   1.435  0.6436  0.7902 -0.4382
 4045TIP3    H133694   3.336   2.662   1.451  0.3596  0.2650  1.1146
 4045TIP3    H233695   3.482   2.627   1.436  0.5736  1.0161  1.4194
 4046TIP3   OH233696   0.669   2.723   2.717 -0.0017 -0.0251 -0.2108
 4046TIP3    H133697   0.742   2.785   2.719  1.1594 -1.3438 -0.2545
 4046TIP3    H233698   0.593   2.776   2.694  1.4322  0.9660 -3.1837
 4047TIP3   OH233699   2.887   3.213   1.000 -0.1876 -0.0779  0.3744
 4047TIP3    H133700   2.965   3.216   1.057 -1.0394 -0.7214  1.6236
 4047TIP3    H233701   2.853   3.124   1.012 -0.0679 -0.4208 -1.6269
 4048TIP3   OH233702   0.027   4.539   8.407 -0.1901  0.9599 -0.3082
 4048TIP3    H133703   0.006   4.569   8.496 -1.1288  0.3070 -0.2919
 4048TIP3    H233704  -0.057   4.540   8.361  0.1274  0.3842 -0.9160
 4049TIP3   OH233705   0.367   2.989   1.936  0.6789  0.7526 -0.7055
 4049TIP3    H133706   0.418   3.022   1.862  3.0971  1.1320  1.0274
 4049TIP3    H233707   0.388   3.048   2.008 -2.2155  0.8759  0.1804
 4050TIP3   OH233708   2.067   4.462   7.752 -0.4237  0.3736  0.0058
 4050TIP3    H133709   2.154   4.452   7.790 -0.4271  0.5184  0.0517
 4050TIP3    H233710   2.067   4.550   7.714 -1.3932  1.3987  2.2173
 4051TIP3   OH233711   2.965   3.232   7.959 -0.2148  0.4191 -0.1424
 4051TIP3    H133712   2.935   3.156   8.009  0.8824  0.4419  0.5807
 4051TIP3    H233713   2.884   3.274   7.928 -0.8633 -0.4310  0.3584
 4052TIP3   OH233714   1.417   4.167   8.554  0.3171 -0.3096  0.9516
 4052TIP3    H133715   1.339   4.222   8.567  0.2829 -0.4429  1.3179
 4052TIP3    H233716   1.479   4.199   8.620  0.4789 -0.3753  0.8293
 4053TIP3   OH233717   1.180   5.110   7.136 -0.2354 -0.0591 -0.3342
 4053TIP3    H133718   1.143   5.194   7.108 -1.4316 -0.5497 -0.3250
 4053TIP3    H233719   1.261   5.132   7.181  0.8196  0.9195 -2.5417
 4054TIP3   OH233720   3.638   1.527   7.047  0.1262  0.1503  0.0945
 4054TIP3    H133721   3.701   1.559   7.111  0.4100 -1.5053  0.7148
 4054TIP3    H233722   3.552   1.547   7.085  0.1990 -3.1482  2.4724
 4055TIP3   OH233723   0.728   0.040   2.079 -0.8122  0.1207 -0.3379
 4055TIP3    H133724   0.818   0.039   2.047 -0.1501  0.0027  1.4096
 4055TIP3    H233725   0.680  -0.013   2.016  0.5258 -0.5752 -0.8261
 4056TIP3   OH233726   0.052   5.909   7.711 -0.5624 -0.0165 -0.1990
 4056TIP3    H133727   0.108   5.968   7.661  0.4799  0.0482  0.9849
 4056TIP3    H233728   0.003   5.860   7.645  1.4936 -0.6491 -1.3596
 4057TIP3   OH233729   4.042   5.590   0.581 -0.2090 -0.0144 -0.4056
 4057TIP3    H133730   3.966   5.634   0.621 -1.5067 -2.2375 -0.2693
 4057TIP3    H233731   4.029   5.601   0.487  0.5226  1.4550 -0.3791
 4058TIP3   OH233732   5.392   1.135   1.253  0.3343  0.4177  0.0539
 4058TIP3    H133733   5.313   1.157   1.301  1.0582  0.1059  1.4449
 4058TIP3    H233734   5.373   1.159   1.162 -2.5782 -2.7955 -0.3448
 4059TIP3   OH233735   3.592   2.959   6.803  0.3254  0.0564  0.1413
 4059TIP3    H133736   3.595   3.055   6.810 -1.0912  0.1766 -0.4242
 4059TIP3    H233737   3.613   2.941   6.712  1.9120 -0.2811  0.5599
 4060TIP3   OH233738   0.385   2.660   1.828 -0.0092  0.6827  0.5638
 4060TIP3    H133739   0.454   2.725   1.815  0.9915 -0.2167  1.1037
 4060TIP3    H233740   0.394   2.601   1.753 -0.0980  0.4875  0.7051
 4061TIP3   OH233741   2.633   1.212   1.993 -0.5529  0.2935  0.6699
 4061TIP3    H133742   2.655   1.266   1.917  0.2465  2.3317  2.2779
 4061TIP3    H233743   2.606   1.274   2.060 -1.3875 -1.4635  2.0449
 4062TIP3   OH233744   2.171   3.438   0.289 -0.5516  0.1407 -0.1535
 4062TIP3    H133745   2.266   3.430   0.277 -0.3065  2.0391  0.3103
 4062TIP3    H233746   2.160   3.514   0.345 -2.2910 -1.1696  1.3854
 4063TIP3   OH233747   5.313   0.391   1.602 -0.3127 -0.0794 -0.1570
 4063TIP3    H133748   5.249   0.323   1.584 -1.0194  0.3615  0.6161
 4063TIP3    H233749   5.296   0.417   1.692  0.8514  0.1637  0.0087
 4064TIP3   OH233750   5.227   4.791   8.118 -0.2146  0.5456 -0.1335
 4064TIP3    H133751   5.161   4.859   8.132 -0.2716  0.5683 -0.4869
 4064TIP3    H233752   5.178   4.709   8.123  0.1381  0.4065  2.0554
 4065TIP3   OH233753   1.461   0.623   7.220  0.1104 -0.2190  0.0988
 4065TIP3    H133754   1.374   0.661   7.231  0.3961  0.0011  1.9176
 4065TIP3    H233755   1.445   0.530   7.200 -0.5370  0.1833 -1.3867
 4066TIP3   OH233756   4.352   4.599   8.169  0.1277  0.1138 -0.5963
 4066TIP3    H133757   4.306   4.645   8.099 -0.1509 -1.1519 -1.2715
 4066TIP3    H233758   4.445   4.619   8.154 -0.0591  1.4323 -0.1359
 4067TIP3   OH233759   1.912   1.020   8.609 -0.3647  0.7700 -0.3909
 4067TIP3    H133760   1.922   1.064   8.693  2.5339  1.7983 -1.1746
 4067TIP3    H233761   1.817   1.019   8.594 -1.0296  0.1158  3.0392
 4068TIP3   OH233762   5.665   4.636   1.290  0.4371 -0.5632 -0.1310
 4068TIP3    H133763   5.750   4.655   1.251  0.1173 -0.4197 -0.7655
 4068TIP3    H233764   5.625   4.572   1.231 -0.7060  0.8445 -0.9148
 4069TIP3   OH233765   4.450   6.605   0.168 -0.4089  0.1658 -0.1760
 4069TIP3    H133766   4.387   6.646   0.109  1.0143  1.7879 -0.6800
 4069TIP3    H233767   4.506   6.678   0.196  0.9306 -1.1227  0.6220
 4070TIP3   OH233768   5.643   2.985   0.253  0.0827 -0.1313  0.3372
 4070TIP3    H133769   5.658   2.904   0.205 -2.0258 -1.0613  1.1422
 4070TIP3    H233770   5.604   3.044   0.189 -1.1217 -0.7912  0.4230
 4071TIP3   OH233771   1.995   6.566   7.209  0.2070  0.8460  0.0963
 4071TIP3    H133772   1.923   6.603   7.260 -0.2417 -0.1876  0.2276
 4071TIP3    H233773   2.065   6.631   7.217 -1.3916  2.9697 -1.8661
 4072TIP3   OH233774   2.226   2.874   0.689 -0.8698 -0.1120  0.1087
 4072TIP3    H133775   2.144   2.877   0.738 -0.1672 -0.5556  1.3573
 4072TIP3    H233776   2.266   2.790   0.713 -0.8581 -0.7262 -1.8662
 4073TIP3   OH233777   0.329   0.879   7.145 -0.2999  0.9449 -0.0442
 4073TIP3    H133778   0.402   0.940   7.147  1.0374 -0.5880  0.3792
 4073TIP3    H233779   0.299   0.874   7.236  0.1700  0.3363  0.0843
 4074TIP3   OH233780   3.656   3.452   1.540  0.1480  0.2654  0.6633
 4074TIP3    H133781   3.582   3.498   1.581  0.2540  1.2429 -0.2099
 4074TIP3    H233782   3.625   3.362   1.532  0.0841  0.0294  2.7667
 4075TIP3   OH233783   5.343   3.234   0.747 -0.0534  0.3000 -0.1538
 4075TIP3    H133784   5.401   3.221   0.822  1.3794 -1.5587 -1.4728
 4075TIP3    H233785   5.357   3.324   0.720  1.1578  0.3141  0.4533
 4076TIP3   OH233786   0.054   6.682   8.612 -0.0472  0.0543  0.2991
 4076TIP3    H133787  -0.003   6.638   8.673 -0.2781  0.7878  0.6248
 4076TIP3    H233788   0.017   6.663   8.526 -1.1732  1.0360  0.5379
 4077TIP3   OH233789   2.253   6.510   2.228  0.0990  0.1700  0.2225
 4077TIP3    H133790   2.164   6.513   2.263 -0.0033 -1.0696  0.1110
 4077TIP3    H233791   2.309   6.530   2.303 -0.0898 -2.8721  1.3127
 4078TIP3   OH233792   2.493   0.579   0.040  0.2420  0.3523  0.5088
 4078TIP3    H133793   2.499   0.566   0.134  0.5899  1.3132  0.6333
 4078TIP3    H233794   2.402   0.604   0.025 -0.1283 -0.9784  0.4150
 4079TIP3   OH233795   6.790   3.287   0.032  0.2190  0.0369  0.3800
 4079TIP3    H133796   6.724   3.218   0.040  0.3381 -0.2375 -0.8400
 4079TIP3    H233797   6.868   3.250   0.073 -0.4288  0.4741  2.1001
 4080TIP3   OH233798   3.353   3.722   2.249 -0.2424  0.7691  0.0193
 4080TIP3    H133799   3.325   3.763   2.331 -3.0793  0.8450 -0.8487
 4080TIP3    H233800   3.337   3.789   2.183 -2.6899 -0.8100 -1.1279
 4081TIP3   OH233801   0.830   6.660   0.866  0.6397  0.4690  0.3624
 4081TIP3    H133802   0.906   6.623   0.912  1.4829 -0.1200 -1.4297
 4081TIP3    H233803   0.810   6.597   0.797 -1.9600  0.2666  1.1970
 4082TIP3   OH233804   1.789   4.985   6.814 -0.4756 -0.3748 -0.0339
 4082TIP3    H133805   1.817   5.039   6.740 -1.6729  0.3604  0.0157
 4082TIP3    H233806   1.759   4.903   6.774 -0.2810 -0.3297 -0.2759
 4083TIP3   OH233807   2.738   2.973   0.974 -0.2630  0.2893  0.1319
 4083TIP3    H133808   2.693   2.893   1.002 -0.2077  0.3863  0.5034
 4083TIP3    H233809   2.709   2.986   0.883  0.0216 -0.3568 -0.0540
 4084TIP3   OH233810   1.822   4.149   0.312 -0.5128  0.0984  0.5350
 4084TIP3    H133811   1.901   4.104   0.281 -0.7313  0.4414 -0.5659
 4084TIP3    H233812   1.849   4.241   0.321 -1.0977  0.4637 -1.1082
 4085TIP3   OH233813   0.023   3.732   2.139  0.0624  0.9303 -0.1776
 4085TIP3    H133814  -0.006   3.802   2.197  2.5600  0.7832  1.3557
 4085TIP3    H233815   0.001   3.651   2.185  1.4244  0.8024  0.2716
 4086TIP3   OH233816   0.277   1.358   1.486 -0.4365  0.3953  0.2434
 4086TIP3    H133817   0.216   1.367   1.413 -0.9220  2.1433  0.8206
 4086TIP3    H233818   0.282   1.264   1.502 -1.8619  0.1263 -0.7577
 4087TIP3   OH233819   3.781   4.771   8.048 -0.4696  0.2759 -0.7216
 4087TIP3    H133820   3.862   4.727   8.072 -0.1282  0.3781 -1.6495
 4087TIP3    H233821   3.713   4.704   8.058 -0.8417  1.0017  3.2208
 4088TIP3   OH233822   1.420   3.992   0.376 -0.4934  0.3126 -0.0595
 4088TIP3    H133823   1.446   4.000   0.468 -2.3267  1.5342  0.4172
 4088TIP3    H233824   1.364   4.068   0.361 -0.5686 -0.0931 -2.0933
 4089TIP3   OH233825   1.436   4.992   8.653  0.1617 -0.3783  0.1973
 4089TIP3    H133826   1.423   4.941   8.573  2.1744 -1.3943  0.4500
 4089TIP3    H233827   1.457   5.081   8.622 -1.6416 -0.0903 -0.2924
 4090TIP3   OH233828   0.505   6.763   1.756 -0.4028 -1.1519  0.1644
 4090TIP3    H133829   0.498   6.850   1.793  0.0652 -1.5405  1.1863
 4090TIP3    H233830   0.565   6.773   1.682 -1.3611 -0.3730 -0.5390
 4091TIP3   OH233831   6.647   4.098   0.915 -0.1306 -0.1809  0.1432
 4091TIP3    H133832   6.640   4.003   0.919  0.4287 -0.2662 -0.6711
 4091TIP3    H233833   6.682   4.123   1.001 -1.6499 -0.5519  0.9124
 4092TIP3   OH233834   4.620   5.796   7.367 -0.1799  0.1881 -0.3418
 4092TIP3    H133835   4.583   5.852   7.435  0.6386 -0.7737  0.9482
 4092TIP3    H233836   4.589   5.834   7.284 -1.9272  0.8767  0.5802
 4093TIP3   OH233837   3.855   4.625   8.504  0.2949  0.9732 -0.3515
 4093TIP3    H133838   3.859   4.531   8.524 -0.7715  0.9748 -0.0610
 4093TIP3    H233839   3.946   4.653   8.500  0.6107  0.0341  0.0949
 4094TIP3   OH233840   2.130   4.885   2.815  0.3933 -0.3539 -0.3910
 4094TIP3    H133841   2.072   4.812   2.793 -2.0458  0.3462  2.9525
 4094TIP3    H233842   2.196   4.885   2.746 -1.7373 -3.2453 -2.6692
 4095TIP3   OH233843   3.239   0.309   0.969  0.2869 -0.6335  0.3098
 4095TIP3    H133844   3.144   0.311   0.972  0.1915 -1.6831 -0.9891
 4095TIP3    H233845   3.267   0.326   1.059 -1.1230 -0.6330  0.7670
 4096TIP3   OH233846   3.562   6.822   7.689 -0.2140  0.8029 -0.6061
 4096TIP3    H133847   3.600   6.755   7.745  0.6387  0.9973 -0.9383
 4096TIP3    H233848   3.483   6.851   7.736 -0.7508 -0.6056 -0.5944
 4097TIP3   OH233849   4.072   0.423   8.498 -0.0601 -0.4087  0.7516
 4097TIP3    H133850   4.011   0.454   8.431 -0.0772  1.8721  1.7296
 4097TIP3    H233851   4.140   0.377   8.449 -0.6251  0.2787 -0.7368
 4098TIP3   OH233852   6.546   5.939   6.333  0.2471  0.1438 -0.4688
 4098TIP3    H133853   6.622   5.995   6.315 -0.2920  0.7499 -0.9494
 4098TIP3    H233854   6.472   5.987   6.293 -0.1215 -1.2835 -1.5756
 4099TIP3   OH233855   4.981   3.508   1.233 -0.4268 -0.4706 -0.6913
 4099TIP3    H133856   4.911   3.573   1.241 -1.1306 -1.3888  1.6190
 4099TIP3    H233857   4.942   3.436   1.185 -1.5243 -1.4069  1.4455
 4100TIP3   OH233858   3.274   0.504   0.757 -0.0044 -0.5069  0.3352
 4100TIP3    H133859   3.249   0.429   0.811  0.9331 -2.1468 -1.3833
 4100TIP3    H233860   3.339   0.469   0.696  0.5229  1.7478 -0.4871
 4101TIP3   OH233861   1.701   4.494   2.219 -0.5148 -0.3355 -0.2055
 4101TIP3    H133862   1.628   4.433   2.220 -1.3349  0.5534  2.4167
 4101TIP3    H233863   1.698   4.533   2.131  0.5344 -4.4225 -2.3101
 4102TIP3   OH233864   5.391   0.612   6.341  0.6702 -0.3553 -0.1182
 4102TIP3    H133865   5.323   0.674   6.313  0.5044 -0.6054 -0.2665
 4102TIP3    H233866   5.394   0.622   6.436  0.5733 -0.1937 -0.1309
 4103TIP3   OH233867   2.803   0.919   7.622  0.3764  0.0057  0.2901
 4103TIP3    H133868   2.772   0.998   7.667 -0.6031  0.4184 -1.0643
 4103TIP3    H233869   2.774   0.847   7.678 -2.6027  0.3959 -0.5612
 4104TIP3   OH233870   3.575   3.174   6.597 -0.0970 -0.0690  0.6802
 4104TIP3    H133871   3.633   3.107   6.561  0.3900 -0.1048  1.5083
 4104TIP3    H233872   3.591   3.251   6.543 -0.9308 -0.6925 -0.5190
 4105TIP3   OH233873   4.635   5.708   8.413 -0.5357 -0.1726  0.1294
 4105TIP3    H133874   4.585   5.671   8.340  0.3199 -0.2474 -0.4275
 4105TIP3    H233875   4.568   5.743   8.472 -1.3196 -1.5871  0.1253
 4106TIP3   OH233876   0.811   6.131   7.716  0.0382 -0.1448 -0.2266
 4106TIP3    H133877   0.834   6.057   7.772  0.6339  0.4055  0.2811
 4106TIP3    H233878   0.787   6.201   7.777 -2.1598 -0.4039 -0.7319
 4107TIP3   OH233879   0.216   6.089   8.098 -0.2114  0.1972 -0.0489
 4107TIP3    H133880   0.162   6.022   8.056 -1.0678  1.1684 -0.5736
 4107TIP3    H233881   0.243   6.050   8.181 -2.2608 -0.1347  0.5367
 4108TIP3   OH233882   3.032   6.166   1.154 -0.2506  0.4450 -0.0578
 4108TIP3    H133883   2.997   6.087   1.114  1.8007  0.2662 -1.6448
 4108TIP3    H233884   3.055   6.223   1.081  1.5748  1.0258  0.8948
 4109TIP3   OH233885   2.712   0.013   1.154  0.1973  0.2993 -0.0405
 4109TIP3    H133886   2.735  -0.025   1.239  0.0538  2.5514  1.0766
 4109TIP3    H233887   2.616   0.008   1.150  0.1784  0.5619  0.1059
 4110TIP3   OH233888   2.597   1.840   8.275 -0.1721 -0.6280  0.1679
 4110TIP3    H133889   2.583   1.811   8.185  1.6087 -0.0031 -0.3431
 4110TIP3    H233890   2.687   1.872   8.277 -0.0746 -0.8787  2.2482
 4111TIP3   OH233891   4.169   4.292   8.512  0.4832  0.3329  1.1247
 4111TIP3    H133892   4.207   4.380   8.514  0.2288  0.4345  1.6017
 4111TIP3    H233893   4.174   4.266   8.420  0.6698  0.7990  1.0014
 4112TIP3   OH233894   5.238   4.876   2.099 -0.3800  0.2350  0.1370
 4112TIP3    H133895   5.295   4.934   2.048 -1.3640  0.2676 -0.9581
 4112TIP3    H233896   5.267   4.888   2.189  0.8950  0.7581 -0.3216
 4113TIP3   OH233897   4.412   2.475   0.970 -0.1250  0.5124 -0.3007
 4113TIP3    H133898   4.332   2.524   0.951  1.1152  2.0180 -1.9491
 4113TIP3    H233899   4.414   2.407   0.902  2.3057  3.4642 -3.5390
 4114TIP3   OH233900   6.359   4.064   0.208 -0.0956  0.4059  0.0247
 4114TIP3    H133901   6.341   4.069   0.302 -0.9749 -1.2009 -0.0191
 4114TIP3    H233902   6.336   3.974   0.184  0.6238  0.6256 -1.6325
 4115TIP3   OH233903   3.547   6.751   1.620 -0.6489  0.1055  1.1687
 4115TIP3    H133904   3.535   6.832   1.570 -2.2445 -0.7413  0.0730
 4115TIP3    H233905   3.500   6.767   1.702  0.6373  0.9343  1.7720
 4116TIP3   OH233906   2.713   6.519   7.371  0.0267  0.0778 -0.7795
 4116TIP3    H133907   2.679   6.591   7.424  0.2743 -0.2832 -0.1164
 4116TIP3    H233908   2.760   6.463   7.433  1.2607  0.2136 -1.5552
 4117TIP3   OH233909   1.090   0.263   0.674 -0.2228  0.1832 -0.1004
 4117TIP3    H133910   1.022   0.196   0.685 -1.3223  1.5349  2.3776
 4117TIP3    H233911   1.172   0.217   0.691 -0.8490 -0.7613  0.4743
 4118TIP3   OH233912   2.252   6.031   8.431  0.1790 -0.1897  0.4709
 4118TIP3    H133913   2.188   5.996   8.369 -0.4792 -0.6940  1.4085
 4118TIP3    H233914   2.282   5.955   8.481  1.7223  0.0034 -0.1154
 4119TIP3   OH233915   1.142   3.172   1.020  0.1258  0.0150 -0.6717
 4119TIP3    H133916   1.158   3.078   1.008 -0.3882  0.0683 -1.8608
 4119TIP3    H233917   1.050   3.183   1.000 -0.6076  0.3238  2.3832
 4120TIP3   OH233918   6.073   2.631   6.837  0.0542 -0.4139 -0.2244
 4120TIP3    H133919   6.133   2.584   6.779 -0.4464  0.0272 -1.1230
 4120TIP3    H233920   5.986   2.617   6.798 -0.2745  0.0200  0.3306
 4121TIP3   OH233921   3.284   6.846   0.547 -0.4358 -0.5119 -0.1591
 4121TIP3    H133922   3.347   6.883   0.609 -0.3400 -0.3568 -0.3470
 4121TIP3    H233923   3.315   6.877   0.462 -2.4550  2.1508 -0.0739
 4122TIP3   OH233924   0.400   3.348   6.790  1.0086  0.0714 -0.2889
 4122TIP3    H133925   0.332   3.315   6.731  0.6180 -0.5082  0.4741
 4122TIP3    H233926   0.477   3.295   6.769  0.9405  0.0335 -0.4479
 4123TIP3   OH233927   4.638   3.675   6.058 -0.6630 -0.0396  0.2289
 4123TIP3    H133928   4.690   3.668   5.978 -2.4259 -1.3959 -0.8938
 4123TIP3    H233929   4.599   3.762   6.055 -1.6304 -0.4822 -1.0510
 4124TIP3   OH233930   5.405   4.289   8.610  1.3326  1.0355 -0.1933
 4124TIP3    H133931   5.397   4.360   8.547  1.5979  0.0048 -1.4347
 4124TIP3    H233932   5.323   4.290   8.659  0.6203  1.1536 -1.3429
 4125TIP3   OH233933   6.338   2.164   8.667  0.0057  0.0725  0.6141
 4125TIP3    H133934   6.394   2.167   8.744  0.6083  0.0482  0.1791
 4125TIP3    H233935   6.374   2.230   8.608 -1.3030  1.1025  0.9223
 4126TIP3   OH233936   2.956   3.677   8.622 -0.2715 -0.3549  0.7830
 4126TIP3    H133937   2.861   3.674   8.605 -0.4845  1.0711  1.5716
 4126TIP3    H233938   2.968   3.619   8.697 -0.5525 -0.3554  0.8315
 4127TIP3   OH233939   5.453   5.897   1.168 -0.1647  0.2064  0.1526
 4127TIP3    H133940   5.530   5.949   1.192  0.0401 -0.8166  1.8401
 4127TIP3    H233941   5.379   5.955   1.186  0.1249  0.5088  0.3930
 4128TIP3   OH233942   5.219   2.380   1.053  0.4663  0.6221 -0.2156
 4128TIP3    H133943   5.264   2.430   0.985  0.3049 -0.3577 -1.0694
 4128TIP3    H233944   5.185   2.446   1.113 -0.6952  1.6369 -1.8956
 4129TIP3   OH233945   5.662   1.054   6.938 -0.4036  0.2089  0.8882
 4129TIP3    H133946   5.748   1.031   6.972 -0.7284  1.0361  2.3271
 4129TIP3    H233947   5.613   1.084   7.014 -1.5087  1.1212 -0.1437
 4130TIP3   OH233948   1.742   0.251   1.750  0.5403 -0.3196 -0.3920
 4130TIP3    H133949   1.734   0.303   1.670  1.0962 -0.1956 -0.3712
 4130TIP3    H233950   1.824   0.203   1.739  1.1779  0.5312  0.5869
 4131TIP3   OH233951   2.322   2.653   0.883 -0.2971 -0.2493 -0.1053
 4131TIP3    H133952   2.417   2.661   0.873 -0.2293 -2.2572 -1.7486
 4131TIP3    H233953   2.311   2.594   0.957 -0.1683 -1.4919 -1.0462
 4132TIP3   OH233954   6.611   1.858   7.970  0.1310 -0.1539 -0.0629
 4132TIP3    H133955   6.647   1.769   7.973  2.1978  0.6625  1.4579
 4132TIP3    H233956   6.625   1.886   7.879 -0.5278 -1.3209 -0.5579
 4133TIP3   OH233957   6.081   4.686   7.380 -0.1303 -0.1704 -0.0485
 4133TIP3    H133958   6.054   4.656   7.293 -4.0125 -0.7278  1.1320
 4133TIP3    H233959   6.148   4.623   7.407 -0.0247 -0.9691 -1.9856
 4134TIP3   OH233960   3.909   1.454   2.578  0.6509  0.4303  0.3749
 4134TIP3    H133961   3.960   1.427   2.503  0.3743  0.0729  0.3147
 4134TIP3    H233962   3.966   1.440   2.653  1.6330  2.5291  0.0967
 4135TIP3   OH233963   0.765   2.033   8.660  0.3272  0.5931  0.3741
 4135TIP3    H133964   0.726   2.031   8.747 -0.8416  0.4999 -0.1319
 4135TIP3    H233965   0.847   1.985   8.669  0.7949  1.5778  1.6739
 4136TIP3   OH233966   2.240   0.649   0.020  0.0894  0.3749  0.3048
 4136TIP3    H133967   2.189   0.587  -0.032 -0.5543  1.2082 -0.0895
 4136TIP3    H233968   2.256   0.723  -0.040  1.2857  0.3699  0.5981
 4137TIP3   OH233969   5.776   6.672   6.710  0.6080  0.2492  0.4070
 4137TIP3    H133970   5.785   6.619   6.789 -0.4920 -0.5728  0.0122
 4137TIP3    H233971   5.859   6.662   6.665  2.0421  2.3323  2.3627
 4138TIP3   OH233972   3.889   1.331   6.818  0.4925  0.1110  0.2911
 4138TIP3    H133973   3.895   1.310   6.724 -1.7239  0.2229  0.0731
 4138TIP3    H233974   3.977   1.315   6.851  0.6378 -2.9786 -1.1997
 4139TIP3   OH233975   3.936   5.500   1.530  0.5161 -0.4629  0.6683
 4139TIP3    H133976   3.904   5.561   1.463 -0.9994 -0.6425  1.1737
 4139TIP3    H233977   3.959   5.556   1.604  2.0378 -0.2774  0.0810
 4140TIP3   OH233978   4.483   3.031   6.751 -0.0718  0.1727 -0.1693
 4140TIP3    H133979   4.480   2.944   6.710 -1.2580  0.3545 -0.5151
 4140TIP3    H233980   4.520   3.088   6.684  2.8204 -0.4088  0.8008
 4141TIP3   OH233981   6.317   1.928   7.641  0.4175 -0.2709  0.5857
 4141TIP3    H133982   6.275   1.863   7.698  2.3061 -2.4599 -0.3626
 4141TIP3    H233983   6.389   1.963   7.694  0.2609  0.0349  0.6006
 4142TIP3   OH233984   4.703   0.817   7.859  0.1244 -0.2113  0.8282
 4142TIP3    H133985   4.696   0.908   7.830  1.1257  0.5157  2.7194
 4142TIP3    H233986   4.790   0.790   7.830 -0.7423 -1.1618 -1.1268
 4143TIP3   OH233987   3.952   4.525   0.480 -0.0906  0.2383 -0.4323
 4143TIP3    H133988   3.900   4.549   0.557 -0.1694 -2.4661  0.4694
 4143TIP3    H233989   3.894   4.543   0.406 -1.4040 -0.3659  0.4046
 4144TIP3   OH233990   5.175   0.775   0.538 -0.2458  0.8730 -0.3772
 4144TIP3    H133991   5.096   0.721   0.538  0.1138  0.2694  1.5152
 4144TIP3    H233992   5.201   0.780   0.630  1.8253  1.2112 -0.9243
 4145TIP3   OH233993   4.353   1.092   1.618  0.5437 -0.1952  0.5155
 4145TIP3    H133994   4.419   1.072   1.684  3.3599  1.6818 -1.4864
 4145TIP3    H233995   4.374   1.035   1.545 -0.5375 -0.0719  0.0849
 4146TIP3   OH233996   0.564   4.778   6.530 -0.0181 -0.5189 -0.3944
 4146TIP3    H133997   0.579   4.800   6.622 -1.1208  0.8710 -0.4989
 4146TIP3    H233998   0.602   4.852   6.482 -0.9184 -0.4010 -0.9497
 4147TIP3   OH233999   4.259   5.472   7.267 -0.3693 -0.1025 -0.1845
 4147TIP3    H134000   4.269   5.433   7.354 -1.3262 -0.7908 -0.3623
 4147TIP3    H234001   4.321   5.544   7.266  1.0102 -1.2364  0.3878
 4148TIP3   OH234002   2.501   0.557   0.592 -0.2387 -0.2406 -0.2565
 4148TIP3    H134003   2.534   0.467   0.597 -1.3520 -0.7296 -1.1435
 4148TIP3    H234004   2.507   0.579   0.499 -2.4430 -0.4097 -0.4956
 4149TIP3   OH234005   1.323   2.676   0.934 -0.2149  0.2240  0.3050
 4149TIP3    H134006   1.397   2.631   0.896 -1.1716 -1.7459  0.6273
 4149TIP3    H234007   1.259   2.607   0.953 -1.8357  1.7323  0.7253
 4150TIP3   OH234008   2.530   5.876   7.835  0.8443  0.3979 -0.2756
 4150TIP3    H134009   2.560   5.869   7.745  1.5998  3.3716 -0.3801
 4150TIP3    H234010   2.606   5.909   7.883  0.1211 -0.0131  1.2217
 4151TIP3   OH234011   1.128   6.585   1.850 -0.6561  0.1048 -0.1606
 4151TIP3    H134012   1.204   6.543   1.891 -1.0647 -0.5412 -0.0584
 4151TIP3    H234013   1.161   6.671   1.822 -0.2145  0.3373  0.9939
 4152TIP3   OH234014   2.234   1.872   1.115  0.5650  0.5837 -0.0146
 4152TIP3    H134015   2.261   1.889   1.024 -0.2837 -0.0496 -0.4041
 4152TIP3    H234016   2.181   1.948   1.138  1.0773  0.9175  0.0845
 4153TIP3   OH234017   3.468   6.251   1.482 -0.4537 -0.6440 -0.6605
 4153TIP3    H134018   3.470   6.343   1.453 -1.7957 -1.0953 -2.3720
 4153TIP3    H234019   3.560   6.229   1.498 -0.0572  0.8437 -0.7296
 4154TIP3   OH234020   1.960   5.696   1.028  0.1730  0.4172 -0.0244
 4154TIP3    H134021   1.913   5.707   0.945 -0.5804  0.5665  0.4155
 4154TIP3    H234022   2.047   5.731   1.010  0.4132 -0.6379 -1.1013
 4155TIP3   OH234023   4.181   4.187   1.301 -0.5305 -0.6353 -0.0517
 4155TIP3    H134024   4.138   4.232   1.228 -0.6831 -1.9111 -0.7769
 4155TIP3    H234025   4.250   4.135   1.260  0.8913  0.3611  0.9616
 4156TIP3   OH234026   0.115   2.822   1.851 -0.4715  0.1339 -0.1282
 4156TIP3    H134027   0.178   2.893   1.838  1.2461 -1.3765 -0.4828
 4156TIP3    H234028   0.163   2.756   1.900 -1.6740 -1.2469 -0.7415
 4157TIP3   OH234029   2.985   0.119   1.107  0.0846 -0.0262  0.0982
 4157TIP3    H134030   2.983   0.178   1.031 -1.5142  1.9031  1.5357
 4157TIP3    H234031   2.895   0.086   1.114  0.7887 -2.1760 -0.2581
 4158TIP3   OH234032   4.552   0.757   2.503 -0.5261  0.1236  0.0656
 4158TIP3    H134033   4.485   0.696   2.472  1.6147 -2.8325  0.7363
 4158TIP3    H234034   4.633   0.726   2.462  1.0400  1.1790  2.1558
 4159TIP3   OH234035   6.423   6.865   7.077  0.1740  0.1296 -0.1530
 4159TIP3    H134036   6.355   6.931   7.093 -0.8706 -0.8944 -0.2656
 4159TIP3    H234037   6.501   6.917   7.055 -0.3412  1.3540  0.7293
 4160TIP3   OH234038   5.747   3.486   7.468  0.2561  0.5435 -0.0658
 4160TIP3    H134039   5.739   3.581   7.463 -0.0399  0.7649  2.8769
 4160TIP3    H234040   5.809   3.470   7.539 -0.9263 -1.4315  0.6190
 4161TIP3   OH234041   0.793   1.036   0.303 -0.1677  0.2708  0.1920
 4161TIP3    H134042   0.827   1.103   0.362 -0.3527  1.0977 -0.6133
 4161TIP3    H234043   0.766   0.965   0.360  2.1476 -0.1030  0.9372
 4162TIP3   OH234044   4.058   0.081   7.935  0.5306 -0.0693 -0.2313
 4162TIP3    H134045   4.145   0.043   7.949  0.6217  0.2188 -0.0070
 4162TIP3    H234046   4.002   0.006   7.916  0.8032 -0.2697 -0.2484
 4163TIP3   OH234047   1.334   0.092   6.944 -0.0692  1.0118  0.0666
 4163TIP3    H134048   1.417   0.045   6.937  0.0526  1.3071 -0.6216
 4163TIP3    H234049   1.284   0.064   6.867 -1.0999 -0.0672  1.0962
 4164TIP3   OH234050   2.851   1.961   8.231  0.2755 -0.5187 -0.9186
 4164TIP3    H134051   2.885   1.973   8.142  2.5635 -1.2652 -0.2275
 4164TIP3    H234052   2.903   1.889   8.266 -0.8859 -0.5223  0.8854
 4165TIP3   OH234053   5.393   3.427   2.466  0.7173 -0.2835  0.4377
 4165TIP3    H134054   5.357   3.357   2.521 -0.4061  0.7431  1.0475
 4165TIP3    H234055   5.437   3.381   2.395 -2.0919 -1.6336 -0.5364
 4166TIP3   OH234056   6.417   4.985   0.252 -0.0386 -0.3719  0.5247
 4166TIP3    H134057   6.324   4.987   0.275 -0.1665 -0.0637 -0.0097
 4166TIP3    H234058   6.445   4.896   0.275 -0.6936 -0.7677 -0.1802
 4167TIP3   OH234059   0.966   6.295   6.115 -0.2863  0.2935 -0.3574
 4167TIP3    H134060   0.940   6.364   6.054  0.1017  0.5968 -0.1858
 4167TIP3    H234061   1.061   6.299   6.117 -0.2818  0.0950  0.0535
 4168TIP3   OH234062   2.810   1.772   7.065  0.1169 -0.0595  0.2749
 4168TIP3    H134063   2.770   1.832   7.001  0.6623 -0.0312 -0.0480
 4168TIP3    H234064   2.815   1.688   7.019  0.9301  0.0708  0.1058
 4169TIP3   OH234065   3.743   0.901   7.637 -0.4729  0.3055 -0.2457
 4169TIP3    H134066   3.702   0.937   7.559 -1.4171 -0.6010 -0.1919
 4169TIP3    H234067   3.812   0.964   7.660 -0.0119  0.4590 -1.9350
 4170TIP3   OH234068   1.063   0.071   8.598 -0.0526  0.6460  0.3354
 4170TIP3    H134069   1.038  -0.010   8.643 -0.2845 -0.6282 -1.9446
 4170TIP3    H234070   1.122   0.043   8.529 -0.4801  2.3718 -0.7926
 4171TIP3   OH234071   1.291   4.268   1.949 -0.7092 -0.2488 -0.3562
 4171TIP3    H134072   1.239   4.266   1.869 -1.1531  0.5684 -0.0929
 4171TIP3    H234073   1.369   4.216   1.928 -0.2341  0.9374 -1.7387
 4172TIP3   OH234074   3.588   2.750   8.535  0.5456  0.1969  0.6375
 4172TIP3    H134075   3.663   2.700   8.505 -0.0353  0.0613 -0.6390
 4172TIP3    H234076   3.542   2.691   8.595  1.2679  0.1592  1.1567
 4173TIP3   OH234077   4.720   0.395   7.213  0.1024  0.2429 -0.4562
 4173TIP3    H134078   4.729   0.413   7.119  0.9783 -0.1978 -0.4669
 4173TIP3    H234079   4.637   0.435   7.237 -0.2171  0.2095 -1.4592
 4174TIP3   OH234080   3.899   1.007   0.668  0.3290 -0.0213 -0.2572
 4174TIP3    H134081   3.950   1.053   0.601 -0.2228  0.7466 -0.1528
 4174TIP3    H234082   3.954   1.011   0.746  1.3615 -1.6508 -0.8334
 4175TIP3   OH234083   6.081   3.440   8.485  0.0056 -0.7075  0.6049
 4175TIP3    H134084   6.102   3.364   8.430  1.3816  0.3931 -0.4698
 4175TIP3    H234085   5.986   3.446   8.482  0.0161 -0.1162 -2.5935
 4176TIP3   OH234086   2.807   3.551   0.240  0.5206 -0.0945  0.0115
 4176TIP3    H134087   2.782   3.553   0.147  2.7305 -0.2898 -0.6495
 4176TIP3    H234088   2.725   3.562   0.287 -0.5236  1.3794 -1.9917
 4177TIP3   OH234089   5.356   1.049   8.126 -0.5773  1.0244  0.2341
 4177TIP3    H134090   5.431   0.993   8.145 -0.4200  1.6015  1.4456
 4177TIP3    H234091   5.309   1.054   8.210 -0.1448  3.3343  0.4054
 4178TIP3   OH234092   3.646   0.377   6.192  0.6725 -0.7026  0.0313
 4178TIP3    H134093   3.738   0.402   6.181  1.2875 -2.1655  1.4171
 4178TIP3    H234094   3.640   0.347   6.283 -1.6614  1.1659  0.6052
 4179TIP3   OH234095   5.353   0.940   7.534 -0.3859  0.2951 -0.5356
 4179TIP3    H134096   5.446   0.953   7.555 -0.1587 -2.2042  0.3186
 4179TIP3    H234097   5.312   0.920   7.619 -1.6570  0.9584 -0.9583
 4180TIP3   OH234098   3.041   1.537   1.343  0.2479 -0.0412 -0.1108
 4180TIP3    H134099   2.951   1.514   1.320 -0.2236  0.4856  1.0981
 4180TIP3    H234100   3.052   1.628   1.313  1.6298 -1.2021 -3.5674
 4181TIP3   OH234101   5.972   1.334   7.214 -0.1104  0.0721 -0.3155
 4181TIP3    H134102   5.931   1.369   7.134  1.4616  1.2953 -0.6520
 4181TIP3    H234103   6.063   1.363   7.208 -0.0029  0.4286  2.0504
 4182TIP3   OH234104   0.557   6.036   7.318  0.7463  0.3768  0.8982
 4182TIP3    H134105   0.617   5.964   7.297  0.6289  0.4329  0.3540
 4182TIP3    H234106   0.579   6.059   7.408  1.5158  0.3630  0.7264
 4183TIP3   OH234107   5.331   2.531   7.744  0.2468 -0.4201 -0.3277
 4183TIP3    H134108   5.311   2.594   7.813  0.3636 -0.0009 -0.6687
 4183TIP3    H234109   5.425   2.545   7.727  0.8915 -2.3652  1.2675
 4184TIP3   OH234110   1.044   3.436   8.031 -0.0795 -0.1460  0.8559
 4184TIP3    H134111   1.100   3.486   7.971 -1.7289 -0.6205 -1.2019
 4184TIP3    H234112   1.104   3.373   8.071  1.2146  0.6279  0.2134
 4185TIP3   OH234113   5.171   1.704   7.014 -0.0412  0.1235  0.4120
 4185TIP3    H134114   5.157   1.640   7.084 -0.3077 -1.8287 -1.3101
 4185TIP3    H234115   5.085   1.741   6.997 -0.0776  0.1875  0.7397
 4186TIP3   OH234116   0.947   4.611   0.711  0.4351 -0.6189 -0.0906
 4186TIP3    H134117   1.010   4.673   0.749  1.0711 -0.9393 -0.6019
 4186TIP3    H234118   0.941   4.638   0.619 -0.8458 -0.0481  0.1274
 4187TIP3   OH234119   5.533   1.707   0.879 -0.2130  0.3585 -0.1792
 4187TIP3    H134120   5.544   1.625   0.928 -0.5498  0.0388 -0.6264
 4187TIP3    H234121   5.581   1.772   0.930 -1.7752  0.3519  1.3859
 4188TIP3   OH234122   2.209   0.037   8.132  0.1360 -0.1970  0.1256
 4188TIP3    H134123   2.203   0.041   8.037 -2.5125 -0.0758  0.2138
 4188TIP3    H234124   2.245  -0.050   8.150  1.7684  0.2136 -0.9564
 4189TIP3   OH234125   3.167   0.610   1.358  0.4885 -0.0979  0.2502
 4189TIP3    H134126   3.244   0.660   1.386 -0.4230  0.7721  1.3171
 4189TIP3    H234127   3.126   0.581   1.440  0.6404 -2.0987 -0.3298
 4190TIP3   OH234128   5.253   0.331   7.384 -0.3659 -0.0910  0.3015
 4190TIP3    H134129   5.191   0.325   7.311  1.2360  0.5203 -1.1921
 4190TIP3    H234130   5.210   0.284   7.456 -3.1637  1.5174 -0.1689
 4191TIP3   OH234131   5.936   2.970   8.485 -0.0552 -0.3065  0.5846
 4191TIP3    H134132   5.945   2.877   8.506  0.5305 -0.1409  1.1120
 4191TIP3    H234133   6.026   3.002   8.479 -0.1563 -0.3153 -2.2171
 4192TIP3   OH234134   5.889   4.919   8.075 -0.1980 -0.0063 -0.2452
 4192TIP3    H134135   5.880   4.875   7.990 -3.1823  0.2648 -0.1821
 4192TIP3    H234136   5.822   4.987   8.074  0.2877  0.5830  1.9961
 4193TIP3   OH234137   5.576   6.291   8.586  0.4199  0.7244  0.0396
 4193TIP3    H134138   5.634   6.329   8.521 -0.3259  0.1564 -0.9806
 4193TIP3    H234139   5.488   6.322   8.561  0.0464 -0.0472  0.3725
 4194TIP3   OH234140   0.402   1.075   1.459 -0.2860  0.4450  0.0289
 4194TIP3    H134141   0.385   1.080   1.365  2.3238 -1.9255 -0.7140
 4194TIP3    H234142   0.488   1.114   1.470  0.3224 -1.1132  1.0808
 4195TIP3   OH234143   0.732   1.699   6.541 -0.2875  0.5243 -0.0155
 4195TIP3    H134144   0.808   1.753   6.565  1.2426 -2.3215  2.1278
 4195TIP3    H234145   0.760   1.654   6.461  0.0722  0.0079  0.3865
 4196TIP3   OH234146   3.698   0.089   8.163  0.2220  0.1645  0.1243
 4196TIP3    H134147   3.722   0.023   8.099 -1.1555  1.3197 -1.7010
 4196TIP3    H234148   3.603   0.082   8.171  0.2270  0.8948  1.0864
 4197TIP3   OH234149   4.161   3.898   2.011 -0.2636  0.1345  0.2824
 4197TIP3    H134150   4.241   3.849   2.029  0.4133  0.5773 -1.3266
 4197TIP3    H234151   4.141   3.944   2.093 -0.2435 -1.8286  1.4437
 4198TIP3   OH234152   5.881   2.939   0.703 -0.4075 -0.4229 -0.2064
 4198TIP3    H134153   5.833   2.999   0.647  0.5863 -0.3125 -0.9624
 4198TIP3    H234154   5.815   2.904   0.763 -1.4222 -0.2674 -1.2012
 4199TIP3   OH234155   4.439   1.865   1.191  0.3833  0.4708 -0.7051
 4199TIP3    H134156   4.472   1.890   1.277  0.6318 -0.8839 -0.3822
 4199TIP3    H234157   4.344   1.864   1.202  0.4425 -2.7107  0.5263
 4200TIP3   OH234158   0.493   5.135   0.867  0.0694  0.3432 -0.2727
 4200TIP3    H134159   0.493   5.050   0.911 -0.6674 -0.4558 -1.7510
 4200TIP3    H234160   0.558   5.126   0.798  0.2181  1.1138 -0.2455
 4201TIP3   OH234161   3.485   4.730   7.051 -0.1157  0.1116  0.2384
 4201TIP3    H134162   3.402   4.712   7.007 -0.9609  0.0769  1.7911
 4201TIP3    H234163   3.534   4.649   7.043 -0.3682  0.0183 -0.3992
 4202TIP3   OH234164   3.301   0.664   6.265  0.6044 -0.0205  0.1780
 4202TIP3    H134165   3.244   0.604   6.314  2.2878 -0.5891  1.5380
 4202TIP3    H234166   3.283   0.750   6.302  0.9839 -0.2700  0.9523
 4203TIP3   OH234167   5.986   2.416   2.288  0.1090 -0.0966  0.5842
 4203TIP3    H134168   6.032   2.482   2.236 -3.1904  1.0809 -1.1482
 4203TIP3    H234169   5.957   2.463   2.366 -0.2165 -0.1195  0.4799
 4204TIP3   OH234170   0.381   4.269   8.288 -0.4438  0.2402 -0.2932
 4204TIP3    H134171   0.374   4.175   8.274  0.7098  0.1766 -0.6087
 4204TIP3    H234172   0.291   4.302   8.283 -0.8120 -0.7898 -0.5689
 4205TIP3   OH234173   5.083   1.350   7.531 -0.8014 -0.6801  0.1742
 4205TIP3    H134174   5.133   1.314   7.604  1.1030  0.8286 -0.3114
 4205TIP3    H234175   5.087   1.283   7.463 -0.5134 -1.0769  0.5782
 4206TIP3   OH234176   6.196   3.501   0.416  0.1707 -0.4241  0.2410
 4206TIP3    H134177   6.107   3.488   0.384  0.7633  1.1374 -2.3781
 4206TIP3    H234178   6.188   3.504   0.511 -2.6354  0.1815  0.0614
 4207TIP3   OH234179   1.532   3.357   8.179 -0.4128 -0.1075 -0.3593
 4207TIP3    H134180   1.439   3.341   8.166 -0.2364 -0.3063 -1.5824
 4207TIP3    H234181   1.575   3.281   8.138  0.3135  0.9110 -1.5847
 4208TIP3   OH234182   3.107   2.524   6.954  0.1731 -0.2729  0.1593
 4208TIP3    H134183   3.066   2.480   6.879  0.8722 -0.8652  0.1114
 4208TIP3    H234184   3.191   2.556   6.920  0.3115 -0.1824  0.5814
 4209TIP3   OH234185   5.398   6.573   2.340  0.2545 -0.0388  0.2646
 4209TIP3    H134186   5.481   6.554   2.384  0.3070 -1.2345 -0.2975
 4209TIP3    H234187   5.333   6.568   2.410  0.2026 -2.9830  0.1592
 4210TIP3   OH234188   5.705   3.851   0.404  0.3207  0.7604  0.6505
 4210TIP3    H134189   5.714   3.902   0.324  2.5485  2.7143  2.0173
 4210TIP3    H234190   5.767   3.779   0.395 -1.6990 -0.9564 -0.6053
 4211TIP3   OH234191   1.751   6.653   7.318 -0.2267  1.0524 -0.2828
 4211TIP3    H134192   1.736   6.724   7.381  0.6004 -0.8218  2.1884
 4211TIP3    H234193   1.698   6.580   7.351  1.4544 -0.4793 -0.8269
 4212TIP3   OH234194   1.446   2.766   7.195  0.1443 -0.5754  0.0541
 4212TIP3    H134195   1.497   2.845   7.177 -2.0678  1.5746  2.4248
 4212TIP3    H234196   1.511   2.700   7.217  2.0280  1.0755 -0.2444
 4213TIP3   OH234197   4.981   0.199   1.881 -0.5655  0.3591  0.1725
 4213TIP3    H134198   4.887   0.198   1.901 -0.4705 -0.4495  0.5974
 4213TIP3    H234199   5.023   0.162   1.959  0.1280  0.9114  0.0705
 4214TIP3   OH234200   1.125   6.356   7.152  0.3367 -0.0659  0.2674
 4214TIP3    H134201   1.060   6.290   7.174 -0.2035  0.2913 -0.2169
 4214TIP3    H234202   1.175   6.319   7.080  0.6029 -0.2995  0.5719
 4215TIP3   OH234203   5.721   6.525   1.060 -0.5211 -0.3653 -0.2654
 4215TIP3    H134204   5.658   6.577   1.110 -0.6935 -1.6676  0.9134
 4215TIP3    H234205   5.674   6.503   0.979 -1.7757 -1.5984  0.7385
 4216TIP3   OH234206   3.965   3.201   8.434  0.0752  0.3783  0.6818
 4216TIP3    H134207   3.956   3.113   8.396  2.4825  0.3968 -0.1088
 4216TIP3    H234208   3.876   3.235   8.436 -0.4944 -0.2156 -3.6254
 4217TIP3   OH234209   3.033   1.254   2.356  0.6396  0.3833  0.3309
 4217TIP3    H134210   2.939   1.236   2.356  0.9457 -1.4002  0.1347
 4217TIP3    H234211   3.039   1.348   2.342 -1.0484  0.1938 -2.4553
 4218TIP3   OH234212   1.374   1.006   1.869  0.1267 -0.0696 -0.2596
 4218TIP3    H134213   1.324   0.939   1.822  1.7167  0.3298 -2.6710
 4218TIP3    H234214   1.341   1.089   1.835 -1.5745  0.4860  2.4407
 4219TIP3   OH234215   1.798   3.548   0.489 -0.1623 -0.0910  0.0430
 4219TIP3    H134216   1.844   3.632   0.484  0.1803 -0.3419 -1.1449
 4219TIP3    H234217   1.837   3.495   0.420 -1.2330 -0.8092 -0.0282
 4220TIP3   OH234218   5.850   3.241   8.052  0.4192  0.1790  0.8229
 4220TIP3    H134219   5.832   3.333   8.071  0.0997  0.0086  1.3581
 4220TIP3    H234220   5.945   3.238   8.038  0.2160  0.8698 -0.8576
 4221TIP3   OH234221   6.834   6.362   6.341  0.4460  0.1905  0.4321
 4221TIP3    H134222   6.810   6.414   6.417 -0.4820  0.1937  0.1558
 4221TIP3    H234223   6.787   6.279   6.352 -0.0706  0.3631 -0.3502
 4222TIP3   OH234224   4.461   0.512   0.272 -0.2432  0.2402  0.6569
 4222TIP3    H134225   4.546   0.525   0.229  0.9620 -0.0063  2.8464
 4222TIP3    H234226   4.407   0.584   0.239  1.4534  1.6235  0.7496
 4223TIP3   OH234227   1.006   2.784   2.233  0.7518  0.5470 -0.1125
 4223TIP3    H134228   0.995   2.718   2.165  1.5480  0.2286  0.0445
 4223TIP3    H234229   0.926   2.836   2.231  0.3296 -0.1104 -0.5829
 4224TIP3   OH234230   3.754   4.059   0.214 -0.1298 -0.7149  0.8244
 4224TIP3    H134231   3.831   4.083   0.267 -0.0639 -0.1578  0.4812
 4224TIP3    H234232   3.733   3.970   0.242 -0.3951 -0.2565  2.1528
 4225TIP3   OH234233   1.985   4.024   2.175 -0.2609  0.1823  0.5644
 4225TIP3    H134234   1.967   4.109   2.214 -0.8578 -0.0660  0.8350
 4225TIP3    H234235   1.918   4.014   2.107  0.6495  0.5311 -0.4310
 4226TIP3   OH234236   0.296   6.198   0.741 -0.2193  0.2417 -0.4489
 4226TIP3    H134237   0.252   6.238   0.816 -0.7254  1.7549 -1.4904
 4226TIP3    H234238   0.386   6.182   0.771 -0.5080  0.5110  0.5756
 4227TIP3   OH234239   4.116   1.736   1.013 -0.5394 -0.3293  0.1309
 4227TIP3    H134240   4.111   1.779   0.927 -0.5123  0.8277  0.6849
 4227TIP3    H234241   4.173   1.793   1.064  0.9607 -1.9782  0.3744
 4228TIP3   OH234242   5.843   5.957   1.010  0.3254  0.5182  0.0559
 4228TIP3    H134243   5.811   5.961   1.100 -0.9835  2.3691 -0.4230
 4228TIP3    H234244   5.917   6.018   1.009 -0.4815  1.5305 -0.3718
 4229TIP3   OH234245   1.168   1.987   0.914 -0.4485 -0.4417 -0.8552
 4229TIP3    H134246   1.126   1.905   0.887 -3.4264  0.7346 -0.2346
 4229TIP3    H234247   1.153   2.046   0.840  1.1907 -0.2619 -1.0733
 4230TIP3   OH234248   3.710   1.393   0.895  0.0045  0.0585  0.2846
 4230TIP3    H134249   3.636   1.398   0.835  1.1525 -0.6403 -1.2677
 4230TIP3    H234250   3.786   1.383   0.838  1.2842  0.5235  1.8306
 4231TIP3   OH234251   0.809   6.538   7.601  0.7759 -0.2376 -0.0844
 4231TIP3    H134252   0.823   6.483   7.524 -0.6573 -0.4135 -0.2418
 4231TIP3    H234253   0.813   6.628   7.567  2.8172 -0.1807  0.1251
 4232TIP3   OH234254   6.852   6.583   7.041  0.0907  0.4675  0.2025
 4232TIP3    H134255   6.814   6.670   7.050  0.0957  0.4952 -0.0411
 4232TIP3    H234256   6.791   6.535   6.985 -1.2094 -0.4715  2.3169
 4233TIP3   OH234257   5.231   0.379   2.112 -0.2327 -0.1886  0.7019
 4233TIP3    H134258   5.174   0.385   2.189  1.9590  1.1789  2.3715
 4233TIP3    H234259   5.314   0.346   2.147  1.2604  1.7149 -0.7672
 4234TIP3   OH234260   3.432   6.036   1.792 -0.1413  0.0895  0.3057
 4234TIP3    H134261   3.481   5.997   1.719  2.9047  1.9283  1.2218
 4234TIP3    H234262   3.360   6.083   1.749  0.0912 -0.9215 -1.2948
 4235TIP3   OH234263   1.228   3.516   8.638 -0.0388  0.1167 -0.4224
 4235TIP3    H134264   1.152   3.559   8.679  0.5680  0.9323 -0.1238
 4235TIP3    H234265   1.283   3.489   8.712 -0.4293 -1.2620 -0.6011
 4236TIP3   OH234266   4.324   1.791   2.079  0.3603  0.3101 -0.3573
 4236TIP3    H134267   4.231   1.802   2.059  0.7135  2.4175 -0.9866
 4236TIP3    H234268   4.366   1.869   2.044  2.5893 -1.2044 -1.2704
 4237TIP3   OH234269   1.796   0.054   0.966 -0.7824 -0.1878  0.1827
 4237TIP3    H134270   1.716   0.085   0.925 -0.2433 -0.3296 -1.0510
 4237TIP3    H234271   1.856   0.040   0.892  0.1856 -0.6133  1.0253
 4238TIP3   OH234272   4.258   5.845   7.331  0.3717  0.4966 -0.3764
 4238TIP3    H134273   4.285   5.856   7.240  1.6551 -1.3705 -0.2621
 4238TIP3    H234274   4.193   5.774   7.328  0.4002  0.4469  0.1630
 4239TIP3   OH234275   4.185   5.145   7.329  0.0866  0.2360 -0.0052
 4239TIP3    H134276   4.238   5.075   7.368 -0.6816 -0.2407  0.1932
 4239TIP3    H234277   4.205   5.140   7.235 -0.6288 -0.8417 -0.1186
 4240TIP3   OH234278   2.705   0.994   1.557 -0.2213  0.5252  0.0115
 4240TIP3    H134279   2.751   0.911   1.567 -0.0985  0.6755  0.7400
 4240TIP3    H234280   2.647   0.980   1.483 -0.6102 -0.4025  0.4707
 4241TIP3   OH234281   1.760   4.330   8.095 -0.3753 -0.0026  0.0506
 4241TIP3    H134282   1.822   4.274   8.141 -0.9086 -1.7965 -1.3147
 4241TIP3    H234283   1.807   4.359   8.017 -0.3612  0.8457  0.3678
 4242TIP3   OH234284   6.304   3.222   1.845  0.0990  0.6020  0.0718
 4242TIP3    H134285   6.247   3.201   1.772  1.0442 -0.7807 -0.3140
 4242TIP3    H234286   6.250   3.275   1.904 -1.2809  0.0689 -0.6803
 4243TIP3   OH234287   2.330   4.796   7.741  0.5343 -0.0585 -0.3040
 4243TIP3    H134288   2.424   4.775   7.744  0.5688 -0.7606 -3.3888
 4243TIP3    H234289   2.325   4.873   7.685 -0.6518  1.0038  1.1954
 4244TIP3   OH234290   6.864   0.040   0.078  0.0802 -0.6696  0.2214
 4244TIP3    H134291   6.857  -0.019   0.153  0.0867  0.6975  1.3310
 4244TIP3    H234292   6.923  -0.005   0.017 -0.3447 -2.0371  0.7887
 4245TIP3   OH234293   4.109   4.820   7.734 -0.0888 -0.0598 -0.2042
 4245TIP3    H134294   4.104   4.862   7.648  1.1580 -0.3700 -0.4487
 4245TIP3    H234295   4.020   4.827   7.769 -0.3745  1.0023 -1.0700
 4246TIP3   OH234296   1.138   1.165   7.445  0.0613 -0.6289 -0.2794
 4246TIP3    H134297   1.061   1.109   7.454 -0.1183 -0.5793 -1.3599
 4246TIP3    H234298   1.126   1.234   7.510  0.0736 -1.6042  0.7745
 4247TIP3   OH234299   0.630   0.787   6.381  0.3514 -0.0088  0.0667
 4247TIP3    H134300   0.614   0.719   6.447 -0.6920  0.4309  0.2875
 4247TIP3    H234301   0.674   0.857   6.430 -0.2928  0.2579  0.2671
 4248TIP3   OH234302   3.094   3.276   1.167  0.0971 -0.6323 -0.1533
 4248TIP3    H134303   3.181   3.236   1.158  0.2443 -0.2593 -0.4332
 4248TIP3    H234304   3.092   3.308   1.257  0.9046  0.8369 -0.6319
 4249TIP3   OH234305   6.175   1.737   2.234  0.0414 -0.1010 -0.6881
 4249TIP3    H134306   6.160   1.654   2.188  0.9979 -0.5839 -0.1422
 4249TIP3    H234307   6.168   1.803   2.165 -0.5521 -0.6440 -1.1648
 4250TIP3   OH234308   0.316   6.663   8.462 -0.2388 -0.1020  0.0450
 4250TIP3    H134309   0.240   6.636   8.513 -0.4659  0.3071 -0.0778
 4250TIP3    H234310   0.390   6.657   8.523  0.0575 -2.8190 -0.4401
 4251TIP3   OH234311   4.552   0.222   0.543  0.9587  0.0321 -0.2582
 4251TIP3    H134312   4.496   0.215   0.466 -1.1755  2.9262  0.8387
 4251TIP3    H234313   4.605   0.299   0.527  2.9129 -1.2234 -0.1595
 4252TIP3   OH234314   6.545   3.102   8.261  0.4518 -0.5327 -0.1394
 4252TIP3    H134315   6.576   3.044   8.330 -0.4158  0.9545  1.5666
 4252TIP3    H234316   6.504   3.175   8.307  0.6587  0.9875 -2.2145
 4253TIP3   OH234317   5.346   1.449   0.294 -0.4792  0.1411  0.1279
 4253TIP3    H134318   5.264   1.448   0.243  0.0852 -0.4782 -0.8147
 4253TIP3    H234319   5.408   1.497   0.239 -0.1064  0.2737  0.6581
 4254TIP3   OH234320   5.202   4.066   1.423 -0.1249 -0.8546  0.1770
 4254TIP3    H134321   5.235   4.132   1.484 -1.6900 -0.4116  0.5861
 4254TIP3    H234322   5.153   4.005   1.478  1.5966 -2.6202 -0.1386
 4255TIP3   OH234323   5.053   1.435   8.434  0.3044  0.0618 -0.1519
 4255TIP3    H134324   5.075   1.427   8.341  0.9147  0.3335 -0.0404
 4255TIP3    H234325   4.998   1.359   8.453  0.6179 -0.2852 -0.6149
 4256TIP3   OH234326   2.246   6.507   0.432  0.4478  0.4940 -0.0217
 4256TIP3    H134327   2.268   6.474   0.520 -1.7729 -0.2180  0.3392
 4256TIP3    H234328   2.155   6.481   0.419  0.3075  1.7653 -2.0198
 4257TIP3   OH234329   5.745   1.999   0.214  0.4616 -0.8206  0.5889
 4257TIP3    H134330   5.769   1.907   0.205  0.0225 -0.9698  0.9270
 4257TIP3    H234331   5.672   2.012   0.154 -0.0935 -0.9279  1.2320
 4258TIP3   OH234332   2.506   3.390   6.549  0.0729  0.1613  0.7054
 4258TIP3    H134333   2.434   3.332   6.523  0.0372 -0.2809  1.7291
 4258TIP3    H234334   2.575   3.331   6.579  0.7766  0.5965 -0.0263
 4259TIP3   OH234335   5.105   5.300   1.352 -0.5870 -0.2015  0.0274
 4259TIP3    H134336   5.184   5.355   1.352 -2.1099  2.1354 -0.0330
 4259TIP3    H234337   5.090   5.281   1.445  1.4782 -3.0617 -0.0740
 4260TIP3   OH234338   4.203   2.106   1.751  0.2100 -0.1127 -0.0818
 4260TIP3    H134339   4.122   2.110   1.700 -0.6855  0.1063  1.3129
 4260TIP3    H234340   4.176   2.121   1.842  2.0759  2.3102  0.1818
 4261TIP3   OH234341   4.698   0.181   6.441  0.0841 -0.1475 -0.0995
 4261TIP3    H134342   4.621   0.167   6.496 -1.5422  1.0189 -1.9317
 4261TIP3    H234343   4.757   0.232   6.496 -0.8430 -0.2684  1.0572
 4262TIP3   OH234344   3.489   4.121   1.042 -0.3857 -0.4136 -0.6134
 4262TIP3    H134345   3.475   4.042   0.990  0.3922 -2.5971  2.2248
 4262TIP3    H234346   3.562   4.099   1.100 -2.4525  0.9631  2.8138
 4263TIP3   OH234347   3.383   1.317   0.133 -0.3324  0.3028  0.1189
 4263TIP3    H134348   3.464   1.357   0.102 -0.4847  1.3766  1.0360
 4263TIP3    H234349   3.317   1.347   0.071 -0.5534  2.0676  1.1059
 4264TIP3   OH234350   0.924   6.748   8.353  0.2935 -0.0667 -0.1733
 4264TIP3    H134351   0.841   6.776   8.391  1.3767  2.1270  0.7597
 4264TIP3    H234352   0.919   6.774   8.261 -0.3699 -0.7874 -0.3553
 4265TIP3   OH234353   0.422   3.962   0.742 -0.2086 -0.4438 -0.0950
 4265TIP3    H134354   0.379   3.973   0.658 -0.9925  0.6147  0.4254
 4265TIP3    H234355   0.502   4.014   0.736 -0.7729  0.4676  0.1603
 4266TIP3   OH234356   0.900   0.732   1.295 -0.1801 -0.3569  0.1011
 4266TIP3    H134357   0.931   0.733   1.205  1.0149 -2.1704  0.4301
 4266TIP3    H234358   0.856   0.647   1.305 -0.0742 -0.2968  1.2901
 4267TIP3   OH234359   1.650   1.091   8.473 -0.2837  0.0798 -0.3376
 4267TIP3    H134360   1.675   1.047   8.392  0.0760 -0.2916 -0.0309
 4267TIP3    H234361   1.677   1.183   8.459 -1.2603  0.2687 -1.0725
 4268TIP3   OH234362   4.803   0.786   1.520  0.1369 -0.2465  0.1848
 4268TIP3    H134363   4.883   0.749   1.559 -0.0004 -0.8653 -0.1046
 4268TIP3    H234364   4.783   0.862   1.574  0.4249 -0.6057  0.8145
 4269TIP3   OH234365   6.160   2.477   8.532  0.3257 -0.2595 -0.7014
 4269TIP3    H134366   6.210   2.490   8.613 -0.3483 -0.2558 -0.2713
 4269TIP3    H234367   6.132   2.386   8.536 -1.4517  0.2703  0.1189
 4270TIP3   OH234368   0.677   6.431   7.802 -0.4787 -0.3423  0.1826
 4270TIP3    H134369   0.713   6.460   7.886  1.8796 -0.2874 -0.7575
 4270TIP3    H234370   0.734   6.472   7.736 -3.3246  1.1161 -1.5963
 4271TIP3   OH234371   0.060   5.349   1.400 -0.1862 -0.2245 -0.1058
 4271TIP3    H134372   0.073   5.257   1.376 -1.8977 -0.5530  0.0990
 4271TIP3    H234373   0.115   5.397   1.338  0.4084 -1.3586 -0.4970
 4272TIP3   OH234374   6.211   6.631   2.189 -0.4664  0.7884 -0.2491
 4272TIP3    H134375   6.294   6.655   2.230 -0.4909  0.8514 -0.2353
 4272TIP3    H234376   6.161   6.587   2.258  0.0713 -0.4337 -0.6228
 4273TIP3   OH234377   6.200   5.428   1.721 -0.2541  0.6660  0.0714
 4273TIP3    H134378   6.183   5.397   1.633 -0.7233 -1.2324  0.7766
 4273TIP3    H234379   6.291   5.402   1.739 -1.0989 -1.9273  1.2036
 4274TIP3   OH234380   2.251   2.524   1.583 -0.0180 -0.1894 -0.1950
 4274TIP3    H134381   2.230   2.431   1.590  1.3314 -0.5485 -0.7914
 4274TIP3    H234382   2.209   2.552   1.501 -3.4109  0.6206  1.5979
 4275TIP3   OH234383   4.824   0.424   8.391  0.2804  0.2828 -0.0997
 4275TIP3    H134384   4.908   0.469   8.380  0.4259 -0.0296 -0.2867
 4275TIP3    H234385   4.791   0.414   8.301  1.5450 -2.4391 -0.3724
 4276TIP3   OH234386   2.745   4.233   7.473 -0.1575  0.5610 -1.0931
 4276TIP3    H134387   2.833   4.238   7.436 -0.1209  1.9857 -0.8573
 4276TIP3    H234388   2.736   4.312   7.525 -1.5725  0.4280 -1.0865
 4277TIP3   OH234389   2.552   0.324   1.766 -0.4365  0.1803  0.1179
 4277TIP3    H134390   2.459   0.318   1.745 -0.4205  0.1018  0.0653
 4277TIP3    H234391   2.557   0.381   1.842 -0.6093 -0.4956  0.6508
 4278TIP3   OH234392   1.707   0.536   0.974 -0.0637  0.1699  0.0413
 4278TIP3    H134393   1.624   0.537   0.925 -0.9884 -0.5510  1.5250
 4278TIP3    H234394   1.682   0.558   1.064  1.4236  0.3580  0.4262
 4279TIP3   OH234395   0.377   2.100   2.043  0.0516  0.3104 -0.2399
 4279TIP3    H134396   0.458   2.053   2.023 -0.3356 -0.9817  1.0347
 4279TIP3    H234397   0.329   2.101   1.960  0.3684 -0.9887 -0.4711
 4280TIP3   OH234398   1.105   6.779   1.242  0.0762  0.5007  0.1636
 4280TIP3    H134399   1.134   6.703   1.192  2.1702  0.2354  1.6180
 4280TIP3    H234400   1.187   6.820   1.272 -1.0415  1.9106  1.4524
 4281TIP3   OH234401   1.800   4.394   7.789 -0.7693  0.5572 -0.1765
 4281TIP3    H134402   1.800   4.386   7.693  0.7670  0.5522 -0.2111
 4281TIP3    H234403   1.893   4.397   7.812 -0.9627 -2.5525  1.5843
 4282TIP3   OH234404   6.031   1.613   8.080 -0.0888  0.3705 -0.2220
 4282TIP3    H134405   5.968   1.546   8.053 -0.4972  1.1368 -1.2721
 4282TIP3    H234406   6.087   1.569   8.144  0.6005 -1.4339 -1.9613
 4283TIP3   OH234407   1.130   2.558   8.083  0.1943  0.5662 -0.2232
 4283TIP3    H134408   1.068   2.513   8.140  0.7389 -0.1157 -0.1520
 4283TIP3    H234409   1.215   2.524   8.109  0.5194  0.8092 -0.9421
 4284TIP3   OH234410   2.650   1.534   1.083  0.3092  0.8124  0.3941
 4284TIP3    H134411   2.687   1.576   1.005 -1.4086  2.6505  0.5113
 4284TIP3    H234412   2.614   1.452   1.050  1.5030  0.5399 -0.3168
 4285TIP3   OH234413   5.398   0.768   0.310  0.3377  0.4985  0.1705
 4285TIP3    H134414   5.363   0.724   0.232 -0.4590  1.6278 -0.1360
 4285TIP3    H234415   5.327   0.764   0.374  1.6376 -2.1436  1.6107
 4286TIP3   OH234416   4.054   0.740   6.967 -0.1285  0.3314 -0.0100
 4286TIP3    H134417   4.009   0.700   6.893  0.9980  0.4920 -0.8044
 4286TIP3    H234418   4.125   0.790   6.928 -0.7336  2.0864  1.0539
 4287TIP3   OH234419   2.776   5.522   1.663  0.1571 -0.8601 -0.3516
 4287TIP3    H134420   2.759   5.478   1.747 -0.9689 -0.0095 -0.1108
 4287TIP3    H234421   2.826   5.600   1.688 -1.3062  0.0798 -0.3076
 4288TIP3   OH234422   5.846   3.632   6.386 -0.0397 -0.1001 -0.2430
 4288TIP3    H134423   5.811   3.652   6.300 -3.2054  1.9475  1.3313
 4288TIP3    H234424   5.789   3.563   6.420 -0.0101  0.4175  0.8947
 4289TIP3   OH234425   1.425   5.964   1.299  0.0213  0.4164  0.0319
 4289TIP3    H134426   1.503   6.020   1.291 -0.0041  0.4937  0.3012
 4289TIP3    H234427   1.447   5.886   1.249  0.9160 -0.2488  1.3956
 4290TIP3   OH234428   0.973   6.820   7.723 -0.2537 -0.9990  0.5270
 4290TIP3    H134429   1.043   6.869   7.680 -2.1746  1.7013  0.2254
 4290TIP3    H234430   1.016   6.741   7.755  2.6713 -0.0083 -0.5725
 4291TIP3   OH234431   3.717   2.031   1.112 -0.8035  0.1579 -0.2425
 4291TIP3    H134432   3.674   2.037   1.026 -1.8013  2.5769  0.3424
 4291TIP3    H234433   3.811   2.036   1.091 -0.9215 -1.3778 -1.2944
 4292TIP3   OH234434   0.607   5.609   1.220 -0.8268  0.0140 -0.0980
 4292TIP3    H134435   0.659   5.538   1.183 -1.1397  0.1918 -0.9011
 4292TIP3    H234436   0.566   5.651   1.144 -2.3442 -0.2738  0.5264
 4293TIP3   OH234437   6.109   1.680   6.199  0.3804 -0.3219 -0.6844
 4293TIP3    H134438   6.202   1.677   6.223 -0.1056 -1.2132  1.2168
 4293TIP3    H234439   6.066   1.726   6.271 -0.6732  0.1579 -1.5795
 4294TIP3   OH234440   6.696   0.950   7.351  0.7092 -0.0908 -0.0432
 4294TIP3    H134441   6.750   0.879   7.316  0.5293  0.2721 -1.1006
 4294TIP3    H234442   6.609   0.912   7.362  0.9497 -0.4272  0.8121
 4295TIP3   OH234443   5.155   5.081   7.047 -0.2161  0.5242  0.5483
 4295TIP3    H134444   5.100   5.029   6.989 -0.0436  0.6049  0.3110
 4295TIP3    H234445   5.146   5.171   7.014 -0.8521  0.7158  1.2172
 4296TIP3   OH234446   1.424   2.974   1.604  0.1058 -0.4907 -0.2450
 4296TIP3    H134447   1.329   2.985   1.605  0.1850  0.3674  1.2904
 4296TIP3    H234448   1.440   2.892   1.651  0.1615 -0.0045  0.6088
 4297TIP3   OH234449   2.289   5.326   2.576  0.2060 -0.0496 -0.0462
 4297TIP3    H134450   2.333   5.266   2.636 -2.1165  0.9628  2.9248
 4297TIP3    H234451   2.198   5.295   2.573 -0.5432  2.0258 -0.1679
 4298TIP3   OH234452   6.147   5.322   0.565 -0.4444  0.0410 -0.3284
 4298TIP3    H134453   6.120   5.331   0.656 -0.2342 -0.4863 -0.2131
 4298TIP3    H234454   6.116   5.236   0.538 -1.3148  0.5608 -1.0418
 4299TIP3   OH234455   0.073   6.308   1.874 -0.3278  0.1303  0.6478
 4299TIP3    H134456   0.108   6.220   1.887 -0.3324 -0.1246 -0.9159
 4299TIP3    H234457   0.100   6.356   1.952 -1.3027 -1.5348  2.1018
 4300TIP3   OH234458   6.682   2.665   1.907 -0.3593  0.3915  0.4308
 4300TIP3    H134459   6.675   2.674   2.002 -2.1796 -2.5904  0.6813
 4300TIP3    H234460   6.771   2.632   1.893 -0.3476  0.0920  1.1697
 4301TIP3   OH234461   5.532   3.244   1.090  0.5501 -0.4178  0.3533
 4301TIP3    H134462   5.499   3.154   1.081 -1.1251  0.3265 -2.3130
 4301TIP3    H234463   5.588   3.256   1.013  0.8523  0.7733  0.7467
 4302TIP3   OH234464   0.115   0.811   8.596  0.0246 -0.1253 -0.4052
 4302TIP3    H134465   0.158   0.853   8.521 -1.4472  1.0271 -0.6662
 4302TIP3    H234466   0.167   0.838   8.672  0.2421  0.5671 -0.7892
 4303TIP3   OH234467   5.456   2.917   1.449  0.3886 -0.2968 -0.1410
 4303TIP3    H134468   5.418   3.002   1.426  1.1978  0.0172 -0.3612
 4303TIP3    H234469   5.402   2.886   1.522  1.3038  1.3687  1.3485
 4304TIP3   OH234470   0.018   2.152   7.311 -0.1511 -0.1992 -0.2124
 4304TIP3    H134471  -0.030   2.087   7.361 -0.7798 -0.4422 -1.1052
 4304TIP3    H234472  -0.034   2.165   7.232 -0.1284  1.5296  0.0258
 4305TIP3   OH234473   0.796   0.786   8.048  0.3764 -0.3188 -0.1393
 4305TIP3    H134474   0.803   0.879   8.026  0.6875 -0.3760 -0.2961
 4305TIP3    H234475   0.715   0.779   8.097 -0.4205 -0.2056 -1.3817
 4306TIP3   OH234476   4.550   2.364   8.401  0.1614  0.1560 -0.2352
 4306TIP3    H134477   4.461   2.346   8.429  0.2417 -0.8921 -0.5843
 4306TIP3    H234478   4.557   2.320   8.316  1.4131 -0.9884  0.4131
 4307TIP3   OH234479   3.663   5.705   8.372  0.2877  0.2518  0.3821
 4307TIP3    H134480   3.590   5.644   8.367  1.8930 -1.6726 -1.2044
 4307TIP3    H234481   3.689   5.720   8.281  1.7273  1.0408  0.8894
 4308TIP3   OH234482   3.820   6.581   8.137  0.1328 -0.5975  0.4336
 4308TIP3    H134483   3.787   6.496   8.166  1.2501 -1.7870 -1.5834
 4308TIP3    H234484   3.853   6.622   8.217 -2.4445 -1.0666  1.8231
 4309TIP3   OH234485   5.960   0.503   0.151 -0.4563 -0.3391  0.1359
 4309TIP3    H134486   6.055   0.511   0.141 -0.4039 -0.7818  0.2698
 4309TIP3    H234487   5.949   0.445   0.226 -0.8070 -2.1537 -1.2407
 4310TIP3   OH234488   5.540   0.311   1.761 -0.3524  0.0253  0.6659
 4310TIP3    H134489   5.503   0.343   1.679 -0.1000  0.1166  0.5874
 4310TIP3    H234490   5.620   0.362   1.773  0.2691 -0.8588  0.3351
 4311TIP3   OH234491   1.500   1.094   0.915  0.8230  0.2402  0.2071
 4311TIP3    H134492   1.515   1.087   1.009 -1.4552 -0.7946  0.5600
 4311TIP3    H234493   1.419   1.145   0.908 -0.1574 -1.3946 -1.0467
 4312TIP3   OH234494   6.192   6.819   1.650 -0.1045 -0.1507  0.4477
 4312TIP3    H134495   6.107   6.837   1.608  0.0592  0.1228  0.2271
 4312TIP3    H234496   6.199   6.887   1.717 -1.1964 -1.6634  2.1836
 4313TIP3   OH234497   1.155   1.782   0.557 -0.5641  0.0892  0.1638
 4313TIP3    H134498   1.082   1.764   0.616 -0.4015 -0.4682  0.1991
 4313TIP3    H234499   1.178   1.697   0.521  0.1817  0.2385  0.2792
 4314TIP3   OH234500   1.499   3.695   0.924 -0.4114 -0.1994  0.0241
 4314TIP3    H134501   1.463   3.610   0.899 -1.1021  0.5555 -1.7218
 4314TIP3    H234502   1.584   3.699   0.880  0.7238 -0.8781  1.9884
 4315TIP3   OH234503   2.778   1.130   2.676 -0.9494 -0.5961 -0.3919
 4315TIP3    H134504   2.719   1.090   2.739 -1.5562  0.0910 -0.5144
 4315TIP3    H234505   2.827   1.195   2.726  0.3079 -1.7322 -0.1087
 4316TIP3   OH234506   4.913   1.757   6.992  0.4436 -1.0778 -0.6805
 4316TIP3    H134507   4.891   1.698   7.064  0.3879 -1.0438 -0.6699
 4316TIP3    H234508   4.900   1.704   6.913  1.0947 -1.3080 -0.6398
 4317TIP3   OH234509   3.671   1.601   7.695 -0.0074 -0.4566  0.3039
 4317TIP3    H134510   3.638   1.511   7.698  0.4160 -0.6492 -0.3745
 4317TIP3    H234511   3.766   1.591   7.691  0.0106 -0.1361 -2.6655
 4318TIP3   OH234512   4.837   0.605   2.469  0.6413 -0.7873 -0.1533
 4318TIP3    H134513   4.892   0.663   2.521  1.3178 -0.4540 -1.1927
 4318TIP3    H234514   4.844   0.520   2.512 -1.5051  0.1361  2.2305
 4319TIP3   OH234515   3.422   5.926   7.159  0.0853  0.7725  0.0934
 4319TIP3    H134516   3.513   5.906   7.137 -0.4806  0.5002 -2.3382
 4319TIP3    H234517   3.407   5.883   7.243  1.4185 -1.6209 -0.8068
 4320TIP3   OH234518   0.420   0.165   7.055 -0.3229 -0.6613  0.6702
 4320TIP3    H134519   0.452   0.113   6.981 -0.3976  0.6115 -0.2876
 4320TIP3    H234520   0.496   0.212   7.087 -0.5703 -0.1461  0.5080
 4321TIP3   OH234521   5.247   4.110   7.650  0.2790 -0.2772  0.0925
 4321TIP3    H134522   5.219   4.176   7.587 -0.3000 -0.4149  0.2030
 4321TIP3    H234523   5.216   4.143   7.734  0.5361 -0.3838  0.2299
 4322TIP3   OH234524   2.158   1.769   7.746  0.2330  0.0564  0.3996
 4322TIP3    H134525   2.106   1.689   7.746 -1.2530  0.9365 -1.7663
 4322TIP3    H234526   2.247   1.739   7.725 -0.4803 -0.9673 -1.3222
 4323TIP3   OH234527   2.227   2.225   1.596  0.4181  0.5439 -0.4233
 4323TIP3    H134528   2.286   2.168   1.646 -0.4496  0.2415  0.2624
 4323TIP3    H234529   2.209   2.175   1.516 -1.1863 -0.6508  0.6394
 4324TIP3   OH234530   2.883   4.295   0.269 -0.1649 -0.1101  0.3824
 4324TIP3    H134531   2.956   4.242   0.237 -1.2176 -1.6707  0.4560
 4324TIP3    H234532   2.805   4.243   0.250 -1.2820  1.5081  0.3115
 4325TIP3   OH234533   0.741   5.979   0.262 -0.6619  0.2779 -0.1653
 4325TIP3    H134534   0.786   5.925   0.326 -0.2966  0.7059 -0.0541
 4325TIP3    H234535   0.648   5.959   0.273 -0.4957 -0.6808 -0.4631
 4326TIP3   OH234536   1.586   4.983   7.752 -0.0252  0.1983 -0.2415
 4326TIP3    H134537   1.537   4.907   7.785 -2.0448  0.6950 -1.9000
 4326TIP3    H234538   1.676   4.950   7.742 -0.5521 -1.5644  0.3903
 4327TIP3   OH234539   6.315   1.626   1.722  0.4224 -0.5884 -0.1214
 4327TIP3    H134540   6.292   1.602   1.811 -0.1964 -3.5865 -0.9993
 4327TIP3    H234541   6.233   1.655   1.682  0.6224  0.3657  0.1326
 4328TIP3   OH234542   2.295   0.668   0.777  0.1936  0.0018  0.3245
 4328TIP3    H134543   2.382   0.661   0.738  0.0274 -1.4384  0.1430
 4328TIP3    H234544   2.235   0.663   0.702 -0.0824 -1.1963  0.5995
 4329TIP3   OH234545   3.629   4.185   7.384  0.1719  0.3155  0.3088
 4329TIP3    H134546   3.635   4.240   7.306 -0.4174  0.4004  0.3212
 4329TIP3    H234547   3.638   4.245   7.458  2.6859  0.0249  0.3374
 4330TIP3   OH234548   4.085   4.300   0.102  0.1951 -0.3454  0.3794
 4330TIP3    H134549   4.024   4.232   0.127  2.1903 -1.8962  1.3008
 4330TIP3    H234550   4.113   4.276   0.013 -0.3615  0.2489  0.0358
 4331TIP3   OH234551   5.756   6.714   1.680 -0.1592 -0.0331 -0.0756
 4331TIP3    H134552   5.758   6.800   1.720 -0.9241 -0.5769  1.1936
 4331TIP3    H234553   5.692   6.722   1.609 -2.1706 -0.1706  1.6280
 4332TIP3   OH234554   5.839   0.524   0.798 -0.3510 -0.5109 -0.3598
 4332TIP3    H134555   5.771   0.460   0.819 -0.6002 -0.3064 -0.5446
 4332TIP3    H234556   5.819   0.600   0.853 -0.2394 -0.4711 -0.3733
 4333TIP3   OH234557   4.426   5.493   0.105  0.0133 -0.1565  0.1616
 4333TIP3    H134558   4.445   5.584   0.083  0.8721  0.4265  2.9612
 4333TIP3    H234559   4.497   5.443   0.066  1.3799  0.7992  1.3037
 4334TIP3   OH234560   6.672   4.325   7.963  0.3126 -0.5939 -0.2573
 4334TIP3    H134561   6.630   4.249   8.003  1.7394 -0.8128  0.9224
 4334TIP3    H234562   6.611   4.353   7.894 -0.0947 -3.0045 -0.9759
 4335TIP3   OH234563   4.359   3.575   1.005 -0.8044  0.2803  0.6335
 4335TIP3    H134564   4.413   3.507   1.044  0.2427  0.5864 -0.2238
 4335TIP3    H234565   4.274   3.568   1.050 -0.4162 -0.9503  1.2105
 4336TIP3   OH234566   0.425   5.683   1.002 -0.6517  0.1347  0.0245
 4336TIP3    H134567   0.512   5.675   0.963 -0.4269  2.2311  0.0291
 4336TIP3    H234568   0.381   5.601   0.978  1.7116 -1.5851  1.1443
 4337TIP3   OH234569   5.567   1.290   7.828  0.0533  0.2952  0.5701
 4337TIP3    H134570   5.661   1.311   7.831  0.3963 -0.8206 -1.2558
 4337TIP3    H234571   5.561   1.200   7.858  0.0591 -0.8550 -2.5672
 4338TIP3   OH234572   0.579   0.519   1.502  0.2981  0.1413 -0.2835
 4338TIP3    H134573   0.607   0.610   1.491  2.1717  0.0129  2.5114
 4338TIP3    H234574   0.653   0.467   1.472  0.5052 -0.3636  1.0367
 4339TIP3   OH234575   3.487   4.403   6.372  0.3618  0.1409  0.4987
 4339TIP3    H134576   3.483   4.367   6.461  0.2082 -0.2173  0.3462
 4339TIP3    H234577   3.517   4.493   6.385 -1.1265  0.5878  1.0461
 4340TIP3   OH234578   2.483   2.521   1.099  0.1569 -0.0457  0.7482
 4340TIP3    H134579   2.447   2.595   1.148  0.7818  0.0666  1.0419
 4340TIP3    H234580   2.578   2.526   1.113  0.6112  1.1667 -2.0450
 4341TIP3   OH234581   0.408   0.248   0.650 -0.1834  0.1248  0.1609
 4341TIP3    H134582   0.492   0.264   0.694 -0.6275  1.0619  0.7046
 4341TIP3    H234583   0.413   0.157   0.621  1.0000  0.1507  0.2296
 4342TIP3   OH234584   2.993   5.265   1.873 -0.5106  1.0788  0.3854
 4342TIP3    H134585   2.910   5.310   1.890 -0.3637  0.8006  1.9805
 4342TIP3    H234586   3.048   5.333   1.833 -0.8840  1.8132  1.0829
 4343TIP3   OH234587   0.340   0.182   2.272  0.2749  0.1068  0.4690
 4343TIP3    H134588   0.307   0.136   2.196 -0.1636  2.3194 -0.7615
 4343TIP3    H234589   0.324   0.122   2.345 -0.6970 -1.4425 -0.9445
 4344TIP3   OH234590   2.446   5.926   1.302  0.5601  0.1285  0.5518
 4344TIP3    H134591   2.401   5.893   1.380  0.7879  0.6936  0.9252
 4344TIP3    H234592   2.379   5.976   1.255 -0.3704 -2.4285 -1.0495
 4345TIP3   OH234593   6.831   5.953   1.132  0.4995  0.0940 -0.5765
 4345TIP3    H134594   6.835   6.028   1.191  1.1723  0.1491 -0.6789
 4345TIP3    H234595   6.758   5.972   1.073  0.6527  0.6620 -0.5904
 4346TIP3   OH234596   1.108   0.296   6.738 -0.6043  0.4179 -0.6202
 4346TIP3    H134597   1.137   0.205   6.729  0.2996  0.5472  0.7933
 4346TIP3    H234598   1.169   0.346   6.683 -1.3320  0.1550 -1.6976
 4347TIP3   OH234599   3.155   3.530   1.050 -0.6892 -0.2993  0.2910
 4347TIP3    H134600   3.069   3.555   1.083 -0.9519 -0.0818 -0.5423
 4347TIP3    H234601   3.149   3.435   1.038 -0.0902 -0.6289  2.2881
 4348TIP3   OH234602   1.631   1.621   7.565 -0.0337 -0.8766 -0.4575
 4348TIP3    H134603   1.629   1.609   7.660 -0.3486  1.5832 -0.0632
 4348TIP3    H234604   1.566   1.560   7.531 -0.2284 -1.4814  0.9454
 4349TIP3   OH234605   3.654   0.221   1.345  0.4894 -0.2483 -0.6382
 4349TIP3    H134606   3.654   0.295   1.407  0.6759 -1.0474  0.3448
 4349TIP3    H234607   3.633   0.145   1.400 -1.7134 -0.6679 -1.9510
 4350TIP3   OH234608   4.179   2.621   7.455  0.0040  0.0979 -0.0773
 4350TIP3    H134609   4.180   2.694   7.393  1.0682 -1.4415 -2.0464
 4350TIP3    H234610   4.200   2.660   7.539 -2.8518  2.5269 -0.3330
 4351TIP3   OH234611   3.161   6.383   0.548 -0.1015  0.3170 -0.2474
 4351TIP3    H134612   3.109   6.303   0.546  0.6421 -0.1829 -0.1431
 4351TIP3    H234613   3.100   6.451   0.579 -0.6090 -0.3043  0.1418
 4352TIP3   OH234614   4.666   5.507   0.382  0.0850  0.4161 -0.4467
 4352TIP3    H134615   4.574   5.526   0.402  0.2765  0.0511  0.8380
 4352TIP3    H234616   4.662   5.436   0.317 -0.5460  0.5392 -0.5446
 4353TIP3   OH234617   3.717   0.578   1.232  0.0325 -0.4167  0.0386
 4353TIP3    H134618   3.770   0.516   1.181  0.1536 -0.9838  0.8511
 4353TIP3    H234619   3.775   0.607   1.302 -0.0273  0.6191 -0.3284
 4354TIP3   OH234620   6.841   6.492   0.150  0.2105 -0.2829 -0.1931
 4354TIP3    H134621   6.871   6.417   0.201  1.6324  0.7243  0.5138
 4354TIP3    H234622   6.775   6.456   0.090  1.1589 -2.1478 -0.1690
 4355TIP3   OH234623   2.262   3.130   7.776  0.0077  0.7015 -0.1868
 4355TIP3    H134624   2.207   3.193   7.730 -0.4505  1.2053  0.9915
 4355TIP3    H234625   2.333   3.110   7.715  0.3791  2.6655 -0.4721
 4356TIP3   OH234626   2.367   2.777   7.503  0.6441 -0.4782  0.3209
 4356TIP3    H134627   2.440   2.721   7.527  2.3187  0.5917 -1.9249
 4356TIP3    H234628   2.303   2.718   7.463  1.0428 -1.1798  0.7089
 4357TIP3   OH234629   4.113   5.006   1.319  0.3235  0.0986  0.6347
 4357TIP3    H134630   4.070   5.091   1.328  0.8684  0.4359  0.0912
 4357TIP3    H234631   4.062   4.961   1.252 -0.6774 -0.4745  1.7338
 4358TIP3   OH234632   2.760   2.023   2.460 -0.6096  0.0513 -0.6458
 4358TIP3    H134633   2.692   2.079   2.498 -0.7681  0.0918 -0.9815
 4358TIP3    H234634   2.735   1.934   2.486 -0.3767  0.1325 -0.1409
 4359TIP3   OH234635   3.787   5.000   0.625 -0.4363 -0.2108  0.3198
 4359TIP3    H134636   3.741   5.065   0.677  0.6575  1.0120 -0.1806
 4359TIP3    H234637   3.757   5.015   0.535 -1.2752 -1.3852  0.3895
 4360TIP3   OH234638   4.085   3.526   0.825 -0.7862 -0.5985  0.0950
 4360TIP3    H134639   4.082   3.515   0.730  0.4835 -0.0636 -0.0227
 4360TIP3    H234640   4.129   3.447   0.857  2.0777  0.8100 -0.1257
 4361TIP3   OH234641   2.192   2.159   2.354 -0.4253 -0.6404  0.0237
 4361TIP3    H134642   2.217   2.222   2.285 -1.3694 -0.6879 -0.3737
 4361TIP3    H234643   2.148   2.212   2.420  1.5243 -0.3871  1.2176
 4362TIP3   OH234644   6.388   4.694   7.237  0.2009 -0.1137  0.6351
 4362TIP3    H134645   6.352   4.647   7.162 -1.1151  0.5987  0.7973
 4362TIP3    H234646   6.472   4.727   7.206  0.5749 -1.4589  0.1163
 4363TIP3   OH234647   6.680   5.402   2.173  0.1502 -0.1392 -0.7556
 4363TIP3    H134648   6.646   5.341   2.239 -0.1254 -0.5649 -1.2865
 4363TIP3    H234649   6.750   5.450   2.218 -0.3641 -0.0775 -0.0021
 4364TIP3   OH234650   3.489   0.869   7.783  0.5537  0.1124  0.1806
 4364TIP3    H134651   3.585   0.861   7.780  0.4505 -0.8773 -1.9560
 4364TIP3    H234652   3.474   0.952   7.827  2.4757  1.7102 -1.9526
 4365TIP3   OH234653   1.693   5.240   7.222 -0.2291  0.7786 -0.0932
 4365TIP3    H134654   1.685   5.333   7.242 -2.0537  1.0973 -1.9376
 4365TIP3    H234655   1.784   5.229   7.193 -0.6651  2.6321 -2.5035
 4366TIP3   OH234656   2.521   5.376   1.708  0.0976 -0.5744  0.2442
 4366TIP3    H134657   2.549   5.295   1.751 -0.6234 -1.6123 -1.1614
 4366TIP3    H234658   2.502   5.350   1.618 -1.8605  0.7901  0.1930
 4367TIP3   OH234659   6.273   4.435   0.789 -0.4602 -0.4658  0.4764
 4367TIP3    H134660   6.348   4.458   0.734  1.3991 -1.7433  2.3248
 4367TIP3    H234661   6.228   4.365   0.742  1.2143 -1.6818  0.6388
 4368TIP3   OH234662   2.404   3.543   0.942  0.9837 -0.4528 -0.1812
 4368TIP3    H134663   2.333   3.519   0.882  0.4879 -0.7316  0.5029
 4368TIP3    H234664   2.481   3.551   0.886  0.2983  0.4609 -1.0242
 4369TIP3   OH234665   0.253   1.505   0.503 -0.3575  0.2372  0.5656
 4369TIP3    H134666   0.168   1.489   0.544 -0.8407  1.1340 -0.0489
 4369TIP3    H234667   0.311   1.525   0.576 -0.6998 -0.2831  0.9870
 4370TIP3   OH234668   3.124   1.389   8.584 -0.5124  0.4939  0.2105
 4370TIP3    H134669   3.058   1.384   8.653 -0.1993  0.9948  0.5508
 4370TIP3    H234670   3.076   1.371   8.504 -1.0149  0.6005  0.4817
 4371TIP3   OH234671   4.539   5.956   7.609 -0.6521  0.3048 -0.0902
 4371TIP3    H134672   4.503   5.992   7.690 -0.3756  0.5652 -0.0836
 4371TIP3    H234673   4.482   5.881   7.589 -0.9997  0.5169  0.0954
 4372TIP3   OH234674   3.548   5.261   0.958 -0.0537  0.0507 -0.0899
 4372TIP3    H134675   3.617   5.229   0.900  0.6145  0.8125  0.2785
 4372TIP3    H234676   3.509   5.334   0.910  0.8935  1.0712  0.6438
 4373TIP3   OH234677   5.028   1.029   1.352 -0.9093  0.1291  0.0337
 4373TIP3    H134678   4.978   0.948   1.336 -1.0590  0.0156  1.0198
 4373TIP3    H234679   5.032   1.036   1.447  1.2798 -0.0590  0.0103
 4374TIP3   OH234680   6.794   5.682   0.527 -0.2567 -0.7220 -0.5506
 4374TIP3    H134681   6.850   5.631   0.587 -0.2576 -0.6773 -0.5118
 4374TIP3    H234682   6.719   5.625   0.511 -0.1804 -0.7995 -0.6355
 4375TIP3   OH234683   6.141   5.138   1.676 -0.1741  0.1618  0.4471
 4375TIP3    H134684   6.051   5.110   1.658  0.3151 -0.7774 -0.6793
 4375TIP3    H234685   6.133   5.231   1.697 -1.4330  0.0309  0.6503
 4376TIP3   OH234686   4.916   1.029   0.920  0.2254 -0.0716 -0.0286
 4376TIP3    H134687   4.826   1.037   0.888 -0.3070 -2.4003  0.6812
 4376TIP3    H234688   4.949   1.119   0.921 -2.0414  0.8444 -0.4118
 4377TIP3   OH234689   2.751   3.680   8.167 -0.2660 -0.7309 -0.3067
 4377TIP3    H134690   2.704   3.758   8.137 -1.2689 -0.8322  0.9267
 4377TIP3    H234691   2.795   3.707   8.247 -0.1412 -1.2775 -0.1848
 4378TIP3   OH234692   1.495   0.110   7.616 -0.0463  0.3298  0.4844
 4378TIP3    H134693   1.536   0.195   7.631  1.2866 -0.2161  0.1127
 4378TIP3    H234694   1.415   0.112   7.668 -0.4807  2.1214 -0.1674
 4379TIP3   OH234695   4.151   6.249   7.754  0.0838  0.0189  0.1199
 4379TIP3    H134696   4.155   6.260   7.659 -1.5178  0.5658  0.0887
 4379TIP3    H234697   4.141   6.155   7.767 -0.1587 -0.0139 -0.2797
 4380TIP3   OH234698   3.344   3.314   6.769 -0.0305  0.0431 -0.5544
 4380TIP3    H134699   3.347   3.291   6.676 -2.1731  0.1666 -0.7059
 4380TIP3    H234700   3.285   3.389   6.774 -0.1815 -0.1334  0.9350
 4381TIP3   OH234701   5.269   5.959   2.056 -0.2086  0.4049  0.7375
 4381TIP3    H134702   5.274   5.883   2.115  1.1794  0.5752  0.8805
 4381TIP3    H234703   5.188   6.003   2.080 -1.9826 -1.9776 -0.5615
 4382TIP3   OH234704   3.088   2.172   6.977 -0.3593 -0.2278  0.1748
 4382TIP3    H134705   3.102   2.077   6.970  2.3911  0.1115  0.0224
 4382TIP3    H234706   3.074   2.201   6.887  0.4378 -0.3019  0.0184
 4383TIP3   OH234707   0.589   2.367   0.229 -0.0335 -0.5918 -0.1548
 4383TIP3    H134708   0.523   2.341   0.165  1.3653  1.4060 -2.5659
 4383TIP3    H234709   0.673   2.348   0.187  0.9441  1.2561  0.8394
 4384TIP3   OH234710   5.609   2.214   7.446 -0.1862  0.3552  0.2911
 4384TIP3    H134711   5.635   2.267   7.371 -0.4258 -0.8526 -0.6757
 4384TIP3    H234712   5.540   2.265   7.489 -0.3680  0.8551 -0.5799
 4385TIP3   OH234713   1.337   4.973   8.033 -0.3314 -0.3980  0.3884
 4385TIP3    H134714   1.264   4.947   8.089 -1.4265  0.5550 -0.5420
 4385TIP3    H234715   1.343   5.068   8.044  0.5664 -0.4298  0.2146
 4386TIP3   OH234716   6.131   1.231   5.966 -0.2145  0.5766 -0.5842
 4386TIP3    H134717   6.119   1.281   6.047  2.4172  0.2580  0.1120
 4386TIP3    H234718   6.043   1.218   5.932 -1.4502  0.4920  2.3722
 4387TIP3   OH234719   2.020   4.658   0.369 -0.1498  0.2113 -0.1155
 4387TIP3    H134720   2.012   4.563   0.361 -1.3794  0.2903 -0.1400
 4387TIP3    H234721   2.080   4.671   0.443  0.9163 -0.5662 -0.8286
 4388TIP3   OH234722   1.011   0.031   2.345 -0.2038  0.1359 -0.2284
 4388TIP3    H134723   0.981  -0.053   2.309  0.4961  0.5340 -1.8489
 4388TIP3    H234724   1.081   0.008   2.405 -0.1109 -0.4575 -0.5576
 4389TIP3   OH234725   3.974   5.498   8.353 -0.0247 -0.6214  0.1314
 4389TIP3    H134726   3.907   5.548   8.398  1.3349  1.4776 -0.0274
 4389TIP3    H234727   3.983   5.541   8.267  0.0106 -2.2398 -0.7177
 4390TIP3   OH234728   6.084   1.781   8.290  0.1454 -0.1026 -0.1844
 4390TIP3    H134729   6.010   1.776   8.351  0.8882 -0.0277  0.7514
 4390TIP3    H234730   6.060   1.723   8.218 -0.9834  0.2063 -0.0798
 4391TIP3   OH234731   3.662   6.332   0.899 -0.0210  0.2486  0.1724
 4391TIP3    H134732   3.661   6.326   0.994 -0.7598 -0.8094  0.1190
 4391TIP3    H234733   3.675   6.425   0.881  1.1833  0.3198  1.2924
 4392TIP3   OH234734   4.514   5.551   1.370  0.0987  0.1142 -0.1322
 4392TIP3    H134735   4.533   5.458   1.382  1.3559  0.4234  0.3334
 4392TIP3    H234736   4.583   5.583   1.311 -0.3589  0.7429 -0.3473
 4393TIP3   OH234737   2.231   1.121   7.713 -0.1101 -0.0638 -0.0051
 4393TIP3    H134738   2.269   1.093   7.630  0.6965 -1.1871  0.7023
 4393TIP3    H234739   2.259   1.212   7.724 -0.8843  0.3558 -1.3075
 4394TIP3   OH234740   1.397   0.830   1.168 -0.3986 -0.1123  0.0938
 4394TIP3    H134741   1.363   0.866   1.086  0.5912 -0.3898 -0.4497
 4394TIP3    H234742   1.468   0.888   1.193  0.5706 -1.0920 -0.2775
 4395TIP3   OH234743   4.573   6.470   0.670  0.0354  0.7581  0.2223
 4395TIP3    H134744   4.525   6.388   0.674  3.9796 -1.8199  0.4226
 4395TIP3    H234745   4.555   6.512   0.755 -0.8629 -0.6553  0.7646
 4396TIP3   OH234746   4.705   6.301   1.123 -0.1357 -0.2268 -0.3480
 4396TIP3    H134747   4.654   6.280   1.044  1.0951 -0.6093 -1.0686
 4396TIP3    H234748   4.681   6.392   1.143  0.3449  0.2484 -1.8109
 4397TIP3   OH234749   2.715   2.101   7.970  0.4907 -0.1628 -0.4641
 4397TIP3    H134750   2.727   2.156   7.893  0.0554 -0.9634 -1.1183
 4397TIP3    H234751   2.620   2.086   7.974  0.6082 -0.8861 -0.3051
 4398TIP3   OH234752   2.161   2.900   7.902  0.4100  0.3104  0.0748
 4398TIP3    H134753   2.170   2.987   7.863  0.8150 -0.3418 -1.3483
 4398TIP3    H234754   2.223   2.846   7.854  0.3257 -0.7316  1.0966
 4399TIP3   OH234755   4.494   0.165   6.620 -0.5969 -0.2099 -0.1410
 4399TIP3    H134756   4.409   0.191   6.584 -0.8475 -0.6739  0.1057
 4399TIP3    H234757   4.492   0.196   6.711  0.1789  1.2838 -0.6016
 4400TIP3   OH234758   4.730   3.508   7.077 -0.1435  0.3240  0.0316
 4400TIP3    H134759   4.798   3.567   7.110  0.5057  0.0727 -0.8137
 4400TIP3    H234760   4.686   3.559   7.009 -1.1382  0.6556  0.8873
 4401TIP3   OH234761   4.408   5.231   2.592  0.0611 -0.2603 -0.3140
 4401TIP3    H134762   4.404   5.161   2.658  2.1867  1.1369  1.4536
 4401TIP3    H234763   4.317   5.243   2.564 -0.6367 -2.2685  0.8742
 4402TIP3   OH234764   2.030   5.429   0.938  0.3836 -0.0912  0.5129
 4402TIP3    H134765   2.049   5.499   1.000  1.9047 -1.0165  1.1608
 4402TIP3    H234766   2.114   5.412   0.895 -0.3910 -0.2430 -1.0089
 4403TIP3   OH234767   6.619   2.912   7.491  0.0857 -0.2989 -0.5588
 4403TIP3    H134768   6.707   2.950   7.491  0.0583 -0.1429  1.0328
 4403TIP3    H234769   6.626   2.836   7.549 -1.2668  0.9457  1.3646
 4404TIP3   OH234770   0.163   2.731   7.823 -0.7278  0.4730 -0.2150
 4404TIP3    H134771   0.226   2.790   7.864  0.1368 -0.3295 -0.3807
 4404TIP3    H234772   0.106   2.703   7.895  2.6584 -3.4366  1.3055
 4405TIP3   OH234773   5.925   2.772   7.410 -0.4923 -0.0004  0.4950
 4405TIP3    H134774   5.919   2.683   7.444 -0.2209  0.2612  1.2465
 4405TIP3    H234775   6.009   2.776   7.366 -0.8875 -0.3699 -0.3075
 4406TIP3   OH234776   4.853   1.740   8.071 -0.3591  0.3562 -0.6970
 4406TIP3    H134777   4.767   1.776   8.053 -0.1501  1.1951 -0.0667
 4406TIP3    H234778   4.911   1.783   8.009 -0.3320  0.0581 -0.8809
 4407TIP3   OH234779   5.794   0.512   8.597  0.3870 -0.2181  0.1011
 4407TIP3    H134780   5.746   0.595   8.597  0.5696 -0.0937 -1.4247
 4407TIP3    H234781   5.854   0.519   8.671  1.5706  1.7224 -0.9593
 4408TIP3   OH234782   1.087   3.386   1.401 -0.4414  0.0747 -0.6035
 4408TIP3    H134783   1.141   3.333   1.343  0.8459  1.2591 -0.5304
 4408TIP3    H234784   1.115   3.361   1.489  0.9994  1.6290 -0.5726
 4409TIP3   OH234785   6.026   5.113   0.688  0.1434  0.3542  0.4964
 4409TIP3    H134786   5.937   5.148   0.690  0.2395  0.7814 -1.1698
 4409TIP3    H234787   6.015   5.018   0.680 -0.1990  0.5073 -1.0749
 4410TIP3   OH234788   5.515   3.632   0.954  0.2331 -0.0144 -0.7209
 4410TIP3    H134789   5.498   3.709   0.900  0.9444  0.0033 -0.9285
 4410TIP3    H234790   5.474   3.560   0.906  1.8442 -0.1932 -1.9140
 4411TIP3   OH234791   4.722   2.804   7.099  0.1721 -0.0533 -0.0424
 4411TIP3    H134792   4.638   2.783   7.056  0.4645 -1.2738 -0.0633
 4411TIP3    H234793   4.760   2.718   7.119  1.2037  0.4953  0.3938
 4412TIP3   OH234794   6.248   6.841   8.027  0.5790 -0.0403  0.6375
 4412TIP3    H134795   6.331   6.874   8.062  0.9186  1.3503 -1.2466
 4412TIP3    H234796   6.269   6.816   7.937 -0.9934  0.1339  0.1908
 4413TIP3   OH234797   0.325   2.972   0.637  0.1191  0.2936  0.3928
 4413TIP3    H134798   0.326   2.905   0.705  1.7310  1.9595  2.1523
 4413TIP3    H234799   0.235   3.003   0.635 -0.0121  0.0445  1.6610
 4414TIP3   OH234800   5.571   3.905   0.134  0.6376 -0.1487 -0.0023
 4414TIP3    H134801   5.509   3.910   0.061  1.0123  2.1404 -0.2399
 4414TIP3    H234802   5.569   3.814   0.161 -1.6570 -0.4585 -1.0161
 4415TIP3   OH234803   6.626   6.085   6.760  0.5226  0.1380  0.0554
 4415TIP3    H134804   6.688   6.144   6.718  1.7722 -1.0801  0.0963
 4415TIP3    H234805   6.680   6.029   6.815 -0.7440 -0.3096  0.8917
 4416TIP3   OH234806   4.464   3.572   7.459 -0.5586  0.5611 -0.2256
 4416TIP3    H134807   4.510   3.501   7.416 -2.3605  0.5396 -2.2810
 4416TIP3    H234808   4.467   3.549   7.552  0.1468 -1.4423 -0.6903
 4417TIP3   OH234809   5.320   6.296   0.433 -0.2900 -0.2216 -0.0920
 4417TIP3    H134810   5.231   6.311   0.401  0.2162 -1.2516 -2.2240
 4417TIP3    H234811   5.375   6.349   0.375  0.5299  0.1845  1.0221
 4418TIP3   OH234812   1.213   6.421   8.461  0.1729  0.4749  0.1122
 4418TIP3    H134813   1.246   6.360   8.527  1.5573  0.1538 -0.8288
 4418TIP3    H234814   1.269   6.406   8.384 -3.1257 -1.2301 -2.2198
 4419TIP3   OH234815   4.356   0.568   8.597  0.2198  0.0127 -0.2477
 4419TIP3    H134816   4.370   0.544   8.505  1.7452  0.0827 -0.0650
 4419TIP3    H234817   4.412   0.508   8.646 -0.0816  0.4057  0.5959
 4420TIP3   OH234818   0.527   1.585   0.197  0.1738  0.2007 -0.6962
 4420TIP3    H134819   0.482   1.599   0.113 -0.8836 -2.0941 -0.5903
 4420TIP3    H234820   0.599   1.527   0.175  0.1999  0.0085 -0.0943
 4421TIP3   OH234821   1.889   1.512   8.014  0.5387  0.3061 -0.3147
 4421TIP3    H134822   1.979   1.496   7.986  0.7074  0.4157  0.1535
 4421TIP3    H234823   1.897   1.578   8.083  0.1620 -0.1176  0.1495
 4422TIP3   OH234824   4.391   3.512   2.068  0.3521 -0.1486 -0.0362
 4422TIP3    H134825   4.448   3.442   2.035  1.7388  0.8966  0.0670
 4422TIP3    H234826   4.336   3.468   2.133  1.9913 -0.9455  0.8936
 4423TIP3   OH234827   3.736   1.003   8.287 -0.0475 -0.0393  0.0503
 4423TIP3    H134828   3.810   1.025   8.343  0.2451 -1.6889  0.3732
 4423TIP3    H234829   3.758   0.916   8.252 -0.4397  0.7246 -2.2636
 4424TIP3   OH234830   2.710   5.790   0.577 -0.6116  1.0682  0.0785
 4424TIP3    H134831   2.632   5.738   0.597  0.3988  0.1561  1.9184
 4424TIP3    H234832   2.708   5.862   0.640  1.5290 -0.6682  2.3559
 4425TIP3   OH234833   4.389   1.212   0.681 -0.0410 -0.1097  0.1863
 4425TIP3    H134834   4.444   1.134   0.690 -0.2378 -0.2592  0.1184
 4425TIP3    H234835   4.366   1.235   0.771 -0.4944 -0.5068  0.1817
 4426TIP3   OH234836   3.006   0.668   0.324  0.4838  0.3464 -0.1025
 4426TIP3    H134837   2.918   0.633   0.337  0.5636  0.3712  0.5031
 4426TIP3    H234838   3.053   0.648   0.405  1.1956 -0.1441 -0.6229
 4427TIP3   OH234839   2.575   5.941   7.524  0.3430 -0.3777 -0.0613
 4427TIP3    H134840   2.619   5.923   7.441 -0.2044 -0.6903 -0.2849
 4427TIP3    H234841   2.547   6.032   7.517  1.6778  0.0979  0.4208
 4428TIP3   OH234842   1.875   3.435   1.666  0.1644 -0.3001  0.1193
 4428TIP3    H134843   1.910   3.509   1.617 -0.9628 -0.2684 -0.6639
 4428TIP3    H234844   1.864   3.468   1.755  0.5556  0.1855 -0.0097
 4429TIP3   OH234845   0.196   1.186   0.400 -0.3307 -0.1376  0.1367
 4429TIP3    H134846   0.245   1.242   0.459 -0.9184  0.1771  0.3384
 4429TIP3    H234847   0.249   1.107   0.391  0.3393  0.3077  0.1209
 4430TIP3   OH234848   1.586   6.683   6.373  0.2880  0.4604 -0.4075
 4430TIP3    H134849   1.528   6.623   6.326 -0.9829  0.7802  0.6757
 4430TIP3    H234850   1.660   6.697   6.314 -0.7715  0.0736 -1.8819
 4431TIP3   OH234851   1.341   2.039   6.423  0.0911  0.3188 -0.2270
 4431TIP3    H134852   1.421   1.989   6.409 -0.7256 -0.3579 -2.8897
 4431TIP3    H234853   1.319   2.075   6.338 -2.6296  0.2067  0.3232
 4432TIP3   OH234854   3.551   5.581   7.389  0.0839  0.3790 -0.4058
 4432TIP3    H134855   3.481   5.563   7.326 -0.9041 -2.1376  1.2320
 4432TIP3    H234856   3.632   5.562   7.342 -0.6203 -1.0709 -1.0977
 4433TIP3   OH234857   4.838   3.141   0.840 -0.0456 -0.2568  0.5976
 4433TIP3    H134858   4.844   3.218   0.895 -0.4146 -0.1909  0.5491
 4433TIP3    H234859   4.924   3.100   0.846  0.0354 -0.0404  0.9120
 4434TIP3   OH234860   2.435   2.176   7.211  0.1246 -0.3424  0.0025
 4434TIP3    H134861   2.502   2.112   7.186  0.2399 -0.3030  0.2171
 4434TIP3    H234862   2.356   2.147   7.164 -0.1754 -1.4028  1.1245
 4435TIP3   OH234863   6.366   3.640   0.861 -0.7546 -0.0381  0.4297
 4435TIP3    H134864   6.368   3.562   0.917  1.6948  0.4004  1.0635
 4435TIP3    H234865   6.363   3.713   0.922  2.2796  0.4589  0.1614
 4436TIP3   OH234866   3.455   5.426   1.381 -0.8704  0.1111  0.2126
 4436TIP3    H134867   3.415   5.364   1.320 -2.9831  1.4767  0.1203
 4436TIP3    H234868   3.399   5.503   1.377  1.7620  2.1480  0.1784
 4437TIP3   OH234869   1.967   2.048   1.791 -0.7440 -0.4030  0.3268
 4437TIP3    H134870   2.040   1.986   1.782 -1.5397 -1.1329 -1.9749
 4437TIP3    H234871   1.909   2.007   1.855 -0.5087 -1.2828  0.0022
 4438TIP3   OH234872   3.943   6.421   0.103  0.1357  0.0479  0.1213
 4438TIP3    H134873   3.900   6.395   0.185 -2.9578  0.9549 -1.0947
 4438TIP3    H234874   3.916   6.355   0.040  0.6442  0.6089 -0.6988
 4439TIP3   OH234875   1.210   4.658   0.489 -0.5981 -0.4274  0.1723
 4439TIP3    H134876   1.282   4.604   0.454 -0.4185 -0.1872  0.1716
 4439TIP3    H234877   1.221   4.654   0.584 -0.2488  0.0669  0.1539
 4440TIP3   OH234878   0.216   6.380   1.212  0.0599 -0.4212 -0.5083
 4440TIP3    H134879   0.231   6.461   1.260  1.4545 -0.9395 -0.0165
 4440TIP3    H234880   0.193   6.316   1.280 -0.7992 -0.5104 -0.8658
 4441TIP3   OH234881   5.111   6.667   7.230 -0.2376  0.5111 -0.0254
 4441TIP3    H134882   5.025   6.629   7.245 -0.7740  1.7831  0.2072
 4441TIP3    H234883   5.094   6.759   7.211  1.0865  0.8573  0.3537
 4442TIP3   OH234884   3.441   6.385   0.619  0.6331 -0.1259  0.1881
 4442TIP3    H134885   3.372   6.329   0.583 -2.1425  2.3540  1.2780
 4442TIP3    H234886   3.490   6.327   0.677 -1.9827 -1.5721  1.1251
 4443TIP3   OH234887   1.984   0.471   2.081  0.1964  0.2620  0.0985
 4443TIP3    H134888   1.971   0.515   2.165  0.4995 -0.0306  0.3033
 4443TIP3    H234889   1.967   0.538   2.016  1.7189  0.9883  0.4139
 4444TIP3   OH234890   5.175   6.745   1.082 -0.3877 -0.3494 -0.0732
 4444TIP3    H134891   5.101   6.686   1.095 -1.1745  0.5394 -0.4287
 4444TIP3    H234892   5.175   6.762   0.988 -1.1700  1.4627  0.2139
 4445TIP3   OH234893   5.117   4.923   7.809  0.3286 -0.6864 -0.2559
 4445TIP3    H134894   5.132   4.948   7.718 -0.3111 -0.7345 -0.3800
 4445TIP3    H234895   5.032   4.880   7.809  0.8775 -1.8240  0.1610
 4446TIP3   OH234896   2.335   1.943   8.470 -0.3023 -0.0823  0.1350
 4446TIP3    H134897   2.258   1.962   8.524 -0.3771  0.4965 -0.1678
 4446TIP3    H234898   2.353   2.025   8.425  1.0439  0.0619  0.8780
 4447TIP3   OH234899   3.594   4.855   1.471 -0.4318  0.2071  0.3445
 4447TIP3    H134900   3.539   4.800   1.527  0.2312 -1.6732 -0.7259
 4447TIP3    H234901   3.682   4.818   1.480  0.2506  1.7843  0.3786
 4448TIP3   OH234902   5.354   2.803   0.773  0.1688  0.0389 -0.2626
 4448TIP3    H134903   5.383   2.712   0.762 -1.0500 -0.2989 -0.9103
 4448TIP3    H234904   5.271   2.796   0.820  0.5451  0.8927  0.5558
 4449TIP3   OH234905   3.054   2.844   8.075  0.4448 -0.1146 -0.0354
 4449TIP3    H134906   3.003   2.804   8.145  0.2953 -0.9590 -0.6187
 4449TIP3    H234907   2.989   2.876   8.013  0.5879  0.3842  0.0620
 4450TIP3   OH234908   4.613   4.754   8.418 -0.1000 -0.1747  0.5401
 4450TIP3    H134909   4.606   4.708   8.502 -0.0815 -0.9950  0.1034
 4450TIP3    H234910   4.523   4.781   8.398 -0.1620 -0.2987  0.6500
 4451TIP3   OH234911   1.497   2.934   0.590  0.4500 -0.4167  0.0474
 4451TIP3    H134912   1.403   2.952   0.602  0.6479  0.4049  0.4663
 4451TIP3    H234913   1.503   2.897   0.502 -0.2485 -0.3091 -0.0550
 4452TIP3   OH234914   0.133   1.261   6.356  0.4592 -0.1386 -0.3644
 4452TIP3    H134915   0.135   1.355   6.339  0.8144 -0.0730  0.0436
 4452TIP3    H234916   0.042   1.243   6.381  0.5664  0.2265  0.3008
 4453TIP3   OH234917   2.387   2.750   6.539  0.4190 -0.1574  0.3158
 4453TIP3    H134918   2.384   2.768   6.445 -0.4719 -0.6352  0.2365
 4453TIP3    H234919   2.458   2.805   6.572 -1.7963  3.1556  0.0130
 4454TIP3   OH234920   0.377   5.745   0.181  0.1608  0.0172 -0.0613
 4454TIP3    H134921   0.400   5.832   0.214  0.7508 -0.7612  1.6559
 4454TIP3    H234922   0.452   5.690   0.202 -1.3706 -1.5578  1.5789
 4455TIP3   OH234923   6.855   0.391   8.314  0.7098 -0.7760  0.4612
 4455TIP3    H134924   6.842   0.394   8.409 -1.0367  1.3727  0.2383
 4455TIP3    H234925   6.855   0.298   8.292 -0.2260 -1.2820  2.4140
 4456TIP3   OH234926   3.250   2.808   7.764 -0.6562 -0.0405  0.1215
 4456TIP3    H134927   3.179   2.744   7.773  0.4823 -1.3134  0.4028
 4456TIP3    H234928   3.317   2.762   7.713 -0.2503  1.3306 -0.6240
 4457TIP3   OH234929   5.605   6.579   7.604 -0.2156  0.2903  0.1100
 4457TIP3    H134930   5.620   6.602   7.696 -0.6131 -0.3886  0.3494
 4457TIP3    H234931   5.608   6.484   7.602  2.9712  0.3104 -1.1598
 4458TIP3   OH234932   6.283   1.018   1.891  0.0999 -0.0525  0.1096
 4458TIP3    H134933   6.338   1.032   1.968 -0.5654  0.6141  0.4716
 4458TIP3    H234934   6.309   1.087   1.830 -1.0189  0.8940  0.6766
 4459TIP3   OH234935   0.311   5.753   7.822  0.1208  0.0728 -0.0951
 4459TIP3    H134936   0.278   5.764   7.912 -0.4274 -3.1030  0.1898
 4459TIP3    H234937   0.236   5.719   7.773  0.9646 -0.0784 -1.3170
 4460TIP3   OH234938   3.971   2.004   0.987  0.0637 -0.1476  0.3280
 4460TIP3    H134939   3.955   2.097   0.973  2.3754  0.1906 -0.5454
 4460TIP3    H234940   4.017   1.976   0.908  1.0121 -1.5985  1.3458
 4461TIP3   OH234941   1.041   2.221   7.587  0.3563  0.5743  0.2693
 4461TIP3    H134942   0.948   2.228   7.609  0.7020 -0.7006  2.4873
 4461TIP3    H234943   1.050   2.267   7.504 -1.9353  2.2149  0.8401
 4462TIP3   OH234944   1.239   3.258   0.695  0.6926  0.2681  0.2883
 4462TIP3    H134945   1.277   3.325   0.751  0.4512  1.7844 -1.2780
 4462TIP3    H234946   1.302   3.247   0.624  0.8187 -1.3315  0.6091
 4463TIP3   OH234947   6.234   4.307   0.158 -0.5486 -0.0779  0.7217
 4463TIP3    H134948   6.292   4.232   0.172 -0.2832 -0.4233 -1.7266
 4463TIP3    H234949   6.276   4.357   0.088 -1.4299  1.6261  1.3672
 4464TIP3   OH234950   1.814   3.025   0.392  0.1993  0.1588 -1.0391
 4464TIP3    H134951   1.860   3.107   0.373  1.5279 -0.2858  0.1369
 4464TIP3    H234952   1.754   3.047   0.463  1.0303 -0.0366 -0.2737
 4465TIP3   OH234953   1.429   6.664   6.624 -0.3050 -0.0047 -0.1511
 4465TIP3    H134954   1.439   6.684   6.717  0.6051 -0.5976 -0.1004
 4465TIP3    H234955   1.421   6.568   6.621  0.2702 -0.0444 -0.7148
 4466TIP3   OH234956   2.740   2.625   0.098 -0.3641  0.4919  0.3381
 4466TIP3    H134957   2.706   2.703   0.143  1.4950  2.0924 -0.8881
 4466TIP3    H234958   2.744   2.650   0.006 -0.2317 -1.2780 -0.1677
 4467TIP3   OH234959   4.914   3.225   8.630 -0.0638 -0.4957  0.2927
 4467TIP3    H134960   4.933   3.302   8.683 -0.7934  1.4752 -2.0807
 4467TIP3    H234961   4.904   3.259   8.541 -2.9728 -2.9733 -0.5098
 4468TIP3   OH234962   5.761   4.680   7.194  0.2048 -0.8413  0.7762
 4468TIP3    H134963   5.848   4.684   7.154 -0.3403 -0.4738 -0.4037
 4468TIP3    H234964   5.775   4.710   7.284  1.3410 -1.0367  0.6752
 4469TIP3   OH234965   3.612   3.587   2.252  0.4359  0.0598  1.0031
 4469TIP3    H134966   3.660   3.632   2.322 -0.1842 -1.1472  2.2645
 4469TIP3    H234967   3.521   3.614   2.265  0.5853  1.7045 -0.8780
 4470TIP3   OH234968   5.863   2.480   1.266 -0.2709  0.1698  0.1491
 4470TIP3    H134969   5.815   2.398   1.261 -1.0624  0.5788  0.8638
 4470TIP3    H234970   5.801   2.542   1.304 -0.0003  1.3409 -1.2389
 4471TIP3   OH234971   4.562   3.219   6.537  0.1545 -0.1443  0.4193
 4471TIP3    H134972   4.604   3.305   6.535  2.5606 -1.2574 -0.3549
 4471TIP3    H234973   4.527   3.208   6.448 -0.9148  0.3603  0.7664
 4472TIP3   OH234974   5.781   0.288   8.248 -0.4996 -0.5189  0.5822
 4472TIP3    H134975   5.741   0.339   8.177  0.8142 -0.2413  0.0099
 4472TIP3    H234976   5.868   0.327   8.260 -0.1177 -1.5399  1.2885
 4473TIP3   OH234977   6.129   2.733   1.714  0.1697 -0.4833 -0.1163
 4473TIP3    H134978   6.136   2.711   1.807  0.3442  2.0199  0.5148
 4473TIP3    H234979   6.104   2.650   1.672  0.6899 -1.8102  2.0517
 4474TIP3   OH234980   3.855   4.446   6.444  0.3603  0.0429 -0.1884
 4474TIP3    H134981   3.794   4.516   6.422 -0.6408 -0.3446  1.2257
 4474TIP3    H234982   3.872   4.402   6.361 -0.4018  0.8521 -0.7946
 4475TIP3   OH234983   4.990   4.141   8.611  0.1282  0.4760 -0.1106
 4475TIP3    H134984   4.989   4.057   8.657 -1.4239  1.7817  2.4792
 4475TIP3    H234985   5.033   4.201   8.672 -3.1653  2.5945  0.3933
 4476TIP3   OH234986   0.774   0.174   6.839  0.7356  0.6837  1.0182
 4476TIP3    H134987   0.853   0.120   6.837  1.8120  2.1557  1.5444
 4476TIP3    H234988   0.742   0.167   6.929  0.4961  0.4168  0.9143
 4477TIP3   OH234989   6.774   3.823   6.654 -0.3045 -0.8195  0.4573
 4477TIP3    H134990   6.704   3.760   6.671 -0.7333 -0.7047 -0.7802
 4477TIP3    H234991   6.797   3.857   6.740 -2.5598 -0.0295  0.8326
 4478TIP3   OH234992   2.848   3.499   0.988 -0.1271 -0.3882 -0.0472
 4478TIP3    H134993   2.860   3.407   1.012  0.2073 -0.2529  0.3257
 4478TIP3    H234994   2.855   3.547   1.071  0.0062 -0.0010 -0.2775
 4479TIP3   OH234995   4.683   1.032   2.307  0.1727  0.0901  0.0440
 4479TIP3    H134996   4.701   0.997   2.394 -0.8284  0.2983  0.3435
 4479TIP3    H234997   4.594   1.003   2.287  0.5648 -0.3561 -1.1190
 4480TIP3   OH234998   2.284   1.378   8.573 -0.0437  0.2848 -0.1883
 4480TIP3    H134999   2.212   1.317   8.588 -0.1074  0.4841  0.3551
 4480TIP3    H235000   2.242   1.464   8.574  0.4221  0.5412  1.9133
 4481TIP3   OH235001   3.334   6.843   7.923 -0.0276 -0.3778 -0.0247
 4481TIP3    H135002   3.381   6.842   8.006 -1.4927  0.7362  0.8586
 4481TIP3    H235003   3.270   6.772   7.931 -0.0717 -0.3664 -0.2691
 4482TIP3   OH235004   6.700   3.194   0.472  0.3421 -0.7752 -0.1617
 4482TIP3    H135005   6.622   3.143   0.451  0.8889 -1.0144 -1.7171
 4482TIP3    H235006   6.772   3.143   0.437  1.1378 -0.1387  0.5116
 4483TIP3   OH235007   3.260   5.568   1.024 -0.3127  0.1336  0.2783
 4483TIP3    H135008   3.170   5.543   1.043 -0.3967  1.2152  1.4304
 4483TIP3    H235009   3.260   5.664   1.027  0.8452  0.1557  0.2077
 4484TIP3   OH235010   4.105   2.255   1.109  0.6075  0.5745  0.0387
 4484TIP3    H135011   4.112   2.297   1.195 -1.5993 -0.4712  0.7929
 4484TIP3    H235012   4.033   2.302   1.066 -0.3889 -0.9135  0.0216
 4485TIP3   OH235013   3.164   2.373   0.657 -0.1865 -0.1525  0.1509
 4485TIP3    H135014   3.149   2.451   0.603  1.8164  0.4345  0.3701
 4485TIP3    H235015   3.116   2.304   0.613 -0.8769  0.9019 -0.8175
 4486TIP3   OH235016   5.773   5.125   7.334 -0.2541 -0.0972  0.2705
 4486TIP3    H135017   5.824   5.163   7.262 -1.5799 -0.4518 -0.9165
 4486TIP3    H235018   5.825   5.050   7.364 -0.4350 -1.0057 -1.5262
 4487TIP3   OH235019   1.279   2.396   6.300 -0.4695 -0.2356 -0.5230
 4487TIP3    H135020   1.200   2.445   6.276 -0.3208  0.2487 -0.0467
 4487TIP3    H235021   1.288   2.411   6.394  0.6840  0.4530 -0.7308
 4488TIP3   OH235022   1.987   5.994   0.588  0.4315 -0.2440  0.0905
 4488TIP3    H135023   1.979   6.040   0.505 -2.5625 -1.0878 -0.2334
 4488TIP3    H235024   2.009   5.904   0.564 -0.0484 -0.3974  0.2015
 4489TIP3   OH235025   3.290   3.580   7.447  0.2878  0.3117  0.0335
 4489TIP3    H135026   3.266   3.670   7.466 -1.4660  0.2566 -1.5529
 4489TIP3    H235027   3.385   3.581   7.440  0.3699  1.8167  1.0039
 4490TIP3   OH235028   4.414   0.173   0.762 -0.5804 -0.2089 -0.3581
 4490TIP3    H135029   4.482   0.227   0.802 -0.6067 -0.6784  0.3322
 4490TIP3    H235030   4.420   0.192   0.668 -0.3087  0.6625 -0.1681
 4491TIP3   OH235031   3.194   1.657   8.227 -0.1973 -0.0312  0.0293
 4491TIP3    H135032   3.272   1.643   8.174  0.0524  0.7065  0.1878
 4491TIP3    H235033   3.222   1.637   8.317  0.0553  1.0680  0.2040
 4492TIP3   OH235034   4.354   6.742   6.849  0.0775 -0.5070  0.0344
 4492TIP3    H135035   4.326   6.827   6.882 -2.4020 -1.9538  2.0496
 4492TIP3    H235036   4.276   6.686   6.857  1.1929 -2.6622 -2.4987
 4493TIP3   OH235037   6.549   3.987   1.911  0.7297 -0.4266 -0.0855
 4493TIP3    H135038   6.604   4.059   1.880 -0.1884  0.6905  0.7721
 4493TIP3    H235039   6.469   4.029   1.941  0.9504 -1.5425  2.3800
 4494TIP3   OH235040   0.885   4.771   7.324 -0.5654  0.0629  0.5407
 4494TIP3    H135041   0.959   4.772   7.263 -0.2670  0.0731  0.8989
 4494TIP3    H235042   0.851   4.861   7.322 -1.3166 -0.2329 -0.5214
 4495TIP3   OH235043   5.328   4.819   7.593 -1.0813 -0.0756 -0.7793
 4495TIP3    H135044   5.355   4.903   7.629 -1.0616  0.0833 -1.1680
 4495TIP3    H235045   5.233   4.827   7.583 -1.0386  0.0173 -1.1195
 4496TIP3   OH235046   1.489   3.267   7.874  0.0496  0.2878  0.3777
 4496TIP3    H135047   1.420   3.217   7.832  0.3394 -0.6622  1.0015
 4496TIP3    H235048   1.559   3.204   7.889  0.9153  1.1555  0.0788
 4497TIP3   OH235049   0.937   5.225   6.958 -0.3027 -0.0923  0.1201
 4497TIP3    H135050   0.937   5.133   6.983  0.7562 -0.1379  0.0059
 4497TIP3    H235051   0.949   5.223   6.863 -1.1562  0.1490  0.0014
 4498TIP3   OH235052   0.193   2.706   0.603  0.2147  0.0546 -0.2819
 4498TIP3    H135053   0.273   2.655   0.594 -0.8082 -1.9959  1.2886
 4498TIP3    H235054   0.194   2.736   0.694 -0.8319 -0.1096 -0.2039
 4499TIP3   OH235055   4.544   5.373   2.127 -0.3324  1.4849  0.3055
 4499TIP3    H135056   4.531   5.328   2.210 -0.4986  1.4299  0.2498
 4499TIP3    H235057   4.510   5.461   2.141 -2.3959  0.8582 -0.3478
 4500TIP3   OH235058   2.417   4.099   8.025  0.0081  0.0427 -0.1454
 4500TIP3    H135059   2.334   4.091   8.073  0.3182  1.1174  0.6041
 4500TIP3    H235060   2.482   4.058   8.081  0.0330 -0.6805 -0.6761
 4501TIP3   OH235061   0.866   6.854   8.102  0.1590  0.1900  0.0157
 4501TIP3    H135062   0.798   6.918   8.122 -1.5937 -1.4319 -0.4635
 4501TIP3    H235063   0.915   6.893   8.030 -0.8717  0.9906 -0.2820
 4502TIP3   OH235064   6.046   2.142   7.739 -0.1953  0.3666 -0.6514
 4502TIP3    H135065   5.999   2.188   7.669  1.4428 -1.0564 -2.8179
 4502TIP3    H235066   5.979   2.090   7.783 -1.1944  0.9458 -1.4406
 4503TIP3   OH235067   2.334   5.767   7.610 -0.2368 -0.0358  0.4635
 4503TIP3    H135068   2.405   5.827   7.586  0.0853  0.0503  1.5617
 4503TIP3    H235069   2.275   5.769   7.535  1.3886 -0.8528 -0.9205
 4504TIP3   OH235070   0.881   0.551   8.239 -0.2945 -0.0178  0.0124
 4504TIP3    H135071   0.803   0.604   8.256  0.6577  0.9186  1.8064
 4504TIP3    H235072   0.919   0.589   8.159  0.5567  2.3756  1.4443
 4505TIP3   OH235073   5.118   0.404   8.040 -0.2319  0.4526  0.4526
 4505TIP3    H135074   5.066   0.328   8.067 -0.0821  0.7878  1.7500
 4505TIP3    H235075   5.110   0.406   7.944  0.8708 -2.0133  0.2153
 4506TIP3   OH235076   2.380   2.746   1.287 -0.3549  0.0321  0.3432
 4506TIP3    H135077   2.444   2.727   1.356 -0.2154 -0.0789  0.1842
 4506TIP3    H235078   2.298   2.711   1.320 -0.1708 -0.5448  0.2030
 4507TIP3   OH235079   0.781   6.241   1.808  0.3646 -0.2113  0.1441
 4507TIP3    H135080   0.757   6.317   1.755  0.8008  0.5735  1.0332
 4507TIP3    H235081   0.867   6.215   1.775 -0.0845 -0.7735 -0.6262
 4508TIP3   OH235082   4.147   4.830   8.294 -0.0099 -0.7969 -0.0719
 4508TIP3    H135083   4.128   4.801   8.205 -0.7407 -1.4727  0.2924
 4508TIP3    H235084   4.113   4.919   8.297 -1.7725 -1.4441  0.0946
 4509TIP3   OH235085   3.034   3.033   7.385  0.1829 -0.4486  0.0419
 4509TIP3    H135086   2.961   2.975   7.408 -0.4134 -0.3070 -1.3780
 4509TIP3    H235087   3.111   2.975   7.383 -0.5236 -1.4216 -2.1346
 4510TIP3   OH235088   4.558   0.889   1.694 -0.7843  0.8764 -0.3184
 4510TIP3    H135089   4.543   0.920   1.784 -1.6010  0.2006 -0.2003
 4510TIP3    H235090   4.622   0.950   1.658 -1.2297  1.7956  0.3785
 4511TIP3   OH235091   0.465   5.989   2.010 -0.1662  0.4318 -0.4379
 4511TIP3    H135092   0.479   6.040   1.930  0.9595 -1.0765 -1.2684
 4511TIP3    H235093   0.513   6.037   2.078 -1.3797  1.8843 -0.5819
 4512TIP3   OH235094   5.622   1.520   0.395  0.1085  0.1901  0.3936
 4512TIP3    H135095   5.551   1.555   0.450 -0.3457 -0.5412  0.2892
 4512TIP3    H235096   5.604   1.426   0.391  0.7377  0.0919 -0.1495
 4513TIP3   OH235097   3.290   5.674   8.043  0.0625  0.1783  0.5598
 4513TIP3    H135098   3.382   5.697   8.060 -0.2372  3.0356 -1.1238
 4513TIP3    H235099   3.246   5.688   8.126  0.8681  0.4565  0.9545
 4514TIP3   OH235100   2.350   0.095   6.047  0.0750 -0.8526 -0.4093
 4514TIP3    H135101   2.407   0.057   6.113  0.1332 -0.8913 -0.4816
 4514TIP3    H235102   2.399   0.168   6.011 -0.4387 -0.0779  0.4357
 4515TIP3   OH235103   0.516   1.962   8.613  0.1600 -0.1786 -0.1166
 4515TIP3    H135104   0.473   1.951   8.528 -0.1770  0.4076 -0.0305
 4515TIP3    H235105   0.605   1.990   8.592  0.2431 -0.5567 -0.2810
 4516TIP3   OH235106   2.957   1.601   1.832 -0.0220  0.0912 -0.1180
 4516TIP3    H135107   2.890   1.619   1.898  0.1202 -2.9166  1.0222
 4516TIP3    H235108   3.016   1.676   1.836 -1.6379  1.3688  1.0636
 4517TIP3   OH235109   2.210   2.344   0.669  0.3758 -0.4358  0.7786
 4517TIP3    H135110   2.169   2.414   0.616  1.8678 -0.5253 -0.5470
 4517TIP3    H235111   2.207   2.267   0.613  0.2239 -1.0542  1.6163
 4518TIP3   OH235112   2.545   0.991   7.419  0.7611  0.4970 -0.2113
 4518TIP3    H135113   2.576   0.971   7.331  0.9672 -1.0062  0.1829
 4518TIP3    H235114   2.519   1.083   7.415 -0.6353  0.0725 -2.2418
 4519TIP3   OH235115   3.710   2.709   6.891 -0.4661  0.1662 -0.3489
 4519TIP3    H135116   3.662   2.778   6.845 -1.4575 -1.3606 -1.7340
 4519TIP3    H235117   3.731   2.645   6.823  1.3066 -0.4371  0.7109
 4520TIP3   OH235118   1.338   4.484   2.149 -0.0575 -0.2872  0.2759
 4520TIP3    H135119   1.400   4.514   2.083  0.0398  0.3799  0.6595
 4520TIP3    H235120   1.271   4.436   2.099  0.8685 -1.2017 -0.1106
 4521TIP3   OH235121   3.029   3.087   7.084 -0.2864 -0.0664  0.3380
 4521TIP3    H135122   3.110   3.138   7.087 -2.5509  3.8513  3.4537
 4521TIP3    H235123   3.008   3.071   7.176 -3.4106 -0.2904 -0.3199
 4522TIP3   OH235124   4.112   4.565   7.169  0.7626  0.3850 -0.4796
 4522TIP3    H135125   4.132   4.567   7.262 -0.5747 -0.4346 -0.1504
 4522TIP3    H235126   4.031   4.615   7.160  0.5694 -0.0262 -1.1156
 4523TIP3   OH235127   6.679   1.200   0.758  0.5016  0.7233 -0.1340
 4523TIP3    H135128   6.755   1.220   0.813 -1.4981  0.5706  3.0060
 4523TIP3    H235129   6.700   1.117   0.717  2.2526  0.9676  0.1842
 4524TIP3   OH235130   3.535   0.853   6.579 -0.1420  0.4477 -0.4353
 4524TIP3    H135131   3.592   0.776   6.572  0.1110  0.4735  1.0310
 4524TIP3    H235132   3.451   0.824   6.545 -0.1991 -0.6646  0.5815
 4525TIP3   OH235133   4.982   0.081   1.153 -0.3768 -0.0703 -0.3689
 4525TIP3    H135134   5.057   0.022   1.143 -0.0485  0.5760 -2.0110
 4525TIP3    H235135   4.912   0.024   1.186 -0.1007 -1.4462 -1.9832
 4526TIP3   OH235136   3.504   2.404   1.768  0.7215  0.1168 -0.5954
 4526TIP3    H135137   3.527   2.345   1.839  0.4776  0.9657  0.2159
 4526TIP3    H235138   3.430   2.455   1.803  0.9056  0.8662 -1.2754
 4527TIP3   OH235139   4.502   2.632   8.328 -0.0042  0.0629 -0.4659
 4527TIP3    H135140   4.449   2.623   8.249 -1.6278 -0.0358  0.5844
 4527TIP3    H235141   4.526   2.542   8.351  0.3173  0.0774 -0.7381
 4528TIP3   OH235142   5.137   1.854   7.359 -0.4199  0.0257  0.1863
 4528TIP3    H135143   5.047   1.880   7.340 -0.1346  0.4356 -0.6683
 4528TIP3    H235144   5.179   1.846   7.273  0.2437 -0.5913  0.5508
 4529TIP3   OH235145   6.825   2.901   7.736  0.5379  0.1503  0.6608
 4529TIP3    H135146   6.767   2.827   7.721  2.0343 -0.8654 -0.3840
 4529TIP3    H235147   6.905   2.863   7.771  2.5619  0.7568 -2.8409
 4530TIP3   OH235148   5.344   2.123   8.409  0.1118  0.0437  0.1403
 4530TIP3    H135149   5.276   2.161   8.464 -0.6135 -0.3050 -0.4930
 4530TIP3    H235150   5.301   2.109   8.324  0.1180 -2.7722  0.5079
 4531TIP3   OH235151   6.294   3.067   8.152 -0.1215 -0.8098 -0.6057
 4531TIP3    H135152   6.258   2.978   8.142  1.4064 -1.4529 -0.5919
 4531TIP3    H235153   6.383   3.054   8.185  1.2497  0.5684 -3.4023
 4532TIP3   OH235154   2.008   6.199   8.651  0.0434  0.0661 -0.0516
 4532TIP3    H135155   2.091   6.231   8.687 -0.0831  1.8972 -1.2744
 4532TIP3    H235156   2.030   6.115   8.610  1.5679  1.0037 -1.2622
 4533TIP3   OH235157   1.638   2.834   0.796  0.4130  0.0650 -0.3120
 4533TIP3    H135158   1.601   2.884   0.869 -1.4390 -1.7615  0.1115
 4533TIP3    H235159   1.599   2.872   0.718  2.1652  1.8290 -0.4076
 4534TIP3   OH235160   0.362   1.750   0.978 -0.1619  0.1932 -0.2631
 4534TIP3    H135161   0.370   1.743   1.073 -2.9876  1.0620  0.1473
 4534TIP3    H235162   0.386   1.841   0.958 -0.9441  0.4337 -0.1494
 4535TIP3   OH235163   2.410   2.621   6.806 -0.0647  0.0050  0.1926
 4535TIP3    H135164   2.447   2.661   6.727 -0.2407 -1.2553 -0.5549
 4535TIP3    H235165   2.367   2.693   6.852 -0.3233  0.6741 -1.0703
 4536TIP3   OH235166   2.575   0.885   1.067  0.0177 -1.0089 -0.2474
 4536TIP3    H135167   2.608   0.884   0.977  0.5954 -0.1981 -0.0515
 4536TIP3    H235168   2.500   0.945   1.065  0.0875 -0.9189 -0.1689
 4537TIP3   OH235169   4.878   2.396   0.244 -0.5880 -0.3329 -0.3375
 4537TIP3    H135170   4.803   2.455   0.249 -1.2142 -1.1370 -0.0908
 4537TIP3    H235171   4.845   2.313   0.278  0.2011 -0.9050 -0.9570
 4538TIP3   OH235172   4.934   4.676   6.591  0.0064  0.2682  0.5360
 4538TIP3    H135173   5.008   4.737   6.583  0.4671 -0.4992 -1.9150
 4538TIP3    H235174   4.964   4.597   6.546 -2.5958  0.2411 -1.3668
 4539TIP3   OH235175   4.655   3.616   1.242 -0.1490  0.0669 -0.4411
 4539TIP3    H135176   4.695   3.665   1.314  1.5308 -0.7411 -0.7736
 4539TIP3    H235177   4.679   3.525   1.259 -0.9944 -0.3143 -1.2381
 4540TIP3   OH235178   0.168   1.589   0.880 -0.3206  0.4988  1.2106
 4540TIP3    H135179   0.247   1.632   0.914  0.5848 -0.4224  0.3812
 4540TIP3    H235180   0.191   1.496   0.879 -1.5079  0.2016  1.1532
 4541TIP3   OH235181   4.968   6.261   0.946 -0.3000  0.2806 -0.6973
 4541TIP3    H135182   4.929   6.190   0.896  0.1839  0.1632 -0.9029
 4541TIP3    H235183   4.919   6.261   1.029  0.9778 -1.5711  0.1199
 4542TIP3   OH235184   0.634   3.661   1.937 -0.2750 -0.0773  0.8075
 4542TIP3    H135185   0.680   3.619   1.865 -0.4282  0.2617  0.5087
 4542TIP3    H235186   0.671   3.749   1.942 -1.8714  0.7067 -0.3774
 4543TIP3   OH235187   0.971   1.703   0.732  0.3186  0.5120  0.1304
 4543TIP3    H135188   0.939   1.647   0.803 -1.3077  0.0522 -0.9009
 4543TIP3    H235189   0.898   1.762   0.713  0.8311  0.8367 -0.9455
 4544TIP3   OH235190   0.010   1.783   8.185  0.1441  0.0074 -0.1597
 4544TIP3    H135191  -0.026   1.870   8.167  0.2459 -0.2071 -1.5399
 4544TIP3    H235192   0.061   1.762   8.106  1.1310 -0.7936  0.6660
 4545TIP3   OH235193   2.681   1.809   7.336 -0.2744  0.1645  0.9951
 4545TIP3    H135194   2.736   1.794   7.413  0.9075 -1.6814 -0.1206
 4545TIP3    H235195   2.671   1.722   7.297 -2.4693  0.7427  0.1024
 4546TIP3   OH235196   1.829   6.189   7.479  0.4119 -0.2144 -0.2392
 4546TIP3    H135197   1.823   6.094   7.472  0.2720 -0.3686  1.5445
 4546TIP3    H235198   1.776   6.222   7.406 -1.3027 -1.5211  0.3465
 4547TIP3   OH235199   6.474   5.340   1.725  0.0706  0.0474 -0.3083
 4547TIP3    H135200   6.447   5.261   1.678  1.1590  1.5497 -3.8516
 4547TIP3    H235201   6.561   5.359   1.691 -0.4018  3.0725 -0.1167
 4548TIP3   OH235202   5.357   5.314   8.230 -0.2019 -0.4383 -0.4919
 4548TIP3    H135203   5.446   5.345   8.248 -0.9003  0.3867  1.9204
 4548TIP3    H235204   5.370   5.232   8.183  1.7736  0.6901 -2.0886
 4549TIP3   OH235205   6.148   2.822   0.332 -0.2650  0.1379  0.2245
 4549TIP3    H135206   6.087   2.846   0.263  0.8523  2.1697 -0.1262
 4549TIP3    H235207   6.193   2.904   0.355  0.2621 -0.7154  2.5064
 4550TIP3   OH235208   4.423   1.474   0.546  0.0600  0.2760 -0.6863
 4550TIP3    H135209   4.409   1.519   0.629  1.1218  1.8920 -1.3127
 4550TIP3    H235210   4.413   1.381   0.566  0.4216  0.6196  1.2747
 4551TIP3   OH235211   5.959   0.125   2.429  0.5649  0.0934 -0.3919
 4551TIP3    H135212   5.962   0.049   2.487  0.8503  1.3513  1.3031
 4551TIP3    H235213   6.046   0.127   2.388  0.5709 -0.4447 -0.4188
 4552TIP3   OH235214   0.850   6.373   0.722  0.6168  0.3019  0.0267
 4552TIP3    H135215   0.758   6.379   0.750  0.5894  0.4373 -0.0947
 4552TIP3    H235216   0.868   6.279   0.720 -0.2552  0.1225 -2.3580
 4553TIP3   OH235217   3.486   0.317   8.185 -0.3042  0.2296  0.0336
 4553TIP3    H135218   3.483   0.329   8.280  0.0230  1.4819 -0.0882
 4553TIP3    H235219   3.578   0.297   8.166 -0.6767 -1.7223  0.1313
 4554TIP3   OH235220   3.926   5.803   7.099  0.1997 -0.6908  0.0355
 4554TIP3    H135221   3.985   5.766   7.165  0.4215  0.1170  0.3122
 4554TIP3    H235222   3.846   5.824   7.148  0.0873 -0.7705 -0.1119
 4555TIP3   OH235223   1.895   2.292   8.158 -0.4262  0.2845 -0.5852
 4555TIP3    H135224   1.869   2.275   8.248  0.9972 -1.8201 -0.5169
 4555TIP3    H235225   1.813   2.317   8.114 -1.0047  2.1766  1.3893
 4556TIP3   OH235226   1.668   1.416   0.109  0.1446  0.1966 -0.3281
 4556TIP3    H135227   1.715   1.436   0.028  0.6125 -0.4232 -0.2157
 4556TIP3    H235228   1.717   1.344   0.148 -0.3291  0.2036  0.2924
 4557TIP3   OH235229   2.193   5.213   1.507  0.3903 -0.1979 -0.2399
 4557TIP3    H135230   2.205   5.148   1.437 -0.5209 -1.5195  0.7915
 4557TIP3    H235231   2.174   5.161   1.585  0.7843  1.2775  0.8798
 4558TIP3   OH235232   4.795   2.914   8.447  0.1923  0.5433  0.1354
 4558TIP3    H135233   4.887   2.915   8.474  0.5131 -0.0301 -0.8735
 4558TIP3    H235234   4.756   2.842   8.497  0.9484 -0.9777 -1.3620
 4559TIP3   OH235235   6.553   4.661   1.997 -0.1622 -0.2669 -1.1225
 4559TIP3    H135236   6.530   4.723   1.928  0.1385 -0.9756 -1.8730
 4559TIP3    H235237   6.611   4.710   2.056 -0.9247  0.5341 -1.0137
 4560TIP3   OH235238   4.917   3.932   1.799  0.2724  0.2373  0.4756
 4560TIP3    H135239   4.932   3.863   1.863 -0.0115 -0.0276  0.2555
 4560TIP3    H235240   4.982   4.000   1.822  0.5036 -0.0659  0.7324
 4561TIP3   OH235241   5.421   2.671   8.614 -0.0655 -0.5309  0.0534
 4561TIP3    H135242   5.410   2.656   8.709 -2.2941 -1.7698 -0.3202
 4561TIP3    H235243   5.336   2.648   8.577  1.1020 -1.1955 -2.3910
 4562TIP3   OH235244   0.445   6.875   0.764 -0.2191  0.5667 -0.0287
 4562TIP3    H135245   0.387   6.882   0.840  0.6731 -0.1810  0.7402
 4562TIP3    H235246   0.533   6.887   0.800  0.1664  0.9929 -1.0753
 4563TIP3   OH235247   2.084   6.589   8.223 -0.2675  0.1785 -0.0325
 4563TIP3    H135248   1.991   6.599   8.242 -0.4504 -3.0208  1.3262
 4563TIP3    H235249   2.091   6.601   8.128 -1.7266  2.1280  0.0494
 4564TIP3   OH235250   0.706   1.003   1.407 -0.4749 -0.4276  0.0321
 4564TIP3    H135251   0.783   1.017   1.352 -0.8655 -0.4107 -0.5284
 4564TIP3    H235252   0.659   0.931   1.364 -0.2963 -1.0657  0.8926
 4565TIP3   OH235253   6.655   4.240   6.599  0.0127  0.4282 -0.5745
 4565TIP3    H135254   6.687   4.248   6.509  2.3174 -1.0092  0.0214
 4565TIP3    H235255   6.734   4.244   6.653 -0.8618 -2.4477  1.1282
 4566TIP3   OH235256   5.478   6.671   6.227  0.4929  0.4747  0.1857
 4566TIP3    H135257   5.438   6.746   6.271 -0.4259 -1.0816  2.1900
 4566TIP3    H235258   5.560   6.657   6.274  0.7179  0.2861 -0.2609
 4567TIP3   OH235259   4.175   4.735   7.993 -0.0701 -0.3967 -0.1937
 4567TIP3    H135260   4.174   4.731   7.898  1.1011  1.3891 -0.3199
 4567TIP3    H235261   4.108   4.672   8.020  0.2854 -1.6969 -2.1435
 4568TIP3   OH235262   0.035   3.896   0.787  0.2395 -0.2292 -0.0123
 4568TIP3    H135263   0.045   3.843   0.708  1.6265  0.9276 -0.6700
 4568TIP3    H235264   0.109   3.870   0.842 -0.4641 -0.7049  0.7240
 4569TIP3   OH235265   6.517   0.832   7.757  0.1040 -0.0834  0.2270
 4569TIP3    H135266   6.544   0.891   7.686 -0.9667 -1.0601 -1.0480
 4569TIP3    H235267   6.511   0.746   7.716 -2.7328 -0.3184  0.8947
 4570TIP3   OH235268   4.518   0.259   0.274  0.4476 -0.1289 -0.5261
 4570TIP3    H135269   4.484   0.349   0.267 -1.0116 -0.6265 -0.0720
 4570TIP3    H235270   4.573   0.249   0.196  1.0870  1.3442 -0.2918
 4571TIP3   OH235271   3.894   0.512   7.920 -0.2301  0.1626 -0.3302
 4571TIP3    H135272   3.941   0.595   7.927  0.0844  0.0614 -1.1253
 4571TIP3    H235273   3.890   0.479   8.010  0.6678  0.4729 -0.1668
 4572TIP3   OH235274   3.943   1.399   0.719 -0.2709 -0.0834  0.1996
 4572TIP3    H135275   4.000   1.349   0.661 -0.2799  0.0889  0.0432
 4572TIP3    H235276   3.955   1.490   0.694  1.1695  0.2020  1.7263
 4573TIP3   OH235277   0.473   1.326   7.140  0.2762  0.0719  0.5223
 4573TIP3    H135278   0.464   1.343   7.233  0.2345  2.6560  0.1382
 4573TIP3    H235279   0.399   1.269   7.118 -0.3804  0.3729  1.8618
 4574TIP3   OH235280   1.832   3.136   0.015  0.1172  0.6628  0.1575
 4574TIP3    H135281   1.764   3.158   0.078  1.7977  1.1316  1.8965
 4574TIP3    H235282   1.861   3.220  -0.020  0.2021  0.5166 -0.1235
 4575TIP3   OH235283   5.141   3.794   8.576 -0.1833 -0.0210 -0.2664
 4575TIP3    H135284   5.075   3.836   8.631 -0.8567  0.1931 -1.2191
 4575TIP3    H235285   5.138   3.842   8.494  1.1804  0.0001 -0.3238
 4576TIP3   OH235286   3.371   0.358   1.851  0.2244 -0.4379 -0.2402
 4576TIP3    H135287   3.321   0.439   1.863 -0.2663 -0.4792 -1.7676
 4576TIP3    H235288   3.462   0.386   1.852  0.2032 -0.2764  1.9531
 4577TIP3   OH235289   1.864   4.255   2.196 -0.3190 -0.7988 -0.0000
 4577TIP3    H135290   1.825   4.303   2.269  0.4782  0.3534 -0.2996
 4577TIP3    H235291   1.819   4.289   2.119  2.0300  1.5005 -0.4895
 4578TIP3   OH235292   6.677   0.590   7.182  0.2623 -0.0976  0.0871
 4578TIP3    H135293   6.641   0.647   7.115 -1.2503  1.3726  2.0225
 4578TIP3    H235294   6.640   0.504   7.164 -2.2127  0.8250  0.4649
 4579TIP3   OH235295   4.171   4.837   0.406  0.1605  0.0876 -0.6798
 4579TIP3    H135296   4.112   4.808   0.337  1.6712 -1.5662 -1.3738
 4579TIP3    H235297   4.226   4.760   0.424  0.9943  1.0314  1.1021
 4580TIP3   OH235298   5.714   5.840   7.098 -0.3914 -0.2751  0.3742
 4580TIP3    H135299   5.700   5.889   7.017  1.3342  0.7680  0.6496
 4580TIP3    H235300   5.759   5.760   7.071  1.4326  0.6911  0.3554
 4581TIP3   OH235301   5.523   1.416   7.583  0.1483  0.2190 -0.2420
 4581TIP3    H135302   5.517   1.372   7.667 -0.0440  3.1095  1.3927
 4581TIP3    H235303   5.604   1.383   7.544 -0.0202 -1.5563  0.8075
 4582TIP3   OH235304   4.610   4.472   1.083 -0.0017  0.4067 -0.4028
 4582TIP3    H135305   4.677   4.439   1.023  0.6536  1.0068 -0.0172
 4582TIP3    H235306   4.599   4.564   1.058 -1.2305  0.1239 -0.9508
 4583TIP3   OH235307   0.067   2.195   1.171 -0.3993 -0.0422  0.0129
 4583TIP3    H135308   0.095   2.104   1.177  0.0882  0.1685  1.2646
 4583TIP3    H235309  -0.029   2.191   1.177 -0.7145 -0.6902 -3.3758
 4584TIP3   OH235310   5.964   0.298   7.049 -0.0960  0.5378  0.1308
 4584TIP3    H135311   6.002   0.378   7.085  2.1821  0.1862 -1.3099
 4584TIP3    H235312   5.962   0.238   7.124  3.2926  0.2633  0.1914
 4585TIP3   OH235313   1.819   0.543   0.615 -0.0891  0.3452 -0.1350
 4585TIP3    H135314   1.728   0.513   0.613 -0.0204  0.1158  0.1582
 4585TIP3    H235315   1.839   0.552   0.708  0.0832  0.7224 -0.2040
 4586TIP3   OH235316   0.412   0.012   8.338 -0.0549  0.7327  0.1335
 4586TIP3    H135317   0.384  -0.076   8.362  2.0666 -0.3581 -1.0410
 4586TIP3    H235318   0.341   0.048   8.285 -0.0703 -1.1634 -1.2138
 4587TIP3   OH235319   6.578   4.949   7.949 -0.5069  0.5730  0.1759
 4587TIP3    H135320   6.551   5.023   8.003 -0.5509 -0.6208  1.9082
 4587TIP3    H235321   6.505   4.888   7.954  0.0762 -0.1620 -0.0675
 4588TIP3   OH235322   2.381   5.017   0.841  0.3131  0.5362 -0.0252
 4588TIP3    H135323   2.304   4.972   0.805  1.2878  0.3475 -1.9855
 4588TIP3    H235324   2.433   4.948   0.881  0.6369  0.2611 -0.8961
 4589TIP3   OH235325   4.614   4.339   6.674  0.0103  0.3091  0.1493
 4589TIP3    H135326   4.697   4.299   6.700 -0.1652 -0.3433 -0.2744
 4589TIP3    H235327   4.634   4.432   6.666  0.6223  0.2033  0.3636
 4590TIP3   OH235328   6.566   2.532   6.437  0.1799  0.0898  0.0118
 4590TIP3    H135329   6.487   2.480   6.453 -0.5538  0.1517 -2.8760
 4590TIP3    H235330   6.547   2.617   6.477 -1.0575 -0.0490 -0.2130
 4591TIP3   OH235331   1.831   3.369   0.700  0.2491  0.2417  0.8050
 4591TIP3    H135332   1.926   3.374   0.706  0.2737  0.0218  0.6085
 4591TIP3    H235333   1.807   3.439   0.640  0.3298 -0.0027  0.4817
 4592TIP3   OH235334   0.096   1.212   6.710 -0.1680  0.3122  0.2399
 4592TIP3    H135335   0.021   1.194   6.653  2.2705 -2.4388 -2.4913
 4592TIP3    H235336   0.147   1.277   6.662  1.3373 -1.1677 -0.2540
 4593TIP3   OH235337   5.851   2.370   8.402  0.3098  0.1651  0.3057
 4593TIP3    H135338   5.898   2.377   8.319  1.0498  1.2016  0.7811
 4593TIP3    H235339   5.896   2.300   8.449 -0.3245 -0.6568 -0.2834
 4594TIP3   OH235340   1.692   3.304   0.930  0.2004 -0.2793 -0.1183
 4594TIP3    H135341   1.744   3.356   0.991 -0.1695 -0.6620  0.5269
 4594TIP3    H235342   1.741   3.309   0.848  1.3850 -0.8084  0.5284
 4595TIP3   OH235343   2.630   4.785   6.204 -0.5484 -0.0467 -0.1077
 4595TIP3    H135344   2.712   4.738   6.190 -0.0024  1.8061 -4.4917
 4595TIP3    H235345   2.656   4.863   6.253 -0.2706 -0.7949  0.9894
 4596TIP3   OH235346   6.838   5.747   7.501  0.1214 -0.5086 -0.1460
 4596TIP3    H135347   6.911   5.717   7.447  0.8007 -0.8118  0.9303
 4596TIP3    H235348   6.768   5.766   7.438  1.5275  1.0342 -1.3322
 4597TIP3   OH235349   3.171   6.412   1.859 -0.6127  0.0451  1.0354
 4597TIP3    H135350   3.192   6.334   1.808  2.3079  1.5986 -0.4257
 4597TIP3    H235351   3.148   6.379   1.946 -0.7800 -2.4584  0.1199
 4598TIP3   OH235352   4.218   1.503   6.740  0.3101 -0.3847 -0.1334
 4598TIP3    H135353   4.292   1.555   6.709  0.0544  0.1126  0.0951
 4598TIP3    H235354   4.221   1.424   6.685 -0.6569  0.8501 -2.0627
 4599TIP3   OH235355   6.761   0.985   0.094  0.5147 -0.0989 -0.2748
 4599TIP3    H135356   6.793   0.896   0.103 -0.3885 -0.6100 -1.7760
 4599TIP3    H235357   6.837   1.040   0.112  0.6999 -1.0740  2.3263
 4600TIP3   OH235358   5.101   5.773   0.157 -0.5549  0.1264 -0.0396
 4600TIP3    H135359   5.130   5.706   0.095 -2.4894 -1.5567  0.7523
 4600TIP3    H235360   5.034   5.729   0.209  0.1513  1.8211  2.4788
 4601TIP3   OH235361   1.318   6.171   7.363  0.1066  0.2416  0.5050
 4601TIP3    H135362   1.321   6.245   7.303 -0.7966  0.6034  0.8840
 4601TIP3    H235363   1.321   6.210   7.450  0.0811 -0.1977  0.7085
 4602TIP3   OH235364   6.600   2.116   0.696  0.2991 -0.4208 -0.1442
 4602TIP3    H135365   6.518   2.142   0.737 -0.0779 -0.4974 -0.8329
 4602TIP3    H235366   6.662   2.185   0.721  0.2367 -0.7514  0.9942
 4603TIP3   OH235367   1.543   1.672   6.414 -0.2480  0.4252 -0.0019
 4603TIP3    H135368   1.460   1.653   6.456 -0.3763 -0.7740 -0.7315
 4603TIP3    H235369   1.538   1.764   6.391 -1.4299  0.3493 -0.1237
 4604TIP3   OH235370   2.879   4.843   8.097  0.3460 -0.3032 -0.2809
 4604TIP3    H135371   2.945   4.836   8.166  0.6170 -0.7820 -0.5830
 4604TIP3    H235372   2.913   4.788   8.026  0.5632  0.9392 -1.1771
 4605TIP3   OH235373   2.011   1.024   0.573 -1.1558 -0.4115 -0.1768
 4605TIP3    H135374   2.096   1.014   0.616 -1.6847 -0.9139  0.7886
 4605TIP3    H235375   1.958   1.074   0.635 -1.6254 -0.2762 -0.6759
 4606TIP3   OH235376   5.397   5.632   1.284 -0.1791  1.1192 -0.0162
 4606TIP3    H135377   5.417   5.675   1.367 -0.2524  1.6833 -0.2847
 4606TIP3    H235378   5.419   5.698   1.217  3.5538 -0.5469 -0.7019
 4607TIP3   OH235379   2.167   1.417   8.253 -0.2557  0.1392 -0.9693
 4607TIP3    H135380   2.128   1.330   8.261 -1.6496  0.8228  0.3215
 4607TIP3    H235381   2.205   1.434   8.339 -1.9250  1.6292 -0.4720
 4608TIP3   OH235382   5.371   5.106   0.445  0.0258 -0.0580 -0.2403
 4608TIP3    H135383   5.320   5.071   0.518  0.2255 -2.7526 -1.2494
 4608TIP3    H235384   5.455   5.061   0.452  0.8489  1.3276 -0.8850
 4609TIP3   OH235385   5.399   5.067   1.968 -0.5439  0.1009 -0.3281
 4609TIP3    H135386   5.438   5.123   1.902 -1.1455 -0.2742 -1.0248
 4609TIP3    H235387   5.466   5.001   1.988 -0.2483  0.4030 -0.3261
 4610TIP3   OH235388   6.808   6.060   6.424  0.0983 -0.2859 -0.6540
 4610TIP3    H135389   6.883   6.087   6.476  0.6172 -0.4205 -1.3203
 4610TIP3    H235390   6.732   6.087   6.475  0.5996  0.6754 -0.3926
 4611TIP3   OH235391   4.939   1.313   0.902 -0.1628  0.4075 -0.0411
 4611TIP3    H135392   5.021   1.363   0.903 -1.1830  2.1699 -0.2697
 4611TIP3    H235393   4.872   1.377   0.878 -1.5561 -1.0943 -0.3412
 4612TIP3   OH235394   2.750   5.239   7.851 -0.1944  0.4697 -0.3499
 4612TIP3    H135395   2.765   5.327   7.886  1.4212 -0.7316  2.3210
 4612TIP3    H235396   2.808   5.233   7.775 -0.7054  1.8441 -0.8800
 4613TIP3   OH235397   6.384   6.481   0.998 -0.1681  0.2624 -0.0506
 4613TIP3    H135398   6.415   6.530   1.074  1.2877  0.3403 -0.6610
 4613TIP3    H235399   6.416   6.532   0.923  0.9249 -1.3295 -0.7037
 4614TIP3   OH235400   1.973   3.273   0.381 -0.2785  1.1812  0.7369
 4614TIP3    H135401   2.024   3.208   0.430  0.6912 -1.1474 -2.9287
 4614TIP3    H235402   2.038   3.336   0.352  0.3338 -0.5527 -2.0376
 4615TIP3   OH235403   1.234   3.001   0.668  0.0964 -0.2932 -0.7215
 4615TIP3    H135404   1.243   3.095   0.688 -2.7924  0.6908 -3.1483
 4615TIP3    H235405   1.202   2.963   0.749  1.8265  0.6467  0.4814
 4616TIP3   OH235406   3.948   6.103   8.577  0.9203 -0.3436  0.0705
 4616TIP3    H135407   3.970   6.176   8.519  0.0566 -0.7166 -0.7461
 4616TIP3    H235408   3.873   6.061   8.536  1.0594 -1.3689  0.8195
 4617TIP3   OH235409   1.367   0.221   2.345 -0.0325 -0.9559 -0.0337
 4617TIP3    H135410   1.368   0.317   2.347 -1.9326 -0.7469 -2.9197
 4617TIP3    H235411   1.409   0.195   2.427  0.7565  2.3143  0.7553
 4618TIP3   OH235412   5.462   2.956   0.985 -0.0835 -0.1204  0.2955
 4618TIP3    H135413   5.440   2.908   0.905 -0.4226 -0.8256  0.7957
 4618TIP3    H235414   5.444   2.894   1.056 -0.5747  0.7655  0.9716
 4619TIP3   OH235415   3.181   5.427   6.627 -0.2722  0.0554 -0.0477
 4619TIP3    H135416   3.129   5.354   6.594 -0.7825  0.8818 -1.1495
 4619TIP3    H235417   3.272   5.398   6.618 -0.5011 -0.9603  0.8141
 4620TIP3   OH235418   5.851   5.012   6.551  0.0971  0.0685 -0.5284
 4620TIP3    H135419   5.883   4.945   6.610 -0.6901 -0.1115 -0.2930
 4620TIP3    H235420   5.811   5.078   6.608  0.1845  0.3622 -0.8020
 4621TIP3   OH235421   0.717   5.501   6.950 -0.1479  0.1102 -0.7099
 4621TIP3    H135422   0.623   5.482   6.948  0.0688 -0.9925 -1.1859
 4621TIP3    H235423   0.749   5.472   6.864  0.7809 -0.4090 -0.2046
 4622TIP3   OH235424   1.239   5.658   0.171  0.5461  0.1415 -0.1874
 4622TIP3    H135425   1.255   5.676   0.079 -1.3780  1.4204 -0.3202
 4622TIP3    H235426   1.167   5.716   0.195  0.0567 -1.1750  1.7684
 4623TIP3   OH235427   0.000   4.637   0.353  0.4772 -0.6194  0.3433
 4623TIP3    H135428   0.096   4.634   0.360  0.4316 -1.1158  0.8201
 4623TIP3    H235429  -0.022   4.566   0.293  0.5522  0.9314 -1.6417
 4624TIP3   OH235430   4.410   4.917   8.310  0.2317  0.1994 -0.3949
 4624TIP3    H135431   4.446   4.953   8.229 -0.2059 -0.5401 -0.9279
 4624TIP3    H235432   4.318   4.902   8.291  0.1378 -0.0355  0.2205
 4625TIP3   OH235433   2.053   3.715   8.211 -0.2476 -0.3116 -0.3687
 4625TIP3    H135434   2.004   3.771   8.152 -1.3622  0.4377  1.1842
 4625TIP3    H235435   2.088   3.645   8.156 -1.9249 -0.1007 -1.7704
 4626TIP3   OH235436   1.269   4.074   7.102  0.0075  0.4106  0.0122
 4626TIP3    H135437   1.237   4.035   7.021  0.1259  0.3375  0.0004
 4626TIP3    H235438   1.227   4.160   7.106  0.9494  0.9367 -0.7596
 4627TIP3   OH235439   3.087   0.854   1.060  0.1797  0.3360  0.6550
 4627TIP3    H135440   3.053   0.873   1.148 -0.1724  0.2586  0.5396
 4627TIP3    H235441   3.130   0.769   1.068 -0.5719 -0.0596  0.5684
 4628TIP3   OH235442   5.236   5.178   2.232  0.5361 -0.8120  0.0287
 4628TIP3    H135443   5.291   5.155   2.157  0.0232 -0.9912 -0.2987
 4628TIP3    H235444   5.296   5.219   2.294  0.6357  1.2840 -1.3371
 4629TIP3   OH235445   1.877   0.145   8.446  0.0789  0.6312  0.2409
 4629TIP3    H135446   1.827   0.114   8.371  0.2953  1.4841 -0.2608
 4629TIP3    H235447   1.811   0.177   8.507 -0.0907  0.0390  0.3813
 4630TIP3   OH235448   5.112   6.645   0.616 -0.4169 -0.2263 -0.0802
 4630TIP3    H135449   5.020   6.649   0.590 -0.5213  0.5303  0.3710
 4630TIP3    H235450   5.156   6.603   0.543 -1.0555 -0.1909 -0.4919
 4631TIP3   OH235451   2.039   3.447   8.531  0.0253  0.1868  0.1975
 4631TIP3    H135452   2.077   3.426   8.446 -1.0866 -1.6435  0.0911
 4631TIP3    H235453   1.953   3.483   8.510 -1.2965 -2.5198  0.4840
 4632TIP3   OH235454   4.152   1.628   0.398  0.2089 -0.6717 -0.4095
 4632TIP3    H135455   4.232   1.627   0.345  1.1677 -0.3056  0.9653
 4632TIP3    H235456   4.166   1.560   0.463 -0.9694 -1.1515 -0.6338
 4633TIP3   OH235457   4.438   2.639   8.049  0.0910  0.1942  0.6040
 4633TIP3    H135458   4.473   2.637   7.960 -1.5821 -2.0453 -0.0753
 4633TIP3    H235459   4.344   2.647   8.039 -0.0195  2.1701  2.3041
 4634TIP3   OH235460   2.395   2.567   0.564 -0.1723 -0.4872 -0.6429
 4634TIP3    H135461   2.308   2.530   0.574 -0.4437 -0.2472 -1.9281
 4634TIP3    H235462   2.403   2.585   0.470  1.0629 -0.0265 -0.4725
 4635TIP3   OH235463   2.769   1.754   1.589 -0.1740  0.0169  0.1010
 4635TIP3    H135464   2.732   1.684   1.642  0.5984 -0.3560  0.1678
 4635TIP3    H235465   2.849   1.780   1.636 -0.1182  0.5066 -0.2524
 4636TIP3   OH235466   3.922   3.367   1.070 -0.2381  0.1357  0.0689
 4636TIP3    H135467   3.919   3.314   1.150  0.3186 -1.6251 -1.0159
 4636TIP3    H235468   4.011   3.401   1.066  0.1672 -0.9502 -0.4944
 4637TIP3   OH235469   0.418   0.556   0.124 -0.0486 -1.0205  0.4507
 4637TIP3    H135470   0.448   0.540   0.214 -1.1376  0.4889  1.1161
 4637TIP3    H235471   0.323   0.551   0.129 -0.2374  1.0814 -0.1800
 4638TIP3   OH235472   6.490   2.709   1.210 -0.4756 -0.3658  0.0570
 4638TIP3    H135473   6.438   2.733   1.287 -1.8124  1.2089 -1.2722
 4638TIP3    H235474   6.537   2.789   1.187  0.7488 -1.1285 -0.1461
 4639TIP3   OH235475   3.875   2.845   7.177 -0.5105 -0.4336 -0.1494
 4639TIP3    H135476   3.874   2.937   7.150 -1.6529 -0.8798 -1.8152
 4639TIP3    H235477   3.814   2.841   7.250 -0.9419  0.0389 -0.4787
 4640TIP3   OH235478   2.316   6.349   1.408  0.3921  0.4696 -0.3718
 4640TIP3    H135479   2.335   6.319   1.497 -1.2141  1.3471  0.3052
 4640TIP3    H235480   2.245   6.293   1.378 -1.8736  2.6829  0.4898
 4641TIP3   OH235481   4.031   1.504   1.953 -0.0248 -0.4382  0.0511
 4641TIP3    H135482   4.076   1.447   2.016 -1.1119 -1.3555  0.0233
 4641TIP3    H235483   4.085   1.499   1.874  2.0934  1.7637  1.2454
 4642TIP3   OH235484   0.871   6.107   6.981 -0.1414  0.1629 -0.5489
 4642TIP3    H135485   0.948   6.090   7.036  0.3308 -0.9270 -1.5126
 4642TIP3    H235486   0.821   6.025   6.985  0.1103 -0.0840 -2.0573
 4643TIP3   OH235487   1.066   6.287   1.710 -0.1371  0.0905  0.5828
 4643TIP3    H135488   1.076   6.370   1.757 -1.2778  0.0432  0.9376
 4643TIP3    H235489   1.034   6.312   1.623  3.4293  0.3116 -0.8684
 4644TIP3   OH235490   4.438   6.554   8.371  0.2753  0.1981 -0.1373
 4644TIP3    H135491   4.481   6.550   8.286  0.8744  2.6350 -0.0228
 4644TIP3    H235492   4.510   6.542   8.434  0.5808  2.4946  0.0282
 4645TIP3   OH235493   2.066   0.341   0.487  0.3626 -0.3595 -0.0915
 4645TIP3    H135494   2.063   0.348   0.582 -0.3388 -0.2403 -0.1166
 4645TIP3    H235495   1.984   0.298   0.463 -1.3265  2.9127 -0.8906
 4646TIP3   OH235496   5.104   0.185   0.537  0.4567  0.6562 -0.3305
 4646TIP3    H135497   5.071   0.233   0.612  1.4256 -0.6622  1.0021
 4646TIP3    H235498   5.059   0.101   0.540  1.3929  0.1371 -0.5079
 4647TIP3   OH235499   5.537   0.585   7.254  0.1515 -0.1256  0.1314
 4647TIP3    H135500   5.492   0.517   7.205 -0.5861  0.9055 -0.6661
 4647TIP3    H235501   5.508   0.572   7.345 -1.0807 -0.0473 -0.2269
 4648TIP3   OH235502   6.296   4.645   0.326 -0.4284  0.3522 -0.1171
 4648TIP3    H135503   6.386   4.659   0.357 -0.0157  1.0367 -1.5448
 4648TIP3    H235504   6.267   4.566   0.372 -0.1672  1.7089  2.5772
 4649TIP3   OH235505   4.191   5.679   2.024 -0.1961  0.1338  0.6790
 4649TIP3    H135506   4.240   5.745   1.975  0.4077 -0.5990  0.2584
 4649TIP3    H235507   4.182   5.606   1.962  0.3671 -0.7132  1.5743
 4650TIP3   OH235508   4.210   6.588   7.761 -0.2035  0.3119  0.2741
 4650TIP3    H135509   4.123   6.553   7.739  0.3715 -1.1517  0.2331
 4650TIP3    H235510   4.193   6.651   7.830 -1.6836  2.6209 -1.9908
 4651TIP3   OH235511   3.113   0.012   1.317  0.0299 -0.1896 -0.1127
 4651TIP3    H135512   3.077   0.070   1.249  1.9316  0.6796 -0.4317
 4651TIP3    H235513   3.057   0.027   1.393 -0.7550  0.5096 -0.8012
 4652TIP3   OH235514   2.867   0.451   8.384  0.1447 -0.1194  0.1917
 4652TIP3    H135515   2.894   0.370   8.427  0.6042  0.1700  0.4662
 4652TIP3    H235516   2.788   0.477   8.431 -0.3311 -0.7013 -0.2740
 4653TIP3   OH235517   1.924   2.371   7.708 -0.1529  0.5621  0.8071
 4653TIP3    H135518   1.995   2.331   7.658  1.4009  1.6218  2.0478
 4653TIP3    H235519   1.946   2.352   7.799 -1.5610  0.7959  1.2135
 4654TIP3   OH235520   2.287   4.492   7.906  0.0206  0.0121  0.2834
 4654TIP3    H135521   2.272   4.566   7.964  1.9156  1.7380 -1.2841
 4654TIP3    H235522   2.382   4.484   7.900 -0.0869 -2.9352  0.7900
 4655TIP3   OH235523   0.796   4.035   7.501 -0.6767  0.4601 -0.2929
 4655TIP3    H135524   0.840   3.956   7.530  0.6424  0.5272 -1.9533
 4655TIP3    H235525   0.704   4.011   7.495 -0.3199 -0.9072 -0.5944
 4656TIP3   OH235526   0.839   5.471   6.664  0.4265  0.1041  0.1181
 4656TIP3    H135527   0.916   5.519   6.635  0.6219 -0.5165 -0.4386
 4656TIP3    H235528   0.870   5.381   6.676 -0.0048  0.0405  0.7940
 4657TIP3   OH235529   3.571   3.232   0.860  0.2289  0.4322 -0.0700
 4657TIP3    H135530   3.586   3.325   0.875  0.0183  0.4876 -0.2022
 4657TIP3    H235531   3.623   3.188   0.927 -0.8857  0.6888  1.0134
 4658TIP3   OH235532   3.224   5.275   6.203 -0.0232  0.5420 -0.0380
 4658TIP3    H135533   3.294   5.212   6.221  1.6709  2.1792 -0.5521
 4658TIP3    H235534   3.233   5.296   6.110 -0.9182  1.1135 -0.0116
 4659TIP3   OH235535   6.101   5.814   0.164  0.2479 -0.5690  0.0641
 4659TIP3    H135536   6.189   5.777   0.157 -0.3096 -1.6634 -2.4294
 4659TIP3    H235537   6.094   5.873   0.089 -0.4139  1.3077  1.5332
 4660TIP3   OH235538   6.434   5.174   0.771 -0.5633 -0.0492  0.7010
 4660TIP3    H135539   6.341   5.192   0.759 -0.1317  2.0920  0.2793
 4660TIP3    H235540   6.452   5.105   0.707 -1.8587 -0.5985  0.8817
 4661TIP3   OH235541   5.530   6.169   1.012  0.4137 -0.0832 -0.9023
 4661TIP3    H135542   5.563   6.088   0.973  1.6491  0.3327 -0.7745
 4661TIP3    H235543   5.485   6.214   0.940  0.8840 -0.2726 -1.3153
 4662TIP3   OH235544   1.953   2.913   1.449  0.1002 -0.7690 -0.1586
 4662TIP3    H135545   2.035   2.956   1.471  0.8840 -1.5026 -1.5046
 4662TIP3    H235546   1.927   2.953   1.366  0.3602 -2.1936 -0.9570
 4663TIP3   OH235547   3.371   4.325   7.962 -0.0539  0.2640  0.2839
 4663TIP3    H135548   3.348   4.252   8.021  1.2872  1.0259  1.8424
 4663TIP3    H235549   3.373   4.285   7.875 -0.8799 -1.2024  0.8895
 4664TIP3   OH235550   4.880   4.052   0.904 -0.2014  0.4148 -0.4037
 4664TIP3    H135551   4.966   4.025   0.869  0.2449  0.0281  0.9333
 4664TIP3    H235552   4.826   3.973   0.899 -0.5698  0.7220 -1.4724
 4665TIP3   OH235553   3.585   0.286   1.082 -0.2889 -0.0271  0.3211
 4665TIP3    H135554   3.496   0.264   1.109  0.3445 -0.7871  1.9532
 4665TIP3    H235555   3.639   0.264   1.158  1.1979  1.2376 -0.3118
 4666TIP3   OH235556   2.200   4.799   8.011 -0.2074  0.2517  0.0674
 4666TIP3    H135557   2.223   4.887   8.041  0.5099  0.5329 -1.2304
 4666TIP3    H235558   2.221   4.799   7.918 -0.9393 -1.0562 -0.1210
 4667TIP3   OH235559   1.401   6.464   7.978  0.0236 -0.2958  0.3479
 4667TIP3    H135560   1.430   6.554   7.965 -0.2218 -0.2350  0.2335
 4667TIP3    H235561   1.474   6.423   8.025 -0.3975  0.2995  1.5747
 4668TIP3   OH235562   6.805   1.943   0.573  0.5073  0.5852  0.2198
 4668TIP3    H135563   6.769   1.856   0.587 -0.6348  0.7838 -1.2884
 4668TIP3    H235564   6.731   2.002   0.586  0.9239  1.2244 -0.2361
 4669TIP3   OH235565   2.765   6.783   0.558 -0.4895 -0.0315 -0.0324
 4669TIP3    H135566   2.727   6.696   0.572  2.1843 -1.5944 -1.6902
 4669TIP3    H235567   2.834   6.790   0.623 -2.1230  1.9261  1.6185
 4670TIP3   OH235568   0.771   5.810   2.153 -1.0026  0.1608  0.0831
 4670TIP3    H135569   0.816   5.893   2.140 -1.8085  0.3640 -1.6260
 4670TIP3    H235570   0.702   5.829   2.217 -1.8627  1.1030 -1.0791
 4671TIP3   OH235571   0.289   5.117   6.432 -0.4351 -0.0498  0.2661
 4671TIP3    H135572   0.264   5.024   6.428  1.1739 -0.6459  2.2868
 4671TIP3    H235573   0.334   5.134   6.349 -0.2269 -1.2467  0.1166
 4672TIP3   OH235574   0.943   3.560   8.665 -0.1238  0.7579 -0.5255
 4672TIP3    H135575   0.957   3.490   8.601  1.2134  0.5405 -0.0281
 4672TIP3    H235576   0.953   3.517   8.750 -0.0408  1.3948 -0.2064
 4673TIP3   OH235577   6.204   6.680   6.912  0.3065  0.6313  0.4891
 4673TIP3    H135578   6.160   6.756   6.950 -1.9003 -0.5803  0.5213
 4673TIP3    H235579   6.149   6.606   6.935 -0.6827 -0.3707 -3.9851
 4674TIP3   OH235580   3.314   0.863   7.592  0.1784 -0.0483  0.2225
 4674TIP3    H135581   3.359   0.830   7.514  0.8988  1.5237 -0.0767
 4674TIP3    H235582   3.381   0.863   7.660 -0.6546 -2.1743  1.1137
 4675TIP3   OH235583   0.796   4.199   1.321 -0.7275  0.0776 -0.4512
 4675TIP3    H135584   0.730   4.268   1.329 -0.6226  0.4146 -2.1564
 4675TIP3    H235585   0.879   4.242   1.343 -0.9453 -0.1740  0.9945
 4676TIP3   OH235586   5.149   1.424   8.170 -0.5611  0.1349  0.5280
 4676TIP3    H135587   5.066   1.421   8.122 -0.7621 -2.1240  0.9214
 4676TIP3    H235588   5.182   1.513   8.154 -0.3993 -0.5178 -4.1177
 4677TIP3   OH235589   0.394   0.383   1.925 -0.7321 -0.2000  0.1812
 4677TIP3    H135590   0.401   0.397   2.020 -1.6333  0.2056  0.2069
 4677TIP3    H235591   0.300   0.391   1.908 -0.3511  3.1787 -1.2388
 4678TIP3   OH235592   0.113   3.302   1.698 -0.7228 -0.1710 -0.2226
 4678TIP3    H135593   0.032   3.346   1.673  0.1519  1.9510  0.3973
 4678TIP3    H235594   0.145   3.352   1.774  1.5927 -0.3384 -0.9980
 4679TIP3   OH235595   1.701   1.479   7.823  0.3363  0.0333 -0.5719
 4679TIP3    H135596   1.634   1.443   7.882  0.4854  0.8246  0.0958
 4679TIP3    H235597   1.775   1.499   7.880  1.3205 -1.2324 -1.3753
 4680TIP3   OH235598   4.284   0.597   6.683 -0.5387 -0.4097  0.2211
 4680TIP3    H135599   4.252   0.559   6.601  1.6846 -0.0309 -0.9029
 4680TIP3    H235600   4.335   0.527   6.724 -0.2511 -0.0678  0.4493
 4681TIP3   OH235601   0.059   4.168   0.717  0.2120 -0.0592  0.3565
 4681TIP3    H135602   0.014   4.084   0.727  1.5907 -1.3581 -2.9241
 4681TIP3    H235603   0.149   4.151   0.746  0.8678 -0.2043 -1.6442
 4682TIP3   OH235604   5.760   1.625   1.834 -0.0842  0.4700  0.2323
 4682TIP3    H135605   5.698   1.635   1.761  2.0166  0.1395 -1.7231
 4682TIP3    H235606   5.709   1.583   1.903 -2.1274  0.5695 -1.1198
 4683TIP3   OH235607   1.836   5.279   8.082  0.2154 -0.3809 -0.4805
 4683TIP3    H135608   1.752   5.308   8.117  0.3814 -0.5062  0.0228
 4683TIP3    H235609   1.895   5.278   8.157  0.5238 -0.8438 -0.7235
 4684TIP3   OH235610   3.536   1.813   8.043  0.2752  0.1694 -0.2665
 4684TIP3    H135611   3.501   1.891   8.086  1.1248  0.2948  0.2442
 4684TIP3    H235612   3.500   1.740   8.093  0.6280  0.2928  0.1826
 4685TIP3   OH235613   0.301   2.077   8.062  0.2533 -0.2465  0.3910
 4685TIP3    H135614   0.217   2.032   8.052 -0.4953  1.4653 -2.3706
 4685TIP3    H235615   0.283   2.166   8.032  2.7294  0.6099  1.2191
 4686TIP3   OH235616   3.041   2.970   1.729  0.1677 -0.2068  0.6116
 4686TIP3    H135617   2.990   2.999   1.805 -1.2244  0.4603 -0.5214
 4686TIP3    H235618   2.985   2.906   1.685 -0.2433  1.3419 -1.2734
 4687TIP3   OH235619   6.332   1.336   0.648  0.3482 -0.5780  0.3677
 4687TIP3    H135620   6.306   1.265   0.708 -0.3867 -1.7116 -1.2327
 4687TIP3    H235621   6.289   1.314   0.565  0.6771  1.3957 -0.3619
 4688TIP3   OH235622   3.294   0.138   8.261 -0.0939 -0.8506  0.0763
 4688TIP3    H135623   3.319   0.181   8.343 -0.2024 -0.2992 -0.1814
 4688TIP3    H235624   3.327   0.195   8.192 -0.6186 -0.9513 -0.2655
 4689TIP3   OH235625   5.516   3.805   8.027 -0.2066 -0.8955  0.1327
 4689TIP3    H135626   5.568   3.788   7.948 -0.1164 -0.4967  0.1082
 4689TIP3    H235627   5.426   3.781   8.002 -0.2535 -0.3624 -0.2314
 4690TIP3   OH235628   5.258   3.368   8.063  0.1481  0.1984 -0.1919
 4690TIP3    H135629   5.321   3.338   7.997  0.4587  2.2619 -0.8932
 4690TIP3    H235630   5.200   3.292   8.076  2.2457 -1.4867 -0.1218
 4691TIP3   OH235631   4.952   0.503   1.702 -0.1868  0.2028  0.2883
 4691TIP3    H135632   5.038   0.508   1.745 -0.8244 -1.4303  1.8891
 4691TIP3    H235633   4.892   0.475   1.772 -1.3477 -2.2979 -1.5385
 4692TIP3   OH235634   6.392   1.513   0.203  0.5539  0.3002  0.2355
 4692TIP3    H135635   6.425   1.423   0.201 -0.8404 -0.2129 -0.3552
 4692TIP3    H235636   6.304   1.508   0.166 -0.0286  1.7087  1.3306
 4693TIP3   OH235637   2.581   1.383   1.774  0.1271  0.0739 -0.1391
 4693TIP3    H135638   2.486   1.369   1.777  0.4814 -3.9183 -1.5060
 4693TIP3    H235639   2.605   1.368   1.683  2.1471  0.5328  0.2741
 4694TIP3   OH235640   0.379   1.191   7.396  0.2311  0.0933  0.4224
 4694TIP3    H135641   0.320   1.155   7.462  0.5429 -1.3768 -0.0748
 4694TIP3    H235642   0.321   1.224   7.327 -0.0541 -0.1529  0.5418
 4695TIP3   OH235643   3.835   2.222   0.494 -0.1053 -0.4483 -0.2509
 4695TIP3    H135644   3.865   2.164   0.424 -0.3160 -0.6651 -0.1642
 4695TIP3    H235645   3.838   2.169   0.573  0.5054 -0.0855 -0.0259
 4696TIP3   OH235646   3.542   3.684   8.429 -0.0024 -0.0291 -0.3020
 4696TIP3    H135647   3.475   3.677   8.497 -0.9131  1.0075 -1.0602
 4696TIP3    H235648   3.495   3.715   8.352  1.5726  2.1092 -0.4800
 4697TIP3   OH235649   3.250   1.600   0.579 -0.1226  0.4724  0.1077
 4697TIP3    H135650   3.196   1.615   0.501 -0.3420  1.1116  0.3751
 4697TIP3    H235651   3.315   1.670   0.577  0.9283 -0.4824 -0.3878
 4698TIP3   OH235652   3.708   4.942   8.472  0.1732 -0.1311 -0.0259
 4698TIP3    H135653   3.723   4.863   8.420 -0.7460 -0.2512 -0.1228
 4698TIP3    H235654   3.705   5.013   8.407 -0.2741 -0.1861 -0.0632
 4699TIP3   OH235655   0.516   5.270   8.306 -0.6920 -0.0425  0.8444
 4699TIP3    H135656   0.458   5.206   8.349 -0.5445  0.0664  1.2096
 4699TIP3    H235657   0.508   5.250   8.213 -2.4864  0.9151  0.7455
 4700TIP3   OH235658   4.014   1.651   0.655 -0.4419 -0.5502  0.3807
 4700TIP3    H135659   4.011   1.710   0.580 -0.7302 -0.6190  0.3371
 4700TIP3    H235660   4.106   1.650   0.681 -0.0281 -1.7248 -0.9361
 4701TIP3   OH235661   3.108   6.405   7.724 -0.0182 -0.3034  0.2232
 4701TIP3    H135662   3.193   6.432   7.692 -0.9206  2.4040 -0.1641
 4701TIP3    H235663   3.113   6.418   7.819 -0.2427  0.7475  0.1055
 4702TIP3   OH235664   5.260   0.323   8.266 -0.7773 -0.4206  0.3873
 4702TIP3    H135665   5.352   0.306   8.247  0.3752  3.5993  1.3117
 4702TIP3    H235666   5.221   0.343   8.180 -0.0333  0.6357  0.2826
 4703TIP3   OH235667   3.293   5.170   7.478 -0.6818  0.3256 -0.3235
 4703TIP3    H135668   3.234   5.170   7.402 -0.7363 -2.3670 -0.4014
 4703TIP3    H235669   3.245   5.218   7.546 -1.6461  0.7676 -1.2858
 4704TIP3   OH235670   0.450   0.483   7.538 -0.0228  0.8798 -0.4715
 4704TIP3    H135671   0.481   0.408   7.486  0.7295  0.1732  0.9457
 4704TIP3    H235672   0.488   0.559   7.494  1.2327  0.2494 -0.5507
 4705TIP3   OH235673   4.614   5.975   1.052  0.0353 -0.2721 -0.0589
 4705TIP3    H135674   4.547   5.926   1.005  1.2855 -1.8725 -0.2831
 4705TIP3    H235675   4.622   6.058   1.003 -1.8724  0.0504  0.1094
 4706TIP3   OH235676   4.054   6.666   7.224  0.5785 -0.8140  0.1963
 4706TIP3    H135677   3.963   6.663   7.254  1.4165 -1.9574  2.9325
 4706TIP3    H235678   4.078   6.759   7.231 -0.2834 -0.5319 -0.3581
 4707TIP3   OH235679   0.907   4.487   2.143  0.2703  0.0144 -0.2684
 4707TIP3    H135680   0.964   4.490   2.066  2.3060 -0.7843  1.0989
 4707TIP3    H235681   0.917   4.398   2.176 -1.8297 -0.1426  0.0489
 4708TIP3   OH235682   2.133   0.612   7.333 -0.0843 -0.0585 -0.5749
 4708TIP3    H135683   2.226   0.628   7.314  0.3438 -0.4466  1.0135
 4708TIP3    H235684   2.103   0.556   7.261  1.3185 -1.1230 -0.3784
 4709TIP3   OH235685   0.317   6.716   7.252 -0.0618  0.1829  0.1216
 4709TIP3    H135686   0.298   6.627   7.222 -0.8969  1.1782 -2.5999
 4709TIP3    H235687   0.261   6.772   7.199  0.7532  2.4080  1.4508
 4710TIP3   OH235688   4.526   6.408   1.484 -0.2291  0.2854  0.1420
 4710TIP3    H135689   4.440   6.367   1.481 -0.5828  1.0601 -1.1502
 4710TIP3    H235690   4.544   6.420   1.577 -1.6338  0.3385  0.4221
 4711TIP3   OH235691   1.442   3.052   0.246 -0.3171  0.0142  0.4212
 4711TIP3    H135692   1.359   3.090   0.275 -0.6412 -0.6099  0.3386
 4711TIP3    H235693   1.420   3.007   0.165  0.1891  0.1702  0.1936
 4712TIP3   OH235694   5.336   3.651   0.553  0.4680 -0.3392  0.2615
 4712TIP3    H135695   5.287   3.661   0.634 -1.5356 -2.7505 -0.5339
 4712TIP3    H235696   5.284   3.699   0.487  1.1919  0.1904  0.0542
 4713TIP3   OH235697   6.825   5.394   0.765  0.3280 -0.2598  0.6120
 4713TIP3    H135698   6.879   5.461   0.724  0.0732 -0.7665 -0.5824
 4713TIP3    H235699   6.809   5.330   0.696 -1.1975 -0.4860  1.1362
 4714TIP3   OH235700   1.413   4.167   6.407 -0.3684  0.2289 -0.1637
 4714TIP3    H135701   1.395   4.225   6.333 -0.4234 -0.9172 -1.0768
 4714TIP3    H235702   1.367   4.208   6.480 -0.0409  1.5655 -0.6654
 4715TIP3   OH235703   5.493   0.575   8.262 -0.2176  0.0070 -0.5494
 4715TIP3    H135704   5.448   0.583   8.346 -0.2930 -0.9104 -0.4939
 4715TIP3    H235705   5.517   0.482   8.256  0.6756  0.2589 -1.0827
 4716TIP3   OH235706   2.797   5.725   7.668 -1.1898  0.0481  0.1574
 4716TIP3    H135707   2.723   5.681   7.709 -0.6948 -0.2242  0.7673
 4716TIP3    H235708   2.761   5.759   7.585 -1.9147 -0.3289  0.3044
 4717TIP3   OH235709   1.727   5.396   1.178 -0.1975 -0.6592 -0.4453
 4717TIP3    H135710   1.638   5.365   1.161 -0.5984  1.2650 -2.1398
 4717TIP3    H235711   1.718   5.490   1.194  1.4153 -0.6425  0.6194
 4718TIP3   OH235712   1.542   6.793   6.859 -0.2981  0.2678 -0.0846
 4718TIP3    H135713   1.609   6.850   6.821 -1.6304  1.3215 -0.9518
 4718TIP3    H235714   1.591   6.726   6.907  1.3726  0.7059 -1.1142
 4719TIP3   OH235715   4.931   4.215   0.655 -0.3066  0.2361 -0.1105
 4719TIP3    H135716   4.872   4.290   0.647 -1.9800 -1.1860 -1.9806
 4719TIP3    H235717   4.878   4.140   0.629  2.0342 -1.2609 -0.8514
 4720TIP3   OH235718   2.765   2.960   7.462 -0.4526 -0.2131  0.0522
 4720TIP3    H135719   2.745   2.900   7.535  0.7439 -0.2612  0.3581
 4720TIP3    H235720   2.730   3.044   7.491 -0.4549 -0.3501  0.4633
 4721TIP3   OH235721   2.618   5.087   0.985 -0.4311  0.0550 -0.1453
 4721TIP3    H135722   2.551   5.038   1.033 -0.9850 -1.2055 -2.1004
 4721TIP3    H235723   2.672   5.127   1.054 -2.9073  0.8077  1.5106
 4722TIP3   OH235724   3.149   0.514   6.439  0.5454 -0.2063 -0.0297
 4722TIP3    H135725   3.162   0.473   6.525 -0.3973 -2.4041 -0.8664
 4722TIP3    H235726   3.054   0.515   6.427  0.6511  0.4262 -0.8931
 4723TIP3   OH235727   3.038   2.759   1.055  0.3479  0.5170  0.3424
 4723TIP3    H135728   2.989   2.802   1.126 -3.4904 -1.8356 -0.5991
 4723TIP3    H235729   3.039   2.823   0.984 -3.2451  0.1442 -0.2429
 4724TIP3   OH235730   2.707   6.828   7.693 -0.3112  0.2669 -0.0185
 4724TIP3    H135731   2.714   6.739   7.728 -3.7172 -0.8412 -1.7642
 4724TIP3    H235732   2.696   6.816   7.599  0.5376  2.6756 -0.4935
 4725TIP3   OH235733   0.256   0.181   7.784 -0.5655  0.3456  0.0765
 4725TIP3    H135734   0.218   0.095   7.770 -2.1310  0.9633  0.2563
 4725TIP3    H235735   0.323   0.168   7.850 -1.0591 -0.6780  0.3877
 4726TIP3   OH235736   4.448   2.345   1.443 -0.2290  0.1374  0.4477
 4726TIP3    H135737   4.410   2.346   1.531 -0.7125 -0.8632  0.2688
 4726TIP3    H235738   4.507   2.269   1.444 -1.4903 -0.9035 -0.5761
 4727TIP3   OH235739   5.517   1.504   6.560 -0.1966  0.0123 -0.4188
 4727TIP3    H135740   5.583   1.439   6.584 -0.3477 -0.5384 -1.4478
 4727TIP3    H235741   5.466   1.463   6.491 -2.2983  0.0206  1.0166
 4728TIP3   OH235742   3.319   2.695   0.815 -0.4400  0.2057 -0.4986
 4728TIP3    H135743   3.379   2.628   0.849  0.5467 -0.4161 -3.1698
 4728TIP3    H235744   3.246   2.696   0.877  1.3036 -0.5755  1.6959
 4729TIP3   OH235745   2.227   5.384   0.763 -0.1888 -0.3747  0.5847
 4729TIP3    H135746   2.291   5.332   0.813  0.4103  0.5491  0.7965
 4729TIP3    H235747   2.236   5.351   0.674  0.6463 -0.2163  0.5964
 4730TIP3   OH235748   4.691   1.175   1.321  0.2002  0.4140 -0.1814
 4730TIP3    H135749   4.643   1.252   1.350  1.7509  1.4001 -0.0733
 4730TIP3    H235750   4.757   1.209   1.261 -1.0627 -1.2251 -2.6921
 4731TIP3   OH235751   4.900   2.942   0.391 -0.2541 -0.8885 -0.1540
 4731TIP3    H135752   4.981   2.913   0.434 -0.7308 -0.0226  1.4325
 4731TIP3    H235753   4.928   2.977   0.307  1.1588  0.2644  0.7615
 4732TIP3   OH235754   1.147   6.628   2.643 -0.4795  0.3111 -0.2418
 4732TIP3    H135755   1.218   6.600   2.701  0.0278 -1.9341 -1.8216
 4732TIP3    H235756   1.157   6.723   2.636  0.6819  0.3722  1.6818
 4733TIP3   OH235757   3.759   0.154   2.045 -0.0034  0.6286 -0.8460
 4733TIP3    H135758   3.730   0.144   1.955 -2.6275  0.6816 -0.0968
 4733TIP3    H235759   3.685   0.124   2.098  0.3904  3.1070  1.3348
 4734TIP3   OH235760   1.002   4.242   7.530 -0.3995 -0.4148 -0.8011
 4734TIP3    H135761   1.065   4.193   7.584 -0.1021  0.3045 -0.4853
 4734TIP3    H235762   0.928   4.183   7.520 -0.2762 -0.7217  0.0454
 4735TIP3   OH235763   2.802   0.043   1.417  0.4419 -0.1005 -0.3539
 4735TIP3    H135764   2.814  -0.011   1.495 -1.4665 -2.2884 -1.4630
 4735TIP3    H235765   2.822   0.132   1.447 -0.0855 -0.8524  2.5992
 4736TIP3   OH235766   1.207   3.734   1.214 -0.2817  0.1811  0.0219
 4736TIP3    H135767   1.193   3.647   1.177  1.4468 -0.5530  0.9579
 4736TIP3    H235768   1.129   3.750   1.267 -0.4020 -1.0328  0.2347
 4737TIP3   OH235769   2.962   0.733   8.305  0.1398 -0.1927  0.3293
 4737TIP3    H135770   2.914   0.651   8.300  1.7548 -1.1410 -0.3091
 4737TIP3    H235771   3.036   0.714   8.364  0.9195  0.5832 -0.3662
 4738TIP3   OH235772   4.680   3.608   0.762  0.3087 -0.3488 -0.3038
 4738TIP3    H135773   4.764   3.569   0.737 -0.1221 -1.8003  0.4219
 4738TIP3    H235774   4.693   3.702   0.749  2.7997 -0.2864  1.8340
 4739TIP3   OH235775   1.237   2.970   7.203  0.3679  0.2210  0.2004
 4739TIP3    H135776   1.317   2.919   7.190  0.7032  0.8001 -0.0102
 4739TIP3    H235777   1.267   3.057   7.226 -0.1829  0.7932 -1.1342
 4740TIP3   OH235778   4.092   3.607   2.311 -0.4038  0.3813  0.3839
 4740TIP3    H135779   4.018   3.585   2.255 -0.8886 -0.4844  1.3244
 4740TIP3    H235780   4.150   3.531   2.305 -0.4988  0.2433  1.0912
 4741TIP3   OH235781   5.361   1.892   7.012 -0.6569  0.3493 -0.0490
 4741TIP3    H135782   5.316   1.808   7.011  0.9654 -0.5978 -2.3900
 4741TIP3    H235783   5.306   1.950   6.958 -0.9471  0.3148  0.2079
 4742TIP3   OH235784   1.988   1.998   0.521  0.3004  0.0042  0.0176
 4742TIP3    H135785   1.942   1.969   0.442  1.4980  1.5595 -1.3204
 4742TIP3    H235786   1.918   2.021   0.582 -0.8349  2.6616 -2.0859
 4743TIP3   OH235787   1.401   1.873   8.399 -0.4362 -0.7738 -0.0301
 4743TIP3    H135788   1.364   1.842   8.482 -0.1834 -0.7817  0.0814
 4743TIP3    H235789   1.338   1.845   8.333 -0.1642 -1.6086  0.0565
 4744TIP3   OH235790   6.314   4.823   6.774 -0.7363  0.3819  0.8028
 4744TIP3    H135791   6.345   4.739   6.741 -1.8848 -0.5870  2.0623
 4744TIP3    H235792   6.377   4.886   6.742  0.9797 -1.1463  0.9965
 4745TIP3   OH235793   3.795   1.405   8.259 -0.4382  0.2465 -0.6747
 4745TIP3    H135794   3.839   1.391   8.175 -0.0709  0.8370 -0.5852
 4745TIP3    H235795   3.834   1.340   8.318  0.0056  0.4809 -0.7081
 4746TIP3   OH235796   0.446   3.718   1.688  0.1808  0.5023 -0.1835
 4746TIP3    H135797   0.392   3.642   1.712  1.3984 -0.0267  1.0011
 4746TIP3    H235798   0.522   3.680   1.645 -0.4116  1.2512 -1.9526
 4747TIP3   OH235799   1.088   5.695   8.215  0.9772 -0.4572  0.0145
 4747TIP3    H135800   1.175   5.659   8.235  0.3402 -1.9373  0.1852
 4747TIP3    H235801   1.027   5.640   8.263 -0.1369 -0.0651 -0.9122
 4748TIP3   OH235802   2.921   5.846   7.896  0.1219 -0.2645 -0.1365
 4748TIP3    H135803   2.895   5.778   7.957  2.6678 -0.3157  1.0339
 4748TIP3    H235804   2.894   5.814   7.810  0.2734 -2.2432  0.5137
 4749TIP3   OH235805   6.544   0.464   1.570 -0.0386  0.2361  0.7363
 4749TIP3    H135806   6.477   0.529   1.546 -0.5185 -0.5939 -0.1990
 4749TIP3    H235807   6.591   0.446   1.489 -0.3344 -1.0695  0.8380
 4750TIP3   OH235808   3.020   1.061   0.885  0.3275  0.3743  0.7902
 4750TIP3    H135809   3.071   1.139   0.906  1.6130  0.1342 -1.1731
 4750TIP3    H235810   3.037   1.001   0.958 -0.4350  1.7590  2.1772
 4751TIP3   OH235811   2.648   1.227   6.257  0.0455  0.1541 -0.1272
 4751TIP3    H135812   2.621   1.319   6.248 -0.3935  0.3036  2.1477
 4751TIP3    H235813   2.573   1.184   6.297  0.8481 -0.8647  0.3197
 4752TIP3   OH235814   4.987   1.898   7.919 -0.0692  0.0223  0.2634
 4752TIP3    H135815   4.945   1.984   7.914  0.6168  0.3588  0.1907
 4752TIP3    H235816   5.051   1.898   7.848 -0.4296 -0.7542 -0.0676
 4753TIP3   OH235817   4.896   5.466   0.619 -0.3059  0.8298 -0.0572
 4753TIP3    H135818   4.829   5.500   0.679 -0.9418 -1.8200  0.8576
 4753TIP3    H235819   4.853   5.467   0.533 -2.0871 -1.9245  0.6782
 4754TIP3   OH235820   6.506   4.132   8.089  0.0264 -0.2615  0.0760
 4754TIP3    H135821   6.445   4.080   8.036 -0.5177  0.8607 -0.4358
 4754TIP3    H235822   6.513   4.085   8.172 -0.8331 -0.8837 -0.2004
 4755TIP3   OH235823   1.105   2.870   6.182 -0.0591 -0.2323 -0.6649
 4755TIP3    H135824   1.168   2.910   6.123  1.5171  1.3271  1.8770
 4755TIP3    H235825   1.155   2.805   6.232 -0.3899  0.8803  1.2484
 4756TIP3   OH235826   1.691   1.159   7.886 -0.1961  0.2783  0.4076
 4756TIP3    H135827   1.626   1.175   7.817 -1.6596 -0.0831  1.6431
 4756TIP3    H235828   1.657   1.083   7.933  0.9212  0.3430  1.3539
 4757TIP3   OH235829   4.662   4.026   1.693  0.0989  0.4314 -0.2315
 4757TIP3    H135830   4.704   4.108   1.718 -1.8988  1.0178  1.5647
 4757TIP3    H235831   4.733   3.962   1.690  1.3453  1.6738  1.0285
 4758TIP3   OH235832   0.491   3.913   1.242 -0.2518  0.0990  0.5264
 4758TIP3    H135833   0.452   3.837   1.286 -0.7923  0.0793  0.0248
 4758TIP3    H235834   0.417   3.958   1.202  0.2757 -0.0882 -0.6829
 4759TIP3   OH235835   0.293   6.536   7.750 -0.0296 -0.3069  0.3291
 4759TIP3    H135836   0.216   6.482   7.731  0.3140 -0.0791 -1.9340
 4759TIP3    H235837   0.342   6.485   7.815 -1.1541 -1.3089  0.4422
 4760TIP3   OH235838   4.179   1.954   1.127 -0.3091 -0.3631 -0.1677
 4760TIP3    H135839   4.229   2.024   1.168  0.3790 -2.0460  2.0371
 4760TIP3    H235840   4.101   1.998   1.091 -0.0157  1.4891  1.3078
 4761TIP3   OH235841   2.387   4.139   7.739  0.4536 -0.3538 -0.6843
 4761TIP3    H135842   2.319   4.205   7.750  0.9362  0.2028 -0.9559
 4761TIP3    H235843   2.404   4.107   7.828  0.9916  0.6901 -0.3916
 4762TIP3   OH235844   3.633   2.033   6.720  0.4334 -0.3958  0.4472
 4762TIP3    H135845   3.589   1.979   6.655 -0.2461  1.1498 -0.4267
 4762TIP3    H235846   3.656   1.972   6.790  0.0532 -1.8696 -0.6565
 4763TIP3   OH235847   0.710   2.810   8.015  0.3875 -0.6306 -0.2553
 4763TIP3    H135848   0.660   2.892   8.010 -0.9289 -1.4743 -1.4744
 4763TIP3    H235849   0.746   2.799   7.927  3.0946  0.1102  0.6519
 4764TIP3   OH235850   5.466   6.422   1.598 -0.1984 -0.6307  0.4882
 4764TIP3    H135851   5.542   6.375   1.563  1.2354  0.4719  1.9245
 4764TIP3    H235852   5.490   6.514   1.590 -1.7057 -0.2335  0.3306
 4765TIP3   OH235853   6.826   2.597   7.291 -0.1738  0.4760 -0.4244
 4765TIP3    H135854   6.865   2.537   7.229 -0.6823 -1.6213  1.1624
 4765TIP3    H235855   6.900   2.633   7.340  0.0135 -1.1098  0.5142
 4766TIP3   OH235856   2.588   3.322   8.444  0.0292 -0.1324 -0.4924
 4766TIP3    H135857   2.627   3.268   8.376  0.3954  2.6185 -2.6649
 4766TIP3    H235858   2.493   3.312   8.432  0.0720 -1.3598  0.0952
 4767TIP3   OH235859   3.744   2.789   0.537  0.1854  0.3218 -0.6826
 4767TIP3    H135860   3.663   2.745   0.565 -0.0958 -0.6526 -2.8411
 4767TIP3    H235861   3.809   2.720   0.535  0.7131  0.8051 -0.4130
 4768TIP3   OH235862   0.981   3.601   1.757 -0.2922  0.0808 -0.5544
 4768TIP3    H135863   1.072   3.573   1.743 -0.4848 -0.5740 -0.5226
 4768TIP3    H235864   0.966   3.586   1.851 -0.8835 -1.2041 -0.8302
 4769TIP3   OH235865   5.740   5.701   6.569  0.1120 -0.0046 -0.0545
 4769TIP3    H135866   5.779   5.623   6.607  0.8350  1.2235  1.8783
 4769TIP3    H235867   5.748   5.768   6.637  0.8299  2.1756 -2.1339
 4770TIP3   OH235868   5.183   6.491   1.686  0.1072  0.0322  0.1534
 4770TIP3    H135869   5.245   6.474   1.615  0.1553 -0.3568  0.2868
 4770TIP3    H235870   5.234   6.541   1.750 -0.0037  0.5985 -0.1894
 4771TIP3   OH235871   3.711   4.603   0.251  0.5783 -0.2117  0.1014
 4771TIP3    H135872   3.777   4.662   0.213  0.1807  0.4036  0.3542
 4771TIP3    H235873   3.638   4.605   0.189  1.0993 -1.5208 -0.5878
 4772TIP3   OH235874   6.532   2.879   8.054  0.0941 -0.3616  0.2829
 4772TIP3    H135875   6.524   2.939   7.979 -0.9796 -1.2579 -0.3492
 4772TIP3    H235876   6.560   2.935   8.126  0.0671  0.7325 -0.5236
 4773TIP3   OH235877   6.680   6.507   0.460 -0.6494 -0.2901 -1.0504
 4773TIP3    H135878   6.738   6.432   0.474 -0.3468  0.1249  0.0523
 4773TIP3    H235879   6.682   6.554   0.544 -0.8630  0.9249 -1.7152
 4774TIP3   OH235880   2.780   4.727   7.829 -0.0467 -0.1497  0.3940
 4774TIP3    H135881   2.867   4.689   7.823  0.4697  1.2215 -2.8837
 4774TIP3    H235882   2.723   4.653   7.851  1.7114 -1.3439  1.1740
 4775TIP3   OH235883   0.859   3.654   7.969 -0.2385  0.1613  0.4825
 4775TIP3    H135884   0.792   3.597   7.931 -0.8474  1.3956 -0.3360
 4775TIP3    H235885   0.925   3.593   8.002 -1.2332 -1.0463  0.3325
 4776TIP3   OH235886   4.846   4.295   1.982 -0.7848  0.2731  0.4256
 4776TIP3    H135887   4.917   4.231   1.992  0.8773  2.1482  1.5462
 4776TIP3    H235888   4.766   4.244   1.995  0.2142 -2.1386 -1.8928
 4777TIP3   OH235889   5.660   6.467   0.232  0.0350  0.0659  0.6471
 4777TIP3    H135890   5.602   6.480   0.157  0.1749  0.1384  0.5521
 4777TIP3    H235891   5.738   6.518   0.212 -0.0255  0.2848  0.9499
 4778TIP3   OH235892   0.699   5.788   8.197  0.2562  0.0568 -0.5788
 4778TIP3    H135893   0.714   5.772   8.290 -3.0720 -1.6872 -0.2062
 4778TIP3    H235894   0.783   5.769   8.155  1.0450 -2.0317  1.7539
 4779TIP3   OH235895   3.234   3.694   8.267  0.0825 -0.1415  0.1234
 4779TIP3    H135896   3.214   3.602   8.283  0.3258 -0.1951  0.1296
 4779TIP3    H235897   3.173   3.742   8.323  0.2750 -0.3079  0.4794
 4780TIP3   OH235898   1.970   2.301   2.131  0.5797  0.0264 -0.4737
 4780TIP3    H135899   1.937   2.325   2.044 -1.9526  0.9055  0.6273
 4780TIP3    H235900   2.063   2.321   2.127  0.1553  2.1275 -2.3274
 4781TIP3   OH235901   0.284   4.809   6.578 -0.0278 -0.0275 -0.2140
 4781TIP3    H135902   0.370   4.784   6.544  0.1171  0.1100  0.0489
 4781TIP3    H235903   0.296   4.811   6.673 -0.3596 -0.1507 -0.1695
 4782TIP3   OH235904   2.626   3.573   0.808  0.2438  0.0475  0.2198
 4782TIP3    H135905   2.649   3.594   0.717 -1.7108 -0.6586 -0.5043
 4782TIP3    H235906   2.703   3.529   0.843  1.0048  0.2397 -1.1404
 4783TIP3   OH235907   2.320   2.188   6.666 -0.6933 -0.8473 -0.1283
 4783TIP3    H135908   2.380   2.261   6.649 -1.3287 -0.3056 -0.0847
 4783TIP3    H235909   2.288   2.162   6.579 -1.3041 -0.3435 -0.0636
 4784TIP3   OH235910   6.306   5.247   2.023  0.5655 -0.3587 -0.6020
 4784TIP3    H135911   6.327   5.326   1.974 -1.5083 -0.8360 -2.4319
 4784TIP3    H235912   6.376   5.239   2.087  1.5199  2.2446 -1.1884
 4785TIP3   OH235913   4.930   0.180   8.079  0.2875 -0.3280  0.3909
 4785TIP3    H135914   4.939   0.103   8.136  1.4391 -2.9055 -2.9510
 4785TIP3    H235915   4.872   0.150   8.009 -1.6370  2.9261  0.3996
 4786TIP3   OH235916   4.178   1.243   6.878 -0.2873  0.1183 -0.2984
 4786TIP3    H135917   4.192   1.328   6.920 -0.1820  0.0898 -0.2755
 4786TIP3    H235918   4.179   1.261   6.784  0.1627  0.0754 -0.3013
 4787TIP3   OH235919   0.917   2.460   8.558  0.2742 -0.0009 -0.0950
 4787TIP3    H135920   0.890   2.462   8.649  1.3647 -0.3663  0.2523
 4787TIP3    H235921   0.988   2.524   8.553  0.8073 -0.6074 -0.4784
 4788TIP3   OH235922   3.638   2.367   1.388  0.5089 -1.1361  0.0538
 4788TIP3    H135923   3.616   2.284   1.431 -0.6614 -1.1221 -0.4762
 4788TIP3    H235924   3.555   2.415   1.386  1.4198  0.5942  1.4839
 4789TIP3   OH235925   3.135   0.294   7.279  0.0163 -0.5050 -0.3152
 4789TIP3    H135926   3.177   0.221   7.325  0.5544  1.4064  2.5159
 4789TIP3    H235927   3.046   0.296   7.314  0.1498  0.4454  0.0020
 4790TIP3   OH235928   0.214   6.472   7.185  0.2463  0.3326 -0.1955
 4790TIP3    H135929   0.279   6.403   7.170 -0.5676 -0.8087  1.2029
 4790TIP3    H235930   0.142   6.450   7.127 -0.0048 -0.0163  0.2359
 4791TIP3   OH235931   2.430   6.647   0.984 -0.1097 -0.1301 -0.0874
 4791TIP3    H135932   2.345   6.689   0.969 -0.4621 -0.6998  0.2550
 4791TIP3    H235933   2.411   6.579   1.048  0.8870  0.6722  1.0987
 4792TIP3   OH235934   4.874   4.257   1.721 -0.0059  0.8376 -0.2055
 4792TIP3    H135935   4.859   4.303   1.804  2.3680  0.7305  0.3514
 4792TIP3    H235936   4.957   4.291   1.689  0.8305 -1.5570 -0.8157
 4793TIP3   OH235937   1.878   4.047   1.127 -0.1209  0.1016 -0.1547
 4793TIP3    H135938   1.947   3.984   1.147  1.3432  1.5086 -0.5333
 4793TIP3    H235939   1.880   4.056   1.032  1.9270  2.9847  0.0320
 4794TIP3   OH235940   3.406   3.520   0.920  0.4233  0.0537 -0.5383
 4794TIP3    H135941   3.313   3.531   0.937  0.1197 -2.7704  0.1418
 4794TIP3    H235942   3.449   3.547   1.001  0.0821  0.0535 -0.3568
 4795TIP3   OH235943   2.705   3.893   7.312 -0.1755  0.1567 -0.2282
 4795TIP3    H135944   2.699   3.918   7.219 -1.1701 -2.4383 -0.9360
 4795TIP3    H235945   2.631   3.834   7.325  0.4300 -0.1628  2.0403
 4796TIP3   OH235946   2.147   4.088   1.562  0.1867 -0.4434  0.0800
 4796TIP3    H135947   2.067   4.110   1.610  1.1146  0.3974  1.3005
 4796TIP3    H235948   2.134   3.998   1.534 -0.5409 -0.8506  1.6366
 4797TIP3   OH235949   1.691   2.079   0.320 -0.1404  0.0634 -0.5331
 4797TIP3    H135950   1.639   2.107   0.245 -0.9244 -0.0018 -0.0239
 4797TIP3    H235951   1.652   2.124   0.395 -1.3455 -2.1720  0.2809
 4798TIP3   OH235952   2.672   5.380   7.105 -0.2085 -0.1292  0.0492
 4798TIP3    H135953   2.735   5.421   7.164 -1.6766 -0.6143  2.0572
 4798TIP3    H235954   2.611   5.334   7.163 -1.6510 -0.7608 -1.8689
 4799TIP3   OH235955   4.265   3.796   7.969  0.0465 -0.1332  0.3023
 4799TIP3    H135956   4.267   3.756   8.056  1.7184 -0.3235  0.2147
 4799TIP3    H235957   4.342   3.760   7.924 -0.3730  0.5278 -0.9967
 4800TIP3   OH235958   2.970   6.239   2.752  0.5061  0.9815 -0.3938
 4800TIP3    H135959   2.877   6.257   2.763  0.5984  1.5872 -0.5635
 4800TIP3    H235960   2.993   6.283   2.670  0.6854 -0.1419 -0.9642
 4801TIP3   OH235961   1.035   4.385   8.379 -0.4614 -0.0848 -0.0295
 4801TIP3    H135962   1.125   4.386   8.346 -0.7444  0.4610 -0.8216
 4801TIP3    H235963   1.003   4.297   8.358 -0.2516 -0.1367 -0.1406
 4802TIP3   OH235964   4.521   4.437   2.033  0.8370 -0.1946  0.1481
 4802TIP3    H135965   4.519   4.492   2.111 -0.1876 -0.0589  0.0420
 4802TIP3    H235966   4.558   4.354   2.063 -1.1974 -0.7648  1.2147
 4803TIP3   OH235967   2.468   4.917   8.108 -0.2949 -0.3253  0.4001
 4803TIP3    H135968   2.545   4.913   8.051  0.4234 -1.7805  1.3986
 4803TIP3    H235969   2.400   4.957   8.054  0.0210 -2.5961 -1.8698
 4804TIP3   OH235970   1.226   1.024   1.334  0.4233  0.5008  0.2460
 4804TIP3    H135971   1.243   0.952   1.274 -2.9445  0.5923 -1.0616
 4804TIP3    H235972   1.206   1.098   1.277  2.5687  2.2251  1.5713
 4805TIP3   OH235973   6.204   6.684   7.247  0.0552  0.2239 -0.0023
 4805TIP3    H135974   6.252   6.753   7.200 -0.1307 -1.1576 -2.3640
 4805TIP3    H235975   6.243   6.683   7.334  1.1538  2.2173 -0.4017
 4806TIP3   OH235976   1.251   3.310   8.149 -0.2143 -0.0556 -0.5800
 4806TIP3    H135977   1.255   3.246   8.079  0.5122 -0.1702 -0.4388
 4806TIP3    H235978   1.219   3.260   8.225 -1.2014  0.1144 -0.8677
 4807TIP3   OH235979   4.363   4.562   1.196  0.3372  0.1478  0.8884
 4807TIP3    H135980   4.365   4.640   1.141 -0.1103  1.5104  2.6866
 4807TIP3    H235981   4.447   4.520   1.181  0.5972  0.9817 -0.1131
 4808TIP3   OH235982   3.010   4.615   0.768  0.0015 -0.0324 -0.5163
 4808TIP3    H135983   2.920   4.642   0.788  0.4302 -0.1171  1.8543
 4808TIP3    H235984   3.007   4.519   0.768  0.3534 -0.0747  1.2262
 4809TIP3   OH235985   2.321   5.438   0.187  1.0658 -0.2250  0.3304
 4809TIP3    H135986   2.351   5.348   0.178  0.9986 -0.1317 -1.0924
 4809TIP3    H235987   2.380   5.488   0.130 -0.1640  0.3259 -0.5052
 4810TIP3   OH235988   2.920   2.482   7.544 -0.5738 -0.0019 -0.0005
 4810TIP3    H135989   2.891   2.542   7.475 -1.5362 -0.7640 -0.2783
 4810TIP3    H235990   2.892   2.395   7.514  1.4314 -0.7115  0.0450
 4811TIP3   OH235991   5.294   0.519   0.176  0.8441 -0.1680 -0.0543
 4811TIP3    H135992   5.266   0.450   0.236  0.9171 -2.9819 -2.9915
 4811TIP3    H235993   5.213   0.557   0.143  0.7815  0.3740  0.7074
 4812TIP3   OH235994   3.630   3.478   1.984 -0.5634 -0.4510 -0.7470
 4812TIP3    H135995   3.620   3.498   2.077  0.0369 -3.2251 -0.0027
 4812TIP3    H235996   3.562   3.530   1.941 -0.8891  0.8507  1.2203
 4813TIP3   OH235997   1.072   5.275   0.657 -0.1788 -0.1686 -0.0349
 4813TIP3    H135998   1.119   5.261   0.574 -0.5400 -1.6294 -0.0251
 4813TIP3    H235999   0.980   5.280   0.631 -0.1723  1.0815  0.1196
 4814TIP3   OH236000   3.123   5.150   8.343 -0.2235  0.3147 -0.2998
 4814TIP3    H136001   3.138   5.104   8.425 -1.2754  0.1592 -0.1773
 4814TIP3    H236002   3.191   5.218   8.341  0.8443 -0.7172 -0.1065
 4815TIP3   OH236003   6.715   0.719   8.053 -0.1800  0.2659  0.0634
 4815TIP3    H136004   6.643   0.674   8.008 -0.1283  0.9345 -0.7143
 4815TIP3    H236005   6.709   0.690   8.144 -0.4548 -0.9082 -0.3218
 4816TIP3   OH236006   6.301   0.788   8.551 -0.0401 -0.9665  0.1075
 4816TIP3    H136007   6.382   0.815   8.593 -0.1073 -0.6462  0.0356
 4816TIP3    H236008   6.234   0.845   8.590 -0.0527 -0.4252 -0.6797
 4817TIP3   OH236009   5.779   2.844   7.989  0.5704  0.0872  0.0025
 4817TIP3    H136010   5.811   2.932   7.971 -0.4703  0.4162 -0.3123
 4817TIP3    H236011   5.856   2.797   8.021  1.2194  1.0078 -0.1491
 4818TIP3   OH236012   1.555   5.410   2.692 -0.3697  0.0886  0.2920
 4818TIP3    H136013   1.549   5.505   2.681 -2.3959 -0.1908 -1.8446
 4818TIP3    H236014   1.486   5.389   2.755  0.0146  0.0115  0.6916
 4819TIP3   OH236015   3.351   1.544   1.781 -0.1119  0.0346 -0.2326
 4819TIP3    H136016   3.360   1.568   1.689  0.8170 -0.5863 -0.3144
 4819TIP3    H236017   3.437   1.564   1.819 -0.2358 -0.4703  0.3191
 4820TIP3   OH236018   3.000   0.263   8.544 -0.1548 -0.0983 -0.2048
 4820TIP3    H136019   3.082   0.295   8.507 -1.1719  1.7285 -1.0610
 4820TIP3    H236020   3.013   0.169   8.555  2.5523  0.3228  1.0714
 4821TIP3   OH236021   0.699   0.724   6.737  0.0826 -0.1082 -0.3127
 4821TIP3    H136022   0.728   0.666   6.807 -1.6247  0.9620  1.4083
 4821TIP3    H236023   0.671   0.666   6.667  1.0413 -1.2546  0.2272
 4822TIP3   OH236024   6.298   1.720   0.968 -0.0563  0.2493 -0.0036
 4822TIP3    H136025   6.388   1.747   0.950 -0.2094 -0.6998 -2.6730
 4822TIP3    H236026   6.307   1.637   1.015  0.5485 -0.6159 -1.5636
 4823TIP3   OH236027   3.582   5.388   7.570  0.3731 -0.4109 -0.1533
 4823TIP3    H136028   3.549   5.461   7.518  1.3599  0.3291  0.2172
 4823TIP3    H236029   3.586   5.314   7.509  2.2944  0.6332 -1.4116
 4824TIP3   OH236030   6.458   3.781   7.469 -0.0157  0.0662 -0.1729
 4824TIP3    H136031   6.533   3.748   7.420 -0.6419 -1.5701 -0.0821
 4824TIP3    H236032   6.491   3.859   7.514  1.6507 -0.6632 -0.0748
 4825TIP3   OH236033   5.131   0.630   1.055  0.3939  0.1128  0.1034
 4825TIP3    H136034   5.106   0.538   1.055  0.1871  0.1637  0.5746
 4825TIP3    H236035   5.220   0.632   1.088 -0.6059  0.3064  3.1023
 4826TIP3   OH236036   6.264   5.617   7.443  0.1306 -0.0031  0.1014
 4826TIP3    H136037   6.340   5.584   7.489  0.4715  1.4342  0.6389
 4826TIP3    H236038   6.191   5.600   7.502  0.7772  3.3853  2.1516
 4827TIP3   OH236039   2.537   3.673   7.178  0.5848  0.1297 -0.0039
 4827TIP3    H136040   2.623   3.630   7.181  1.4674  1.6189 -1.8363
 4827TIP3    H236041   2.486   3.621   7.117  0.0710 -0.8875  1.2572
 4828TIP3   OH236042   6.060   3.815   6.970  0.5896 -0.8922 -0.1079
 4828TIP3    H136043   6.133   3.877   6.970 -1.2792  1.4559  0.3316
 4828TIP3    H236044   5.992   3.857   6.917 -1.3858 -1.7655  1.5789
 4829TIP3   OH236045   5.789   6.872   7.159  0.0435 -0.2014  0.3740
 4829TIP3    H136046   5.756   6.958   7.185 -1.5087 -0.7739  0.3659
 4829TIP3    H236047   5.712   6.825   7.128  1.1346 -1.0622 -1.1167
 4830TIP3   OH236048   0.429   5.932   1.645  0.5375 -0.3951 -0.0518
 4830TIP3    H136049   0.404   6.021   1.619 -0.4399 -0.7658 -0.4538
 4830TIP3    H236050   0.509   5.914   1.595  1.0370  0.4378  0.4315
 4831TIP3   OH236051   0.698   0.030   0.932 -0.3672 -0.2461 -0.2660
 4831TIP3    H136052   0.643  -0.010   0.999 -2.2635  0.8449 -1.1027
 4831TIP3    H236053   0.769  -0.033   0.918 -1.0272 -1.3953  1.3086
 4832TIP3   OH236054   1.165   0.065   8.334 -0.0072 -0.1056 -0.4304
 4832TIP3    H136055   1.156   0.161   8.336  0.9932 -0.0078  0.6101
 4832TIP3    H236056   1.222   0.048   8.259  0.8756  0.2426  0.1399
 4833TIP3   OH236057   0.086   5.350   2.523  0.2034  0.4707 -0.1916
 4833TIP3    H136058   0.029   5.414   2.479  0.2169  0.1124 -0.7443
 4833TIP3    H236059   0.168   5.398   2.539 -0.0124  0.7846 -0.0079
 4834TIP3   OH236060   4.574   6.201   0.875  0.4643 -0.3496  0.5353
 4834TIP3    H136061   4.499   6.230   0.928  0.8043 -0.1471  0.9105
 4834TIP3    H236062   4.536   6.178   0.790  0.1011  0.6523  0.4120
 4835TIP3   OH236063   3.115   3.856   1.350 -0.3661 -0.2740  0.0594
 4835TIP3    H136064   3.168   3.820   1.279 -0.1251 -0.6444  0.4209
 4835TIP3    H236065   3.144   3.809   1.428  0.1082  0.8676  0.5910
 4836TIP3   OH236066   2.587   1.348   6.966  0.0785  0.2201 -0.1020
 4836TIP3    H136067   2.611   1.436   6.940 -0.2143  0.5036  0.5779
 4836TIP3    H236068   2.668   1.310   7.001  0.3467  0.0133 -0.9306
 4837TIP3   OH236069   3.193   6.464   7.989  0.6674 -1.0129 -0.0623
 4837TIP3    H136070   3.163   6.377   8.017  1.1313 -0.7588  1.3096
 4837TIP3    H236071   3.279   6.473   8.029  0.4936  0.1966  0.0609
 4838TIP3   OH236072   2.765   5.423   0.595 -0.0935 -0.2757 -0.1190
 4838TIP3    H136073   2.778   5.436   0.501 -1.8358  0.2795 -0.3308
 4838TIP3    H236074   2.716   5.340   0.600  0.9368 -0.8620  0.3861
 4839TIP3   OH236075   3.103   1.256   7.344  0.2105 -0.4411  0.0039
 4839TIP3    H136076   3.062   1.170   7.335 -1.9530  0.4202  0.8753
 4839TIP3    H236077   3.038   1.317   7.310 -0.1560  1.1693  3.1513
 4840TIP3   OH236078   0.995   0.269   1.523 -0.1011  0.2254  0.1060
 4840TIP3    H136079   1.061   0.271   1.592 -0.1890  1.4948  0.1724
 4840TIP3    H236080   0.969   0.177   1.518  0.9418 -0.1217  0.7666
 4841TIP3   OH236081   2.220   6.347   0.855  0.1867 -0.5488 -1.0517
 4841TIP3    H136082   2.193   6.255   0.851 -0.8663 -0.3368  0.4892
 4841TIP3    H236083   2.255   6.358   0.943 -1.9444  1.0788 -0.3347
 4842TIP3   OH236084   6.367   2.601   6.833 -0.1030 -0.6212  0.5599
 4842TIP3    H136085   6.320   2.550   6.766 -0.0110 -0.6886  0.5470
 4842TIP3    H236086   6.448   2.627   6.791 -0.8068  0.8438  0.0302
 4843TIP3   OH236087   2.197   5.640   8.618  0.0678 -0.1137  0.1028
 4843TIP3    H136088   2.207   5.554   8.576 -0.1015  0.4413 -1.1324
 4843TIP3    H236089   2.256   5.697   8.569  0.4458  0.4109  1.1432
 4844TIP3   OH236090   0.676   3.353   8.137  0.2027  0.2194  0.3002
 4844TIP3    H136091   0.627   3.410   8.077  0.4482  0.8210  0.6613
 4844TIP3    H236092   0.627   3.356   8.219  1.4833  1.8560  1.0711
 4845TIP3   OH236093   3.482   1.765   7.443 -0.7783 -0.1499 -0.0548
 4845TIP3    H136094   3.492   1.703   7.515 -0.4310 -1.2773 -1.0368
 4845TIP3    H236095   3.398   1.742   7.403 -1.4938  1.1618  0.5850
 4846TIP3   OH236096   0.320   3.468   0.486 -0.5272  0.2336 -0.4430
 4846TIP3    H136097   0.316   3.513   0.402  0.3284 -0.7815 -1.0428
 4846TIP3    H236098   0.343   3.537   0.549 -2.0351  1.1733 -0.8666
 4847TIP3   OH236099   2.166   2.581   1.328  0.2681 -0.8568 -0.3280
 4847TIP3    H136100   2.086   2.631   1.308  0.9586 -0.2130 -1.5903
 4847TIP3    H236101   2.185   2.532   1.248  2.2527  0.5945 -0.8217
 4848TIP3   OH236102   3.344   3.890   0.179 -0.5207  0.4782 -0.5514
 4848TIP3    H136103   3.290   3.831   0.231 -1.5311  0.8635 -1.1432
 4848TIP3    H236104   3.354   3.968   0.234 -0.7622  0.4998 -0.5390
 4849TIP3   OH236105   5.458   4.674   8.060  0.5159  0.0758 -0.0168
 4849TIP3    H136106   5.380   4.729   8.067  0.6826  0.3462 -0.2071
 4849TIP3    H236107   5.524   4.733   8.022  0.2300 -0.7048 -1.8545
 4850TIP3   OH236108   1.299   4.531   7.529  0.2836 -0.0254  0.0359
 4850TIP3    H136109   1.232   4.499   7.468 -1.7624  0.2462  2.0160
 4850TIP3    H236110   1.342   4.452   7.561  1.1921 -0.1858 -1.4943
 4851TIP3   OH236111   4.725   6.174   0.036 -0.6117 -0.0209  0.5742
 4851TIP3    H136112   4.637   6.138   0.050 -1.1344 -0.1119 -2.2628
 4851TIP3    H236113   4.723   6.260   0.078 -0.7084 -1.4641  3.8654
 4852TIP3   OH236114   2.209   5.202   7.375 -0.0420  0.1824  0.5927
 4852TIP3    H136115   2.123   5.216   7.335  0.6629 -0.5649 -1.2735
 4852TIP3    H236116   2.271   5.207   7.303  1.1738 -2.6242  1.2944
 4853TIP3   OH236117   2.333   6.165   0.337  0.4710 -0.7349  0.9520
 4853TIP3    H136118   2.293   6.252   0.346  0.3571 -0.6639 -0.0487
 4853TIP3    H236119   2.259   6.105   0.334  0.4247 -0.6355 -0.5747
 4854TIP3   OH236120   6.469   0.753   1.690  0.1229 -0.0842  0.0597
 4854TIP3    H136121   6.410   0.771   1.764 -0.4084  1.8145 -0.7744
 4854TIP3    H236122   6.528   0.685   1.723 -2.1381 -1.6565  1.1209
 4855TIP3   OH236123   2.615   6.144   2.002 -0.3067  0.2912 -0.0607
 4855TIP3    H136124   2.612   6.089   2.081 -0.5243 -3.0427 -2.1848
 4855TIP3    H236125   2.524   6.151   1.974 -0.1061  0.3108 -0.7189
 4856TIP3   OH236126   5.929   2.223   0.885 -0.1034 -0.0280  0.3096
 4856TIP3    H136127   5.969   2.300   0.846 -0.7530  0.7152  1.0673
 4856TIP3    H236128   5.929   2.157   0.815 -1.0392  1.1860 -0.8793
 4857TIP3   OH236129   3.624   6.547   8.402  0.2741 -0.0728 -0.2407
 4857TIP3    H136130   3.673   6.468   8.379  0.6998  0.5757 -1.7146
 4857TIP3    H236131   3.544   6.515   8.443  1.0475 -1.2146  0.4279
 4858TIP3   OH236132   0.907   6.866   0.699 -0.4627 -0.0617  0.1191
 4858TIP3    H136133   0.909   6.794   0.762 -0.4504  0.7617  1.0856
 4858TIP3    H236134   0.887   6.824   0.615  1.0265 -1.3691  0.3751
 4859TIP3   OH236135   1.382   0.571   2.409  0.1316 -0.5716 -0.3524
 4859TIP3    H136136   1.432   0.552   2.488  0.9049 -0.5056 -0.8153
 4859TIP3    H236137   1.447   0.605   2.347 -0.5204 -0.3082 -0.9030
 4860TIP3   OH236138   2.387   2.642   7.129  0.5169  0.3461 -0.0846
 4860TIP3    H136139   2.381   2.737   7.134  0.0134  0.3280 -0.3179
 4860TIP3    H236140   2.302   2.614   7.095  0.7578 -0.1664 -0.2769
 4861TIP3   OH236141   0.994   5.670   2.083 -0.2084 -0.6507 -0.3474
 4861TIP3    H136142   0.906   5.706   2.100 -0.4652  0.0299 -2.8276
 4861TIP3    H236143   0.977   5.588   2.037  0.4737 -1.1824  0.3250
 4862TIP3   OH236144   4.597   3.384   8.006 -0.7517  0.1007 -0.2763
 4862TIP3    H136145   4.512   3.364   7.966 -0.6191 -2.6399  0.6188
 4862TIP3    H236146   4.576   3.417   8.093 -0.9304 -1.0352  0.1271
 4863TIP3   OH236147   1.590   3.390   7.386  0.1963  0.1714  0.4814
 4863TIP3    H136148   1.586   3.313   7.444 -0.0862  0.6120  1.0586
 4863TIP3    H236149   1.499   3.409   7.365  0.3431 -1.0915 -1.6376
 4864TIP3   OH236150   1.945   5.395   7.855 -0.0687 -0.1601  0.4009
 4864TIP3    H136151   2.035   5.369   7.875 -0.0775  1.0282  2.2176
 4864TIP3    H236152   1.896   5.376   7.935 -1.0481  0.9409  0.0904
 4865TIP3   OH236153   5.606   0.209   7.287  0.3879 -0.7219  0.2679
 4865TIP3    H136154   5.522   0.166   7.268  0.4288 -0.4782 -0.5301
 4865TIP3    H236155   5.613   0.207   7.382 -2.5195  2.9239  0.7990
 4866TIP3   OH236156   5.710   2.533   0.694  0.2378  0.0826  0.1426
 4866TIP3    H136157   5.789   2.504   0.648 -0.1194 -4.1540  1.7129
 4866TIP3    H236158   5.738   2.543   0.785 -0.9178 -1.2346  0.6799
 4867TIP3   OH236159   4.223   1.194   0.240  0.1073  0.3260 -0.9333
 4867TIP3    H136160   4.272   1.133   0.296  2.5508  2.2628 -0.7723
 4867TIP3    H236161   4.132   1.181   0.265  0.8773 -0.4903  1.9358
 4868TIP3   OH236162   3.000   5.491   7.039 -0.2517 -0.1319  0.0636
 4868TIP3    H136163   2.930   5.488   7.104  0.7839 -0.2627  1.2181
 4868TIP3    H236164   3.029   5.582   7.039 -0.3257 -0.1075 -0.3091
 4869TIP3   OH236165   4.304   2.114   1.315 -0.8821 -0.0503 -0.3623
 4869TIP3    H136166   4.356   2.046   1.358 -2.9079 -1.0479  0.6538
 4869TIP3    H236167   4.368   2.167   1.267  1.1011 -0.8963  1.2139
 4870TIP3   OH236168   4.903   1.484   7.970  0.1983 -0.1613 -0.0353
 4870TIP3    H136169   4.879   1.568   8.009 -1.6427  0.0963 -1.5588
 4870TIP3    H236170   4.819   1.445   7.944  0.9926 -2.4825  0.6085
 4871TIP3   OH236171   4.203   6.023   8.634 -0.2989 -0.4706 -0.5470
 4871TIP3    H136172   4.174   5.934   8.614 -0.4806 -0.1876 -1.6019
 4871TIP3    H236173   4.123   6.076   8.633  0.0592  0.1069 -2.3109
 4872TIP3   OH236174   5.644   1.291   8.421 -0.0199 -0.5320 -0.3561
 4872TIP3    H136175   5.669   1.328   8.337  1.5169  0.5288  0.5101
 4872TIP3    H236176   5.642   1.366   8.481 -0.5526 -1.3299  0.6544
 4873TIP3   OH236177   5.584   4.172   0.127 -0.0255  0.1995  0.1030
 4873TIP3    H136178   5.591   4.076   0.127 -0.4056  0.1657 -0.1392
 4873TIP3    H236179   5.530   4.191   0.050 -0.8088  0.5399  0.7173
 4874TIP3   OH236180   1.946   6.121   6.755  0.0317  0.1986 -0.0832
 4874TIP3    H136181   1.890   6.058   6.800 -1.5973  0.1029 -2.0781
 4874TIP3    H236182   2.024   6.071   6.730  0.1077 -0.2123  0.9494
 4875TIP3   OH236183   3.824   0.785   0.267  0.7016 -0.6189  0.1687
 4875TIP3    H136184   3.775   0.859   0.303 -1.8194 -2.0082 -0.2167
 4875TIP3    H236185   3.914   0.817   0.261  0.0674  1.7527  1.7977
 4876TIP3   OH236186   1.185   6.775   0.718 -0.1051  0.0202 -0.0435
 4876TIP3    H136187   1.172   6.681   0.705 -1.0935  0.0590  0.5788
 4876TIP3    H236188   1.150   6.815   0.638 -0.0674 -0.1119 -0.1267
 4877TIP3   OH236189   0.865   4.534   0.044 -0.7043  0.5563 -0.5027
 4877TIP3    H136190   0.881   4.445   0.075 -1.0244  0.7123  0.1245
 4877TIP3    H236191   0.811   4.522  -0.034  0.6026  0.1331 -1.3784
 4878TIP3   OH236192   5.859   1.672   6.903 -0.0233 -0.1988 -0.0669
 4878TIP3    H136193   5.865   1.587   6.948  1.3053  0.4229  1.0281
 4878TIP3    H236194   5.766   1.693   6.904 -0.6367 -2.4266 -1.9556
 4879TIP3   OH236195   4.704   5.481   7.479 -0.3645 -0.0302  0.1486
 4879TIP3    H136196   4.689   5.533   7.400  2.9719  0.6349 -0.1707
 4879TIP3    H236197   4.661   5.397   7.461 -0.0638  0.2545 -2.1985
 4880TIP3   OH236198   5.393   5.368   1.347  0.7087  0.3998  0.1485
 4880TIP3    H136199   5.486   5.348   1.335  0.6981  1.0614 -1.3026
 4880TIP3    H236200   5.384   5.458   1.315 -0.6335 -0.0691 -0.8892
 4881TIP3   OH236201   0.175   4.834   0.668 -0.1968  0.4232 -0.2297
 4881TIP3    H136202   0.215   4.848   0.582 -0.4330 -0.0827 -0.4284
 4881TIP3    H236203   0.081   4.829   0.650 -0.3272  1.2873  0.1897
 4882TIP3   OH236204   2.119   4.200   1.221 -0.0379 -0.6405 -0.2483
 4882TIP3    H136205   2.208   4.165   1.214  0.0972 -0.0375 -1.8669
 4882TIP3    H236206   2.063   4.123   1.232  0.6436 -1.0319  0.6537
 4883TIP3   OH236207   2.731   6.013   8.279 -0.6246  0.0242  0.0004
 4883TIP3    H136208   2.732   6.101   8.315 -0.2988  0.1174 -0.2375
 4883TIP3    H236209   2.737   6.025   8.184  2.9867 -0.3305  0.0629
 4884TIP3   OH236210   0.680   1.041   8.264 -0.1384  0.3069  0.2200
 4884TIP3    H136211   0.585   1.053   8.257 -0.2031 -0.0742  0.3909
 4884TIP3    H236212   0.703   1.078   8.349 -0.2584 -0.2813  0.5190
 4885TIP3   OH236213   5.753   2.802   1.635 -0.2296  0.0502  0.0807
 4885TIP3    H136214   5.757   2.707   1.647 -1.4958 -0.1711 -0.9359
 4885TIP3    H236215   5.762   2.838   1.723 -0.3341 -1.0417  0.5555
 4886TIP3   OH236216   0.019   1.178   0.921  0.0637 -0.2327 -0.1053
 4886TIP3    H136217   0.018   1.265   0.960  0.5767 -0.0279 -0.5310
 4886TIP3    H236218   0.101   1.139   0.950 -0.3969 -0.7800  0.5005
 4887TIP3   OH236219   3.201   3.299   7.776  0.2507 -0.8113  0.6333
 4887TIP3    H136220   3.218   3.381   7.823 -2.0161  0.5505 -0.7014
 4887TIP3    H236221   3.192   3.233   7.844  0.2780  0.4206  1.8769
 4888TIP3   OH236222   5.490   6.477   2.089 -0.4496 -0.3700 -0.0908
 4888TIP3    H136223   5.473   6.408   2.025 -0.9987 -0.8861  0.5992
 4888TIP3    H236224   5.425   6.463   2.157  0.1296  0.1671  0.5863
 4889TIP3   OH236225   3.529   0.257   7.574 -0.0770  0.1619 -0.1361
 4889TIP3    H136226   3.487   0.212   7.500 -0.0873 -1.7615  0.9949
 4889TIP3    H236227   3.459   0.269   7.637 -0.0084  1.5847 -0.2909
 4890TIP3   OH236228   0.257   6.286   8.415 -0.3081 -0.2282 -0.8523
 4890TIP3    H136229   0.180   6.235   8.440  0.3585  0.1133  2.2170
 4890TIP3    H236230   0.331   6.229   8.435  0.3376  0.8279 -0.1655
 4891TIP3   OH236231   2.704   0.752   0.091  0.0772  0.2067  0.0223
 4891TIP3    H136232   2.651   0.678   0.064  0.6747 -0.8897  1.7028
 4891TIP3    H236233   2.745   0.783   0.010 -1.6841 -0.0469 -1.0009
 4892TIP3   OH236234   3.009   1.529   6.964  0.2404 -0.1391 -0.0504
 4892TIP3    H136235   3.072   1.463   6.934 -0.9610 -0.8230 -1.1381
 4892TIP3    H236236   3.025   1.605   6.907  0.0944 -0.3061 -0.3147
 4893TIP3   OH236237   5.775   3.285   7.296  0.2287 -0.2234 -0.5601
 4893TIP3    H136238   5.816   3.221   7.355  0.7321  0.9854  0.4448
 4893TIP3    H236239   5.771   3.366   7.347 -0.6524  0.4867 -1.7029
 4894TIP3   OH236240   2.371   6.562   8.577  0.6819 -0.5222  0.2029
 4894TIP3    H136241   2.364   6.614   8.657  0.9602 -0.4973  0.2135
 4894TIP3    H236242   2.457   6.586   8.541  0.3207 -0.1217 -0.3941
 4895TIP3   OH236243   3.696   2.591   7.455  0.4950 -0.1160 -0.3251
 4895TIP3    H136244   3.714   2.497   7.459 -0.3910 -0.2920 -0.2967
 4895TIP3    H236245   3.770   2.631   7.501  0.6969 -0.8260 -0.0142
 4896TIP3   OH236246   6.095   0.971   1.380  0.0048  0.2369 -0.3607
 4896TIP3    H136247   6.093   0.888   1.428  1.6073  1.3873  1.9284
 4896TIP3    H236248   6.169   1.019   1.419  0.2725  2.0220 -2.8397
 4897TIP3   OH236249   3.243   4.262   1.085 -0.1398  0.6564 -0.1103
 4897TIP3    H136250   3.322   4.214   1.110 -0.2887  1.2744  1.6736
 4897TIP3    H236251   3.219   4.312   1.163  0.0466  3.7531 -1.8785
 4898TIP3   OH236252   4.359   4.422   7.923 -0.3988  0.4631  0.2977
 4898TIP3    H136253   4.395   4.445   8.009 -2.0447 -0.5686  1.3170
 4898TIP3    H236254   4.398   4.337   7.902  0.1924  0.8276 -0.1134
 4899TIP3   OH236255   2.773   2.382   6.986 -0.5222 -0.8717  0.3471
 4899TIP3    H136256   2.828   2.392   6.908  0.4841 -0.4516  1.0799
 4899TIP3    H236257   2.683   2.384   6.952 -0.1369  0.3053 -0.7075
 4900TIP3   OH236258   0.126   5.318   8.574 -0.6465 -0.5516  0.2654
 4900TIP3    H136259   0.063   5.322   8.646 -0.2599  0.0894  0.5769
 4900TIP3    H236260   0.208   5.293   8.615 -0.4267 -0.1976  0.0443
 4901TIP3   OH236261   6.699   2.065   0.978 -0.8911 -0.5690  0.3384
 4901TIP3    H136262   6.678   2.106   1.062 -0.0271  0.5114  0.0379
 4901TIP3    H236263   6.681   2.132   0.913 -1.1181 -1.2533 -0.3171
 4902TIP3   OH236264   6.511   5.647   1.766 -0.3616 -0.3302 -0.3569
 4902TIP3    H136265   6.456   5.581   1.809  0.9598 -0.6903  0.8681
 4902TIP3    H236266   6.517   5.718   1.830 -1.8448  1.0922 -1.6934
 4903TIP3   OH236267   5.867   0.814   7.959  0.3129  0.6249 -0.2206
 4903TIP3    H136268   5.801   0.843   8.023 -0.4876  0.5436 -0.9851
 4903TIP3    H236269   5.824   0.825   7.874  0.2201 -2.1328 -0.6094
 4904TIP3   OH236270   5.557   5.614   1.638  0.4399 -0.8682  0.2969
 4904TIP3    H136271   5.478   5.648   1.596  0.9195 -1.2177 -0.9392
 4904TIP3    H236272   5.604   5.692   1.667  0.4604 -0.5701 -0.5084
 4905TIP3   OH236273   4.567   4.257   7.479 -0.4261 -0.1772 -0.0680
 4905TIP3    H136274   4.563   4.187   7.544 -0.9051  2.8159  3.4306
 4905TIP3    H236275   4.658   4.286   7.480 -0.2862 -0.5116 -1.3147
 4906TIP3   OH236276   4.173   1.439   7.985  0.0869  0.2797 -0.2029
 4906TIP3    H136277   4.189   1.377   7.913  0.7948 -0.5374  0.6339
 4906TIP3    H236278   4.255   1.486   7.995  0.8690 -1.3456  1.6687
 4907TIP3   OH236279   5.566   2.069   2.026  0.3288 -0.0392 -0.2962
 4907TIP3    H136280   5.621   2.134   2.069  0.0453  0.7532 -1.0911
 4907TIP3    H236281   5.518   2.119   1.959 -2.3656 -0.4301  1.2252
 4908TIP3   OH236282   0.855   6.234   0.213 -0.1059  0.3734  0.1329
 4908TIP3    H136283   0.774   6.246   0.162  0.1913 -1.4602 -0.8882
 4908TIP3    H236284   0.837   6.158   0.268  0.3158  1.0636  1.2366
 4909TIP3   OH236285   0.276   0.636   0.803  0.3601  0.0615  0.1872
 4909TIP3    H136286   0.320   0.558   0.837 -1.4997 -0.8880  0.5745
 4909TIP3    H236287   0.312   0.708   0.855  0.2770 -0.8832  1.6209
 4910TIP3   OH236288   0.966   6.146   1.313 -0.5519 -0.3572  0.0438
 4910TIP3    H136289   1.031   6.160   1.244 -2.4192  1.1241 -1.5247
 4910TIP3    H236290   1.017   6.142   1.394  1.4760  0.8181 -1.0953
 4911TIP3   OH236291   6.555   5.924   7.639  0.1490 -0.4735  0.2470
 4911TIP3    H136292   6.594   5.877   7.565  2.3726 -0.5651  1.4117
 4911TIP3    H236293   6.597   6.010   7.638  1.1312 -0.8890  2.0811
 4912TIP3   OH236294   4.550   1.721   0.999 -0.1843 -0.0315  0.3149
 4912TIP3    H136295   4.604   1.649   1.032 -1.0628 -1.0542 -0.3821
 4912TIP3    H236296   4.492   1.743   1.071 -0.6746 -0.8092  0.1660
 4913TIP3   OH236297   0.305   3.686   2.018 -0.4894 -0.4224  0.7847
 4913TIP3    H136298   0.309   3.744   2.093  1.1298 -3.2069  3.0425
 4913TIP3    H236299   0.380   3.628   2.028  0.2268 -0.5361 -3.4227
 4914TIP3   OH236300   1.723   5.166   0.708  0.1897  0.3408 -0.1067
 4914TIP3    H136301   1.658   5.145   0.641 -1.6217  0.4365  1.5039
 4914TIP3    H236302   1.799   5.198   0.660 -1.0799  0.5250 -2.0945
 4915TIP3   OH236303   5.325   3.364   8.323  0.4277 -0.4252 -0.2818
 4915TIP3    H136304   5.305   3.399   8.236 -1.7132 -1.7417 -0.3982
 4915TIP3    H236305   5.277   3.281   8.327  2.6961 -1.7864  1.1558
 4916TIP3   OH236306   1.721   5.402   0.857  0.3112  0.1129 -0.9312
 4916TIP3    H136307   1.744   5.315   0.823  1.5700  0.5064 -1.1306
 4916TIP3    H236308   1.790   5.423   0.919 -0.6666  0.4519  0.0781
 4917TIP3   OH236309   5.188   4.304   0.514  0.0022 -0.1942  0.1349
 4917TIP3    H136310   5.109   4.275   0.470  0.3571 -0.8244 -0.0887
 4917TIP3    H236311   5.163   4.310   0.606  0.1189 -1.9391  0.3054
 4918TIP3   OH236312   6.372   0.251   8.516  0.0257  0.3545 -0.2529
 4918TIP3    H136313   6.347   0.343   8.508  0.9390  0.5528 -1.1361
 4918TIP3    H236314   6.458   0.246   8.474  0.6060 -0.6514  0.9834
 4919TIP3   OH236315   2.894   4.098   8.592  0.2780  0.0697  0.2299
 4919TIP3    H136316   2.826   4.155   8.556 -1.6597 -1.8508  0.5993
 4919TIP3    H236317   2.970   4.111   8.535 -1.4901 -0.1750 -2.3482
 4920TIP3   OH236318   0.748   1.993   6.735 -0.5548  0.4870 -0.1673
 4920TIP3    H136319   0.724   1.901   6.749  1.1145 -0.0467 -0.6562
 4920TIP3    H236320   0.747   2.004   6.640  0.6216  0.5693 -0.1848
 4921TIP3   OH236321   0.631   6.145   8.001 -0.0080  0.0253 -0.2860
 4921TIP3    H136322   0.666   6.229   8.032 -0.5254  0.2121 -0.1867
 4921TIP3    H236323   0.575   6.115   8.073 -0.1836 -0.1791 -0.5080
 4922TIP3   OH236324   6.141   6.364   7.768 -0.7315 -0.3378 -0.2073
 4922TIP3    H136325   6.207   6.365   7.837 -2.0013  2.1563  1.1065
 4922TIP3    H236326   6.064   6.324   7.808 -1.4739  1.1000 -0.1642
 4923TIP3   OH236327   6.439   5.963   1.664 -0.0089  0.4854  0.6864
 4923TIP3    H136328   6.460   5.950   1.757  1.4504  0.2633  0.3457
 4923TIP3    H236329   6.442   6.058   1.652  0.8611  0.4669  0.6585
 4924TIP3   OH236330   3.360   3.340   7.349 -0.1355  0.2523  0.8079
 4924TIP3    H136331   3.342   3.422   7.396  2.6505  1.3029  0.2188
 4924TIP3    H236332   3.296   3.339   7.277  0.6278  2.6543  0.0057
 4925TIP3   OH236333   1.738   3.818   8.086 -0.1425 -0.1454  0.2922
 4925TIP3    H136334   1.802   3.813   8.014 -1.1254  0.5572 -0.6831
 4925TIP3    H236335   1.719   3.727   8.108  0.6579 -0.3681  0.1028
 4926TIP3   OH236336   3.145   6.289   7.051  0.2858  0.4579  1.2533
 4926TIP3    H136337   3.130   6.349   7.124  1.7632  1.1687  1.0127
 4926TIP3    H236338   3.139   6.344   6.973 -1.7321 -0.3746  0.7584
 4927TIP3   OH236339   2.661   6.648   0.808 -0.1355 -0.0203 -0.0246
 4927TIP3    H136340   2.656   6.743   0.794 -1.6947 -0.1627 -0.6449
 4927TIP3    H236341   2.585   6.628   0.863 -0.3821 -1.0462 -0.7183
 4928TIP3   OH236342   1.193   3.952   1.043 -1.2590 -0.1795  0.2759
 4928TIP3    H136343   1.225   3.872   1.084  2.9958  0.2040 -1.6886
 4928TIP3    H236344   1.198   4.018   1.112  0.9387 -0.5204  0.5141
 4929TIP3   OH236345   1.807   1.177   1.964  0.3681  0.3395 -0.0484
 4929TIP3    H136346   1.894   1.217   1.959  0.4971 -0.0341 -0.8809
 4929TIP3    H236347   1.774   1.179   1.874  0.5646 -1.8125 -0.2078
 4930TIP3   OH236348   5.610   1.770   6.963  0.1426  0.0668 -0.2013
 4930TIP3    H136349   5.589   1.801   6.875  1.3988  2.8263  0.3760
 4930TIP3    H236350   5.544   1.809   7.019  1.6580  1.7389  0.5237
 4931TIP3   OH236351   0.950   2.756   7.739  0.4644  0.4386 -0.5372
 4931TIP3    H136352   0.938   2.839   7.786  2.2897  0.8661 -0.7562
 4931TIP3    H236353   0.950   2.781   7.646  0.1589  0.0640 -0.6405
 4932TIP3   OH236354   6.782   0.072   7.248 -0.4178  0.0983  0.1441
 4932TIP3    H136355   6.730   0.120   7.184  0.7927  0.9933 -0.2190
 4932TIP3    H236356   6.872   0.079   7.216  0.1538  0.1040  1.6421
 4933TIP3   OH236357   3.445   3.352   8.306  0.4009 -0.3369  0.6047
 4933TIP3    H136358   3.448   3.284   8.373 -1.4569 -1.9918 -0.8795
 4933TIP3    H236359   3.362   3.397   8.321  0.0619 -0.5909 -0.4344
 4934TIP3   OH236360   3.672   1.540   2.433  0.0421  0.4476  0.3843
 4934TIP3    H136361   3.735   1.498   2.492  0.2078 -0.8056 -0.6464
 4934TIP3    H236362   3.602   1.570   2.490  0.9575  0.7224  1.4032
 4935TIP3   OH236363   0.168   0.658   1.919  0.1245 -0.1247 -0.4476
 4935TIP3    H136364   0.101   0.622   1.977 -1.2005 -0.0264 -1.8457
 4935TIP3    H236365   0.245   0.603   1.934  0.0696  0.3531  1.8864
 4936TIP3   OH236366   5.708   1.178   7.334  0.2177  0.0853  1.0595
 4936TIP3    H136367   5.748   1.264   7.319 -0.3514  0.1846  0.0453
 4936TIP3    H236368   5.782   1.118   7.344  0.6288  0.4201  0.1191
 4937TIP3   OH236369   4.401   0.348   7.157  0.1074 -0.0102 -0.2419
 4937TIP3    H136370   4.338   0.382   7.094 -2.9262 -0.5248  2.2264
 4937TIP3    H236371   4.394   0.253   7.149 -1.1216 -0.1224  1.3960
 4938TIP3   OH236372   2.317   3.561   8.495  0.0906 -0.1852 -0.4049
 4938TIP3    H136373   2.352   3.487   8.446 -0.8049 -0.6016 -0.4425
 4938TIP3    H236374   2.229   3.532   8.522  0.0694  0.5280  0.3288
 4939TIP3   OH236375   1.861   3.635   8.398  0.1116  0.5258 -0.4057
 4939TIP3    H136376   1.847   3.687   8.477 -0.8238  1.2924 -1.0568
 4939TIP3    H236377   1.926   3.684   8.349  1.5055 -0.5015  0.3516
 4940TIP3   OH236378   0.913   2.234   7.841  0.1123  0.0798  0.5335
 4940TIP3    H136379   0.884   2.316   7.800 -0.3752 -0.2420  0.2273
 4940TIP3    H236380   0.833   2.182   7.851  0.6032 -0.9035 -0.4928
 4941TIP3   OH236381   6.268   4.776   8.282 -0.1052  0.1580  0.1550
 4941TIP3    H136382   6.322   4.825   8.344  1.7451 -0.7647 -0.6662
 4941TIP3    H236383   6.188   4.828   8.274  0.7612  1.7233  1.1897
 4942TIP3   OH236384   1.773   4.089   6.990  0.2539  0.3200 -0.3343
 4942TIP3    H136385   1.729   4.040   7.059  1.7609 -0.3386  0.1994
 4942TIP3    H236386   1.825   4.024   6.943  1.3226  1.1811 -0.3912
 4943TIP3   OH236387   3.863   2.810   1.073 -0.2085 -0.4289 -0.2717
 4943TIP3    H136388   3.795   2.816   1.141  0.6011 -1.8645  0.7182
 4943TIP3    H236389   3.916   2.735   1.100  2.0716  0.9526 -0.7317
 4944TIP3   OH236390   3.744   3.401   0.185 -0.5454  0.1124  0.2979
 4944TIP3    H136391   3.764   3.373   0.275  0.3248  3.1415  1.1690
 4944TIP3    H236392   3.650   3.415   0.185 -0.6235 -0.3565  0.5637
 4945TIP3   OH236393   2.484   3.152   7.370 -0.1111  0.1319 -0.2193
 4945TIP3    H136394   2.566   3.164   7.322  0.4361 -0.9697  0.4094
 4945TIP3    H236395   2.415   3.164   7.304  0.4361  2.8683 -0.4267
 4946TIP3   OH236396   5.503   2.403   2.100  0.2764 -0.6445 -0.5166
 4946TIP3    H136397   5.527   2.332   2.040  1.2283 -1.1068  0.3917
 4946TIP3    H236398   5.574   2.406   2.164  0.9127  1.9844 -1.2424
 4947TIP3   OH236399   1.406   1.808   1.910  0.2232 -0.0846  0.1665
 4947TIP3    H136400   1.386   1.833   2.000  0.3571  0.7048 -0.0143
 4947TIP3    H236401   1.336   1.846   1.858 -1.5889 -3.0376  0.1750
 4948TIP3   OH236402   6.270   2.010   8.351  0.2475 -0.4709 -0.1517
 4948TIP3    H136403   6.237   1.947   8.288 -1.2489  0.8363 -0.7384
 4948TIP3    H236404   6.275   1.961   8.433  0.4041 -1.6869 -0.8640
 4949TIP3   OH236405   1.908   6.447   7.515 -0.3590 -0.4583  0.0890
 4949TIP3    H136406   1.814   6.449   7.497 -0.5824  0.7792  1.2164
 4949TIP3    H236407   1.932   6.354   7.508 -1.8667 -0.9322  0.7819
 4950TIP3   OH236408   1.726   2.821   0.236  0.5994 -0.6565  0.0464
 4950TIP3    H136409   1.758   2.899   0.283  0.2430 -0.8890  0.6908
 4950TIP3    H236410   1.795   2.756   0.247  1.2280 -0.2105 -1.1177
 4951TIP3   OH236411   4.848   4.585   7.609 -0.0945 -0.0985 -0.7187
 4951TIP3    H136412   4.891   4.670   7.599 -1.5485  0.5542 -1.9933
 4951TIP3    H236413   4.785   4.582   7.537  0.5535 -2.6956 -1.2826
 4952TIP3   OH236414   2.876   1.736   1.214  0.1562  0.3060 -0.6365
 4952TIP3    H136415   2.884   1.830   1.227 -0.9709  0.3252  0.1015
 4952TIP3    H236416   2.786   1.723   1.184 -0.1920 -0.6447  0.6858
 4953TIP3   OH236417   1.365   4.610   8.505 -0.4899  0.0439  0.1205
 4953TIP3    H136418   1.382   4.623   8.412  0.6768  1.2161  0.4670
 4953TIP3    H236419   1.347   4.697   8.538 -1.4208 -0.4317  0.9144
 4954TIP3   OH236420   2.099   6.674   0.065  0.1476  0.4246  0.2130
 4954TIP3    H136421   2.190   6.661   0.093 -0.6467 -1.4695  2.2499
 4954TIP3    H236422   2.103   6.671  -0.031  2.2436  0.5428  0.2425
 4955TIP3   OH236423   6.340   5.761   8.458 -0.4345 -0.2359 -0.0967
 4955TIP3    H136424   6.425   5.746   8.500 -1.4963 -1.4722  1.7696
 4955TIP3    H236425   6.309   5.674   8.435 -1.5326  0.1211 -0.0346
 4956TIP3   OH236426   1.294   4.654   0.751  0.2873  0.7063 -0.9381
 4956TIP3    H136427   1.299   4.726   0.813  0.1430 -0.2855  0.2692
 4956TIP3    H236428   1.372   4.601   0.770 -0.9972 -0.9196  0.1302
 4957TIP3   OH236429   6.681   0.341   1.775  0.3203 -0.2192  0.2991
 4957TIP3    H136430   6.618   0.375   1.712 -0.9088 -0.2812  1.4475
 4957TIP3    H236431   6.629   0.289   1.836  1.4662 -0.2290  1.3233
 4958TIP3   OH236432   2.259   0.787   7.583 -0.4415  0.5072  0.1943
 4958TIP3    H136433   2.323   0.830   7.640 -1.1692  2.5656 -0.4397
 4958TIP3    H236434   2.230   0.856   7.523 -1.2944 -1.0351 -1.2770
 4959TIP3   OH236435   0.490   6.300   7.653  0.0173  0.0211 -0.4765
 4959TIP3    H136436   0.547   6.359   7.704 -0.3439  1.2367 -1.4359
 4959TIP3    H236437   0.468   6.350   7.574 -0.4735 -1.3404 -1.2277
 4960TIP3   OH236438   5.698   3.102   6.738 -0.2150  0.5818 -0.2692
 4960TIP3    H136439   5.670   3.191   6.719  1.9952  1.0289 -1.8586
 4960TIP3    H236440   5.695   3.057   6.654  1.4498  0.0288 -0.0760
 4961TIP3   OH236441   3.870   3.109   7.565  0.2096 -0.1666  0.2467
 4961TIP3    H136442   3.795   3.082   7.616  0.8205 -2.3251  0.1021
 4961TIP3    H236443   3.833   3.143   7.483 -0.7273  2.6406  1.7066
 4962TIP3   OH236444   3.979   3.413   8.663  0.5747 -0.1670  0.2652
 4962TIP3    H136445   3.900   3.412   8.717 -1.3165 -0.1141 -2.3298
 4962TIP3    H236446   3.973   3.333   8.611  1.3912  0.6279 -1.1089
 4963TIP3   OH236447   3.966   6.540   1.640 -0.5588 -0.4235 -0.2396
 4963TIP3    H136448   4.050   6.561   1.682  0.1305 -0.5636 -1.4906
 4963TIP3    H236449   3.975   6.449   1.613 -0.1624  0.2030 -2.4466
 4964TIP3   OH236450   5.531   2.018   0.055  0.1299  0.1173 -0.7707
 4964TIP3    H136451   5.479   1.954   0.007 -0.7563  0.7801 -0.7198
 4964TIP3    H236452   5.538   2.093  -0.003  1.3608 -0.0891 -0.9207
 4965TIP3   OH236453   4.949   0.653   0.806 -0.5421  0.0884 -0.0106
 4965TIP3    H136454   5.022   0.591   0.803  0.3879  0.8960  2.8000
 4965TIP3    H236455   4.910   0.648   0.719  1.5923 -1.8879 -0.9682
 4966TIP3   OH236456   5.788   6.421   8.378  0.3288  0.4521 -0.6239
 4966TIP3    H136457   5.794   6.423   8.282 -2.3327  0.3829 -0.8581
 4966TIP3    H236458   5.819   6.507   8.406 -1.3726  1.5114 -1.7948
 4967TIP3   OH236459   2.044   3.099   7.203 -0.1812  0.7604  0.0900
 4967TIP3    H136460   2.083   3.087   7.290  1.6940  1.6112 -0.5726
 4967TIP3    H236461   1.961   3.144   7.220  0.1335  0.8716  1.4471
 4968TIP3   OH236462   3.561   2.136   0.459 -0.4942 -0.4851 -0.1044
 4968TIP3    H136463   3.476   2.180   0.465 -0.0839  0.2591  0.3702
 4968TIP3    H236464   3.623   2.199   0.493  0.3595 -0.7423 -1.1399
 4969TIP3   OH236465   5.681   1.294   6.630  0.2027 -0.3000 -0.3029
 4969TIP3    H136466   5.663   1.240   6.554 -0.6380 -1.5908  0.7564
 4969TIP3    H236467   5.769   1.267   6.658 -0.2306 -1.1835  0.2461
 4970TIP3   OH236468   1.654   2.085   7.604 -0.1949  0.2558 -0.2355
 4970TIP3    H136469   1.575   2.074   7.657  0.1923  0.5266  0.4045
 4970TIP3    H236470   1.659   2.180   7.588  0.2083  0.2880  0.0596
 4971TIP3   OH236471   1.970   0.488   7.048  0.7540 -0.3919  0.7938
 4971TIP3    H136472   1.887   0.521   7.082 -0.3603  0.2214 -2.1469
 4971TIP3    H236473   1.970   0.395   7.070 -2.1485 -1.0546 -1.4375
 4972TIP3   OH236474   1.190   0.398   0.927  0.6729 -0.4743  0.1852
 4972TIP3    H136475   1.178   0.341   1.003  0.4156  0.8125  1.1515
 4972TIP3    H236476   1.163   0.344   0.852 -0.8335 -1.2005  1.1893
 4973TIP3   OH236477   1.116   0.769   7.768  0.4070  0.0261  0.1283
 4973TIP3    H136478   1.068   0.836   7.719 -0.1697 -0.5965 -0.1786
 4973TIP3    H236479   1.052   0.737   7.832 -0.4794 -2.5175 -1.8359
 4974TIP3   OH236480   2.673   0.308   7.593  0.0533 -0.4480 -0.1411
 4974TIP3    H136481   2.736   0.379   7.580 -1.1589  0.6289 -0.3826
 4974TIP3    H236482   2.727   0.231   7.610  1.4246  0.4446 -0.2529
 4975TIP3   OH236483   0.857   4.875   2.168 -0.0570  0.2258 -0.4518
 4975TIP3    H136484   0.907   4.872   2.250 -0.4537 -0.9357 -0.2272
 4975TIP3    H236485   0.871   4.963   2.135  1.6166  0.1512 -0.0664
 4976TIP3   OH236486   1.453   1.592   0.015 -1.2363 -0.5668 -0.5385
 4976TIP3    H136487   1.493   1.509   0.043  1.0350  1.1320  1.7871
 4976TIP3    H236488   1.514   1.628  -0.049  0.7504  1.5360  2.2380
 4977TIP3   OH236489   5.220   6.773   6.639 -0.3824  0.3267 -0.0157
 4977TIP3    H136490   5.276   6.839   6.681  0.0746 -1.2695  2.0712
 4977TIP3    H236491   5.280   6.702   6.616 -1.2179 -0.4584  0.1759
 4978TIP3   OH236492   1.183   0.681   7.226 -0.3149 -0.1777  0.3432
 4978TIP3    H136493   1.088   0.673   7.218 -0.1728 -1.3093 -0.4338
 4978TIP3    H236494   1.196   0.714   7.315 -1.3795 -1.2374  0.9211
 4979TIP3   OH236495   1.923   5.097   7.022 -0.3492 -0.1874 -0.3631
 4979TIP3    H136496   1.879   5.076   6.940  0.4453 -1.0042 -0.5946
 4979TIP3    H236497   2.012   5.064   7.011 -0.0025  0.3840  0.5371
 4980TIP3   OH236498   6.785   1.331   7.868 -0.0833  0.5724 -0.2360
 4980TIP3    H136499   6.850   1.263   7.890 -0.0549  1.1885  1.7567
 4980TIP3    H236500   6.830   1.413   7.885 -1.1190  1.0269  0.3781
 4981TIP3   OH236501   4.875   3.125   7.570 -0.3832  0.2221  0.4137
 4981TIP3    H136502   4.894   3.195   7.506 -1.0842  1.6777  1.7373
 4981TIP3    H236503   4.780   3.122   7.574 -0.4403 -2.2037 -1.0326
 4982TIP3   OH236504   5.715   0.092   1.777  0.1044  0.1299  0.5583
 4982TIP3    H136505   5.662   0.172   1.774 -0.3310 -0.1588  0.4041
 4982TIP3    H236506   5.781   0.110   1.844  0.3778  0.8405  0.1056
 4983TIP3   OH236507   6.304   3.365   0.207  0.1524 -0.6365  0.1409
 4983TIP3    H136508   6.279   3.407   0.290 -1.8844  2.0453 -1.6528
 4983TIP3    H236509   6.338   3.436   0.153  1.3992 -2.2960 -1.4063
 4984TIP3   OH236510   1.823   3.271   8.379 -0.3177  0.2138 -0.7154
 4984TIP3    H136511   1.806   3.341   8.441  1.7831 -1.5372  2.0941
 4984TIP3    H236512   1.894   3.304   8.324 -0.1380  0.7153 -0.1901
 4985TIP3   OH236513   4.206   0.809   7.275 -0.4838 -0.5037  0.0132
 4985TIP3    H136514   4.135   0.804   7.212  0.6524  1.1071 -1.5035
 4985TIP3    H236515   4.193   0.892   7.321 -0.8654 -1.3006  1.4290
 4986TIP3   OH236516   1.915   2.116   6.935 -0.2985  0.2904 -0.0833
 4986TIP3    H136517   1.951   2.034   6.901 -0.3916  0.6490 -1.0638
 4986TIP3    H236518   1.830   2.125   6.892 -1.1030  0.0140  1.3714
 4987TIP3   OH236519   2.022   4.655   0.951  0.3002 -0.1876 -0.6577
 4987TIP3    H136520   2.063   4.575   0.983  0.4187  0.0506 -0.2014
 4987TIP3    H236521   1.932   4.650   0.985  0.4574  0.1178 -0.1854
 4988TIP3   OH236522   5.207   1.254   1.405 -0.2942 -0.3496  0.5322
 4988TIP3    H136523   5.141   1.189   1.381 -0.5862 -0.0870  0.5998
 4988TIP3    H236524   5.196   1.265   1.500 -0.0102 -0.4559  0.5786
 4989TIP3   OH236525   4.150   3.483   1.222 -0.1249 -0.8448 -0.0578
 4989TIP3    H136526   4.142   3.551   1.288  1.7403 -0.7234  0.1032
 4989TIP3    H236527   4.170   3.403   1.271  1.5487 -0.6987 -0.4424
 4990TIP3   OH236528   2.209   3.933   2.300 -0.4151 -0.3259  0.2571
 4990TIP3    H136529   2.281   3.956   2.241 -0.1423 -0.0420  0.6898
 4990TIP3    H236530   2.131   3.964   2.255 -0.1610  0.3855  0.2835
 4991TIP3   OH236531   4.287   6.320   8.597  0.6842  0.2709 -0.4496
 4991TIP3    H136532   4.327   6.387   8.541  0.1686  0.7200 -0.2824
 4991TIP3    H236533   4.228   6.272   8.539  1.6686 -0.5964 -0.7730
 4992TIP3   OH236534   2.752   4.111   7.798 -0.2093 -1.3704 -0.2328
 4992TIP3    H136535   2.812   4.183   7.775 -1.6094 -0.4001 -1.0219
 4992TIP3    H236536   2.743   4.061   7.717 -0.6588 -1.3445 -0.2021
 4993TIP3   OH236537   2.273   5.925   7.949  0.3241  0.2072 -0.2182
 4993TIP3    H136538   2.262   5.835   7.918 -0.0613  0.0804  0.2691
 4993TIP3    H236539   2.364   5.947   7.929 -0.1825  0.5273 -2.4352
 4994TIP3   OH236540   0.494   4.657   1.661  0.1659 -0.1343 -0.4560
 4994TIP3    H136541   0.580   4.634   1.696 -0.2612 -2.0458 -0.5376
 4994TIP3    H236542   0.435   4.648   1.736  0.0816  1.6745 -0.2724
 4995TIP3   OH236543   6.875   0.364   7.747  0.6798 -0.1270 -0.5128
 4995TIP3    H136544   6.970   0.359   7.753  0.5314 -1.3638  2.2380
 4995TIP3    H236545   6.851   0.293   7.687  1.4048 -1.1170  0.3396
 4996TIP3   OH236546   6.333   1.017   6.950  0.1340 -0.0385 -0.2181
 4996TIP3    H136547   6.423   1.050   6.955  0.4765 -0.8393 -0.8585
 4996TIP3    H236548   6.337   0.929   6.987 -0.5747  0.2558  0.5849
 4997TIP3   OH236549   1.690   4.105   1.622  0.4497  0.3368 -0.2652
 4997TIP3    H136550   1.774   4.066   1.648  0.7363  0.5597 -0.8491
 4997TIP3    H236551   1.696   4.115   1.527  0.1280  1.2032 -0.2024
 4998TIP3   OH236552   0.982   1.263   1.519 -0.4707 -0.1971  0.0659
 4998TIP3    H136553   0.893   1.241   1.549 -0.8861  2.1169  0.6793
 4998TIP3    H236554   0.997   1.352   1.551  0.4565  1.1095 -3.5417
 4999TIP3   OH236555   5.784   4.850   6.336 -0.2771  0.8558 -0.3952
 4999TIP3    H136556   5.784   4.922   6.400 -0.5786  0.2224  0.3279
 4999TIP3    H236557   5.832   4.780   6.380 -0.7146  0.3208 -0.7659
 5000TIP3   OH236558   4.010   2.975   8.204 -0.6444 -0.3039 -0.1320
 5000TIP3    H136559   4.011   2.899   8.262 -1.6721 -0.4891 -0.3384
 5000TIP3    H236560   4.101   3.007   8.205 -0.6212 -0.3177  1.5367
 5001TIP3   OH236561   0.916   5.359   0.155  0.1297  0.5590 -0.2229
 5001TIP3    H136562   0.889   5.359   0.247  0.2651  0.6409 -0.1814
 5001TIP3    H236563   0.885   5.276   0.121 -1.0902  1.0936 -0.4572
 5002TIP3   OH236564   3.267   1.316   1.887  0.3286  0.0758  0.2736
 5002TIP3    H136565   3.224   1.351   1.965 -0.4566  1.2704 -0.6582
 5002TIP3    H236566   3.298   1.393   1.839  1.9488 -0.6948  0.0161
 5003TIP3   OH236567   2.270   3.243   7.202 -0.5029  0.2000  0.4560
 5003TIP3    H136568   2.243   3.327   7.166 -0.5691  0.9094  2.0627
 5003TIP3    H236569   2.196   3.185   7.183 -0.8889  0.7624  0.1951
 5004TIP3   OH236570   6.121   6.474   1.395  0.2601 -0.0631  0.6880
 5004TIP3    H136571   6.113   6.565   1.423 -2.3174 -0.4430  1.4735
 5004TIP3    H236572   6.044   6.459   1.340  0.0501 -2.0318  1.4236
 5005TIP3   OH236573   6.841   5.608   2.413 -0.1941 -0.1153  0.5375
 5005TIP3    H136574   6.936   5.599   2.403 -0.1485  0.5443  0.3155
 5005TIP3    H236575   6.819   5.687   2.364 -0.8868 -0.3535  0.4526
 5006TIP3   OH236576   0.066   2.063   2.416 -0.4277 -0.1338  0.0627
 5006TIP3    H136577   0.150   2.069   2.369 -0.6827 -1.0645 -0.5595
 5006TIP3    H236578   0.090   2.049   2.507  0.0854  1.0134  0.1119
 5007TIP3   OH236579   0.936   3.147   1.773 -0.2872  0.3311 -0.2449
 5007TIP3    H136580   0.872   3.198   1.724 -0.9716 -0.5355 -0.2617
 5007TIP3    H236581   0.922   3.173   1.864 -0.6424  0.1609 -0.2510
 5008TIP3   OH236582   3.308   4.134   0.328 -0.3889  0.6369  0.0432
 5008TIP3    H136583   3.358   4.197   0.276  0.6852  0.2179  0.5220
 5008TIP3    H236584   3.276   4.184   0.402 -0.8424  0.9552 -0.3671
 5009TIP3   OH236585   0.558   4.264   0.963 -0.0403  0.5103 -0.0489
 5009TIP3    H136586   0.560   4.258   1.058  3.5246  0.5759  0.0107
 5009TIP3    H236587   0.552   4.358   0.945 -1.0482  0.4778  0.0767
 5010TIP3   OH236588   6.857   1.107   8.058  0.2511  0.0170 -0.0032
 5010TIP3    H136589   6.838   1.044   8.128  1.6264 -1.0684 -0.5522
 5010TIP3    H236590   6.925   1.065   8.006  1.0023  1.8390 -0.5855
 5011TIP3   OH236591   5.358   2.793   6.956 -0.2900 -0.0061 -0.8297
 5011TIP3    H136592   5.301   2.764   7.027 -0.1753 -1.3128 -1.2441
 5011TIP3    H236593   5.323   2.878   6.930 -0.8886  0.0658  0.1773
 5012TIP3   OH236594   2.082   3.871   1.162  0.0145  0.2902  0.4721
 5012TIP3    H136595   2.153   3.836   1.108 -0.6695 -2.7856  1.4001
 5012TIP3    H236596   2.115   3.868   1.251 -1.2066 -1.1213  0.9111
 5013TIP3   OH236597   6.523   5.692   6.467  0.0860  0.2717 -0.2400
 5013TIP3    H136598   6.525   5.760   6.399 -0.6393  0.9482  0.4021
 5013TIP3    H236599   6.477   5.732   6.540  0.8497 -0.4583  0.6656
 5014TIP3   OH236600   1.754   2.674   8.175 -0.0294  0.3365 -0.6187
 5014TIP3    H136601   1.834   2.648   8.129  0.4082 -2.6417  1.5009
 5014TIP3    H236602   1.780   2.678   8.267 -1.9244  1.3037 -0.0708
 5015TIP3   OH236603   3.908   3.886   1.126  0.1900 -0.3091 -0.3968
 5015TIP3    H136604   3.880   3.825   1.058 -1.6974  0.0984 -0.0224
 5015TIP3    H236605   3.950   3.958   1.078  1.6883 -1.4506 -0.8838
 5016TIP3   OH236606   2.636   0.315   2.503 -0.2094  0.0587 -0.0861
 5016TIP3    H136607   2.692   0.296   2.428  2.3893 -0.6156  1.8681
 5016TIP3    H236608   2.649   0.408   2.520  1.1772 -0.2844  0.9262
 5017TIP3   OH236609   4.146   6.529   6.965  0.4767  0.1120  0.1260
 5017TIP3    H136610   4.069   6.576   6.997 -1.8114 -2.2796 -1.4349
 5017TIP3    H236611   4.153   6.453   7.022  2.1342  0.5850  0.6130
 5018TIP3   OH236612   6.536   2.738   8.362  0.1252  0.0086 -0.1945
 5018TIP3    H136613   6.446   2.771   8.359 -0.5607 -1.0900  3.5327
 5018TIP3    H236614   6.589   2.815   8.382 -0.2045  0.3614 -0.6524
 5019TIP3   OH236615   6.704   6.173   7.993  0.5335  0.1153 -0.0459
 5019TIP3    H136616   6.777   6.235   7.994  1.2867 -0.7411 -0.7632
 5019TIP3    H236617   6.745   6.087   7.989 -0.4815 -0.3334 -2.8004
 5020TIP3   OH236618   2.658   4.061   1.010  0.2234 -0.0489 -0.2747
 5020TIP3    H136619   2.661   4.021   1.097 -1.6623 -0.9921 -0.5804
 5020TIP3    H236620   2.710   4.003   0.954 -0.0553 -0.4401 -0.1286
 5021TIP3   OH236621   4.143   3.371   0.233  0.2343 -0.4687 -0.5509
 5021TIP3    H136622   4.104   3.402   0.152 -0.6922 -1.4609 -0.5136
 5021TIP3    H236623   4.100   3.288   0.250  0.9430 -0.6321  0.5762
 5022TIP3   OH236624   1.116   4.147   0.858 -0.0608  0.5401 -0.5051
 5022TIP3    H136625   1.146   4.114   0.943  1.2005  1.2146 -0.6561
 5022TIP3    H236626   1.105   4.241   0.871  0.1437  0.6489 -1.0823
 5023TIP3   OH236627   5.283   0.508   0.573  0.5297 -0.3299  0.5750
 5023TIP3    H136628   5.263   0.601   0.580  2.6106  0.3608 -1.2790
 5023TIP3    H236629   5.379   0.504   0.563  0.3785 -2.4961 -0.9932
 5024TIP3   OH236630   1.247   6.839   2.469  0.5113  0.4503  0.3908
 5024TIP3    H136631   1.328   6.879   2.500  1.8075 -1.5760 -0.2202
 5024TIP3    H236632   1.269   6.803   2.383 -0.4203 -1.8797  1.0459
 5025TIP3   OH236633   5.207   6.397   1.029 -0.2913 -0.0809  0.0906
 5025TIP3    H136634   5.123   6.355   1.012 -0.6146  0.2241  0.9084
 5025TIP3    H236635   5.225   6.448   0.950 -0.3468 -0.9951 -0.5280
 5026TIP3   OH236636   0.310   0.190   0.124 -0.1820 -0.4951 -0.2108
 5026TIP3    H136637   0.280   0.100   0.140  0.1208 -0.7137 -0.8563
 5026TIP3    H236638   0.230   0.242   0.131 -0.5798 -0.9704 -1.0538
 5027TIP3   OH236639   3.859   0.786   8.607 -0.3384  0.0948  0.9227
 5027TIP3    H136640   3.879   0.862   8.553 -1.1670 -0.2479  0.1012
 5027TIP3    H236641   3.874   0.815   8.697  3.8133 -0.1320  0.4860
 5028TIP3   OH236642   6.670   0.828   6.934  0.1816 -0.5738 -0.0806
 5028TIP3    H136643   6.670   0.916   6.971  0.7132 -1.2650  1.6740
 5028TIP3    H236644   6.729   0.833   6.859  0.0070  0.6067 -0.1560
 5029TIP3   OH236645   0.640   3.569   7.679  0.4889  0.4030 -0.2207
 5029TIP3    H136646   0.671   3.479   7.685  1.9487  0.8523 -0.4674
 5029TIP3    H236647   0.560   3.564   7.627 -2.4867 -1.3578  4.0114
 5030TIP3   OH236648   2.656   5.271   2.646  0.2946 -0.0947 -0.2348
 5030TIP3    H136649   2.660   5.276   2.550  0.0123 -0.7121 -0.2789
 5030TIP3    H236650   2.584   5.212   2.664  1.3031 -1.1863  0.3462
 5031TIP3   OH236651   1.316   2.703   6.340  1.1528  0.4855  0.1231
 5031TIP3    H136652   1.342   2.611   6.334  1.1043  0.4288  0.7027
 5031TIP3    H236653   1.393   2.747   6.375  0.3163  0.2100  2.5017
 5032TIP3   OH236654   0.270   1.907   0.159  0.4833 -0.2818 -0.6253
 5032TIP3    H136655   0.316   1.846   0.216  2.4542 -0.6298 -2.4553
 5032TIP3    H236656   0.259   1.986   0.212  0.5414 -1.2259  0.8193
 5033TIP3   OH236657   6.298   3.760   8.307 -0.1621 -0.1372  0.6319
 5033TIP3    H136658   6.209   3.771   8.274  0.3019  1.3058 -0.2180
 5033TIP3    H236659   6.325   3.673   8.275 -0.9244 -0.1878  0.1004
 5034TIP3   OH236660   5.423   6.001   7.636 -0.2497 -0.1774 -0.9249
 5034TIP3    H136661   5.337   6.008   7.593 -0.4290 -1.2689 -0.7953
 5034TIP3    H236662   5.486   6.029   7.570 -0.6283 -0.5164 -1.4408
 5035TIP3   OH236663   3.670   6.254   1.206  0.2431 -0.1778  0.4571
 5035TIP3    H136664   3.578   6.280   1.202  0.3385  0.1394  0.3403
 5035TIP3    H236665   3.711   6.320   1.263  0.4161 -0.2667  0.4352
 5036TIP3   OH236666   6.426   1.249   0.145 -0.5673  0.2378 -0.8246
 5036TIP3    H136667   6.373   1.201   0.209 -0.0957  1.8159  0.8358
 5036TIP3    H236668   6.382   1.233   0.061 -2.3562 -0.3226  0.1531
 5037TIP3   OH236669   6.652   3.094   2.456 -0.1605  0.5019 -0.1863
 5037TIP3    H136670   6.598   3.015   2.453  0.8075 -0.1502 -1.1600
 5037TIP3    H236671   6.737   3.064   2.486  0.0206  1.3216  0.1600
 5038TIP3   OH236672   5.572   0.821   6.608  0.7987 -0.0824  0.8258
 5038TIP3    H136673   5.489   0.789   6.572 -0.2914 -0.5320  3.4926
 5038TIP3    H236674   5.637   0.758   6.577 -0.4444 -1.7953  1.5068
 5039TIP3   OH236675   1.236   0.885   0.927  0.6339  0.0490  0.3248
 5039TIP3    H136676   1.188   0.968   0.933 -0.3402 -0.4796  0.0450
 5039TIP3    H236677   1.170   0.818   0.946  1.1667 -0.7286 -0.4875
 5040TIP3   OH236678   4.933   5.555   1.044 -0.3623 -0.1927  0.5394
 5040TIP3    H136679   4.981   5.608   1.109  2.8222 -2.0520 -0.0690
 5040TIP3    H236680   4.885   5.619   0.992  1.2236  1.8632  1.4444
 5041TIP3   OH236681   5.020   6.538   1.444  0.0327 -0.1243  0.0842
 5041TIP3    H136682   5.050   6.489   1.521  1.6964 -0.4593 -0.7415
 5041TIP3    H236683   5.049   6.628   1.460  2.0991 -0.5509 -0.9607
 5042TIP3   OH236684   1.348   2.092   1.776  0.0290 -0.7323  0.7742
 5042TIP3    H136685   1.324   2.112   1.866 -2.3037 -0.6979  0.1950
 5042TIP3    H236686   1.352   2.177   1.732 -0.2390 -0.8479  0.5233
 5043TIP3   OH236687   4.143   2.698   6.365 -0.1484 -0.2532  0.2122
 5043TIP3    H136688   4.147   2.792   6.345  0.7416 -0.0018  1.4122
 5043TIP3    H236689   4.207   2.687   6.436 -0.4045 -1.7330  0.2275
 5044TIP3   OH236690   0.929   3.994   8.135 -0.0840 -0.2872  0.4921
 5044TIP3    H136691   1.023   3.977   8.144 -0.0667 -0.2332  0.4191
 5044TIP3    H236692   0.887   3.913   8.163 -0.0539  0.1207  1.7740
 5045TIP3   OH236693   1.397   5.285   0.551 -0.1955 -0.4630  0.2404
 5045TIP3    H136694   1.467   5.220   0.559  0.9973  0.8426  0.7398
 5045TIP3    H236695   1.358   5.268   0.465  0.6545 -1.2810  0.0023
 5046TIP3   OH236696   3.563   4.921   7.217 -0.7884  0.5628 -0.0670
 5046TIP3    H136697   3.543   4.852   7.152  4.5124 -0.9526 -0.5398
 5046TIP3    H236698   3.508   4.899   7.292 -0.9307 -2.9750 -1.0120
 5047TIP3   OH236699   1.431   2.829   8.373 -0.0752  0.1207  0.6944
 5047TIP3    H136700   1.496   2.884   8.329 -1.1478  0.0597 -1.0695
 5047TIP3    H236701   1.472   2.743   8.378  0.1633  0.1860  0.0018
 5048TIP3   OH236702   1.458   2.286   7.572 -0.3008 -0.2282  0.1365
 5048TIP3    H136703   1.516   2.362   7.571  0.5382 -0.8464  0.2966
 5048TIP3    H236704   1.391   2.307   7.636 -2.0464  1.7719 -2.1426
 5049TIP3   OH236705   0.444   0.105   1.893 -0.1760 -0.2136 -0.1126
 5049TIP3    H136706   0.387   0.066   1.960  0.1575  0.4546  0.5679
 5049TIP3    H236707   0.424   0.199   1.897  0.2010 -0.1117 -0.6184
 5050TIP3   OH236708   6.000   1.592   0.688  0.4333  0.7874  0.5649
 5050TIP3    H136709   5.989   1.686   0.701  0.3012  0.9358 -0.4758
 5050TIP3    H236710   6.086   1.584   0.646  0.1310  0.5151 -0.0060
 5051TIP3   OH236711   4.661   0.561   1.875  0.1913 -0.1469  0.0206
 5051TIP3    H136712   4.697   0.634   1.926 -1.3616 -0.3523  1.4773
 5051TIP3    H236713   4.583   0.597   1.833 -0.3899 -0.8766  0.4635
 5052TIP3   OH236714   6.633   4.038   0.184  0.2511 -0.3578  0.4388
 5052TIP3    H136715   6.640   3.943   0.173  1.8777 -0.3538  1.1691
 5052TIP3    H236716   6.549   4.051   0.229 -0.1758 -1.3998 -0.0275
 5053TIP3   OH236717   4.817   4.732   6.957 -0.0223 -0.3222  0.6600
 5053TIP3    H136718   4.827   4.661   7.021  0.5485  0.5237  1.5316
 5053TIP3    H236719   4.776   4.690   6.881  0.5275 -1.6323  1.0657
 5054TIP3   OH236720   4.089   3.069   7.744  0.2329 -0.8491 -0.2615
 5054TIP3    H136721   4.051   3.091   7.829 -0.3749 -0.3992 -0.6400
 5054TIP3    H236722   4.021   3.091   7.680  0.5952 -1.3812 -0.8564
 5055TIP3   OH236723   1.984   3.988   0.881  0.0630 -0.7085  0.0169
 5055TIP3    H136724   2.079   3.991   0.880  0.2215 -1.8597  2.8187
 5055TIP3    H236725   1.961   3.925   0.813  0.9070  2.4357 -3.5680
 5056TIP3   OH236726   3.893   3.436   0.482  0.0873 -0.0814  0.4852
 5056TIP3    H136727   3.830   3.473   0.544 -0.8839 -0.7859 -0.0573
 5056TIP3    H236728   3.928   3.359   0.527  0.4052  0.1846  0.6985
 5057TIP3   OH236729   3.260   6.560   7.004  0.0893  0.0059 -0.4499
 5057TIP3    H136730   3.222   6.637   7.046  0.7297 -0.3279  0.7822
 5057TIP3    H236731   3.188   6.522   6.953 -1.0593 -0.2307  1.2718
 5058TIP3   OH236732   2.954   6.198   0.586 -0.2362 -0.7813 -0.1481
 5058TIP3    H136733   2.901   6.173   0.661 -0.8406 -0.3093 -0.4097
 5058TIP3    H236734   2.891   6.224   0.519  0.3230  0.6356 -0.1743
 5059TIP3   OH236735   0.284   2.507   0.831 -0.1616  0.2536  0.4600
 5059TIP3    H136736   0.345   2.545   0.894  0.1059  1.0223 -0.2475
 5059TIP3    H236737   0.266   2.420   0.866  2.1318 -0.4042  0.1868
 5060TIP3   OH236738   6.013   2.515   1.591 -0.3391 -0.2803 -0.1308
 5060TIP3    H136739   6.027   2.498   1.498  0.0756  0.6959 -0.2587
 5060TIP3    H236740   5.982   2.431   1.627 -0.3614 -0.7000 -1.1121
 5061TIP3   OH236741   6.380   4.389   7.245 -0.1247 -0.7058 -0.1514
 5061TIP3    H136742   6.361   4.460   7.184 -1.0564  0.0752  0.9919
 5061TIP3    H236743   6.402   4.314   7.190 -2.0348 -0.3553 -1.4721
 5062TIP3   OH236744   3.199   2.415   8.652 -0.1681  0.5238 -0.0923
 5062TIP3    H136745   3.166   2.401   8.563 -1.0257 -2.7145  0.6263
 5062TIP3    H236746   3.291   2.437   8.639 -0.5071  1.1793 -1.7905
 5063TIP3   OH236747   5.861   2.475   7.722  0.2591 -0.1525  0.8986
 5063TIP3    H136748   5.858   2.384   7.693  0.9744  0.4124 -1.0902
 5063TIP3    H236749   5.952   2.501   7.709 -0.4748  1.6374 -1.2814
 5064TIP3   OH236750   4.623   6.832   0.538  0.4927 -0.2995 -0.1361
 5064TIP3    H136751   4.546   6.799   0.584 -0.3958  0.0928 -1.3165
 5064TIP3    H236752   4.624   6.926   0.557  2.7234 -0.7660  2.7839
 5065TIP3   OH236753   0.365   4.833   2.289  0.1587  0.5939 -0.4577
 5065TIP3    H136754   0.448   4.872   2.262  1.0523 -0.5783  0.4347
 5065TIP3    H236755   0.387   4.787   2.371 -1.3770  0.2563 -0.2118
 5066TIP3   OH236756   2.973   1.082   8.618  0.8592  0.6065 -0.2205
 5066TIP3    H136757   3.021   1.003   8.596  1.4451  0.3791  1.6933
 5066TIP3    H236758   2.886   1.069   8.578  0.4529 -1.6757  1.2171
 5067TIP3   OH236759   4.655   4.006   7.972 -0.4489 -0.0677  0.1819
 5067TIP3    H136760   4.624   4.021   8.061 -0.1498 -1.0715  0.4731
 5067TIP3    H236761   4.692   3.918   7.974 -0.7822 -0.2609 -1.0296
 5068TIP3   OH236762   5.950   3.113   6.843 -0.3518  0.3537  0.9184
 5068TIP3    H136763   5.863   3.096   6.806 -0.1511  0.8299  0.2138
 5068TIP3    H236764   5.983   3.187   6.792  0.7403 -0.2400  0.7451
 5069TIP3   OH236765   3.374   2.775   8.000  0.2022 -0.2152 -0.0230
 5069TIP3    H136766   3.351   2.800   7.910  0.0956 -0.9351 -0.1988
 5069TIP3    H236767   3.289   2.767   8.044  0.2825  1.0580  0.4053
 5070TIP3   OH236768   5.235   6.873   8.084  0.3564 -0.1315  0.4012
 5070TIP3    H136769   5.280   6.950   8.049 -1.0498  0.9184  0.8324
 5070TIP3    H236770   5.143   6.897   8.084  0.2063 -0.1508  4.5447
 5071TIP3   OH236771   3.226   3.490   1.325  0.5128  0.6365 -0.4773
 5071TIP3    H136772   3.294   3.477   1.258  1.4034  0.2867  0.4713
 5071TIP3    H236773   3.162   3.548   1.283  2.0824  2.1246 -0.9423
 5072TIP3   OH236774   4.365   3.256   7.080 -0.4286 -0.5053  0.0870
 5072TIP3    H136775   4.366   3.163   7.057 -0.5201 -0.6838  0.7752
 5072TIP3    H236776   4.442   3.292   7.036 -2.0726 -0.2243 -2.8369
 5073TIP3   OH236777   0.947   4.287   1.029 -0.5598  0.8733 -0.3724
 5073TIP3    H136778   0.922   4.313   0.940 -1.1272 -0.5973 -0.6843
 5073TIP3    H236779   0.887   4.215   1.049 -1.3794  2.0761  1.7623
 5074TIP3   OH236780   1.793   2.604   0.798  0.1459 -0.0328 -0.2751
 5074TIP3    H136781   1.749   2.684   0.769 -2.4765 -0.6808  1.5027
 5074TIP3    H236782   1.742   2.533   0.760 -0.2139 -0.8344  1.6004
 5075TIP3   OH236783   4.225   4.142   6.421  0.7285  0.4251  0.1543
 5075TIP3    H136784   4.317   4.118   6.425  0.5991  0.0088  0.6784
 5075TIP3    H236785   4.222   4.215   6.358  1.2921 -0.1289 -0.5337
 5076TIP3   OH236786   0.685   5.746   8.497 -0.1409  0.2777  0.3757
 5076TIP3    H136787   0.742   5.713   8.566 -1.5059 -1.1029  0.9060
 5076TIP3    H236788   0.642   5.668   8.462 -3.0213  1.3570  1.2363
 5077TIP3   OH236789   6.329   0.518   8.497  0.3785 -0.1155 -0.2370
 5077TIP3    H136790   6.316   0.529   8.403 -1.6026 -0.6353 -0.0668
 5077TIP3    H236791   6.315   0.606   8.533  1.0981  0.0756 -0.3998
 5078TIP3   OH236792   5.350   2.782   7.506 -0.1480 -0.1641 -0.4640
 5078TIP3    H136793   5.394   2.746   7.582 -1.2804  1.6179  1.1336
 5078TIP3    H236794   5.268   2.733   7.500  0.2520 -0.7853 -1.0029
 5079TIP3   OH236795   4.227   0.032   1.573  0.2636 -0.2452  0.6337
 5079TIP3    H136796   4.201   0.035   1.665 -0.3148  1.6024  0.4448
 5079TIP3    H236797   4.317   0.064   1.572 -0.7974  3.0832  0.2778
 5080TIP3   OH236798   5.377   4.857   0.265 -0.4096 -0.0396  0.2253
 5080TIP3    H136799   5.370   4.940   0.312 -1.0569 -0.6125  1.2007
 5080TIP3    H236800   5.321   4.867   0.188 -0.6875  0.3505  0.4763
 5081TIP3   OH236801   1.601   2.201   0.881  0.3864 -0.2173  0.2150
 5081TIP3    H136802   1.581   2.288   0.847 -0.2641 -0.9988 -1.5565
 5081TIP3    H236803   1.640   2.216   0.967  1.6232  1.8643 -0.6651
 5082TIP3   OH236804   5.705   5.576   7.366 -0.1231 -0.0107 -0.1331
 5082TIP3    H136805   5.745   5.631   7.434  0.5088 -0.3825 -0.2047
 5082TIP3    H236806   5.778   5.529   7.326 -0.5647 -0.2672 -0.6523
 5083TIP3   OH236807   4.718   1.996   1.219 -0.7154  0.1414 -0.2413
 5083TIP3    H136808   4.696   2.039   1.302 -2.1023  1.0922 -1.0732
 5083TIP3    H236809   4.658   1.921   1.215  0.0020 -0.4626  0.0351
 5084TIP3   OH236810   4.126   3.276   7.304  0.3065 -0.3586 -0.5595
 5084TIP3    H136811   4.155   3.359   7.265 -0.0783  0.4493  0.8218
 5084TIP3    H236812   4.032   3.288   7.317 -0.1427 -1.7680 -2.0963
 5085TIP3   OH236813   3.896   1.659   8.346  0.5778 -0.0215  0.4421
 5085TIP3    H136814   3.855   1.577   8.319  0.5767 -0.1640  0.8587
 5085TIP3    H236815   3.838   1.694   8.414 -0.1475  1.0240 -0.6774
 5086TIP3   OH236816   1.021   5.546   7.051 -0.3834 -0.0392  0.2894
 5086TIP3    H136817   0.971   5.500   6.983 -3.2081  3.5702 -0.4311
 5086TIP3    H236818   0.956   5.567   7.118  1.2903  0.7423  1.7354
 5087TIP3   OH236819   3.060   1.668   0.333 -0.5126  0.1497  0.1294
 5087TIP3    H136820   2.973   1.695   0.361 -0.5973  2.7137 -2.2319
 5087TIP3    H236821   3.046   1.589   0.281 -1.2964  0.0013  0.5592
 5088TIP3   OH236822   5.061   2.190   0.905 -0.0456  0.1299 -0.2605
 5088TIP3    H136823   5.144   2.233   0.927  0.0146 -0.1558  0.0760
 5088TIP3    H236824   5.013   2.188   0.988 -0.9840  1.5656 -0.7181
 5089TIP3   OH236825   1.896   6.399   7.881  0.2748  0.2156 -0.3634
 5089TIP3    H136826   1.860   6.322   7.838 -0.5662 -0.0586  0.7691
 5089TIP3    H236827   1.941   6.365   7.958  1.7319  0.6945 -0.9714
 5090TIP3   OH236828   0.192   0.318   7.020 -0.1439  0.6434  0.4732
 5090TIP3    H136829   0.280   0.281   7.029  0.4027  1.6251 -0.4821
 5090TIP3    H236830   0.196   0.400   7.069 -0.2365  1.1091 -0.2661
 5091TIP3   OH236831   0.647   0.538   6.523 -0.0380 -0.0852  0.2419
 5091TIP3    H136832   0.676   0.519   6.434  0.1387 -0.3518  0.3542
 5091TIP3    H236833   0.656   0.454   6.570 -2.3582 -0.5812 -0.0839
 5092TIP3   OH236834   6.416   6.577   7.085 -0.2824  0.4518  0.1142
 5092TIP3    H136835   6.328   6.582   7.123  0.2422 -0.5555  1.5477
 5092TIP3    H236836   6.432   6.665   7.050 -3.0461 -0.1324 -3.0859
 5093TIP3   OH236837   4.691   3.356   7.638 -0.3648 -0.7961 -0.8562
 5093TIP3    H136838   4.693   3.390   7.549 -0.4003 -1.2475 -1.0331
 5093TIP3    H236839   4.748   3.414   7.688 -0.6079 -0.3453 -1.1022
 5094TIP3   OH236840   4.281   5.715   1.626 -0.6917  0.6824 -0.0010
 5094TIP3    H136841   4.311   5.756   1.707 -0.5388  0.4972  0.0388
 5094TIP3    H236842   4.240   5.785   1.577 -2.0989  0.5169  0.8658
 5095TIP3   OH236843   6.196   3.312   1.369 -0.1254 -0.0190  0.6500
 5095TIP3    H136844   6.259   3.269   1.310 -1.0334  0.7546 -0.9262
 5095TIP3    H236845   6.138   3.241   1.397 -0.1073 -0.2620  0.0725
 5096TIP3   OH236846   5.756   1.878   0.963 -0.4792  0.4264 -0.1614
 5096TIP3    H136847   5.832   1.842   1.009 -0.1187  0.6578 -0.5745
 5096TIP3    H236848   5.793   1.925   0.888 -1.0729 -0.0458 -0.7548
 5097TIP3   OH236849   0.723   1.176   8.514  0.4231 -0.0555 -1.0108
 5097TIP3    H136850   0.795   1.200   8.572  0.3873  1.1569 -1.4397
 5097TIP3    H236851   0.696   1.258   8.473 -0.9897 -0.5337 -1.1190
 5098TIP3   OH236852   2.499   2.161   6.096 -0.1013 -0.0638 -0.0893
 5098TIP3    H136853   2.431   2.141   6.160 -0.4771 -0.3487 -0.5734
 5098TIP3    H236854   2.540   2.076   6.076  0.4341  0.1116  0.2395
 5099TIP3   OH236855   3.446   2.609   0.058  0.1218  0.2694 -0.0248
 5099TIP3    H136856   3.469   2.576   0.145  2.6426  0.7404 -0.4628
 5099TIP3    H236857   3.361   2.653   0.071 -0.0287 -0.5141  1.9583
 5100TIP3   OH236858   0.724   5.167   1.339 -0.4296 -0.0966  0.0057
 5100TIP3    H136859   0.704   5.188   1.430 -0.4149  2.7028 -0.5289
 5100TIP3    H236860   0.769   5.245   1.306 -0.9549 -0.7726 -2.5573
 5101TIP3   OH236861   2.523   0.618   7.754 -0.2224 -0.0078  0.2916
 5101TIP3    H136862   2.537   0.610   7.848  0.2272 -2.8049  0.0477
 5101TIP3    H236863   2.463   0.547   7.732 -0.3167  0.5828 -1.5735
 5102TIP3   OH236864   6.726   5.870   1.577 -0.0726 -0.9162 -0.2994
 5102TIP3    H136865   6.764   5.913   1.654 -0.2502 -0.6550 -0.3574
 5102TIP3    H236866   6.636   5.850   1.603 -0.4151 -0.0256 -0.7414
 5103TIP3   OH236867   4.239   5.741   1.287  1.1652  0.2489 -0.1411
 5103TIP3    H136868   4.156   5.773   1.251  0.6087 -0.4388  0.4972
 5103TIP3    H236869   4.277   5.817   1.331  0.0288  0.1549  1.0461
 5104TIP3   OH236870   0.064   2.765   1.419 -0.0898  0.6806 -0.5519
 5104TIP3    H136871  -0.000   2.769   1.490  0.5044  1.0001 -0.0179
 5104TIP3    H236872   0.113   2.684   1.435  0.7031  1.2517  0.0016
 5105TIP3   OH236873   1.667   0.565   1.470  0.8131 -0.2235  0.2663
 5105TIP3    H136874   1.753   0.579   1.431 -0.1288  1.1825 -1.5309
 5105TIP3    H236875   1.657   0.636   1.534  0.3717  0.7145 -0.7919
 5106TIP3   OH236876   2.520   5.515   2.640 -0.5155  0.0024  0.0691
 5106TIP3    H136877   2.437   5.497   2.597  0.5317  0.5626 -2.3688
 5106TIP3    H236878   2.569   5.433   2.632 -1.1159 -0.6304  2.3375
 5107TIP3   OH236879   1.761   0.050   6.782  0.7032  0.1867 -0.1155
 5107TIP3    H136880   1.777   0.087   6.696  1.8459  0.2817  0.1206
 5107TIP3    H236881   1.817  -0.028   6.786  1.2654  0.6125  0.8134
 5108TIP3   OH236882   3.990   4.541   8.037  0.4216  0.0151 -0.6312
 5108TIP3    H136883   4.021   4.498   8.117  0.5804  1.0495 -0.1297
 5108TIP3    H236884   3.902   4.504   8.022  0.9305 -1.1904 -0.7598
 5109TIP3   OH236885   5.786   1.301   0.101 -0.0980 -0.1068  0.1934
 5109TIP3    H136886   5.787   1.388   0.060 -0.9739  1.1953  2.7127
 5109TIP3    H236887   5.827   1.244   0.036  1.8217  2.4177 -1.0060
 5110TIP3   OH236888   5.050   2.893   6.051 -0.0505 -0.0817 -0.0933
 5110TIP3    H136889   5.035   2.958   5.982  2.9837  0.0452 -0.7760
 5110TIP3    H236890   5.134   2.917   6.089  1.3078 -3.5767 -0.4587
 5111TIP3   OH236891   4.589   6.841   0.261 -0.6579  0.2593  0.0846
 5111TIP3    H136892   4.585   6.827   0.355 -3.3001  0.2603  0.0440
 5111TIP3    H236893   4.504   6.877   0.238 -0.2341 -0.0956 -2.3764
 5112TIP3   OH236894   0.450   5.531   1.430 -0.4453 -0.2374  0.0982
 5112TIP3    H136895   0.480   5.533   1.521  0.4634  1.7248 -0.2066
 5112TIP3    H236896   0.529   5.538   1.377 -1.0554 -0.1793 -0.8418
 5113TIP3   OH236897   5.481   1.136   7.185 -0.0598 -0.2115  0.6215
 5113TIP3    H136898   5.546   1.153   7.253 -0.5615  0.0468  1.0424
 5113TIP3    H236899   5.440   1.053   7.212 -0.3989 -0.0053  0.7491
 5114TIP3   OH236900   2.636   4.779   0.623  0.1368  0.0506  0.2463
 5114TIP3    H136901   2.615   4.686   0.629  2.3484 -0.4816  0.4888
 5114TIP3    H236902   2.646   4.807   0.714 -1.6261  0.8556  0.2381
 5115TIP3   OH236903   6.506   6.445   2.260  0.3814  0.3614 -0.2869
 5115TIP3    H136904   6.431   6.486   2.304 -0.7450 -0.6214 -1.2188
 5115TIP3    H236905   6.557   6.518   2.226 -0.4933  1.0488 -0.1739
 5116TIP3   OH236906   4.853   3.335   1.045  0.4505 -0.3601  0.2930
 5116TIP3    H136907   4.863   3.271   1.115  0.6480 -1.1182 -0.4187
 5116TIP3    H236908   4.759   3.356   1.045  0.4728 -0.2549  0.8618
 5117TIP3   OH236909   4.798   5.772   0.998 -0.0200 -0.3016 -0.9062
 5117TIP3    H136910   4.861   5.837   0.968 -0.4710  0.9821  0.7860
 5117TIP3    H236911   4.713   5.816   0.993 -0.3477 -0.7683  0.1209
 5118TIP3   OH236912   5.202   0.996   0.369 -0.3223  1.0587 -0.0865
 5118TIP3    H136913   5.242   1.062   0.426  1.0337  1.3782 -1.3422
 5118TIP3    H236914   5.196   0.918   0.424  1.6514  1.1407  0.3515
 5119TIP3   OH236915   1.300   5.388   1.501 -0.3118 -0.1385 -0.1525
 5119TIP3    H136916   1.247   5.444   1.557 -2.5086 -0.6588 -1.5886
 5119TIP3    H236917   1.315   5.441   1.422 -1.4452 -1.1197 -1.0533
 5120TIP3   OH236918   2.750   4.372   1.257 -0.0810 -0.2704 -0.0375
 5120TIP3    H136919   2.659   4.348   1.242 -0.6112  0.9230  1.0571
 5120TIP3    H236920   2.749   4.415   1.342  1.6496 -0.9587  0.3765
 5121TIP3   OH236921   3.714   3.205   8.189 -0.2537 -0.4808 -0.0951
 5121TIP3    H136922   3.648   3.199   8.119 -0.2075 -1.2186 -0.0810
 5121TIP3    H236923   3.755   3.291   8.176 -0.1924 -0.6426 -1.0314
 5122TIP3   OH236924   1.911   4.927   1.843  0.1448 -0.1990 -0.4759
 5122TIP3    H136925   1.874   4.902   1.758 -1.7079  2.2355 -0.4693
 5122TIP3    H236926   2.006   4.924   1.829 -0.0762 -1.6094 -2.0414
 5123TIP3   OH236927   6.681   2.769   0.802  0.0349  0.2114  0.1985
 5123TIP3    H136928   6.770   2.759   0.768  0.5221  0.8507  1.2447
 5123TIP3    H236929   6.654   2.856   0.773 -0.2578  0.0149 -0.1230
 5124TIP3   OH236930   2.516   2.438   7.267 -1.0662 -0.5723  0.2539
 5124TIP3    H136931   2.463   2.504   7.223  0.5881  0.2966 -0.5236
 5124TIP3    H236932   2.471   2.355   7.250 -1.8151  0.0634 -0.9203
 5125TIP3   OH236933   5.826   1.637   1.132 -0.0833  0.4505  0.4277
 5125TIP3    H136934   5.790   1.710   1.182 -0.9043 -0.1534  0.7541
 5125TIP3    H236935   5.905   1.611   1.179 -0.4391  0.3728  0.9839
 5126TIP3   OH236936   2.885   1.952   7.742 -0.3087 -0.2480 -0.2291
 5126TIP3    H136937   2.874   2.047   7.743  0.3466 -0.1710  1.3204
 5126TIP3    H236938   2.824   1.920   7.808 -1.7791 -1.0973 -1.8961
 5127TIP3   OH236939   2.512   1.870   1.683  0.3484  0.1561 -0.0751
 5127TIP3    H136940   2.434   1.828   1.645 -0.1782  0.2986  0.8308
 5127TIP3    H236941   2.573   1.798   1.699  0.4432  0.0545 -0.8699
 5128TIP3   OH236942   5.990   2.177   7.259  0.1236 -0.4533 -0.2730
 5128TIP3    H136943   6.066   2.153   7.312 -0.0396 -1.2847 -0.3878
 5128TIP3    H236944   6.022   2.176   7.169  0.3561  0.7748 -0.2131
 5129TIP3   OH236945   3.025   4.836   0.577  0.0522  0.1234  0.1014
 5129TIP3    H136946   2.955   4.902   0.571  0.3492  0.5158  0.8352
 5129TIP3    H236947   2.981   4.758   0.610  0.4269  1.2132  3.5678
 5130TIP3   OH236948   3.411   0.076   0.767  0.1106  0.2657  0.4630
 5130TIP3    H136949   3.328   0.111   0.798  0.4144  1.9016 -0.4229
 5130TIP3    H236950   3.429   0.001   0.823 -2.2286 -0.4727  0.3110
 5131TIP3   OH236951   0.469   3.809   8.479 -0.6158  0.2666  0.1909
 5131TIP3    H136952   0.419   3.886   8.450 -1.2329 -0.6280 -1.1830
 5131TIP3    H236953   0.559   3.841   8.487 -0.7784  1.0225 -0.8418
 5132TIP3   OH236954   4.966   2.819   1.836 -0.4510 -0.3261  0.0940
 5132TIP3    H136955   4.934   2.905   1.810  0.8669  0.2216  0.1598
 5132TIP3    H236956   5.055   2.836   1.869  1.1436 -2.0762 -2.8808
 5133TIP3   OH236957   3.274   5.868   0.578  0.0301 -0.8454  0.2424
 5133TIP3    H136958   3.197   5.872   0.635  0.4193 -0.9020  0.7814
 5133TIP3    H236959   3.252   5.802   0.512 -0.8762  0.0325 -0.3647
 5134TIP3   OH236960   4.463   6.126   0.039 -0.4398  0.0813 -0.7356
 5134TIP3    H136961   4.392   6.063   0.028 -0.6441 -0.4955  2.9277
 5134TIP3    H236962   4.422   6.211   0.021 -1.5626 -0.3822 -0.4715
 5135TIP3   OH236963   0.928   6.021   2.180 -0.4716  0.1719  0.2243
 5135TIP3    H136964   0.943   6.113   2.158 -0.8406  0.2687  0.3731
 5135TIP3    H236965   0.898   6.022   2.271  1.5967 -0.2737  0.9749
 5136TIP3   OH236966   6.799   4.831   1.658 -0.1400 -0.0312  0.1858
 5136TIP3    H136967   6.716   4.853   1.700 -0.7959 -1.4911 -0.2597
 5136TIP3    H236968   6.831   4.755   1.707 -0.5116 -1.2425 -1.3555
 5137TIP3   OH236969   4.685   5.019   1.195  0.6323  0.0841  0.3451
 5137TIP3    H136970   4.766   5.043   1.241  1.7155 -3.3931  0.5392
 5137TIP3    H236971   4.647   4.950   1.249 -1.8056  0.7229 -0.4607
 5138TIP3   OH236972   2.985   2.068   7.430 -0.3943  0.0896 -0.2631
 5138TIP3    H136973   2.906   2.085   7.380 -0.4851 -0.3146 -0.2635
 5138TIP3    H236974   2.992   2.141   7.491  0.1893  1.0603 -1.4429
 5139TIP3   OH236975   3.196   0.650   7.005 -0.8429  0.1768  0.0681
 5139TIP3    H136976   3.138   0.585   7.044 -1.5993  0.6995 -0.1602
 5139TIP3    H236977   3.205   0.624   6.914 -3.0995  1.6772 -0.6607
 5140TIP3   OH236978   6.571   2.776   2.165  0.1977 -0.2813  0.1974
 5140TIP3    H136979   6.552   2.841   2.233  0.8075  0.3842 -0.2497
 5140TIP3    H236980   6.636   2.719   2.206  0.8354  0.3323  0.0712
 5141TIP3   OH236981   0.705   5.799   6.939 -0.2305  0.3623  0.2748
 5141TIP3    H136982   0.717   5.824   6.847 -0.4703 -3.1837 -0.8675
 5141TIP3    H236983   0.789   5.764   6.966 -0.2955  0.9666  1.3259
 5142TIP3   OH236984   4.831   4.120   7.757 -0.1165  0.0170 -0.4876
 5142TIP3    H136985   4.765   4.085   7.817  0.3231 -0.3494 -0.2114
 5142TIP3    H236986   4.897   4.052   7.751  0.2117  0.3554 -0.8109
 5143TIP3   OH236987   3.683   3.104   2.287 -0.0419 -0.3236 -0.0858
 5143TIP3    H136988   3.670   3.096   2.192  1.1504  1.7133 -0.4815
 5143TIP3    H236989   3.648   3.023   2.323 -0.7655 -1.0355 -2.2454
 5144TIP3   OH236990   6.193   2.301   0.464  0.0369  0.2027 -0.0049
 5144TIP3    H136991   6.285   2.280   0.482  0.1590 -1.1689 -1.8987
 5144TIP3    H236992   6.150   2.215   0.461 -1.1289  0.7772 -0.0758
 5145TIP3   OH236993   2.335   5.542   1.025  0.4993 -0.8535 -0.4247
 5145TIP3    H136994   2.316   5.518   1.116  0.2836 -1.8459 -0.7140
 5145TIP3    H236995   2.368   5.461   0.985  1.8940 -0.0804 -0.8849
 5146TIP3   OH236996   5.321   5.634   0.313 -0.7105  0.1712 -0.5281
 5146TIP3    H136997   5.259   5.702   0.340  1.5627  1.9066  0.6215
 5146TIP3    H236998   5.296   5.557   0.365 -0.5115  1.5268  1.7181
 5147TIP3   OH236999   2.043   6.711   0.671  0.2093  0.3459 -0.2423
 5147TIP3    H137000   1.958   6.711   0.627 -0.4940  2.0834  1.0251
 5147TIP3    H237001   2.060   6.619   0.691 -0.8736 -0.1365 -1.4042
 5148TIP3   OH237002   5.572   4.941   0.041 -0.4275 -0.1262  0.1636
 5148TIP3    H137003   5.493   4.952  -0.013 -0.3263  0.5188  0.1387
 5148TIP3    H237004   5.540   4.901   0.122 -1.0921  1.7859  0.9018
 5149TIP3   OH237005   0.648   0.271   0.779  0.0009  0.7808  0.4732
 5149TIP3    H137006   0.726   0.321   0.805  3.0008 -1.4387 -3.2774
 5149TIP3    H237007   0.661   0.185   0.819 -1.0400  0.6438  0.5348
 5150TIP3   OH237008   0.770   2.181   0.486  0.1723 -0.5403 -0.3596
 5150TIP3    H137009   0.846   2.183   0.544  0.5004 -3.2478 -0.5344
 5150TIP3    H237010   0.696   2.203   0.541  1.0046  1.9192 -0.1316
 5151TIP3   OH237011   0.128   2.759   7.404 -0.4757 -0.2261 -0.2484
 5151TIP3    H137012   0.139   2.846   7.443 -0.5721 -1.0031  1.5686
 5151TIP3    H237013   0.179   2.700   7.459 -0.9122 -1.4388 -1.0823
 5152TIP3   OH237014   4.843   0.356   1.487 -0.0842  0.5350  0.2753
 5152TIP3    H137015   4.750   0.377   1.476 -0.8749 -2.4805  0.4192
 5152TIP3    H237016   4.873   0.418   1.554 -2.2091  1.0692  0.8253
 5153TIP3   OH237017   6.502   2.220   7.982  0.2135  0.3262 -0.3848
 5153TIP3    H137018   6.499   2.313   7.959  2.6615  1.3854  2.8650
 5153TIP3    H237019   6.584   2.189   7.944  1.7546  0.8165  2.3032
 5154TIP3   OH237020   6.593   3.007   0.719  0.5820  0.3613 -0.8289
 5154TIP3    H137021   6.570   3.048   0.637  0.0360 -1.1456 -1.4714
 5154TIP3    H237022   6.509   2.989   0.762  0.7362 -0.8159 -0.9700
 5155TIP3   OH237023   4.332   1.411   2.613 -0.0518 -0.2017 -0.1135
 5155TIP3    H137024   4.381   1.370   2.542  0.2897 -1.7301  0.9600
 5155TIP3    H237025   4.294   1.338   2.662 -0.7385  0.8279  0.9534
 5156TIP3   OH237026   0.785   5.113   0.779  0.6184 -0.4230 -0.1868
 5156TIP3    H137027   0.767   5.041   0.719 -1.4535 -0.6962  0.6960
 5156TIP3    H237028   0.864   5.085   0.826  0.2409 -1.8219 -0.3356
 5157TIP3   OH237029   4.702   2.426   1.199  0.0991  0.0090 -0.3246
 5157TIP3    H137030   4.773   2.412   1.137 -0.3467 -1.0844 -0.6104
 5157TIP3    H237031   4.736   2.392   1.282  0.1375  0.0726 -0.3141
 5158TIP3   OH237032   2.315   5.162   7.066  0.5288 -0.0006  0.2328
 5158TIP3    H137033   2.387   5.101   7.084  0.5638 -0.1743 -0.4953
 5158TIP3    H237034   2.252   5.112   7.015  0.5076  0.5375 -0.2840
 5159TIP3   OH237035   0.047   2.785   0.162 -0.2017  0.3629 -0.3277
 5159TIP3    H137036  -0.037   2.741   0.176 -0.2272  0.1421 -1.1518
 5159TIP3    H237037   0.083   2.745   0.083  0.9298  0.0954  0.3085
 5160TIP3   OH237038   6.663   0.712   8.344 -0.3651 -0.2395  0.1751
 5160TIP3    H137039   6.674   0.703   8.439 -0.6966  0.6397  0.3107
 5160TIP3    H237040   6.670   0.623   8.310  0.1975 -0.5105  0.9787
 5161TIP3   OH237041   4.563   5.330   1.065  0.5141 -0.6617 -0.2849
 5161TIP3    H137042   4.655   5.303   1.068  0.7707  0.0567 -1.1603
 5161TIP3    H237043   4.567   5.424   1.047 -0.4020 -0.6948 -0.6889
 5162TIP3   OH237044   1.666   5.719   8.168 -0.4565 -0.2772  0.2203
 5162TIP3    H137045   1.744   5.728   8.114  0.9871 -1.1027  2.0652
 5162TIP3    H237046   1.630   5.808   8.173 -1.1999 -0.2959 -2.7421
 5163TIP3   OH237047   4.328   6.464   0.881 -0.5362 -0.2222  0.2550
 5163TIP3    H137048   4.410   6.506   0.908 -0.4610 -0.7300  0.8206
 5163TIP3    H237049   4.310   6.399   0.948 -1.6431  0.1795  0.3864
 5164TIP3   OH237050   1.738   2.600   6.866  0.0574  0.4097  0.5859
 5164TIP3    H137051   1.721   2.671   6.928 -0.1906 -0.8363  2.0174
 5164TIP3    H237052   1.690   2.624   6.787 -0.9357  1.2908  1.4352
 5165TIP3   OH237053   1.589   3.102   1.825 -0.3595  0.2276  0.0465
 5165TIP3    H137054   1.504   3.059   1.827 -1.3198  2.0126  1.8273
 5165TIP3    H237055   1.578   3.174   1.762 -0.1520  0.4289  0.2367
 5166TIP3   OH237056   2.390   3.060   2.057 -0.1997  0.1747 -0.1713
 5166TIP3    H137057   2.362   3.052   2.148 -1.2844 -0.5056 -0.5500
 5166TIP3    H237058   2.364   3.149   2.032 -0.0750  0.2942  0.1125
 5167TIP3   OH237059   3.057   4.678   7.835 -0.2505  0.5970  0.4745
 5167TIP3    H137060   3.097   4.757   7.798 -1.4740  1.3894  0.7755
 5167TIP3    H237061   3.130   4.629   7.873  0.8968  0.2920 -1.9664
 5168TIP3   OH237062   0.777   3.714   8.414  0.2604 -0.0334 -0.2065
 5168TIP3    H137063   0.867   3.746   8.408  0.7240 -1.3562 -0.5584
 5168TIP3    H237064   0.767   3.688   8.505  0.1223  0.4257 -0.0896
 5169TIP3   OH237065   6.579   3.773   2.071 -0.0219 -0.2268 -0.1683
 5169TIP3    H137066   6.602   3.833   2.142  1.5302 -1.1368  0.1320
 5169TIP3    H237067   6.562   3.831   1.997 -0.5511  0.6823  0.6377
 5170TIP3   OH237068   1.921   1.104   0.862 -0.0296 -0.3217  0.3834
 5170TIP3    H137069   1.916   1.024   0.914  1.8098 -1.2273 -0.7567
 5170TIP3    H237070   1.999   1.150   0.894  1.3504 -1.0680 -1.7025
 5171TIP3   OH237071   1.934   5.751   7.670 -0.1444  0.0918 -0.2138
 5171TIP3    H137072   1.987   5.691   7.618  1.3633  0.2477  1.0649
 5171TIP3    H237073   1.979   5.835   7.662 -1.4825  0.7768 -0.9006
 5172TIP3   OH237074   6.201   0.263   1.148  0.0961  0.0943  0.1307
 5172TIP3    H137075   6.197   0.241   1.055  0.3927 -0.4131  0.2340
 5172TIP3    H237076   6.224   0.355   1.150  2.8733 -0.4949 -0.3057
 5173TIP3   OH237077   5.512   4.711   7.372  0.7926  0.4540  0.0349
 5173TIP3    H137078   5.601   4.691   7.403  0.4982  0.0610  0.6578
 5173TIP3    H237079   5.481   4.781   7.429  0.2724 -0.2224  0.5982
 5174TIP3   OH237080   3.501   1.994   8.528  0.4752  0.2252  0.4521
 5174TIP3    H137081   3.556   2.021   8.601  1.0599 -0.7323  0.3787
 5174TIP3    H237082   3.542   1.915   8.495 -1.6363 -1.3078  1.2268
 5175TIP3   OH237083   1.658   2.166   6.784  0.5217  0.5407 -0.1951
 5175TIP3    H137084   1.625   2.110   6.855 -0.7652  0.7407 -0.6098
 5175TIP3    H237085   1.654   2.110   6.706  2.1349  0.2498 -0.1108
 5176TIP3   OH237086   2.427   3.343   1.177  0.3542 -0.0011 -0.7655
 5176TIP3    H137087   2.407   3.385   1.093 -1.1970  0.2958 -0.2762
 5176TIP3    H237088   2.516   3.309   1.166 -0.0205 -0.4613 -2.7189
 5177TIP3   OH237089   6.819   2.330   7.985 -0.0993 -0.5768 -0.5609
 5177TIP3    H137090   6.813   2.327   7.889  1.5890 -0.2832 -0.6972
 5177TIP3    H237091   6.748   2.390   8.010  1.0431  1.4331 -1.8536
 5178TIP3   OH237092   4.270   4.808   0.997 -0.4304  0.3189 -0.0523
 5178TIP3    H137093   4.186   4.802   1.043 -0.6651  2.1327 -0.1733
 5178TIP3    H237094   4.288   4.902   0.992  2.1063 -0.0427  0.8475
 5179TIP3   OH237095   6.109   4.843   0.731  0.5481 -0.5041 -0.6202
 5179TIP3    H137096   6.180   4.844   0.668  1.6488 -1.1938  0.5548
 5179TIP3    H237097   6.148   4.807   0.811 -0.8256  0.1875  0.4145
 5180TIP3   OH237098   6.325   2.747   1.482 -0.3190  0.3198  0.5190
 5180TIP3    H137099   6.361   2.686   1.546 -0.5332  0.0195  0.3573
 5180TIP3    H237100   6.318   2.830   1.529  0.3006  0.3088  0.6364
 5181TIP3   OH237101   3.389   3.711   8.657 -0.8352 -0.1126  0.4805
 5181TIP3    H137102   3.381   3.778   8.725 -1.5223 -1.2647  1.5842
 5181TIP3    H237103   3.338   3.637   8.690 -1.9731 -0.3974 -1.7158
 5182TIP3   OH237104   4.628   1.556   7.602  0.0619  0.2845  0.3035
 5182TIP3    H137105   4.621   1.568   7.507  0.0978 -0.3997  0.2115
 5182TIP3    H237106   4.690   1.624   7.630 -0.2002  0.7015 -0.1100
 5183TIP3   OH237107   5.046   0.763   2.127 -0.0009  0.2327 -0.2631
 5183TIP3    H137108   5.056   0.726   2.215  2.2822 -0.1346 -0.5988
 5183TIP3    H237109   4.958   0.738   2.101 -0.9503  0.7933  2.1029
 5184TIP3   OH237110   1.742   1.333   8.380 -0.3097 -0.1502  0.0111
 5184TIP3    H137111   1.769   1.323   8.289 -2.6386 -1.7458 -0.6223
 5184TIP3    H237112   1.796   1.404   8.414 -0.1165  1.2770 -2.9308
 5185TIP3   OH237113   4.864   6.321   8.050 -0.9332  0.3381  0.0281
 5185TIP3    H137114   4.943   6.292   8.004 -0.7758 -0.0177  0.5120
 5185TIP3    H237115   4.799   6.253   8.031 -0.4732 -0.5307  1.4173
 5186TIP3   OH237116   6.434   4.260   1.988 -0.2826  0.3590 -0.5669
 5186TIP3    H137117   6.401   4.348   2.003 -1.4950 -0.3843  1.6094
 5186TIP3    H237118   6.355   4.206   1.978  0.3493 -0.7966  0.3936
 5187TIP3   OH237119   4.537   1.975   0.303 -0.0624 -0.5382  0.4475
 5187TIP3    H137120   4.467   2.011   0.358  0.9840  2.3352  0.0849
 5187TIP3    H237121   4.595   1.931   0.364 -1.0802 -1.1295  1.0253
 5188TIP3   OH237122   6.444   2.177   0.469 -0.3633  0.0880 -0.7233
 5188TIP3    H137123   6.466   2.170   0.376  0.2551 -0.2937 -0.5529
 5188TIP3    H237124   6.521   2.144   0.515 -0.8830 -0.2716 -0.0831
 5189TIP3   OH237125   2.960   6.719   7.540 -0.1585  0.2576  0.1370
 5189TIP3    H137126   2.987   6.758   7.456  2.0279  0.2853  0.7862
 5189TIP3    H237127   2.902   6.647   7.515  0.2328  0.4250 -1.4029
 5190TIP3   OH237128   0.749   3.863   0.649 -0.0221 -0.4746  0.5081
 5190TIP3    H137129   0.833   3.908   0.656  0.1438 -1.0409  3.3323
 5190TIP3    H237130   0.684   3.928   0.676 -0.5078 -0.1311 -1.3711
 5191TIP3   OH237131   3.560   3.462   7.783  0.1198  0.0814 -0.4030
 5191TIP3    H137132   3.587   3.371   7.797  2.7475  1.0415  1.4329
 5191TIP3    H237133   3.506   3.483   7.859  1.5583  0.7210  0.4847
 5192TIP3   OH237134   4.898   2.603   7.102  0.0969  0.4586  0.0476
 5192TIP3    H137135   4.984   2.572   7.129 -0.2239  0.6483  1.3412
 5192TIP3    H237136   4.905   2.613   7.007  1.3369 -0.0125  0.0728
 5193TIP3   OH237137   4.604   1.622   0.097  0.2522 -0.2610 -0.0645
 5193TIP3    H137138   4.549   1.557   0.141 -3.1392  1.4728 -1.4716
 5193TIP3    H237139   4.658   1.658   0.167 -0.8475 -1.5761  1.5392
 5194TIP3   OH237140   1.866   2.447   0.405  0.1018  0.3350  0.3869
 5194TIP3    H137141   1.809   2.429   0.479 -2.6766  2.0017 -1.1298
 5194TIP3    H237142   1.811   2.430   0.328  2.8567 -1.4186 -1.3697
 5195TIP3   OH237143   5.877   0.572   7.686  0.3449 -0.6201 -0.2834
 5195TIP3    H137144   5.864   0.543   7.596 -0.1602 -1.0155 -0.0847
 5195TIP3    H237145   5.972   0.576   7.696  0.4018 -0.4627 -0.8684
 5196TIP3   OH237146   5.064   5.675   0.745  0.4872  0.7808 -0.0546
 5196TIP3    H137147   5.048   5.586   0.714 -0.8239  0.2978  1.8538
 5196TIP3    H237148   5.114   5.664   0.826  0.0416  1.7560  0.3735
 5197TIP3   OH237149   5.008   0.878   7.454 -0.1497 -0.3689 -0.1082
 5197TIP3    H137150   4.936   0.940   7.471 -0.0685  0.1105 -1.4030
 5197TIP3    H237151   5.074   0.900   7.519  0.0988  1.2859 -0.8753
 5198TIP3   OH237152   2.474   4.966   1.793  0.0883 -0.0580  0.0527
 5198TIP3    H137153   2.451   4.873   1.794  0.0703 -0.0610 -0.2802
 5198TIP3    H237154   2.400   5.010   1.834  0.9030 -0.3464  1.9369
 5199TIP3   OH237155   3.030   5.939   7.440  0.1463  0.5229  0.2786
 5199TIP3    H137156   3.073   5.857   7.414 -0.4555 -0.3513  1.9194
 5199TIP3    H237157   3.100   6.004   7.437  0.7232 -0.1015 -0.7023
 5200TIP3   OH237158   2.676   6.052   0.697  0.3272  0.8741  0.5103
 5200TIP3    H137159   2.700   6.095   0.779  0.0755  0.5909  0.7319
 5200TIP3    H237160   2.599   6.101   0.666 -0.0644  0.4725  0.8508
 5201TIP3   OH237161   4.856   4.956   8.536 -0.0542  0.8789 -0.0827
 5201TIP3    H137162   4.826   4.966   8.446 -1.4419  1.8649  0.4579
 5201TIP3    H237163   4.777   4.934   8.585  0.6848  0.3693  0.8919
 5202TIP3   OH237164   2.520   1.860   7.098 -0.1748  0.2169 -0.7073
 5202TIP3    H137165   2.591   1.865   7.162 -1.7995  0.2527  1.1789
 5202TIP3    H237166   2.526   1.942   7.049  0.1940  0.8870  0.4234
 5203TIP3   OH237167   4.640   2.528   7.732 -0.0848 -0.2655 -0.5388
 5203TIP3    H137168   4.665   2.469   7.803  0.2348  0.8144  0.2758
 5203TIP3    H237169   4.706   2.513   7.664 -0.3001 -1.1952 -0.5471
 5204TIP3   OH237170   3.814   1.859   1.953 -0.6203  0.4928  0.2518
 5204TIP3    H137171   3.897   1.880   1.995  0.7223 -0.3506 -1.7730
 5204TIP3    H237172   3.796   1.934   1.897 -1.0267  0.5061  0.3982
 5205TIP3   OH237173   1.932   0.107   8.137  0.3589 -0.2790  0.0446
 5205TIP3    H137174   2.024   0.104   8.163  0.2884 -0.2202  0.3091
 5205TIP3    H237175   1.925   0.183   8.080  0.2625  0.3569  0.8857
 5206TIP3   OH237176   2.258   4.499   1.526  1.0229  0.3818  0.4395
 5206TIP3    H137177   2.181   4.504   1.583  0.9011  0.1794  0.2943
 5206TIP3    H237178   2.267   4.405   1.507  1.3860  0.3892  0.5639
 5207TIP3   OH237179   4.970   1.121   8.222 -0.2411  0.7807  0.8455
 5207TIP3    H137180   4.916   1.148   8.147  0.2578  0.5942  0.4141
 5207TIP3    H237181   4.910   1.070   8.277 -0.1555 -0.7387 -0.3873
 5208TIP3   OH237182   4.872   4.587   0.498 -0.0198  0.2932  0.9311
 5208TIP3    H137183   4.889   4.528   0.425 -1.6200 -0.6888  1.2929
 5208TIP3    H237184   4.777   4.601   0.495  0.0573  1.1912  2.1125
 5209TIP3   OH237185   5.929   4.941   1.638  0.4164 -0.2971 -0.1512
 5209TIP3    H137186   6.004   4.884   1.656  0.4859 -0.5335 -1.1500
 5209TIP3    H237187   5.883   4.898   1.566 -0.2163  0.2906 -0.1091
 5210TIP3   OH237188   1.538   3.525   0.620  0.4102  0.6771 -0.0793
 5210TIP3    H137189   1.629   3.554   0.617  0.5164  0.6560  1.7077
 5210TIP3    H237190   1.494   3.576   0.552  1.5122  1.5785 -0.1501
 5211TIP3   OH237191   1.436   0.391   8.175 -0.2684 -0.3827  0.4810
 5211TIP3    H137192   1.370   0.450   8.140  1.0622  1.4932  0.9754
 5211TIP3    H237193   1.400   0.360   8.258 -1.3007 -0.8892 -0.1378
 5212TIP3   OH237194   3.103   0.363   0.203  0.6556 -0.3639 -0.0556
 5212TIP3    H137195   3.105   0.453   0.237  3.6607 -0.3861  0.0638
 5212TIP3    H237196   3.010   0.344   0.194 -0.2226  1.4745  3.3360
 5213TIP3   OH237197   4.310   0.016   0.200 -0.1806  0.5674 -0.3937
 5213TIP3    H137198   4.296   0.111   0.200 -0.6940  0.5063  0.8615
 5213TIP3    H237199   4.285  -0.012   0.112 -1.2645  1.4237 -0.3780
 5214TIP3   OH237200   2.279   0.388   7.703 -0.3132  0.1653 -0.4910
 5214TIP3    H137201   2.231   0.441   7.640 -0.6486 -0.7178 -0.9978
 5214TIP3    H237202   2.318   0.318   7.650  1.1947  0.6121 -0.0394
 5215TIP3   OH237203   3.775   6.750   0.176 -0.1152 -0.1335 -0.7186
 5215TIP3    H137204   3.724   6.721   0.252 -1.2320 -0.7539 -1.6586
 5215TIP3    H237205   3.866   6.744   0.204 -0.5143  0.1488  0.7294
 5216TIP3   OH237206   3.755   1.715   8.603  0.2878 -0.2550 -0.3662
 5216TIP3    H137207   3.662   1.724   8.621 -0.2341  0.4730 -2.9497
 5216TIP3    H237208   3.795   1.790   8.646 -0.5512  0.2715 -0.4811
 5217TIP3   OH237209   1.251   0.668   8.360  0.0913  0.1308 -0.0547
 5217TIP3    H137210   1.334   0.649   8.403  0.5039  1.6289 -0.1129
 5217TIP3    H237211   1.185   0.652   8.427  0.5049 -0.2125  0.2727
 5218TIP3   OH237212   4.789   6.800   6.945 -0.0448 -0.3424 -0.1865
 5218TIP3    H137213   4.844   6.815   6.867  0.2113 -0.0049  0.0591
 5218TIP3    H237214   4.749   6.714   6.929  0.6845 -0.6751 -0.2973
 5219TIP3   OH237215   3.372   6.838   0.269  0.0768  1.0023 -0.0979
 5219TIP3    H137216   3.322   6.767   0.228  2.5374 -0.3419 -1.0336
 5219TIP3    H237217   3.347   6.917   0.221 -1.1883  0.4182 -0.4350
 5220TIP3   OH237218   1.525   2.764   2.029  0.2423  0.2682 -0.4565
 5220TIP3    H137219   1.443   2.787   2.075 -0.5013 -0.0064 -1.5992
 5220TIP3    H237220   1.594   2.799   2.085 -0.6994  1.6581 -0.0837
 5221TIP3   OH237221   3.447   3.058   8.375  0.3197  0.2174 -0.2880
 5221TIP3    H137222   3.542   3.068   8.371  0.2117  2.2999  0.8924
 5221TIP3    H237223   3.431   3.017   8.460  0.0508  3.0275  1.1104
 5222TIP3   OH237224   1.022   6.192   2.482  0.5234  0.3931 -0.5690
 5222TIP3    H137225   1.027   6.286   2.493  0.0142  0.2119  1.6375
 5222TIP3    H237226   1.111   6.161   2.501  0.2521  0.3039  0.6527
 5223TIP3   OH237227   5.031   4.952   6.842 -0.1762 -0.2646  0.1635
 5223TIP3    H137228   5.092   4.885   6.810 -1.5810 -0.2601 -2.7425
 5223TIP3    H237229   4.944   4.915   6.827 -0.9550  1.3196  0.5865
 5224TIP3   OH237230   6.166   3.500   0.695  0.2806  0.2907  0.2971
 5224TIP3    H137231   6.214   3.561   0.752  0.0210  0.9874 -0.2101
 5224TIP3    H237232   6.083   3.486   0.740  0.1025  0.7864  0.1295
 5225TIP3   OH237233   1.204   1.042   8.032  0.1410  0.4709 -0.6722
 5225TIP3    H137234   1.195   0.962   8.085 -0.6713  1.6658  1.0841
 5225TIP3    H237235   1.261   1.099   8.083  0.1717  1.2748 -1.5797
 5226TIP3   OH237236   0.662   3.072   0.362 -0.1050 -0.3703  0.1243
 5226TIP3    H137237   0.734   3.033   0.313 -0.4343 -2.0601  0.8916
 5226TIP3    H237238   0.591   3.008   0.356 -1.0542  0.5998  0.5885
 5227TIP3   OH237239   1.860   1.147   0.202  0.0808  0.4064  0.0668
 5227TIP3    H137240   1.947   1.115   0.227  0.6543  1.0615 -1.0049
 5227TIP3    H237241   1.806   1.133   0.280  1.3038  0.5865  0.9813
 5228TIP3   OH237242   1.763   2.699   1.543  0.4473 -0.0793 -0.4030
 5228TIP3    H137243   1.810   2.782   1.536  1.2030 -0.2655  1.6971
 5228TIP3    H237244   1.802   2.655   1.619 -3.6791  0.1746  2.1642
 5229TIP3   OH237245   0.193   1.121   1.722  0.1747  0.2146 -0.2710
 5229TIP3    H137246   0.146   1.193   1.764  1.8650  0.8909  0.5540
 5229TIP3    H237247   0.285   1.136   1.746  0.4535 -2.9939  1.1482
 5230TIP3   OH237248   0.928   2.399   0.147 -0.0692 -0.0573 -0.4363
 5230TIP3    H137249   0.961   2.470   0.202 -2.8279  0.0281  1.3157
 5230TIP3    H237250   0.950   2.319   0.195  0.4437 -0.2131 -0.9207
 5231TIP3   OH237251   3.331   5.673   1.343  0.3452  0.5481 -0.2606
 5231TIP3    H137252   3.246   5.658   1.302 -0.8126  2.4234  1.2739
 5231TIP3    H237253   3.375   5.736   1.286 -1.0136  2.6906  0.9571
 5232TIP3   OH237254   3.720   5.427   7.807 -0.4219 -0.0490 -0.1179
 5232TIP3    H137255   3.707   5.513   7.847  0.1379  0.7041 -1.4906
 5232TIP3    H237256   3.657   5.424   7.735  0.6928 -0.0819 -1.1248
 5233TIP3   OH237257   5.549   1.098   2.330  0.0112 -0.1402  0.0705
 5233TIP3    H137258   5.487   1.134   2.393  0.1111 -1.1582  0.7707
 5233TIP3    H237259   5.582   1.175   2.283 -2.0137  0.4196 -0.5655
 5234TIP3   OH237260   4.373   0.566   2.395 -0.0673 -0.1024 -0.2222
 5234TIP3    H137261   4.368   0.473   2.413  0.2099 -0.1555 -0.4077
 5234TIP3    H237262   4.288   0.588   2.355  0.0906 -0.3995 -0.7345
 5235TIP3   OH237263   4.668   2.210   0.235  0.1539  0.1229 -0.1588
 5235TIP3    H137264   4.621   2.127   0.235 -1.5877  1.0681  0.3122
 5235TIP3    H237265   4.679   2.232   0.142  2.1770 -1.4246 -0.3451
 5236TIP3   OH237266   3.475   6.049   0.984  0.1806 -0.1565 -0.3007
 5236TIP3    H137267   3.432   6.130   0.956  0.0844 -0.3080 -0.5999
 5236TIP3    H237268   3.568   6.063   0.964  0.2234  0.0392  0.0316
 5237TIP3   OH237269   3.614   3.218   1.385  0.2200 -0.0710 -0.3705
 5237TIP3    H137270   3.679   3.164   1.431  0.0665 -0.1358 -0.2308
 5237TIP3    H237271   3.652   3.233   1.299 -0.9195 -2.6318 -1.3940
 5238TIP3   OH237272   0.084   4.221   7.282  0.7626  0.2760 -0.4681
 5238TIP3    H137273   0.095   4.249   7.191 -2.0387 -0.9202 -1.2874
 5238TIP3    H237274   0.023   4.284   7.320  0.2460 -0.4340 -0.0923
 5239TIP3   OH237275   5.430   5.868   6.906 -0.0085 -0.2278  0.2307
 5239TIP3    H137276   5.447   5.905   6.993 -1.6290 -0.5320  0.7182
 5239TIP3    H237277   5.459   5.935   6.845 -0.3158  0.6823  1.0519
 5240TIP3   OH237278   3.589   2.107   1.482 -0.4104  0.0327  0.2002
 5240TIP3    H137279   3.681   2.117   1.509 -0.4327  0.3161  0.1695
 5240TIP3    H237280   3.550   2.054   1.551 -0.8490  2.0422  1.5540
 5241TIP3   OH237281   4.431   5.609   2.209 -0.7836  0.2765 -0.4040
 5241TIP3    H137282   4.339   5.618   2.184 -1.0016 -0.4272  0.1205
 5241TIP3    H237283   4.435   5.644   2.298 -0.9721 -1.5800  0.3681
 5242TIP3   OH237284   4.596   0.332   0.919 -0.2272  0.1218 -0.4865
 5242TIP3    H137285   4.675   0.334   0.865  0.8854  1.1934  1.0979
 5242TIP3    H237286   4.593   0.417   0.961 -2.4227  0.2216 -0.7076
 5243TIP3   OH237287   2.490   5.375   2.045  0.4232  0.0271  0.2175
 5243TIP3    H137288   2.472   5.464   2.074  1.0605 -0.0275  0.7873
 5243TIP3    H237289   2.443   5.319   2.107 -1.1443 -0.0366 -0.9433
 5244TIP3   OH237290   3.811   6.339   2.475  1.5460 -0.8200  0.0195
 5244TIP3    H137291   3.809   6.294   2.560  1.0587 -1.1993 -0.1853
 5244TIP3    H237292   3.743   6.407   2.483  4.4167  2.1492  1.5164
 5245TIP3   OH237293   4.639   6.092   2.235 -0.0834 -0.1004 -0.2707
 5245TIP3    H137294   4.642   6.014   2.289 -0.0781 -1.1385 -1.7118
 5245TIP3    H237295   4.660   6.164   2.295  0.0553 -1.2039  1.0474
 5246TIP3   OH237296   6.069   6.806   8.666 -0.4650 -0.4718 -0.1486
 5246TIP3    H137297   6.144   6.788   8.610 -0.2551 -1.1054  0.3289
 5246TIP3    H237298   6.095   6.775   8.753 -0.9699  0.0469  0.1986
 5247TIP3   OH237299   5.307   2.214   6.960 -0.9703  0.3547 -0.2791
 5247TIP3    H137300   5.215   2.223   6.983 -0.8696  2.4387 -0.4676
 5247TIP3    H237301   5.354   2.253   7.035 -0.1714 -1.3067  0.1427
 5248TIP3   OH237302   4.849   0.573   2.204 -0.3224 -0.3491 -0.1657
 5248TIP3    H137303   4.756   0.555   2.197 -1.2993  3.3016  1.0278
 5248TIP3    H237304   4.861   0.604   2.294  1.8960 -0.1292 -0.4828
 5249TIP3   OH237305   6.012   0.947   7.712  0.4303  0.3326  1.0465
 5249TIP3    H137306   6.047   0.858   7.714 -0.9519 -0.3769 -1.6270
 5249TIP3    H237307   6.071   0.995   7.653  1.1062  1.2204  2.3885
 5250TIP3   OH237308   1.083   1.760   6.938  0.0718 -0.1653 -0.1130
 5250TIP3    H137309   1.163   1.812   6.950  0.2538 -0.5724  0.4571
 5250TIP3    H237310   1.093   1.721   6.851  1.3455 -1.6541  0.6578
 5251TIP3   OH237311   0.194   3.362   1.430 -0.4104  0.5634 -0.3704
 5251TIP3    H137312   0.154   3.360   1.517 -1.4751 -0.4398 -0.8519
 5251TIP3    H237313   0.287   3.345   1.446 -0.6086  0.2993  0.5645
 5252TIP3   OH237314   5.446   3.879   6.902  0.1483 -0.4999  0.1746
 5252TIP3    H137315   5.441   3.936   6.979 -0.2636  3.7141 -2.5877
 5252TIP3    H237316   5.355   3.861   6.879  0.0895  0.9181 -0.9024
 5253TIP3   OH237317   4.114   6.678   8.034  1.0051  0.2225  0.5787
 5253TIP3    H137318   4.019   6.686   8.027  0.8968 -0.1668  1.4148
 5253TIP3    H237319   4.129   6.657   8.126  1.9149  0.4361  0.4868
 5254TIP3   OH237320   1.218   2.531   0.118  0.8546  0.2639 -0.1005
 5254TIP3    H137321   1.234   2.616   0.158  1.2896  0.0532  0.1855
 5254TIP3    H237322   1.234   2.545   0.025  3.3539 -0.0554  0.2141
 5255TIP3   OH237323   2.587   2.430   7.704  0.5443  0.1008 -0.0089
 5255TIP3    H137324   2.597   2.516   7.664  0.4272  0.3955  0.5861
 5255TIP3    H237325   2.531   2.382   7.643  1.7386 -0.0298 -1.0414
 5256TIP3   OH237326   5.422   0.127   8.515 -0.1336  0.4584  0.7537
 5256TIP3    H137327   5.367   0.121   8.593 -0.3984  0.6817  0.5829
 5256TIP3    H237328   5.463   0.213   8.522 -0.0661  0.4295  0.7064
 5257TIP3   OH237329   5.751   2.969   1.880  0.4323 -0.0567  0.3075
 5257TIP3    H137330   5.801   2.909   1.937 -1.1200  0.3796  2.2509
 5257TIP3    H237331   5.785   3.056   1.902  2.3847 -0.0497 -2.2066
 5258TIP3   OH237332   6.449   0.813   8.228 -0.5199 -0.1882  0.2144
 5258TIP3    H137333   6.514   0.781   8.290  0.3287 -2.3823 -1.6589
 5258TIP3    H237334   6.390   0.738   8.215 -1.3561  0.6079 -0.7503
 5259TIP3   OH237335   2.344   2.043   7.678  0.4149  0.5095  0.7854
 5259TIP3    H137336   2.424   1.993   7.662 -0.4533 -0.9195  0.7747
 5259TIP3    H237337   2.279   1.978   7.705 -1.0873  1.4311 -0.3866
 5260TIP3   OH237338   4.692   6.545   6.916  0.2977 -0.5007  0.2852
 5260TIP3    H137339   4.738   6.471   6.877  1.4198 -0.0499  0.7120
 5260TIP3    H237340   4.612   6.508   6.953  0.2469 -1.2823 -0.5675
 5261TIP3   OH237341   6.342   6.256   1.559  0.5382  0.3542 -0.1256
 5261TIP3    H137342   6.424   6.299   1.585 -0.8586  2.6674  0.7407
 5261TIP3    H237343   6.340   6.263   1.464  2.7228 -2.5630 -0.5521
 5262TIP3   OH237344   1.205   5.165   1.640  0.4856  0.2351  0.2808
 5262TIP3    H137345   1.258   5.238   1.607  0.1661  0.7099  0.7998
 5262TIP3    H237346   1.250   5.087   1.609 -0.6570  0.6186 -2.7165
 5263TIP3   OH237347   1.316   1.622   7.844  0.5176  0.0331  0.3808
 5263TIP3    H137348   1.275   1.557   7.787  2.2921 -0.1854 -0.7197
 5263TIP3    H237349   1.355   1.685   7.784  0.8341  0.8191  1.3945
 5264TIP3   OH237350   4.884   2.133   7.122 -0.1897 -0.4081  0.1399
 5264TIP3    H137351   4.928   2.115   7.039 -2.1813  0.4701 -1.1704
 5264TIP3    H237352   4.798   2.167   7.098  0.2279  2.8628  2.5098
 5265TIP3   OH237353   6.666   6.105   8.281  0.1203 -0.2332 -0.0154
 5265TIP3    H137354   6.579   6.095   8.319 -0.7163  2.3236 -1.0681
 5265TIP3    H237355   6.651   6.115   8.188  1.4783  0.7942 -0.1550
 5266TIP3   OH237356   0.892   3.450   2.838  0.0406  0.4186 -0.0451
 5266TIP3    H137357   0.887   3.433   2.744  0.5888  2.2452 -0.4386
 5266TIP3    H237358   0.985   3.458   2.856 -0.0996  1.0821  0.4393
 5267TIP3   OH237359   6.842   1.061   7.769 -0.1959 -0.0304 -0.6205
 5267TIP3    H137360   6.874   1.136   7.719  0.8541 -1.0118 -1.4802
 5267TIP3    H237361   6.758   1.040   7.729 -1.0165  1.3070  0.3179
 5268TIP3   OH237362   0.090   3.089   7.223 -0.1409  0.2393  0.2514
 5268TIP3    H137363   0.019   3.127   7.172  1.3513  1.2321 -1.2185
 5268TIP3    H237364   0.106   3.004   7.182 -0.2401  0.1890  0.3193
 5269TIP3   OH237365   3.054   0.877   7.085  0.4500  0.4287  0.1391
 5269TIP3    H137366   3.114   0.804   7.070 -1.3043 -1.1479  0.3949
 5269TIP3    H237367   2.973   0.852   7.039 -0.3049  2.0578  0.5037
 5270TIP3   OH237368   0.102   3.092   1.224 -0.3293 -0.2763  0.7077
 5270TIP3    H137369   0.191   3.057   1.220 -0.1621  0.0238  1.6873
 5270TIP3    H237370   0.064   3.068   1.139  0.2827 -1.4683  0.7434
 5271TIP3   OH237371   1.798   3.221   1.481  0.1425  0.3978 -0.3354
 5271TIP3    H137372   1.844   3.305   1.477 -0.0618  0.5001 -0.6143
 5271TIP3    H237373   1.807   3.185   1.392  1.1992 -0.4007  0.0798
 5272TIP3   OH237374   0.063   1.582   7.092  0.1459  0.3019  0.8589
 5272TIP3    H137375   0.044   1.642   7.164 -0.7834 -0.0881  0.9523
 5272TIP3    H237376   0.158   1.586   7.082  0.3155  0.2099  2.2428
 5273TIP3   OH237377   2.147   6.767   1.244 -0.0024 -0.0003 -0.3959
 5273TIP3    H137378   2.089   6.710   1.194 -0.3163  0.0941 -0.1474
 5273TIP3    H237379   2.231   6.722   1.243 -0.2152 -0.4155 -0.3022
 5274TIP3   OH237380   1.532   3.743   0.276 -0.3048 -0.0752  0.0671
 5274TIP3    H137381   1.483   3.812   0.319  1.1744  1.8137 -1.1224
 5274TIP3    H237382   1.624   3.761   0.299  0.1118 -1.7753 -0.1100
 5275TIP3   OH237383   5.599   6.510   0.805  0.0074 -0.4495  0.3394
 5275TIP3    H137384   5.555   6.585   0.844 -1.5106 -1.6937  1.0949
 5275TIP3    H237385   5.665   6.549   0.747 -2.1887  1.5152 -1.0242
 5276TIP3   OH237386   2.682   0.992   2.309  0.2034  0.5046 -0.1650
 5276TIP3    H137387   2.665   0.900   2.291  0.1147  0.4280  0.2959
 5276TIP3    H237388   2.769   1.008   2.272  0.5091  0.0623  0.3555
 5277TIP3   OH237389   3.789   0.146   1.743  0.2878 -0.4047 -0.3821
 5277TIP3    H137390   3.737   0.204   1.687  2.4300 -0.6142 -2.7554
 5277TIP3    H237391   3.801   0.067   1.690  1.6607 -0.9785  0.7442
 5278TIP3   OH237392   3.636   2.789   7.891  0.1553  1.1246  0.0642
 5278TIP3    H137393   3.557   2.776   7.944  0.0240  1.8683  0.0665
 5278TIP3    H237394   3.708   2.780   7.953  0.0383  1.0901  0.1978
 5279TIP3   OH237395   3.124   1.089   6.926  0.5564  0.2168  0.7367
 5279TIP3    H137396   3.098   1.022   6.988  1.0281 -0.6370  0.0449
 5279TIP3    H237397   3.201   1.052   6.882 -0.2815  0.4119 -0.9600
 5280TIP3   OH237398   3.890   3.372   7.788  0.0022  0.2967  0.0282
 5280TIP3    H137399   3.827   3.348   7.857 -1.0904  1.5589 -0.4860
 5280TIP3    H237400   3.974   3.339   7.820 -0.5367  0.5374  1.8165
 5281TIP3   OH237401   5.622   5.963   8.334  0.0263 -0.5025 -0.0309
 5281TIP3    H137402   5.684   6.032   8.313 -0.2481  0.0373  0.8982
 5281TIP3    H237403   5.561   5.962   8.260 -1.6455  2.1762  1.1667
 5282TIP3   OH237404   3.229   2.454   7.398 -0.3645 -0.3854  0.0954
 5282TIP3    H137405   3.154   2.447   7.457 -0.9506 -1.2779 -0.7121
 5282TIP3    H237406   3.199   2.412   7.317 -0.1808  2.2316 -1.4522
 5283TIP3   OH237407   1.886   5.280   0.493 -0.4406  0.5207 -0.6018
 5283TIP3    H137408   1.941   5.351   0.526  0.3479  0.0894 -0.9791
 5283TIP3    H237409   1.825   5.324   0.433 -0.4660  0.9884 -0.2395
 5284TIP3   OH237410   3.076   1.618   1.078  0.0413  0.6683 -0.7159
 5284TIP3    H137411   2.998   1.666   1.106  0.0006 -0.4545  1.2160
 5284TIP3    H237412   3.148   1.657   1.127  0.7750  1.7057 -2.4935
 5285TIP3   OH237413   4.003   5.329   6.880 -0.5502 -0.3097  0.5052
 5285TIP3    H137414   4.070   5.336   6.947 -0.0463 -1.2577  0.1040
 5285TIP3    H237415   4.031   5.390   6.811  0.6897 -1.7324 -0.3075
 5286TIP3   OH237416   5.454   0.382   7.096 -0.6473 -0.0185 -0.2064
 5286TIP3    H137417   5.394   0.348   7.029 -0.7527  0.3159 -0.2867
 5286TIP3    H237418   5.490   0.304   7.138  0.2267 -0.2608 -1.3556
 5287TIP3   OH237419   3.926   1.304   2.259 -0.3006  0.0105 -0.1051
 5287TIP3    H137420   3.997   1.330   2.316 -0.7064  0.5438  0.1659
 5287TIP3    H237421   3.967   1.250   2.191  0.8173  2.4493 -1.4773
 5288TIP3   OH237422   5.371   1.999   0.844  0.5119 -0.1071 -0.6997
 5288TIP3    H137423   5.307   1.936   0.876 -0.1768  1.1631  0.4911
 5288TIP3    H237424   5.416   2.029   0.922 -0.1387  1.9164 -1.0617
 5289TIP3   OH237425   5.784   1.342   0.575 -0.3014  0.6656  0.2269
 5289TIP3    H137426   5.689   1.351   0.570 -0.2213  2.1664  0.7566
 5289TIP3    H237427   5.805   1.367   0.666  0.3886 -2.0454  0.8945
 5290TIP3   OH237428   4.199   6.354   7.173  0.4823  0.3531  0.3321
 5290TIP3    H137429   4.278   6.303   7.155 -0.4555 -1.4829  1.0726
 5290TIP3    H237430   4.229   6.427   7.227  1.6671 -0.3763  0.7077
 5291TIP3   OH237431   5.491   4.939   0.986  0.2111 -0.0166  0.1412
 5291TIP3    H137432   5.544   4.959   0.909  0.4146 -2.0019 -0.2720
 5291TIP3    H237433   5.420   4.885   0.953  0.0989 -0.5941  1.2720
 5292TIP3   OH237434   0.470   2.875   0.428  0.1983 -0.1200  0.0653
 5292TIP3    H137435   0.466   2.782   0.450  0.9027 -0.3513 -0.7657
 5292TIP3    H237436   0.389   2.911   0.465 -0.0618 -1.0466  0.4360
 5293TIP3   OH237437   5.864   5.417   1.666  0.5956  0.2304 -0.2266
 5293TIP3    H137438   5.932   5.378   1.611  1.3584 -1.9434  2.0256
 5293TIP3    H237439   5.908   5.431   1.751 -1.4173 -0.0198  0.9214
 5294TIP3   OH237440   6.811   3.140   7.445 -0.1736  0.1215  0.1324
 5294TIP3    H137441   6.874   3.136   7.517 -0.0144 -3.1107 -0.0291
 5294TIP3    H237442   6.862   3.113   7.368 -0.8373  1.5379 -0.8503
 5295TIP3   OH237443   5.735   1.580   6.328 -0.4876  0.3675 -0.0013
 5295TIP3    H137444   5.747   1.654   6.388 -1.0145  0.2859  0.2089
 5295TIP3    H237445   5.762   1.615   6.243  0.7724  0.3195  0.3659
 5296TIP3   OH237446   0.104   1.929   1.148  0.1906 -0.1094  0.3055
 5296TIP3    H137447   0.156   1.866   1.098  0.5946 -0.2989  0.9372
 5296TIP3    H237448   0.052   1.875   1.208  0.6050  0.1467  0.9115
 5297TIP3   OH237449   5.229   1.493   1.225  0.3067 -0.1248 -0.5533
 5297TIP3    H137450   5.219   1.448   1.308 -1.6627  2.1201  0.5699
 5297TIP3    H237451   5.274   1.431   1.168  1.9051 -1.6627  2.2117
 5298TIP3   OH237452   2.292   2.536   7.426 -0.1058 -0.0738  0.2561
 5298TIP3    H137453   2.360   2.478   7.461 -1.9696 -0.8603  2.9028
 5298TIP3    H237454   2.261   2.493   7.347  2.4819  0.4049 -1.1519
 5299TIP3   OH237455   3.228   4.334   6.275  0.1823  0.4026  0.3093
 5299TIP3    H137456   3.196   4.359   6.362  1.2970  2.6138  0.1577
 5299TIP3    H237457   3.321   4.318   6.287  0.0273 -1.0871 -0.1838
 5300TIP3   OH237458   1.363   2.074   7.393 -0.0845  0.7153 -0.2187
 5300TIP3    H137459   1.314   2.099   7.315  0.5284  1.0557 -0.5059
 5300TIP3    H237460   1.386   2.157   7.435  1.4000  0.6461 -0.8267
 5301TIP3   OH237461   4.573   5.246   7.413  0.4659  0.6713  0.3397
 5301TIP3    H137462   4.576   5.219   7.321  1.2978  0.5063  0.4085
 5301TIP3    H237463   4.571   5.164   7.462 -1.1772  0.7463  0.4603
 5302TIP3   OH237464   6.510   5.549   1.514 -0.2874 -0.0023 -0.2760
 5302TIP3    H137465   6.502   5.624   1.455 -1.7869  0.7876  0.8938
 5302TIP3    H237466   6.521   5.587   1.601  0.3786 -1.1521  0.1645
 5303TIP3   OH237467   4.633   1.925   7.954 -0.3862 -0.2026 -0.9605
 5303TIP3    H137468   4.539   1.922   7.932 -0.6883  1.6478 -0.1093
 5303TIP3    H237469   4.669   1.992   7.895  0.3333 -0.6098 -0.9930
 5304TIP3   OH237470   6.695   6.657   7.977 -0.4008 -0.2775 -0.1785
 5304TIP3    H137471   6.631   6.675   8.046  0.1159 -0.1512  0.2770
 5304TIP3    H237472   6.660   6.581   7.931  0.3187 -1.7971  1.6220
 5305TIP3   OH237473   5.495   3.886   1.566 -0.3105  0.0092  0.3386
 5305TIP3    H137474   5.456   3.951   1.625  1.2632  1.2859  0.0448
 5305TIP3    H237475   5.585   3.875   1.598 -0.0615 -0.8369 -0.5944
 5306TIP3   OH237476   6.404   3.621   1.481  0.6791  0.1534  0.0408
 5306TIP3    H137477   6.364   3.697   1.524  0.2404 -0.3354  0.5275
 5306TIP3    H237478   6.352   3.609   1.401  1.6196  1.1828 -0.7442
 5307TIP3   OH237479   2.513   4.593   6.823  0.2108  0.5491  0.0990
 5307TIP3    H137480   2.553   4.530   6.763  3.8849  2.3317  0.4425
 5307TIP3    H237481   2.493   4.543   6.902 -0.9014 -0.9800 -1.1080
 5308TIP3   OH237482   0.975   4.463   0.336 -0.7595 -0.0082  0.2033
 5308TIP3    H137483   0.967   4.418   0.252 -1.4496 -0.3152  0.4308
 5308TIP3    H237484   1.058   4.511   0.330 -0.1538 -1.0832 -0.1476
 5309TIP3   OH237485   4.867   6.783   0.825 -0.0860  0.1223 -0.0458
 5309TIP3    H137486   4.875   6.687   0.830  0.8504  0.1417 -0.8320
 5309TIP3    H237487   4.955   6.815   0.839 -0.3360  0.8613 -0.1491
 5310TIP3   OH237488   0.477   6.002   0.199  0.2162 -0.8372 -0.3414
 5310TIP3    H137489   0.415   6.041   0.260 -1.8874 -1.7207 -1.8098
 5310TIP3    H237490   0.492   6.070   0.133 -0.1625 -1.0296 -0.6322
 5311TIP3   OH237491   4.534   4.648   0.007 -0.3600  0.2734  0.2746
 5311TIP3    H137492   4.513   4.572  -0.047 -1.9777  1.7334 -1.2757
 5311TIP3    H237493   4.541   4.614   0.096  0.1671 -1.8484 -0.5381
 5312TIP3   OH237494   5.012   0.819   1.825 -0.2686 -0.3997 -0.1497
 5312TIP3    H137495   5.021   0.907   1.863 -1.6070 -0.2346 -0.1798
 5312TIP3    H237496   5.047   0.761   1.893  1.3410  0.1716 -0.4292
 5313TIP3   OH237497   2.758   2.395   0.231  0.1235  0.4017 -0.1104
 5313TIP3    H137498   2.708   2.420   0.309 -0.9906 -0.1031 -0.6232
 5313TIP3    H237499   2.739   2.464   0.168  0.4471  0.4352 -0.1721
 5314TIP3   OH237500   2.673   2.870   0.230 -0.2852 -0.0852  0.1390
 5314TIP3    H137501   2.613   2.921   0.285  1.0130  0.9996  0.6028
 5314TIP3    H237502   2.631   2.869   0.144  0.2361  3.0159 -0.2762
 5315TIP3   OH237503   2.714   3.161   6.503  0.7497 -0.4688  0.1320
 5315TIP3    H137504   2.762   3.160   6.421 -1.7897  0.7290 -1.4673
 5315TIP3    H237505   2.671   3.075   6.507  0.7875 -0.4860  0.1822
 5316TIP3   OH237506   0.114   3.573   1.228 -0.4877  0.9796 -0.2888
 5316TIP3    H137507   0.188   3.552   1.170  0.3816 -1.2982  1.4749
 5316TIP3    H237508   0.152   3.629   1.296 -0.0878 -0.8499  1.0745
 5317TIP3   OH237509   6.164   3.167   6.567  0.0228 -0.6446  0.3609
 5317TIP3    H137510   6.096   3.232   6.583  0.3108  0.4649 -2.3492
 5317TIP3    H237511   6.117   3.083   6.565 -1.2005  0.0285 -0.7772
 5318TIP3   OH237512   0.345   1.736   8.633  0.3214 -0.2752 -0.0773
 5318TIP3    H137513   0.433   1.775   8.635  0.6155 -0.9384  1.9606
 5318TIP3    H237514   0.287   1.805   8.664 -0.0931  0.5106 -2.4029
 5319TIP3   OH237515   5.255   0.900   2.391 -0.4774 -0.7911 -0.2233
 5319TIP3    H137516   5.327   0.881   2.331  0.8085 -0.8194  1.2653
 5319TIP3    H237517   5.238   0.817   2.435  0.0156 -0.3296  0.8886
 5320TIP3   OH237518   4.805   4.087   1.343  0.2388  0.1341  0.8409
 5320TIP3    H137519   4.875   4.104   1.280 -0.8162 -0.1345 -0.4458
 5320TIP3    H237520   4.733   4.144   1.316 -1.3279 -2.1579 -0.1394
 5321TIP3   OH237521   6.305   2.762   7.974  0.1998  0.2860 -0.6659
 5321TIP3    H137522   6.384   2.798   8.015  0.8218  0.4473 -1.9755
 5321TIP3    H237523   6.312   2.787   7.882 -1.5990  0.6793 -0.7395
 5322TIP3   OH237524   4.981   0.908   6.750  0.4756 -0.0868 -0.0578
 5322TIP3    H137525   5.064   0.930   6.708  0.2092 -2.2319 -1.9033
 5322TIP3    H237526   5.005   0.862   6.829  1.0467 -0.2885 -0.3463
 5323TIP3   OH237527   0.482   5.263   1.101 -0.2203 -0.0674 -0.2478
 5323TIP3    H137528   0.481   5.247   1.007 -0.8683 -1.6963  0.0066
 5323TIP3    H237529   0.496   5.177   1.140 -0.0466  0.5662  1.1625
 5324TIP3   OH237530   4.248   3.596   6.802 -0.5289 -0.0669  0.2033
 5324TIP3    H137531   4.326   3.637   6.763 -0.9458  1.1143  0.5624
 5324TIP3    H237532   4.269   3.503   6.804  0.5007  0.1224 -0.5641
 5325TIP3   OH237533   5.030   2.446   8.160 -0.2590  0.0658 -0.2445
 5325TIP3    H137534   4.983   2.409   8.235  2.6473 -0.3277  1.5284
 5325TIP3    H237535   5.031   2.540   8.175 -0.0960  0.0293 -0.0185
 5326TIP3   OH237536   5.225   0.848   5.946  1.0024 -0.3515  0.6388
 5326TIP3    H137537   5.140   0.868   5.985  0.1265 -2.5846  0.0285
 5326TIP3    H237538   5.222   0.889   5.859  0.4713 -0.5943  0.5432
 5327TIP3   OH237539   2.380   5.336   7.594  0.1925  0.7264  0.9061
 5327TIP3    H137540   2.393   5.250   7.634 -0.6337 -0.3855 -1.0501
 5327TIP3    H237541   2.289   5.336   7.564  1.2898  0.4336 -3.0163
 5328TIP3   OH237542   6.535   0.905   8.621  0.2082 -0.1436 -0.1737
 5328TIP3    H137543   6.576   0.819   8.632 -0.8650 -0.6851 -0.3282
 5328TIP3    H237544   6.600   0.966   8.655  0.6774 -1.0683  0.6450
 5329TIP3   OH237545   1.730   5.468   1.695  0.1598  0.2551  0.3298
 5329TIP3    H137546   1.767   5.380   1.685  1.2132  0.8934 -1.7117
 5329TIP3    H237547   1.692   5.488   1.610 -1.5340  1.1837  1.2423
 5330TIP3   OH237548   3.170   0.599   1.070  0.1152  0.5979 -0.7726
 5330TIP3    H137549   3.160   0.539   1.144  1.2072  2.3850  0.9396
 5330TIP3    H237550   3.263   0.594   1.047  0.2945  1.7938 -0.3956
 5331TIP3   OH237551   4.488   2.765   0.737 -0.3231  0.6519 -0.2471
 5331TIP3    H137552   4.500   2.852   0.776  1.3532  1.1516 -1.6960
 5331TIP3    H237553   4.514   2.704   0.805 -1.6339  1.2480  0.8362
 5332TIP3   OH237554   1.962   6.584   2.230 -0.3229  0.1401  0.4588
 5332TIP3    H137555   1.947   6.646   2.302 -0.4981 -0.6683  1.1279
 5332TIP3    H237556   1.921   6.503   2.259  0.8853 -0.6317  0.0899
 5333TIP3   OH237557   2.851   6.259   1.961 -0.1966  0.2464  0.3688
 5333TIP3    H137558   2.759   6.232   1.969 -0.6248  1.0080 -1.5507
 5333TIP3    H237559   2.899   6.196   2.016 -2.0982  1.7143  4.0612
 5334TIP3   OH237560   2.920   0.940   7.917 -0.3610 -0.3240  0.2472
 5334TIP3    H137561   2.967   0.954   7.835 -0.3673 -0.4044  0.2297
 5334TIP3    H237562   2.878   0.854   7.906 -0.7606 -0.1193  0.1394
 5335TIP3   OH237563   2.980   4.782   1.676  0.1556  1.1122 -0.1632
 5335TIP3    H137564   2.893   4.811   1.702  0.6084  2.2067  0.1899
 5335TIP3    H237565   2.999   4.708   1.734 -1.2850 -0.3948 -1.5194
 5336TIP3   OH237566   2.755   1.604   0.850 -0.3913  0.6360 -0.4863
 5336TIP3    H137567   2.836   1.554   0.855 -0.7802  0.0799  0.6492
 5336TIP3    H237568   2.783   1.693   0.829  0.4617  0.3370 -0.6512
 5337TIP3   OH237569   5.564   2.651   1.995 -0.3481  0.1793  0.3228
 5337TIP3    H137570   5.519   2.566   1.990 -1.3262  0.7377 -1.0311
 5337TIP3    H237571   5.591   2.659   2.086  1.2634 -2.3281  0.1581
 5338TIP3   OH237572   4.193   1.501   7.022 -0.3357 -0.2615  0.2954
 5338TIP3    H137573   4.195   1.528   6.930  0.4251  1.9073  0.8775
 5338TIP3    H237574   4.283   1.513   7.053 -0.7873  0.0435  1.5726
 5339TIP3   OH237575   4.859   3.445   2.180  0.3575 -0.2731  0.8951
 5339TIP3    H137576   4.937   3.455   2.234  1.4602 -0.3779 -0.5873
 5339TIP3    H237577   4.890   3.397   2.103 -0.7844  1.1151 -0.5059
 5340TIP3   OH237578   6.874   1.380   0.570  0.8537  0.0139 -0.0466
 5340TIP3    H137579   6.783   1.366   0.543  0.7377  0.7595 -0.0687
 5340TIP3    H237580   6.908   1.292   0.586 -0.3969 -0.1935  1.6953
 5341TIP3   OH237581   4.164   2.436   0.703 -0.0401 -0.2549 -0.0821
 5341TIP3    H137582   4.201   2.517   0.736 -1.1031  0.3004 -0.2284
 5341TIP3    H237583   4.188   2.370   0.768 -1.0754  0.5886  1.1998
 5342TIP3   OH237584   5.535   1.800   2.017 -0.0113  0.3002 -0.0666
 5342TIP3    H137585   5.597   1.768   2.082 -0.6975  0.7888  0.8493
 5342TIP3    H237586   5.549   1.894   2.014  0.9145  0.1654 -1.6120
 5343TIP3   OH237587   6.792   3.810   1.879  0.5939  0.0214  0.2319
 5343TIP3    H137588   6.770   3.885   1.824  0.2733  0.2420  0.6552
 5343TIP3    H237589   6.755   3.831   1.965  0.4105 -0.6632  0.3287
 5344TIP3   OH237590   0.059   0.798   0.220 -0.4226 -0.2488  0.2483
 5344TIP3    H137591   0.018   0.744   0.287  1.8267 -1.5244  0.7060
 5344TIP3    H237592   0.137   0.834   0.263 -0.3755  1.0940 -0.9036
 5345TIP3   OH237593   6.710   6.724   7.384 -0.0755  0.6381  0.5216
 5345TIP3    H137594   6.790   6.672   7.385 -0.4738 -0.1865 -2.0803
 5345TIP3    H237595   6.728   6.796   7.323 -0.6154  1.7506  1.6154
 5346TIP3   OH237596   6.782   6.254   1.199 -0.4488 -0.1424 -0.1563
 5346TIP3    H137597   6.736   6.212   1.272 -0.0840 -1.2500 -0.5407
 5346TIP3    H237598   6.795   6.344   1.228  1.6822 -1.0672  2.1617
 5347TIP3   OH237599   2.040   6.237   1.361  0.1088  0.0074 -0.0573
 5347TIP3    H137600   1.995   6.313   1.326 -0.9805 -0.1004  1.0558
 5347TIP3    H237601   1.971   6.180   1.395  1.0433 -0.0212  1.9837
 5348TIP3   OH237602   5.788   4.820   0.684  0.1407 -0.0496 -0.5879
 5348TIP3    H137603   5.873   4.845   0.721 -0.4069 -1.2516  1.6522
 5348TIP3    H237604   5.776   4.729   0.710 -1.9154  0.1429 -0.7028
 5349TIP3   OH237605   0.083   0.651   6.896  0.5209 -0.4827 -0.0420
 5349TIP3    H137606   0.030   0.576   6.924  1.7572 -0.8523  1.4363
 5349TIP3    H237607   0.147   0.613   6.835 -1.1574  0.0570 -2.2897
 5350TIP3   OH237608   5.992   6.859   0.855 -0.0541 -0.2582 -0.4090
 5350TIP3    H137609   5.983   6.767   0.879 -0.8345 -0.5792 -1.7638
 5350TIP3    H237610   5.926   6.872   0.786  0.3308  1.2051 -0.5449
 5351TIP3   OH237611   1.027   1.951   0.014  0.4144 -0.5875  0.0203
 5351TIP3    H137612   1.067   1.922  -0.068  2.5750  0.1636  0.7390
 5351TIP3    H237613   1.054   1.885   0.078 -1.0286 -1.0201  0.2101
 5352TIP3   OH237614   1.455   6.711   0.732  0.5048  0.5329 -0.4972
 5352TIP3    H137615   1.361   6.704   0.712  0.4960  0.4440 -0.4261
 5352TIP3    H237616   1.459   6.773   0.805  0.3952 -0.3540  0.2873
 5353TIP3   OH237617   3.878   6.780   8.318  0.2634  0.2277  0.4672
 5353TIP3    H137618   3.900   6.722   8.391  1.5133 -0.3846 -0.3633
 5353TIP3    H237619   3.876   6.867   8.357 -1.1929 -0.2911  1.6468
 5354TIP3   OH237620   2.781   3.859   0.876  0.4900 -1.1106 -0.3288
 5354TIP3    H137621   2.728   3.782   0.853 -0.8149 -0.9426  1.7872
 5354TIP3    H237622   2.847   3.824   0.937  0.8155 -0.7882 -0.4963
 5355TIP3   OH237623   4.224   6.578   0.662 -0.1084  0.2612 -0.5402
 5355TIP3    H137624   4.271   6.523   0.598  0.6125  0.6366 -0.3404
 5355TIP3    H237625   4.245   6.539   0.746  3.0476  2.6299 -0.0598
 5356TIP3   OH237626   1.213   4.400   7.864 -1.3308 -0.3952 -0.1342
 5356TIP3    H137627   1.257   4.316   7.873 -2.5753 -1.0472  0.0917
 5356TIP3    H237628   1.154   4.405   7.940 -0.3832  1.2475  0.5359
 5357TIP3   OH237629   0.278   0.566   7.127 -0.7097 -0.2280  0.1963
 5357TIP3    H137630   0.266   0.575   7.221  1.2884  1.2186  0.3835
 5357TIP3    H237631   0.216   0.628   7.089 -0.3715  0.4140  0.6638
 5358TIP3   OH237632   5.577   2.569   1.548  0.5304 -0.2042  0.5792
 5358TIP3    H137633   5.622   2.574   1.633  0.7309  0.1717  0.4520
 5358TIP3    H237634   5.516   2.496   1.558  0.7155 -0.3097  0.9708
 5359TIP3   OH237635   6.352   0.395   7.584 -0.1877  0.6819 -0.0658
 5359TIP3    H137636   6.339   0.448   7.505  0.4963  2.7178  1.1058
 5359TIP3    H237637   6.419   0.332   7.560  1.8734  2.8757 -0.4823
 5360TIP3   OH237638   2.736   4.695   8.536 -0.3696  0.4119  0.3533
 5360TIP3    H137639   2.726   4.764   8.470  0.0103 -0.3279 -0.4900
 5360TIP3    H237640   2.821   4.655   8.517 -0.2905  0.1308  1.2440
 5361TIP3   OH237641   1.715   1.829   7.134 -0.1085  0.1867 -0.5542
 5361TIP3    H137642   1.676   1.915   7.118  0.3653  0.7202  0.9623
 5361TIP3    H237643   1.688   1.808   7.224  0.2887 -0.9715 -0.6962
 5362TIP3   OH237644   4.573   5.054   0.244 -0.1554  0.0641  0.4083
 5362TIP3    H137645   4.583   4.986   0.311 -1.6568 -1.3760 -0.7361
 5362TIP3    H237646   4.633   5.123   0.271  0.4160 -1.1162  2.3890
 5363TIP3   OH237647   6.449   3.309   2.087  0.2661 -0.5812 -0.7303
 5363TIP3    H137648   6.361   3.334   2.061  0.7166  1.6949 -0.3043
 5363TIP3    H237649   6.440   3.220   2.120 -2.4676  0.5573  2.0605
 5364TIP3   OH237650   2.778   1.983   1.879  0.1774  0.0304 -0.3396
 5364TIP3    H137651   2.722   1.993   1.802  1.0518  2.2354 -0.7568
 5364TIP3    H237652   2.839   1.913   1.856 -0.9814 -0.8961 -0.7149
 5365TIP3   OH237653   2.661   1.268   7.361  0.1538 -0.4259 -0.3244
 5365TIP3    H137654   2.727   1.277   7.429  1.2899  0.3588 -1.4854
 5365TIP3    H237655   2.710   1.245   7.282 -1.2133 -2.2078 -0.7302
 5366TIP3   OH237656   2.451   2.540   8.434 -0.3614 -0.1752  0.1361
 5366TIP3    H137657   2.358   2.519   8.443 -0.1948 -0.3051  2.2155
 5366TIP3    H237658   2.452   2.626   8.392 -1.5412  0.7414  1.8473
 5367TIP3   OH237659   3.106   5.956   1.743 -0.1305 -0.9591  0.0793
 5367TIP3    H137660   3.108   5.983   1.834 -0.0273  0.1954 -0.2477
 5367TIP3    H237661   3.196   5.930   1.723 -0.2449 -1.6354  0.4148
 5368TIP3   OH237662   5.734   0.499   0.407  0.4894 -1.0640  0.4596
 5368TIP3    H137663   5.674   0.528   0.338 -1.3716 -3.0055  1.1381
 5368TIP3    H237664   5.791   0.574   0.423 -0.4153  0.1600 -1.6763
 5369TIP3   OH237665   0.662   3.274   7.735  0.3492 -0.5538 -0.3228
 5369TIP3    H137666   0.731   3.272   7.802  0.0558  1.6552  0.1179
 5369TIP3    H237667   0.677   3.195   7.683  1.7249 -1.3750  1.2182
 5370TIP3   OH237668   3.290   5.781   0.148 -0.1755 -0.1285  0.1424
 5370TIP3    H137669   3.297   5.870   0.115 -0.9071  0.4270  1.4380
 5370TIP3    H237670   3.373   5.740   0.124  0.6068  1.2099  0.4799
 5371TIP3   OH237671   2.981   4.932   1.438  0.0650 -0.1556 -1.0479
 5371TIP3    H137672   3.002   4.872   1.510 -0.7526  1.6077  0.7738
 5371TIP3    H237673   3.064   4.951   1.396  0.6388 -0.8320 -0.2404
 5372TIP3   OH237674   3.381   1.657   6.813 -0.5619 -0.1646  0.5589
 5372TIP3    H137675   3.362   1.618   6.728 -1.0414 -1.8293  1.3848
 5372TIP3    H237676   3.472   1.686   6.806 -0.0344 -1.8130 -0.0157
 5373TIP3   OH237677   2.272   3.474   6.319  0.1877 -0.0868 -0.2335
 5373TIP3    H137678   2.208   3.506   6.383  1.3104  0.9154  0.4202
 5373TIP3    H237679   2.266   3.378   6.325 -0.8847 -0.0117  0.1685
 5374TIP3   OH237680   1.471   5.354   1.122 -0.0307 -0.0356 -0.3230
 5374TIP3    H137681   1.398   5.396   1.167  0.7106  1.7950 -0.7327
 5374TIP3    H237682   1.468   5.390   1.033  1.0511 -0.3231 -0.4886
 5375TIP3   OH237683   6.118   6.020   0.590 -0.4527 -0.9756  0.2977
 5375TIP3    H137684   6.181   5.965   0.544 -1.4222 -0.6710 -1.4953
 5375TIP3    H237685   6.037   6.010   0.540 -0.4520  2.8319 -0.7915
 5376TIP3   OH237686   6.487   2.929   7.206 -0.2301 -0.2317  0.2300
 5376TIP3    H137687   6.501   2.936   7.301  0.3910 -0.3601  0.1486
 5376TIP3    H237688   6.574   2.914   7.170 -0.5995 -1.2322 -0.2740
 5377TIP3   OH237689   3.460   1.387   1.563 -0.3368  0.1479  0.7714
 5377TIP3    H137690   3.459   1.335   1.483  4.6230 -0.0213  0.5562
 5377TIP3    H237691   3.418   1.470   1.539 -0.4565 -0.5214 -1.4983
 5378TIP3   OH237692   3.969   4.113   7.993  0.2262 -0.1450 -0.0534
 5378TIP3    H137693   3.986   4.198   7.953  1.3371 -0.8818 -1.2332
 5378TIP3    H237694   4.051   4.064   7.982 -1.1947 -2.3503 -1.9510
 5379TIP3   OH237695   3.293   4.811   0.130 -0.3381 -0.2342  0.2888
 5379TIP3    H137696   3.213   4.805   0.181 -0.3184 -1.1675  0.2163
 5379TIP3    H237697   3.270   4.776   0.044  0.0469 -0.1653  0.1535
 5380TIP3   OH237698   6.174   5.551   8.423  0.5056 -0.4824  0.5581
 5380TIP3    H137699   6.113   5.612   8.381 -0.8877 -1.7209  0.6925
 5380TIP3    H237700   6.145   5.547   8.514  1.0672 -0.7624  0.7246
 5381TIP3   OH237701   2.478   1.782   0.451 -0.1228 -0.6483  0.0606
 5381TIP3    H137702   2.517   1.811   0.368  2.3464  0.2492  1.4056
 5381TIP3    H237703   2.413   1.849   0.471  0.6477  0.2187 -0.2357
 5382TIP3   OH237704   0.060   1.162   0.183  0.5751 -0.5017 -0.2358
 5382TIP3    H137705  -0.009   1.228   0.190  0.5582 -0.5046 -0.3717
 5382TIP3    H237706   0.103   1.163   0.268 -0.4610 -1.4584  0.3213
 5383TIP3   OH237707   2.901   4.975   0.040 -0.4826  0.3983  0.4673
 5383TIP3    H137708   2.832   4.941   0.097 -0.9439  1.8225  0.7980
 5383TIP3    H237709   2.973   4.912   0.049 -1.9950 -1.5646 -0.5118
 5384TIP3   OH237710   3.099   6.177   0.883  0.1013  0.1438  0.2351
 5384TIP3    H137711   3.067   6.264   0.858 -1.3994 -0.3685  0.2412
 5384TIP3    H237712   3.024   6.119   0.868  0.7977 -1.0085  1.0362
 5385TIP3   OH237713   4.838   4.924   7.186 -0.3003 -0.3624 -0.7435
 5385TIP3    H137714   4.924   4.920   7.227 -0.1113  0.1824 -1.0874
 5385TIP3    H237715   4.842   4.860   7.115 -0.1386 -0.2495 -0.8366
 5386TIP3   OH237716   5.763   5.140   8.336 -0.0394  0.8270  0.5096
 5386TIP3    H137717   5.719   5.055   8.336 -0.0649  0.8210 -0.6056
 5386TIP3    H237718   5.766   5.165   8.243  0.6369  1.6946  0.7532
 5387TIP3   OH237719   4.951   4.936   0.427  0.4495  0.3406 -0.0739
 5387TIP3    H137720   4.990   4.924   0.514  0.8056  2.8750  0.1899
 5387TIP3    H237721   4.876   4.876   0.426  0.6353  0.0148  1.8381
 5388TIP3   OH237722   0.857   6.853   7.274  0.1476  0.0048  0.5612
 5388TIP3    H137723   0.813   6.768   7.274  0.0969 -0.0150 -1.2299
 5388TIP3    H237724   0.885   6.866   7.364  0.4829 -2.0890  0.8099
 5389TIP3   OH237725   2.206   6.802   6.721 -0.1583 -0.7736 -0.2378
 5389TIP3    H137726   2.148   6.745   6.672  0.0050 -1.0847 -0.0711
 5389TIP3    H237727   2.235   6.749   6.795 -0.9300 -0.0977  0.5783
 5390TIP3   OH237728   5.449   6.330   1.871  0.3986  0.0924  0.1699
 5390TIP3    H137729   5.527   6.383   1.854 -0.8525  1.6128 -1.1078
 5390TIP3    H237730   5.434   6.282   1.790 -0.5853  0.6184  0.0287
 5391TIP3   OH237731   5.016   6.592   6.892 -0.4215 -0.5436 -0.1290
 5391TIP3    H137732   4.974   6.630   6.970 -1.0126 -1.7876  0.1907
 5391TIP3    H237733   5.047   6.668   6.842 -0.4915  0.3028  1.0587
 5392TIP3   OH237734   1.363   5.129   7.637 -0.2131  0.1544 -0.5150
 5392TIP3    H137735   1.421   5.061   7.673 -0.9579 -0.0537  0.3341
 5392TIP3    H237736   1.314   5.084   7.568 -1.0806 -0.3453  0.3946
 5393TIP3   OH237737   4.450   6.646   7.963 -0.2728 -0.3446  0.0037
 5393TIP3    H137738   4.391   6.573   7.945 -1.4011  0.4079  0.4974
 5393TIP3    H237739   4.405   6.722   7.928  1.2136  0.0557 -1.1555
 5394TIP3   OH237740   1.238   4.936   2.676 -0.3117  0.0084 -0.8402
 5394TIP3    H137741   1.159   4.981   2.646 -0.4959 -0.6313 -1.3557
 5394TIP3    H237742   1.302   4.952   2.606  0.5586  1.8895  0.3185
 5395TIP3   OH237743   5.434   1.703   6.371  0.4260  0.5279 -0.3645
 5395TIP3    H137744   5.381   1.750   6.435 -0.9780  1.8480 -2.3740
 5395TIP3    H237745   5.499   1.656   6.424 -0.3623  1.8703  1.9684
 5396TIP3   OH237746   6.221   1.862   8.594 -0.0254 -0.1303  0.4168
 5396TIP3    H137747   6.229   1.779   8.547 -0.4702  0.0122  0.0741
 5396TIP3    H237748   6.273   1.851   8.673  0.7271 -0.3801 -0.1080
 5397TIP3   OH237749   3.491   5.243   0.417  0.0885 -0.1208 -0.3881
 5397TIP3    H137750   3.462   5.323   0.373 -0.7340 -0.1876  0.0121
 5397TIP3    H237751   3.419   5.221   0.476 -0.4711 -2.1371 -1.7544
 5398TIP3   OH237752   6.449   1.432   8.381 -0.8559 -0.4606  0.0349
 5398TIP3    H137753   6.532   1.439   8.335 -0.1076  4.1245  1.5788
 5398TIP3    H237754   6.471   1.389   8.464  0.1274  1.0851  0.6015
 5399TIP3   OH237755   4.613   3.496   6.555 -0.6776 -0.6733  0.1413
 5399TIP3    H137756   4.599   3.547   6.475 -1.7972 -0.8512  0.1999
 5399TIP3    H237757   4.552   3.534   6.618  0.7130 -0.0524  1.1550
 5400TIP3   OH237758   0.646   2.186   7.905 -0.3790  0.3198 -0.0877
 5400TIP3    H137759   0.639   2.133   7.984  0.1481  0.9244  0.3784
 5400TIP3    H237760   0.587   2.144   7.842  0.2851 -1.0099  0.1450
 5401TIP3   OH237761   6.396   3.059   7.618  0.0875 -0.3240 -0.1026
 5401TIP3    H137762   6.374   3.084   7.528  1.3188  0.7476 -0.1270
 5401TIP3    H237763   6.470   2.999   7.609  1.1519  0.9168  0.2514
 5402TIP3   OH237764   3.556   1.420   6.547 -0.2125  0.1409 -0.2315
 5402TIP3    H137765   3.542   1.342   6.493 -0.3079  0.6368 -0.9361
 5402TIP3    H237766   3.471   1.464   6.548 -0.1604  0.2394  0.1653
 5403TIP3   OH237767   4.409   0.941   1.393  0.3819 -0.0038  0.3680
 5403TIP3    H137768   4.440   0.947   1.303 -0.2865  0.6096  0.1694
 5403TIP3    H237769   4.326   0.894   1.387 -0.3353  1.2099  0.4865
 5404TIP3   OH237770   5.861   4.030   0.600 -0.2317  0.3726  0.2112
 5404TIP3    H137771   5.808   3.972   0.544  1.2797 -1.7277  0.8307
 5404TIP3    H237772   5.798   4.089   0.641 -1.8915 -0.9760 -0.3082
 5405TIP3   OH237773   3.506   5.398   8.095 -0.4027  0.0425 -0.4214
 5405TIP3    H137774   3.577   5.441   8.047 -0.3363 -0.2961 -0.6289
 5405TIP3    H237775   3.481   5.462   8.162  2.0881 -0.9370  1.6083
 5406TIP3   OH237776   2.324   4.523   0.869  0.2127  0.2357 -0.1926
 5406TIP3    H137777   2.269   4.530   0.947  1.8048  1.7300  0.8839
 5406TIP3    H237778   2.358   4.434   0.871 -1.5565 -0.4847 -0.5006
 5407TIP3   OH237779   3.172   2.951   2.158 -0.3607  0.4105  0.4769
 5407TIP3    H137780   3.144   3.013   2.225  1.2232 -0.3492  1.9143
 5407TIP3    H237781   3.166   2.865   2.200 -1.2669 -0.3236 -1.0485
 5408TIP3   OH237782   1.677   1.864   1.130 -0.3086  0.0404 -0.1219
 5408TIP3    H137783   1.589   1.870   1.092 -0.4405 -0.9057 -0.0056
 5408TIP3    H237784   1.736   1.875   1.055 -0.5729 -2.0711 -0.7099
 5409TIP3   OH237785   6.702   3.857   8.530  0.3219  0.3684 -0.6473
 5409TIP3    H137786   6.613   3.843   8.562  0.7927  2.2486  1.8532
 5409TIP3    H237787   6.710   3.800   8.454 -3.1282  0.4257 -1.2162
 5410TIP3   OH237788   3.243   5.054   8.585  0.0069  0.7459 -0.2355
 5410TIP3    H137789   3.196   4.983   8.630 -0.9315  1.7890  0.4942
 5410TIP3    H237790   3.291   5.099   8.655  2.4724 -0.4977 -1.0137
 5411TIP3   OH237791   2.962   3.404   7.663  0.1817  0.4323 -0.6495
 5411TIP3    H137792   3.018   3.361   7.728 -1.3446  0.0986  0.4834
 5411TIP3    H237793   3.019   3.413   7.586  2.0423  0.8154  0.6882
 5412TIP3   OH237794   1.473   2.186   2.351 -0.0293 -0.1717  0.1126
 5412TIP3    H137795   1.505   2.103   2.316  1.3872  0.4798 -0.2264
 5412TIP3    H237796   1.527   2.201   2.429 -1.1930 -0.2123  0.9421
 5413TIP3   OH237797   4.270   5.650   0.990 -0.3112  0.5905 -0.4495
 5413TIP3    H137798   4.184   5.634   1.029 -0.1379 -0.1437 -0.3610
 5413TIP3    H237799   4.266   5.741   0.961 -1.7380  0.1055 -1.9678
 5414TIP3   OH237800   4.260   3.094   0.112  0.9179  0.1100  0.1107
 5414TIP3    H137801   4.346   3.074   0.150  0.8325  1.3109  0.9896
 5414TIP3    H237802   4.200   3.088   0.186  0.3449 -0.0953 -0.3736
 5415TIP3   OH237803   1.856   6.532   0.181 -0.1765  0.0690 -0.1367
 5415TIP3    H137804   1.904   6.481   0.247  0.6975  0.5773 -0.3621
 5415TIP3    H237805   1.923   6.554   0.115 -1.1094 -0.7917 -1.4180
 5416TIP3   OH237806   6.654   3.596   6.829  0.3637 -0.0805  0.1583
 5416TIP3    H137807   6.716   3.532   6.795 -0.1517 -0.9781  0.8799
 5416TIP3    H237808   6.568   3.557   6.815  0.0963 -0.1143  1.6996
 5417TIP3   OH237809   5.252   5.352   0.366  0.4933  0.0534 -0.5996
 5417TIP3    H137810   5.182   5.336   0.303 -2.1115  0.7884  1.8872
 5417TIP3    H237811   5.292   5.266   0.380 -1.1840 -0.7772 -0.7267
 5418TIP3   OH237812   5.770   1.462   1.562  0.1741  0.0502 -0.9101
 5418TIP3    H137813   5.745   1.423   1.478  2.1706  0.3261 -1.7091
 5418TIP3    H237814   5.784   1.554   1.542  1.1568  0.0249 -0.4100
 5419TIP3   OH237815   1.070   5.620   1.327 -0.1333 -0.1547  0.9600
 5419TIP3    H137816   0.981   5.657   1.331 -1.4215 -2.9198  0.0949
 5419TIP3    H237817   1.126   5.690   1.360 -2.0872  3.2965 -2.2548
 5420TIP3   OH237818   0.828   4.524   7.858 -0.3058  1.0161 -0.1999
 5420TIP3    H137819   0.848   4.539   7.766  0.9149 -1.4512 -0.4348
 5420TIP3    H237820   0.734   4.505   7.860 -0.1760  0.2141 -1.0871
 5421TIP3   OH237821   2.384   6.721   0.124  1.0481  0.5808  0.1921
 5421TIP3    H137822   2.459   6.781   0.118  1.9563 -0.5803 -0.4202
 5421TIP3    H237823   2.394   6.678   0.209  0.5931  1.0094  0.4732
 5422TIP3   OH237824   6.444   5.228   1.193  0.0900  0.0905 -0.1308
 5422TIP3    H137825   6.457   5.141   1.156 -0.5557 -0.3133  0.5634
 5422TIP3    H237826   6.497   5.228   1.273  0.8239  0.6663 -0.6104
 5423TIP3   OH237827   0.967   6.272   7.963  0.2886  0.3221 -0.3972
 5423TIP3    H137828   0.935   6.188   7.994  0.3156  0.4482 -0.0216
 5423TIP3    H237829   0.893   6.332   7.973  0.4853  0.5041  0.0213
 5424TIP3   OH237830   6.266   5.957   0.356 -0.5045 -0.4366  0.3409
 5424TIP3    H137831   6.216   6.024   0.308  0.0833  0.7107  1.2792
 5424TIP3    H237832   6.347   5.948   0.307 -1.0304 -1.3083 -0.4131
 5425TIP3   OH237833   2.529   1.488   6.271  0.4230  0.2207 -0.3846
 5425TIP3    H137834   2.502   1.543   6.197  0.9533  1.9332  0.6373
 5425TIP3    H237835   2.447   1.466   6.316  0.2786  1.1071 -0.1965
 5426TIP3   OH237836   4.918   4.401   0.300  0.1434  0.2574 -0.0768
 5426TIP3    H137837   4.887   4.317   0.333  0.8649 -0.0280 -0.0883
 5426TIP3    H237838   4.900   4.398   0.206  2.3663 -0.9477 -0.5410
 5427TIP3   OH237839   6.073   3.988   1.722 -0.3153 -0.1388  0.3551
 5427TIP3    H137840   6.038   3.987   1.633 -0.1815  1.6224  0.2428
 5427TIP3    H237841   6.048   3.904   1.759 -1.4493 -0.3994 -0.9393
 5428TIP3   OH237842   1.962   2.420   6.702 -0.4601  0.3773 -0.6034
 5428TIP3    H137843   2.034   2.453   6.649 -0.4564 -1.0607 -1.5448
 5428TIP3    H237844   1.971   2.466   6.786  1.4354  0.3551 -0.7531
 5429TIP3   OH237845   0.438   2.780   0.104  0.0474  0.3282  0.1394
 5429TIP3    H137846   0.422   2.862   0.057 -1.1078  0.7437  1.1848
 5429TIP3    H237847   0.359   2.728   0.087  1.5898 -1.4187 -2.1279
 5430TIP3   OH237848   4.586   6.485   8.152  0.2452  0.0526  0.4087
 5430TIP3    H137849   4.562   6.547   8.083  1.3481  2.0546  1.7173
 5430TIP3    H237850   4.575   6.399   8.112 -0.3862  1.0934 -1.8270
 5431TIP3   OH237851   3.385   1.155   7.650  0.0644  0.0311  0.6796
 5431TIP3    H137852   3.360   1.070   7.612  2.7815 -0.8086  0.5346
 5431TIP3    H237853   3.308   1.184   7.698 -2.7009 -0.1620 -3.1462
 5432TIP3   OH237854   1.620   6.085   2.186 -0.2222 -0.1642 -0.0029
 5432TIP3    H137855   1.712   6.111   2.197 -0.1167  0.3322 -1.8066
 5432TIP3    H237856   1.615   5.999   2.228  0.4337  0.8512  2.3429
 5433TIP3   OH237857   4.347   5.885   8.297  0.3698  0.4916 -0.1381
 5433TIP3    H137858   4.382   5.813   8.349 -0.4760  0.2236  0.0633
 5433TIP3    H237859   4.412   5.897   8.226 -0.0364 -1.2200 -0.8481
 5434TIP3   OH237860   2.807   3.234   1.423  0.4820  0.3019 -0.0710
 5434TIP3    H137861   2.791   3.150   1.464 -0.8137  0.3788 -0.3648
 5434TIP3    H237862   2.758   3.231   1.340 -1.2126  2.0150  0.7860
 5435TIP3   OH237863   1.110   2.944   1.424 -0.7300 -0.1230  0.2766
 5435TIP3    H137864   1.120   2.948   1.519  0.2717  1.4686  0.1421
 5435TIP3    H237865   1.136   3.031   1.394 -1.7514 -0.3576 -1.4025
 5436TIP3   OH237866   1.146   4.033   7.704 -0.2999 -1.0458  0.2467
 5436TIP3    H137867   1.217   4.045   7.767  0.1216  1.2081 -0.5727
 5436TIP3    H237868   1.101   3.953   7.733  2.3590 -2.3943  0.9553
 5437TIP3   OH237869   6.042   6.290   2.188  0.3898 -0.3019 -0.5188
 5437TIP3    H137870   6.013   6.207   2.148 -0.0690 -1.7976  2.6183
 5437TIP3    H237871   5.969   6.316   2.244  2.5507 -0.7885  2.7667
 5438TIP3   OH237872   4.613   4.406   7.233  0.2468 -0.6385 -0.4355
 5438TIP3    H137873   4.605   4.337   7.299 -1.5310 -1.4685 -1.4285
 5438TIP3    H237874   4.640   4.360   7.154  0.9490  0.1231 -0.6491
 5439TIP3   OH237875   5.678   3.196   7.635 -0.2797 -0.1830 -0.3454
 5439TIP3    H137876   5.664   3.116   7.584  0.2656  0.4233 -1.4937
 5439TIP3    H237877   5.590   3.232   7.647 -0.3738 -0.0058 -1.4542
 5440TIP3   OH237878   1.364   1.195   6.965 -0.2442 -0.1023  0.4419
 5440TIP3    H137879   1.294   1.172   6.904  1.0605 -0.1033 -1.1495
 5440TIP3    H237880   1.342   1.283   6.996 -0.2385  0.5156 -1.1903
 5441TIP3   OH237881   5.493   4.597   7.123  0.1331 -0.4480  0.1696
 5441TIP3    H137882   5.583   4.609   7.092  0.6250  1.7326  2.1754
 5441TIP3    H237883   5.493   4.633   7.211 -2.2274 -2.3980  1.0648
 5442TIP3   OH237884   5.542   4.055   0.637  0.6724  0.3062  0.6772
 5442TIP3    H137885   5.453   4.089   0.644 -0.3768 -1.3945 -2.1724
 5442TIP3    H237886   5.585   4.112   0.573  0.8903 -0.1233  0.4295
 5443TIP3   OH237887   4.039   4.368   6.627 -0.2086  0.0498 -0.3263
 5443TIP3    H137888   3.984   4.379   6.550  0.0635  0.9963 -0.4020
 5443TIP3    H237889   4.018   4.444   6.682  2.3960  1.5253 -1.2303
 5444TIP3   OH237890   1.967   4.015   1.772  0.4758 -0.0174 -0.5939
 5444TIP3    H137891   2.050   4.012   1.820 -0.1595 -0.4996  0.4978
 5444TIP3    H237892   1.900   4.000   1.838 -0.4677 -0.1047 -1.5436
 5445TIP3   OH237893   3.627   1.426   7.426 -0.2778  0.1605  0.1247
 5445TIP3    H137894   3.531   1.422   7.429 -0.5020  3.1198 -0.0540
 5445TIP3    H237895   3.654   1.396   7.513 -1.3994 -0.1153  0.4020
 5446TIP3   OH237896   3.801   5.910   8.182 -0.1629 -0.2667  0.2523
 5446TIP3    H137897   3.878   5.858   8.207 -0.7350 -1.5585 -0.5410
 5446TIP3    H237898   3.762   5.860   8.110 -3.1766 -0.9846  2.2346
 5447TIP3   OH237899   6.460   6.146   7.305  0.1219 -0.2946  0.2384
 5447TIP3    H137900   6.501   6.165   7.390  0.6411 -1.9653  0.3946
 5447TIP3    H237901   6.532   6.119   7.249 -0.3376 -0.0485 -0.4842
 5448TIP3   OH237902   5.902   1.306   6.381 -0.1163  0.2829 -0.4890
 5448TIP3    H137903   5.812   1.328   6.355  0.0753 -0.3975 -1.7839
 5448TIP3    H237904   5.897   1.214   6.407  0.4653 -0.1919 -1.9604
 5449TIP3   OH237905   6.223   6.186   7.590  0.0541  0.4621 -0.0491
 5449TIP3    H137906   6.205   6.236   7.511 -0.4112  1.2707  0.5571
 5449TIP3    H237907   6.197   6.244   7.662  0.9698 -0.0423  0.7197
 5450TIP3   OH237908   5.285   4.937   0.018 -0.0689  0.1693  0.1652
 5450TIP3    H137909   5.247   4.942  -0.069  1.1582  2.6946 -0.2974
 5450TIP3    H237910   5.221   4.980   0.075  0.3121  0.9286  0.0337
 5451TIP3   OH237911   0.137   5.040   1.389 -0.3566 -0.1813  0.0224
 5451TIP3    H137912   0.044   5.032   1.408 -0.4152 -2.8207 -0.9845
 5451TIP3    H237913   0.141   5.078   1.301 -0.3425  2.2607  1.0011
 5452TIP3   OH237914   4.646   4.274   7.007 -0.2870 -0.2042  0.2815
 5452TIP3    H137915   4.704   4.291   6.933  1.2012  2.5107  1.9050
 5452TIP3    H237916   4.558   4.280   6.971  0.4003  0.0032 -1.4409
 5453TIP3   OH237917   5.989   6.311   0.438  0.0447 -0.7951  0.0154
 5453TIP3    H137918   6.013   6.310   0.530 -0.9812  2.1057  0.4099
 5453TIP3    H237919   5.898   6.282   0.435 -0.0719 -0.4332 -0.0120
 5454TIP3   OH237920   4.371   0.027   7.917 -0.4948 -0.5265 -0.3856
 5454TIP3    H137921   4.375   0.087   7.992 -0.2840 -1.5328  0.4219
 5454TIP3    H237922   4.363   0.085   7.841  0.3119  0.5552  0.3250
 5455TIP3   OH237923   1.567   6.876   0.218 -0.3991  0.3899  0.4985
 5455TIP3    H137924   1.496   6.813   0.206  0.3427 -0.3752  0.0238
 5455TIP3    H237925   1.613   6.847   0.296 -1.4382  1.7263  1.6690
 5456TIP3   OH237926   3.028   5.355   1.528 -0.5221 -0.5811  0.0416
 5456TIP3    H137927   2.995   5.443   1.544  0.1258 -0.2034 -0.6150
 5456TIP3    H237928   2.950   5.300   1.520 -1.0245  0.3035 -1.6288
 5457TIP3   OH237929   1.477   5.666   0.494  0.0314  0.0195  0.2054
 5457TIP3    H137930   1.565   5.640   0.522  1.2366  2.7329 -0.7453
 5457TIP3    H237931   1.492   5.738   0.433 -2.8470 -0.1070 -0.7615
 5458TIP3   OH237932   2.521   0.074   6.755 -0.4230 -0.1467 -0.2562
 5458TIP3    H137933   2.602   0.028   6.734  0.2058  0.5562  0.5389
 5458TIP3    H237934   2.479   0.020   6.822  0.4152  0.4865  0.8304
 5459TIP3   OH237935   0.406   1.881   8.355 -0.0083  0.3471  0.0413
 5459TIP3    H137936   0.318   1.875   8.392 -0.4154  0.2773 -0.9094
 5459TIP3    H237937   0.394   1.865   8.261  0.7420  2.3129 -0.4415
 5460TIP3   OH237938   2.160   4.726   0.060 -0.2207  0.2081  0.5455
 5460TIP3    H137939   2.153   4.641   0.017  0.2218 -0.9642  2.6654
 5460TIP3    H237940   2.073   4.742   0.097 -0.0052  0.1599  1.0744
 5461TIP3   OH237941   1.077   1.547   1.075  0.4875  0.0891 -0.4167
 5461TIP3    H137942   1.048   1.611   1.140  2.1061  0.5381 -0.0913
 5461TIP3    H237943   1.149   1.500   1.117  2.3669  1.1749 -2.2364
 5462TIP3   OH237944   2.407   2.326   8.043  0.1029 -0.2102  0.1280
 5462TIP3    H137945   2.316   2.339   8.015 -0.4226 -0.4252  1.6253
 5462TIP3    H237946   2.432   2.243   8.003 -0.9162 -0.9459  0.9681
 5463TIP3   OH237947   0.573   5.852   2.341  0.1787  0.4012 -0.2018
 5463TIP3    H137948   0.563   5.947   2.333 -3.4439  0.3250  1.4801
 5463TIP3    H237949   0.590   5.838   2.434 -2.5531 -0.6508  0.2202
 5464TIP3   OH237950   0.630   6.617   7.040  0.2724  0.4299 -0.2326
 5464TIP3    H137951   0.713   6.603   7.086  1.7681 -0.1128 -2.8737
 5464TIP3    H237952   0.656   6.658   6.957 -2.0585 -0.1545 -1.3203
 5465TIP3   OH237953   0.068   2.128   0.397 -0.4601 -0.4535 -0.2120
 5465TIP3    H137954   0.030   2.123   0.309 -3.3520  0.9512  0.8161
 5465TIP3    H237955   0.020   2.062   0.447 -1.4692  1.1886  1.0866
 5466TIP3   OH237956   3.928   6.141   0.217 -0.5273 -0.4721 -0.6429
 5466TIP3    H137957   3.966   6.094   0.143 -2.6403 -0.1578 -2.0323
 5466TIP3    H237958   3.848   6.093   0.238 -0.4704  0.0128  0.8349
 5467TIP3   OH237959   3.005   1.751   7.262  0.7328  0.1234  0.1896
 5467TIP3    H137960   2.932   1.739   7.201  1.3416 -1.7159 -0.2533
 5467TIP3    H237961   2.963   1.767   7.347 -0.2077 -1.0720 -0.0202
 5468TIP3   OH237962   0.144   3.317   1.031  0.0941 -0.5445 -0.0643
 5468TIP3    H137963   0.195   3.241   1.005  0.5980 -0.5456  0.8642
 5468TIP3    H237964   0.150   3.377   0.957 -0.0240 -1.2665 -0.6646
 5469TIP3   OH237965   6.603   3.330   8.021 -0.2488 -0.4330 -0.0359
 5469TIP3    H137966   6.545   3.256   7.999  0.3143 -0.7823 -0.3585
 5469TIP3    H237967   6.625   3.369   7.937  0.8228 -0.9471 -0.0116
 5470TIP3   OH237968   2.819   1.820   0.373 -0.5864  0.4237  0.1423
 5470TIP3    H137969   2.747   1.847   0.315  1.1696  4.4898 -0.5288
 5470TIP3    H237970   2.783   1.831   0.461 -1.2643  0.8576 -0.1738
 5471TIP3   OH237971   2.348   1.269   0.268  0.3698 -0.5596 -0.0940
 5471TIP3    H137972   2.397   1.193   0.299  0.7345 -0.1868  0.2562
 5471TIP3    H237973   2.269   1.232   0.229  0.4384 -1.1061  0.2719
 5472TIP3   OH237974   5.223   4.622   1.979  0.4963  0.4824  0.4515
 5472TIP3    H137975   5.308   4.581   1.963  0.4189  0.2795  0.5549
 5472TIP3    H237976   5.243   4.702   2.027  0.5245 -0.3150  1.8115
 5473TIP3   OH237977   0.207   5.944   7.004  0.6228 -0.1520  0.2835
 5473TIP3    H137978   0.281   5.889   6.977  1.1860  0.5546  0.3701
 5473TIP3    H237979   0.149   5.885   7.052  0.7536 -0.8861 -0.4402
 5474TIP3   OH237980   4.962   2.921   6.998  0.1581 -0.2895 -0.3858
 5474TIP3    H137981   4.896   2.876   7.050 -0.5329 -0.4475 -1.3798
 5474TIP3    H237982   4.913   2.967   6.930  1.1054 -0.9271 -1.5403
 5475TIP3   OH237983   5.698   4.067   8.274 -0.2273  0.2870  0.1691
 5475TIP3    H137984   5.767   4.012   8.311 -1.7460 -0.8798  1.3903
 5475TIP3    H237985   5.704   4.149   8.322  2.3975  1.5485 -2.0193
 5476TIP3   OH237986   3.206   3.736   0.344  0.6888 -0.3341  0.3292
 5476TIP3    H137987   3.156   3.669   0.391  0.2370  0.1832  0.5934
 5476TIP3    H237988   3.245   3.790   0.413 -0.9625  1.1667  0.1508
 5477TIP3   OH237989   5.575   1.262   0.808  0.0478  0.2627 -0.1596
 5477TIP3    H137990   5.534   1.339   0.847  0.9353  0.1906  0.9662
 5477TIP3    H237991   5.646   1.240   0.868  1.2748 -0.0492 -1.6790
 5478TIP3   OH237992   3.191   4.536   7.169  0.1159  0.1160 -0.0893
 5478TIP3    H137993   3.234   4.513   7.086 -0.7706 -0.0478 -0.5117
 5478TIP3    H237994   3.262   4.536   7.233  0.5444 -1.4932 -0.5163
 5479TIP3   OH237995   5.902   6.308   7.224  0.0818 -0.1491 -0.4165
 5479TIP3    H137996   5.877   6.401   7.223  0.8571  0.0715  0.0434
 5479TIP3    H237997   5.836   6.265   7.169 -0.2955  0.6698 -0.6215
 5480TIP3   OH237998   1.774   4.411   6.416  0.6264 -0.4490 -0.1114
 5480TIP3    H137999   1.828   4.341   6.453  2.1668  0.4734 -0.5323
 5480TIP3    H238000   1.823   4.491   6.435 -0.8624  0.4878 -0.0724
 5481TIP3   OH238001   5.674   6.695   7.847 -0.4562  0.3101  0.0860
 5481TIP3    H138002   5.585   6.698   7.883 -0.4470  1.2857  0.0654
 5481TIP3    H238003   5.731   6.685   7.923 -0.6144 -1.2706  0.0280
 5482TIP3   OH238004   3.048   3.018   7.720 -0.2220 -0.1928 -0.1191
 5482TIP3    H138005   3.035   3.106   7.684 -0.5195 -1.1885 -2.6088
 5482TIP3    H238006   3.141   3.000   7.704  0.1078  0.0431  1.3856
 5483TIP3   OH238007   4.041   3.305   1.410  0.4538  1.1165  0.0947
 5483TIP3    H138008   3.986   3.227   1.411  1.3760  0.4545  1.1785
 5483TIP3    H238009   4.093   3.299   1.490  0.6673  2.7602  0.1108
 5484TIP3   OH238010   4.868   5.100   7.576 -0.4294 -0.1950 -0.3043
 5484TIP3    H138011   4.815   5.082   7.654  0.5639  1.4158  0.8085
 5484TIP3    H238012   4.864   5.195   7.566  1.3948 -0.1219 -0.7718
 5485TIP3   OH238013   3.250   5.214   0.945  0.3713  0.0649 -0.0486
 5485TIP3    H138014   3.178   5.271   0.918  1.2610  0.3629 -1.9764
 5485TIP3    H238015   3.329   5.263   0.921  1.1867 -0.9085  0.5915
 5486TIP3   OH238016   2.105   4.225   7.060  0.4304  0.1203 -0.0192
 5486TIP3    H138017   2.174   4.213   7.126  0.2345  1.0911  0.3823
 5486TIP3    H238018   2.043   4.154   7.077  1.4044 -0.8748 -0.4944
 5487TIP3   OH238019   5.122   0.794   6.983 -0.2546 -0.1316 -0.0557
 5487TIP3    H138020   5.131   0.711   6.936 -0.1212 -0.7851  1.0913
 5487TIP3    H238021   5.212   0.821   7.002 -0.3171 -0.1670  0.3052
 5488TIP3   OH238022   4.027   0.459   7.515 -0.5003  0.5677 -0.3103
 5488TIP3    H138023   4.017   0.550   7.544  1.5478  0.3303  1.3310
 5488TIP3    H238024   4.042   0.409   7.595  0.1924 -0.9462 -1.3319
 5489TIP3   OH238025   0.366   4.188   7.230 -0.2881 -0.2897  0.0706
 5489TIP3    H138026   0.362   4.284   7.239 -0.5072  0.0933 -3.0898
 5489TIP3    H238027   0.275   4.160   7.242 -0.3317 -0.0206  0.3749
 5490TIP3   OH238028   1.190   6.697   8.474  0.5870 -0.3767 -0.0567
 5490TIP3    H138029   1.155   6.612   8.449  1.3546 -0.6930 -0.0899
 5490TIP3    H238030   1.136   6.761   8.427  2.0818 -0.9391 -2.7087
 5491TIP3   OH238031   0.775   6.713   1.628  0.1751  0.1202  0.5901
 5491TIP3    H138032   0.836   6.655   1.581  1.8561  0.3226  2.4343
 5491TIP3    H238033   0.787   6.691   1.720 -3.0538 -0.2794  1.0310
 5492TIP3   OH238034   0.157   0.319   1.683  0.4857 -0.2657 -0.2270
 5492TIP3    H138035   0.124   0.293   1.768 -0.7149  0.7020 -0.3749
 5492TIP3    H238036   0.096   0.385   1.652  1.0228 -0.4332 -1.7503
 5493TIP3   OH238037   1.516   4.693   7.599 -0.0322 -0.0892 -0.1958
 5493TIP3    H138038   1.486   4.616   7.550 -1.6618 -0.5122  1.3579
 5493TIP3    H238039   1.459   4.695   7.677  0.1922  2.5098 -0.0391
 5494TIP3   OH238040   5.333   1.102   0.612 -0.1485 -0.0110 -0.2219
 5494TIP3    H138041   5.322   1.141   0.699 -0.6611  0.5042 -0.5176
 5494TIP3    H238042   5.380   1.020   0.629  0.8610  0.6670  0.4178
 5495TIP3   OH238043   3.653   2.539   0.253  0.5389 -0.1999 -0.1656
 5495TIP3    H138044   3.569   2.527   0.297  0.6670 -0.8165 -0.0808
 5495TIP3    H238045   3.718   2.514   0.319  0.8076  0.5904 -0.1204
 5496TIP3   OH238046   3.518   2.906   0.271  0.0290  0.2886  0.2574
 5496TIP3    H138047   3.521   2.984   0.217 -2.1562  0.0066 -0.3637
 5496TIP3    H238048   3.606   2.868   0.264  0.7986  2.1034 -0.2647
 5497TIP3   OH238049   1.880   1.904   0.302 -0.2052  0.2919  0.3402
 5497TIP3    H138050   1.796   1.948   0.309 -0.1620  0.5733 -0.7472
 5497TIP3    H238051   1.859   1.814   0.279 -0.2133  0.3382  0.1659
 5498TIP3   OH238052   3.334   6.126   0.471 -0.0447 -0.3412  0.0705
 5498TIP3    H138053   3.306   6.043   0.508  0.0188 -0.7289 -0.7257
 5498TIP3    H238054   3.288   6.132   0.387  0.2878  0.2162 -0.0791
 5499TIP3   OH238055   1.013   3.828   7.828 -0.0305  0.1000 -0.5271
 5499TIP3    H138056   0.992   3.787   7.744  0.9889 -0.6184 -0.4567
 5499TIP3    H238057   0.946   3.796   7.888  1.3481 -2.4978 -0.1991
 5500TIP3   OH238058   1.564   1.980   2.189  0.1301 -0.0577 -0.0012
 5500TIP3    H138059   1.616   1.900   2.189  1.5974  0.7590 -2.4540
 5500TIP3    H238060   1.482   1.956   2.145  0.1702 -0.4248  0.1232
 5501TIP3   OH238061   1.166   6.171   1.161 -0.0285  0.1919 -0.3293
 5501TIP3    H138062   1.156   6.194   1.069  1.1433  0.2971 -0.4435
 5501TIP3    H238063   1.250   6.127   1.166 -0.8017 -1.2569  0.4340
 5502TIP3   OH238064   4.060   0.300   7.029 -0.4694  0.3876 -0.1025
 5502TIP3    H138065   4.127   0.368   7.023 -1.2369  1.4407  2.2636
 5502TIP3    H238066   4.011   0.321   7.108 -1.7036 -2.0786 -0.1166
 5503TIP3   OH238067   0.242   4.457   0.939 -0.2587 -0.0636  0.7249
 5503TIP3    H138068   0.253   4.521   0.869 -0.3266 -0.5367  0.2728
 5503TIP3    H238069   0.177   4.496   0.997  0.1727  0.5591  0.8001
 5504TIP3   OH238070   1.054   6.392   6.377 -0.2109  0.1526 -0.0517
 5504TIP3    H138071   1.066   6.464   6.316 -1.2127  1.0618  0.7726
 5504TIP3    H238072   1.014   6.322   6.325  1.8852 -0.2984 -1.1405
 5505TIP3   OH238073   0.189   3.441   8.432  0.5308  0.3718 -0.3917
 5505TIP3    H138074   0.123   3.373   8.438 -0.1006  1.0740  0.9707
 5505TIP3    H238075   0.199   3.456   8.338 -0.7717 -0.2068 -0.6469
 5506TIP3   OH238076   1.857   5.390   0.101  0.6812  0.6353 -0.0564
 5506TIP3    H138077   1.909   5.469   0.113  0.3200  0.6298  1.7605
 5506TIP3    H238078   1.922   5.323   0.078  1.5202  0.6645  1.9936
 5507TIP3   OH238079   0.115   0.160   1.908  0.0764 -0.6562 -0.2278
 5507TIP3    H138080   0.029   0.120   1.920 -0.3150  0.2217  0.0075
 5507TIP3    H238081   0.173   0.110   1.965 -0.2078 -1.4612 -0.6283
 5508TIP3   OH238082   2.777   5.786   7.359  0.2865  0.4006  0.0965
 5508TIP3    H138083   2.741   5.850   7.297  0.3007 -0.3667 -0.7206
 5508TIP3    H238084   2.865   5.820   7.379  0.3771  0.5237 -0.4931
 5509TIP3   OH238085   6.108   5.004   6.479 -0.2237  0.0590 -0.2722
 5509TIP3    H138086   6.022   5.025   6.443  0.0081  0.7910 -0.4235
 5509TIP3    H238087   6.130   4.919   6.442 -1.9212 -1.3322  1.6404
 5510TIP3   OH238088   6.807   5.231   0.979  1.2176  0.0800 -0.6443
 5510TIP3    H138089   6.760   5.158   0.940  0.0276  0.6863 -0.4179
 5510TIP3    H238090   6.832   5.286   0.905 -0.2993  0.7990 -0.6868
 5511TIP3   OH238091   2.055   3.482   6.541 -0.5489 -0.1632  0.3731
 5511TIP3    H138092   2.106   3.529   6.608  1.3867 -0.7373 -0.6383
 5511TIP3    H238093   2.021   3.405   6.587 -0.1840  0.0208  0.9708
 5512TIP3   OH238094   2.826   4.020   1.717 -0.3721 -0.1131 -0.0087
 5512TIP3    H138095   2.899   3.961   1.696 -0.3540  0.0902 -0.5404
 5512TIP3    H238096   2.749   3.975   1.683 -0.4717 -0.2411  0.3852
 5513TIP3   OH238097   3.565   4.789   7.544 -0.6150 -0.4480  0.0943
 5513TIP3    H138098   3.602   4.721   7.487  0.6545 -0.2268  0.6242
 5513TIP3    H238099   3.493   4.826   7.493 -0.6567 -1.4853 -0.6267
 5514TIP3   OH238100   5.783   5.185   0.373  0.0926 -0.5059  0.3380
 5514TIP3    H138101   5.750   5.158   0.287 -0.9794  0.3152  0.4773
 5514TIP3    H238102   5.738   5.267   0.392  0.0617 -0.8403  1.8445
 5515TIP3   OH238103   4.242   5.098   8.625 -0.6528  0.0581  0.4708
 5515TIP3    H138104   4.328   5.057   8.628  0.6171  2.5880  1.5128
 5515TIP3    H238105   4.217   5.110   8.717 -2.2299 -0.7583  0.1934
 5516TIP3   OH238106   1.809   2.880   1.065 -0.0131  0.4554 -0.0406
 5516TIP3    H138107   1.815   2.793   1.105 -1.6680  0.4860  0.3580
 5516TIP3    H238108   1.715   2.892   1.048  0.1365  2.3023  0.2432
 5517TIP3   OH238109   0.226   0.041   8.109  0.6976 -0.1377  0.0204
 5517TIP3    H138110   0.200  -0.039   8.063  0.2703  0.9361 -1.6722
 5517TIP3    H238111   0.302   0.073   8.061  0.9292  0.4296  0.7423
 5518TIP3   OH238112   6.613   3.843   1.015  0.6316  0.6020  0.1274
 5518TIP3    H138113   6.664   3.764   0.996 -1.7532 -0.5961 -1.9576
 5518TIP3    H238114   6.537   3.811   1.064  0.7068  1.9867  1.2177
 5519TIP3   OH238115   1.722   0.535   7.396 -0.2538  0.8515 -0.1835
 5519TIP3    H138116   1.780   0.461   7.413 -1.0830 -0.2001 -1.6557
 5519TIP3    H238117   1.750   0.603   7.457 -0.4598 -1.1877  2.3434
 5520TIP3   OH238118   3.077   1.851   7.892 -0.4810  0.4663 -0.0160
 5520TIP3    H138119   3.030   1.903   7.827 -1.4037  1.0799  1.1084
 5520TIP3    H238120   3.039   1.763   7.886 -1.7391  0.9283  0.8029
 5521TIP3   OH238121   6.829   2.235   6.790 -0.2614 -0.3085 -0.1067
 5521TIP3    H138122   6.827   2.327   6.765 -0.5741 -1.1093 -3.5488
 5521TIP3    H238123   6.908   2.226   6.843  0.5778  1.6759 -0.9292
 5522TIP3   OH238124   3.630   5.992   2.022 -0.2661  0.2019 -0.4367
 5522TIP3    H138125   3.642   6.038   1.939  1.2512 -0.3159 -0.5245
 5522TIP3    H238126   3.702   5.929   2.027  0.7735  1.4399  2.0961
 5523TIP3   OH238127   1.145   5.695   0.560  0.1342  0.1015 -0.0523
 5523TIP3    H138128   1.153   5.702   0.465  1.5817 -0.0004  0.0531
 5523TIP3    H238129   1.059   5.655   0.573  0.5592 -1.3498 -1.3898
 5524TIP3   OH238130   5.809   6.008   0.535 -0.4422 -0.1063 -0.0764
 5524TIP3    H138131   5.787   6.070   0.465  1.2510  0.8403  0.1928
 5524TIP3    H238132   5.836   5.929   0.489  1.2016  0.6951 -0.5597
 5525TIP3   OH238133   1.023   1.059   0.886 -0.8284 -0.0289  0.0127
 5525TIP3    H138134   1.000   1.028   0.798 -0.1731  0.4399 -0.3377
 5525TIP3    H238135   1.019   1.155   0.878 -0.5870  0.0169  0.4444
 5526TIP3   OH238136   4.928   0.758   8.551  0.0381 -0.1557  0.4433
 5526TIP3    H138137   4.925   0.744   8.457  0.6847 -0.9250  0.5223
 5526TIP3    H238138   4.997   0.823   8.564  1.1353 -1.2677  0.4765
 5527TIP3   OH238139   4.328   6.838   0.493 -0.7066  0.6821 -0.3076
 5527TIP3    H138140   4.338   6.878   0.406  0.1199  1.3507  0.0750
 5527TIP3    H238141   4.301   6.749   0.475  0.1946  0.5804 -1.2953
 5528TIP3   OH238142   2.194   2.831   0.320 -0.1333 -0.4297 -0.5874
 5528TIP3    H138143   2.232   2.775   0.388 -0.4753  0.5158  0.4150
 5528TIP3    H238144   2.120   2.781   0.286 -0.9288 -0.2843  0.8536
 5529TIP3   OH238145   3.000   4.677   1.101 -0.1028 -1.0078 -0.2935
 5529TIP3    H138146   2.921   4.699   1.152  0.5007 -1.3054  0.7912
 5529TIP3    H238147   3.011   4.752   1.042  0.1552  0.1945  1.2104
 5530TIP3   OH238148   4.888   2.178   1.098  0.3184  0.3485 -0.4120
 5530TIP3    H138149   4.908   2.232   1.175  2.2932 -1.4029  0.4120
 5530TIP3    H238150   4.827   2.112   1.131  0.8537 -0.1597 -0.4136
 5531TIP3   OH238151   2.245   3.353   6.853 -0.0016  0.0307 -0.0832
 5531TIP3    H138152   2.169   3.411   6.848 -0.4406 -0.5984 -3.3604
 5531TIP3    H238153   2.208   3.267   6.873  0.1316  0.1391  0.6254
 5532TIP3   OH238154   5.166   6.371   6.941 -0.6546 -0.0054 -0.4992
 5532TIP3    H138155   5.138   6.355   7.031 -3.2148  0.0535 -1.2115
 5532TIP3    H238156   5.124   6.454   6.917 -0.1435 -0.0944 -1.7998
 5533TIP3   OH238157   3.405   5.418   0.193  0.0254  0.3571  0.4803
 5533TIP3    H138158   3.350   5.364   0.137  0.3961  0.7171 -0.2565
 5533TIP3    H238159   3.454   5.474   0.132 -0.2969  1.4738  1.2118
 5534TIP3   OH238160   3.891   0.585   8.183 -0.3640 -0.6073  0.3221
 5534TIP3    H138161   3.863   0.667   8.141 -0.3140 -0.7626 -0.0189
 5534TIP3    H238162   3.819   0.561   8.241 -1.1620 -1.2636 -0.9039
 5535TIP3   OH238163   4.399   0.215   8.111 -0.5208  0.0300 -0.3747
 5535TIP3    H138164   4.323   0.213   8.169  0.2214 -1.5129  0.6131
 5535TIP3    H238165   4.386   0.293   8.057 -2.8701 -0.2839 -0.3501
 5536TIP3   OH238166   0.882   5.063   1.120 -0.5011  0.2201 -0.3134
 5536TIP3    H138167   0.842   5.138   1.163 -1.3759 -0.5466  0.2466
 5536TIP3    H238168   0.960   5.099   1.076  0.8948  0.9233  2.4839
 5537TIP3   OH238169   2.891   6.310   1.696 -0.7176  0.3519  0.5705
 5537TIP3    H138170   2.881   6.264   1.779 -2.4330 -1.1946 -0.4066
 5537TIP3    H238171   2.914   6.242   1.633 -2.0031  1.0053 -0.6802
 5538TIP3   OH238172   5.346   3.332   8.646 -0.3792 -0.0465  0.8584
 5538TIP3    H138173   5.304   3.416   8.662 -1.4263 -0.3510 -0.1136
 5538TIP3    H238174   5.278   3.279   8.604  1.3186 -0.1523 -2.0392
 5539TIP3   OH238175   5.250   5.267   8.602 -0.0911  0.2925 -0.4252
 5539TIP3    H138176   5.275   5.320   8.526  1.2872 -0.2969 -0.4090
 5539TIP3    H238177   5.247   5.177   8.568  2.4689 -0.2545  0.5861
 5540TIP3   OH238178   2.940   2.944   1.300 -0.5652  0.0926 -0.0129
 5540TIP3    H138179   2.861   2.970   1.347 -0.4651  0.6665 -0.1560
 5540TIP3    H238180   3.012   2.987   1.347 -0.6094  2.3271 -1.7926
 5541TIP3   OH238181   2.195   6.400   6.586 -0.6764 -0.5101  0.3327
 5541TIP3    H138182   2.267   6.435   6.533 -0.9691  0.7333  0.7204
 5541TIP3    H238183   2.237   6.342   6.649 -0.2832 -1.7564 -1.0123
 5542TIP3   OH238184   3.615   5.898   6.889  0.2772  0.2016 -0.6581
 5542TIP3    H138185   3.608   5.821   6.833 -0.2558  0.4904 -0.9946
 5542TIP3    H238186   3.704   5.894   6.924  0.0364 -0.9645 -0.0934
 5543TIP3   OH238187   2.236   5.800   0.947 -0.0370 -0.5365  0.3987
 5543TIP3    H138188   2.302   5.856   0.906 -0.3662 -0.5934 -0.2227
 5543TIP3    H238189   2.285   5.724   0.977  0.2765 -0.3049  0.4803
 5544TIP3   OH238190   0.554   6.379   0.566 -0.3202 -0.1799  0.1317
 5544TIP3    H138191   0.552   6.472   0.587  2.6463 -0.1909  0.8721
 5544TIP3    H238192   0.567   6.336   0.651 -1.5439 -1.2957 -0.2102
 5545TIP3   OH238193   3.113   1.005   7.704 -0.3019  0.1116 -0.2550
 5545TIP3    H138194   3.190   0.952   7.680  1.0495  1.5376  0.7358
 5545TIP3    H238195   3.069   1.022   7.621  1.3581  0.5918 -1.0901
 5546TIP3   OH238196   5.070   0.378   0.722 -0.5713  0.4261  0.2456
 5546TIP3    H138197   5.113   0.354   0.804  0.3702  1.4807  0.0843
 5546TIP3    H238198   5.139   0.420   0.670 -1.3830  0.6135 -0.7075
 5547TIP3   OH238199   0.070   6.296   0.320  0.2554  0.0947 -0.4604
 5547TIP3    H138200   0.085   6.213   0.365  3.9913  0.2143 -1.1254
 5547TIP3    H238201   0.114   6.361   0.374 -2.3932  1.7228 -0.0813
 5548TIP3   OH238202   3.168   6.178   7.437  0.3350 -0.6377 -0.4907
 5548TIP3    H138203   3.110   6.239   7.483 -0.1230 -0.1513 -1.6716
 5548TIP3    H238204   3.240   6.232   7.405  0.5146 -0.9216 -0.5700
 5549TIP3   OH238205   2.290   3.909   0.772 -0.6770  0.1364  0.6619
 5549TIP3    H138206   2.219   3.929   0.711 -0.0839  0.1371 -0.0320
 5549TIP3    H238207   2.370   3.926   0.723 -0.1683 -1.4015  0.8920
 5550TIP3   OH238208   1.543   1.681   5.893  0.8008 -0.0125  0.1913
 5550TIP3    H138209   1.524   1.756   5.950 -0.3058  0.3139 -0.5815
 5550TIP3    H238210   1.638   1.671   5.899  0.7770  0.2891  1.7357
 5551TIP3   OH238211   2.155   2.194   7.398  0.2206 -0.2827 -0.1287
 5551TIP3    H138212   2.120   2.118   7.350 -1.9081  0.1543  0.5955
 5551TIP3    H238213   2.101   2.267   7.369  0.3937  0.4117  1.2118
 5552TIP3   OH238214   0.279   3.910   0.183  0.3618 -0.1878 -0.0781
 5552TIP3    H138215   0.265   3.999   0.214 -0.1428 -0.1492 -0.3934
 5552TIP3    H238216   0.212   3.898   0.115  0.6524 -0.6839 -0.2821
 5553TIP3   OH238217   3.841   4.364   7.384 -0.5659 -0.1062 -0.1283
 5553TIP3    H138218   3.877   4.358   7.472 -0.5911 -0.1549 -0.1215
 5553TIP3    H238219   3.899   4.311   7.330  1.2507  2.2866 -0.7167
 5554TIP3   OH238220   2.670   4.291   8.304  0.5418 -0.4764 -0.3769
 5554TIP3    H138221   2.607   4.360   8.286 -1.5887 -1.8833  1.1037
 5554TIP3    H238222   2.688   4.299   8.398  0.4264 -1.7462 -0.2282
 5555TIP3   OH238223   2.295   0.618   1.268 -0.3129  0.6214  0.0836
 5555TIP3    H138224   2.253   0.687   1.320 -3.4197 -0.9820 -0.0588
 5555TIP3    H238225   2.362   0.582   1.326 -0.3066  2.1178  1.0690
 5556TIP3   OH238226   4.905   6.671   7.571  0.3442 -0.3410 -0.5182
 5556TIP3    H138227   4.809   6.670   7.578  0.3174  2.0982  0.2156
 5556TIP3    H238228   4.930   6.580   7.586 -1.7870 -0.8500  0.3965
 5557TIP3   OH238229   5.843   5.845   8.474 -0.8493 -0.1892 -0.0074
 5557TIP3    H138230   5.806   5.927   8.440 -1.2726 -0.8343 -1.1628
 5557TIP3    H238231   5.768   5.799   8.512 -0.3267  0.6833  2.2589
 5558TIP3   OH238232   5.412   2.994   7.838  0.2855  0.0243  0.0954
 5558TIP3    H138233   5.338   3.042   7.799 -0.4583 -0.9567  0.2658
 5558TIP3    H238234   5.460   3.060   7.887 -0.2710  0.7545 -0.3236
 5559TIP3   OH238235   1.972   2.701   7.972 -0.3019 -1.0778 -0.8470
 5559TIP3    H138236   1.940   2.703   7.882 -0.2323  0.4625 -0.8526
 5559TIP3    H238237   2.038   2.770   7.976 -2.1235  0.6685  1.0575
 5560TIP3   OH238238   0.582   0.927   1.166  0.1245  0.0601 -0.0632
 5560TIP3    H138239   0.633   0.913   1.086  1.1259  0.5429  0.4838
 5560TIP3    H238240   0.546   0.840   1.186  0.0070 -0.1061 -0.9233
 5561TIP3   OH238241   6.870   0.784   7.788 -0.7085  1.0202  0.3047
 5561TIP3    H138242   6.804   0.745   7.846 -2.6454  1.2928 -1.5709
 5561TIP3    H238243   6.843   0.875   7.778 -0.3730  0.9988 -0.9383
 5562TIP3   OH238244   2.829   2.226   7.721 -0.0944 -0.4337  0.1552
 5562TIP3    H138245   2.799   2.314   7.744 -0.0694 -0.2115 -0.6569
 5562TIP3    H238246   2.814   2.219   7.627  0.1406 -1.2074  0.1703
 5563TIP3   OH238247   5.337   2.870   2.159 -0.4000  0.0248  0.3171
 5563TIP3    H138248   5.266   2.819   2.199 -0.6234 -0.7897 -1.0693
 5563TIP3    H238249   5.408   2.808   2.146 -1.1356 -0.3413 -2.5897
 5564TIP3   OH238250   3.802   4.780   7.769  0.0517 -0.0869 -0.2900
 5564TIP3    H138251   3.788   4.788   7.864 -0.7760  1.3469 -0.5086
 5564TIP3    H238252   3.715   4.757   7.734  0.3134 -0.4316 -0.7236
 5565TIP3   OH238253   0.057   6.262   2.332 -0.2937 -0.0818  0.2659
 5565TIP3    H138254  -0.023   6.235   2.287 -0.5148 -2.6862  1.9950
 5565TIP3    H238255   0.034   6.262   2.425  0.7017  3.0858  0.6629
 5566TIP3   OH238256   1.504   5.627   7.963 -0.1122 -0.0244 -0.2478
 5566TIP3    H138257   1.566   5.666   7.901 -0.3472 -0.0121 -0.4782
 5566TIP3    H238258   1.526   5.665   8.048  1.0145 -0.9555 -0.1024
 5567TIP3   OH238259   5.173   6.123   8.339 -0.5788 -0.0898 -0.2176
 5567TIP3    H138260   5.110   6.177   8.387  0.7635  0.5214  0.9130
 5567TIP3    H238261   5.235   6.093   8.405 -0.0761 -1.2716 -1.1846
 5568TIP3   OH238262   1.114   2.087   6.567 -0.3806  0.8992 -0.1613
 5568TIP3    H138263   1.117   2.174   6.606  2.1587  1.0545 -0.5488
 5568TIP3    H238264   1.192   2.082   6.512 -0.4590 -1.6085 -0.1698
 5569TIP3   OH238265   0.870   5.404   1.210 -0.0464  0.0552  0.2744
 5569TIP3    H138266   0.948   5.393   1.157  0.7615 -0.1037  1.4687
 5569TIP3    H238267   0.898   5.458   1.284 -1.0355 -0.1041  0.7878
 5570TIP3   OH238268   3.600   6.711   0.381 -0.4072  0.1429  0.0122
 5570TIP3    H138269   3.519   6.753   0.353 -1.3013 -1.5382  0.0108
 5570TIP3    H238270   3.593   6.708   0.477 -0.2707  0.1134  0.0212
 5571TIP3   OH238271   1.549   5.126   1.450  0.4118  0.2658 -0.2662
 5571TIP3    H138272   1.475   5.125   1.390 -0.1145  0.4978  0.3631
 5571TIP3    H238273   1.580   5.216   1.448  0.5083  0.2309 -0.3291
 5572TIP3   OH238274   6.604   3.084   0.084  0.9928  0.2489  0.3405
 5572TIP3    H138275   6.532   3.056   0.141  0.9481  0.8314  0.5778
 5572TIP3    H238276   6.672   3.019   0.098  0.3136 -0.6278 -0.3037
 5573TIP3   OH238277   4.595   2.242   7.370 -0.8966  0.8694  0.3693
 5573TIP3    H138278   4.685   2.246   7.403 -1.7370 -1.4071  3.3909
 5573TIP3    H238279   4.546   2.301   7.427 -1.5635  1.1519 -0.4715
 5574TIP3   OH238280   5.728   1.909   8.169 -0.7607 -0.0196 -0.2802
 5574TIP3    H138281   5.687   1.929   8.253  0.9287 -0.8234  0.7836
 5574TIP3    H238282   5.760   1.993   8.137 -0.4593  0.1462  0.4328
 5575TIP3   OH238283   6.372   5.180   8.113  0.4007  0.3398  0.4139
 5575TIP3    H138284   6.397   5.153   8.201  1.1847  0.6238  0.2860
 5575TIP3    H238285   6.278   5.159   8.107  0.3238  0.3761  1.3299
 5576TIP3   OH238286   0.143   5.622   0.722 -0.2848 -0.4721 -0.1568
 5576TIP3    H138287   0.147   5.717   0.736 -0.7671 -0.5478  0.5679
 5576TIP3    H238288   0.159   5.584   0.808 -0.4822 -1.0414 -0.3653
 5577TIP3   OH238289   0.098   3.586   1.706  0.1741 -0.0095 -0.5164
 5577TIP3    H138290   0.015   3.573   1.659 -0.1387  1.4902 -0.4293
 5577TIP3    H238291   0.133   3.668   1.670  1.4025 -0.3816 -0.2184
 5578TIP3   OH238292   3.348   6.375   8.560 -0.1705  0.1579 -0.5886
 5578TIP3    H138293   3.275   6.417   8.604 -0.4519  0.6864 -1.5361
 5578TIP3    H238294   3.413   6.360   8.629 -0.8904  0.3038  0.1273
 5579TIP3   OH238295   2.611   6.228   1.173 -0.1395 -0.2588  0.4870
 5579TIP3    H138296   2.660   6.292   1.225  1.9992 -1.7289  0.4273
 5579TIP3    H238297   2.651   6.144   1.196 -1.3467 -1.3114 -1.1022
 5580TIP3   OH238298   4.346   1.007   2.282  0.4566  0.2199 -0.0173
 5580TIP3    H138299   4.313   1.051   2.204 -2.7858  1.0617  1.6585
 5580TIP3    H238300   4.299   0.924   2.286  0.1470  0.4230  1.2707
 5581TIP3   OH238301   5.370   5.774   1.535 -0.6247  0.3645  0.4736
 5581TIP3    H138302   5.295   5.716   1.551 -0.3809  0.3068  1.4788
 5581TIP3    H238303   5.331   5.858   1.513 -0.9834  0.0182 -0.2626
 5582TIP3   OH238304   5.927   2.262   6.717  0.5078 -0.0092 -0.0905
 5582TIP3    H138305   5.847   2.315   6.714  0.4103 -0.0468  1.2918
 5582TIP3    H238306   5.986   2.304   6.655  0.1735  1.3216  0.4607
 5583TIP3   OH238307   2.949   5.374   8.364  0.5461 -0.0609 -0.3169
 5583TIP3    H138308   2.921   5.395   8.453 -0.7642 -0.2234 -0.6649
 5583TIP3    H238309   2.962   5.280   8.365 -0.4515 -0.2179 -0.5272
 5584TIP3   OH238310   0.455   3.812   8.038 -0.2451  0.1245  0.1619
 5584TIP3    H138311   0.512   3.889   8.043 -0.4552  0.2446  0.9445
 5584TIP3    H238312   0.481   3.759   8.114  0.4245 -0.9585 -0.7777
 5585TIP3   OH238313   0.999   6.047   6.285 -0.4145  0.4712 -0.1590
 5585TIP3    H138314   0.920   6.068   6.334 -0.0956  0.8386  0.2017
 5585TIP3    H238315   0.989   6.094   6.202 -1.4720 -1.0336 -0.9439
 5586TIP3   OH238316   1.489   0.221   8.522 -0.1341 -0.1468  0.0700
 5586TIP3    H138317   1.477   0.178   8.437 -0.2182 -0.0607  0.0371
 5586TIP3    H238318   1.518   0.151   8.581  1.4088  0.0741 -0.3758
 5587TIP3   OH238319   5.202   4.648   7.116 -0.3811  0.8234 -0.5707
 5587TIP3    H138320   5.289   4.633   7.081 -0.2215  1.8752 -0.6509
 5587TIP3    H238321   5.144   4.593   7.063  0.6087 -3.0143  1.9210
 5588TIP3   OH238322   2.156   0.053   1.485  0.0078 -0.0725 -0.3203
 5588TIP3    H138323   2.167  -0.007   1.411 -1.1681 -1.4236  0.5518
 5588TIP3    H238324   2.244   0.085   1.504  0.4661 -0.4642 -1.6589
 5589TIP3   OH238325   5.941   4.930   7.422 -0.6137  0.1079  0.0239
 5589TIP3    H138326   5.985   4.975   7.494 -0.7235  0.4183 -0.0964
 5589TIP3    H238327   5.988   4.847   7.412  1.2590  1.2358 -1.3691
 5590TIP3   OH238328   4.462   1.158   6.943 -0.3902 -0.4471  0.1838
 5590TIP3    H138329   4.370   1.178   6.926  0.0847  1.7730 -0.0512
 5590TIP3    H238330   4.509   1.202   6.872  0.9513 -0.2396  1.1847
 5591TIP3   OH238331   4.623   6.121   0.470  0.0487 -0.2206  0.3646
 5591TIP3    H138332   4.595   6.038   0.430 -0.4713 -0.8954  2.0501
 5591TIP3    H238333   4.637   6.179   0.395 -0.5450 -1.5176 -0.8192
 5592TIP3   OH238334   6.812   2.520   6.741 -0.4018 -0.3540  0.0452
 5592TIP3    H138335   6.788   2.600   6.694 -0.4030 -0.6615 -0.4945
 5592TIP3    H238336   6.906   2.531   6.759 -0.1186 -0.7283 -1.0757
 5593TIP3   OH238337   1.215   1.432   1.355 -0.3246 -0.4844 -0.2867
 5593TIP3    H138338   1.206   1.508   1.412 -1.5256 -0.4721 -0.4776
 5593TIP3    H238339   1.136   1.381   1.369  1.3380 -2.8301  1.4035
 5594TIP3   OH238340   4.110   6.296   1.730  0.2494  0.4435 -0.3391
 5594TIP3    H138341   4.057   6.297   1.810 -1.4741  1.8304 -1.4308
 5594TIP3    H238342   4.178   6.231   1.748 -0.6308  0.0310  1.8872
 5595TIP3   OH238343   3.251   1.993   7.239  0.1557 -0.2849  0.6040
 5595TIP3    H138344   3.166   2.007   7.281  0.0377  3.0753 -0.4361
 5595TIP3    H238345   3.230   1.952   7.155 -0.5745  1.2302  0.0205
 5596TIP3   OH238346   3.930   0.243   8.104  0.8373  0.2786 -0.2195
 5596TIP3    H138347   3.839   0.215   8.113  0.8380  0.5069  0.5585
 5596TIP3    H238348   3.963   0.192   8.030 -0.4295  1.5128 -1.7124
 5597TIP3   OH238349   1.455   5.357   1.745 -1.0637  0.2728 -0.0764
 5597TIP3    H138350   1.515   5.429   1.766 -0.2415 -0.6474  0.8594
 5597TIP3    H238351   1.447   5.359   1.649 -0.4455  1.1216 -0.1167
 5598TIP3   OH238352   4.181   0.843   1.721  0.2929  0.0535 -0.3069
 5598TIP3    H138353   4.248   0.907   1.700  1.9805 -1.1637  1.0444
 5598TIP3    H238354   4.160   0.860   1.813  0.7221 -1.2354  0.0541
 5599TIP3   OH238355   6.170   3.799   0.058 -0.8754  0.3100  0.2246
 5599TIP3    H138356   6.195   3.792   0.150 -0.1017  2.0881  0.2078
 5599TIP3    H238357   6.221   3.732   0.013  0.2605  0.7327  0.8474
 5600TIP3   OH238358   5.061   1.111   1.623 -0.0450 -0.0866 -0.5376
 5600TIP3    H138359   5.018   1.085   1.705  1.4634 -0.9222  0.0352
 5600TIP3    H238360   5.027   1.199   1.605 -0.7799 -0.0876  0.7200
 5601TIP3   OH238361   5.579   0.667   2.387  0.2601 -0.3214  0.1337
 5601TIP3    H138362   5.518   0.722   2.338 -0.5159 -0.9087  0.4262
 5601TIP3    H238363   5.657   0.722   2.400 -0.3515  0.5626  0.0785
 5602TIP3   OH238364   1.753   0.389   2.390  0.6902 -0.2455  0.1942
 5602TIP3    H138365   1.787   0.300   2.400  1.6602  0.3142  2.4790
 5602TIP3    H238366   1.829   0.440   2.362  0.4560  0.1178  0.2188
 5603TIP3   OH238367   0.519   0.030   6.841  0.3768  0.6095  0.2582
 5603TIP3    H138368   0.598  -0.024   6.846 -0.1556 -0.2908 -0.6650
 5603TIP3    H238369   0.535   0.088   6.766  0.2792  0.6129  0.2395
 5604TIP3   OH238370   4.538   4.158   0.132 -0.1733 -0.0850  0.5200
 5604TIP3    H138371   4.453   4.177   0.091 -0.3113 -2.3404 -0.3397
 5604TIP3    H238372   4.595   4.229   0.103 -1.3357  0.5732 -0.2408
 5605TIP3   OH238373   6.173   5.669   0.436  0.3762  0.7234  0.7281
 5605TIP3    H138374   6.191   5.591   0.382 -1.2906 -0.4412  1.7965
 5605TIP3    H238375   6.173   5.742   0.373  2.1299 -0.0710 -0.2672
 5606TIP3   OH238376   3.913   0.339   7.254 -0.2252  0.0326  0.4546
 5606TIP3    H138377   3.873   0.260   7.290  0.3332  0.2905  1.7011
 5606TIP3    H238378   3.951   0.384   7.330  1.3366  0.4222 -0.4973
 5607TIP3   OH238379   1.183   3.766   7.082  0.5635  1.2855  0.7522
 5607TIP3    H138380   1.199   3.853   7.045  0.4682 -0.2104 -3.3263
 5607TIP3    H238381   1.271   3.731   7.098  0.7057  1.2641 -0.0208
 5608TIP3   OH238382   5.380   6.038   8.519  0.1058 -0.1536  0.8816
 5608TIP3    H138383   5.449   6.059   8.456 -0.5200 -0.6553  0.0170
 5608TIP3    H238384   5.410   5.957   8.560  1.1099  0.8178  2.1411
 5609TIP3   OH238385   6.822   2.340   7.700  0.0529  0.5478  0.4292
 5609TIP3    H138386   6.911   2.362   7.672 -0.1203  1.8380  0.8144
 5609TIP3    H238387   6.769   2.355   7.621  0.5032 -3.1899 -0.7536
 5610TIP3   OH238388   1.852   2.403   1.889  0.4379 -0.2049  0.2960
 5610TIP3    H138389   1.785   2.349   1.848 -1.1984  0.5172  1.8573
 5610TIP3    H238390   1.805   2.483   1.915  1.9894  0.4681  1.1500
 5611TIP3   OH238391   4.429   6.341   6.342 -0.2426 -0.7709  0.1986
 5611TIP3    H138392   4.478   6.281   6.400 -0.2547  0.4862  1.5669
 5611TIP3    H238393   4.420   6.293   6.260  2.0852 -1.6025  0.3601
 5612TIP3   OH238394   4.794   1.433   0.047 -0.1960 -0.3914 -0.1284
 5612TIP3    H138395   4.809   1.418  -0.046 -1.4876 -2.6566 -0.0323
 5612TIP3    H238396   4.722   1.497   0.049  0.0065 -0.1379 -0.6689
 5613TIP3   OH238397   6.047   3.448   7.551  0.1390 -0.6581  0.3629
 5613TIP3    H138398   6.058   3.478   7.642 -1.9432  3.4313 -0.4907
 5613TIP3    H238399   6.131   3.465   7.510  0.3384 -0.1260  0.9706
 5614TIP3   OH238400   1.575   4.080   7.467 -0.1698 -0.2849 -0.2895
 5614TIP3    H138401   1.559   4.139   7.541 -0.2352  0.3442 -0.7919
 5614TIP3    H238402   1.656   4.114   7.428 -0.5587 -0.1216 -0.9704
 5615TIP3   OH238403   0.290   4.757   1.979 -0.0823  0.0844  0.6831
 5615TIP3    H138404   0.278   4.810   2.058  0.8299  1.3880 -0.0188
 5615TIP3    H238405   0.205   4.715   1.966 -1.2181  2.2499  0.6603
 5616TIP3   OH238406   0.301   4.654   7.561 -0.3259 -0.1879 -0.1587
 5616TIP3    H138407   0.300   4.656   7.656 -0.6560 -0.0374 -0.1648
 5616TIP3    H238408   0.376   4.708   7.536  0.0732 -0.6512  0.0255
 5617TIP3   OH238409   4.109   1.365   0.926 -0.3193  0.3210  0.5683
 5617TIP3    H138410   4.081   1.416   1.002 -0.0064  2.2920 -0.5632
 5617TIP3    H238411   4.039   1.379   0.862  0.7318  1.0010 -0.4615
 5618TIP3   OH238412   6.385   3.019   0.222 -0.0239  0.1497 -0.3968
 5618TIP3    H138413   6.303   3.055   0.188  0.5622  0.9620 -1.0011
 5618TIP3    H238414   6.402   3.070   0.301  0.7157  1.1303 -1.1573
 5619TIP3   OH238415   6.054   5.119   7.590  0.0607  0.2204 -0.4335
 5619TIP3    H138416   5.999   5.126   7.668  0.3272 -0.8021 -0.1439
 5619TIP3    H238417   6.091   5.206   7.579 -0.3370  0.4910  0.3160
 5620TIP3   OH238418   4.171   4.531   7.455  0.2759 -0.0352  0.0345
 5620TIP3    H138419   4.091   4.541   7.505  0.1620 -0.3901 -0.0761
 5620TIP3    H238420   4.234   4.495   7.516 -0.0216 -1.0039 -0.2174
 5621TIP3   OH238421   5.043   2.820   7.727  0.2148  0.0325  0.2500
 5621TIP3    H138422   5.000   2.837   7.643 -1.5436 -0.8802  0.9246
 5621TIP3    H238423   5.049   2.906   7.769  1.9894  0.6551 -1.1583
 5622TIP3   OH238424   3.245   4.856   1.110  0.3629 -0.3508  0.4025
 5622TIP3    H138425   3.175   4.859   1.044  1.5910  0.5548 -0.9277
 5622TIP3    H238426   3.276   4.765   1.108 -0.6801 -0.7297  0.9260
 5623TIP3   OH238427   0.934   0.287   1.853 -0.3815 -0.0421  0.0631
 5623TIP3    H138428   0.930   0.210   1.909  0.8082  1.0970  1.8458
 5623TIP3    H238429   1.022   0.285   1.815 -0.7786 -0.1983 -0.8753
 5624TIP3   OH238430   3.260   6.138   6.581  0.9109  0.0756 -0.7134
 5624TIP3    H138431   3.209   6.191   6.641  1.8640 -0.2659  0.4402
 5624TIP3    H238432   3.315   6.200   6.533  0.6263  0.2894 -0.7601
 5625TIP3   OH238433   2.458   3.171   0.847  0.8238 -0.0847  0.7127
 5625TIP3    H138434   2.418   3.137   0.927  1.3523 -1.0297  0.5828
 5625TIP3    H238435   2.507   3.097   0.811  0.7312  0.3810 -0.3986
 5626TIP3   OH238436   5.924   6.207   6.551 -0.6285  0.5065  0.1743
 5626TIP3    H138437   5.987   6.191   6.480 -0.8963  2.3829 -0.5662
 5626TIP3    H238438   5.975   6.198   6.631 -0.0620 -0.6266 -0.2949
 5627TIP3   OH238439   0.135   3.703   8.490 -0.2658 -0.1673 -0.0807
 5627TIP3    H138440   0.107   3.617   8.460  1.5643 -0.6111 -0.6536
 5627TIP3    H238441   0.147   3.754   8.410  2.9283 -0.8109 -0.1614
 5628TIP3   OH238442   2.633   3.487   6.183 -0.2628 -0.2516  0.0649
 5628TIP3    H138443   2.657   3.445   6.101 -0.1838 -0.3124  0.1193
 5628TIP3    H238444   2.707   3.472   6.241  0.0152  0.4538 -0.0940
 5629TIP3   OH238445   1.001   5.110   0.031 -0.1923  0.0235  0.4271
 5629TIP3    H138446   0.914   5.108   0.071  0.9560  0.2616  3.1505
 5629TIP3    H238447   1.046   5.035   0.070  1.3207  0.8544  0.3411
 5630TIP3   OH238448   1.514   6.476   8.409  0.2496  0.0094  0.2502
 5630TIP3    H138449   1.530   6.482   8.503 -1.0763 -0.8180  0.5458
 5630TIP3    H238450   1.496   6.384   8.393  1.5912 -0.0678 -1.0276
 5631TIP3   OH238451   6.149   3.932   2.130 -0.1903  0.6444 -0.4555
 5631TIP3    H138452   6.090   3.859   2.152  0.3128  0.3580 -0.0203
 5631TIP3    H238453   6.225   3.918   2.187  0.4628  0.7927 -1.2773
 5632TIP3   OH238454   1.029   4.452   8.046  0.3995 -0.0840  0.5088
 5632TIP3    H138455   0.968   4.500   7.990 -0.0322 -1.0785  0.1019
 5632TIP3    H238456   0.975   4.386   8.089  1.1824 -0.9596  0.1737
 5633TIP3   OH238457   2.386   0.219   1.094 -0.1749 -0.0786 -0.2923
 5633TIP3    H138458   2.292   0.206   1.094 -0.2055  0.0447  1.0952
 5633TIP3    H238459   2.421   0.143   1.141  0.2294  0.9026  1.0663
 5634TIP3   OH238460   2.433   2.792   8.365 -0.0100  0.0781  0.1795
 5634TIP3    H138461   2.437   2.885   8.388 -1.8541 -0.0450  1.2437
 5634TIP3    H238462   2.378   2.789   8.287 -2.0642 -0.2561  1.5676
 5635TIP3   OH238463   6.614   2.449   0.431 -0.5404 -0.1925 -0.2060
 5635TIP3    H138464   6.525   2.429   0.403 -0.4484 -0.3251 -0.4055
 5635TIP3    H238465   6.607   2.462   0.526 -1.1296  1.7669 -0.4596
 5636TIP3   OH238466   2.935   4.072   1.453 -0.3869  0.0731 -0.7025
 5636TIP3    H138467   2.859   4.062   1.394 -1.9114 -1.5105  1.3676
 5636TIP3    H238468   2.994   4.002   1.427 -0.9090 -0.4235 -0.5845
 5637TIP3   OH238469   5.475   2.816   1.787 -0.1092 -0.1445  0.3071
 5637TIP3    H138470   5.533   2.828   1.712 -0.7055 -2.4196 -0.5846
 5637TIP3    H238471   5.520   2.754   1.843 -1.1856 -1.1576  0.0985
 5638TIP3   OH238472   4.420   0.952   7.175  0.6760 -0.3882 -0.0369
 5638TIP3    H138473   4.370   1.032   7.192 -1.3479 -1.5578 -0.1573
 5638TIP3    H238474   4.364   0.882   7.208  1.5122 -1.9108 -1.7139
 5639TIP3   OH238475   6.755   6.035   1.818 -0.0401 -0.2638 -0.1437
 5639TIP3    H138476   6.819   6.089   1.864 -0.6453 -0.1174  0.5547
 5639TIP3    H238477   6.719   5.978   1.886  2.5452 -3.6081 -1.2890
 5640TIP3   OH238478   3.653   2.877   7.357  1.1330  0.2857  0.2346
 5640TIP3    H138479   3.598   2.804   7.330  0.4466  0.6771  0.5481
 5640TIP3    H238480   3.612   2.954   7.318  1.5068  0.5744  0.4007
 5641TIP3   OH238481   1.317   5.269   7.854  0.4658 -0.1945  0.3477
 5641TIP3    H138482   1.359   5.224   7.781  0.4770  1.2402 -0.5659
 5641TIP3    H238483   1.388   5.285   7.917  1.0877  1.1323 -0.6426
 5642TIP3   OH238484   6.694   3.538   1.863 -0.7617 -0.3127  0.3724
 5642TIP3    H138485   6.706   3.631   1.884 -0.7194 -0.4337  0.9076
 5642TIP3    H238486   6.718   3.530   1.771  0.5166 -0.0386  0.6708
 5643TIP3   OH238487   0.356   2.028   1.525  0.0487 -0.4351 -0.3377
 5643TIP3    H138488   0.431   2.086   1.517  0.2210 -0.5125  0.6024
 5643TIP3    H238489   0.282   2.079   1.492  0.2343  0.2387  0.2653
 5644TIP3   OH238490   3.782   2.882   1.721  0.6128  0.3631 -0.2597
 5644TIP3    H138491   3.828   2.966   1.724 -1.4963  1.5931  0.4221
 5644TIP3    H238492   3.759   2.871   1.628  2.7643 -0.6152 -0.7274
 5645TIP3   OH238493   3.910   3.660   7.409  0.0422 -0.1823 -0.2894
 5645TIP3    H138494   3.885   3.575   7.446 -0.9431  1.0091  1.9656
 5645TIP3    H238495   4.005   3.655   7.400  0.2257 -0.8571  1.6528
 5646TIP3   OH238496   0.629   2.258   0.818 -0.8258  0.5286 -0.1420
 5646TIP3    H138497   0.592   2.261   0.729  0.7710  2.2930 -0.7972
 5646TIP3    H238498   0.599   2.339   0.859 -2.1339 -0.5873  1.2478
 5647TIP3   OH238499   2.253   4.703   0.610 -0.3216 -0.1955  0.0049
 5647TIP3    H138500   2.224   4.786   0.648 -0.2504  0.1390 -0.6574
 5647TIP3    H238501   2.296   4.658   0.683  0.8391  0.9327  0.0600
 5648TIP3   OH238502   6.420   0.855   7.379 -0.4887 -0.3331 -0.2473
 5648TIP3    H138503   6.465   0.777   7.412 -0.1039 -0.5371 -1.2071
 5648TIP3    H238504   6.387   0.829   7.293 -0.0993  0.6543 -0.7111
 5649TIP3   OH238505   0.839   3.244   1.427 -0.4174 -0.5160 -0.1928
 5649TIP3    H138506   0.790   3.286   1.498 -2.3057 -0.0928 -1.6399
 5649TIP3    H238507   0.906   3.308   1.404  0.3588 -0.7422  1.2979
 5650TIP3   OH238508   6.090   1.693   7.300  0.2588 -0.1152  0.9932
 5650TIP3    H138509   6.014   1.723   7.250  0.8713 -0.7038 -0.3217
 5650TIP3    H238510   6.139   1.773   7.319  1.3817 -0.0925 -1.6533
 5651TIP3   OH238511   3.326   5.201   0.639  0.1084  0.1464 -0.4098
 5651TIP3    H138512   3.350   5.257   0.712  1.5335 -0.8209 -0.0984
 5651TIP3    H238513   3.308   5.116   0.679  0.5168 -0.2909 -1.1309
 5652TIP3   OH238514   3.653   6.557   7.572 -0.2915 -0.2976 -0.6742
 5652TIP3    H138515   3.667   6.465   7.549  0.1124 -0.2268 -0.7268
 5652TIP3    H238516   3.583   6.556   7.637 -1.5769 -0.4905 -2.0184
 5653TIP3   OH238517   5.475   3.421   0.422  0.3446  0.1598  0.0499
 5653TIP3    H138518   5.436   3.502   0.455  0.1041 -0.1786  0.6128
 5653TIP3    H238519   5.430   3.351   0.470 -1.9149 -0.5457 -2.7922
 5654TIP3   OH238520   4.924   1.125   7.365  0.1774 -0.3594 -0.0787
 5654TIP3    H138521   4.887   1.083   7.287  0.4056 -0.0836 -0.3382
 5654TIP3    H238522   4.855   1.185   7.394  0.5493  0.4230 -0.7751
 5655TIP3   OH238523   5.918   0.915   0.814  0.3443 -0.3814 -0.2531
 5655TIP3    H138524   5.986   0.915   0.747  0.6806 -1.5485  0.0613
 5655TIP3    H238525   5.871   0.997   0.801  2.6248  1.1077  0.3453
 5656TIP3   OH238526   2.102   4.077   2.513 -0.7814  0.0582  0.0858
 5656TIP3    H138527   2.140   4.037   2.435  1.2832 -1.0409  1.5709
 5656TIP3    H238528   2.045   4.010   2.549 -1.6423  0.5252 -0.3536
 5657TIP3   OH238529   4.813   3.029   1.779 -0.1328  0.4589  0.0729
 5657TIP3    H138530   4.801   3.123   1.787 -2.0988  0.1613  1.1916
 5657TIP3    H238531   4.731   2.991   1.811  0.8161 -1.6520  0.1875
 5658TIP3   OH238532   3.010   4.557   7.596 -0.0019  0.2130  0.1487
 5658TIP3    H138533   3.092   4.580   7.553 -0.8429 -0.6735 -2.0997
 5658TIP3    H238534   3.003   4.619   7.669  1.7756  1.4881 -0.6800
 5659TIP3   OH238535   3.969   0.864   1.143 -0.5847  0.0717 -0.3637
 5659TIP3    H138536   3.994   0.775   1.119 -1.6480 -0.0571 -1.0192
 5659TIP3    H238537   4.008   0.919   1.075 -0.5102  0.0455 -0.3424
 5660TIP3   OH238538   3.906   3.769   8.035  0.2536  0.0699  0.7070
 5660TIP3    H138539   3.879   3.860   8.038  0.9471  0.3498 -0.5970
 5660TIP3    H238540   3.942   3.757   7.946 -1.0080 -1.8119  0.3827
 5661TIP3   OH238541   1.256   6.359   0.195  0.5706  0.0044 -0.1474
 5661TIP3    H138542   1.299   6.321   0.118  0.7450  0.7791 -0.4428
 5661TIP3    H238543   1.205   6.432   0.160 -1.1941 -1.0274  0.1675
 5662TIP3   OH238544   2.471   4.325   0.444 -0.0813  0.0182 -0.1152
 5662TIP3    H138545   2.454   4.419   0.455 -0.0157 -0.0088  0.2462
 5662TIP3    H238546   2.565   4.316   0.457 -0.0223 -0.0415 -0.5759
 5663TIP3   OH238547   1.161   4.760   1.964  0.0494  0.3696  0.0595
 5663TIP3    H138548   1.162   4.847   1.926  0.1297 -0.2912 -1.5447
 5663TIP3    H238549   1.165   4.774   2.058  0.7733  2.0723 -0.1967
 5664TIP3   OH238550   2.354   0.322   7.979 -0.0360  0.3172  0.3875
 5664TIP3    H138551   2.338   0.405   7.934  3.1298  0.5982 -0.4606
 5664TIP3    H238552   2.437   0.291   7.944  0.0839 -2.0212  2.4480
 5665TIP3   OH238553   0.830   4.672   1.268  0.3190  0.3969  0.2547
 5665TIP3    H138554   0.745   4.631   1.283  0.6266 -0.8044 -1.0802
 5665TIP3    H238555   0.811   4.766   1.267 -1.2639  0.1228 -1.3392
 5666TIP3   OH238556   1.155   4.709   2.528  0.1100 -0.5445 -0.1245
 5666TIP3    H138557   1.149   4.785   2.586  1.5745 -1.1453  0.8705
 5666TIP3    H238558   1.248   4.687   2.526 -0.1755 -1.7937 -1.0746
 5667TIP3   OH238559   6.728   2.105   0.135  0.4191 -0.1646  0.1205
 5667TIP3    H138560   6.695   2.071   0.052  0.7282 -1.1456  0.3887
 5667TIP3    H238561   6.721   2.031   0.195  1.8062  0.0248  0.5333
 5668TIP3   OH238562   5.022   1.906   8.226  0.1921  0.5915 -0.2754
 5668TIP3    H138563   4.963   1.982   8.225 -0.3153  0.2505  1.3263
 5668TIP3    H238564   4.971   1.836   8.184 -0.5492  0.3243  1.0130
 5669TIP3   OH238565   0.397   2.419   7.028  0.2603 -0.4785  0.7934
 5669TIP3    H138566   0.480   2.436   6.984 -1.9012  3.3460 -2.5440
 5669TIP3    H238567   0.400   2.474   7.107  0.4908  0.7565 -0.0364
 5670TIP3   OH238568   3.586   6.585   7.830  0.1831 -0.1548 -0.2005
 5670TIP3    H138569   3.619   6.507   7.874 -1.8760 -1.4525 -0.7851
 5670TIP3    H238570   3.503   6.604   7.875 -1.2104 -0.5919 -2.4317
 5671TIP3   OH238571   2.180   3.662   0.431  0.6505 -0.3824  0.3114
 5671TIP3    H138572   2.120   3.718   0.480  1.8332  1.9659 -0.7596
 5671TIP3    H238573   2.224   3.609   0.498 -0.1981  0.2877  1.4282
 5672TIP3   OH238574   6.368   1.838   1.259  0.2378  0.0796  0.6270
 5672TIP3    H138575   6.396   1.789   1.181 -1.2350  0.0940  0.0529
 5672TIP3    H238576   6.361   1.928   1.228  0.9753  0.3274  1.1560
 5673TIP3   OH238577   3.724   4.156   1.759 -0.4084  0.1056 -0.0416
 5673TIP3    H138578   3.676   4.176   1.839 -2.1122  1.0707 -1.2358
 5673TIP3    H238579   3.789   4.226   1.751 -0.6915  0.3908  0.1434
 5674TIP3   OH238580   5.710   2.289   1.059 -0.0367  0.4870 -0.2708
 5674TIP3    H138581   5.643   2.222   1.073 -0.1933  0.6343 -0.3188
 5674TIP3    H238582   5.785   2.240   1.026  0.3671  0.1198  1.1471
 5675TIP3   OH238583   5.920   3.717   8.586  0.6613 -0.1006 -0.6384
 5675TIP3    H138584   5.829   3.712   8.558  0.5513  0.9213 -0.5320
 5675TIP3    H238585   5.929   3.808   8.617  1.5539 -0.3640 -0.1136
 5676TIP3   OH238586   0.725   4.088   8.553  0.0959 -0.3705 -0.6799
 5676TIP3    H138587   0.668   4.166   8.556  0.1847 -0.3200 -0.1135
 5676TIP3    H238588   0.727   4.064   8.461 -2.1384 -1.3184 -0.5468
 5677TIP3   OH238589   2.352   6.715   7.559 -0.2415  0.6828  0.0423
 5677TIP3    H138590   2.364   6.621   7.541  0.1054  0.5525  0.8759
 5677TIP3    H238591   2.263   6.734   7.529  1.0461  1.1037 -4.1357
 5678TIP3   OH238592   4.854   2.861   6.249 -0.1570 -0.8038  0.7575
 5678TIP3    H138593   4.912   2.846   6.175 -0.7606 -1.2153  0.3507
 5678TIP3    H238594   4.770   2.824   6.221 -0.0554 -2.2359  2.1572
 5679TIP3   OH238595   4.353   0.101   1.300 -0.5628 -0.5904 -0.2980
 5679TIP3    H138596   4.270   0.077   1.342 -0.8208  1.8831  0.7718
 5679TIP3    H238597   4.331   0.106   1.206 -2.0268  1.1990  0.0664
 5680TIP3   OH238598   1.800   3.092   7.542 -0.5939  0.7872 -0.2995
 5680TIP3    H138599   1.880   3.115   7.590  0.2894 -0.1595 -1.2699
 5680TIP3    H238600   1.734   3.152   7.576  0.2842  0.9489  1.2304
 5681TIP3   OH238601   5.256   0.259   7.676 -0.5323  0.4401 -0.3936
 5681TIP3    H138602   5.173   0.234   7.635  0.2916 -2.8581 -0.3666
 5681TIP3    H238603   5.314   0.184   7.660  1.4847  1.2881  2.2207
 5682TIP3   OH238604   2.318   3.816   1.022  0.6270 -0.1239 -0.6789
 5682TIP3    H138605   2.337   3.846   0.934  1.3180 -0.9318 -0.8260
 5682TIP3    H238606   2.375   3.740   1.034  1.2223  0.5108  0.7907
 5683TIP3   OH238607   6.284   2.941   1.956  0.0466 -0.1033 -0.1272
 5683TIP3    H138608   6.309   3.013   1.898 -1.9321  0.3366 -0.4788
 5683TIP3    H238609   6.196   2.963   1.986  0.2568 -1.3065  1.5062
 5684TIP3   OH238610   4.407   6.703   7.480 -0.5873 -0.5639 -0.1925
 5684TIP3    H138611   4.347   6.763   7.525  1.6369  1.4927  0.2555
 5684TIP3    H238612   4.425   6.634   7.544 -0.2089  0.4283  0.8079
 5685TIP3   OH238613   3.242   0.367   1.552 -0.1019 -0.0214  0.0925
 5685TIP3    H138614   3.238   0.311   1.630  3.0669 -0.2505  0.2189
 5685TIP3    H238615   3.328   0.409   1.558 -1.1748  2.6205 -1.5545
 5686TIP3   OH238616   1.141   3.378   7.512 -0.3589  0.0163 -0.0744
 5686TIP3    H138617   1.105   3.466   7.525 -0.3112 -0.2411  2.2457
 5686TIP3    H238618   1.068   3.327   7.478 -0.6572  0.7296 -0.5254
 5687TIP3   OH238619   3.999   5.399   7.783 -0.1498  0.3482  0.3529
 5687TIP3    H138620   3.904   5.411   7.791 -0.0921  0.9836  0.1059
 5687TIP3    H238621   4.013   5.377   7.691 -0.1684 -0.9110  0.6262
 5688TIP3   OH238622   1.639   6.763   1.380  0.1674  0.0309  0.2389
 5688TIP3    H138623   1.717   6.736   1.428  0.6752 -0.8974 -1.0481
 5688TIP3    H238624   1.628   6.855   1.402  2.8596  0.7996 -1.1170
 5689TIP3   OH238625   4.267   5.226   7.731 -0.0884  0.3162 -0.4449
 5689TIP3    H138626   4.183   5.183   7.748 -0.6719  2.3061  2.4187
 5689TIP3    H238627   4.250   5.284   7.658 -1.5033  1.2860  0.6041
 5690TIP3   OH238628   5.169   0.695   7.660 -0.1788  0.2506 -0.4410
 5690TIP3    H138629   5.128   0.765   7.711 -0.5442 -0.1227 -0.2120
 5690TIP3    H238630   5.259   0.692   7.691 -0.4175 -0.0228  0.2385
 5691TIP3   OH238631   6.223   5.396   0.897  0.3954  0.0523 -0.3917
 5691TIP3    H138632   6.262   5.463   0.841 -0.3470  0.7191 -0.1371
 5691TIP3    H238633   6.288   5.379   0.964  0.0847  1.4942  0.3027
 5692TIP3   OH238634   6.506   1.486   1.626 -0.3740  0.4674  0.6624
 5692TIP3    H138635   6.438   1.544   1.662 -0.2343  0.1798  1.4023
 5692TIP3    H238636   6.556   1.457   1.702  0.3440  0.3684  0.1598
 5693TIP3   OH238637   6.281   3.767   0.314 -0.0497 -0.5651 -0.0245
 5693TIP3    H138638   6.375   3.750   0.315  0.1651  0.3869 -1.0099
 5693TIP3    H238639   6.243   3.699   0.368  1.2129 -0.9576  0.4007
 5694TIP3   OH238640   0.964   3.000   8.299  0.1109  0.0795 -0.2891
 5694TIP3    H138641   1.046   2.967   8.260  0.2883  0.5224 -0.2939
 5694TIP3    H238642   0.984   3.009   8.392  0.9174  2.6411 -0.6286
 5695TIP3   OH238643   3.647   4.017   8.242  0.5699 -0.3232  0.7977
 5695TIP3    H138644   3.612   4.001   8.330 -1.2736 -0.0796  0.1589
 5695TIP3    H238645   3.616   3.942   8.190 -1.4108  1.2485 -0.4169
 5696TIP3   OH238646   2.120   1.255   0.985  0.0066 -0.3881  0.8049
 5696TIP3    H138647   2.140   1.345   0.960 -4.1477  0.0724 -1.8386
 5696TIP3    H238648   2.065   1.264   1.063 -1.7623 -0.4069 -0.3919
 5697TIP3   OH238649   3.582   6.522   2.482  0.0001  0.0570 -0.3442
 5697TIP3    H138650   3.595   6.603   2.531 -0.7483 -0.8606  1.4917
 5697TIP3    H238651   3.528   6.547   2.407  0.7523  1.4320 -0.4579
 5698TIP3   OH238652   1.757   3.302   7.187 -0.1820 -0.3097 -0.3515
 5698TIP3    H138653   1.704   3.321   7.110  0.6871  1.0092 -0.6452
 5698TIP3    H238654   1.694   3.295   7.259 -0.8094  0.6459 -0.8008
 5699TIP3   OH238655   1.445   5.849   1.932 -0.5120 -0.1891  0.1509
 5699TIP3    H138656   1.516   5.831   1.993 -1.6545 -2.1809  1.0060
 5699TIP3    H238657   1.442   5.772   1.875 -2.3374 -0.4864  0.5556
 5700TIP3   OH238658   3.488   4.911   0.860 -0.6703 -0.0433  0.4369
 5700TIP3    H138659   3.434   4.972   0.910 -0.7027 -1.2516  1.9427
 5700TIP3    H238660   3.426   4.850   0.821 -0.4848 -0.4777  0.8277
 5701TIP3   OH238661   2.735   4.109   0.512  0.1107  0.0202  0.4119
 5701TIP3    H138662   2.755   4.113   0.605  1.5797  0.9492  0.0862
 5701TIP3    H238663   2.779   4.030   0.481  1.1659  0.6769  0.1869
 5702TIP3   OH238664   3.011   5.429   1.165 -0.2597  0.3290  0.6426
 5702TIP3    H138665   2.971   5.437   1.252  0.7554  1.1633  1.0590
 5702TIP3    H238666   3.018   5.334   1.150 -0.2493  0.1737  1.5712
 5703TIP3   OH238667   2.577   4.864   1.396 -0.3743  0.0300  0.3931
 5703TIP3    H138668   2.596   4.826   1.481 -1.1075  0.5103  0.7783
 5703TIP3    H238669   2.630   4.813   1.335  0.8823  0.2878  1.2290
 5704TIP3   OH238670   0.754   6.394   6.637  0.1128 -0.4451  0.1623
 5704TIP3    H138671   0.721   6.483   6.622 -1.6191 -1.3302 -1.7325
 5704TIP3    H238672   0.734   6.378   6.729  1.5576  1.5162  0.8899
 5705TIP3   OH238673   0.036   2.738   1.131 -0.2417  0.7871 -0.7471
 5705TIP3    H138674  -0.036   2.676   1.143  1.0714 -0.6164  0.3745
 5705TIP3    H238675   0.057   2.769   1.220  0.6443  1.0210 -1.0216
 5706TIP3   OH238676   2.229   1.288   0.569  0.5307  0.3823 -0.0534
 5706TIP3    H138677   2.164   1.256   0.507  1.2695  0.0840 -0.6899
 5706TIP3    H238678   2.286   1.213   0.585  1.6467  1.0677 -0.7300
 5707TIP3   OH238679   0.608   4.475   1.309 -0.5292 -0.1781 -0.1531
 5707TIP3    H138680   0.626   4.459   1.402 -0.0784 -0.3233 -0.2611
 5707TIP3    H238681   0.594   4.388   1.272 -1.5746 -0.0646 -0.0601
 5708TIP3   OH238682   3.303   3.405   0.469 -0.7464  0.2468  0.3101
 5708TIP3    H138683   3.268   3.342   0.406 -1.7672 -1.1419  2.1497
 5708TIP3    H238684   3.234   3.413   0.535  0.8779  0.3975  2.0622
 5709TIP3   OH238685   0.206   3.196   0.154 -0.0222 -0.1386 -0.1839
 5709TIP3    H138686   0.220   3.176   0.247 -0.7808  0.4936  0.0835
 5709TIP3    H238687   0.237   3.285   0.143 -1.6852  0.4960 -0.0674
 5710TIP3   OH238688   6.184   5.242   0.031  0.4806  0.6840 -0.0153
 5710TIP3    H138689   6.138   5.166   0.067  1.4386  0.5398  0.9492
 5710TIP3    H238690   6.133   5.266  -0.046  0.0470 -0.8177 -0.2296
 5711TIP3   OH238691   2.965   1.730   8.366  0.6237 -0.2664 -0.0804
 5711TIP3    H138692   2.896   1.682   8.320  1.6073  0.3074 -2.2573
 5711TIP3    H238693   3.042   1.722   8.310  1.5363  1.5869  0.8073
 5712TIP3   OH238694   2.078   6.454   6.961 -0.1202 -0.3383 -0.1399
 5712TIP3    H138695   2.043   6.470   7.048  0.6967 -0.8362  0.2954
 5712TIP3    H238696   2.040   6.524   6.906 -1.1701 -0.4249  0.4544
 5713TIP3   OH238697   1.823   6.696   6.234  0.3706  0.3795  0.2089
 5713TIP3    H138698   1.869   6.729   6.311  1.0659  1.0126 -0.4624
 5713TIP3    H238699   1.812   6.772   6.177  0.6814 -0.2430 -0.7147
 5714TIP3   OH238700   1.070   4.776   8.141  0.0653 -0.3756 -0.2910
 5714TIP3    H138701   1.025   4.712   8.196  2.0491 -1.1593  0.5134
 5714TIP3    H238702   1.063   4.858   8.189  0.8643 -0.8384  0.6710
 5715TIP3   OH238703   3.970   4.239   1.674  0.4787 -0.0623 -0.0218
 5715TIP3    H138704   3.979   4.279   1.587 -1.0703  0.1507 -0.1076
 5715TIP3    H238705   4.057   4.204   1.693  1.1536  0.9219 -1.1451
 5716TIP3   OH238706   0.666   5.671   0.447 -0.2278 -0.1934  0.3453
 5716TIP3    H138707   0.584   5.717   0.463 -0.8703 -0.0446 -2.6481
 5716TIP3    H238708   0.733   5.725   0.489 -1.5901 -0.3835  2.9494
 5717TIP3   OH238709   2.686   1.769   2.314  0.1640  0.3206 -0.9565
 5717TIP3    H138710   2.595   1.740   2.325 -0.4619  2.7570  1.4504
 5717TIP3    H238711   2.737   1.708   2.368 -0.3733  0.3632 -0.3888
 5718TIP3   OH238712   4.552   6.772   7.080  0.0506 -0.2859 -0.4112
 5718TIP3    H138713   4.501   6.738   7.007 -0.1867  1.0607 -0.9100
 5718TIP3    H238714   4.643   6.757   7.055 -0.0536 -0.9783 -0.3927
 5719TIP3   OH238715   0.252   6.773   0.129  0.2654 -0.3735  0.0620
 5719TIP3    H138716   0.261   6.721   0.208  0.7406 -0.7599 -0.2420
 5719TIP3    H238717   0.188   6.726   0.076  1.5227 -1.2708 -0.6987
 5720TIP3   OH238718   5.564   5.486   8.512  0.1774 -0.2703  0.2511
 5720TIP3    H138719   5.618   5.409   8.529 -0.1806 -0.8308 -1.0088
 5720TIP3    H238720   5.525   5.508   8.596  2.9910  0.6764  1.4363
 5721TIP3   OH238721   6.412   1.830   0.484 -0.0487 -0.4913 -0.1402
 5721TIP3    H138722   6.402   1.791   0.571 -0.3204  0.4083  0.2533
 5721TIP3    H238723   6.338   1.795   0.434 -1.6799  1.2236  0.8910
 5722TIP3   OH238724   5.632   2.192   8.196  0.5845  0.1050  0.5873
 5722TIP3    H138725   5.566   2.148   8.143  1.6662 -0.7908 -0.0438
 5722TIP3    H238726   5.583   2.260   8.244 -0.9340 -1.0908  0.7983
 5723TIP3   OH238727   5.632   5.457   7.034 -0.0146 -0.8570  0.0850
 5723TIP3    H138728   5.708   5.517   7.035 -1.0624  0.6702 -2.3480
 5723TIP3    H238729   5.570   5.499   6.975 -1.3921 -3.7542 -0.6785
 5724TIP3   OH238730   1.070   2.474   1.484 -0.0186  0.5953  0.5518
 5724TIP3    H138731   1.139   2.540   1.489 -0.8090  1.4452  4.9658
 5724TIP3    H238732   0.989   2.524   1.483 -0.6659 -0.4026 -1.4783
 5725TIP3   OH238733   1.180   5.577   1.737 -0.5452 -0.0193  0.3075
 5725TIP3    H138734   1.141   5.660   1.762 -1.4990 -0.9325  2.0040
 5725TIP3    H238735   1.106   5.519   1.718 -0.1608 -1.7710  3.5436
 5726TIP3   OH238736   2.063   2.949   2.480 -0.0462 -0.3744 -0.6553
 5726TIP3    H138737   1.975   2.945   2.518 -0.0611  1.3439 -0.4630
 5726TIP3    H238738   2.053   2.912   2.393 -0.7280 -1.1834 -0.2467
 5727TIP3   OH238739   3.003   6.345   2.477 -0.1958 -0.9390  0.4878
 5727TIP3    H138740   2.974   6.265   2.435 -0.8857 -0.0956 -0.7151
 5727TIP3    H238741   2.932   6.408   2.461 -0.4893 -0.5361  2.8877
 5728TIP3   OH238742   3.937   6.514   0.854 -0.0421  0.0517 -0.1935
 5728TIP3    H138743   3.877   6.556   0.915  0.1865  1.1074 -0.6672
 5728TIP3    H238744   3.926   6.563   0.772  0.7683 -0.3582 -0.5630
 5729TIP3   OH238745   5.004   5.124   2.435 -0.2825 -0.5159  0.7971
 5729TIP3    H138746   4.943   5.161   2.370  0.9332 -0.8091 -0.5604
 5729TIP3    H238747   5.016   5.033   2.407  2.2179  0.0165 -0.1407
 5730TIP3   OH238748   5.041   1.636   1.083  0.5734  0.8309  0.5684
 5730TIP3    H138749   5.103   1.600   1.146  0.4386  0.7104  0.6323
 5730TIP3    H238750   5.017   1.721   1.118  0.5914  0.8160  0.6166
 5731TIP3   OH238751   5.778   5.610   0.010  0.6254  0.3330  0.0922
 5731TIP3    H138752   5.696   5.589  -0.037  1.0825  0.5109 -0.8154
 5731TIP3    H238753   5.753   5.611   0.102 -0.3184 -0.0005 -0.1441
 5732TIP3   OH238754   6.722   4.479   8.193 -0.3487 -0.0927 -0.3685
 5732TIP3    H138755   6.759   4.452   8.109 -0.7503 -1.4329 -0.1302
 5732TIP3    H238756   6.652   4.540   8.169  0.1218  0.2323 -0.9575
 5733TIP3   OH238757   6.099   0.795   7.358  0.3139 -0.5511  0.4441
 5733TIP3    H138758   6.064   0.879   7.331 -1.6369 -1.3933  0.1917
 5733TIP3    H238759   6.154   0.767   7.285 -1.9740 -1.1177 -1.1902
 5734TIP3   OH238760   3.551   6.565   0.052 -0.2548 -0.4407 -0.0254
 5734TIP3    H138761   3.457   6.582   0.059 -0.0002  0.2897  2.4257
 5734TIP3    H238762   3.588   6.646   0.016 -0.2456  0.4685  1.9339
 5735TIP3   OH238763   1.121   3.505   2.701 -0.3192 -0.1197  0.0316
 5735TIP3    H138764   1.061   3.500   2.626  1.0281 -0.1345 -1.1008
 5735TIP3    H238765   1.140   3.598   2.711 -2.8408  0.2655  2.3852
 5736TIP3   OH238766   1.464   0.286   7.417  0.8006 -0.6773  0.2110
 5736TIP3    H138767   1.473   0.205   7.467 -1.0950  0.8139  3.2869
 5736TIP3    H238768   1.514   0.351   7.466 -0.2483  0.6581 -0.4191
 5737TIP3   OH238769   4.479   1.477   7.084  0.1152 -0.1601  0.1405
 5737TIP3    H138770   4.531   1.463   7.005 -1.4417  1.0798 -1.1800
 5737TIP3    H238771   4.536   1.527   7.142  0.2902  1.6472 -1.4840
 5738TIP3   OH238772   4.026   1.344   7.536 -0.0247  0.4476 -0.0310
 5738TIP3    H138773   3.982   1.429   7.528 -1.2528 -0.0907  0.7538
 5738TIP3    H238774   4.007   1.316   7.626  0.3195 -0.6895 -0.3027
 5739TIP3   OH238775   6.521   4.428   7.765 -0.1783 -0.4018 -0.4182
 5739TIP3    H138776   6.562   4.514   7.776  1.6317 -1.2701 -0.0748
 5739TIP3    H238777   6.541   4.403   7.674 -0.6687 -0.4772 -0.5075
 5740TIP3   OH238778   0.272   6.093   7.254 -0.0098  0.0420 -0.3243
 5740TIP3    H138779   0.242   6.055   7.172  0.1560  2.4881 -1.6051
 5740TIP3    H238780   0.367   6.099   7.245  0.0898 -0.3457  0.3754
 5741TIP3   OH238781   2.275   2.861   6.852 -0.4869 -0.3252 -0.1170
 5741TIP3    H138782   2.208   2.876   6.920 -0.8657  0.9498 -0.7409
 5741TIP3    H238783   2.297   2.949   6.821  0.1436 -0.8570 -1.2131
 5742TIP3   OH238784   0.433   1.967   0.568  0.0173 -0.1351  0.1201
 5742TIP3    H138785   0.500   1.909   0.533 -0.2172 -0.8555  0.8365
 5742TIP3    H238786   0.380   1.992   0.492  0.2214 -0.7254 -0.2202
 5743TIP3   OH238787   4.924   2.474   1.004 -0.3550  0.3299  0.7765
 5743TIP3    H138788   4.984   2.509   1.070  0.8774 -1.3860  0.6473
 5743TIP3    H238789   4.982   2.445   0.933 -1.2214 -2.2898  1.0569
 5744TIP3   OH238790   1.793   2.244   1.085  0.0160 -0.5372  0.5862
 5744TIP3    H138791   1.787   2.339   1.089  0.9784 -0.4814  1.0720
 5744TIP3    H238792   1.792   2.216   1.177 -0.8644 -1.0487  0.4336
 5745TIP3   OH238793   0.683   1.636   1.497  0.3633  0.2478 -0.6526
 5745TIP3    H138794   0.637   1.715   1.526  0.9842  0.6221 -0.6658
 5745TIP3    H238795   0.695   1.649   1.403  1.7113  0.8029 -0.4238
 5746TIP3   OH238796   1.587   0.391   7.644 -0.1206  0.4333 -0.0818
 5746TIP3    H138797   1.657   0.357   7.701 -2.3214 -0.3664  2.3490
 5746TIP3    H238798   1.528   0.436   7.704 -1.6263  1.2446 -2.0758
 5747TIP3   OH238799   2.327   0.310   0.376  0.4155  0.2523  0.0759
 5747TIP3    H138800   2.238   0.347   0.381 -0.1706 -0.6374 -2.4999
 5747TIP3    H238801   2.323   0.247   0.304  2.0442 -3.0378  2.6145
 5748TIP3   OH238802   3.930   2.382   6.467 -0.7667 -0.4587 -0.2503
 5748TIP3    H138803   4.004   2.342   6.421  0.3322  0.6007  0.5342
 5748TIP3    H238804   3.910   2.321   6.538 -0.8789 -0.9109 -0.6634
 5749TIP3   OH238805   4.424   1.477   0.285 -0.1564  0.3688 -0.3108
 5749TIP3    H138806   4.426   1.381   0.274  0.5871  0.3230  0.1651
 5749TIP3    H238807   4.410   1.489   0.379 -1.6335  0.7431 -0.5486
 5750TIP3   OH238808   5.372   2.885   0.354 -0.2865  0.4146  0.1625
 5750TIP3    H138809   5.467   2.876   0.357 -0.3857 -0.6201  0.8580
 5750TIP3    H238810   5.354   2.931   0.272  0.9675  2.8381  1.1508
 5751TIP3   OH238811   5.274   3.389   1.103 -0.0664 -0.2414  0.3220
 5751TIP3    H138812   5.352   3.444   1.104 -0.4517  0.3215 -0.2898
 5751TIP3    H238813   5.307   3.301   1.123  0.9721 -0.3170 -1.4833
 5752TIP3   OH238814   1.172   2.887   0.921  0.0109 -0.0065  0.1363
 5752TIP3    H138815   1.245   2.827   0.910  1.4868  1.3551  1.7909
 5752TIP3    H238816   1.113   2.843   0.983 -0.3177 -0.8530 -0.7499
 5753TIP3   OH238817   1.758   4.674   7.472 -0.2104 -0.5301 -0.4382
 5753TIP3    H138818   1.690   4.688   7.538 -0.9939 -0.2132 -1.2758
 5753TIP3    H238819   1.773   4.760   7.434 -0.5133 -0.8561 -1.3443
 5754TIP3   OH238820   0.039   0.293   1.187 -0.1945  0.0809  0.3326
 5754TIP3    H138821  -0.022   0.284   1.114 -0.5212 -1.6293  0.7876
 5754TIP3    H238822   0.109   0.231   1.169 -0.1131 -0.1284  1.2972
 5755TIP3   OH238823   2.432   2.656   8.067 -0.3503 -0.4924 -0.0071
 5755TIP3    H138824   2.390   2.571   8.072  0.7555 -0.9683  1.8540
 5755TIP3    H238825   2.474   2.656   7.981 -1.3090 -1.3314 -0.5032
 5756TIP3   OH238826   1.760   1.837   1.424  0.3624  0.0176  0.4402
 5756TIP3    H138827   1.733   1.826   1.333 -2.5037  0.8550  1.0995
 5756TIP3    H238828   1.761   1.748   1.460 -1.5773 -0.0974  0.3245
 5757TIP3   OH238829   1.083   4.468   7.370 -0.1827  0.0823 -0.3555
 5757TIP3    H138830   1.078   4.417   7.289 -2.3825  0.2221 -0.3840
 5757TIP3    H238831   1.004   4.443   7.418  0.5495  0.7840  1.2777
 5758TIP3   OH238832   1.906   3.161   5.928 -0.4989 -0.2109 -0.3318
 5758TIP3    H138833   1.811   3.173   5.932 -0.3990  0.8565 -0.8293
 5758TIP3    H238834   1.923   3.083   5.981 -1.4245  0.8524  1.6427
 5759TIP3   OH238835   2.502   6.516   2.656  0.2029 -0.2651 -0.0457
 5759TIP3    H138836   2.488   6.567   2.736  1.2368 -0.6498  0.4020
 5759TIP3    H238837   2.454   6.563   2.588  0.2391  0.6940  0.5792
 5760TIP3   OH238838   5.806   5.646   1.201  0.8171  0.6773 -0.1348
 5760TIP3    H138839   5.735   5.668   1.141  0.8198 -0.9605 -0.8019
 5760TIP3    H238840   5.883   5.637   1.145  1.5173  2.1621  0.5460
 5761TIP3   OH238841   1.636   1.824   0.562  0.2573 -0.0859  0.1184
 5761TIP3    H138842   1.700   1.861   0.622 -0.7090 -1.3580  2.0388
 5761TIP3    H238843   1.553   1.863   0.588 -0.5958 -2.6105  1.4419
 5762TIP3   OH238844   3.656   5.625   1.041 -0.1602  0.0637  0.4634
 5762TIP3    H138845   3.631   5.555   0.981  0.2534  1.1027 -0.9648
 5762TIP3    H238846   3.684   5.579   1.121 -0.0162 -1.3818 -0.3839
 5763TIP3   OH238847   2.852   4.253   6.180  0.6004 -0.0234 -0.0627
 5763TIP3    H138848   2.778   4.195   6.201 -0.4813  1.8854  1.7187
 5763TIP3    H238849   2.873   4.296   6.263  0.7256  2.8106 -1.4516
 5764TIP3   OH238850   0.817   0.617   7.523  0.3658  0.7580 -0.2546
 5764TIP3    H138851   0.821   0.643   7.615 -0.9693 -1.8338  0.6376
 5764TIP3    H238852   0.731   0.646   7.493  0.3334  0.5652 -0.3493
 5765TIP3   OH238853   6.776   3.117   0.985 -0.0354 -0.0596  0.1807
 5765TIP3    H138854   6.737   3.204   0.992  0.8086  0.6796 -2.8403
 5765TIP3    H238855   6.740   3.081   0.904  1.6715 -1.4079 -0.0326
 5766TIP3   OH238856   3.040   3.346   0.595 -0.0554 -0.3759 -0.4724
 5766TIP3    H138857   2.946   3.348   0.578 -0.7003 -0.2196  2.4958
 5766TIP3    H238858   3.071   3.267   0.551 -0.9009  1.1051 -4.0273
 5767TIP3   OH238859   4.251   5.056   0.268  0.8541 -0.6298  0.1626
 5767TIP3    H138860   4.222   4.984   0.325  1.2907 -0.1023  1.0620
 5767TIP3    H238861   4.346   5.047   0.266  1.0949  1.0548  1.8507
 5768TIP3   OH238862   1.519   4.701   1.659 -0.3975  0.0724  0.5617
 5768TIP3    H138863   1.492   4.643   1.730 -0.3494  0.7613  1.1566
 5768TIP3    H238864   1.482   4.662   1.580  0.2207 -1.1451  0.8546
 5769TIP3   OH238865   5.123   2.481   0.683  0.4472 -0.0499 -0.1309
 5769TIP3    H138866   5.144   2.542   0.612 -3.1575 -0.4959 -1.8653
 5769TIP3    H238867   5.190   2.413   0.676  1.7589  1.2857 -1.3409
 5770TIP3   OH238868   5.421   0.417   0.930 -0.7914 -0.0032  0.3076
 5770TIP3    H138869   5.403   0.400   0.838 -0.3916 -0.7276  0.3575
 5770TIP3    H238870   5.453   0.507   0.932  0.6851 -0.4869 -0.4728
 5771TIP3   OH238871   4.362   4.131   0.493 -0.2462 -0.2914  0.3526
 5771TIP3    H138872   4.328   4.190   0.560 -2.2726  1.9139 -2.3546
 5771TIP3    H238873   4.289   4.072   0.474  0.2490 -0.8033  0.0052
 5772TIP3   OH238874   5.146   2.853   0.524  0.2119 -0.9131 -0.1259
 5772TIP3    H138875   5.232   2.868   0.486  0.7675 -1.4408  0.8846
 5772TIP3    H238876   5.128   2.761   0.508 -0.2530 -0.7692 -0.4746
 5773TIP3   OH238877   1.827   1.715   8.250 -0.0251  0.1141  0.2631
 5773TIP3    H138878   1.831   1.727   8.345 -2.5770  0.4024  0.4016
 5773TIP3    H238879   1.750   1.764   8.223  1.6748  1.6225 -2.2812
 5774TIP3   OH238880   0.525   0.045   7.642 -0.3556 -0.4890  0.0291
 5774TIP3    H138881   0.514  -0.035   7.693 -0.6123 -1.0974 -0.9550
 5774TIP3    H238882   0.503   0.115   7.704  0.9491 -1.0854  1.2304
 5775TIP3   OH238883   5.319   4.290   7.990  0.3389  0.1561 -0.8762
 5775TIP3    H138884   5.261   4.321   7.921 -1.0121 -1.3138 -0.4421
 5775TIP3    H238885   5.397   4.260   7.944 -0.4078 -0.4914 -1.7436
 5776TIP3   OH238886   4.647   5.622   6.985 -0.2739 -0.3267 -0.2768
 5776TIP3    H138887   4.703   5.671   6.925 -0.1099  1.1617  1.0313
 5776TIP3    H238888   4.592   5.569   6.928  0.9501 -0.1611 -1.6745
 5777TIP3   OH238889   6.488   5.632   6.888  0.1660  0.7825  0.3528
 5777TIP3    H138890   6.405   5.605   6.926  0.7626  0.3514  1.4149
 5777TIP3    H238891   6.465   5.688   6.814 -1.0692 -0.4321 -0.2084
 5778TIP3   OH238892   4.119   3.079   1.225 -0.2467 -0.0353  0.6958
 5778TIP3    H138893   4.128   3.022   1.301  3.0721 -1.8103 -0.8008
 5778TIP3    H238894   4.197   3.135   1.229 -0.7519  0.7906 -0.6485
 5779TIP3   OH238895   2.617   5.641   1.180  0.1217 -0.2256  0.3668
 5779TIP3    H138896   2.572   5.646   1.264  0.7553 -2.6527  0.9435
 5779TIP3    H238897   2.549   5.659   1.115 -0.5073  1.1260  1.3583
 5780TIP3   OH238898   6.219   0.446   0.743 -0.8297  0.0079 -0.3949
 5780TIP3    H138899   6.168   0.527   0.732 -0.5426  0.1250 -0.8901
 5780TIP3    H238900   6.273   0.462   0.820 -0.3513  0.5143 -0.8288
 5781TIP3   OH238901   6.411   0.166   7.911 -0.1881 -0.0514 -0.6811
 5781TIP3    H138902   6.346   0.215   7.860  2.2410  0.9918 -2.9813
 5781TIP3    H238903   6.490   0.167   7.857  2.1147 -0.3479  2.4200
 5782TIP3   OH238904   5.645   5.320   1.898  0.6775 -0.2491  0.1467
 5782TIP3    H138905   5.710   5.367   1.951  0.1344 -0.9375  1.4615
 5782TIP3    H238906   5.681   5.232   1.888  0.0676 -0.5607  0.6665
 5783TIP3   OH238907   2.831   1.282   0.467 -0.1758  0.2442  0.5125
 5783TIP3    H138908   2.848   1.201   0.419 -0.0953 -0.3078  1.4365
 5783TIP3    H238909   2.914   1.331   0.463  0.8666 -1.1668  2.6044
 5784TIP3   OH238910   6.648   1.927   7.635  0.5389  0.2570  0.2440
 5784TIP3    H138911   6.596   1.930   7.554  1.1890  2.6354 -0.1450
 5784TIP3    H238912   6.650   1.834   7.658 -1.7758 -0.2064 -1.0825
 5785TIP3   OH238913   3.465   1.947   1.251  0.0664 -0.2922  0.4469
 5785TIP3    H138914   3.463   2.024   1.307  0.7127  0.3795 -0.4355
 5785TIP3    H238915   3.544   1.958   1.197 -0.1275 -1.2967 -0.0670
 5786TIP3   OH238916   0.663   6.485   8.615 -0.2274 -0.3554  0.4360
 5786TIP3    H138917   0.637   6.576   8.631  0.9031 -0.2072  1.5647
 5786TIP3    H238918   0.755   6.490   8.588  0.1439 -1.2163  1.4690
 5787TIP3   OH238919   6.691   0.294   0.408  0.7495  0.6296 -0.3598
 5787TIP3    H138920   6.597   0.283   0.399  0.7535 -1.1260  1.1449
 5787TIP3    H238921   6.722   0.310   0.319 -0.9308  1.0576 -0.9044
 5788TIP3   OH238922   2.444   4.996   2.296  0.3104 -0.0741  0.1975
 5788TIP3    H138923   2.449   5.066   2.231  0.8876  1.9091  2.2017
 5788TIP3    H238924   2.357   5.005   2.335  0.3955 -0.4688  0.4888
 5789TIP3   OH238925   2.180   3.061   1.521 -0.1390  0.1448 -0.5110
 5789TIP3    H138926   2.162   3.126   1.588  1.0587 -0.8256  0.8206
 5789TIP3    H238927   2.190   3.111   1.440  0.3163  1.5609  0.3952
 5790TIP3   OH238928   4.903   3.703   0.981  0.8704 -0.4452 -0.0699
 5790TIP3    H138929   4.917   3.614   0.948  0.1574 -1.3037  1.7944
 5790TIP3    H238930   4.812   3.704   1.011  0.7178  1.0863 -0.4904
 5791TIP3   OH238931   3.430   4.717   1.633 -0.7162 -0.1553 -0.0179
 5791TIP3    H138932   3.360   4.674   1.585 -0.7503  0.5090 -0.5803
 5791TIP3    H238933   3.406   4.707   1.725 -0.5439 -1.6128 -0.1114
 5792TIP3   OH238934   3.061   3.907   7.121  0.0823 -0.0103 -0.7862
 5792TIP3    H138935   3.130   3.842   7.106  1.2275  0.7547  0.7395
 5792TIP3    H238936   3.083   3.980   7.063 -1.4755 -1.0891 -2.8535
 5793TIP3   OH238937   3.536   5.284   1.909 -0.0227  0.0873 -0.7977
 5793TIP3    H138938   3.475   5.357   1.901  0.8115  1.4386  2.9161
 5793TIP3    H238939   3.623   5.324   1.910  0.4635 -0.8452  1.2588
 5794TIP3   OH238940   2.563   0.247   7.855 -0.6677 -0.4355 -0.6176
 5794TIP3    H138941   2.656   0.256   7.873 -0.7642 -1.6636  0.7521
 5794TIP3    H238942   2.553   0.268   7.762  1.2066 -1.7387 -1.1724
 5795TIP3   OH238943   3.020   4.096   1.049  0.2626 -0.1578  0.1089
 5795TIP3    H138944   2.975   4.175   1.077  0.2999 -0.0267 -0.1942
 5795TIP3    H238945   3.113   4.118   1.056  0.2793  0.4016 -1.5417
 5796TIP3   OH238946   4.252   4.578   0.489  0.1093  0.0134  0.3932
 5796TIP3    H138947   4.333   4.562   0.537  0.5828 -1.5140 -0.8320
 5796TIP3    H238948   4.236   4.496   0.441 -1.4160  0.7680 -0.4677
 5797TIP3   OH238949   6.576   5.183   7.694 -0.7311  0.0578  0.4862
 5797TIP3    H138950   6.536   5.220   7.773 -1.5173  0.8282 -0.2571
 5797TIP3    H238951   6.654   5.139   7.726  1.8751  4.5867  1.2258
 5798TIP3   OH238952   6.037   2.199   2.118  0.4556 -0.5093  0.2085
 5798TIP3    H138953   6.009   2.268   2.179 -0.8539 -0.4863 -0.3848
 5798TIP3    H238954   6.129   2.218   2.102  0.4947  0.2346  1.1912
 5799TIP3   OH238955   0.451   1.240   0.215  0.4257 -0.1668  0.4997
 5799TIP3    H138956   0.531   1.251   0.163  0.7673 -1.6382  0.6598
 5799TIP3    H238957   0.380   1.257   0.153  0.8346 -1.3987 -0.3440
 5800TIP3   OH238958   4.707   5.765   1.249  0.0813  0.2906  0.2957
 5800TIP3    H138959   4.766   5.763   1.174 -0.7002  0.4318 -0.3393
 5800TIP3    H238960   4.707   5.857   1.277 -1.8622  0.8826 -1.3906
 5801TIP3   OH238961   2.178   1.776   0.184  0.1695 -0.3186  0.0607
 5801TIP3    H138962   2.177   1.725   0.264  0.8682  2.4670  1.9931
 5801TIP3    H238963   2.195   1.866   0.212  2.2234  0.5751 -3.3538
 5802TIP3   OH238964   4.507   4.216   8.080 -0.1710  0.2367  0.1618
 5802TIP3    H138965   4.583   4.273   8.072  1.2113 -1.5298 -0.0112
 5802TIP3    H238966   4.466   4.240   8.163 -0.6571  2.5785 -0.6760
 5803TIP3   OH238967   1.259   2.790   0.221 -0.1079  0.4322 -0.2185
 5803TIP3    H138968   1.330   2.849   0.243 -0.0975  0.7628 -1.0953
 5803TIP3    H238969   1.184   2.824   0.270  0.6143 -0.7319  1.8171
 5804TIP3   OH238970   3.818   6.786   1.584 -0.5740 -0.0762 -0.3691
 5804TIP3    H138971   3.869   6.704   1.580 -1.8609 -0.8683 -1.9587
 5804TIP3    H238972   3.728   6.758   1.568 -1.1871  1.5708  0.0627
 5805TIP3   OH238973   3.068   0.576   7.835  0.2659  0.2478  0.0930
 5805TIP3    H138974   3.157   0.605   7.856 -0.1047  1.7404 -0.3060
 5805TIP3    H238975   3.078   0.527   7.753  0.6294  1.0066 -0.3257
 5806TIP3   OH238976   5.837   5.271   7.114 -0.2243 -0.6785  0.1895
 5806TIP3    H138977   5.755   5.319   7.098  0.4090  0.7317  1.0006
 5806TIP3    H238978   5.905   5.338   7.106  0.7965 -1.7020  0.1907
 5807TIP3   OH238979   3.918   4.580   7.595 -0.2549 -0.1386 -0.2219
 5807TIP3    H138980   3.939   4.662   7.639 -1.4419  0.2200 -0.2854
 5807TIP3    H238981   3.844   4.544   7.645 -0.2495 -0.7767 -0.6599
 5808TIP3   OH238982   1.738   3.552   8.158 -0.0286 -0.4747  0.1964
 5808TIP3    H138983   1.786   3.568   8.240 -1.4191  0.8557  0.8002
 5808TIP3    H238984   1.677   3.481   8.179  1.4479 -2.0506 -0.5254
 5809TIP3   OH238985   3.922   1.483   7.110  0.5915  0.1474 -0.1344
 5809TIP3    H138986   4.011   1.516   7.093  0.6167  0.2385  0.1635
 5809TIP3    H238987   3.936   1.407   7.166  0.5540 -0.5712 -1.0787
 5810TIP3   OH238988   6.176   1.483   8.265 -0.0443 -0.3643  0.1461
 5810TIP3    H138989   6.267   1.477   8.295 -0.2059 -0.2480  0.6691
 5810TIP3    H238990   6.152   1.392   8.247 -0.1118 -0.5036  0.8893
 5811TIP3   OH238991   6.550   0.993   0.292  0.6078  0.0921 -0.6889
 5811TIP3    H138992   6.608   1.021   0.363 -0.1834 -0.9110  0.3913
 5811TIP3    H238993   6.609   0.965   0.222  1.5449 -2.9525  1.1669
 5812TIP3   OH238994   3.925   3.142   7.989  0.3893  0.8508 -0.5445
 5812TIP3    H138995   3.837   3.112   8.011  0.7840 -0.6383 -0.8512
 5812TIP3    H238996   3.978   3.122   8.066  1.0366 -1.0639 -1.4089
 5813TIP3   OH238997   2.302   5.050   7.935 -0.1905  0.0954 -0.1147
 5813TIP3    H138998   2.370   5.072   7.870 -0.7621  1.7318 -0.1963
 5813TIP3    H238999   2.234   5.116   7.922 -1.3011 -0.8410  0.7331
 5814TIP3   OH239000   1.809   0.063   7.331  0.3631  0.3496  0.3982
 5814TIP3    H139001   1.851   0.038   7.249 -1.4633 -2.8356  0.2497
 5814TIP3    H239002   1.721   0.091   7.305 -0.2854 -0.8420  1.2472
 5815TIP3   OH239003   4.076   3.655   8.564 -0.2375 -0.4993 -0.1857
 5815TIP3    H139004   4.040   3.568   8.581  0.2397 -0.7788 -0.5707
 5815TIP3    H239005   4.021   3.691   8.494 -0.3354 -0.5560 -0.1360
 5816TIP3   OH239006   5.434   4.810   1.444  0.5681  0.2481  0.1503
 5816TIP3    H139007   5.449   4.745   1.512 -1.2115 -0.9283 -0.5130
 5816TIP3    H239008   5.415   4.759   1.365  3.2062  1.5355 -1.4777
 5817TIP3   OH239009   0.678   3.764   6.952  0.7558  0.9709  0.4363
 5817TIP3    H139010   0.712   3.700   6.889  2.0314  1.0345  1.0362
 5817TIP3    H239011   0.684   3.848   6.906 -1.1340  0.6825 -0.4363
 5818TIP3   OH239012   6.236   0.742   1.876 -0.4120  0.4175  0.0608
 5818TIP3    H139013   6.244   0.827   1.920 -3.1662  0.3049  0.9538
 5818TIP3    H239014   6.220   0.680   1.947 -2.5965 -0.1506 -0.8427
 5819TIP3   OH239015   0.759   1.224   1.644  0.1399 -0.3110  0.0984
 5819TIP3    H139016   0.743   1.282   1.718 -0.2316  0.9207 -0.9088
 5819TIP3    H239017   0.704   1.258   1.574  0.4089 -1.4952 -0.7322
 5820TIP3   OH239018   6.692   2.784   2.413  0.7242  0.6653  0.0812
 5820TIP3    H139019   6.718   2.735   2.492  1.0731  1.8428  0.7160
 5820TIP3    H239020   6.722   2.729   2.341  0.1183 -0.5940  0.7460
 5821TIP3   OH239021   4.388   6.225   1.068  0.0710  0.1654 -0.2116
 5821TIP3    H139022   4.423   6.198   1.153  0.6485  0.6355 -0.2932
 5821TIP3    H239023   4.294   6.206   1.073  0.2233 -0.4707  0.2668
 5822TIP3   OH239024   5.623   3.445   7.122 -0.1256 -0.4598 -0.0567
 5822TIP3    H139025   5.695   3.394   7.160 -1.2189 -0.7025  1.8450
 5822TIP3    H239026   5.568   3.468   7.197 -0.5091  2.2392 -1.0517
 5823TIP3   OH239027   1.297   3.775   1.863 -0.2616  0.3519  0.1880
 5823TIP3    H139028   1.284   3.680   1.867 -1.3705  0.4190 -1.0532
 5823TIP3    H239029   1.362   3.793   1.931  0.5867 -1.4001 -0.0946
 5824TIP3   OH239030   0.143   5.701   7.304  0.2461 -0.4245  0.8237
 5824TIP3    H139031   0.110   5.704   7.214  1.0311  1.1153  0.5460
 5824TIP3    H239032   0.216   5.639   7.300 -0.5781 -1.4236  0.7415
 5825TIP3   OH239033   2.510   4.601   8.198  0.6056  0.8846 -0.3622
 5825TIP3    H139034   2.532   4.598   8.292  0.6743  1.5735 -0.3527
 5825TIP3    H239035   2.462   4.683   8.187 -2.0803 -0.5369 -0.3685
 5826TIP3   OH239036   1.729   0.569   7.116  0.4855  0.2178  0.2103
 5826TIP3    H139037   1.638   0.595   7.131 -0.0912 -1.6773  0.2971
 5826TIP3    H239038   1.759   0.535   7.200 -0.0180 -2.6441 -0.6486
 5827TIP3   OH239039   0.294   2.899   1.434 -0.1579  0.0575 -0.1968
 5827TIP3    H139040   0.212   2.849   1.427 -0.5704  0.5853  0.6443
 5827TIP3    H239041   0.269   2.980   1.478  0.2746  1.5812 -2.5515
 5828TIP3   OH239042   4.898   5.506   1.448  0.6638 -0.4638  0.1586
 5828TIP3    H139043   4.937   5.472   1.368 -0.5560 -0.9491 -0.2571
 5828TIP3    H239044   4.824   5.447   1.466 -0.1116  0.6295  0.6947
 5829TIP3   OH239045   3.222   2.791   0.143 -0.1595 -0.1174  0.6288
 5829TIP3    H139046   3.181   2.707   0.164 -0.5271 -0.1694 -0.2706
 5829TIP3    H239047   3.149   2.852   0.133  0.0548  0.0897  0.3113
 5830TIP3   OH239048   3.215   3.102   0.574 -0.4071 -0.0920  0.4376
 5830TIP3    H139049   3.203   3.013   0.540 -1.0058 -0.3043  1.1559
 5830TIP3    H239050   3.301   3.129   0.543 -0.2967 -0.8619  0.0636
 5831TIP3   OH239051   1.297   2.835   2.181 -0.0955  0.3910 -0.1273
 5831TIP3    H139052   1.353   2.905   2.214  0.3416  0.8590 -1.7696
 5831TIP3    H239053   1.209   2.872   2.182 -0.4069 -0.2248  2.1234
 5832TIP3   OH239054   3.505   6.162   7.003  0.5139 -0.1796  0.1656
 5832TIP3    H139055   3.506   6.073   6.968  1.1125  0.1666 -0.7104
 5832TIP3    H239056   3.455   6.212   6.939  2.8993  0.7802 -1.0292
 5833TIP3   OH239057   0.552   3.246   6.429 -0.4195  0.3349 -0.0566
 5833TIP3    H139058   0.647   3.262   6.435 -0.1471 -1.4063  1.0948
 5833TIP3    H239059   0.545   3.164   6.380 -1.5365  1.8829 -2.6696
 5834TIP3   OH239060   1.124   2.404   1.888 -0.2747  0.7750 -0.0307
 5834TIP3    H139061   1.179   2.351   1.946 -0.9277  0.2002  0.0874
 5834TIP3    H239062   1.182   2.472   1.855  0.5514  0.0904 -0.0414
 5835TIP3   OH239063   1.449   6.752   8.384  0.7513  0.0278  0.3204
 5835TIP3    H139064   1.484   6.662   8.377 -0.7082 -0.7882  2.4013
 5835TIP3    H239065   1.358   6.740   8.410 -0.8536  2.1181 -3.6379
 5836TIP3   OH239066   6.095   1.325   8.514 -0.0728 -0.6690  0.5108
 5836TIP3    H139067   6.027   1.277   8.466 -0.3144  0.1271  0.0403
 5836TIP3    H239068   6.096   1.412   8.474  2.7937 -1.2977 -1.0733
 5837TIP3   OH239069   1.023   3.793   8.517 -0.2359 -0.9091  0.1672
 5837TIP3    H139070   1.053   3.766   8.430 -0.9097 -0.2793 -0.2748
 5837TIP3    H239071   1.010   3.711   8.565 -1.2896 -1.3448 -0.8193
 5838TIP3   OH239072   3.006   2.696   6.259  0.1170 -0.1749 -0.2695
 5838TIP3    H139073   3.095   2.705   6.225 -0.6951  0.4985 -2.3747
 5838TIP3    H239074   2.980   2.785   6.284  0.1163 -0.4102  0.5952
 5839TIP3   OH239075   5.977   1.099   7.380  0.1258  0.0862 -0.5952
 5839TIP3    H139076   5.983   1.186   7.341 -0.3526  2.3327  3.6676
 5839TIP3    H239077   6.067   1.075   7.401  0.1406  0.2990 -0.4117
 5840TIP3   OH239078   0.072   6.306   8.051  0.0521  0.5072 -0.5552
 5840TIP3    H139079   0.110   6.372   8.109 -1.4119 -0.1202  1.2271
 5840TIP3    H239080   0.132   6.232   8.056  0.7385  1.0182 -1.0903
 5841TIP3   OH239081   0.589   1.371   1.504 -0.4013  0.1242 -0.0232
 5841TIP3    H139082   0.624   1.461   1.502  0.0385 -0.0534 -0.5707
 5841TIP3    H239083   0.495   1.382   1.499 -0.2811  0.5008 -2.0702
 5842TIP3   OH239084   2.628   3.907   8.502  0.0238  0.1810  0.2990
 5842TIP3    H139085   2.661   3.895   8.590  1.2518 -0.6443 -0.2511
 5842TIP3    H239086   2.703   3.889   8.445 -1.1143 -0.8076 -0.9694
 5843TIP3   OH239087   4.020   0.215   2.053 -0.1771  0.3391  0.3284
 5843TIP3    H139088   3.926   0.199   2.043 -0.5025  1.9034  0.5298
 5843TIP3    H239089   4.026   0.284   2.119  1.0746  0.7306 -0.1587
 5844TIP3   OH239090   1.126   2.737   6.562 -0.1534  0.4591  0.6979
 5844TIP3    H139091   1.159   2.683   6.490 -3.2309 -0.4096 -0.2094
 5844TIP3    H239092   1.064   2.680   6.608 -0.9962  2.1704  1.7700
 5845TIP3   OH239093   0.020   3.960   0.024 -0.3159 -0.1398  0.1803
 5845TIP3    H139094  -0.020   3.918  -0.052  0.9243 -0.7333 -0.1733
 5845TIP3    H239095  -0.021   4.046   0.029 -0.8829 -0.3462 -0.7662
 5846TIP3   OH239096   5.248   4.454   8.358  0.0453  0.1361  0.0825
 5846TIP3    H139097   5.341   4.453   8.334 -0.2652  0.2475 -1.2236
 5846TIP3    H239098   5.246   4.496   8.444  1.2578 -0.4581  0.4305
 5847TIP3   OH239099   6.568   4.926   1.082 -0.1712  0.5632 -0.6099
 5847TIP3    H139100   6.562   4.842   1.127 -0.5661  0.8560 -0.1099
 5847TIP3    H239101   6.482   4.966   1.095  0.7114  2.0385  1.1217
 5848TIP3   OH239102   5.172   3.130   8.284 -0.0691 -0.5949  0.1027
 5848TIP3    H139103   5.086   3.087   8.285  0.2404 -1.2544 -0.2796
 5848TIP3    H239104   5.234   3.059   8.300  0.4683 -0.3076 -0.6532
 5849TIP3   OH239105   5.640   6.090   1.258  0.4488  0.3400  0.2751
 5849TIP3    H139106   5.591   6.119   1.334 -0.2040 -1.0945  0.4248
 5849TIP3    H239107   5.600   6.136   1.184 -0.4331 -0.0200  0.5233
 5850TIP3   OH239108   5.745   1.119   2.055 -0.1842  0.1583  0.0070
 5850TIP3    H139109   5.799   1.049   2.092 -0.1626  0.1480 -0.0451
 5850TIP3    H239110   5.656   1.097   2.082 -0.0230  0.8447  1.1776
 5851TIP3   OH239111   1.543   3.183   1.252  0.0705 -0.7134  0.7639
 5851TIP3    H139112   1.632   3.209   1.232 -0.0642 -0.1641  0.8451
 5851TIP3    H239113   1.511   3.142   1.172 -0.6139  1.8400 -0.4012
 5852TIP3   OH239114   4.334   0.131   8.606 -0.0704  0.4423 -0.0156
 5852TIP3    H139115   4.286   0.195   8.658 -0.3949  2.5526 -2.6701
 5852TIP3    H239116   4.426   0.158   8.613 -0.1022  0.6621 -0.4142
 5853TIP3   OH239117   4.866   3.896   6.788  0.2256 -0.1033  0.1895
 5853TIP3    H139118   4.779   3.925   6.760  0.2353  0.0371  0.3042
 5853TIP3    H239119   4.919   3.903   6.709 -0.1331 -1.2919 -0.1748
 5854TIP3   OH239120   5.296   1.837   7.873  0.0997  0.0128  0.2689
 5854TIP3    H139121   5.277   1.788   7.793  0.7942 -0.4407  0.3671
 5854TIP3    H239122   5.318   1.925   7.842  0.2634 -0.1305 -0.0351
 5855TIP3   OH239123   5.563   6.694   1.474 -0.1158  0.4263  0.4823
 5855TIP3    H139124   5.582   6.787   1.461  1.4572  0.1555  0.6320
 5855TIP3    H239125   5.538   6.662   1.388  0.1610  0.8240  0.2493
 5856TIP3   OH239126   3.390   4.445   7.589 -0.1806 -0.2856  0.1930
 5856TIP3    H139127   3.414   4.414   7.502  2.0674  0.3220  0.5373
 5856TIP3    H239128   3.375   4.366   7.640  1.4002 -0.7535 -0.0145
 5857TIP3   OH239129   0.083   4.779   2.937 -0.8090 -0.1176 -0.1232
 5857TIP3    H139130   0.032   4.822   3.005 -1.0521  0.5433 -0.7070
 5857TIP3    H239131   0.082   4.686   2.961 -0.7752  0.1148  0.8365
 5858TIP3   OH239132   0.542   1.557   8.113  0.1019 -0.2744  0.5840
 5858TIP3    H139133   0.590   1.479   8.140 -0.9906 -1.0829  0.2373
 5858TIP3    H239134   0.587   1.587   8.035 -0.7226 -1.8197 -0.5398
 5859TIP3   OH239135   2.009   1.627   0.926  0.1700 -0.0284 -0.5669
 5859TIP3    H139136   2.037   1.568   0.856  1.4075 -0.4522  0.2523
 5859TIP3    H239137   2.080   1.624   0.990 -0.6528  0.8222  0.4275
 5860TIP3   OH239138   5.253   2.353   8.555  0.0393 -0.3730 -0.4901
 5860TIP3    H139139   5.324   2.412   8.529  0.0662  0.5291  1.5005
 5860TIP3    H239140   5.273   2.328   8.645 -1.1584 -1.6758 -0.5444
 5861TIP3   OH239141   0.505   4.464   0.290  0.2895 -0.2793 -0.2264
 5861TIP3    H139142   0.504   4.395   0.224  0.2730 -0.4368 -0.0590
 5861TIP3    H239143   0.551   4.427   0.364 -2.1360 -1.1130  0.9716
 5862TIP3   OH239144   4.811   2.584   8.526 -0.2750  0.3472  0.1384
 5862TIP3    H139145   4.842   2.494   8.513  0.2954  0.3298  1.4973
 5862TIP3    H239146   4.791   2.615   8.438  0.3031 -0.8314 -0.4316
 5863TIP3   OH239147   4.390   0.636   7.668  0.0795 -0.3022  0.9082
 5863TIP3    H139148   4.339   0.716   7.680 -0.9123 -0.6051 -0.8754
 5863TIP3    H239149   4.477   0.667   7.641 -0.3965  0.1997 -0.1139
 5864TIP3   OH239150   0.146   0.453   6.098  0.0713  0.6816  0.1902
 5864TIP3    H139151   0.132   0.451   6.003  1.2609  0.8579 -0.0037
 5864TIP3    H239152   0.109   0.371   6.129 -1.5518  1.2208 -0.2331
 5865TIP3   OH239153   3.130   4.146   7.508 -0.1853 -0.0579 -0.0402
 5865TIP3    H139154   3.192   4.172   7.440  1.1408  0.0840  1.1573
 5865TIP3    H239155   3.070   4.085   7.465  0.2369  0.5020 -1.4605
 5866TIP3   OH239156   6.334   1.769   6.438 -0.8061 -0.1562  0.0006
 5866TIP3    H139157   6.411   1.713   6.449 -0.0766  0.7097 -0.5390
 5866TIP3    H239158   6.350   1.817   6.357 -0.6719  1.9410  1.1911
 5867TIP3   OH239159   5.868   2.239   7.548  0.0960  0.0067 -0.0194
 5867TIP3    H139160   5.778   2.213   7.528  1.0006 -1.8135 -2.1034
 5867TIP3    H239161   5.890   2.302   7.480  0.2924  0.7914  0.7490
 5868TIP3   OH239162   3.904   3.509   2.159 -0.0010 -0.5842 -0.1128
 5868TIP3    H139163   3.835   3.574   2.151 -0.6787 -1.3796 -0.9767
 5868TIP3    H239164   3.872   3.447   2.225 -0.4551 -1.3430 -1.0271
 5869TIP3   OH239165   5.244   0.982   6.624 -0.4362 -0.9028 -0.5475
 5869TIP3    H139166   5.255   0.982   6.529  0.2737 -3.0075 -0.5063
 5869TIP3    H239167   5.311   1.042   6.656 -0.2416 -0.7005 -1.3268
 5870TIP3   OH239168   6.582   5.916   0.333  0.0934  0.0407 -0.0411
 5870TIP3    H139169   6.556   5.826   0.353  1.0356 -0.3584 -0.5237
 5870TIP3    H239170   6.641   5.908   0.258  0.8714  0.9659  0.4406
 5871TIP3   OH239171   4.461   2.820   7.525  0.1400 -0.2635  0.3224
 5871TIP3    H139172   4.522   2.894   7.521 -0.4277  0.2474  0.9421
 5871TIP3    H239173   4.377   2.857   7.496 -0.5394 -0.2291  2.2278
 5872TIP3   OH239174   6.279   4.094   0.461  0.4175  0.2196  0.2202
 5872TIP3    H139175   6.192   4.114   0.496  1.1058  0.1694  2.0455
 5872TIP3    H239176   6.333   4.076   0.538  1.7309 -1.0890 -0.9433
 5873TIP3   OH239177   5.002   3.937   8.233  0.0681 -0.7461  0.0477
 5873TIP3    H139178   5.051   3.934   8.150 -1.2068  2.7545 -1.0046
 5873TIP3    H239179   5.056   3.992   8.290 -0.1806 -1.2155  0.7401
 5874TIP3   OH239180   6.276   1.173   0.377 -0.1576 -0.1352 -0.4394
 5874TIP3    H139181   6.189   1.212   0.366 -0.6428 -0.3240  2.0342
 5874TIP3    H239182   6.259   1.079   0.382  0.2985 -0.2378 -0.8235
 5875TIP3   OH239183   2.619   6.093   1.487 -0.1468 -0.5019 -0.2555
 5875TIP3    H139184   2.556   6.072   1.418 -0.2701 -1.2913  0.0860
 5875TIP3    H239185   2.664   6.010   1.504  1.3834  0.1677 -0.8773
 5876TIP3   OH239186   2.487   0.252   8.509  0.2904  0.1471 -0.2087
 5876TIP3    H139187   2.467   0.187   8.441 -1.0328  0.4838 -0.1503
 5876TIP3    H239188   2.402   0.275   8.546  0.8822  0.9269  0.6882
 5877TIP3   OH239189   5.608   1.487   1.017  0.1081 -0.0962  0.6222
 5877TIP3    H139190   5.697   1.514   1.038 -0.1292  0.2732  1.1748
 5877TIP3    H239191   5.563   1.485   1.102  0.2447 -2.7738  0.7127
 5878TIP3   OH239192   3.693   6.035   7.763  0.0751 -0.3522 -0.7511
 5878TIP3    H139193   3.740   6.117   7.779 -0.3450 -0.2122 -0.2139
 5878TIP3    H239194   3.677   6.034   7.669  0.0792  0.1808 -0.7566
 5879TIP3   OH239195   4.419   3.506   0.732  0.1443 -0.4532  0.4987
 5879TIP3    H139196   4.504   3.549   0.724 -0.3435  0.4967  0.3616
 5879TIP3    H239197   4.369   3.560   0.792 -0.5994 -0.6239  0.0505
 5880TIP3   OH239198   0.450   6.859   0.366  0.5592 -0.0263  0.0575
 5880TIP3    H139199   0.372   6.906   0.396  1.0238 -0.7740  2.7214
 5880TIP3    H239200   0.500   6.924   0.318 -0.2556  1.3742  1.0259
 5881TIP3   OH239201   0.576   3.118   1.101 -0.4059  0.1035 -0.6947
 5881TIP3    H139202   0.668   3.117   1.128 -0.5373 -1.0019 -0.2190
 5881TIP3    H239203   0.561   3.207   1.071  0.4800  0.6578  0.4040
 5882TIP3   OH239204   6.597   1.641   6.913 -0.3433 -0.3551 -0.0272
 5882TIP3    H139205   6.506   1.613   6.919 -0.4526 -0.1799 -0.8060
 5882TIP3    H239206   6.602   1.693   6.833  0.1977  0.5816  0.5928
 5883TIP3   OH239207   5.708   0.053   8.153  0.2455  0.7327  0.4355
 5883TIP3    H139208   5.646   0.025   8.220 -0.7182  2.3661  0.2790
 5883TIP3    H239209   5.761   0.120   8.196  1.8502 -0.5312  0.5196
 5884TIP3   OH239210   6.820   2.420   8.626 -0.0993  0.0138  0.1506
 5884TIP3    H139211   6.837   2.414   8.720  3.0128  1.7560 -0.1836
 5884TIP3    H239212   6.846   2.335   8.591 -0.5501 -0.3813  0.7477
 5885TIP3   OH239213   2.094   4.290   8.019 -0.0067  0.5764  0.5104
 5885TIP3    H139214   2.142   4.353   7.965  0.1382 -0.6373 -0.8389
 5885TIP3    H239215   2.161   4.252   8.076  0.3314  0.1410 -0.1553
 5886TIP3   OH239216   2.332   4.997   7.503  0.2519  0.4962  0.3742
 5886TIP3    H139217   2.282   5.073   7.473 -0.9668  0.3835  1.9411
 5886TIP3    H239218   2.415   5.002   7.456 -0.3473  2.0044 -0.5946
 5887TIP3   OH239219   0.093   4.926   8.095  0.3083 -0.1336  0.2938
 5887TIP3    H139220   0.005   4.906   8.065  0.0220  0.8598  0.4291
 5887TIP3    H239221   0.144   4.936   8.015  0.7889 -2.6187  0.2120
 5888TIP3   OH239222   2.575   2.691   1.476 -0.0950 -0.4632  0.2298
 5888TIP3    H139223   2.651   2.734   1.516 -0.4473 -0.9756  1.5202
 5888TIP3    H239224   2.562   2.612   1.529 -1.6964 -0.2311  0.2240
 5889TIP3   OH239225   0.195   2.385   6.573  0.2093 -0.1890  0.0665
 5889TIP3    H139226   0.226   2.353   6.488  0.9383 -0.3088  0.3746
 5889TIP3    H239227   0.258   2.350   6.636 -0.4572 -0.2924  0.6875
 5890TIP3   OH239228   2.180   3.823   1.429 -0.1836  0.1359 -0.7347
 5890TIP3    H139229   2.263   3.799   1.470  0.6051 -0.8437 -2.7547
 5890TIP3    H239230   2.115   3.771   1.475  0.6998 -1.1559 -0.9014
 5891TIP3   OH239231   5.763   5.061   1.095 -0.5459  0.0869  0.3458
 5891TIP3    H139232   5.813   5.090   1.020 -0.4725  0.1032  0.4012
 5891TIP3    H239233   5.672   5.084   1.074 -0.4381  0.7645  0.5821
 5892TIP3   OH239234   1.682   5.718   0.923 -0.0031 -0.5180  0.7997
 5892TIP3    H139235   1.602   5.692   0.877 -0.1883 -0.1077  0.8823
 5892TIP3    H239236   1.752   5.697   0.862 -0.1517 -1.1417  0.8395
 5893TIP3   OH239237   2.177   6.358   8.341 -0.0627 -0.1015 -0.0725
 5893TIP3    H139238   2.265   6.334   8.311  0.4929  0.2254  1.1956
 5893TIP3    H239239   2.170   6.451   8.322 -0.3745 -0.2550 -0.7173
 5894TIP3   OH239240   5.980   5.709   7.887  0.1283  0.1823 -0.7828
 5894TIP3    H139241   5.896   5.754   7.890 -0.0387 -0.0538 -1.6461
 5894TIP3    H239242   6.039   5.765   7.937 -0.1681  1.1512 -1.4927
 5895TIP3   OH239243   4.768   2.560   8.250 -0.4411 -0.0319 -0.5105
 5895TIP3    H139244   4.790   2.646   8.213  0.5545  0.0368  0.2158
 5895TIP3    H239245   4.675   2.566   8.271 -0.7899  0.2819 -2.0225
 5896TIP3   OH239246   4.926   5.907   8.492  0.0895  0.8198  0.0687
 5896TIP3    H139247   4.915   5.830   8.437  0.7191 -0.6734  1.9173
 5896TIP3    H239248   5.017   5.902   8.523  0.2877  2.5651 -0.1084
 5897TIP3   OH239249   2.473   4.145   6.771 -0.7073  0.1343 -0.4687
 5897TIP3    H139250   2.531   4.095   6.713 -0.4622 -0.2996  0.1459
 5897TIP3    H239251   2.456   4.086   6.844  0.2383  1.2280  0.6791
 5898TIP3   OH239252   3.731   1.268   2.035 -0.2070  0.0008  0.6154
 5898TIP3    H139253   3.782   1.190   2.017 -1.5067 -0.4114 -1.6990
 5898TIP3    H239254   3.640   1.242   2.019 -0.8958  1.4284  1.9035
 5899TIP3   OH239255   3.360   6.667   0.812 -0.4266 -0.1420 -0.4221
 5899TIP3    H139256   3.375   6.659   0.906 -1.9355  0.5460 -0.0848
 5899TIP3    H239257   3.291   6.603   0.793 -0.8486  0.4324 -0.8636
 5900TIP3   OH239258   4.099   6.154   0.844 -0.6531  0.3170 -0.1094
 5900TIP3    H139259   4.102   6.244   0.810 -0.2794  0.1414 -0.5677
 5900TIP3    H239260   4.054   6.161   0.927 -0.1870  1.0112  0.0984
 5901TIP3   OH239261   1.411   1.019   1.546  0.1337 -0.4473 -0.3398
 5901TIP3    H139262   1.374   1.033   1.459  0.1720 -0.5251 -0.3684
 5901TIP3    H239263   1.344   1.052   1.606  0.0982 -0.4136 -0.3978
 5902TIP3   OH239264   1.514   2.596   0.369  0.2428  0.8067 -0.5513
 5902TIP3    H139265   1.553   2.678   0.340  2.3027  0.0945  0.0814
 5902TIP3    H239266   1.510   2.543   0.289 -1.6262  1.6424 -1.0870
 5903TIP3   OH239267   0.956   2.571   0.383 -0.1658 -0.0298 -0.3489
 5903TIP3    H139268   0.998   2.652   0.354 -0.4784 -0.2695 -1.5439
 5903TIP3    H239269   1.009   2.540   0.456  0.1241  1.0958 -0.0759
 5904TIP3   OH239270   3.458   3.766   7.759  0.6097 -0.2306  0.1477
 5904TIP3    H139271   3.464   3.673   7.738 -2.1512 -0.6949  0.9814
 5904TIP3    H239272   3.424   3.768   7.849  1.9603  1.6135  0.6725
 5905TIP3   OH239273   6.450   3.025   1.456  0.1196  0.0546  0.3008
 5905TIP3    H139274   6.479   3.050   1.544  0.2467 -2.2160  0.9752
 5905TIP3    H239275   6.358   3.003   1.466  0.0724  0.0086 -0.2021
 5906TIP3   OH239276   0.933   0.954   6.833 -0.6460 -0.1148 -0.5408
 5906TIP3    H139277   0.872   0.930   6.902 -1.1421  0.2984 -0.8287
 5906TIP3    H239278   0.887   0.933   6.752 -0.7782  1.0502 -0.7816
 5907TIP3   OH239279   6.576   1.132   1.539  0.3501 -0.1373 -0.0443
 5907TIP3    H139280   6.621   1.176   1.611  2.0265  0.3619 -1.3072
 5907TIP3    H239281   6.590   1.189   1.463 -1.3667 -0.6257 -0.7924
 5908TIP3   OH239282   0.028   5.152   2.919 -0.0033  0.0672 -0.1563
 5908TIP3    H139283  -0.032   5.192   2.855  0.3758  0.6100 -0.1843
 5908TIP3    H239284   0.098   5.217   2.929  0.3090 -0.3323  0.2702
 5909TIP3   OH239285   1.117   0.290   0.341 -0.2659 -0.1283 -0.6766
 5909TIP3    H139286   1.054   0.236   0.292  0.1355  0.3881 -1.7892
 5909TIP3    H239287   1.088   0.380   0.327  0.1272  0.0541 -0.3373
 5910TIP3   OH239288   6.500   6.351   0.093 -0.1744 -0.5740 -0.1703
 5910TIP3    H139289   6.426   6.354   0.032 -0.0768 -0.0473 -0.2659
 5910TIP3    H239290   6.493   6.265   0.134 -0.3762 -0.8474 -0.7570
 5911TIP3   OH239291   3.222   4.628   1.495 -0.1732  0.1591  0.1208
 5911TIP3    H139292   3.242   4.588   1.411  2.7996  1.8631 -0.1397
 5911TIP3    H239293   3.143   4.680   1.479  0.2715  0.3714 -1.6095
 5912TIP3   OH239294   4.970   3.305   7.123 -0.6136 -0.4797  0.2880
 5912TIP3    H139295   4.941   3.391   7.092 -1.8169 -1.2379 -0.8026
 5912TIP3    H239296   5.062   3.299   7.096  0.4110  1.5991  2.9679
 5913TIP3   OH239297   1.488   2.238   6.555  0.2961  0.0047 -0.4869
 5913TIP3    H139298   1.420   2.305   6.549  0.1521 -0.1656 -0.7986
 5913TIP3    H239299   1.441   2.156   6.540  0.7181 -0.0431 -1.6971
 5914TIP3   OH239300   3.036   5.149   1.120  0.1258  0.4421 -0.2345
 5914TIP3    H139301   3.101   5.144   1.051  1.3345 -0.4002  0.9203
 5914TIP3    H239302   3.080   5.114   1.198 -0.5557  3.0597  1.4457
 5915TIP3   OH239303   5.132   3.941   0.555  0.2004 -0.0381  0.2528
 5915TIP3    H139304   5.215   3.934   0.508  0.7066  1.5649  0.8558
 5915TIP3    H239305   5.144   4.014   0.616 -1.0171 -0.9510  1.6822
 5916TIP3   OH239306   2.298   1.033   1.377 -0.2036  0.1202  0.2312
 5916TIP3    H139307   2.331   1.123   1.373 -1.5631  0.6128 -0.6641
 5916TIP3    H239308   2.203   1.043   1.380 -0.3684 -1.2963  0.1245
 5917TIP3   OH239309   1.694   3.165   0.599  0.1062  0.2899 -0.4828
 5917TIP3    H139310   1.744   3.239   0.632 -0.3000  0.2008  0.3723
 5917TIP3    H239311   1.604   3.197   0.594 -0.2802 -0.4622  1.0268
 5918TIP3   OH239312   5.207   5.034   0.646  0.6029  0.5102  0.5541
 5918TIP3    H139313   5.157   4.955   0.667  1.1017 -0.5574 -1.9050
 5918TIP3    H239314   5.156   5.106   0.682 -0.9840 -0.7863  1.0032
 5919TIP3   OH239315   2.321   2.902   7.252 -0.4151  0.5936  0.0716
 5919TIP3    H139316   2.352   2.835   7.313 -0.0708  0.6931  0.0045
 5919TIP3    H239317   2.232   2.921   7.281 -1.4611 -1.6814 -1.3671
 5920TIP3   OH239318   4.745   3.291   0.381 -0.0367  0.3666 -0.8836
 5920TIP3    H139319   4.762   3.222   0.317  1.6503  1.0726 -1.2420
 5920TIP3    H239320   4.667   3.261   0.428  0.3935 -1.5616 -1.3139
 5921TIP3   OH239321   3.541   3.976   7.092 -0.4797 -0.1599  0.6892
 5921TIP3    H139322   3.629   4.014   7.095 -0.6569  0.4616 -1.0137
 5921TIP3    H239323   3.546   3.910   7.022 -1.8424  1.2360 -0.7949
 5922TIP3   OH239324   0.526   4.289   0.093 -0.1551  0.3134 -0.5744
 5922TIP3    H139325   0.519   4.195   0.107 -3.1249  0.4128 -0.7895
 5922TIP3    H239326   0.513   4.300  -0.001 -0.6400  0.9815 -0.4336
 5923TIP3   OH239327   1.095   0.703   6.802  0.2534  0.3891 -0.2000
 5923TIP3    H139328   1.073   0.796   6.797  0.4576  0.4761  0.4810
 5923TIP3    H239329   1.116   0.679   6.711  1.0619  1.2250 -0.2514
 5924TIP3   OH239330   5.030   5.529   7.209 -0.3664  0.0883  1.0137
 5924TIP3    H139331   4.937   5.539   7.228 -0.4805  0.0619  0.4722
 5924TIP3    H239332   5.033   5.481   7.126  0.1050  1.6665  0.0805
 5925TIP3   OH239333   4.835   0.062   1.450  0.4425  0.2415  0.0473
 5925TIP3    H139334   4.838   0.156   1.467  2.3730  0.3471 -0.6587
 5925TIP3    H239335   4.769   0.052   1.382  1.4212  1.3416 -1.1211
 5926TIP3   OH239336   6.852   2.376   0.226  0.4441  0.2583 -0.3615
 5926TIP3    H139337   6.925   2.408   0.280  1.4224 -3.9041  1.1119
 5926TIP3    H239338   6.777   2.375   0.286  1.3878 -3.7665  1.0246
 5927TIP3   OH239339   6.456   3.078   0.484  0.5955 -0.0741 -0.0335
 5927TIP3    H139340   6.364   3.103   0.487  0.7429  0.4322  0.8677
 5927TIP3    H239341   6.455   2.982   0.487  0.1010 -0.0656  1.8231
 5928TIP3   OH239342   4.651   5.327   0.060 -0.0882 -0.3167 -0.1138
 5928TIP3    H139343   4.692   5.303   0.143  0.8093 -1.9415 -0.9880
 5928TIP3    H239344   4.702   5.281  -0.006 -2.2568 -0.9898 -1.3960
 5929TIP3   OH239345   4.941   0.880   2.577 -0.4389 -0.5949  0.2046
 5929TIP3    H139346   4.895   0.961   2.602 -3.0491 -1.0703 -2.4309
 5929TIP3    H239347   5.025   0.910   2.543 -0.9987  0.9756  0.1001
 5930TIP3   OH239348   3.171   5.199   6.480  0.2626 -0.3832  0.8084
 5930TIP3    H139349   3.184   5.240   6.394  1.2530 -0.7492  0.7789
 5930TIP3    H239350   3.119   5.120   6.461 -1.2084  0.5416  0.8055
 5931TIP3   OH239351   6.395   6.284   7.887  0.2076  0.6375  0.3698
 5931TIP3    H139352   6.470   6.323   7.931  0.8266  0.0979 -0.1901
 5931TIP3    H239353   6.419   6.282   7.795  0.0333 -0.6800  0.3297
 5932TIP3   OH239354   5.499   3.250   7.924  0.2966  0.0518 -0.4830
 5932TIP3    H139355   5.565   3.315   7.948  0.1276  0.4496 -1.0677
 5932TIP3    H239356   5.473   3.275   7.836 -0.5903 -0.1474 -0.2800
 5933TIP3   OH239357   2.919   5.134   8.110 -0.6820 -0.1681  0.2189
 5933TIP3    H139358   2.904   5.040   8.098 -2.6432 -0.1345  1.9051
 5933TIP3    H239359   2.982   5.139   8.182 -1.4825 -0.2171  0.9429
 5934TIP3   OH239360   1.524   2.877   1.070  0.3284 -0.1371 -0.5137
 5934TIP3    H139361   1.468   2.815   1.022  0.7950 -0.8458 -0.1588
 5934TIP3    H239362   1.492   2.963   1.044 -1.4645 -0.5209  0.3011
 5935TIP3   OH239363   6.476   1.919   2.390 -0.0085  0.5037  0.1376
 5935TIP3    H139364   6.419   1.844   2.408  1.1594 -0.3845  0.2687
 5935TIP3    H239365   6.476   1.970   2.471  0.4521 -0.2209  0.5971
 5936TIP3   OH239366   2.339   4.253   1.473  0.6157  0.0720 -0.4404
 5936TIP3    H139367   2.252   4.216   1.458  0.2300  1.3643 -1.6293
 5936TIP3    H239368   2.373   4.206   1.549 -1.4648  0.1086  0.5832
 5937TIP3   OH239369   0.339   4.246   6.914 -0.1646 -0.0661 -0.2303
 5937TIP3    H139370   0.273   4.176   6.912  1.2369 -1.5295  1.0300
 5937TIP3    H239371   0.302   4.312   6.972 -0.9554 -0.3834 -0.3634
 5938TIP3   OH239372   2.183   0.145   7.885  0.2037 -0.4190 -0.1617
 5938TIP3    H139373   2.241   0.115   7.815  2.2325  0.7532  0.9283
 5938TIP3    H239374   2.235   0.208   7.935 -2.5245  1.9857 -0.0528
 5939TIP3   OH239375   4.417   3.718   7.137 -0.1588  0.3370 -0.2031
 5939TIP3    H139376   4.510   3.739   7.142 -0.4725  1.5682  0.6479
 5939TIP3    H239377   4.373   3.802   7.143 -1.3719 -0.3424  0.6268
 5940TIP3   OH239378   2.327   3.612   1.638  0.5965  0.3616  0.2264
 5940TIP3    H139379   2.300   3.568   1.558 -0.2964  2.2116 -0.5535
 5940TIP3    H239380   2.294   3.557   1.709 -0.7457 -0.0598 -0.7031
 5941TIP3   OH239381   3.801   1.613   2.098 -0.2067  0.2270  0.4650
 5941TIP3    H139382   3.858   1.550   2.055  0.1102  0.9491 -0.1831
 5941TIP3    H239383   3.842   1.698   2.082 -1.3778  0.7452  0.1059
 5942TIP3   OH239384   6.356   4.922   2.083 -0.6383 -0.3161  0.3035
 5942TIP3    H139385   6.416   4.991   2.110 -1.1449  0.4269 -0.4241
 5942TIP3    H239386   6.364   4.855   2.152 -0.2846  0.5488  1.1258
 5943TIP3   OH239387   4.896   5.011   1.425 -0.0033 -0.1914  0.1486
 5943TIP3    H139388   4.974   4.992   1.374  0.6274 -0.4692  1.1958
 5943TIP3    H239389   4.921   4.993   1.516 -1.3663 -0.5698  0.4755
 5944TIP3   OH239390   1.204   2.614   7.813  0.5680  0.1715  0.0222
 5944TIP3    H139391   1.116   2.651   7.803  1.1745  2.2500  1.6135
 5944TIP3    H239392   1.220   2.615   7.908  2.3415 -0.0904 -0.2395
 5945TIP3   OH239393   1.691   6.636   7.782  0.1398  0.1130  0.2851
 5945TIP3    H139394   1.698   6.543   7.763 -0.2287  0.0438  0.4853
 5945TIP3    H239395   1.712   6.679   7.699  1.2582 -0.1174  0.4367
 5946TIP3   OH239396   0.225   4.880   1.700  0.2083 -0.0683 -0.3290
 5946TIP3    H139397   0.225   4.882   1.604  0.1606  2.4718 -0.3520
 5946TIP3    H239398   0.165   4.809   1.722  0.3918 -0.8596 -2.1736
 5947TIP3   OH239399   0.102   2.989   8.020 -0.3907 -0.5713 -0.0648
 5947TIP3    H139400   0.164   3.057   8.045 -1.0081 -0.3636  0.9516
 5947TIP3    H239401   0.016   3.031   8.026 -0.6352 -0.7296 -1.8572
 5948TIP3   OH239402   5.811   0.856   8.639 -0.1856  0.1844  0.2952
 5948TIP3    H139403   5.809   0.838   8.733 -3.3709  0.8245  0.4408
 5948TIP3    H239404   5.745   0.798   8.602  1.1612 -0.2179 -1.6358
 5949TIP3   OH239405   2.716   2.159   6.759  0.2035  0.1181 -0.2788
 5949TIP3    H139406   2.647   2.216   6.792  1.0888  0.1057  1.7499
 5949TIP3    H239407   2.740   2.195   6.674 -1.1777  1.0760 -0.2769
 5950TIP3   OH239408   6.368   3.804   7.779 -0.0097  0.2027 -0.1728
 5950TIP3    H139409   6.287   3.828   7.734 -1.0353 -2.4493  0.0815
 5950TIP3    H239410   6.434   3.804   7.709 -0.4139  1.3755 -0.5848
 5951TIP3   OH239411   4.129   0.258   0.640  0.1588 -0.2732  0.4834
 5951TIP3    H139412   4.125   0.165   0.664 -0.9823 -0.2586  0.3965
 5951TIP3    H239413   4.159   0.302   0.719  0.3549 -0.6785  0.6366
 5952TIP3   OH239414   1.887   6.649   7.990  0.0584 -0.1182  0.4207
 5952TIP3    H139415   1.904   6.560   7.958 -2.0956 -0.7269  0.8233
 5952TIP3    H239416   1.810   6.678   7.942 -0.2940  0.8655  1.5126
 5953TIP3   OH239417   0.159   4.700   6.925 -0.1066  0.3695 -0.0093
 5953TIP3    H139418   0.230   4.756   6.896  0.0049  0.3291  0.1865
 5953TIP3    H239419   0.103   4.757   6.979 -1.0219  0.7934 -1.3523
 5954TIP3   OH239420   5.739   6.261   0.440 -0.7412 -0.6963  0.1323
 5954TIP3    H139421   5.691   6.251   0.358  1.8411 -1.3100 -1.4089
 5954TIP3    H239422   5.683   6.317   0.494 -3.1111 -1.3288 -1.5248
 5955TIP3   OH239423   6.439   0.214   0.402  0.8018 -0.4179  0.3642
 5955TIP3    H139424   6.350   0.242   0.426  1.3195  1.0798  0.6273
 5955TIP3    H239425   6.430   0.181   0.312  0.4942  2.7701 -0.8979
 5956TIP3   OH239426   2.467   1.281   7.572 -0.9330 -0.2599  0.8454
 5956TIP3    H139427   2.484   1.338   7.647 -0.4909  0.0993  0.4840
 5956TIP3    H239428   2.548   1.285   7.521 -1.3754 -0.1612  0.1385
 5957TIP3   OH239429   2.903   5.448   8.621  0.2115  0.1056 -0.5927
 5957TIP3    H139430   2.898   5.542   8.643 -0.7771  0.1693 -1.0386
 5957TIP3    H239431   2.834   5.408   8.673  2.3253 -0.8277  1.6568
 5958TIP3   OH239432   0.247   6.401   0.567  0.2843  0.0857  0.4922
 5958TIP3    H139433   0.317   6.455   0.531  0.9198 -1.6460 -1.0454
 5958TIP3    H239434   0.292   6.335   0.619 -0.3897  0.2601  1.3289
 5959TIP3   OH239435   2.009   2.666   0.171 -0.1727 -0.2514  0.2356
 5959TIP3    H139436   1.932   2.610   0.181  1.5536 -2.3972  2.5289
 5959TIP3    H239437   2.079   2.606   0.148  1.1307  1.4802 -0.4999
 5960TIP3   OH239438   2.945   4.404   1.032 -0.0512  0.5274 -0.4571
 5960TIP3    H139439   2.870   4.367   1.079  0.7821  0.8187  1.1868
 5960TIP3    H239440   2.932   4.498   1.037 -0.8877  0.5501 -2.4625
 5961TIP3   OH239441   2.232   1.965   7.129  0.2479 -0.4705 -0.6462
 5961TIP3    H139442   2.176   1.889   7.144  1.3173 -1.1098  0.2304
 5961TIP3    H239443   2.315   1.928   7.100  0.5519  0.4150 -0.9417
 5962TIP3   OH239444   5.646   4.370   1.544 -0.0666  0.5602 -0.7299
 5962TIP3    H139445   5.601   4.303   1.492 -0.0328  0.3229 -0.4556
 5962TIP3    H239446   5.719   4.398   1.489 -2.1146  2.9701 -2.4117
 5963TIP3   OH239447   0.234   4.271   8.669 -0.9413 -0.2025 -0.2313
 5963TIP3    H139448   0.305   4.315   8.716 -0.8072 -0.8842  0.2058
 5963TIP3    H239449   0.177   4.342   8.641 -1.0090  0.2186  0.9259
 5964TIP3   OH239450   4.710   2.646   1.904  0.2873 -0.0014 -0.6985
 5964TIP3    H139451   4.699   2.569   1.960 -1.3041  0.5280 -0.2238
 5964TIP3    H239452   4.753   2.711   1.961 -1.8137  0.7209  0.1628
 5965TIP3   OH239453   1.258   3.921   6.863 -0.4910 -0.4790  0.2491
 5965TIP3    H139454   1.333   3.872   6.830  1.3065  2.8124 -1.0173
 5965TIP3    H239455   1.190   3.909   6.795  0.2445 -0.4527 -0.5092
 5966TIP3   OH239456   4.931   1.237   1.184  0.6542  0.4276 -0.1408
 5966TIP3    H139457   4.984   1.253   1.106 -0.0765  0.5557 -0.6115
 5966TIP3    H239458   4.978   1.167   1.229  1.8577  1.3225  0.0530
 5967TIP3   OH239459   3.215   3.334   6.431  0.1339  0.9275  0.0815
 5967TIP3    H139460   3.173   3.251   6.406 -0.1271  0.5096  1.7826
 5967TIP3    H239461   3.150   3.378   6.487  0.3943  2.1550 -0.5473
 5968TIP3   OH239462   5.128   5.410   0.928 -0.7231 -0.3230 -0.5606
 5968TIP3    H139463   5.194   5.427   0.996 -0.5076 -1.6587 -0.4084
 5968TIP3    H239464   5.050   5.454   0.961  0.2072  1.8388 -1.0515
 5969TIP3   OH239465   0.283   0.875   8.324  0.3951 -0.0510  0.2730
 5969TIP3    H139466   0.281   0.784   8.292 -0.4372 -0.7590  2.1557
 5969TIP3    H239467   0.374   0.890   8.349  1.0289  0.4537 -2.0385
 5970TIP3   OH239468   4.109   1.896   0.777  0.7681  0.4866 -0.7321
 5970TIP3    H139469   4.183   1.899   0.716  0.0573 -0.8497 -1.7182
 5970TIP3    H239470   4.034   1.872   0.722  0.1637 -1.1401  0.6953
 5971TIP3   OH239471   1.396   5.456   0.316  0.3778 -0.3077 -0.0883
 5971TIP3    H139472   1.345   5.504   0.250 -0.7602  0.2963  1.1992
 5971TIP3    H239473   1.415   5.520   0.384  1.9298 -0.8184 -0.0178
 5972TIP3   OH239474   2.328   0.165   0.150  0.3000 -0.5442  0.1705
 5972TIP3    H139475   2.299   0.203   0.067 -1.3686  1.0046  1.3931
 5972TIP3    H239476   2.304   0.073   0.144  1.1753 -0.7090 -1.4569
 5973TIP3   OH239477   5.982   3.268   0.604 -0.1716 -0.1264 -0.2968
 5973TIP3    H139478   5.966   3.349   0.653 -0.5313  0.6139 -1.5977
 5973TIP3    H239479   5.899   3.250   0.560  0.6719  0.2466 -2.0920
 5974TIP3   OH239480   0.175   0.492   8.133 -0.3905 -0.0213 -0.3610
 5974TIP3    H139481   0.186   0.425   8.066  0.9906 -2.1156  1.7851
 5974TIP3    H239482   0.116   0.452   8.197  0.1223  0.9662  0.7683
 5975TIP3   OH239483   4.553   5.404   8.342  0.1367 -0.0432  0.1253
 5975TIP3    H139484   4.496   5.342   8.388  1.6965 -0.2572  1.8931
 5975TIP3    H239485   4.493   5.458   8.291 -1.7474  0.1745  2.4087
 5976TIP3   OH239486   4.736   3.358   1.337  0.4495 -0.3063 -0.0051
 5976TIP3    H139487   4.710   3.345   1.428  2.1759 -0.9037  0.4387
 5976TIP3    H239488   4.779   3.277   1.311  3.7919  1.2557  0.0706
 5977TIP3   OH239489   5.437   5.520   0.073 -0.1150  0.4366  0.3571
 5977TIP3    H139490   5.451   5.426   0.075 -0.5096  0.3953  2.4392
 5977TIP3    H239491   5.405   5.543   0.160 -0.5591  2.4231 -0.2628
 5978TIP3   OH239492   2.863   2.163   0.149  0.3945  0.3595  0.0482
 5978TIP3    H139493   2.854   2.174   0.055  1.1811  1.7761  0.1032
 5978TIP3    H239494   2.841   2.250   0.185  0.6199 -0.0134  1.1233
 5979TIP3   OH239495   4.242   4.560   8.475  0.1668  0.2297 -0.2535
 5979TIP3    H139496   4.214   4.623   8.541  0.1051 -0.3754  0.3137
 5979TIP3    H239497   4.251   4.611   8.394  0.9741  1.1361  0.3841
 5980TIP3   OH239498   3.724   1.509   0.184 -0.0652 -0.5044  0.3421
 5980TIP3    H139499   3.806   1.550   0.213  0.2685 -0.2697 -0.8839
 5980TIP3    H239500   3.667   1.582   0.162 -0.3797 -0.6800  0.5609
 5981TIP3   OH239501   2.151   0.079   0.522 -0.5252  0.4769  0.0082
 5981TIP3    H139502   2.083   0.041   0.467  0.4693  0.4014 -1.2211
 5981TIP3    H239503   2.159   0.169   0.493  1.5335 -0.1368 -1.6177
 5982TIP3   OH239504   1.872   0.706   1.952  0.5704 -0.0574 -0.4501
 5982TIP3    H139505   1.854   0.762   2.028 -2.4824  0.2583 -1.2514
 5982TIP3    H239506   1.786   0.670   1.929  1.7086 -1.5089 -2.6994
 5983TIP3   OH239507   5.312   5.087   8.410 -0.3839 -0.3938  0.4996
 5983TIP3    H139508   5.312   4.996   8.379 -2.0461 -0.6319  1.0859
 5983TIP3    H239509   5.324   5.140   8.331  0.8934 -1.1107  0.1868
 5984TIP3   OH239510   2.312   3.887   5.805  0.9251  0.1674 -0.4158
 5984TIP3    H139511   2.217   3.885   5.805  0.8354  2.2816 -0.0374
 5984TIP3    H239512   2.337   3.840   5.885  0.1804  0.2992 -0.0997
 5985TIP3   OH239513   3.584   4.675   0.474 -0.0318  0.2959  0.6562
 5985TIP3    H139514   3.564   4.760   0.436  0.1114 -0.2574 -0.7200
 5985TIP3    H239515   3.631   4.628   0.405 -1.9581 -1.6587  0.5556
 5986TIP3   OH239516   1.619   6.168   7.298  0.0563  0.0123  0.2622
 5986TIP3    H139517   1.561   6.092   7.300 -0.5517  0.3912 -1.2740
 5986TIP3    H239518   1.560   6.243   7.290  0.6815  0.5955  0.9933
 5987TIP3   OH239519   1.107   4.617   7.698 -1.3003 -0.2689 -0.5536
 5987TIP3    H139520   1.121   4.559   7.772  1.4032  1.8315  0.7830
 5987TIP3    H239521   1.166   4.585   7.630  0.5312  0.9992  0.3417
 5988TIP3   OH239522   3.614   0.275   0.044  0.3821 -0.9811 -0.3080
 5988TIP3    H139523   3.708   0.291   0.035  0.0787  2.2254  1.0160
 5988TIP3    H239524   3.606   0.229   0.127  0.7317 -0.4142  0.0495
 5989TIP3   OH239525   4.550   1.756   8.321  0.8662 -0.6071  0.0948
 5989TIP3    H139526   4.563   1.684   8.261  2.4583 -0.1331 -0.1842
 5989TIP3    H239527   4.498   1.719   8.392  1.3346 -1.9341 -0.2197
 5990TIP3   OH239528   6.306   1.055   7.747 -0.4248 -0.1408 -0.9504
 5990TIP3    H139529   6.364   1.095   7.811 -0.1311 -2.0034  0.0291
 5990TIP3    H239530   6.346   0.969   7.730 -1.6782 -0.5525 -1.9829
 5991TIP3   OH239531   0.415   0.429   2.193  0.0998 -0.5296  0.0226
 5991TIP3    H139532   0.409   0.492   2.265 -1.5927  0.8209 -1.2145
 5991TIP3    H239533   0.393   0.345   2.233  0.5961 -0.0524  1.3437
 5992TIP3   OH239534   4.030   5.367   0.793  0.0191  0.1116  0.0673
 5992TIP3    H139535   4.005   5.459   0.793  0.7364  0.3783  2.3261
 5992TIP3    H239536   4.125   5.368   0.783  0.1844 -0.2774  1.4247
 5993TIP3   OH239537   4.566   2.305   1.869  0.3298 -0.3956 -0.1432
 5993TIP3    H139538   4.490   2.343   1.912  0.6649 -0.4010  0.4693
 5993TIP3    H239539   4.640   2.331   1.924  0.7420 -0.5980 -0.5934
 5994TIP3   OH239540   5.603   0.092   1.396  0.3660  0.3171  0.2601
 5994TIP3    H139541   5.644   0.172   1.429  0.2822  0.4262  0.0932
 5994TIP3    H239542   5.607   0.100   1.301 -0.8967  0.7604  0.2307
 5995TIP3   OH239543   4.602   1.917   7.352 -0.1006  0.0862  0.5428
 5995TIP3    H139544   4.576   1.911   7.444 -0.2892 -1.1766  0.4201
 5995TIP3    H239545   4.541   1.979   7.314 -0.9317 -0.4539  0.9693
 5996TIP3   OH239546   5.398   2.942   8.344 -0.0072 -0.1532  0.2027
 5996TIP3    H139547   5.433   2.972   8.259 -2.5296  1.9763 -0.1931
 5996TIP3    H239548   5.470   2.959   8.405  0.6928  1.5273 -0.9748
 5997TIP3   OH239549   4.162   1.016   7.732  0.7730 -0.0107  0.5281
 5997TIP3    H139550   4.241   0.964   7.726  1.4351  1.1524 -2.2501
 5997TIP3    H239551   4.107   0.985   7.660  0.6382  2.1352 -0.3674
 5998TIP3   OH239552   0.968   3.054   0.551 -0.2751 -0.2361  0.1078
 5998TIP3    H139553   0.903   3.069   0.620 -1.4366 -0.5114 -0.9028
 5998TIP3    H239554   1.044   3.018   0.597 -1.0402 -0.4576  1.2324
 5999TIP3   OH239555   2.836   0.105   7.385  0.5583  0.4260  0.0133
 5999TIP3    H139556   2.790   0.052   7.450  0.3720 -0.1402 -0.5633
 5999TIP3    H239557   2.890   0.042   7.337  1.5141  1.0004  0.3093
 6000TIP3   OH239558   4.852   4.225   7.506 -0.1012  0.1522 -0.0769
 6000TIP3    H139559   4.847   4.158   7.574  1.1347  0.1203 -0.0014
 6000TIP3    H239560   4.927   4.279   7.530  0.6157 -0.0899 -1.5922
 6001TIP3   OH239561   0.945   5.512   8.521 -0.2580 -0.3118 -0.1103
 6001TIP3    H139562   0.931   5.470   8.606 -1.8448  1.9422  0.8408
 6001TIP3    H239563   0.869   5.485   8.468 -1.1810  1.1113  0.4402
 6002TIP3   OH239564   4.260   1.626   7.314  0.1455  0.5920 -0.1622
 6002TIP3    H139565   4.276   1.697   7.376  1.7157 -0.1638  0.3618
 6002TIP3    H239566   4.166   1.628   7.298 -0.0115  1.9912  0.8030
 6003TIP3   OH239567   4.869   3.145   1.224  0.0429  0.0500  0.5590
 6003TIP3    H139568   4.952   3.125   1.266  0.5591  0.5862 -0.1709
 6003TIP3    H239569   4.835   3.060   1.196 -0.3495 -0.3160  2.0894
 6004TIP3   OH239570   0.558   2.009   8.078  0.1074  0.1848 -0.5039
 6004TIP3    H139571   0.559   1.929   8.130  2.1923  0.4513 -0.0681
 6004TIP3    H239572   0.466   2.038   8.081 -0.0320 -0.2507  2.3153
 6005TIP3   OH239573   2.655   6.112   2.444  0.3329  0.6154  0.2466
 6005TIP3    H139574   2.667   6.090   2.536  0.5067  0.4540  0.1863
 6005TIP3    H239575   2.623   6.202   2.445 -3.6374 -0.6461  0.6642
 6006TIP3   OH239576   4.872   2.061   7.557  0.8160  0.3018  0.0215
 6006TIP3    H139577   4.962   2.089   7.545  1.0606 -0.8203 -0.9368
 6006TIP3    H239578   4.852   2.009   7.479 -0.8539  1.0119 -0.0654
 6007TIP3   OH239579   1.475   3.893   8.037 -0.6942  0.1579  0.0598
 6007TIP3    H139580   1.424   3.817   8.009 -0.0294 -0.3785  0.2913
 6007TIP3    H239581   1.566   3.866   8.027 -0.4467  0.6384  0.9098
 6008TIP3   OH239582   2.422   4.380   1.926 -0.4475  0.6984  0.0173
 6008TIP3    H139583   2.453   4.404   2.013 -0.3307  1.1460 -0.1400
 6008TIP3    H239584   2.438   4.459   1.873 -1.8995  0.9706 -0.0640
 6009TIP3   OH239585   2.653   2.403   1.289 -0.4235  0.0929 -0.2991
 6009TIP3    H139586   2.607   2.320   1.290 -0.5920  0.1872 -0.1312
 6009TIP3    H239587   2.744   2.380   1.269 -0.4349 -0.1485 -0.0817
 6010TIP3   OH239588   2.967   0.106   0.472 -0.3482  0.1537  0.1908
 6010TIP3    H139589   2.920   0.189   0.480  0.2229  0.4799  0.2727
 6010TIP3    H239590   3.032   0.108   0.542 -1.7839 -1.3682  1.6425
 6011TIP3   OH239591   5.653   1.361   6.001 -0.2215 -0.0825 -0.6391
 6011TIP3    H139592   5.591   1.412   6.055  1.1412  1.7266 -0.6851
 6011TIP3    H239593   5.689   1.296   6.061 -0.1551  0.6443  0.1308
 6012TIP3   OH239594   6.378   2.318   8.303 -0.3446 -0.3826  0.0394
 6012TIP3    H139595   6.442   2.339   8.372 -0.2733 -0.5926  0.0400
 6012TIP3    H239596   6.311   2.385   8.311 -0.0478 -0.0722 -0.0593
 6013TIP3   OH239597   4.296   0.373   2.144  0.0807  0.3855 -0.0702
 6013TIP3    H139598   4.360   0.350   2.077  1.0547  1.5780  0.4189
 6013TIP3    H239599   4.322   0.322   2.221  0.5934  1.0251  0.1913
 6014TIP3   OH239600   4.619   5.731   0.567  0.6083  0.0684 -0.0055
 6014TIP3    H139601   4.566   5.793   0.518  0.0787 -0.8061 -0.5731
 6014TIP3    H239602   4.631   5.657   0.507  1.3108 -0.3317  0.6107
 6015TIP3   OH239603   6.028   1.235   0.564  0.2819 -0.3398 -0.6067
 6015TIP3    H139604   5.960   1.176   0.531 -0.9462  0.7430 -0.1053
 6015TIP3    H239605   5.995   1.323   0.544  0.7746  0.2564  1.0488
 6016TIP3   OH239606   0.839   3.271   6.483 -0.6150 -0.2056 -0.0319
 6016TIP3    H139607   0.906   3.202   6.483 -0.2557  0.0872 -1.7907
 6016TIP3    H239608   0.844   3.309   6.571  2.3241  0.5404 -0.3890
 6017TIP3   OH239609   4.040   4.914   7.478 -0.7114  0.2116 -0.0034
 6017TIP3    H139610   3.984   4.896   7.403 -1.5903 -0.2463  0.7338
 6017TIP3    H239611   4.122   4.944   7.441 -1.4229  0.8125 -1.1182
 6018TIP3   OH239612   3.082   6.714   7.945  0.5124 -0.8812  0.3736
 6018TIP3    H139613   2.992   6.683   7.937  0.4128 -0.4667 -0.2000
 6018TIP3    H239614   3.129   6.640   7.984 -0.4675 -0.3826  2.6946
 6019TIP3   OH239615   4.258   4.065   8.044 -0.4001 -0.4886 -0.3811
 6019TIP3    H139616   4.349   4.095   8.048 -0.2512 -0.7426 -1.6284
 6019TIP3    H239617   4.263   3.974   8.016 -1.0499 -0.4428 -0.6655
 6020TIP3   OH239618   2.900   1.150   1.702  0.2888 -0.8337  0.7058
 6020TIP3    H139619   2.836   1.093   1.659 -0.6556  0.6337  0.0683
 6020TIP3    H239620   2.867   1.239   1.686  2.8678  0.0397 -0.2702
 6021TIP3   OH239621   0.362   0.890   0.099 -0.0820 -0.5197  0.3139
 6021TIP3    H139622   0.324   0.910   0.185 -0.4896  0.9062 -0.1798
 6021TIP3    H239623   0.456   0.906   0.110 -0.1494 -0.2171  0.4530
 6022TIP3   OH239624   6.398   2.500   0.134  0.4808 -0.0042 -0.0126
 6022TIP3    H139625   6.307   2.486   0.158  1.1540 -0.5800  2.4657
 6022TIP3    H239626   6.419   2.587   0.168  1.5998 -1.0383  2.1113
 6023TIP3   OH239627   3.353   3.000   1.418 -0.0717  0.7214 -0.0451
 6023TIP3    H139628   3.335   3.091   1.440 -1.2083  0.3092  0.8782
 6023TIP3    H239629   3.285   2.951   1.464  3.2569 -1.0337  3.5455
 6024TIP3   OH239630   3.353   6.123   6.227 -0.5903  0.0633  0.0516
 6024TIP3    H139631   3.411   6.160   6.160  0.6188 -1.3558  0.2610
 6024TIP3    H239632   3.358   6.185   6.299  0.7300 -0.0218  0.0713
 6025TIP3   OH239633   3.753   5.405   0.298  0.0237 -0.0593 -0.2514
 6025TIP3    H139634   3.829   5.366   0.343 -1.1224  0.5762  2.3866
 6025TIP3    H239635   3.707   5.330   0.260  0.8316 -0.6713 -0.0544
 6026TIP3   OH239636   3.701   5.443   1.262  0.5166  0.3829 -0.0002
 6026TIP3    H139637   3.625   5.426   1.318  0.6498  1.6195  0.5805
 6026TIP3    H239638   3.748   5.360   1.259 -0.8704 -0.4184 -0.3945
 6027TIP3   OH239639   5.121   4.251   0.846  0.5897  0.1358  0.2126
 6027TIP3    H139640   5.059   4.240   0.774  0.4148 -0.3628  0.4400
 6027TIP3    H239641   5.155   4.340   0.834  1.3993 -0.3291 -1.1553
 6028TIP3   OH239642   6.789   6.719   0.294 -0.2157 -0.0184 -0.3859
 6028TIP3    H139643   6.798   6.642   0.238 -0.7874  0.2225 -0.8181
 6028TIP3    H239644   6.720   6.695   0.356 -1.7820  0.8053 -1.7116
 6029TIP3   OH239645   6.380   4.472   8.590  0.2023 -0.2289 -1.0138
 6029TIP3    H139646   6.436   4.399   8.614 -1.1135 -1.0885 -0.4456
 6029TIP3    H239647   6.322   4.437   8.522 -1.6132 -0.2799  0.4972
 6030TIP3   OH239648   5.952   4.787   0.077  0.0596 -0.5783 -0.3495
 6030TIP3    H139649   6.041   4.772   0.046 -0.4798 -1.4820 -1.5506
 6030TIP3    H239650   5.945   4.734   0.157  0.9711  0.4939  0.4601
 6031TIP3   OH239651   6.442   2.683   0.931  0.3187  0.3438 -0.0094
 6031TIP3    H139652   6.457   2.703   1.023 -0.6911  1.7691 -0.1183
 6031TIP3    H239653   6.518   2.721   0.886 -0.2520  1.5755  0.0457
 6032TIP3   OH239654   2.898   0.149   7.725  0.5651 -0.7976  0.2613
 6032TIP3    H139655   2.845   0.069   7.727 -0.1685 -0.3839 -1.0578
 6032TIP3    H239656   2.936   0.156   7.813 -1.4780 -1.1819  1.2306
 6033TIP3   OH239657   5.254   0.916   2.014  0.5806  0.5521 -0.3572
 6033TIP3    H139658   5.246   0.992   2.073 -3.7866  0.7550 -0.8931
 6033TIP3    H239659   5.208   0.846   2.059  1.6540 -0.8300 -1.3392
 6034TIP3   OH239660   1.705   4.935   1.616 -0.0821 -0.2942 -0.0611
 6034TIP3    H139661   1.671   4.984   1.541  0.6034 -0.2022 -0.3186
 6034TIP3    H239662   1.640   4.866   1.631 -1.5807  1.2193  0.9165
 6035TIP3   OH239663   5.427   5.241   6.665  0.4382 -0.5371 -0.3930
 6035TIP3    H139664   5.409   5.158   6.620 -0.9224  0.5965 -2.0900
 6035TIP3    H239665   5.380   5.307   6.613 -1.2269  0.9181  2.6810
 6036TIP3   OH239666   3.159   0.187   0.671  0.7936  0.6487  0.2399
 6036TIP3    H139667   3.204   0.190   0.586 -0.7216  1.9469 -0.5768
 6036TIP3    H239668   3.151   0.094   0.691  0.1276  0.2580 -1.6468
 6037TIP3   OH239669   2.434   3.471   0.290 -0.8885  0.4411  0.5791
 6037TIP3    H139670   2.492   3.511   0.354 -0.6321  3.3350 -1.3005
 6037TIP3    H239671   2.488   3.458   0.212 -1.6861 -1.0787  0.2339
 6038TIP3   OH239672   0.309   0.172   1.090  0.3477  0.0160  0.8506
 6038TIP3    H139673   0.289   0.080   1.071 -1.3642  0.8815 -2.1441
 6038TIP3    H239674   0.377   0.168   1.157  0.7825 -3.4291  0.3976
 6039TIP3   OH239675   1.846   1.637   1.592  0.1479  0.0409 -0.5139
 6039TIP3    H139676   1.797   1.555   1.587 -0.0338  0.0487  0.7159
 6039TIP3    H239677   1.799   1.689   1.658  1.8296  0.0012  0.7984
 6040TIP3   OH239678   3.217   2.124   1.350  0.0965  0.6410 -0.0030
 6040TIP3    H139679   3.262   2.135   1.266  3.5053 -1.6063  1.2752
 6040TIP3    H239680   3.230   2.207   1.396  0.3152  1.0584 -0.8042
 6041TIP3   OH239681   0.899   2.894   1.875  0.2221  0.2903 -0.7250
 6041TIP3    H139682   0.889   2.900   1.970 -1.5781  0.0009 -0.8644
 6041TIP3    H239683   0.920   2.983   1.847 -3.0025  1.2823 -0.3918
 6042TIP3   OH239684   1.948   5.157   7.505  0.1893 -0.3912  0.4163
 6042TIP3    H139685   1.949   5.189   7.415  1.0139 -0.6341  0.3225
 6042TIP3    H239686   1.856   5.157   7.530  0.0726  1.0799  0.0813
 6043TIP3   OH239687   2.010   6.282   8.085 -0.2449  0.0959 -0.1896
 6043TIP3    H139688   2.048   6.319   8.165 -1.6036  0.3816  0.3459
 6043TIP3    H239689   1.940   6.225   8.116  0.9012 -1.8985 -1.0698
 6044TIP3   OH239690   4.622   5.115   7.137 -0.2950  0.0274 -0.0059
 6044TIP3    H139691   4.587   5.090   7.051 -2.1871 -1.5617  1.1348
 6044TIP3    H239692   4.688   5.048   7.156  0.5651  0.7332 -0.4600
 6045TIP3   OH239693   2.119   4.237   7.513 -0.5591  0.3584  0.2970
 6045TIP3    H139694   2.214   4.243   7.509 -0.4797 -0.9201 -0.4785
 6045TIP3    H239695   2.100   4.208   7.602 -0.1965  0.2880  0.3533
 6046TIP3   OH239696   6.604   1.556   7.923 -0.1111 -0.2017 -0.2882
 6046TIP3    H139697   6.514   1.532   7.940 -0.0417  0.2716  0.8149
 6046TIP3    H239698   6.651   1.473   7.916 -0.0982 -0.4960  2.2229
 6047TIP3   OH239699   3.673   4.235   8.070  0.4745 -0.1364 -0.2469
 6047TIP3    H139700   3.624   4.177   8.128  0.2251 -0.7715 -1.0618
 6047TIP3    H239701   3.738   4.177   8.028 -0.2899 -0.0260 -1.6539
 6048TIP3   OH239702   2.673   3.272   7.200 -0.1292  0.2879  0.4050
 6048TIP3    H139703   2.676   3.363   7.230 -1.1436  0.6319 -0.5169
 6048TIP3    H239704   2.621   3.273   7.120 -0.2676 -1.1244  0.4363
 6049TIP3   OH239705   4.430   5.597   6.338  0.9732  0.1726  0.2583
 6049TIP3    H139706   4.434   5.671   6.398 -0.9281  1.0563 -0.6159
 6049TIP3    H239707   4.339   5.568   6.342  0.2840  1.3536 -3.3575
 6050TIP3   OH239708   3.667   6.798   6.984  0.0238 -0.0871  0.0720
 6050TIP3    H139709   3.608   6.832   7.053 -0.0252 -0.5548  0.2639
 6050TIP3    H239710   3.615   6.731   6.940  0.2742 -0.2188 -0.0201
 6051TIP3   OH239711   5.182   1.921   1.051  0.3176 -0.0846 -0.2207
 6051TIP3    H139712   5.098   1.901   1.093 -0.1464 -0.7444 -1.4343
 6051TIP3    H239713   5.201   2.011   1.078 -0.1421 -0.3641  1.0966
 6052TIP3   OH239714   0.814   4.998   3.021 -0.0977 -0.0446 -0.5198
 6052TIP3    H139715   0.860   5.070   3.064 -4.0314  1.4864  1.6715
 6052TIP3    H239716   0.761   5.041   2.954 -1.5390 -0.9996 -0.0359
 6053TIP3   OH239717   1.714   4.654   8.441 -0.7241  0.1351 -0.0147
 6053TIP3    H139718   1.774   4.729   8.445 -0.8052  0.2128 -0.2695
 6053TIP3    H239719   1.713   4.628   8.350  1.1331 -1.6907  0.4317
 6054TIP3   OH239720   4.671   4.749   1.080  0.2065  0.5231  0.3021
 6054TIP3    H139721   4.660   4.835   1.041 -0.8078 -0.4742 -1.8104
 6054TIP3    H239722   4.668   4.764   1.175 -0.7966  2.6825 -0.0208
 6055TIP3   OH239723   0.650   0.680   8.349 -0.0804  0.0405 -0.6679
 6055TIP3    H139724   0.568   0.653   8.308 -0.4359 -1.1976  0.7628
 6055TIP3    H239725   0.623   0.730   8.426  0.4493 -0.8260  0.1148
 6056TIP3   OH239726   1.044   0.576   0.670  0.1963  0.1202  0.0871
 6056TIP3    H139727   1.139   0.581   0.660  0.2257 -0.9489 -0.3643
 6056TIP3    H239728   1.022   0.486   0.643 -1.3142  1.2675 -2.9016
 6057TIP3   OH239729   1.175   2.254   7.983  0.4716  0.2586 -0.2305
 6057TIP3    H139730   1.092   2.294   7.959  0.2231 -0.4853 -0.6469
 6057TIP3    H239731   1.201   2.300   8.063 -1.2215 -0.6634  0.9184
 6058TIP3   OH239732   0.952   2.570   2.059  0.3195 -0.1230 -0.2566
 6058TIP3    H139733   1.002   2.528   1.989 -0.2908 -2.2915  0.5164
 6058TIP3    H239734   0.862   2.572   2.027  0.2903  0.3811 -0.1592
 6059TIP3   OH239735   1.938   6.798   0.282  0.6516  0.2530 -0.2383
 6059TIP3    H139736   1.992   6.752   0.218  0.9789 -1.3271  1.1077
 6059TIP3    H239737   1.858   6.745   0.289  0.9973 -0.1099  1.2772
 6060TIP3   OH239738   5.103   5.672   1.255  0.3140 -0.6697  0.3379
 6060TIP3    H139739   5.190   5.668   1.296  0.6349 -1.8455 -0.4232
 6060TIP3    H239740   5.063   5.750   1.293  2.1286  0.5576 -0.1216
 6061TIP3   OH239741   5.397   5.598   2.596  0.1919  0.7686  0.0526
 6061TIP3    H139742   5.317   5.641   2.626  0.0807  1.1744 -0.8001
 6061TIP3    H239743   5.417   5.639   2.512  1.9114  1.4871  0.7481
 6062TIP3   OH239744   1.779   2.464   0.142  0.0759 -0.2129 -0.6544
 6062TIP3    H139745   1.686   2.484   0.134  0.6598  2.8460 -1.2013
 6062TIP3    H239746   1.802   2.418   0.062 -0.5707  1.0510 -1.6045
 6063TIP3   OH239747   6.798   2.081   7.822  0.2180  0.1409  0.1344
 6063TIP3    H139748   6.764   2.022   7.755 -1.1334  0.6886  0.3156
 6063TIP3    H239749   6.819   2.162   7.776 -0.7907  0.5463  0.3731
 6064TIP3   OH239750   4.871   6.490   0.287 -0.2755 -0.1753 -0.1041
 6064TIP3    H139751   4.937   6.431   0.325  0.3469  0.0024 -0.8811
 6064TIP3    H239752   4.812   6.509   0.359 -0.1591 -1.2990  0.3063
 6065TIP3   OH239753   5.172   2.157   1.852  0.1048  0.0081 -0.3176
 6065TIP3    H139754   5.219   2.200   1.924  0.9832 -0.5554 -0.5418
 6065TIP3    H239755   5.156   2.227   1.789 -0.0389  0.3639  0.1066
 6066TIP3   OH239756   2.410   4.555   6.474  0.0125  0.0906 -0.4045
 6066TIP3    H139757   2.489   4.587   6.431  0.8544 -0.1287  0.9218
 6066TIP3    H239758   2.365   4.635   6.504 -0.3055  0.2152 -1.1756
 6067TIP3   OH239759   1.358   6.708   7.640 -0.1400  0.0354  0.2337
 6067TIP3    H139760   1.423   6.771   7.607  0.9858 -0.7664  0.8716
 6067TIP3    H239761   1.284   6.718   7.581  0.2005  1.6238  0.0326
 6068TIP3   OH239762   1.222   6.832   1.777 -0.0393 -0.5060 -0.2714
 6068TIP3    H139763   1.152   6.838   1.712  0.3763  3.1055 -0.5478
 6068TIP3    H239764   1.303   6.840   1.726  0.2886  2.6458  0.5622
 6069TIP3   OH239765   5.327   0.044   0.423 -0.6809 -0.4835 -0.1527
 6069TIP3    H139766   5.264   0.102   0.466 -0.1567 -1.8474  2.6511
 6069TIP3    H239767   5.394   0.104   0.388 -1.4080  0.7225  0.4534
 6070TIP3   OH239768   6.795   4.717   8.609  0.1771  0.0191 -0.1518
 6070TIP3    H139769   6.739   4.665   8.666 -0.2666 -0.6405 -1.1647
 6070TIP3    H239770   6.750   4.802   8.604  0.9248  0.5588  1.5315
 6071TIP3   OH239771   2.979   2.922   0.069 -0.1079  0.2455 -0.6469
 6071TIP3    H139772   2.998   2.879  -0.015 -2.0675 -2.8169  0.3202
 6071TIP3    H239773   2.886   2.945   0.063 -0.7681 -1.6594  1.2543
 6072TIP3   OH239774   0.989   1.751   1.740  0.2944 -0.2126 -0.3204
 6072TIP3    H139775   0.985   1.812   1.666  1.1182 -0.6657 -0.7610
 6072TIP3    H239776   0.947   1.797   1.812 -0.8651  0.1001 -1.1614
 6073TIP3   OH239777   2.683   3.746   6.668  0.0934 -0.2344 -0.7138
 6073TIP3    H139778   2.659   3.707   6.584 -2.1905  1.1319 -0.7816
 6073TIP3    H239779   2.601   3.745   6.719  1.0999  0.1976  0.9929
 6074TIP3   OH239780   0.249   5.756   8.080 -0.1330  0.3636  0.2876
 6074TIP3    H139781   0.225   5.798   8.162  0.0512 -1.4295  1.3061
 6074TIP3    H239782   0.338   5.724   8.094 -1.0308 -2.3271  0.4572
 6075TIP3   OH239783   0.581   5.425   6.579  0.4313 -0.1476  0.0091
 6075TIP3    H139784   0.554   5.513   6.556 -0.8998  0.1038  2.2876
 6075TIP3    H239785   0.672   5.434   6.607  1.3037 -0.0842 -2.5456
 6076TIP3   OH239786   6.279   6.860   7.460 -0.4682 -0.2322 -0.6494
 6076TIP3    H139787   6.203   6.914   7.480 -0.3535 -1.0133  2.3279
 6076TIP3    H239788   6.330   6.913   7.399  0.0883  3.5769  2.6934
 6077TIP3   OH239789   1.264   1.643   7.135 -0.0368  0.1429  0.0418
 6077TIP3    H139790   1.301   1.681   7.055  0.1131  0.8869  0.4496
 6077TIP3    H239791   1.301   1.697   7.206  0.5348 -1.0537  0.6771
 6078TIP3   OH239792   3.016   3.003   0.333  0.2865  0.3565  0.1188
 6078TIP3    H139793   2.976   2.959   0.408 -1.0162  1.7169  0.2738
 6078TIP3    H239794   2.981   2.957   0.257  1.1469 -0.6476  0.3086
 6079TIP3   OH239795   4.351   1.819   8.148  0.7947  0.6121  0.8539
 6079TIP3    H139796   4.376   1.739   8.102  1.2709 -0.2617  2.5443
 6079TIP3    H239797   4.423   1.836   8.208 -1.3111 -0.4724  3.9790
 6080TIP3   OH239798   6.370   2.218   0.845  0.7772 -0.5518  0.3621
 6080TIP3    H139799   6.296   2.278   0.858  0.6015 -0.2563 -1.6071
 6080TIP3    H239800   6.378   2.172   0.928  0.1324  1.3301  1.5532
 6081TIP3   OH239801   4.204   4.837   7.139  0.2807 -0.1060 -0.0062
 6081TIP3    H139802   4.247   4.916   7.107 -1.4018  1.3470  1.0802
 6081TIP3    H239803   4.154   4.804   7.064  1.6722 -0.6775 -0.7093
 6082TIP3   OH239804   3.850   1.750   1.067 -0.4639 -0.2593  0.3158
 6082TIP3    H139805   3.942   1.745   1.040 -0.8171  2.2777 -1.6554
 6082TIP3    H239806   3.838   1.839   1.099 -2.6587  0.1049 -1.2837
 6083TIP3   OH239807   5.011   1.384   1.637  0.3641  0.5493  0.4218
 6083TIP3    H139808   5.070   1.369   1.710  1.7658  1.8568 -0.3687
 6083TIP3    H239809   4.965   1.465   1.659  0.2826  0.5716  0.1781
 6084TIP3   OH239810   2.376   3.215   0.391  0.0479 -0.0638  0.4435
 6084TIP3    H139811   2.316   3.234   0.462 -0.5190 -0.6954  0.1499
 6084TIP3    H239812   2.418   3.298   0.371 -0.8176  0.4094  0.5753
 6085TIP3   OH239813   1.139   3.699   0.842  0.7743  0.0846 -1.1141
 6085TIP3    H139814   1.059   3.667   0.801  0.7113  0.6883 -1.4813
 6085TIP3    H239815   1.152   3.642   0.918  0.1957 -0.2428 -1.2552
 6086TIP3   OH239816   0.456   2.993   7.383 -0.0708 -0.5126 -0.0592
 6086TIP3    H139817   0.394   2.949   7.325 -2.2223  1.0260  0.9199
 6086TIP3    H239818   0.420   3.082   7.394  1.9699  0.2454  1.0980
 6087TIP3   OH239819   0.899   3.629   0.696  0.2586  0.1598 -0.2131
 6087TIP3    H139820   0.834   3.564   0.668  0.0213  0.1932  0.2555
 6087TIP3    H239821   0.858   3.713   0.678  0.7542  0.1998 -1.2640
 6088TIP3   OH239822   6.086   0.243   8.419  0.3426 -0.0546  0.0544
 6088TIP3    H139823   6.174   0.224   8.451  0.2286 -1.7750 -0.5839
 6088TIP3    H239824   6.074   0.186   8.344 -1.3025  0.2009  0.0763
 6089TIP3   OH239825   6.218   4.129   1.919  0.3329  0.3579 -0.1857
 6089TIP3    H139826   6.212   4.058   1.983  2.8649 -0.1595 -0.4023
 6089TIP3    H239827   6.158   4.104   1.849 -0.4801 -0.4064  0.7486
 6090TIP3   OH239828   5.207   2.707   8.404  0.1624 -0.5245 -0.5039
 6090TIP3    H139829   5.180   2.695   8.313  0.0234 -0.5206 -0.4631
 6090TIP3    H239830   5.297   2.737   8.398  0.0921 -0.3419 -0.6461
 6091TIP3   OH239831   4.798   4.279   6.352  0.0592  0.0879  0.0225
 6091TIP3    H139832   4.725   4.338   6.369 -0.0475 -0.3002  0.9380
 6091TIP3    H239833   4.770   4.194   6.386  0.5372 -0.3014 -0.5329
 6092TIP3   OH239834   4.306   3.496   8.630  0.6566 -0.0878 -0.2261
 6092TIP3    H139835   4.264   3.411   8.647 -0.4952  0.4041 -0.5332
 6092TIP3    H239836   4.242   3.544   8.578  0.4642  1.6751  1.5478
 6093TIP3   OH239837   6.084   6.566   7.546  0.6044 -0.3479  0.1844
 6093TIP3    H139838   6.097   6.506   7.620  1.9089 -0.8951 -0.4652
 6093TIP3    H239839   6.133   6.527   7.474  1.5916  1.5548 -0.2334
 6094TIP3   OH239840   0.027   0.248   6.242 -0.5246 -0.3989 -0.3435
 6094TIP3    H139841  -0.025   0.317   6.283  0.4217 -0.0094  0.2369
 6094TIP3    H239842   0.068   0.203   6.315  2.3755  1.2365 -0.8154
 6095TIP3   OH239843   4.722   5.304   1.492  0.5690 -0.0783  0.1176
 6095TIP3    H139844   4.641   5.263   1.520 -0.0204  0.9101 -0.1055
 6095TIP3    H239845   4.785   5.232   1.485  0.2911 -0.5834  2.3161
 6096TIP3   OH239846   5.030   0.709   0.151 -0.2508 -0.4937 -0.1618
 6096TIP3    H139847   5.027   0.720   0.056 -0.8728 -0.9209 -0.2019
 6096TIP3    H239848   4.971   0.777   0.184  0.2008 -0.1501 -0.0612
 6097TIP3   OH239849   5.592   1.999   7.706 -0.1737  0.0750 -0.4808
 6097TIP3    H139850   5.647   2.058   7.757 -2.1577  1.3927  0.2615
 6097TIP3    H239851   5.565   1.931   7.769 -0.2263  0.0196 -0.5621
 6098TIP3   OH239852   2.886   0.451   8.024 -0.4844 -0.2175 -0.1000
 6098TIP3    H139853   2.945   0.499   7.966 -1.5635 -2.1996 -3.0669
 6098TIP3    H239854   2.917   0.360   8.019 -2.2637 -0.8794  0.2639
 6099TIP3   OH239855   1.983   0.144   7.690 -0.7281 -0.4909  0.9385
 6099TIP3    H139856   2.005   0.052   7.700 -0.1760 -0.5902 -0.8054
 6099TIP3    H239857   2.061   0.191   7.720 -0.7820 -0.6147  1.2701
 6100TIP3   OH239858   1.212   4.510   0.159 -0.2277  0.2026 -0.0871
 6100TIP3    H139859   1.183   4.599   0.141 -1.1740 -0.0996 -0.1468
 6100TIP3    H239860   1.297   4.503   0.117 -1.5068  0.1207 -2.8740
 6101TIP3   OH239861   5.731   2.566   1.798  0.1329  0.2372  0.2152
 6101TIP3    H139862   5.668   2.587   1.867  0.8014 -0.4324  1.0659
 6101TIP3    H239863   5.812   2.548   1.846  0.0386 -2.6034 -0.5399
 6102TIP3   OH239864   6.686   0.408   7.954 -0.2524 -0.2966 -0.2701
 6102TIP3    H139865   6.622   0.452   7.898 -0.6783 -0.7994 -0.1951
 6102TIP3    H239866   6.741   0.359   7.893  0.5280  0.6961 -0.3934
 6103TIP3   OH239867   5.890   3.894   6.779 -0.3117  0.4032 -0.0067
 6103TIP3    H139868   5.911   3.979   6.739 -1.3674  0.6386 -0.0959
 6103TIP3    H239869   5.794   3.891   6.779 -0.4485  0.7602  3.1804
 6104TIP3   OH239870   1.595   0.838   8.645 -0.1228 -0.1875 -0.0148
 6104TIP3    H139871   1.581   0.757   8.597  1.4625 -0.3472 -0.2844
 6104TIP3    H239872   1.599   0.905   8.577 -1.4062  0.1262  0.2051
 6105TIP3   OH239873   6.094   4.228   0.711 -0.3104 -0.1506 -0.1250
 6105TIP3    H139874   6.024   4.165   0.695 -0.2679 -0.3122  0.3053
 6105TIP3    H239875   6.061   4.284   0.782  0.1087 -0.4193  0.2944
 6106TIP3   OH239876   6.638   1.435   7.169 -0.1759 -0.2356  0.0507
 6106TIP3    H139877   6.604   1.345   7.177 -0.3962 -0.1135  0.5701
 6106TIP3    H239878   6.561   1.490   7.182 -0.3346  0.0312 -1.8123
 6107TIP3   OH239879   3.110   6.439   1.460 -0.1987  0.9846  0.8813
 6107TIP3    H139880   3.040   6.375   1.451  1.1634 -0.3543 -0.9950
 6107TIP3    H239881   3.187   6.387   1.485  0.6930  2.0402  0.4214
 6108TIP3   OH239882   1.599   4.313   7.148  0.3268  0.0001  0.2029
 6108TIP3    H139883   1.649   4.395   7.147 -0.3798  0.4437 -0.0643
 6108TIP3    H239884   1.510   4.340   7.169  0.2111 -0.7863  0.7457
 6109TIP3   OH239885   6.750   5.268   2.715  0.1715 -0.0864  0.6092
 6109TIP3    H139886   6.701   5.340   2.675  0.9213 -0.9309 -2.0601
 6109TIP3    H239887   6.839   5.301   2.725  0.7065 -0.7823 -1.3384
 6110TIP3   OH239888   5.953   6.665   0.428 -0.6047  0.3054 -0.0332
 6110TIP3    H139889   5.994   6.621   0.502 -1.8157 -1.0257 -0.1227
 6110TIP3    H239890   6.010   6.644   0.353 -0.4826 -0.0542  0.1578
 6111TIP3   OH239891   2.452   2.265   7.519 -0.0575  0.1162  0.1800
 6111TIP3    H139892   2.430   2.227   7.434  0.3225  0.0957  0.0923
 6111TIP3    H239893   2.430   2.196   7.582  1.0326 -0.4201 -0.0091
 6112TIP3   OH239894   3.804   5.212   0.817  0.4656 -0.0572 -0.4270
 6112TIP3    H139895   3.833   5.160   0.892  1.3135  1.1074  0.0769
 6112TIP3    H239896   3.867   5.284   0.811 -1.8179  2.1540  0.2093
 6113TIP3   OH239897   1.729   6.820   7.561  0.3802 -0.7314 -0.3188
 6113TIP3    H139898   1.754   6.866   7.481  0.6330  0.1399  0.2529
 6113TIP3    H239899   1.636   6.841   7.573  0.4316 -0.5742 -0.1948
 6114TIP3   OH239900   2.675   1.864   0.657 -0.3762  0.1587 -0.7347
 6114TIP3    H139901   2.605   1.923   0.685 -0.1180  0.0619  0.1205
 6114TIP3    H239902   2.749   1.887   0.713 -1.2440 -3.3647  2.2241
 6115TIP3   OH239903   2.028   1.543   1.366  0.3310 -1.0463  0.7132
 6115TIP3    H139904   2.110   1.571   1.325 -0.3852 -0.4140 -0.3291
 6115TIP3    H239905   2.028   1.588   1.451 -0.2167  1.2530 -0.4103
 6116TIP3   OH239906   2.419   1.692   2.312 -0.0447  0.1152  0.3789
 6116TIP3    H139907   2.348   1.699   2.249 -1.0293 -0.3744  1.3963
 6116TIP3    H239908   2.386   1.632   2.379  0.8454  0.8219  1.4890
 6117TIP3   OH239909   1.774   2.605   2.035  0.0484 -0.8337  0.1873
 6117TIP3    H139910   1.836   2.673   2.012 -1.5394 -0.3232 -3.1736
 6117TIP3    H239911   1.696   2.652   2.066  0.4617 -1.3925  2.2723
 6118TIP3   OH239912   1.104   0.403   1.296 -0.5478 -0.5285 -0.4680
 6118TIP3    H139913   1.121   0.496   1.281  0.6612 -0.8569 -1.2703
 6118TIP3    H239914   1.182   0.371   1.341  0.5094 -1.8136 -3.0561
 6119TIP3   OH239915   3.914   6.361   1.322 -0.4777  0.1814  0.1005
 6119TIP3    H139916   3.976   6.292   1.344 -0.3212  0.3706  0.2556
 6119TIP3    H239917   3.968   6.433   1.290 -0.4570  0.9668  1.7717
 6120TIP3   OH239918   5.061   4.969   8.201  0.0600  0.2206  0.4101
 6120TIP3    H139919   4.982   4.963   8.149  0.4208  0.8958 -0.2311
 6120TIP3    H239920   5.082   5.062   8.204  2.4860 -0.1040 -2.0315
 6121TIP3   OH239921   6.078   5.622   0.706 -0.1029 -0.4420  0.1682
 6121TIP3    H139922   6.088   5.605   0.612 -0.3397 -2.6371  0.4825
 6121TIP3    H239923   5.989   5.593   0.726 -0.2782  0.6085  0.9729
 6122TIP3   OH239924   4.381   1.616   0.789 -0.0884  0.2582  0.3510
 6122TIP3    H139925   4.394   1.528   0.824 -1.7768 -0.0989  0.1578
 6122TIP3    H239926   4.403   1.674   0.862 -2.1578 -0.4339  1.6120
 6123TIP3   OH239927   3.532   4.895   0.259 -0.4604  0.1795  0.1576
 6123TIP3    H139928   3.569   4.925   0.176  0.2616  1.6255  0.9569
 6123TIP3    H239929   3.450   4.852   0.234  1.0456 -1.9631 -1.5365
 6124TIP3   OH239930   2.358   6.760   0.726  0.2711 -0.0596 -1.3323
 6124TIP3    H139931   2.271   6.796   0.712  1.0137  2.3437 -0.2107
 6124TIP3    H239932   2.418   6.824   0.688  1.6481 -0.1236  0.5716
 6125TIP3   OH239933   6.334   4.383   8.034 -0.1268  0.1161  0.2594
 6125TIP3    H139934   6.274   4.453   8.009 -1.5422 -1.0218  0.3060
 6125TIP3    H239935   6.395   4.376   7.961 -1.1729  0.1174 -0.6397
 6126TIP3   OH239936   1.177   6.090   1.540  0.2017 -0.0777 -0.1612
 6126TIP3    H139937   1.223   6.058   1.617  1.2575  0.4841 -0.5373
 6126TIP3    H239938   1.161   6.183   1.558 -0.5934 -0.2065 -0.1390
 6127TIP3   OH239939   2.550   4.406   2.174 -0.2682 -0.3256  0.4529
 6127TIP3    H139940   2.562   4.461   2.251 -2.5562 -0.8122  1.2243
 6127TIP3    H239941   2.621   4.342   2.179  1.4441  1.4781  0.4368
 6128TIP3   OH239942   2.113   0.653   0.538  0.0039  0.5688  0.4379
 6128TIP3    H139943   2.126   0.691   0.451  0.9199  1.6389  1.0092
 6128TIP3    H239944   2.065   0.572   0.522  2.4273 -0.6298 -1.3259
 6129TIP3   OH239945   0.738   3.425   0.607 -0.6961  0.4323 -0.3526
 6129TIP3    H139946   0.690   3.468   0.536 -0.5859 -0.8337 -1.2363
 6129TIP3    H239947   0.683   3.350   0.631 -0.2088  0.2293  0.1523
 6130TIP3   OH239948   6.271   5.608   8.010  0.1638  0.0510 -0.3223
 6130TIP3    H139949   6.261   5.697   8.044 -0.5376 -0.3337  0.4998
 6130TIP3    H239950   6.352   5.576   8.050  0.7446  0.5250 -1.0973
 6131TIP3   OH239951   1.944   3.256   6.652 -0.0719  0.0403 -0.2194
 6131TIP3    H139952   1.893   3.281   6.730  0.1086  1.7648 -0.6191
 6131TIP3    H239953   1.970   3.166   6.669 -1.4708 -0.1879  0.9546
 6132TIP3   OH239954   5.093   5.267   0.696  0.2012  0.2791 -0.1885
 6132TIP3    H139955   5.000   5.272   0.674 -0.3406 -1.8495  1.3356
 6132TIP3    H239956   5.101   5.315   0.779 -0.4984 -3.0720  2.0095
 6133TIP3   OH239957   3.726   1.281   0.338 -0.3869  0.2368 -0.2701
 6133TIP3    H139958   3.669   1.309   0.409 -0.3845  1.5203 -0.7587
 6133TIP3    H239959   3.730   1.356   0.279 -0.0877 -0.6733 -1.4407
 6134TIP3   OH239960   5.174   5.429   7.819 -0.3520  0.2731  0.0118
 6134TIP3    H139961   5.193   5.346   7.776  0.5255 -0.0813  1.0466
 6134TIP3    H239962   5.241   5.489   7.785  1.0136 -0.2746  1.6009
 6135TIP3   OH239963   6.761   5.069   8.250 -0.1292 -0.1260  0.1309
 6135TIP3    H139964   6.759   5.141   8.314  0.6299 -0.9538  1.1245
 6135TIP3    H239965   6.839   5.086   8.197 -1.0721  0.8718 -0.9731
 6136TIP3   OH239966   4.988   5.247   6.129 -0.0702  0.0369  0.0188
 6136TIP3    H139967   4.906   5.206   6.101 -0.0573  0.0014  0.0328
 6136TIP3    H239968   4.971   5.341   6.124 -0.5222  0.0393  1.2006
 6137TIP3   OH239969   0.584   4.973   2.253 -0.0612  0.2043  0.3916
 6137TIP3    H139970   0.663   4.944   2.207 -1.0364 -0.7512 -0.7429
 6137TIP3    H239971   0.608   5.058   2.289  1.5632 -0.1752  0.2922
 6138TIP3   OH239972   3.599   6.169   0.694 -0.0227  0.2425  0.2564
 6138TIP3    H139973   3.645   6.203   0.618  2.0388 -3.2762 -0.3200
 6138TIP3    H239974   3.645   6.208   0.769 -0.1548  1.4787 -0.2880
 6139TIP3   OH239975   5.322   1.214   1.760  0.5446  0.9691  0.4850
 6139TIP3    H139976   5.256   1.145   1.762  2.0333 -0.4965  0.6961
 6139TIP3    H239977   5.283   1.285   1.812 -0.5758 -0.1155  1.1970
 6140TIP3   OH239978   1.910   5.633   0.751 -0.2585 -0.0862  0.6023
 6140TIP3    H139979   1.861   5.619   0.670  2.3752  0.2471 -1.1966
 6140TIP3    H239980   1.952   5.549   0.769  3.1203  0.9393 -1.3763
 6141TIP3   OH239981   3.886   2.443   1.575 -0.4590 -0.2087 -0.2218
 6141TIP3    H139982   3.929   2.481   1.498 -1.0215 -0.2200 -0.5462
 6141TIP3    H239983   3.804   2.492   1.583  0.5855  1.3594  1.7183
 6142TIP3   OH239984   6.194   2.006   0.512  0.0012 -0.3068 -0.1507
 6142TIP3    H139985   6.159   1.990   0.425  0.3164  0.2542 -0.3904
 6142TIP3    H239986   6.287   2.024   0.498 -0.2041  1.1463  0.1244
 6143TIP3   OH239987   4.280   1.147   1.171  0.9226 -0.4018 -0.5955
 6143TIP3    H139988   4.347   1.214   1.187  0.2363  0.5633 -1.5633
 6143TIP3    H239989   4.324   1.081   1.118  1.3947 -0.3170 -0.3130
 6144TIP3   OH239990   3.897   1.252   7.794  0.0472  0.1239  0.4344
 6144TIP3    H139991   3.870   1.307   7.867  2.2269 -0.3429  1.6631
 6144TIP3    H239992   3.912   1.166   7.833  0.8591 -0.2375 -0.6391
 6145TIP3   OH239993   3.576   2.848   2.329 -0.4480  0.6968 -0.5204
 6145TIP3    H139994   3.605   2.770   2.375 -0.0641  1.7707  1.1375
 6145TIP3    H239995   3.540   2.815   2.246 -0.6326 -1.2366  0.2781
 6146TIP3   OH239996   1.736   0.199   7.790  0.8933  0.1478 -0.0082
 6146TIP3    H139997   1.698   0.148   7.862  0.5957 -0.2237 -0.4189
 6146TIP3    H239998   1.817   0.153   7.768  1.5176  0.8592  0.7743
 6147TIP3   OH239999   5.982   4.370   0.929  0.0384 -0.1320  0.6178
 6147TIP3    H140000   5.994   4.464   0.916  1.1759 -0.1866  1.1931
 6147TIP3    H240001   5.971   4.360   1.024  2.1143 -0.7729  0.8382
 6148TIP3   OH240002   0.250   2.614   7.599 -0.7678  0.4544 -0.1496
 6148TIP3    H140003   0.252   2.534   7.652 -0.1334  0.5674  0.0038
 6148TIP3    H240004   0.212   2.680   7.657  0.4543  0.7184  0.3831
 6149TIP3   OH240005   5.292   6.605   7.677  0.0713  0.1883  0.2862
 6149TIP3    H140006   5.239   6.528   7.697 -1.2749  0.4317 -1.9898
 6149TIP3    H240007   5.330   6.586   7.591 -0.0829  1.9307 -0.2023
 6150TIP3   OH240008   6.070   4.941   8.457  0.5533  0.0991  0.0932
 6150TIP3    H140009   6.034   5.027   8.478  0.8349  0.1823  0.2455
 6150TIP3    H240010   5.994   4.883   8.450  0.3640  0.3627 -0.0212
 6151TIP3   OH240011   0.717   0.846   0.933 -0.6937 -0.0176 -0.0165
 6151TIP3    H140012   0.760   0.825   0.850 -1.5522 -0.3147 -0.3929
 6151TIP3    H240013   0.786   0.887   0.986  0.1000 -0.6766 -0.5260
 6152TIP3   OH240014   5.787   6.859   0.296  0.1505 -0.2435  0.4798
 6152TIP3    H140015   5.858   6.797   0.317  2.0443  0.4762 -3.0194
 6152TIP3    H240016   5.831   6.942   0.280 -1.8372  0.9192  0.7115
 6153TIP3   OH240017   3.627   2.131   2.362  0.2928  0.2118 -0.0993
 6153TIP3    H140018   3.573   2.197   2.408 -0.7305 -0.8186  0.2258
 6153TIP3    H240019   3.687   2.183   2.309 -1.6632  1.4373 -1.2434
 6154TIP3   OH240020   6.862   2.251   1.632 -0.1104  0.1625  0.4909
 6154TIP3    H140021   6.805   2.327   1.641  1.0254  0.8997  1.8431
 6154TIP3    H240022   6.803   2.181   1.602 -1.2034  1.5032 -0.6307
 6155TIP3   OH240023   4.741   3.714   7.976  0.0131 -0.5590  0.6967
 6155TIP3    H140024   4.740   3.690   8.069  0.4135 -0.5628  0.6995
 6155TIP3    H240025   4.785   3.641   7.933 -0.2949 -0.6210  0.4834
 6156TIP3   OH240026   6.745   5.526   8.581 -0.2305  0.4980  0.2564
 6156TIP3    H140027   6.770   5.449   8.632  1.3320  2.0593  1.9742
 6156TIP3    H240028   6.746   5.495   8.490 -0.5885 -1.7131  0.9295
 6157TIP3   OH240029   4.990   0.239   6.685  0.1045 -0.4881  0.4481
 6157TIP3    H140030   4.936   0.317   6.699  1.3744  0.3588  0.7701
 6157TIP3    H240031   5.069   0.272   6.642  0.6560 -1.5980  0.5887
 6158TIP3   OH240032   5.758   6.557   6.962 -0.5469  0.5326 -0.8391
 6158TIP3    H140033   5.837   6.580   7.010  2.0862 -0.1810 -4.4117
 6158TIP3    H240034   5.770   6.464   6.940 -1.3237  0.9097 -3.1179
 6159TIP3   OH240035   4.107   6.803   1.098 -0.2034 -0.0664  0.0566
 6159TIP3    H140036   4.178   6.851   1.055  0.3446 -1.8468 -1.1663
 6159TIP3    H240037   4.027   6.832   1.053 -0.1768  1.3154  0.8568
 6160TIP3   OH240038   2.103   6.563   1.983  0.0859  0.7190  0.1625
 6160TIP3    H140039   2.146   6.556   2.068  0.3692 -1.3919 -0.1077
 6160TIP3    H240040   2.014   6.532   1.998  0.5702 -1.2045 -0.5568
 6161TIP3   OH240041   1.267   2.691   1.377 -0.1263 -0.1553  0.1801
 6161TIP3    H140042   1.360   2.678   1.363 -0.3164 -0.0620 -1.2643
 6161TIP3    H240043   1.258   2.782   1.403  0.0350  0.3583 -1.4489
 6162TIP3   OH240044   2.634   0.790   0.803  0.4438 -0.0475  0.0598
 6162TIP3    H140045   2.616   0.697   0.789  0.7679 -0.1189  0.1090
 6162TIP3    H240046   2.712   0.808   0.750  0.3534  0.2074  0.0122
 6163TIP3   OH240047   0.584   2.177   1.484 -0.1705 -0.0803 -0.4198
 6163TIP3    H140048   0.664   2.231   1.484  0.5384 -1.0803 -1.6336
 6163TIP3    H240049   0.588   2.129   1.401 -0.7625 -2.0005  0.6105
 6164TIP3   OH240050   1.079   5.834   1.793  0.0063 -0.2561  0.0977
 6164TIP3    H140051   1.115   5.923   1.798  1.5069 -0.7297 -1.2900
 6164TIP3    H240052   0.990   5.846   1.759 -0.4687  0.8191  1.6322
 6165TIP3   OH240053   3.193   4.107   0.821 -0.1552  0.0260  0.2847
 6165TIP3    H140054   3.193   4.174   0.889  0.9801  0.0626  0.2653
 6165TIP3    H240055   3.240   4.033   0.859  0.2472 -0.0576 -0.3521
 6166TIP3   OH240056   0.646   6.553   1.096 -0.2379 -0.0174  0.6754
 6166TIP3    H140057   0.563   6.510   1.072  1.1580 -2.0250 -0.9863
 6166TIP3    H240058   0.702   6.481   1.126  1.4701  0.9886  0.0432
 6167TIP3   OH240059   2.778   0.186   1.737 -0.8675  0.7012 -0.9103
 6167TIP3    H140060   2.813   0.234   1.662  0.4790  1.5137  0.1821
 6167TIP3    H240061   2.698   0.234   1.761 -1.9182 -0.2066 -2.4409
 6168TIP3   OH240062   1.981   5.316   7.286 -0.2937 -0.2512 -0.6114
 6168TIP3    H140063   2.007   5.316   7.193 -1.4217  1.1481 -0.9536
 6168TIP3    H240064   1.958   5.406   7.304  0.1534 -0.4547  1.1371
 6169TIP3   OH240065   1.190   1.398   7.024  0.6542 -1.2005 -0.1999
 6169TIP3    H140066   1.116   1.348   7.058 -0.0485 -0.3606 -0.4648
 6169TIP3    H240067   1.197   1.473   7.082  2.0703 -1.8723  0.5415
 6170TIP3   OH240068   1.218   0.026   7.482  0.1034 -0.0731 -0.0027
 6170TIP3    H140069   1.286   0.023   7.416 -0.4059 -0.8164 -0.5153
 6170TIP3    H240070   1.154   0.089   7.449 -1.6888 -2.6282 -1.8279
 6171TIP3   OH240071   4.056   3.797   7.803  0.0874  0.3829 -0.5818
 6171TIP3    H140072   4.083   3.722   7.749  2.9529  1.9123 -1.4621
 6171TIP3    H240073   4.130   3.812   7.862 -0.4881  2.3808 -0.2873
 6172TIP3   OH240074   4.836   0.327   2.544  0.8643  0.5257 -0.0372
 6172TIP3    H140075   4.760   0.271   2.535  0.7555  0.5416  0.7308
 6172TIP3    H240076   4.889   0.286   2.613  1.3016  0.7812 -0.2132
 6173TIP3   OH240077   5.441   6.746   0.873 -0.2776  0.2187 -0.0425
 6173TIP3    H140078   5.441   6.823   0.929 -2.8527  0.5188 -0.3455
 6173TIP3    H240079   5.477   6.777   0.790  1.1465  0.4068  0.6205
 6174TIP3   OH240080   2.552   0.303   0.543 -0.2655  0.1028 -0.9243
 6174TIP3    H140081   2.469   0.312   0.496  0.1033 -1.1848 -1.8896
 6174TIP3    H240082   2.566   0.208   0.548  0.3378  0.2589  0.6929
 6175TIP3   OH240083   6.583   0.134   1.353 -0.0328 -0.4252 -0.3398
 6175TIP3    H140084   6.509   0.130   1.413  0.8022 -1.8708  0.6749
 6175TIP3    H240085   6.638   0.205   1.388  1.1891 -2.1993  1.6260
 6176TIP3   OH240086   4.352   0.622   1.347 -0.0574 -0.3089  0.0208
 6176TIP3    H140087   4.403   0.644   1.269  0.1135  0.3172  0.3037
 6176TIP3    H240088   4.333   0.529   1.337  0.0161 -0.2493 -0.7341
 6177TIP3   OH240089   5.037   5.267   1.620 -0.2611  0.1314 -0.1779
 6177TIP3    H140090   5.088   5.201   1.669  0.6300  0.9304 -0.0011
 6177TIP3    H240091   4.949   5.261   1.657 -0.3726 -1.4008 -0.6026
 6178TIP3   OH240092   1.093   3.769   2.621  0.1757  0.0422 -0.5465
 6178TIP3    H140093   1.074   3.861   2.641  0.6780  0.0450 -0.0517
 6178TIP3    H240094   1.016   3.739   2.574 -0.4671  0.4333  0.2223
 6179TIP3   OH240095   4.497   1.646   2.565  0.0481 -0.5776 -0.0425
 6179TIP3    H140096   4.435   1.579   2.592 -0.3152 -0.5715 -0.8513
 6179TIP3    H240097   4.513   1.629   2.472  0.5214  0.0047 -0.0743
 6180TIP3   OH240098   6.205   3.586   1.298 -0.5987  0.1965  0.6586
 6180TIP3    H140099   6.158   3.599   1.215  0.4559 -0.1353 -0.0151
 6180TIP3    H240100   6.192   3.493   1.318 -1.5290  0.4573  1.3021
 6181TIP3   OH240101   0.370   5.577   1.914 -0.8370  0.0761 -0.1783
 6181TIP3    H140102   0.392   5.586   2.006 -3.0378  1.3767  0.2991
 6181TIP3    H240103   0.314   5.500   1.910 -0.8009  0.0609 -0.4179
 6182TIP3   OH240104   4.267   2.227   0.908  0.2606  0.2795 -0.1816
 6182TIP3    H140105   4.211   2.220   0.985  0.6039 -0.8847 -0.0227
 6182TIP3    H240106   4.344   2.174   0.928  1.2382  1.4925 -0.5823
 6183TIP3   OH240107   6.105   0.122   0.488  0.0690  0.0637 -0.5851
 6183TIP3    H140108   6.041   0.176   0.534 -0.7995 -0.1526 -1.5085
 6183TIP3    H240109   6.100   0.151   0.397  1.6004  0.3292 -0.6224
 6184TIP3   OH240110   6.389   4.423   1.260 -0.4592 -0.0143 -0.3601
 6184TIP3    H140111   6.342   4.505   1.271 -0.4001  0.1209 -1.0460
 6184TIP3    H240112   6.335   4.358   1.304 -0.5907  0.3616  0.0400
 6185TIP3   OH240113   2.613   3.184   8.081 -0.1028  0.2460 -0.2001
 6185TIP3    H140114   2.689   3.147   8.126 -0.3059  0.2232  0.1276
 6185TIP3    H240115   2.638   3.274   8.062 -0.7994  0.9324  1.8745
 6186TIP3   OH240116   3.908   4.969   1.586 -0.3325 -0.2418  0.2158
 6186TIP3    H140117   3.837   5.024   1.621 -0.7141 -1.1397  0.8999
 6186TIP3    H240118   3.977   4.976   1.652 -0.0223  0.1374 -0.1468
 6187TIP3   OH240119   3.801   4.696   0.661 -0.1108  0.8440 -0.2970
 6187TIP3    H140120   3.712   4.676   0.633 -0.1533  0.5853  0.0152
 6187TIP3    H240121   3.800   4.789   0.684 -0.5695  0.6010  0.7086
 6188TIP3   OH240122   0.085   4.265   1.916 -0.4362 -0.8796  0.0164
 6188TIP3    H140123   0.075   4.230   1.828 -2.4377 -0.0301 -0.1470
 6188TIP3    H240124   0.004   4.241   1.961 -0.7889  1.3006  0.6734
 6189TIP3   OH240125   2.910   6.239   1.388 -1.1977 -0.0754  0.3064
 6189TIP3    H140126   2.826   6.283   1.374 -1.2090 -0.4940 -1.1525
 6189TIP3    H240127   2.951   6.239   1.301  0.2368 -0.0433  0.9521
 6190TIP3   OH240128   5.016   6.290   0.426 -0.4409  0.3855 -0.1282
 6190TIP3    H140129   4.972   6.301   0.511 -0.1289  0.4309  0.0283
 6190TIP3    H240130   4.982   6.207   0.392 -0.0301  0.0079  0.3693
 6191TIP3   OH240131   4.643   4.695   7.433 -0.5004 -0.5771 -0.0329
 6191TIP3    H140132   4.562   4.687   7.383  0.9614 -2.3202 -2.3393
 6191TIP3    H240133   4.656   4.789   7.443 -2.4753 -0.2440 -0.0863
 6192TIP3   OH240134   3.700   2.403   0.008  0.5609  0.7116  0.3076
 6192TIP3    H140135   3.687   2.466   0.079  1.2617 -0.1256  1.2100
 6192TIP3    H240136   3.795   2.390   0.005  0.5144  0.5362 -0.6130
 6193TIP3   OH240137   5.881   2.287   8.099  0.0119  0.0296  0.6789
 6193TIP3    H140138   5.794   2.263   8.131 -0.4162  0.5231 -0.1066
 6193TIP3    H240139   5.873   2.378   8.072  0.4640 -0.2546 -0.4811
 6194TIP3   OH240140   1.430   0.841   0.734 -0.0651 -0.4756 -0.0906
 6194TIP3    H140141   1.484   0.775   0.777 -1.3691 -1.1351  0.5474
 6194TIP3    H240142   1.382   0.884   0.804 -1.1040 -0.5542 -0.7328
 6195TIP3   OH240143   2.160   2.534   6.530  0.1931 -0.3524  0.1864
 6195TIP3    H140144   2.173   2.516   6.437 -1.5003 -2.1341  0.2187
 6195TIP3    H240145   2.247   2.528   6.568  0.6836 -1.4158 -1.0122
 6196TIP3   OH240146   4.542   6.279   7.780  0.6831  0.3186  0.3783
 6196TIP3    H140147   4.621   6.253   7.733  0.3972  0.0528  0.0356
 6196TIP3    H240148   4.557   6.250   7.870  0.7215 -0.3022  0.1813
 6197TIP3   OH240149   6.398   3.174   7.324  0.1833 -0.3803  0.3206
 6197TIP3    H140150   6.375   3.265   7.307  0.9076  0.1283  1.8349
 6197TIP3    H240151   6.414   3.136   7.237 -2.1516  0.3383 -0.4835
 6198TIP3   OH240152   4.561   3.273   1.539  0.5609 -0.3292  0.0295
 6198TIP3    H140153   4.511   3.277   1.621 -0.7234  0.9840 -0.7678
 6198TIP3    H240154   4.522   3.199   1.492 -0.7200  0.7127 -0.6060
 6199TIP3   OH240155   4.854   5.595   8.523 -0.4586 -0.1506 -0.3106
 6199TIP3    H140156   4.803   5.528   8.568 -1.7100 -0.3433 -1.9063
 6199TIP3    H240157   4.788   5.647   8.476  0.4604  2.2959  0.9361
 6200TIP3   OH240158   6.813   0.922   8.260  0.2491  0.2954  0.2404
 6200TIP3    H140159   6.889   0.871   8.235  1.0904  1.6861 -0.1466
 6200TIP3    H240160   6.754   0.859   8.303  2.0588 -0.5984  1.5148
 6201TIP3   OH240161   5.627   2.433   7.278 -0.4352 -0.0719 -0.4404
 6201TIP3    H140162   5.585   2.511   7.314  0.6684  1.5638 -2.4680
 6201TIP3    H240163   5.719   2.458   7.266  0.2768 -2.1936  0.1733
 6202TIP3   OH240164   1.790   3.622   6.776  0.8193 -0.3916  0.0741
 6202TIP3    H140165   1.769   3.640   6.685  0.0711 -0.5224  0.2197
 6202TIP3    H240166   1.717   3.569   6.808 -0.7509  2.5070  1.7165
 6203TIP3   OH240167   2.567   0.860   8.337 -0.2038 -0.1312  0.9754
 6203TIP3    H140168   2.555   0.768   8.316 -0.6414  0.1447 -0.0131
 6203TIP3    H240169   2.626   0.893   8.268 -1.4764  0.7318  0.2655
 6204TIP3   OH240170   3.995   6.365   6.247  0.0343 -0.5258  0.0335
 6204TIP3    H140171   3.984   6.344   6.339 -1.1486  0.1477  0.0617
 6204TIP3    H240172   3.939   6.303   6.201 -0.6174  0.1662 -0.1195
 6205TIP3   OH240173   1.951   2.326   1.628 -0.0344 -0.4828  0.3472
 6205TIP3    H140174   2.041   2.296   1.641  1.4993  3.2671 -0.3229
 6205TIP3    H240175   1.905   2.297   1.707  1.8677 -1.9995  0.9946
 6206TIP3   OH240176   5.294   4.404   6.325  0.2765  0.8245 -0.1488
 6206TIP3    H140177   5.211   4.391   6.278  0.5853  0.2992 -0.5551
 6206TIP3    H240178   5.334   4.480   6.283  0.0027  1.0872  0.0555
 6207TIP3   OH240179   4.420   6.129   7.153 -0.1167 -0.3625  0.1373
 6207TIP3    H140180   4.345   6.089   7.110  1.0807 -2.6201 -0.0086
 6207TIP3    H240181   4.393   6.140   7.244 -1.2029  0.5163 -0.2714
 6208TIP3   OH240182   2.012   1.117   2.558  0.0365  0.4488  0.3578
 6208TIP3    H140183   2.069   1.050   2.595 -1.1968  0.8116  3.2399
 6208TIP3    H240184   1.925   1.077   2.558 -0.0734  0.5187 -2.2652
 6209TIP3   OH240185   6.694   1.303   0.185  0.1288 -0.2146 -0.3691
 6209TIP3    H140186   6.680   1.392   0.152 -1.1587 -0.3415 -0.2107
 6209TIP3    H240187   6.608   1.262   0.182 -0.3264  0.0346  3.9902
 6210TIP3   OH240188   0.478   2.379   1.652 -0.0951  0.0951  0.2042
 6210TIP3    H140189   0.561   2.422   1.672 -0.5086  2.4165 -2.4490
 6210TIP3    H240190   0.502   2.307   1.594  0.1097  0.6412 -0.3999
 6211TIP3   OH240191   1.184   4.937   0.126 -1.0305  0.1422  0.4971
 6211TIP3    H140192   1.163   4.858   0.076 -1.2911  0.6856 -0.2752
 6211TIP3    H240193   1.275   4.955   0.104 -0.8199 -0.2099  1.0574
 6212TIP3   OH240194   1.441   4.346   2.490 -0.6831  0.0060  0.2393
 6212TIP3    H140195   1.384   4.270   2.503 -0.1906 -0.8846 -2.1462
 6212TIP3    H240196   1.469   4.339   2.398  1.7549  1.4513  0.7863
 6213TIP3   OH240197   2.968   1.008   0.387 -0.3668  0.4948 -0.4524
 6213TIP3    H140198   2.915   0.941   0.344 -1.0149  1.8309 -1.8438
 6213TIP3    H240199   3.001   0.966   0.466 -2.5784 -0.7451 -0.1138
 6214TIP3   OH240200   5.530   5.533   6.453 -0.0941 -0.0258 -0.2962
 6214TIP3    H140201   5.577   5.612   6.480  1.0838 -0.1456 -1.8527
 6214TIP3    H240202   5.599   5.468   6.437 -0.6225  0.0165 -3.4016
 6215TIP3   OH240203   0.901   1.681   8.550  0.1653  0.5843 -0.1274
 6215TIP3    H140204   0.818   1.728   8.560 -1.8732 -2.6598 -0.2884
 6215TIP3    H240205   0.924   1.653   8.639  0.9802  1.2158 -0.1249
 6216TIP3   OH240206   2.548   0.022   8.668  0.5344  0.1279  0.2005
 6216TIP3    H140207   2.543   0.117   8.667 -1.8091  0.0534 -0.6996
 6216TIP3    H240208   2.528  -0.005   8.579 -0.5203 -1.2170  0.7919
 6217TIP3   OH240209   2.018   5.885   8.602  0.0470  0.3298  0.1749
 6217TIP3    H140210   1.990   5.886   8.511 -0.5053 -1.5886  0.2758
 6217TIP3    H240211   2.097   5.829   8.602 -0.7511 -0.8491  1.0347
 6218TIP3   OH240212   3.301   3.083   7.960 -0.3552 -0.1627 -0.5422
 6218TIP3    H140213   3.379   3.120   8.002  0.2736 -0.8161 -1.0942
 6218TIP3    H240214   3.303   2.990   7.983  0.6748 -0.8050 -2.8898
 6219TIP3   OH240215   2.059   3.607   0.794  0.1794 -0.5367 -0.0119
 6219TIP3    H140216   2.148   3.587   0.764 -0.2426 -0.8841 -1.0983
 6219TIP3    H240217   2.028   3.673   0.732 -1.1723 -2.1861 -1.1642
 6220TIP3   OH240218   5.382   2.602   0.229 -0.1809  0.0984 -0.4324
 6220TIP3    H140219   5.436   2.622   0.305 -1.5598  0.3561  0.5223
 6220TIP3    H240220   5.294   2.631   0.254 -1.3376 -2.7649 -0.8448
 6221TIP3   OH240221   0.771   2.045   0.963  0.0444 -0.0502  0.4086
 6221TIP3    H140222   0.850   2.010   0.923  0.0631  1.1023 -0.5894
 6221TIP3    H240223   0.725   2.091   0.893 -0.3975  1.2070  1.4726
 6222TIP3   OH240224   1.054   1.124   7.033  0.0689 -0.0358 -0.9788
 6222TIP3    H140225   1.028   1.079   6.953 -0.4420  3.0206 -2.6648
 6222TIP3    H240226   0.976   1.122   7.089 -1.7050  2.9696 -3.1163
 6223TIP3   OH240227   1.428   5.248   6.946 -0.1251 -0.4741  0.3635
 6223TIP3    H140228   1.453   5.325   6.896 -0.3016 -0.2541  0.6108
 6223TIP3    H240229   1.377   5.282   7.019  0.1954 -0.7876  0.7380
 6224TIP3   OH240230   4.661   0.065   8.141 -0.2735  0.3317 -0.3692
 6224TIP3    H140231   4.578   0.107   8.119 -0.6320  0.5049  1.2122
 6224TIP3    H240232   4.673   0.082   8.234 -0.6444 -3.3688  0.5307
 6225TIP3   OH240233   4.331   4.310   2.420  0.1073 -0.6635  0.2619
 6225TIP3    H140234   4.377   4.243   2.370  1.9711 -0.1425  1.1887
 6225TIP3    H240235   4.390   4.331   2.492 -0.7484  1.4231  0.4301
 6226TIP3   OH240236   0.493   4.640   0.023 -0.0998  0.3719 -0.1195
 6226TIP3    H140237   0.524   4.597   0.103 -0.6572 -1.0468 -0.6314
 6226TIP3    H240238   0.399   4.622   0.022 -0.3962  1.8235 -0.2502
 6227TIP3   OH240239   2.529   0.051   7.236 -0.0422 -0.2118  0.3896
 6227TIP3    H140240   2.560   0.014   7.153  2.4689  0.3105  0.9877
 6227TIP3    H240241   2.568   0.139   7.240 -0.6943  0.0544  1.7899
 6228TIP3   OH240242   1.328   2.631   6.823 -0.0109 -0.1526  0.5007
 6228TIP3    H140243   1.383   2.553   6.834  0.5651 -0.1615 -1.7980
 6228TIP3    H240244   1.391   2.703   6.815 -0.3431  0.0305 -0.7491
 6229TIP3   OH240245   1.945   3.673   2.222  0.1840 -0.1390  0.4392
 6229TIP3    H140246   1.950   3.768   2.232 -0.4555 -0.2415  2.0398
 6229TIP3    H240247   1.876   3.646   2.283  1.2480 -1.7673  1.0007
 6230TIP3   OH240248   6.190   5.225   1.276  0.2716 -0.1009 -0.1668
 6230TIP3    H140249   6.283   5.225   1.255 -0.0377 -0.2178 -1.6265
 6230TIP3    H240250   6.155   5.147   1.233 -0.5311 -0.0098  0.2823
 6231TIP3   OH240251   6.649   3.640   8.272 -0.5595  0.2394 -0.1907
 6231TIP3    H140252   6.711   3.576   8.237 -1.8520 -0.3696 -1.4394
 6231TIP3    H240253   6.564   3.611   8.241 -1.3613  1.7286  0.5066
 6232TIP3   OH240254   6.396   3.173   1.222  0.1082 -0.9154  0.6827
 6232TIP3    H140255   6.454   3.185   1.148 -0.2294 -1.2886  0.3495
 6232TIP3    H240256   6.440   3.108   1.277  0.0942 -1.0590  0.5240
 6233TIP3   OH240257   2.064   1.226   8.473  0.2859 -0.5276 -0.4655
 6233TIP3    H140258   2.034   1.148   8.520  1.3166  0.1935  1.4837
 6233TIP3    H240259   2.016   1.298   8.515 -1.2974 -0.1253 -2.7996
 6234TIP3   OH240260   0.208   5.909   8.306  0.5377 -0.3079 -0.0490
 6234TIP3    H140261   0.118   5.930   8.331  0.8931  1.5415 -0.1782
 6234TIP3    H240262   0.255   5.902   8.389  0.5648  0.2043 -0.0182
 6235TIP3   OH240263   0.600   2.555   2.527  0.1138 -0.7277 -0.2922
 6235TIP3    H140264   0.683   2.528   2.487  0.7998  2.0376 -0.9207
 6235TIP3    H240265   0.626   2.609   2.602 -1.0486  1.1618 -1.1839
 6236TIP3   OH240266   0.190   4.404   7.090  0.6605 -0.2899 -0.3326
 6236TIP3    H140267   0.104   4.446   7.097  1.1153  0.5723  0.2846
 6236TIP3    H240268   0.253   4.476   7.097  1.4416 -0.8618 -1.1282
 6237TIP3   OH240269   1.509   0.110   2.552 -0.3042  0.2116  0.2652
 6237TIP3    H140270   1.586   0.068   2.514  0.2684 -0.7194  2.3416
 6237TIP3    H240271   1.544   0.174   2.614 -1.2188  1.1171 -0.1169
 6238TIP3   OH240272   0.143   3.826   1.559 -0.3853  0.4452 -0.1217
 6238TIP3    H140273   0.206   3.896   1.577  0.1001  0.6810 -2.4406
 6238TIP3    H240274   0.058   3.869   1.566 -0.1417  0.9510 -0.1711
 6239TIP3   OH240275   2.051   2.861   7.061 -0.1641  0.0700  0.3048
 6239TIP3    H140276   1.963   2.832   7.037 -1.0370  0.1082  3.0264
 6239TIP3    H240277   2.038   2.910   7.142  2.4784 -0.9463  1.4673
 6240TIP3   OH240278   0.140   5.288   0.562 -0.9490  0.3483  0.3568
 6240TIP3    H140279   0.072   5.222   0.571 -2.2039  1.7118  1.2614
 6240TIP3    H240280   0.180   5.294   0.648 -0.7051  0.6275  0.2256
 6241TIP3   OH240281   0.831   0.185   8.476  0.3522 -0.1344 -0.1103
 6241TIP3    H140282   0.913   0.153   8.514 -0.8402 -1.7978  1.2352
 6241TIP3    H240283   0.786   0.106   8.446 -0.5774  0.7863 -1.2178
 6242TIP3   OH240284   5.310   2.983   6.178 -0.4127  0.4169  0.0175
 6242TIP3    H140285   5.311   2.951   6.268 -0.9163 -0.4449 -0.2640
 6242TIP3    H240286   5.385   3.041   6.172  0.2638 -0.3657  0.6975
 6243TIP3   OH240287   5.666   3.392   6.146  0.4477  0.2324 -0.6322
 6243TIP3    H140288   5.695   3.401   6.237 -3.3731 -0.2423  0.7950
 6243TIP3    H240289   5.660   3.482   6.114  1.5736  0.4188 -0.3673
 6244TIP3   OH240290   4.888   6.038   0.470 -0.5847  0.0423  0.0973
 6244TIP3    H140291   4.800   6.057   0.438 -0.5285 -0.4058 -0.3322
 6244TIP3    H240292   4.876   5.969   0.535 -0.4098 -1.1434 -1.0779
 6245TIP3   OH240293   2.764   2.380   2.136  0.3052  0.5571  0.1226
 6245TIP3    H140294   2.819   2.389   2.214  0.1015  1.9038  0.1209
 6245TIP3    H240295   2.675   2.378   2.170  0.2321  0.8424 -0.0503
 6246TIP3   OH240296   3.780   2.626   8.393  0.0661 -0.2436 -0.2763
 6246TIP3    H140297   3.749   2.587   8.311  0.1028  2.3768 -1.6315
 6246TIP3    H240298   3.875   2.611   8.393  0.0478 -0.3583 -0.6600
 6247TIP3   OH240299   6.506   0.290   0.709  0.4975  0.0333  0.2659
 6247TIP3    H140300   6.574   0.229   0.682  1.6052  1.0433  0.6960
 6247TIP3    H240301   6.499   0.352   0.636  1.4474  1.0650  1.0115
 6248TIP3   OH240302   5.017   6.563   1.944  0.0323 -0.3266  0.0691
 6248TIP3    H140303   5.047   6.628   1.881 -0.8428 -0.4679 -0.5091
 6248TIP3    H240304   4.926   6.545   1.919  0.0999 -1.3955  0.5199
 6249TIP3   OH240305   2.391   3.476   7.999  0.7230 -0.3500  0.1038
 6249TIP3    H140306   2.414   3.497   8.089  0.8110  0.5795 -0.1158
 6249TIP3    H240307   2.434   3.545   7.947 -1.0738  0.4190 -0.4712
 6250TIP3   OH240308   1.828   2.974   7.893 -0.3488 -0.5345 -0.2257
 6250TIP3    H140309   1.843   2.910   7.823  0.6322 -1.1140  0.4901
 6250TIP3    H240310   1.887   2.947   7.963 -1.1272  0.1811  0.7377
 6251TIP3   OH240311   5.952   3.556   6.883  0.3220  0.1071 -0.5626
 6251TIP3    H140312   5.885   3.594   6.827 -0.6792 -0.1242  0.4423
 6251TIP3    H240313   6.001   3.632   6.916  0.2001  0.3213 -0.8721
 6252TIP3   OH240314   3.005   1.037   2.566 -0.2992  0.2567 -0.1223
 6252TIP3    H140315   2.922   1.062   2.606 -1.0543 -0.5247 -1.1458
 6252TIP3    H240316   3.019   1.102   2.497 -0.3533  0.0701 -0.3117
 6253TIP3   OH240317   5.299   2.255   0.663  0.3347 -0.1278  0.0403
 6253TIP3    H140318   5.350   2.233   0.585 -0.1730  2.0769 -0.9689
 6253TIP3    H240319   5.306   2.177   0.718  2.8386 -0.7848 -1.0654
 6254TIP3   OH240320   4.758   4.628   1.837 -1.0593 -1.1045 -0.3446
 6254TIP3    H140321   4.672   4.670   1.831 -0.0382  1.1521 -0.2534
 6254TIP3    H240322   4.784   4.615   1.746 -1.0826 -0.9027 -0.3798
 6255TIP3   OH240323   0.277   2.362   1.114 -0.5910  0.2625  0.3887
 6255TIP3    H140324   0.200   2.307   1.128  0.0592 -1.1215 -1.0983
 6255TIP3    H240325   0.346   2.300   1.090  0.0767  1.7338 -1.7649
 6256TIP3   OH240326   0.414   2.221   0.092  0.0792 -0.4078 -0.4377
 6256TIP3    H140327   0.379   2.253   0.008  1.7869  1.3090 -0.5867
 6256TIP3    H240328   0.459   2.140   0.069 -3.5315 -2.6867 -0.2321
 6257TIP3   OH240329   3.504   4.970   8.651  0.3005  0.2935  0.4714
 6257TIP3    H140330   3.567   4.934   8.589  1.7412 -0.6868  2.3905
 6257TIP3    H240331   3.427   4.914   8.643  1.2106 -1.0743  0.9255
 6258TIP3   OH240332   5.180   3.232   0.523  0.1719 -0.2465  0.0330
 6258TIP3    H140333   5.176   3.149   0.476 -0.0959  0.0615 -0.4980
 6258TIP3    H240334   5.201   3.207   0.613 -2.1671 -1.1040  0.4251
 6259TIP3   OH240335   6.559   1.819   0.972  0.1400  0.1533  0.1085
 6259TIP3    H140336   6.569   1.913   0.979 -0.5813  0.1291  1.7085
 6259TIP3    H240337   6.648   1.785   0.982  0.2121  0.5919  0.9877
 6260TIP3   OH240338   5.972   5.527   7.303  0.8436  0.5969 -0.1215
 6260TIP3    H140339   5.994   5.496   7.215 -2.5647 -2.5759 -0.0753
 6260TIP3    H240340   6.020   5.468   7.361 -1.3350 -1.1930 -0.0097
 6261TIP3   OH240341   4.875   1.194   7.858  0.1828 -0.3578 -0.1028
 6261TIP3    H140342   4.839   1.279   7.830  0.4410  0.6932  2.4504
 6261TIP3    H240343   4.833   1.177   7.943  2.5556 -1.1271  1.0251
 6262TIP3   OH240344   3.650   0.821   1.128  0.1640  0.1048 -0.5364
 6262TIP3    H140345   3.724   0.879   1.146  0.0845 -0.2280  0.9228
 6262TIP3    H240346   3.678   0.736   1.161  0.0518 -0.5952 -2.1257
 6263TIP3   OH240347   5.541   4.246   1.323  0.4590 -0.1778  0.1627
 6263TIP3    H140348   5.577   4.158   1.322  3.6763  0.9961  0.7522
 6263TIP3    H240349   5.601   4.298   1.269  0.5404  2.2385  2.3521
 6264TIP3   OH240350   3.701   5.449   8.653  0.0970  0.6290  0.1064
 6264TIP3    H140351   3.786   5.451   8.696  0.6658  0.9986 -0.9904
 6264TIP3    H240352   3.653   5.378   8.696  0.9031  0.5154  0.8261
 6265TIP3   OH240353   3.249   0.693   1.749  0.2944  0.2785  0.3228
 6265TIP3    H140354   3.200   0.775   1.735  0.7318  0.3824 -0.6471
 6265TIP3    H240355   3.308   0.687   1.675 -0.3459 -1.3782 -0.0957
 6266TIP3   OH240356   4.711   2.087   7.765  0.0483  0.4184  0.7372
 6266TIP3    H140357   4.643   2.146   7.733 -1.2709 -1.6639 -0.5562
 6266TIP3    H240358   4.779   2.090   7.697  0.8498  1.7656  1.5603
 6267TIP3   OH240359   4.323   5.949   1.450 -0.3017  0.0493  0.3256
 6267TIP3    H140360   4.402   5.984   1.409  0.0329  0.4664  1.3005
 6267TIP3    H240361   4.307   6.007   1.525 -2.0654  0.5313 -0.3737
 6268TIP3   OH240362   2.909   4.004   6.811 -0.4049 -0.1607 -0.2422
 6268TIP3    H140363   2.824   4.031   6.776 -2.5084 -1.0466  3.6927
 6268TIP3    H240364   2.940   4.080   6.860  0.0756 -0.5366  0.0477
 6269TIP3   OH240365   0.564   5.270   8.027  0.0580 -0.1618 -0.8293
 6269TIP3    H140366   0.559   5.175   8.037 -0.9866  0.0537  1.1336
 6269TIP3    H240367   0.499   5.291   7.960 -1.7215 -0.6202  0.6866
 6270TIP3   OH240368   4.489   3.985   1.909 -0.0467 -0.4889 -0.4190
 6270TIP3    H140369   4.489   3.916   1.976  1.8403 -0.1930 -0.0764
 6270TIP3    H240370   4.520   4.063   1.955 -0.2531  0.1194 -1.2797
 6271TIP3   OH240371   2.122   3.273   1.713 -0.1759 -0.2588 -0.6283
 6271TIP3    H140372   2.171   3.350   1.740 -0.9160 -0.8123  2.6519
 6271TIP3    H240373   2.034   3.305   1.694 -0.5789 -0.2813  1.0706
 6272TIP3   OH240374   0.330   4.603   0.719  0.1204  0.0129  0.0599
 6272TIP3    H140375   0.283   4.687   0.717 -2.2377 -1.1753  1.1992
 6272TIP3    H240376   0.389   4.607   0.644 -4.6024  0.2012 -4.2639
 6273TIP3   OH240377   1.253   3.071   8.013 -0.0821 -0.5132  0.0408
 6273TIP3    H140378   1.217   3.070   7.924 -0.0366  1.5757 -0.0699
 6273TIP3    H240379   1.206   3.002   8.059 -0.9743 -0.8392 -1.3024
 6274TIP3   OH240380   1.364   4.168   7.874 -0.1251 -0.5614 -0.1624
 6274TIP3    H140381   1.394   4.196   7.960  1.5976  1.6134 -1.3572
 6274TIP3    H240382   1.443   4.140   7.827 -0.5139  1.0322 -1.9212
 6275TIP3   OH240383   2.416   1.338   7.267  0.2849 -0.4573 -0.3116
 6275TIP3    H140384   2.385   1.264   7.214 -0.0455 -0.6258  0.1091
 6275TIP3    H240385   2.492   1.303   7.313  0.5715 -0.3113 -0.6647
 6276TIP3   OH240386   2.959   0.882   1.289 -0.3830  0.2540 -0.4645
 6276TIP3    H140387   2.949   0.974   1.314  0.3012  0.0265  0.7013
 6276TIP3    H240388   2.959   0.834   1.371 -0.1423 -0.7373 -1.0222
 6277TIP3   OH240389   3.008   3.750   7.588 -0.1410  0.2520  0.1251
 6277TIP3    H140390   3.095   3.790   7.598  0.1036 -0.7213  2.8584
 6277TIP3    H240391   3.018   3.690   7.514  1.0838  1.1915 -0.5103
 6278TIP3   OH240392   4.900   2.143   0.503  0.0127 -0.4425 -0.4209
 6278TIP3    H140393   4.807   2.161   0.516  0.3975  1.2848  0.1897
 6278TIP3    H240394   4.922   2.078   0.569 -0.5922 -0.2280 -0.0023
 6279TIP3   OH240395   0.242   5.699   0.440 -0.1217 -0.2733 -0.0573
 6279TIP3    H140396   0.222   5.670   0.530  2.9139 -1.2732  0.3938
 6279TIP3    H240397   0.300   5.774   0.452  0.2100 -0.3375 -1.1992
 6280TIP3   OH240398   5.095   3.874   0.955  0.3507  0.2488 -0.0096
 6280TIP3    H140399   5.135   3.912   1.033  1.3391  0.2662 -0.5095
 6280TIP3    H240400   5.027   3.816   0.989  2.4667 -1.8242  1.0252
 6281TIP3   OH240401   6.212   0.176   7.199  0.0592  0.1289  0.6235
 6281TIP3    H140402   6.169   0.196   7.117 -0.5336 -0.2603  0.8372
 6281TIP3    H240403   6.152   0.207   7.267  0.8084  1.0010  0.9121
 6282TIP3   OH240404   5.330   0.179   1.893 -0.3757  0.5565 -0.6798
 6282TIP3    H140405   5.303   0.232   1.968  0.7059 -0.3544  0.4117
 6282TIP3    H240406   5.406   0.225   1.858 -0.8789  0.9799 -1.2278
 6283TIP3   OH240407   4.595   3.092   8.376  0.2058  0.6653  0.0380
 6283TIP3    H140408   4.670   3.061   8.426 -0.0616 -1.6225 -0.8589
 6283TIP3    H240409   4.619   3.074   8.285 -0.5929  1.8521 -0.4290
 6284TIP3   OH240410   3.766   6.557   2.173  0.1522 -0.3063 -0.6722
 6284TIP3    H140411   3.672   6.576   2.174  0.5108  1.8004  0.7726
 6284TIP3    H240412   3.804   6.632   2.128  1.1546 -1.1836 -1.3083
 6285TIP3   OH240413   0.348   0.859   1.630 -0.7601 -0.2623 -0.0178
 6285TIP3    H140414   0.359   0.932   1.570  0.1481 -1.0512 -0.8543
 6285TIP3    H240415   0.298   0.794   1.580 -1.0798 -0.4426  0.5197
 6286TIP3   OH240416   6.682   2.459   7.505 -0.4662  0.5767  0.4186
 6286TIP3    H140417   6.611   2.404   7.471 -1.2464  1.7186  0.1483
 6286TIP3    H240418   6.709   2.511   7.429  0.7629  0.0603  0.4889
 6287TIP3   OH240419   1.792   2.929   2.555  0.3012 -0.2303 -0.4815
 6287TIP3    H140420   1.723   2.863   2.550  0.4137 -0.3553 -0.3976
 6287TIP3    H240421   1.759   2.993   2.618  0.7647 -0.8929  0.4509
 6288TIP3   OH240422   6.322   3.752   1.820 -0.1566 -0.1101 -0.0081
 6288TIP3    H140423   6.318   3.660   1.846 -0.8461 -0.4964 -1.3791
 6288TIP3    H240424   6.398   3.757   1.762 -0.2078  0.1367 -0.0543
 6289TIP3   OH240425   0.121   6.120   0.535  0.4885  0.3960  0.3031
 6289TIP3    H140426   0.061   6.046   0.538  1.2581 -0.2962 -0.7312
 6289TIP3    H240427   0.158   6.124   0.623  0.0355 -0.1098  0.5238
 6290TIP3   OH240428   6.151   5.578   1.269 -0.0037  0.0961 -0.1544
 6290TIP3    H140429   6.124   5.615   1.185 -0.0008 -0.2811 -0.3225
 6290TIP3    H240430   6.230   5.528   1.249  1.3008  1.8026  0.4577
 6291TIP3   OH240431   2.367   5.627   6.570 -0.0523 -0.4453 -0.3700
 6291TIP3    H140432   2.461   5.613   6.559  0.4605 -0.0888  2.6189
 6291TIP3    H240433   2.359   5.722   6.581 -0.3229 -0.6853  2.0240
 6292TIP3   OH240434   4.352   3.756   1.398 -0.1557 -0.2856 -0.0264
 6292TIP3    H140435   4.435   3.766   1.351 -0.4976  1.0006 -0.3927
 6292TIP3    H240436   4.354   3.666   1.431  1.8278  0.0181  0.8085
 6293TIP3   OH240437   3.314   5.441   6.951  0.1608 -0.1810  0.1834
 6293TIP3    H140438   3.237   5.385   6.947  0.3709 -0.5120  0.6865
 6293TIP3    H240439   3.374   5.396   7.010  0.8485 -0.0493 -0.4016
 6294TIP3   OH240440   0.948   5.597   7.344  0.2434 -0.3960  0.4430
 6294TIP3    H140441   0.961   5.621   7.436 -0.1678  0.0392  0.3913
 6294TIP3    H240442   0.910   5.509   7.347  1.3143 -0.8702  0.6478
 6295TIP3   OH240443   2.906   3.284   7.348 -0.0413 -0.0329  0.8901
 6295TIP3    H140444   2.840   3.251   7.287 -0.8519 -1.9062  2.6573
 6295TIP3    H240445   2.943   3.205   7.388  1.2236  1.0853  2.0303
 6296TIP3   OH240446   0.999   4.762   0.966 -0.0529  0.1017 -0.1012
 6296TIP3    H140447   1.090   4.792   0.959 -0.2505  0.4396 -1.8420
 6296TIP3    H240448   1.004   4.681   1.016  1.1666  0.2950  0.1233
 6297TIP3   OH240449   5.987   3.177   1.459 -0.0647  0.2155 -0.4181
 6297TIP3    H140450   5.927   3.244   1.427 -1.1012 -1.3606 -2.0136
 6297TIP3    H240451   5.930   3.103   1.481  0.9383  0.1220  2.2181
 6298TIP3   OH240452   5.573   6.178   6.692 -0.0866 -0.1088  0.0186
 6298TIP3    H140453   5.511   6.184   6.765 -1.5077  0.0530 -1.1738
 6298TIP3    H240454   5.567   6.262   6.648 -0.3443 -0.7035 -1.1359
 6299TIP3   OH240455   2.253   6.022   1.624 -0.6284 -0.6739  0.8293
 6299TIP3    H140456   2.330   6.071   1.652 -0.6742 -0.3008  0.3223
 6299TIP3    H240457   2.287   5.934   1.604 -0.3952 -0.6066  0.9290
 6300TIP3   OH240458   6.331   6.331   1.305  0.7527 -0.0055  0.6514
 6300TIP3    H140459   6.411   6.383   1.311  0.1261  1.1094 -0.1473
 6300TIP3    H240460   6.262   6.389   1.338  0.0601 -0.3777 -0.0899
 6301TIP3   OH240461   5.337   0.206   0.722  0.8721  0.3846 -0.1376
 6301TIP3    H140462   5.396   0.148   0.673  0.0907 -1.4478  0.9478
 6301TIP3    H240463   5.267   0.227   0.660  0.8397 -0.3871 -0.3731
 6302TIP3   OH240464   5.234   6.305   8.111  0.4090  0.0541  0.1873
 6302TIP3    H140465   5.173   6.237   8.141  0.7960 -0.4015 -0.0409
 6302TIP3    H240466   5.188   6.387   8.127 -0.8920 -0.3229 -1.3288
 6303TIP3   OH240467   2.209   5.120   1.055  0.6820 -0.1143  0.6372
 6303TIP3    H140468   2.284   5.094   1.001 -0.5860  1.5501 -2.1833
 6303TIP3    H240469   2.155   5.041   1.060  0.4247 -0.1413 -1.4155
 6304TIP3   OH240470   2.490   0.929   7.680  0.0598  0.0694 -0.0321
 6304TIP3    H140471   2.497   0.949   7.587  1.1264  0.8131  0.1985
 6304TIP3    H240472   2.537   0.846   7.691 -0.4176 -0.2306 -0.2138
 6305TIP3   OH240473   0.984   5.825   7.059 -0.3164 -0.2198  0.5476
 6305TIP3    H140474   1.054   5.888   7.072  1.0420 -0.9988 -2.2320
 6305TIP3    H240475   1.027   5.740   7.067 -1.7216 -0.8215  2.2970
 6306TIP3   OH240476   2.349   3.355   0.666 -0.1802  0.3052 -0.3864
 6306TIP3    H140477   2.398   3.302   0.729  0.2436 -0.5144 -1.3787
 6306TIP3    H240478   2.408   3.429   0.646 -0.6446  1.0102  0.7621
 6307TIP3   OH240479   6.458   3.960   6.466  0.0901 -0.2553 -0.5069
 6307TIP3    H140480   6.503   4.045   6.463  2.1285 -1.2405 -4.5530
 6307TIP3    H240481   6.366   3.982   6.452  0.1855  1.3935  1.0560
 6308TIP3   OH240482   2.491   5.576   0.006  0.6013  0.5124  0.1837
 6308TIP3    H140483   2.517   5.667  -0.009 -0.2936  0.9690  1.2604
 6308TIP3    H240484   2.408   5.567  -0.042  0.1752  0.5707  0.9013
 6309TIP3   OH240485   0.375   0.919   1.955  0.2061 -0.3084 -0.6461
 6309TIP3    H140486   0.415   0.897   2.039  2.6706 -1.4361 -2.0368
 6309TIP3    H240487   0.413   1.004   1.933 -0.0397 -0.2609 -0.8885
 6310TIP3   OH240488   0.081   5.471   0.355 -0.0472 -0.1764 -0.2976
 6310TIP3    H140489   0.098   5.401   0.418 -0.4271  0.5472  0.6291
 6310TIP3    H240490   0.107   5.551   0.401 -4.1250  0.8627  0.5810
 6311TIP3   OH240491   6.363   0.237   1.523 -0.1876  0.5365  0.6373
 6311TIP3    H140492   6.392   0.328   1.519  1.7824 -0.0747 -1.0087
 6311TIP3    H240493   6.400   0.203   1.604  1.2262  0.5898  0.0410
 6312TIP3   OH240494   5.609   4.998   0.527  0.1937  0.4055  0.4123
 6312TIP3    H140495   5.657   5.069   0.484  1.4318 -2.3224 -3.2965
 6312TIP3    H240496   5.674   4.955   0.582  0.4146  0.1861 -0.0107
 6313TIP3   OH240497   1.923   6.854   7.078 -0.0890 -0.1917  0.3576
 6313TIP3    H140498   2.010   6.823   7.103  0.0327 -0.4113 -0.3349
 6313TIP3    H240499   1.931   6.876   6.985 -0.5267  0.6609  0.5079
 6314TIP3   OH240500   5.128   5.220   7.330 -0.1632  0.4478 -0.0601
 6314TIP3    H140501   5.140   5.188   7.241 -1.8853  0.3196 -0.2741
 6314TIP3    H240502   5.069   5.295   7.321  0.3819  1.0219  0.8937
 6315TIP3   OH240503   6.611   0.212   8.387  0.2164  0.1426 -0.1610
 6315TIP3    H140504   6.656   0.183   8.307  1.2058 -0.8510  0.7090
 6315TIP3    H240505   6.682   0.228   8.449 -0.4958  1.7004  0.2858
 6316TIP3   OH240506   5.283   1.366   0.766  0.3548 -0.3944  0.7542
 6316TIP3    H140507   5.353   1.416   0.722 -0.0988 -0.4920 -0.1005
 6316TIP3    H240508   5.226   1.433   0.803  0.7854 -0.3100  1.2710
 6317TIP3   OH240509   2.991   2.061   1.042 -0.0622 -0.8881 -0.5654
 6317TIP3    H140510   3.058   2.004   1.003  0.4595 -0.8996  0.3159
 6317TIP3    H240511   2.997   2.044   1.136 -1.3342 -0.9015 -0.4706
 6318TIP3   OH240512   6.332   6.682   0.790  0.2329  0.1505 -0.3142
 6318TIP3    H140513   6.366   6.641   0.711 -1.0849 -0.0104 -0.8265
 6318TIP3    H240514   6.328   6.776   0.769 -1.6841 -0.0594 -1.0989
 6319TIP3   OH240515   6.797   4.621   7.838  0.4102  0.7747  0.5359
 6319TIP3    H140516   6.870   4.559   7.850  0.5079  0.7929  0.0425
 6319TIP3    H240517   6.809   4.685   7.908 -0.0914 -0.1458  1.4968
 6320TIP3   OH240518   5.558   5.376   2.221 -0.1400  0.2127 -0.1951
 6320TIP3    H140519   5.580   5.468   2.210 -0.1859  0.0752 -1.7887
 6320TIP3    H240520   5.541   5.365   2.314  0.8343  1.5894  0.1652
 6321TIP3   OH240521   3.794   2.898   0.291 -0.1942 -0.3013 -0.9506
 6321TIP3    H140522   3.779   2.857   0.376  1.5919  0.7676 -0.0673
 6321TIP3    H240523   3.831   2.828   0.237 -0.7871 -0.8308 -0.6807
 6322TIP3   OH240524   4.919   2.182   7.934  0.0503 -0.3168 -0.0790
 6322TIP3    H140525   4.834   2.193   7.892 -0.5463  0.5918  1.3253
 6322TIP3    H240526   4.916   2.237   8.012  2.1218  0.1810 -0.2741
 6323TIP3   OH240527   2.849   3.871   8.367  0.7861  0.3756 -0.1900
 6323TIP3    H140528   2.921   3.905   8.313  1.4427  0.2870  0.6084
 6323TIP3    H240529   2.889   3.854   8.453  0.6955 -2.9670 -0.6612
 6324TIP3   OH240530   2.590   5.060   7.381  0.1283  0.2307  0.0034
 6324TIP3    H140531   2.648   5.037   7.308  0.6890  0.9744  0.1954
 6324TIP3    H240532   2.626   5.011   7.456 -1.3891 -1.7900 -0.5082
 6325TIP3   OH240533   4.941   1.976   0.737 -0.4317 -0.2032  0.7256
 6325TIP3    H140534   5.006   2.041   0.766 -0.2784 -0.1271  0.2140
 6325TIP3    H240535   4.892   1.955   0.816 -3.1040  3.4316  0.2681
 6326TIP3   OH240536   1.896   4.764   8.056 -0.0643 -0.3180 -0.0873
 6326TIP3    H140537   1.988   4.745   8.040  0.2936  0.4606  0.9448
 6326TIP3    H240538   1.886   4.857   8.034 -0.6253 -0.4204 -0.2870
 6327TIP3   OH240539   5.506   4.451   7.556  0.4228  0.2251  0.2503
 6327TIP3    H140540   5.558   4.373   7.574 -1.3186 -0.9327  0.5383
 6327TIP3    H240541   5.523   4.509   7.630  1.2011 -0.1768  0.3991
 6328TIP3   OH240542   3.883   4.688   7.087 -0.0186  0.1861 -0.1113
 6328TIP3    H140543   3.800   4.645   7.067 -0.7730  0.4028  2.2532
 6328TIP3    H240544   3.928   4.693   7.003 -1.4193 -1.9729 -1.0837
 6329TIP3   OH240545   3.164   1.882   7.533 -0.0092  0.9456  0.2198
 6329TIP3    H140546   3.088   1.926   7.496  0.1139 -0.2955 -1.6859
 6329TIP3    H240547   3.235   1.946   7.526 -0.5480  1.5910  0.6137
 6330TIP3   OH240548   2.930   5.614   6.789 -0.0316 -0.0482 -0.1525
 6330TIP3    H140549   2.897   5.548   6.851 -0.2421  0.4818  0.3171
 6330TIP3    H240550   2.852   5.665   6.765 -0.3502 -1.5576 -2.5302
 6331TIP3   OH240551   5.233   0.329   0.363  0.1032 -0.6069 -0.1740
 6331TIP3    H140552   5.167   0.286   0.417  1.8500 -0.7692  1.9707
 6331TIP3    H240553   5.255   0.408   0.411 -0.0012  0.5339 -1.9287
 6332TIP3   OH240554   5.574   3.404   0.737 -0.0193 -0.1933  0.4870
 6332TIP3    H140555   5.625   3.327   0.711 -1.0235  0.1832 -3.1136
 6332TIP3    H240556   5.621   3.478   0.698 -0.6855  0.7245  1.3584
 6333TIP3   OH240557   1.913   1.361   6.431  0.4049 -0.6386 -0.2297
 6333TIP3    H140558   1.988   1.336   6.376  0.9516 -0.0302  0.2259
 6333TIP3    H240559   1.841   1.308   6.398  0.5842  0.0980 -1.9008
 6334TIP3   OH240560   1.862   6.228   0.797  0.6020 -0.1251  0.6904
 6334TIP3    H140561   1.954   6.204   0.809  1.1059  0.9413 -0.7313
 6334TIP3    H240562   1.823   6.153   0.753  1.3950  0.3354 -0.8609
 6335TIP3   OH240563   1.758   5.586   0.532  0.5253  0.2455  0.0655
 6335TIP3    H140564   1.752   5.664   0.476  0.9404  0.5421  0.4253
 6335TIP3    H240565   1.763   5.513   0.470  2.4975  0.6574 -0.3565
 6336TIP3   OH240566   2.186   4.052   8.146 -0.3296 -0.3858 -0.0789
 6336TIP3    H140567   2.158   4.073   8.235  0.0092  1.4489 -0.3773
 6336TIP3    H240568   2.121   3.988   8.115 -2.3167  1.3041  0.3939
 6337TIP3   OH240569   5.143   1.945   1.670  0.2372  0.0364 -0.1545
 6337TIP3    H140570   5.144   2.008   1.742 -0.5145 -0.2686  0.1310
 6337TIP3    H240571   5.195   1.987   1.601  1.0073  0.3126  0.5690
 6338TIP3   OH240572   4.520   6.238   8.347  0.1769  0.1639  0.5503
 6338TIP3    H140573   4.551   6.327   8.365  0.2769 -0.0794  1.6239
 6338TIP3    H240574   4.585   6.182   8.389 -1.0373 -0.3740  1.7830
 6339TIP3   OH240575   1.867   4.785   0.178 -0.5559 -0.0085  0.2184
 6339TIP3    H140576   1.897   4.752   0.263 -0.6714  0.0049  0.2655
 6339TIP3    H240577   1.773   4.801   0.191 -0.0208  3.1917  1.1510
 6340TIP3   OH240578   6.635   6.496   7.747  0.0694 -0.1588  0.2945
 6340TIP3    H140579   6.714   6.521   7.699  0.4939 -0.7911  0.6494
 6340TIP3    H240580   6.594   6.430   7.693  0.8903 -1.3468  1.0805
 6341TIP3   OH240581   2.398   4.648   2.503  0.3898 -0.2742 -0.6340
 6341TIP3    H140582   2.405   4.573   2.562 -0.6947 -0.2622 -0.4776
 6341TIP3    H240583   2.468   4.634   2.438 -0.7750 -2.2825 -1.5511
 6342TIP3   OH240584   1.912   0.441   7.762  0.0659  0.3141 -0.1350
 6342TIP3    H140585   1.895   0.375   7.695 -1.2879  1.3854 -0.8831
 6342TIP3    H240586   1.987   0.491   7.728  1.7570 -1.3719  0.8946
 6343TIP3   OH240587   0.134   0.741   8.090 -0.1009  0.0623 -0.1364
 6343TIP3    H140588   0.159   0.649   8.087  2.4734  0.6710 -0.0747
 6343TIP3    H240589   0.040   0.742   8.071 -1.1627 -2.8787  3.6939
 6344TIP3   OH240590   4.111   6.228   7.487  0.0525 -0.4556  0.4426
 6344TIP3    H140591   4.197   6.237   7.446 -0.6455  3.0782 -0.5493
 6344TIP3    H240592   4.062   6.170   7.427  1.3871 -1.7687  0.5515
 6345TIP3   OH240593   2.810   3.241   0.240  0.9929 -0.1684 -0.0544
 6345TIP3    H140594   2.833   3.178   0.309  1.6106 -0.5454 -0.5920
 6345TIP3    H240595   2.790   3.321   0.287  0.3991 -0.7024  0.6321
 6346TIP3   OH240596   5.503   1.948   0.381 -0.3984 -0.0872  0.1403
 6346TIP3    H140597   5.550   1.887   0.438  0.1995 -0.5469 -0.8240
 6346TIP3    H240598   5.527   1.921   0.292 -1.1266  0.7656 -0.3258
 6347TIP3   OH240599   3.225   6.629   0.147  0.7371 -0.3088 -0.2791
 6347TIP3    H140600   3.222   6.556   0.210  0.3478 -0.0222  0.0409
 6347TIP3    H240601   3.153   6.611   0.086  0.1033  0.2337  0.2881
 6348TIP3   OH240602   1.187   5.980   0.700  0.3994 -0.1969 -0.0863
 6348TIP3    H140603   1.097   6.012   0.697  0.3802 -0.0662  1.2700
 6348TIP3    H240604   1.184   5.895   0.656 -0.4273 -0.2755  0.1082
 6349TIP3   OH240605   4.715   3.855   0.003  0.1267 -0.2090 -0.4504
 6349TIP3    H140606   4.744   3.776  -0.043  1.0549  0.2516 -0.6808
 6349TIP3    H240607   4.749   3.927  -0.050 -1.3164  0.3674 -0.6366
 6350TIP3   OH240608   6.513   6.747   0.025 -0.2126  0.1221 -0.3395
 6350TIP3    H140609   6.526   6.832   0.069  0.7375 -1.2024  2.1449
 6350TIP3    H240610   6.514   6.683   0.096  0.3707 -2.1222 -2.2517
 6351TIP3   OH240611   5.324   6.875   1.669  0.0883  0.2248 -0.0741
 6351TIP3    H140612   5.382   6.814   1.714 -1.3114 -0.7614  0.4865
 6351TIP3    H240613   5.310   6.946   1.731  0.2731  0.2006 -0.0047
 6352TIP3   OH240614   0.768   6.013   8.474  0.4494  0.8024 -0.0970
 6352TIP3    H140615   0.728   5.927   8.468 -0.5225  1.3121 -1.0638
 6352TIP3    H240616   0.845   5.999   8.530  0.9238 -0.9052 -1.1015
 6353TIP3   OH240617   5.791   1.726   1.525 -0.1621 -0.3142  0.1571
 6353TIP3    H140618   5.814   1.777   1.447  0.9097 -0.7220  0.1968
 6353TIP3    H240619   5.724   1.779   1.568  0.5488  0.8277 -0.0795
 6354TIP3   OH240620   6.809   1.408   8.442 -0.5207  0.3477  0.2420
 6354TIP3    H140621   6.741   1.354   8.481  0.2429 -1.2803 -0.6103
 6354TIP3    H240622   6.762   1.472   8.388 -1.4047  0.1100  0.7209
 6355TIP3   OH240623   5.410   2.478   8.051 -0.1727  0.1877 -0.7037
 6355TIP3    H140624   5.400   2.511   8.140  1.0535 -0.9813 -0.1004
 6355TIP3    H240625   5.407   2.557   7.996 -1.1408  0.9055  0.3366
 6356TIP3   OH240626   2.122   6.761   0.943  0.1814  0.3806  0.0514
 6356TIP3    H140627   2.108   6.680   0.893  1.6395  0.0466  0.1470
 6356TIP3    H240628   2.115   6.830   0.878  2.7850 -0.0903 -0.8504
 6357TIP3   OH240629   4.727   3.716   6.350 -0.2720  0.1236 -0.2002
 6357TIP3    H140630   4.702   3.689   6.261 -0.7365  0.2406 -0.1067
 6357TIP3    H240631   4.646   3.748   6.389  0.0250  0.5059  0.1116
 6358TIP3   OH240632   0.377   3.825   7.643  0.0751 -0.3679 -0.4038
 6358TIP3    H140633   0.300   3.800   7.594 -0.1280 -0.6807  0.0717
 6358TIP3    H240634   0.370   3.779   7.726 -0.4780  1.4706  0.6318
 6359TIP3   OH240635   3.953   1.139   0.259  0.2909 -0.1085  0.5700
 6359TIP3    H140636   3.878   1.154   0.202  0.4449 -0.5282  0.2551
 6359TIP3    H240637   3.927   1.177   0.343 -0.9571 -1.7022  0.9640
 6360TIP3   OH240638   6.769   2.310   0.804  0.1210  0.6687 -0.0745
 6360TIP3    H140639   6.853   2.337   0.769  0.2375  0.1926 -0.1754
 6360TIP3    H240640   6.705   2.367   0.760  0.2366 -0.0837 -1.2797
 6361TIP3   OH240641   4.121   1.266   0.565  0.2604 -0.2765  1.0539
 6361TIP3    H140642   4.116   1.196   0.499  0.3361  1.1354 -0.5214
 6361TIP3    H240643   4.214   1.275   0.584  0.5348  1.0448 -0.6687
 6362TIP3   OH240644   5.627   1.817   7.923  0.2496 -0.2455  0.2131
 6362TIP3    H140645   5.603   1.725   7.910 -2.2425  0.3591  0.0040
 6362TIP3    H240646   5.670   1.819   8.008  0.3740 -1.5946  0.2074
 6363TIP3   OH240647   2.312   4.127   2.125  0.7349 -0.6156 -0.2607
 6363TIP3    H140648   2.352   4.051   2.082  0.1067 -2.0427  1.5255
 6363TIP3    H240649   2.383   4.167   2.175  0.9454 -0.3759 -0.7542
 6364TIP3   OH240650   1.987   4.088   0.002 -0.0778  0.2984 -0.7065
 6364TIP3    H140651   2.031   4.019   0.052  0.2526  0.4043 -0.8491
 6364TIP3    H240652   2.018   4.170   0.041 -1.1429  0.3713  0.0460
 6365TIP3   OH240653   0.131   6.049   1.937  0.1125 -0.1582  0.7076
 6365TIP3    H140654   0.158   5.985   1.871 -0.0953  0.2768  0.1832
 6365TIP3    H240655   0.166   6.016   2.019 -0.8640 -1.4967  0.6289
 6366TIP3   OH240656   5.401   6.255   7.913 -0.2971  0.0323  0.0738
 6366TIP3    H140657   5.364   6.168   7.895  0.9716 -0.8163  1.3734
 6366TIP3    H240658   5.344   6.290   7.981 -2.2841  1.3090 -2.0926
 6367TIP3   OH240659   1.809   5.215   1.660 -0.0676 -0.3911 -0.3415
 6367TIP3    H140660   1.729   5.172   1.689  0.1104  0.2682  1.2082
 6367TIP3    H240661   1.842   5.160   1.589 -0.9689 -1.6102  0.1596
 6368TIP3   OH240662   4.822   1.678   6.750 -0.1226  0.2915 -0.2583
 6368TIP3    H140663   4.752   1.708   6.691 -0.1162 -0.5668 -0.7239
 6368TIP3    H240664   4.895   1.737   6.732 -1.0616  1.9529  1.0676
 6369TIP3   OH240665   0.631   4.170   1.896  0.0039 -0.1541 -0.5444
 6369TIP3    H140666   0.594   4.081   1.899  0.1320 -0.1703  1.7374
 6369TIP3    H240667   0.554   4.227   1.893 -0.0899 -0.3026 -1.1524
 6370TIP3   OH240668   5.176   6.019   0.484  0.3263  0.0617 -0.5181
 6370TIP3    H140669   5.109   6.071   0.527  1.2044  0.9226 -0.1578
 6370TIP3    H240670   5.138   5.931   0.479  0.3987 -0.2990  2.6562
 6371TIP3   OH240671   0.434   0.426   0.924  0.1403  0.5571 -0.3494
 6371TIP3    H140672   0.490   0.358   0.886  1.0510  2.3308 -2.4194
 6371TIP3    H240673   0.470   0.441   1.011  2.0445  0.6446 -1.0972
 6372TIP3   OH240674   6.520   1.789   1.668 -0.8406  0.2974 -0.1771
 6372TIP3    H140675   6.455   1.719   1.661 -0.2596 -0.1582 -1.2779
 6372TIP3    H240676   6.543   1.792   1.761 -1.6759 -0.2340  0.0508
 6373TIP3   OH240677   1.025   5.998   8.616  0.1403  0.3235 -0.4386
 6373TIP3    H140678   1.110   6.024   8.580 -0.0645  0.3698 -0.8850
 6373TIP3    H240679   1.023   6.041   8.702  0.7662 -0.0642 -0.2184
 6374TIP3   OH240680   6.831   4.457   0.104  0.5849 -0.0674  0.7170
 6374TIP3    H140681   6.837   4.368   0.140 -2.0676  0.2846  2.2102
 6374TIP3    H240682   6.740   4.483   0.118  0.7540  2.1364 -1.5802
 6375TIP3   OH240683   0.971   2.892   7.282  0.1699  0.0256  0.6447
 6375TIP3    H140684   0.928   2.858   7.203 -1.6625  0.2626  1.4927
 6375TIP3    H240685   1.061   2.908   7.255  0.1922 -2.0964 -0.7529
 6376TIP3   OH240686   1.319   1.458   1.691 -0.0212  0.9450 -0.2332
 6376TIP3    H140687   1.274   1.400   1.630  0.5289 -0.0098  0.2438
 6376TIP3    H240688   1.254   1.476   1.759  0.4748 -0.9606  0.8013
 6377TIP3   OH240689   2.242   3.075   2.322 -0.0378  0.4917 -0.4620
 6377TIP3    H140690   2.178   3.033   2.380  1.6661  0.9308  1.8900
 6377TIP3    H240691   2.226   3.169   2.333  0.5107  0.5855 -0.4601
 6378TIP3   OH240692   1.458   3.712   7.793 -0.1685  0.8507  0.3239
 6378TIP3    H140693   1.535   3.660   7.818  0.0678  1.1807  0.2880
 6378TIP3    H240694   1.481   3.748   7.708 -0.4132  0.8585  0.2598
 6379TIP3   OH240695   6.070   3.327   6.980  0.4636 -0.2986 -0.9969
 6379TIP3    H140696   6.036   3.411   6.950  1.1773  0.1896 -0.4723
 6379TIP3    H240697   6.008   3.263   6.945 -0.6166  0.5007 -0.6431
 6380TIP3   OH240698   4.669   1.886   0.521  0.1605 -0.0991 -0.2627
 6380TIP3    H140699   4.738   1.832   0.560  0.5012  1.5692  1.6313
 6380TIP3    H240700   4.621   1.921   0.596 -0.4404  1.6789 -1.4108
 6381TIP3   OH240701   3.494   4.346   1.391  0.3688 -0.0707 -0.1534
 6381TIP3    H140702   3.556   4.402   1.437 -0.9700 -0.6333  2.4882
 6381TIP3    H240703   3.441   4.406   1.339  0.0569  0.9504  1.3054
 6382TIP3   OH240704   6.133   4.027   1.394 -0.4200  0.4815  0.3702
 6382TIP3    H140705   6.110   4.060   1.307  2.1077  0.5987 -0.3107
 6382TIP3    H240706   6.114   3.934   1.390  2.2609 -0.0900 -1.3422
 6383TIP3   OH240707   4.081   0.197   1.224 -0.1204  0.0684 -0.4486
 6383TIP3    H140708   4.028   0.135   1.273 -0.5102  1.1087  0.4998
 6383TIP3    H240709   4.066   0.174   1.132 -3.2229  1.0439 -0.3073
 6384TIP3   OH240710   5.110   4.398   8.657  0.3290  0.1749 -0.0595
 6384TIP3    H140711   5.162   4.477   8.674  1.9505 -0.8445 -0.0814
 6384TIP3    H240712   5.024   4.431   8.632  1.1572  1.9571 -0.7225
 6385TIP3   OH240713   3.795   2.724   0.096  0.1666  0.5061 -0.5397
 6385TIP3    H140714   3.730   2.663   0.131  0.1333  1.2752  0.8049
 6385TIP3    H240715   3.744   2.790   0.049  0.2141 -0.5558 -2.1518
 6386TIP3   OH240716   0.293   5.420   1.221  0.8165 -0.0641  0.2027
 6386TIP3    H140717   0.338   5.471   1.289  2.2940  1.8244 -2.0424
 6386TIP3    H240718   0.356   5.354   1.195  0.3232 -0.6669  0.5209
 6387TIP3   OH240719   4.202   6.383   0.207  0.0806  0.1847 -0.6654
 6387TIP3    H140720   4.111   6.413   0.197 -0.1718  0.1400  1.1649
 6387TIP3    H240721   4.222   6.340   0.124 -0.8777  1.9461 -1.8717
 6388TIP3   OH240722   3.695   4.148   0.568  0.1726  0.3788  0.7059
 6388TIP3    H140723   3.692   4.230   0.518 -0.2315  1.6810  2.7478
 6388TIP3    H240724   3.627   4.159   0.635  0.6856 -1.2948  1.5441
 6389TIP3   OH240725   1.642   3.529   7.896  0.3334 -0.1172 -0.4692
 6389TIP3    H140726   1.685   3.544   7.980  0.4759 -0.7305 -0.4285
 6389TIP3    H240727   1.569   3.471   7.916 -0.6091  1.0265 -0.5185
 6390TIP3   OH240728   4.419   1.246   2.430 -0.5840 -0.4281  0.4665
 6390TIP3    H140729   4.491   1.201   2.476  0.0628 -0.6750 -0.7603
 6390TIP3    H240730   4.391   1.184   2.363  0.9450  1.2912 -1.8992
 6391TIP3   OH240731   5.754   4.494   0.424  0.6990  0.2051 -0.1217
 6391TIP3    H140732   5.723   4.423   0.480 -0.0563  1.7247  1.4788
 6391TIP3    H240733   5.712   4.478   0.340 -1.9025  0.3598  1.0520
 6392TIP3   OH240734   2.395   5.372   1.452  0.4745  0.0300 -0.3515
 6392TIP3    H140735   2.413   5.324   1.371  1.0692 -1.4729  0.6106
 6392TIP3    H240736   2.337   5.314   1.502  2.6875 -0.6306  1.6439
 6393TIP3   OH240737   5.431   0.848   1.086 -0.1414 -1.4192  0.2296
 6393TIP3    H140738   5.520   0.873   1.110  0.4754 -1.9455 -1.4136
 6393TIP3    H240739   5.427   0.754   1.105  0.2719 -1.7874 -1.3448
 6394TIP3   OH240740   1.194   3.620   1.589 -0.7106 -0.4577  0.3809
 6394TIP3    H140741   1.262   3.554   1.604  0.4251  0.9260  1.5772
 6394TIP3    H240742   1.146   3.587   1.513  1.4638 -1.3486 -0.6996
 6395TIP3   OH240743   2.636   0.524   1.952  0.5727  0.0148 -0.6919
 6395TIP3    H140744   2.657   0.508   2.044  0.9009  0.0574 -0.7608
 6395TIP3    H240745   2.696   0.469   1.903  0.4528  0.0530 -0.8849
 6396TIP3   OH240746   4.755   0.946   0.014  0.0401  0.2103  0.5579
 6396TIP3    H140747   4.819   0.965   0.082  0.4587 -1.7706  0.7765
 6396TIP3    H240748   4.800   0.886  -0.046 -1.1030 -0.0214 -0.1164
 6397TIP3   OH240749   4.740   3.951   8.308 -0.2757 -0.1038 -0.0905
 6397TIP3    H140750   4.672   3.899   8.266 -0.7912  1.3295 -1.0837
 6397TIP3    H240751   4.822   3.918   8.270 -0.6069 -0.0765 -0.8467
 6398TIP3   OH240752   4.226   3.797   0.478  0.1074  0.1321  0.4871
 6398TIP3    H140753   4.309   3.751   0.489  1.3392  2.4415  1.3693
 6398TIP3    H240754   4.170   3.733   0.434  2.0028 -1.8449  0.7521
 6399TIP3   OH240755   0.660   0.509   6.918 -0.3853 -0.2819  0.5771
 6399TIP3    H140756   0.746   0.473   6.900 -1.3432 -1.1125 -3.2377
 6399TIP3    H240757   0.626   0.456   6.991  0.9498 -2.3729 -0.2422
 6400TIP3   OH240758   0.748   6.329   6.890  0.1225  0.2545  0.0846
 6400TIP3    H140759   0.774   6.389   6.961 -0.9965 -0.0820  0.8055
 6400TIP3    H240760   0.779   6.243   6.919  0.7024  0.2897 -0.4052
 6401TIP3   OH240761   3.399   3.889   0.485 -0.4078  0.3614  0.2372
 6401TIP3    H140762   3.446   3.942   0.421 -0.3598  0.4837  0.3730
 6401TIP3    H240763   3.314   3.933   0.494 -1.6567 -1.3685 -2.0583
 6402TIP3   OH240764   4.955   6.164   7.426  0.1851  0.0133  0.7059
 6402TIP3    H140765   4.871   6.139   7.387  0.5701  0.4053 -0.4029
 6402TIP3    H240766   4.935   6.177   7.519 -0.8747 -0.3799  0.5470
 6403TIP3   OH240767   0.604   0.971   1.699  0.4151  0.3138  0.1074
 6403TIP3    H140768   0.529   0.946   1.644  1.7721  1.8317 -2.6633
 6403TIP3    H240769   0.565   1.014   1.775 -1.5802 -2.0704  0.5709
 6404TIP3   OH240770   3.407   6.132   2.066 -0.0169 -0.1793  0.4589
 6404TIP3    H140771   3.366   6.106   1.984  2.1712  1.4795 -1.3017
 6404TIP3    H240772   3.490   6.084   2.067  1.2031  1.7905  0.2542
 6405TIP3   OH240773   6.754   5.128   2.001 -0.0901  0.4205 -0.3903
 6405TIP3    H140774   6.682   5.136   1.938 -1.4806  0.5595  1.1380
 6405TIP3    H240775   6.719   5.166   2.082  1.0501 -1.1953  0.9179
 6406TIP3   OH240776   3.660   0.366   7.940  0.1898  0.8639  0.2396
 6406TIP3    H140777   3.669   0.455   7.905  0.8374  0.4672 -0.6374
 6406TIP3    H240778   3.709   0.311   7.879 -0.5359 -0.1544  0.5515
 6407TIP3   OH240779   5.847   0.148   1.056  0.6517 -0.1600 -0.5077
 6407TIP3    H140780   5.867   0.241   1.058  0.1849 -0.0437 -0.9410
 6407TIP3    H240781   5.895   0.114   0.980 -0.3981  0.0409 -1.2989
 6408TIP3   OH240782   6.265   0.961   6.653  0.0383  0.2686  0.1917
 6408TIP3    H140783   6.297   0.995   6.737 -0.4078  1.6712 -0.1869
 6408TIP3    H240784   6.310   0.877   6.643  0.8428  0.5309  1.3640
 6409TIP3   OH240785   4.701   5.043   8.312  0.0530  0.7311 -0.1417
 6409TIP3    H140786   4.626   5.002   8.355  0.9424  0.2103  0.9699
 6409TIP3    H240787   4.672   5.058   8.222 -1.8928  1.9487  0.6365
 6410TIP3   OH240788   4.507   5.195   0.487  0.3822 -0.3148 -0.3376
 6410TIP3    H140789   4.586   5.215   0.537 -0.0529 -1.3859  0.8469
 6410TIP3    H240790   4.495   5.100   0.498 -1.0356 -0.1765 -0.5100
 6411TIP3   OH240791   0.672   1.350   0.070  0.1460  0.8892  0.2136
 6411TIP3    H140792   0.740   1.287   0.095 -0.1012  0.8620  0.8445
 6411TIP3    H240793   0.658   1.335  -0.023  1.3650  1.2280 -0.0467
 6412TIP3   OH240794   5.964   6.732   2.521  0.3440 -0.0173  0.5571
 6412TIP3    H140795   6.039   6.679   2.494  1.1109  0.4484  1.6795
 6412TIP3    H240796   5.915   6.675   2.581  0.9320  0.3641  1.4224
 6413TIP3   OH240797   2.057   3.113   8.162 -0.2004  0.6051  0.3829
 6413TIP3    H140798   2.065   3.075   8.249 -0.1635 -0.4301 -0.0505
 6413TIP3    H240799   2.140   3.090   8.118 -0.3431  0.8475 -0.0257
 6414TIP3   OH240800   4.026   4.813   1.117  0.2634 -0.2598  0.2767
 6414TIP3    H140801   4.047   4.737   1.171 -3.3109 -1.1356  0.6666
 6414TIP3    H240802   3.983   4.777   1.040 -2.2948  1.3028  0.8562
 6415TIP3   OH240803   0.733   3.799   8.173  0.4923 -0.4617 -0.2626
 6415TIP3    H140804   0.779   3.750   8.105  0.8443 -1.4053  0.6321
 6415TIP3    H240805   0.717   3.735   8.242  1.0835  0.7006  0.9981
 6416TIP3   OH240806   6.194   2.355   6.908 -0.3023 -0.6035 -0.3155
 6416TIP3    H140807   6.189   2.416   6.834 -0.6143 -0.9201 -0.5639
 6416TIP3    H240808   6.287   2.351   6.930 -0.2649 -0.1431 -0.3828
 6417TIP3   OH240809   5.676   3.159   0.647  0.2157 -0.3836  0.5057
 6417TIP3    H140810   5.624   3.079   0.635  1.1168 -1.1765  1.6318
 6417TIP3    H240811   5.714   3.176   0.561 -0.1052 -1.0862  0.2147
 6418TIP3   OH240812   6.097   0.669   0.877  0.1316 -0.6397 -0.1577
 6418TIP3    H140813   6.027   0.718   0.834  0.0069  0.0886  0.8371
 6418TIP3    H240814   6.125   0.726   0.949  1.4615 -1.1014 -0.2896
 6419TIP3   OH240815   2.146   6.677   8.470 -0.3852 -0.0461 -0.5307
 6419TIP3    H140816   2.127   6.646   8.381 -0.3345 -2.1536  0.1405
 6419TIP3    H240817   2.226   6.632   8.495 -1.8880 -1.7629  1.5834
 6420TIP3   OH240818   5.614   1.006   7.942  0.3580 -0.4252  0.1164
 6420TIP3    H140819   5.573   0.978   7.861 -3.0627 -0.8931  1.8218
 6420TIP3    H240820   5.589   0.940   8.006  1.1172  1.0020  1.9961
 6421TIP3   OH240821   0.910   5.612   0.652  0.6781 -0.2780  0.7123
 6421TIP3    H140822   0.847   5.543   0.670  0.8853 -0.4119  0.9337
 6421TIP3    H240823   0.933   5.648   0.738 -0.2957  0.8533  0.5295
 6422TIP3   OH240824   2.324   0.260   8.265  0.0369 -0.1535  0.1364
 6422TIP3    H140825   2.271   0.181   8.257 -0.4868 -0.1134  2.4017
 6422TIP3    H240826   2.311   0.307   8.183 -1.0980 -1.5396 -0.5118
 6423TIP3   OH240827   0.065   1.943   0.813 -0.0368  0.5722 -0.2971
 6423TIP3    H140828   0.046   1.912   0.724  0.9499  0.5884 -0.5211
 6423TIP3    H240829  -0.020   1.944   0.856 -0.3512 -0.6914 -0.8433
 6424TIP3   OH240830   4.993   2.616   7.897 -0.0702  0.0710 -0.6860
 6424TIP3    H140831   5.022   2.664   7.820 -0.5704  0.7441 -0.4608
 6424TIP3    H240832   4.954   2.536   7.862 -0.0248  0.2331 -1.1158
 6425TIP3   OH240833   3.628   6.790   8.518  0.0318 -0.2271 -0.0774
 6425TIP3    H140834   3.659   6.718   8.463  1.0580 -0.8869  1.2912
 6425TIP3    H240835   3.672   6.868   8.483 -1.4423 -0.1208 -1.8606
 6426TIP3   OH240836   0.255   4.058   1.141 -0.2564 -0.1376  0.4106
 6426TIP3    H140837   0.258   4.137   1.195 -1.6125  0.5270 -0.4422
 6426TIP3    H240838   0.163   4.032   1.140 -0.1275 -0.6200 -0.8922
 6427TIP3   OH240839   3.365   6.514   7.619 -0.3905 -0.0452  0.0224
 6427TIP3    H140840   3.321   6.595   7.647 -1.0989 -0.1269 -0.8350
 6427TIP3    H240841   3.361   6.516   7.524  3.9553  1.3278 -0.3280
 6428TIP3   OH240842   5.214   4.655   8.596 -0.3702  0.1095 -0.1416
 6428TIP3    H140843   5.198   4.693   8.682  0.6218  0.2902 -0.0193
 6428TIP3    H240844   5.167   4.712   8.535 -0.5910  0.3204  0.2238
 6429TIP3   OH240845   6.750   1.505   0.803 -0.1207 -0.3148  0.0023
 6429TIP3    H140846   6.761   1.430   0.745 -1.8963 -0.2887 -0.4488
 6429TIP3    H240847   6.728   1.578   0.745 -0.7896 -0.0240  0.5993
 6430TIP3   OH240848   6.126   0.853   1.660  0.2457 -0.1028  0.0450
 6430TIP3    H140849   6.166   0.822   1.741  0.4822 -0.5563 -0.2382
 6430TIP3    H240850   6.167   0.938   1.644 -0.0755  0.1551  0.5954
 6431TIP3   OH240851   3.803   5.060   1.075  0.1198  0.0216  0.0987
 6431TIP3    H140852   3.761   4.979   1.046  1.3241 -0.3406 -0.7339
 6431TIP3    H240853   3.764   5.079   1.160 -1.8732 -0.1505 -0.7174
 6432TIP3   OH240854   4.449   2.380   0.325  0.5739  0.4067 -1.1360
 6432TIP3    H140855   4.503   2.427   0.388 -0.2760  0.5982 -0.5289
 6432TIP3    H240856   4.508   2.316   0.285  0.4241 -2.1969  2.3350
 6433TIP3   OH240857   3.972   1.676   1.447 -0.4972  0.2290  0.0077
 6433TIP3    H140858   3.979   1.660   1.353  1.4654  1.7389 -0.1664
 6433TIP3    H240859   3.922   1.757   1.455  0.1625  0.6309  0.1815
 6434TIP3   OH240860   4.827   5.994   1.345  0.2013 -0.1975 -0.0942
 6434TIP3    H140861   4.857   5.923   1.401 -0.7671 -0.4007  0.1901
 6434TIP3    H240862   4.800   6.063   1.406  1.8841  0.7504 -0.3793
 6435TIP3   OH240863   5.839   1.937   7.395  0.5558 -0.0112 -0.4879
 6435TIP3    H140864   5.829   1.909   7.304  0.7540 -0.2233 -0.4471
 6435TIP3    H240865   5.903   2.008   7.391  1.3411 -0.6977 -0.4042
 6436TIP3   OH240866   6.068   0.209   0.234  0.0699  0.1842 -0.2551
 6436TIP3    H140867   6.152   0.196   0.190  0.8564  1.6614  0.7116
 6436TIP3    H240868   6.004   0.218   0.164  1.2545  2.2874 -1.1536
 6437TIP3   OH240869   6.200   6.747   1.038 -0.6165 -0.3956 -0.0312
 6437TIP3    H140870   6.105   6.759   1.042 -0.4181  1.1541  1.1018
 6437TIP3    H240871   6.217   6.721   0.948 -2.1227 -0.8032 -0.2288
 6438TIP3   OH240872   0.328   4.308   7.799 -0.6596  0.2803 -0.1512
 6438TIP3    H140873   0.405   4.255   7.780 -2.8086 -3.1151 -0.3776
 6438TIP3    H240874   0.282   4.314   7.716 -0.6689  2.2748 -0.0332
 6439TIP3   OH240875   1.549   6.009   8.004  0.1536  0.0517  0.1529
 6439TIP3    H140876   1.502   5.986   8.084  1.4472 -2.4712  0.2848
 6439TIP3    H240877   1.486   5.993   7.934 -0.2494  0.0142  0.5164
 6440TIP3   OH240878   4.628   5.756   8.036  0.4436  0.3204  0.5679
 6440TIP3    H140879   4.634   5.834   8.093  1.2181  0.7738 -0.1068
 6440TIP3    H240880   4.693   5.696   8.073  0.8805  0.5781  0.2241
 6441TIP3   OH240881   5.443   1.483   6.151  0.3103  0.3568 -0.8990
 6441TIP3    H140882   5.424   1.533   6.230  0.6672  1.6331 -1.6024
 6441TIP3    H240883   5.378   1.412   6.151  0.2697  0.3705  0.4894
 6442TIP3   OH240884   5.571   2.253   8.575  0.0796 -0.2507  0.4827
 6442TIP3    H140885   5.542   2.314   8.507  1.3205 -0.5792 -0.3777
 6442TIP3    H240886   5.543   2.294   8.657  0.4073  1.2180 -0.1021
 6443TIP3   OH240887   6.740   5.021   8.522 -0.8762 -0.2182  0.8493
 6443TIP3    H140888   6.669   5.064   8.569 -1.6697 -0.5976  0.0372
 6443TIP3    H240889   6.699   4.989   8.441  0.0284 -1.1660  0.7426
 6444TIP3   OH240890   1.932   4.402   2.710  0.3298  0.1912  0.3460
 6444TIP3    H140891   1.873   4.347   2.761  1.3797 -0.9767  0.3587
 6444TIP3    H240892   1.886   4.416   2.627  0.4211 -1.5910 -0.0599
 6445TIP3   OH240893   1.311   2.449   1.187 -0.2383 -0.3538  0.8592
 6445TIP3    H140894   1.262   2.487   1.260 -0.0553 -0.2294  0.9186
 6445TIP3    H240895   1.259   2.471   1.109  0.3478  0.8558  0.7866
 6446TIP3   OH240896   2.076   2.584   1.798  0.5965 -0.1243 -0.8558
 6446TIP3    H140897   2.002   2.523   1.798 -0.0492  0.6385 -0.6399
 6446TIP3    H240898   2.107   2.584   1.708  1.5509 -1.8658 -0.5654
 6447TIP3   OH240899   5.929   6.619   0.907  0.5210  0.2695 -0.1854
 6447TIP3    H140900   5.977   6.537   0.895  0.8954  0.4690 -0.0993
 6447TIP3    H240901   5.861   6.599   0.971  1.1205  0.2194  0.4578
 6448TIP3   OH240902   0.513   0.865   8.504 -0.4991  1.0668 -0.4002
 6448TIP3    H140903   0.515   0.952   8.545 -2.0605  0.8630  0.1457
 6448TIP3    H240904   0.453   0.814   8.558 -1.2270  0.2592 -1.9102
 6449TIP3   OH240905   1.184   3.157   0.332  0.4413 -0.1329  0.0297
 6449TIP3    H140906   1.202   3.170   0.425  0.7736  0.3934 -0.1024
 6449TIP3    H240907   1.090   3.173   0.323  0.0026 -2.1178  0.5960
 6450TIP3   OH240908   2.606   2.956   0.740 -0.5467  0.2956  0.3821
 6450TIP3    H140909   2.598   2.951   0.645  0.0617 -1.0113  0.3782
 6450TIP3    H240910   2.580   2.870   0.771  0.9837  0.0998  1.2548
 6451TIP3   OH240911   6.293   0.395   6.933 -0.0445 -0.1227  0.0930
 6451TIP3    H140912   6.248   0.416   6.851 -0.2915 -0.6283  0.0960
 6451TIP3    H240913   6.298   0.478   6.980  0.4079  0.2434 -0.5806
 6452TIP3   OH240914   6.132   4.857   1.945 -0.2208 -0.4155 -0.5879
 6452TIP3    H140915   6.149   4.897   1.860 -0.0440 -3.1264 -1.9167
 6452TIP3    H240916   6.213   4.868   1.994  1.0301 -2.0073 -2.1743
 6453TIP3   OH240917   1.591   3.026   7.155 -0.6320 -0.5111 -0.0669
 6453TIP3    H140918   1.653   3.053   7.087  0.2316 -0.1150  0.8638
 6453TIP3    H240919   1.521   3.091   7.151  0.0609  0.2557  0.3027
 6454TIP3   OH240920   4.814   2.014   6.671  0.6136 -0.1362  0.1748
 6454TIP3    H140921   4.748   1.952   6.703 -0.1388  0.8586  0.5786
 6454TIP3    H240922   4.890   1.959   6.651  0.5816 -0.9865  2.1772
 6455TIP3   OH240923   4.539   5.093   8.094 -0.0160  0.2883 -0.4974
 6455TIP3    H140924   4.482   5.040   8.039 -3.3798  1.9373  1.1170
 6455TIP3    H240925   4.520   5.183   8.069  0.3348  0.9783  1.5339
 6456TIP3   OH240926   3.012   3.806   1.039  0.3510  0.2772  0.5945
 6456TIP3    H140927   3.101   3.775   1.021  1.2051  1.5961  2.2832
 6456TIP3    H240928   3.014   3.899   1.019 -0.8861  0.2122  0.0053
 6457TIP3   OH240929   0.303   4.677   7.850 -0.2246 -0.0044  0.4663
 6457TIP3    H140930   0.310   4.593   7.895 -1.0424 -0.2719  0.1265
 6457TIP3    H240931   0.364   4.735   7.895 -0.1511 -0.5987  1.1337
 6458TIP3   OH240932   2.736   5.159   8.535  0.4421 -0.3294  0.1073
 6458TIP3    H140933   2.794   5.097   8.579 -0.6715  0.2320  2.5330
 6458TIP3    H240934   2.648   5.127   8.554 -0.1038  0.7678 -0.4752
 6459TIP3   OH240935   2.340   3.588   7.013  0.0092  1.0096 -0.5372
 6459TIP3    H140936   2.284   3.579   7.090  1.6871 -0.2781  0.6226
 6459TIP3    H240937   2.279   3.595   6.940 -1.7109 -1.3493  0.5278
 6460TIP3   OH240938   4.068   6.762   6.807  0.1833 -0.0547 -0.4364
 6460TIP3    H140939   3.990   6.800   6.766  0.1144 -1.5809 -1.8154
 6460TIP3    H240940   4.046   6.756   6.900 -0.9743  0.3942 -0.6676
 6461TIP3   OH240941   3.914   5.573   0.906  0.5601  0.0684 -0.2127
 6461TIP3    H140942   3.925   5.642   0.972 -0.4020  0.6093 -0.5867
 6461TIP3    H240943   3.859   5.614   0.839  1.4120 -0.5081 -1.2922
 6462TIP3   OH240944   2.610   4.548   5.915  0.4989  0.1520  0.2025
 6462TIP3    H140945   2.556   4.572   5.991  0.2068 -0.6037  0.2467
 6462TIP3    H240946   2.579   4.460   5.892  0.9492  0.1723 -0.4694
 6463TIP3   OH240947   6.087   6.451   7.025  0.1671 -0.1330  0.6900
 6463TIP3    H140948   6.056   6.507   7.096  0.2013 -1.1276  1.5076
 6463TIP3    H240949   6.154   6.395   7.065  2.0231  0.9537 -0.6771
 6464TIP3   OH240950   1.511   0.558   1.224  0.5863  0.0550  0.7846
 6464TIP3    H140951   1.551   0.577   1.309 -0.9705 -0.1375  1.6094
 6464TIP3    H240952   1.532   0.466   1.208  1.1321  0.1711  0.8115
 6465TIP3   OH240953   3.378   6.175   8.072 -0.0212 -0.6050 -0.0380
 6465TIP3    H140954   3.339   6.109   8.016  0.0052 -0.0429 -0.7302
 6465TIP3    H240955   3.469   6.181   8.043 -0.0890 -0.0865 -0.1647
 6466TIP3   OH240956   3.929   6.303   7.150 -0.1172  0.1691  0.4172
 6466TIP3    H140957   3.924   6.216   7.110  1.0489 -0.1100  0.8280
 6466TIP3    H240958   4.019   6.331   7.136  0.4390 -0.0490  3.0204
 6467TIP3   OH240959   0.707   4.887   8.582 -0.1648 -0.2045  0.3929
 6467TIP3    H140960   0.664   4.883   8.496  0.3187 -0.2600  0.1481
 6467TIP3    H240961   0.646   4.935   8.637 -0.0409  0.7086 -0.2504
 6468TIP3   OH240962   3.050   2.208   2.034  0.1370  0.0721 -0.1705
 6468TIP3    H140963   3.088   2.172   1.954 -1.2057  2.1704 -1.8819
 6468TIP3    H240964   3.116   2.270   2.065  0.5306 -0.5220  0.1975
 6469TIP3   OH240965   2.190   6.040   7.326 -0.2216  0.3866 -0.3443
 6469TIP3    H140966   2.124   5.976   7.300 -1.5254  0.5350  2.2414
 6469TIP3    H240967   2.148   6.125   7.314  0.3311  0.6088 -0.7612
 6470TIP3   OH240968   4.122   1.404   8.273  0.4334  0.0628 -0.0323
 6470TIP3    H140969   4.204   1.439   8.307  0.0409  0.8879  0.0930
 6470TIP3    H240970   4.119   1.432   8.182 -0.3216  1.1823  0.3237
 6471TIP3   OH240971   3.966   4.150   0.365  0.4308  0.0415  0.2680
 6471TIP3    H140972   4.057   4.124   0.349  0.9827  1.7813  0.3307
 6471TIP3    H240973   3.971   4.206   0.443 -0.7854 -0.3132  0.6155
 6472TIP3   OH240974   3.388   5.207   2.134  0.4251 -0.3021 -0.8434
 6472TIP3    H140975   3.453   5.200   2.064  0.3120  0.0659 -0.9852
 6472TIP3    H240976   3.407   5.291   2.176  1.2697 -1.0441  0.3444
 6473TIP3   OH240977   4.548   1.158   7.530 -0.3307 -0.1683  0.3436
 6473TIP3    H140978   4.469   1.211   7.523  0.4218  1.0491  0.7425
 6473TIP3    H240979   4.612   1.202   7.473 -0.0933 -1.4633 -0.4336
 6474TIP3   OH240980   6.354   0.639   6.503  0.2037 -0.4125 -0.1528
 6474TIP3    H140981   6.300   0.663   6.428  2.6921 -0.5639 -2.1243
 6474TIP3    H240982   6.441   0.672   6.482  1.5230 -2.4543  1.6023
 6475TIP3   OH240983   1.809   1.358   1.104  0.4439  0.8733  0.2566
 6475TIP3    H140984   1.767   1.366   1.018 -0.1708  1.2397  0.5844
 6475TIP3    H240985   1.762   1.420   1.160  1.8222  1.7545  0.4902
 6476TIP3   OH240986   4.582   2.828   0.064  0.0850 -0.0753 -0.3330
 6476TIP3    H140987   4.556   2.901   0.120 -0.6030  0.3682 -1.1994
 6476TIP3    H240988   4.506   2.813   0.007  0.8763 -0.2927 -1.3718
 6477TIP3   OH240989   1.995   3.256   0.965  0.3079  0.1497 -0.5537
 6477TIP3    H140990   2.006   3.272   0.872 -0.2204 -0.5702 -0.7538
 6477TIP3    H240991   1.969   3.341   1.002 -2.7638 -0.1843 -1.6219
 6478TIP3   OH240992   0.146   0.376   6.746  0.0543  0.9044  0.2578
 6478TIP3    H140993   0.172   0.353   6.835  0.0072 -3.3077 -0.5776
 6478TIP3    H240994   0.228   0.376   6.697 -0.2445 -0.5761 -0.2930
 6479TIP3   OH240995   5.217   3.566   2.285 -0.4172 -0.6620 -0.3021
 6479TIP3    H140996   5.282   3.542   2.351 -1.9688 -3.0845  0.4373
 6479TIP3    H240997   5.239   3.512   2.209  0.3275  0.8879 -1.2453
 6480TIP3   OH240998   6.741   1.857   7.025  0.1951  0.4255  0.6497
 6480TIP3    H140999   6.825   1.864   6.980  0.3796 -2.0538  0.5194
 6480TIP3    H241000   6.689   1.798   6.971 -1.0074  0.5163  1.6571
 6481TIP3   OH241001   1.971   4.789   8.426 -0.4042 -0.4364  0.1746
 6481TIP3    H141002   2.008   4.866   8.383 -2.0001 -0.3548 -1.1325
 6481TIP3    H241003   1.908   4.826   8.489  0.1762 -0.6366  0.8851
 6482TIP3   OH241004   6.377   5.029   6.568 -0.2229  0.0046  0.5336
 6482TIP3    H141005   6.405   5.119   6.580  1.9040 -0.2924 -1.4781
 6482TIP3    H241006   6.284   5.035   6.547 -0.8089  1.4269  3.0804
 6483TIP3   OH241007   1.487   2.466   0.833 -0.3350  0.4324 -0.0115
 6483TIP3    H141008   1.416   2.402   0.843  0.5447 -0.9087 -1.6496
 6483TIP3    H241009   1.503   2.468   0.738  1.5034  1.0203  0.2783
 6484TIP3   OH241010   1.113   2.183   1.484  0.1360 -0.3412  0.5324
 6484TIP3    H141011   1.113   2.278   1.469  0.8117 -0.0514  2.1985
 6484TIP3    H241012   1.163   2.148   1.410 -1.6698  0.3836 -1.0986
 6485TIP3   OH241013   4.296   0.366   1.408 -0.6525 -0.5680  0.5000
 6485TIP3    H141014   4.289   0.306   1.334  0.1752  0.0280 -0.0689
 6485TIP3    H241015   4.358   0.324   1.468  1.0167  0.3433 -0.5374
 6486TIP3   OH241016   6.588   0.151   0.117 -0.8349  0.1736 -0.3634
 6486TIP3    H141017   6.606   0.242   0.092 -3.6050  0.5765 -1.3126
 6486TIP3    H241018   6.671   0.106   0.106 -0.2468  1.7859 -3.7920
 6487TIP3   OH241019   6.775   3.192   7.057 -0.2461  0.2040 -0.2280
 6487TIP3    H141020   6.815   3.213   6.973  0.2438  1.8360  0.3749
 6487TIP3    H241021   6.684   3.221   7.048 -0.1021  0.7079 -0.0875
 6488TIP3   OH241022   3.039   2.593   0.133 -0.5717  0.0276  0.1171
 6488TIP3    H141023   3.061   2.556   0.047  0.5425 -0.2287  0.5030
 6488TIP3    H241024   2.953   2.633   0.120 -0.8372 -0.8226 -0.8722
 6489TIP3   OH241025   6.021   0.496   8.392  0.2823 -0.0230  0.0935
 6489TIP3    H141026   6.069   0.415   8.410  1.3423  0.4643 -0.4660
 6489TIP3    H241027   5.936   0.483   8.434  0.3207 -1.5474 -0.2324
 6490TIP3   OH241028   4.445   6.228   0.631 -0.1985  0.4300  0.4858
 6490TIP3    H141029   4.367   6.228   0.575  0.0759  0.1638  0.0963
 6490TIP3    H241030   4.514   6.189   0.577 -0.0098 -0.1585  1.1312
 6491TIP3   OH241031   5.587   6.867   0.113  0.1959  0.4390  0.7060
 6491TIP3    H141032   5.553   6.944   0.159 -1.1458 -0.1740  0.7782
 6491TIP3    H241033   5.670   6.849   0.157 -0.4391  0.6478  2.0417
 6492TIP3   OH241034   2.761   0.516   0.313  0.2676  0.5415 -0.1014
 6492TIP3    H141035   2.665   0.522   0.311 -0.0218 -2.0723  1.5525
 6492TIP3    H241036   2.785   0.494   0.222 -1.0077 -1.2543 -0.0664
 6493TIP3   OH241037   6.579   5.739   8.588  0.1131  0.0358  0.0516
 6493TIP3    H141038   6.623   5.654   8.587 -0.5621 -0.3361  0.6460
 6493TIP3    H241039   6.616   5.785   8.663  0.1990  0.1070 -0.0358
 6494TIP3   OH241040   1.449   5.643   1.766 -0.0873 -0.1560  0.7201
 6494TIP3    H141041   1.359   5.608   1.763 -0.1063 -0.0696 -1.9326
 6494TIP3    H241042   1.463   5.679   1.678  1.7144  2.0268  1.8327
 6495TIP3   OH241043   3.720   3.363   8.467 -0.1941 -0.4453 -0.7478
 6495TIP3    H141044   3.724   3.457   8.482  2.1531 -0.4968 -0.6983
 6495TIP3    H241045   3.632   3.348   8.431 -0.6684  1.7082 -0.6235
 6496TIP3   OH241046   0.134   0.532   0.143 -0.1077  0.0726 -0.8091
 6496TIP3    H141047   0.056   0.479   0.129 -1.1398  1.3212  0.0459
 6496TIP3    H241048   0.102   0.612   0.184  1.9402 -0.6974  2.7207
 6497TIP3   OH241049   2.222   2.489   0.078  0.2080 -0.2770  0.0991
 6497TIP3    H141050   2.217   2.505  -0.016 -2.2105 -1.8542 -0.1141
 6497TIP3    H241051   2.297   2.430   0.089  0.6250  0.0698 -0.7667
 6498TIP3   OH241052   2.011   0.790   0.763  0.1045  0.0055  0.7348
 6498TIP3    H141053   2.048   0.730   0.698 -3.5701 -0.6399 -1.0147
 6498TIP3    H241054   1.980   0.864   0.711 -2.7404 -0.4169  1.6710
 6499TIP3   OH241055   5.537   1.960   7.222  0.3544 -0.5247 -0.2483
 6499TIP3    H141056   5.480   1.959   7.145 -0.8044 -0.3949  0.5810
 6499TIP3    H241057   5.605   2.025   7.201 -1.7029  1.8474  0.0420
 6500TIP3   OH241058   2.884   5.979   8.670 -0.1079  0.3842  0.4839
 6500TIP3    H141059   2.930   6.040   8.613 -0.1010  1.3687  1.5075
 6500TIP3    H241060   2.812   6.031   8.708  1.0030  0.3581  2.8245
 6501TIP3   OH241061   4.088   1.510   1.675  0.3630  0.1099  0.6567
 6501TIP3    H141062   4.071   1.566   1.599  2.8182  0.3423  0.1870
 6501TIP3    H241063   4.075   1.421   1.644  1.2731  0.2112 -0.0309
 6502TIP3   OH241064   5.334   0.687   8.004  0.3172  0.0284  0.5082
 6502TIP3    H141065   5.327   0.619   7.937  1.6229 -0.1707  0.5511
 6502TIP3    H241066   5.334   0.639   8.087 -0.6961  0.2336  0.6391
 6503TIP3   OH241067   6.296   2.276   2.127 -0.4241  0.3074  0.0459
 6503TIP3    H141068   6.345   2.330   2.190  2.1021 -1.1999 -0.4593
 6503TIP3    H241069   6.363   2.245   2.066 -2.2730 -0.9496 -1.4429
 6504TIP3   OH241070   2.111   6.229   7.653  0.1015 -0.0756 -0.3152
 6504TIP3    H141071   2.132   6.254   7.743 -1.7081 -1.9061  0.6744
 6504TIP3    H241072   2.078   6.310   7.613  1.8575  1.0054  0.3020
 6505TIP3   OH241073   2.512   2.828   8.652  0.1628  0.6905 -0.6210
 6505TIP3    H141074   2.422   2.860   8.659  0.7324  2.1094  0.8551
 6505TIP3    H241075   2.515   2.782   8.568 -2.4721 -1.1795  0.1803
 6506TIP3   OH241076   1.684   4.751   6.693  0.0392 -0.5146 -0.4116
 6506TIP3    H141077   1.591   4.756   6.713  0.2931  2.2552  0.5013
 6506TIP3    H241078   1.716   4.679   6.747 -1.5449 -1.6400 -0.8790
 6507TIP3   OH241079   5.877   5.818   6.794  0.3463  0.6592  0.1823
 6507TIP3    H141080   5.960   5.851   6.830  0.3448  0.1049  0.7163
 6507TIP3    H241081   5.815   5.890   6.809  0.5395  0.7574  0.5421
 6508TIP3   OH241082   1.862   4.361   1.177 -0.1150  0.2792 -0.4939
 6508TIP3    H141083   1.880   4.437   1.122  0.0558  0.4127 -0.2573
 6508TIP3    H241084   1.899   4.287   1.128 -0.1327  0.3710 -0.6461
 6509TIP3   OH241085   0.209   3.442   7.225 -0.0251 -0.4016 -0.3629
 6509TIP3    H141086   0.232   3.532   7.247  0.6359 -1.1095  2.2205
 6509TIP3    H241087   0.252   3.426   7.141  0.5224  1.4302 -0.4760
 6510TIP3   OH241088   0.577   2.764   1.045  0.0896  0.3083 -0.2610
 6510TIP3    H141089   0.598   2.844   0.996 -1.3313  0.5023 -0.5759
 6510TIP3    H241090   0.482   2.760   1.046  0.0531 -2.5661 -2.2807
 6511TIP3   OH241091   6.068   0.667   8.050  0.0779  0.0982  0.4172
 6511TIP3    H141092   6.080   0.703   8.138 -0.4020 -0.1970  0.6080
 6511TIP3    H241093   6.006   0.726   8.008  0.1251  0.1030  0.3529
 6512TIP3   OH241094   2.351   4.339   6.637  0.3843 -0.0177 -0.0007
 6512TIP3    H141095   2.418   4.275   6.661  1.7955  1.8258  1.2540
 6512TIP3    H241096   2.395   4.400   6.579 -1.0589 -0.3722 -1.5337
 6513TIP3   OH241097   2.774   6.776   6.725  0.3601  0.3802 -0.4544
 6513TIP3    H141098   2.817   6.725   6.656  1.7458 -0.3517  0.8756
 6513TIP3    H241099   2.805   6.737   6.807 -1.0881  1.3289  0.6066
 6514TIP3   OH241100   5.697   6.179   7.114  0.3044  0.1002  0.6074
 6514TIP3    H141101   5.640   6.248   7.149 -0.7188 -0.8524  0.8671
 6514TIP3    H241102   5.652   6.097   7.134  0.5896 -0.5848 -1.3253
 6515TIP3   OH241103   1.574   2.473   1.104 -0.5176 -0.1754 -0.7182
 6515TIP3    H141104   1.488   2.440   1.131 -2.6845  3.5823 -2.1300
 6515TIP3    H241105   1.568   2.478   1.008  1.4940 -0.2492 -0.8905
 6516TIP3   OH241106   3.702   1.656   6.807 -0.5513  0.1740  0.5777
 6516TIP3    H141107   3.706   1.594   6.880  1.6152 -0.1438  0.2638
 6516TIP3    H241108   3.794   1.679   6.790 -1.0945  1.2322 -1.2193
 6517TIP3   OH241109   1.240   6.579   7.301  0.7091 -0.8170 -0.4956
 6517TIP3    H141110   1.184   6.522   7.249  1.0359  0.4521 -2.3236
 6517TIP3    H241111   1.203   6.573   7.390 -1.0962 -1.5432 -1.2367
 6518TIP3   OH241112   0.393   0.585   8.267  0.1253  0.2144 -0.5076
 6518TIP3    H141113   0.390   0.554   8.357  1.8647 -3.2789 -1.4800
 6518TIP3    H241114   0.323   0.537   8.222  1.1079 -0.3084 -1.5441
 6519TIP3   OH241115   5.131   6.003   8.666 -0.5818  0.2982 -0.2177
 6519TIP3    H141116   5.214   6.039   8.696  0.8080 -0.8374 -2.4924
 6519TIP3    H241117   5.110   5.934   8.729 -0.2104  1.0827  0.7834
 6520TIP3   OH241118   3.483   1.216   6.394  0.0509 -1.0124  0.5048
 6520TIP3    H141119   3.396   1.201   6.431 -1.4846  0.6020 -2.0726
 6520TIP3    H241120   3.518   1.129   6.377 -1.7395 -1.7236  0.2444
 6521TIP3   OH241121   0.608   6.376   1.386 -0.7502 -0.0642 -0.6743
 6521TIP3    H141122   0.582   6.328   1.465  0.9340  0.4446  0.2127
 6521TIP3    H241123   0.561   6.459   1.391 -1.6000 -0.5133 -0.8681
 6522TIP3   OH241124   5.702   3.937   1.067 -0.1685 -0.1715 -0.2479
 6522TIP3    H141125   5.689   3.904   0.978 -0.0169  0.7113 -0.6132
 6522TIP3    H241126   5.652   3.877   1.123  0.8999 -1.5954 -0.7600
 6523TIP3   OH241127   4.584   0.736   2.132  0.4567  0.1747 -0.0847
 6523TIP3    H141128   4.490   0.736   2.111  0.3111  2.0641  0.3399
 6523TIP3    H241129   4.597   0.655   2.181 -0.4145 -1.3611 -2.2324
 6524TIP3   OH241130   2.777   0.252   2.251 -0.0559 -0.5734  0.1714
 6524TIP3    H141131   2.866   0.245   2.217 -0.3944  0.0148 -0.8908
 6524TIP3    H241132   2.747   0.338   2.222 -0.4413 -0.1154  1.8442
 6525TIP3   OH241133   3.531   4.499   0.683 -0.0639  0.6919  0.0770
 6525TIP3    H141134   3.537   4.560   0.610  0.0651  0.1826 -0.3466
 6525TIP3    H241135   3.502   4.552   0.757  1.7838  1.6577  0.1772
 6526TIP3   OH241136   6.456   2.121   1.872  0.0963 -0.2139 -0.0288
 6526TIP3    H141137   6.518   2.194   1.875  0.7010 -0.6934 -0.3791
 6526TIP3    H241138   6.466   2.077   1.957  1.3673 -1.1630 -0.6141
 6527TIP3   OH241139   5.434   6.031   7.139 -0.6922 -0.9099  0.1285
 6527TIP3    H141140   5.403   5.960   7.197 -2.2568 -0.6175 -0.2975
 6527TIP3    H241141   5.396   6.110   7.177 -1.5773 -0.6929 -1.1629
 6528TIP3   OH241142   1.681   1.145   0.695  0.1305  0.3299  0.6375
 6528TIP3    H141143   1.762   1.151   0.745  0.2558 -0.0957  0.4925
 6528TIP3    H241144   1.621   1.098   0.752 -0.2195  1.1986  0.9948
 6529TIP3   OH241145   0.795   5.157   2.370  0.4923  0.5428 -0.2702
 6529TIP3    H141146   0.834   5.205   2.443  0.1928 -0.9432  0.9331
 6529TIP3    H241147   0.868   5.140   2.311  0.9515  0.8911  0.1837
 6530TIP3   OH241148   2.516   4.412   1.644  0.2310 -0.1214  0.1429
 6530TIP3    H141149   2.469   4.360   1.578 -0.2723  0.4005  0.0802
 6530TIP3    H241150   2.580   4.351   1.681 -2.1341 -1.6779  2.0305
 6531TIP3   OH241151   1.510   4.653   0.279 -0.0002 -0.2333  0.5737
 6531TIP3    H141152   1.479   4.593   0.212 -1.7082  0.2150  0.9003
 6531TIP3    H241153   1.522   4.599   0.357  1.9969 -0.7556 -0.0442
 6532TIP3   OH241154   0.991   6.764   0.152 -0.2657  0.4504  0.8417
 6532TIP3    H141155   0.960   6.677   0.127  0.5750  0.6571 -1.0510
 6532TIP3    H241156   1.064   6.747   0.212  0.1480 -0.1577  0.1729
 6533TIP3   OH241157   5.525   4.527   8.321 -0.2796  0.4142  0.0152
 6533TIP3    H141158   5.565   4.457   8.270 -0.8487 -0.5632  0.8613
 6533TIP3    H241159   5.496   4.591   8.256 -0.8638 -0.7264 -0.8835
 6534TIP3   OH241160   6.738   0.685   8.610  0.1309  0.1651 -0.2245
 6534TIP3    H141161   6.731   0.611   8.670 -0.1513  0.7453  0.4736
 6534TIP3    H241162   6.825   0.721   8.626 -0.5863  1.4084  1.1692
 6535TIP3   OH241163   1.644   0.147   1.515 -0.6332 -0.3477 -0.3655
 6535TIP3    H141164   1.709   0.152   1.445  0.0073 -4.5065 -0.3177
 6535TIP3    H241165   1.697   0.143   1.596 -1.2246  1.1096  0.1215
 6536TIP3   OH241166   3.630   3.410   1.154  0.1173  0.1656  0.6214
 6536TIP3    H141167   3.637   3.439   1.245 -0.1905  2.6653 -0.0615
 6536TIP3    H241168   3.721   3.401   1.125  0.3786  2.9436  0.2431
 6537TIP3   OH241169   3.968   0.467   0.803  0.0153  0.0998 -0.0398
 6537TIP3    H141170   4.041   0.412   0.833 -0.6017 -0.3137  0.7606
 6537TIP3    H241171   3.964   0.537   0.868 -0.4393 -0.0051  0.0464
 6538TIP3   OH241172   3.412   4.696   8.542 -0.5406 -0.3906  0.3172
 6538TIP3    H141173   3.403   4.625   8.478 -0.9829  0.3127 -0.4238
 6538TIP3    H241174   3.350   4.763   8.513  0.7762  0.8551  0.2160
 6539TIP3   OH241175   2.137   0.091   8.459 -0.0962  0.1763  0.1319
 6539TIP3    H141176   2.131  -0.001   8.484 -0.6731  0.0091 -0.5637
 6539TIP3    H241177   2.047   0.124   8.468  0.2065  0.8205  0.9093
 6540TIP3   OH241178   5.232   3.798   7.961  0.0659  0.0915  0.4700
 6540TIP3    H141179   5.186   3.732   8.013  0.2539  1.2775  2.2215
 6540TIP3    H241180   5.258   3.865   8.024  1.1290  1.1644 -1.0255
 6541TIP3   OH241181   3.724   5.707   0.256  0.8451  0.2046 -0.6764
 6541TIP3    H141182   3.649   5.726   0.313  0.6149 -0.0247 -0.8960
 6541TIP3    H241183   3.752   5.620   0.283 -0.4168 -0.7084 -2.1142
 6542TIP3   OH241184   6.778   2.786   8.021  0.2752  0.0400  0.2325
 6542TIP3    H141185   6.693   2.829   8.034 -0.2882 -0.9121 -0.1936
 6542TIP3    H241186   6.842   2.856   8.030 -0.5662  0.8025  0.4173
 6543TIP3   OH241187   2.758   0.344   1.082  0.3801 -0.5637  0.0268
 6543TIP3    H141188   2.753   0.439   1.074 -1.1887 -0.5184  1.0995
 6543TIP3    H241189   2.710   0.310   1.007  1.4945 -0.5414 -0.7126
 6544TIP3   OH241190   1.460   4.608   8.247 -0.5008  0.0979  0.2034
 6544TIP3    H141191   1.554   4.623   8.249 -0.6334  0.8912  2.0627
 6544TIP3    H241192   1.428   4.670   8.181  0.2143  0.0771 -0.1798
 6545TIP3   OH241193   3.152   2.314   8.412 -0.9391 -0.2479 -0.4753
 6545TIP3    H141194   3.158   2.268   8.328 -1.0441 -0.8987 -0.1343
 6545TIP3    H241195   3.198   2.257   8.473  0.2753  0.8408 -0.3364
 6546TIP3   OH241196   1.805   4.210   6.711 -0.9370 -0.4013  0.3010
 6546TIP3    H141197   1.855   4.133   6.740  1.3105  1.4442  1.7282
 6546TIP3    H241198   1.810   4.208   6.616 -0.0552 -1.4780  0.3486
 6547TIP3   OH241199   4.756   4.040   6.487 -0.3268  0.5257 -0.5936
 6547TIP3    H141200   4.717   3.989   6.558 -0.5225  1.9865  0.3943
 6547TIP3    H241201   4.844   4.004   6.477 -1.2299 -1.5512 -1.5639
 6548TIP3   OH241202   5.248   6.125   1.120 -0.3817  0.3237  0.1800
 6548TIP3    H141203   5.214   6.214   1.130  2.2329  1.1823  2.6561
 6548TIP3    H241204   5.315   6.133   1.052 -0.2804  0.1916  0.2648
 6549TIP3   OH241205   0.419   6.162   0.411  0.1835 -0.1129 -0.7816
 6549TIP3    H141206   0.458   6.246   0.434  0.9139 -0.4299 -0.8280
 6549TIP3    H241207   0.337   6.159   0.461  1.4633 -0.5517  1.4504
 6550TIP3   OH241208   2.239   0.307   8.608 -0.2858 -0.2010  0.5243
 6550TIP3    H141209   2.207   0.242   8.544 -1.5830 -0.0712  1.0074
 6550TIP3    H241210   2.189   0.386   8.588  0.9724  0.5408  0.2316
 6551TIP3   OH241211   5.081   4.092   1.967  0.0698 -0.3594 -0.0670
 6551TIP3    H141212   5.132   4.157   2.017  4.5468 -1.6808 -2.3193
 6551TIP3    H241213   5.071   4.018   2.027  1.0362 -0.1163  0.4135
 6552TIP3   OH241214   3.373   4.475   6.976 -0.6115 -0.4410 -0.5023
 6552TIP3    H141215   3.379   4.445   6.885 -1.3609 -2.2761  0.0112
 6552TIP3    H241216   3.452   4.440   7.017  0.8528  2.1802 -0.8503
 6553TIP3   OH241217   6.185   5.448   0.246 -0.2069 -0.1247 -0.0669
 6553TIP3    H141218   6.221   5.399   0.172 -1.5677 -1.1915 -0.0585
 6553TIP3    H241219   6.097   5.474   0.217 -0.7533 -0.5573  1.1715
 6554TIP3   OH241220   5.721   6.364   1.495  0.7603 -0.1512  0.2050
 6554TIP3    H141221   5.765   6.352   1.411 -0.6705  1.4567 -0.8657
 6554TIP3    H241222   5.787   6.406   1.551  1.2281  0.3532 -0.6958
 6555TIP3   OH241223   4.210   3.635   7.442  0.4913 -0.6907  0.3940
 6555TIP3    H141224   4.295   3.593   7.429  0.2549 -1.1826  0.3863
 6555TIP3    H241225   4.169   3.584   7.513 -0.4256 -1.4708 -0.6436
 6556TIP3   OH241226   3.008   4.959   6.710 -0.1131  0.0918  0.4992
 6556TIP3    H141227   3.002   4.952   6.615 -0.5297 -1.2840  0.5959
 6556TIP3    H241228   3.012   5.053   6.728  3.6056  0.4083 -1.0779
 6557TIP3   OH241229   1.785   3.958   7.689  0.2061 -0.3213  0.0417
 6557TIP3    H141230   1.781   3.957   7.594 -0.9065  1.3271  0.0158
 6557TIP3    H241231   1.783   3.866   7.715  0.9451 -0.8087 -1.5135
 6558TIP3   OH241232   0.428   1.568   0.706  0.3995 -0.6446  0.2294
 6558TIP3    H141233   0.376   1.599   0.781  0.8149 -0.8018  0.5906
 6558TIP3    H241234   0.501   1.630   0.701 -0.7788  0.6901 -1.4341
 6559TIP3   OH241235   1.275   4.809   0.980  0.0662 -0.4717 -0.1881
 6559TIP3    H141236   1.275   4.776   1.070 -2.1774 -1.2416 -0.4113
 6559TIP3    H241237   1.297   4.902   0.989 -1.6632 -0.1552  1.3717
 6560TIP3   OH241238   5.680   0.239   0.089 -0.5841 -0.5843  0.1416
 6560TIP3    H141239   5.771   0.226   0.061 -0.1418 -0.3403  1.3837
 6560TIP3    H241240   5.654   0.322   0.047 -0.4726 -0.9915 -0.7554
 6561TIP3   OH241241   5.764   3.214   2.001  0.3500  0.2812  0.3038
 6561TIP3    H141242   5.821   3.262   1.942  2.2169 -1.2503  0.7394
 6561TIP3    H241243   5.730   3.280   2.062  1.2470  1.3255 -0.2932
 6562TIP3   OH241244   1.852   0.365   8.011 -0.1845  0.0030 -0.5962
 6562TIP3    H141245   1.889   0.408   7.934 -0.8509  0.1877 -0.8203
 6562TIP3    H241246   1.767   0.331   7.982 -1.2358  1.5781  0.4816
 6563TIP3   OH241247   0.271   0.885   0.402  0.5966 -0.2367  0.5519
 6563TIP3    H141248   0.353   0.841   0.426  1.2067  0.8799  0.5346
 6563TIP3    H241249   0.214   0.871   0.478  0.3776 -1.9934  0.1117
 6564TIP3   OH241250   6.564   5.280   7.948  0.2953 -0.1879  0.2091
 6564TIP3    H141251   6.517   5.241   8.022 -0.3972  1.4936  0.6937
 6564TIP3    H241252   6.572   5.373   7.970 -0.3698  0.4679 -2.0329
 6565TIP3   OH241253   5.688   4.238   6.813  0.0231  0.3982  0.0097
 6565TIP3    H141254   5.612   4.292   6.837 -1.0432  0.0950 -2.4125
 6565TIP3    H241255   5.672   4.154   6.855 -1.6736 -0.0542 -1.4097
 6566TIP3   OH241256   5.968   3.369   6.662 -0.1148  0.6497 -0.2509
 6566TIP3    H141257   5.891   3.400   6.613  0.0212  0.8363 -0.3494
 6566TIP3    H241258   5.981   3.435   6.730 -0.5029  0.2173  0.2529
 6567TIP3   OH241259   1.619   1.437   0.893 -1.0465 -0.0275  0.1546
 6567TIP3    H141260   1.570   1.507   0.851  0.8214  0.9575 -0.4931
 6567TIP3    H241261   1.578   1.356   0.860 -3.0810  0.7116  0.7406
 6568TIP3   OH241262   2.157   4.858   0.822  0.0326 -0.0962 -0.5278
 6568TIP3    H141263   2.132   4.780   0.872  0.8668 -0.2515 -0.3450
 6568TIP3    H241264   2.080   4.877   0.769 -0.9386  0.1491  0.9075
 6569TIP3   OH241265   1.335   0.909   8.237  0.3435  0.0671 -0.3852
 6569TIP3    H141266   1.305   0.830   8.282 -0.8576 -0.7780 -2.5425
 6569TIP3    H241267   1.404   0.878   8.178  2.3617  1.2617  1.2211
 6570TIP3   OH241268   3.171   0.877   8.573  0.5398 -0.0867 -0.0311
 6570TIP3    H141269   3.245   0.880   8.634  0.5299 -0.4712  0.0021
 6570TIP3    H241270   3.122   0.799   8.599  0.6186 -0.3407 -0.6257
 6571TIP3   OH241271   3.986   5.126   8.171  0.5363  0.5770  0.9961
 6571TIP3    H141272   3.898   5.149   8.142  0.2652 -1.4718  0.0434
 6571TIP3    H241273   3.980   5.122   8.267 -0.5106  0.0645  0.9165
 6572TIP3   OH241274   1.646   6.451   7.474  0.4784 -0.4205  0.3419
 6572TIP3    H141275   1.588   6.437   7.549 -1.2725 -0.5785 -0.9623
 6572TIP3    H241276   1.592   6.427   7.398  1.6924  1.0981 -1.0674
 6573TIP3   OH241277   3.062   6.115   8.486  0.1668  0.2492  0.1018
 6573TIP3    H141278   3.090   6.061   8.413  1.9222 -0.1000  0.9795
 6573TIP3    H241279   3.048   6.202   8.448 -1.8290 -0.5483 -1.1462
 6574TIP3   OH241280   1.596   5.402   1.444 -0.0375 -0.1288 -0.4419
 6574TIP3    H141281   1.526   5.459   1.411  0.0062 -0.4317 -1.0711
 6574TIP3    H241282   1.654   5.389   1.369  0.3953 -0.3362 -0.0773
 6575TIP3   OH241283   2.458   1.738   0.815  0.3048 -0.1713  0.5556
 6575TIP3    H141284   2.514   1.765   0.889 -0.2981  2.3129  0.2075
 6575TIP3    H241285   2.392   1.807   0.809  0.8040  0.1553 -2.8026
 6576TIP3   OH241286   1.262   6.224   6.917  0.1105 -0.3838 -0.1000
 6576TIP3    H141287   1.329   6.247   6.852 -1.1273  0.6120 -1.0837
 6576TIP3    H241288   1.294   6.144   6.958  1.9526  0.1350 -0.4530
 6577TIP3   OH241289   5.178   2.771   7.145  0.6120 -0.1079  0.3304
 6577TIP3    H141290   5.190   2.849   7.198  0.7708 -0.6458  1.1015
 6577TIP3    H241291   5.108   2.794   7.083 -0.5637  0.0889  1.6717
 6578TIP3   OH241292   3.241   1.027   1.458 -0.0110 -0.7514  0.1085
 6578TIP3    H141293   3.213   1.117   1.474 -0.6463 -1.1505  1.4772
 6578TIP3    H241294   3.288   1.030   1.376  3.4346  1.5575  1.9327
 6579TIP3   OH241295   5.084   4.546   6.881 -0.4605 -0.1204  0.5744
 6579TIP3    H141296   5.005   4.600   6.885 -0.6707 -0.0916 -2.2261
 6579TIP3    H241297   5.142   4.592   6.821  0.0967 -2.0722 -0.4592
 6580TIP3   OH241298   4.033   2.347   7.685  0.2323 -0.4223  0.2141
 6580TIP3    H141299   4.005   2.311   7.769 -0.4244 -1.3501 -0.3919
 6580TIP3    H241300   4.074   2.431   7.708 -0.9866 -0.1044  1.3392
 6581TIP3   OH241301   5.699   2.488   2.263  0.6254  0.8548  0.0033
 6581TIP3    H141302   5.719   2.579   2.285  2.0261  1.3163 -2.7746
 6581TIP3    H241303   5.784   2.443   2.267 -0.0897 -0.4502  1.6134
 6582TIP3   OH241304   4.337   2.385   7.447 -0.1681 -0.3673  0.3929
 6582TIP3    H141305   4.266   2.446   7.469  0.6152  0.0905  1.7639
 6582TIP3    H241306   4.406   2.441   7.412 -0.4417 -0.8083 -0.8904
 6583TIP3   OH241307   0.779   1.419   8.095 -0.1402  0.4117  0.4733
 6583TIP3    H141308   0.838   1.453   8.163 -0.6682 -0.2724  1.2941
 6583TIP3    H241309   0.795   1.476   8.019  0.2080  1.4117  1.2678
 6584TIP3   OH241310   3.054   4.851   0.909  0.0845 -0.2851  0.4411
 6584TIP3    H141311   3.068   4.782   0.844  0.8687 -1.0362  1.3736
 6584TIP3    H241312   2.966   4.884   0.892  0.8566  0.7316 -2.0964
 6585TIP3   OH241313   4.650   0.472   0.497  0.5153  0.2137  0.7827
 6585TIP3    H141314   4.562   0.477   0.459  0.9831  2.1176 -0.1476
 6585TIP3    H241315   4.638   0.501   0.588  0.1308  0.1374  0.7578
 6586TIP3   OH241316   0.088   3.844   0.405 -0.9080 -0.3104  0.0014
 6586TIP3    H141317   0.076   3.749   0.394 -1.4011 -0.4173  1.2139
 6586TIP3    H241318   0.141   3.871   0.330  0.3804 -1.7882  0.3306
 6587TIP3   OH241319   2.524   5.325   0.361  0.1899  0.0861  0.8576
 6587TIP3    H141320   2.468   5.282   0.426  0.5501  0.2579  1.2896
 6587TIP3    H241321   2.519   5.418   0.383 -0.5586  0.2688 -0.0517
 6588TIP3   OH241322   0.800   3.877   1.784  0.5465 -0.0179  0.1662
 6588TIP3    H141323   0.876   3.827   1.754 -0.5660 -1.5836 -0.1874
 6588TIP3    H241324   0.820   3.901   1.874  2.5926  2.0097 -0.7213
 6589TIP3   OH241325   1.327   4.611   6.958  0.1950 -0.2400 -0.1818
 6589TIP3    H141326   1.310   4.700   6.989 -3.7039 -1.0342  0.4224
 6589TIP3    H241327   1.288   4.609   6.870 -0.6373 -1.5500  0.1850
 6590TIP3   OH241328   5.168   5.218   7.617 -0.0656  0.4643  0.3440
 6590TIP3    H141329   5.077   5.229   7.645 -0.4230 -3.2628  1.0862
 6590TIP3    H241330   5.163   5.214   7.521 -1.9762 -6.0479  0.2420
 6591TIP3   OH241331   5.779   0.083   6.276 -0.0402 -0.3322 -0.4908
 6591TIP3    H141332   5.772   0.159   6.217 -0.0589 -0.0035 -0.0658
 6591TIP3    H241333   5.864   0.093   6.319 -0.0920 -0.4940 -0.3501
 6592TIP3   OH241334   3.429   4.017   1.613 -0.3935 -0.0925  0.0555
 6592TIP3    H141335   3.374   3.968   1.673  1.1042 -1.7827  0.1443
 6592TIP3    H241336   3.383   4.013   1.529 -1.2379  0.0489  0.5065
 6593TIP3   OH241337   1.400   2.453   8.063 -0.5048 -0.9228  0.4906
 6593TIP3    H141338   1.481   2.403   8.048 -0.6678 -0.7454 -1.1389
 6593TIP3    H241339   1.430   2.533   8.106  0.0999 -1.2029  0.6067
 6594TIP3   OH241340   4.144   2.878   1.035  0.0274 -0.3273  0.1562
 6594TIP3    H141341   4.160   2.958   1.085  0.1869 -0.8235  0.9271
 6594TIP3    H241342   4.051   2.859   1.051  0.0552 -0.4363  0.1867
 6595TIP3   OH241343   5.926   2.688   0.474  0.1306  0.2539  0.0004
 6595TIP3    H141344   6.009   2.735   0.468  2.0804 -2.2473  3.4626
 6595TIP3    H241345   5.876   2.738   0.540  1.3786 -1.1903  2.1733
 6596TIP3   OH241346   6.368   3.783   1.119  0.2177  0.0538  0.2278
 6596TIP3    H141347   6.275   3.763   1.124 -0.2926  1.1721 -2.5482
 6596TIP3    H241348   6.375   3.871   1.156 -0.2417  0.7554 -1.2443
 6597TIP3   OH241349   2.704   0.001   0.228  0.1277  0.4761  0.3176
 6597TIP3    H141350   2.672   0.002   0.138 -0.6042  0.4484  0.5748
 6597TIP3    H241351   2.706   0.093   0.254 -0.9400  0.4068  0.7094
 6598TIP3   OH241352   2.749   3.555   7.551  0.1854 -0.0211  0.1093
 6598TIP3    H141353   2.758   3.640   7.509  2.3711  0.3010  1.0307
 6598TIP3    H241354   2.838   3.534   7.580 -0.7776 -1.2530  2.4878
 6599TIP3   OH241355   0.941   0.823   0.734  0.2729 -0.2463 -0.2705
 6599TIP3    H141356   0.956   0.861   0.647 -0.4620  0.5935 -0.0473
 6599TIP3    H241357   0.989   0.741   0.732  1.0266  0.1896 -1.1531
 6600TIP3   OH241358   5.718   6.019   6.871  0.0336 -0.5496 -0.2580
 6600TIP3    H141359   5.730   6.084   6.940  0.5081  0.9346 -1.6605
 6600TIP3    H241360   5.685   6.070   6.796  0.1210 -1.9841 -1.3126
 6601TIP3   OH241361   4.343   3.044   0.619  0.1846  0.2207 -0.4802
 6601TIP3    H141362   4.250   3.061   0.602  0.1250  0.5329  0.1402
 6601TIP3    H241363   4.361   2.962   0.573 -0.1547  0.6518 -1.4209
 6602TIP3   OH241364   0.234   1.320   0.006 -0.5966 -0.0540 -0.1375
 6602TIP3    H141365   0.176   1.246   0.025 -0.3621 -0.4649 -0.9587
 6602TIP3    H241366   0.218   1.382   0.077 -0.4821 -1.0735  0.8094
 6603TIP3   OH241367   2.437   6.274   8.289 -0.0475  0.0681  0.9148
 6603TIP3    H141368   2.469   6.186   8.266  0.9066  0.5375  0.4230
 6603TIP3    H241369   2.500   6.334   8.250 -1.0590  1.0057  0.6861
 6604TIP3   OH241370   0.948   2.230   8.151 -0.0939 -0.0310  0.2732
 6604TIP3    H141371   0.900   2.312   8.147 -1.1452 -0.6143  0.3795
 6604TIP3    H241372   0.944   2.195   8.062 -0.6584 -0.5043  0.4769
 6605TIP3   OH241373   2.168   1.919   7.986  0.4000  0.2773  0.0446
 6605TIP3    H141374   2.166   1.856   7.914 -0.6693  0.8693 -0.4757
 6605TIP3    H241375   2.084   1.965   7.980  1.5959  2.5801 -0.3571
 6606TIP3   OH241376   1.057   4.502   1.902 -0.2636 -0.0362 -1.0063
 6606TIP3    H141377   1.122   4.455   1.849  1.5712  0.9002  0.2676
 6606TIP3    H241378   1.096   4.589   1.915 -0.0642 -0.5487  2.7141
 6607TIP3   OH241379   3.877   5.793   7.829  0.4098 -0.1730  0.0500
 6607TIP3    H141380   3.812   5.762   7.892 -0.8751  1.0927 -0.5601
 6607TIP3    H241381   3.826   5.846   7.767  2.1682  1.6995  0.1007
 6608TIP3   OH241382   6.655   0.162   7.027 -0.3171  0.1290 -1.0011
 6608TIP3    H141383   6.635   0.254   7.041  0.9227  0.3518 -0.5313
 6608TIP3    H241384   6.724   0.162   6.960  0.5594 -0.3689 -0.1210
 6609TIP3   OH241385   5.376   4.809   8.359  0.4896  0.0215 -0.5512
 6609TIP3    H141386   5.324   4.768   8.428 -0.2790  1.6300 -0.1156
 6609TIP3    H241387   5.318   4.810   8.283  1.5625 -2.3441 -1.4828
 6610TIP3   OH241388   3.231   5.571   0.655  0.0888  0.8160  0.1069
 6610TIP3    H141389   3.145   5.601   0.682  0.3181  0.9395  0.7151
 6610TIP3    H241390   3.237   5.594   0.562  0.1959  2.5503  0.4999
 6611TIP3   OH241391   0.452   6.637   0.615 -0.1997 -0.1776  0.1096
 6611TIP3    H141392   0.532   6.650   0.563  1.0781  0.5739  2.1667
 6611TIP3    H241393   0.431   6.724   0.649 -2.2772 -0.2429 -0.8099
 6612TIP3   OH241394   0.667   5.464   7.493  0.1112 -0.2677 -0.8460
 6612TIP3    H141395   0.612   5.444   7.570 -0.7463  0.4640 -1.2478
 6612TIP3    H241396   0.740   5.402   7.499  0.4687  0.2802  0.9784
 6613TIP3   OH241397   0.009   5.837   2.260 -0.2510  0.2699 -0.0941
 6613TIP3    H141398  -0.065   5.855   2.202  1.3185 -0.5979 -2.4887
 6613TIP3    H241399   0.084   5.877   2.217  1.3824 -2.3150  0.1304
 6614TIP3   OH241400   4.644   4.963   1.679 -0.2545  0.5816 -0.0161
 6614TIP3    H141401   4.734   4.935   1.663  0.1670  0.9998  1.4662
 6614TIP3    H241402   4.625   4.934   1.768 -1.8467 -0.1191 -0.5564
 6615TIP3   OH241403   5.551   6.134   7.452 -0.3618  0.1063 -0.3216
 6615TIP3    H141404   5.585   6.204   7.396  0.7614 -0.2664 -0.1286
 6615TIP3    H241405   5.591   6.054   7.418 -1.0568 -0.3560 -0.0824
 6616TIP3   OH241406   2.120   4.500   7.064  0.0125 -0.1537  0.5889
 6616TIP3    H141407   2.214   4.517   7.058 -0.1548  0.6684  0.1990
 6616TIP3    H241408   2.114   4.405   7.076  0.8157 -0.5573 -1.6810
 6617TIP3   OH241409   2.125   3.903   1.971  0.5590 -0.1018  0.1460
 6617TIP3    H141410   2.212   3.943   1.972 -0.2498  2.0468 -2.7378
 6617TIP3    H241411   2.081   3.937   2.048  0.2141  4.2246 -1.6827
 6618TIP3   OH241412   1.196   4.320   8.607  0.1307  0.1156  0.0688
 6618TIP3    H141413   1.194   4.397   8.664  1.4080  0.1872  0.0445
 6618TIP3    H241414   1.121   4.331   8.549  0.5916  1.6393 -0.2927
 6619TIP3   OH241415   3.293   1.123   0.552 -0.4139  0.5356 -0.1566
 6619TIP3    H141416   3.253   1.210   0.542 -1.3357  0.5123  2.6329
 6619TIP3    H241417   3.222   1.067   0.583  1.1820  0.0367  3.0193
 6620TIP3   OH241418   6.731   4.987   1.297  0.2597 -0.4218  0.0798
 6620TIP3    H141419   6.764   4.903   1.330  0.0724 -0.7310 -0.5095
 6620TIP3    H241420   6.693   4.966   1.212 -0.4718  0.1274  0.2622
 6621TIP3   OH241421   2.634   6.656   1.385 -0.3054 -0.3252  0.3728
 6621TIP3    H141422   2.655   6.747   1.408  2.5682 -0.3230 -1.7011
 6621TIP3    H241423   2.651   6.607   1.465  3.1997  0.4165  0.2435
 6622TIP3   OH241424   5.065   0.975   7.729 -0.0364  0.1513  0.3957
 6622TIP3    H141425   5.019   0.920   7.793 -1.4717 -0.3276 -0.9908
 6622TIP3    H241426   5.081   1.057   7.776 -1.8226  0.1319  1.1339
 6623TIP3   OH241427   0.337   4.345   1.590  0.3236 -0.3447  0.2810
 6623TIP3    H141428   0.312   4.421   1.537 -2.2163  0.2520  2.1660
 6623TIP3    H241429   0.420   4.315   1.551  0.4626  2.2358 -1.6678
 6624TIP3   OH241430   2.889   0.409   1.907 -0.4443 -0.3329  0.5042
 6624TIP3    H141431   2.964   0.386   1.961 -0.9731 -0.1502  1.3295
 6624TIP3    H241432   2.895   0.349   1.832  0.0331 -0.9169  0.9918
 6625TIP3   OH241433   0.864   3.455   1.174  0.5941  0.8000 -0.0533
 6625TIP3    H141434   0.857   3.468   1.269  0.8713  0.1228  0.0665
 6625TIP3    H241435   0.775   3.468   1.142 -0.0689 -1.4447  0.6433
 6626TIP3   OH241436   3.833   2.486   0.462  0.8418  0.2927  0.3295
 6626TIP3    H141437   3.926   2.506   0.457  0.9628 -0.3432 -0.0934
 6626TIP3    H241438   3.829   2.390   0.460  0.1293  0.3161 -0.8627
 6627TIP3   OH241439   5.543   4.890   7.896 -0.9481 -0.4062 -0.5566
 6627TIP3    H141440   5.500   4.965   7.855 -0.4222 -1.4330 -3.2436
 6627TIP3    H241441   5.635   4.900   7.872 -0.0602  0.2938  2.7397
 6628TIP3   OH241442   2.420   0.089   1.513  0.5835  0.0259  0.4145
 6628TIP3    H141443   2.466   0.169   1.490 -1.1871  1.3504  1.1876
 6628TIP3    H241444   2.472   0.049   1.582  2.8800 -0.9561 -1.7375
 6629TIP3   OH241445   0.515   6.200   1.834 -0.2690  0.2215 -0.2004
 6629TIP3    H141446   0.493   6.201   1.741  1.2834  0.4111 -0.5973
 6629TIP3    H241447   0.609   6.218   1.837  0.3784 -2.6508  1.2110
 6630TIP3   OH241448   4.143   4.016   1.498 -0.9227 -0.2570 -0.1347
 6630TIP3    H141449   4.165   4.068   1.421 -1.8863 -0.8897 -0.8650
 6630TIP3    H241450   4.226   3.982   1.529 -0.4154  0.7375 -0.3467
 6631TIP3   OH241451   3.193   0.944   7.328  0.3587  0.6854 -0.5128
 6631TIP3    H141452   3.190   0.849   7.316  2.2413  0.7101 -1.4757
 6631TIP3    H241453   3.118   0.977   7.279  0.4941 -0.2124 -1.3362
 6632TIP3   OH241454   1.473   5.939   0.672  0.3685 -0.2990 -0.2723
 6632TIP3    H141455   1.443   5.856   0.707  0.3286 -0.8403 -1.5421
 6632TIP3    H241456   1.393   5.989   0.654  0.3263 -0.5500 -0.8142
 6633TIP3   OH241457   0.257   5.854   2.132 -0.1436  0.0912  0.4053
 6633TIP3    H141458   0.292   5.798   2.200  1.3768  0.6100  0.0853
 6633TIP3    H241459   0.333   5.879   2.079 -0.6919  2.5742  0.6385
 6634TIP3   OH241460   4.221   2.351   7.954  0.4315  0.1147 -0.5064
 6634TIP3    H141461   4.199   2.431   7.906  3.6762 -0.1634 -2.8492
 6634TIP3    H241462   4.161   2.285   7.921 -1.0536  1.1140  0.0783
 6635TIP3   OH241463   6.327   6.800   0.421  0.2173 -0.2435  0.0072
 6635TIP3    H141464   6.412   6.835   0.448  0.9428 -1.2195 -0.9399
 6635TIP3    H241465   6.263   6.861   0.459  1.3479  0.7938  0.3091
 6636TIP3   OH241466   4.332   4.301   7.245 -0.3029 -0.5651 -0.0212
 6636TIP3    H141467   4.338   4.282   7.152 -2.4186  0.4168 -0.4053
 6636TIP3    H241468   4.407   4.358   7.263 -0.9695  0.8721 -1.5866
 6637TIP3   OH241469   1.505   1.310   0.552  0.6677 -0.1877  0.6639
 6637TIP3    H141470   1.553   1.385   0.515 -0.5107  0.6763  0.8290
 6637TIP3    H241471   1.568   1.269   0.612  0.8106  1.6869  1.8816
 6638TIP3   OH241472   1.052   6.739   7.071 -0.0416  0.4138 -0.1407
 6638TIP3    H141473   0.990   6.791   7.122  0.9582  1.7149 -0.2003
 6638TIP3    H241474   1.025   6.749   6.980 -0.2945  0.2072 -0.0888
 6639TIP3   OH241475   3.488   4.035   7.784  0.3147  0.8073  0.3843
 6639TIP3    H141476   3.575   4.030   7.823  0.3346  1.0858  0.3753
 6639TIP3    H241477   3.476   3.949   7.743  0.8975  1.0249 -0.2660
 6640TIP3   OH241478   3.276   1.679   7.835  0.3833  0.2685 -0.0604
 6640TIP3    H141479   3.357   1.718   7.803  0.4305  0.8807  0.7834
 6640TIP3    H241480   3.225   1.753   7.867 -1.1173  0.0724 -1.8481
 6641TIP3   OH241481   3.199   2.795   1.549  0.0033 -0.6403  0.2497
 6641TIP3    H141482   3.113   2.820   1.584  1.4971  3.2309  1.7297
 6641TIP3    H241483   3.250   2.770   1.626  0.9744 -0.1248 -0.2062
 6642TIP3   OH241484   0.157   1.324   8.146 -0.9759 -0.2983  0.1498
 6642TIP3    H141485   0.150   1.390   8.077 -0.2692 -1.4994 -1.0966
 6642TIP3    H241486   0.097   1.254   8.120 -1.6238 -0.2405  1.3964
 6643TIP3   OH241487   2.615   6.775   7.449 -0.1498  0.0938  0.0068
 6643TIP3    H141488   2.615   6.837   7.375  2.1812  0.7686  0.4785
 6643TIP3    H241489   2.523   6.764   7.471 -0.8531  0.5961 -2.4022
 6644TIP3   OH241490   4.075   6.336   8.144  0.4623 -0.4259  0.2701
 6644TIP3    H141491   4.148   6.357   8.086  1.1465 -1.8764  0.5500
 6644TIP3    H241492   4.035   6.257   8.105 -0.5597 -0.0317  0.4738
 6645TIP3   OH241493   3.164   1.339   6.864 -0.3579  0.2441 -0.0080
 6645TIP3    H141494   3.201   1.340   6.775 -1.5837  1.2004 -0.5516
 6645TIP3    H241495   3.138   1.248   6.879  0.0552  0.0329 -0.5459
 6646TIP3   OH241496   3.379   2.157   1.960 -0.3223 -0.7395  0.1477
 6646TIP3    H141497   3.356   2.242   1.999  0.1641 -0.6301  0.1979
 6646TIP3    H241498   3.473   2.162   1.945 -0.5268 -0.6977 -1.2431
 6647TIP3   OH241499   1.971   5.530   1.979 -0.0964  1.0082 -0.0720
 6647TIP3    H141500   2.061   5.517   1.949  0.0918 -1.1553  1.1565
 6647TIP3    H241501   1.956   5.457   2.040 -2.1509  2.2200  0.9868
 6648TIP3   OH241502   0.855   6.643   1.883 -0.2595 -0.2998  0.3486
 6648TIP3    H141503   0.804   6.578   1.930 -1.5477  1.1188  1.0344
 6648TIP3    H241504   0.946   6.618   1.896 -0.7012 -1.5471  1.1604
 6649TIP3   OH241505   5.406   3.605   7.818  0.4209  0.1332  0.0011
 6649TIP3    H141506   5.329   3.639   7.864 -0.5091 -1.0905 -0.6033
 6649TIP3    H241507   5.372   3.532   7.766  1.2359  1.9033 -3.2727
 6650TIP3   OH241508   4.051   6.503   7.456 -0.0792 -0.7141  0.2670
 6650TIP3    H141509   4.124   6.442   7.441  0.1512 -0.4368  0.2499
 6650TIP3    H241510   4.064   6.573   7.392 -1.1719 -1.3630 -0.7089
 6651TIP3   OH241511   4.874   6.266   2.083  0.2586 -0.1461 -0.2093
 6651TIP3    H141512   4.895   6.246   2.174 -0.2487  1.2935  0.2480
 6651TIP3    H241513   4.953   6.243   2.034  1.3472  1.1247  0.8953
 6652TIP3   OH241514   3.025   0.036   0.178 -0.8648  0.0531 -0.1759
 6652TIP3    H141515   3.106   0.084   0.196 -2.2015  3.5333 -2.3752
 6652TIP3    H241516   3.032   0.010   0.086 -1.3908 -1.6165  0.2143
 6653TIP3   OH241517   5.347   6.616   1.865  0.0383 -0.2854 -0.3736
 6653TIP3    H141518   5.388   6.532   1.888  0.1639  0.1988  1.2370
 6653TIP3    H241519   5.340   6.664   1.947  0.2720  1.4464 -1.3130
 6654TIP3   OH241520   1.649   1.557   0.536  0.3483  0.1378 -0.0287
 6654TIP3    H141521   1.638   1.651   0.550  0.4121  0.1543 -0.0889
 6654TIP3    H241522   1.697   1.526   0.613  2.3743  0.5523 -1.0468
 6655TIP3   OH241523   4.158   1.903   6.509  0.0738 -0.4801 -0.4098
 6655TIP3    H141524   4.247   1.891   6.542  0.0671  1.3753  0.4521
 6655TIP3    H241525   4.145   1.832   6.447  2.0447 -0.9690 -0.3285
 6656TIP3   OH241526   4.315   4.375   0.268  0.6828 -0.0998 -0.2181
 6656TIP3    H141527   4.331   4.290   0.309 -1.6037 -1.1819 -1.3764
 6656TIP3    H241528   4.234   4.363   0.219  0.5524  2.6364 -0.8315
 6657TIP3   OH241529   4.754   0.176   7.374 -0.1530 -0.3900 -0.3183
 6657TIP3    H141530   4.672   0.143   7.410 -0.5905 -1.2706 -1.9865
 6657TIP3    H241531   4.728   0.217   7.291  1.0310 -0.3056 -0.6601
 6658TIP3   OH241532   1.547   2.588   8.387 -0.2323  0.1437  0.2303
 6658TIP3    H141533   1.639   2.611   8.400  0.3667 -0.4542 -2.2875
 6658TIP3    H241534   1.548   2.494   8.370 -1.6288 -0.3064  2.3068
 6659TIP3   OH241535   1.211   0.289   1.710  0.2869 -0.3427 -0.0878
 6659TIP3    H141536   1.239   0.379   1.695 -1.9803  0.5034  0.3334
 6659TIP3    H241537   1.292   0.240   1.722  1.5841  1.5889 -0.5697
 6660TIP3   OH241538   0.490   0.389   1.193 -0.0258 -0.0363 -0.0909
 6660TIP3    H141539   0.457   0.377   1.282  0.6538 -1.6257 -0.0160
 6660TIP3    H241540   0.568   0.334   1.189 -0.5027 -0.6392 -1.8973
 6661TIP3   OH241541   1.343   5.588   6.631 -0.2068  0.1328 -0.0766
 6661TIP3    H141542   1.386   5.525   6.689  0.4570  0.1320 -0.5671
 6661TIP3    H241543   1.379   5.673   6.657  0.8332  0.0279 -1.1413
 6662TIP3   OH241544   2.594   6.180   7.024 -0.3087  0.0445  0.2803
 6662TIP3    H141545   2.627   6.122   6.955  0.6263 -0.8658  1.4511
 6662TIP3    H241546   2.530   6.236   6.980  0.9758  0.1738 -1.5458
 6663TIP3   OH241547   6.687   6.585   1.195  0.2590  0.0855  0.3527
 6663TIP3    H141548   6.625   6.651   1.163  0.3608 -0.5547 -1.2534
 6663TIP3    H241549   6.731   6.552   1.117  0.8040 -1.3108  1.1898
 6664TIP3   OH241550   0.126   4.376   0.536 -0.3360  0.2992 -0.1397
 6664TIP3    H141551   0.097   4.298   0.584 -1.1694 -0.2319 -1.4777
 6664TIP3    H241552   0.195   4.413   0.592 -1.1293 -0.4016  1.3652
 6665TIP3   OH241553   3.019   0.171   7.991  0.0709  0.3488  0.6789
 6665TIP3    H141554   3.015   0.191   8.085  0.0321 -0.1940  0.7960
 6665TIP3    H241555   3.091   0.109   7.982  0.6776  1.1139  0.2108
 6666TIP3   OH241556   1.598   0.866   7.251  0.0408 -0.1120 -0.2296
 6666TIP3    H141557   1.561   0.779   7.267 -3.5134  1.5401  1.8043
 6666TIP3    H241558   1.643   0.888   7.333 -0.0910  0.3634 -0.2820
 6667TIP3   OH241559   5.684   2.957   7.467  0.1607  0.2426  0.4420
 6667TIP3    H141560   5.754   2.901   7.434 -0.5557 -1.5080  1.8019
 6667TIP3    H241561   5.674   2.933   7.559  0.6883  3.5297  1.4889
 6668TIP3   OH241562   2.697   3.521   1.391  0.1016 -0.9725  0.0704
 6668TIP3    H141563   2.675   3.496   1.481  2.9464  0.0813  1.1786
 6668TIP3    H241564   2.770   3.463   1.367  0.7568  0.1399 -0.7326
 6669TIP3   OH241565   1.488   6.144   7.629 -0.4421 -0.1204  0.2440
 6669TIP3    H141566   1.547   6.216   7.650  0.9617 -1.2434  0.3089
 6669TIP3    H241567   1.543   6.066   7.635 -1.6462 -1.0957 -0.9131
 6670TIP3   OH241568   0.177   2.843   7.018  0.1925 -0.4012 -0.3200
 6670TIP3    H141569   0.114   2.885   6.959  1.0616 -1.5611 -2.1802
 6670TIP3    H241570   0.190   2.755   6.981  2.3168 -0.4669  0.4265
 6671TIP3   OH241571   1.299   0.028   1.376 -0.1030 -0.2411 -0.1522
 6671TIP3    H141572   1.353  -0.012   1.444 -1.8901 -0.5642  1.1396
 6671TIP3    H241573   1.328   0.119   1.373  0.5011 -0.3993  0.4988
 6672TIP3   OH241574   2.272   4.011   6.574  0.4009  0.6742  0.1657
 6672TIP3    H141575   2.272   4.052   6.660  3.3552  1.0007  0.1173
 6672TIP3    H241576   2.321   4.072   6.518 -0.6274  0.0266 -1.5382
 6673TIP3   OH241577   5.237   0.825   6.295 -0.5894 -0.8300  0.4458
 6673TIP3    H141578   5.236   0.920   6.306  1.3572 -0.8627  1.3535
 6673TIP3    H241579   5.159   0.806   6.243 -1.7299  1.1068  1.3545
 6674TIP3   OH241580   2.143   4.975   8.609  0.7171  0.5511 -0.0379
 6674TIP3    H141581   2.236   4.995   8.601  0.7383 -0.0126 -1.5732
 6674TIP3    H241582   2.139   4.892   8.655  1.0903 -0.3452 -1.5707
 6675TIP3   OH241583   3.752   0.550   0.400 -0.0736 -0.3104  0.0431
 6675TIP3    H141584   3.774   0.636   0.435 -2.0711 -0.0844  0.8377
 6675TIP3    H241585   3.747   0.494   0.478  0.4452 -0.9898 -0.4002
 6676TIP3   OH241586   2.415   5.897   0.762 -0.5680  0.5773 -0.2912
 6676TIP3    H141587   2.432   5.936   0.676 -0.1722  0.7540 -0.1349
 6676TIP3    H241588   2.464   5.952   0.823  0.7866 -0.7193 -0.1653
 6677TIP3   OH241589   1.137   1.777   8.383 -0.4061 -0.1086  0.1575
 6677TIP3    H141590   1.111   1.855   8.334  0.3780  2.0905  2.9335
 6677TIP3    H241591   1.057   1.748   8.426 -0.0962  1.5743  2.0645
 6678TIP3   OH241592   3.583   2.437   0.584 -0.5282  0.5154 -0.3679
 6678TIP3    H141593   3.670   2.471   0.565 -1.2873  1.4340 -2.5698
 6678TIP3    H241594   3.524   2.509   0.560 -1.9612 -0.7085 -0.6606
 6679TIP3   OH241595   4.426   0.401   6.825  0.4241 -0.3101 -0.2991
 6679TIP3    H141596   4.507   0.406   6.875  1.9712 -1.9516 -2.3898
 6679TIP3    H241597   4.380   0.326   6.862 -0.5889  1.1196  1.4270
 6680TIP3   OH241598   4.876   4.575   1.006  0.1542  0.2465  0.0626
 6680TIP3    H141599   4.822   4.649   1.035  1.3934  0.9260  0.7412
 6680TIP3    H241600   4.868   4.510   1.077  1.1418  0.8451  0.7498
 6681TIP3   OH241601   1.340   3.853   1.469  0.5808 -0.1897  0.2505
 6681TIP3    H141602   1.300   3.795   1.534 -0.2141  0.0754  0.0109
 6681TIP3    H241603   1.271   3.867   1.404  0.9713  0.5074 -0.0270
 6682TIP3   OH241604   4.511   3.212   0.478 -0.2436 -0.1407 -0.2390
 6682TIP3    H141605   4.563   3.136   0.505  0.0808 -0.1307 -0.8130
 6682TIP3    H241606   4.442   3.219   0.543 -1.1067 -1.7704 -0.9428
 6683TIP3   OH241607   1.302   2.346   7.322 -0.8351  0.0418  0.0365
 6683TIP3    H141608   1.286   2.408   7.393  0.6310  0.6867 -0.1587
 6683TIP3    H241609   1.215   2.323   7.290 -1.4940  0.2197  1.6258
 6684TIP3   OH241610   2.693   1.111   6.659  0.0559 -0.7688 -0.5598
 6684TIP3    H141611   2.783   1.122   6.692 -0.0740 -2.6671  0.6167
 6684TIP3    H241612   2.646   1.075   6.734 -1.5898 -0.2502 -1.3186
 6685TIP3   OH241613   6.635   0.884   1.039  0.2106 -0.4138 -0.2522
 6685TIP3    H141614   6.588   0.947   0.983  1.6334  0.7532 -0.1769
 6685TIP3    H241615   6.722   0.921   1.048  0.9288 -2.1600  0.2423
 6686TIP3   OH241616   4.522   5.009   2.271 -0.7715  0.1012  0.3017
 6686TIP3    H141617   4.493   4.919   2.278 -1.7592  0.5054  2.1639
 6686TIP3    H241618   4.443   5.059   2.251 -0.5711  0.7360  1.0320
 6687TIP3   OH241619   3.345   4.913   7.422 -0.0938 -0.2623 -0.3430
 6687TIP3    H141620   3.268   4.904   7.366  1.0345 -2.6175 -1.6807
 6687TIP3    H241621   3.341   5.003   7.455 -3.8254 -0.5346  0.3313
 6688TIP3   OH241622   3.399   3.207   7.586  0.5778  0.0136 -0.3333
 6688TIP3    H141623   3.329   3.225   7.648  0.7150  0.8300 -0.3957
 6688TIP3    H241624   3.389   3.274   7.518  1.0394 -0.2423 -0.6618
 6689TIP3   OH241625   1.433   5.561   1.305  0.1200 -0.2887  0.4091
 6689TIP3    H141626   1.353   5.578   1.256 -0.3228 -1.6901  0.5943
 6689TIP3    H241627   1.501   5.609   1.258 -0.7969  0.8331  0.1847
 6690TIP3   OH241628   2.932   5.966   2.730 -0.3512 -0.0099  0.1874
 6690TIP3    H141629   2.959   6.058   2.732 -0.4225  0.0313 -0.5098
 6690TIP3    H241630   2.995   5.923   2.672 -0.3733 -0.3851  0.4349
 6691TIP3   OH241631   2.786   4.858   0.850 -0.7781 -0.2330 -0.4003
 6691TIP3    H141632   2.742   4.934   0.887  2.1222  2.0859 -1.3073
 6691TIP3    H241633   2.751   4.784   0.899 -1.2558  2.0206  3.0136
 6692TIP3   OH241634   4.028   3.138   7.065 -0.2382  0.3246 -0.3794
 6692TIP3    H141635   4.049   3.154   6.973  2.8318 -0.5551  0.0807
 6692TIP3    H241636   4.093   3.187   7.114 -0.8898 -0.4226  1.3082
 6693TIP3   OH241637   2.787   6.734   8.037  0.3554 -0.1896  0.1718
 6693TIP3    H141638   2.740   6.665   8.083 -0.7623  0.5177  0.1181
 6693TIP3    H241639   2.781   6.810   8.094  1.4418 -0.0762  0.1568
 6694TIP3   OH241640   2.832   0.471   0.761 -0.1850 -0.1891 -0.1973
 6694TIP3    H141641   2.872   0.540   0.815 -1.0573 -0.3360  0.6713
 6694TIP3    H241642   2.742   0.465   0.794 -0.2321 -1.4700 -0.5312
 6695TIP3   OH241643   5.483   1.615   0.026 -0.1555 -0.3427 -0.3122
 6695TIP3    H141644   5.407   1.557   0.033 -0.5355  0.0322 -1.2354
 6695TIP3    H241645   5.449   1.695  -0.014  0.2994  0.6419  1.1661
 6696TIP3   OH241646   1.548   3.238   7.596  0.1903  0.2058  0.4387
 6696TIP3    H141647   1.573   3.277   7.680  2.6159 -1.1436  0.4335
 6696TIP3    H241648   1.479   3.175   7.619  0.4318  0.2546  1.3463
 6697TIP3   OH241649   5.083   0.578   7.276  0.0792  0.1301  0.1496
 6697TIP3    H141650   5.101   0.495   7.231  0.9592  0.4302 -0.0665
 6697TIP3    H241651   5.032   0.629   7.212  0.0294 -0.0234  0.0666
 6698TIP3   OH241652   4.761   5.561   8.162  0.2312  0.0316  0.4061
 6698TIP3    H141653   4.801   5.495   8.104  1.2223  0.8643  0.1088
 6698TIP3    H241654   4.714   5.509   8.228 -0.6897 -0.9332 -0.9737
 6699TIP3   OH241655   5.694   0.039   8.510  0.0758 -0.3396 -0.2479
 6699TIP3    H141656   5.708   0.059   8.602  0.8699  0.9713 -0.6268
 6699TIP3    H241657   5.602   0.059   8.494  0.1826  0.3774  0.0333
 6700TIP3   OH241658   2.498   3.784   6.859  0.0484 -0.2260 -0.2963
 6700TIP3    H141659   2.438   3.826   6.921  0.7501  0.8710 -0.3238
 6700TIP3    H241660   2.460   3.698   6.843 -1.3550  0.3164 -0.0773
 6701TIP3   OH241661   4.859   0.487   8.639 -0.4530 -0.4305  0.6339
 6701TIP3    H141662   4.899   0.574   8.631  0.1303 -0.7392  0.1776
 6701TIP3    H241663   4.835   0.463   8.550 -0.6833 -0.7091  0.7709
 6702TIP3   OH241664   2.413   6.459   7.949  0.3129 -0.0199 -0.3830
 6702TIP3    H141665   2.465   6.464   7.869  0.9204 -2.5540 -0.2482
 6702TIP3    H241666   2.470   6.493   8.017  1.4293 -1.6591 -0.4309
 6703TIP3   OH241667   4.208   6.227   0.457  0.3741 -0.4367  0.2376
 6703TIP3    H141668   4.226   6.288   0.386  0.3764 -0.9565 -0.2146
 6703TIP3    H241669   4.134   6.265   0.504  1.6411  0.9586  1.2133
 6704TIP3   OH241670   3.088   4.227   6.059  0.4066  0.2641 -0.3097
 6704TIP3    H141671   3.001   4.238   6.098  1.4763 -0.0130  2.3289
 6704TIP3    H241672   3.149   4.235   6.132  2.3883 -4.5952 -1.0252
 6705TIP3   OH241673   0.010   0.772   7.281 -0.0041  0.9085 -0.0798
 6705TIP3    H141674  -0.035   0.695   7.246  2.2082 -0.1976 -0.7070
 6705TIP3    H241675   0.069   0.737   7.348  1.9189  1.8377 -1.2040
 6706TIP3   OH241676   0.908   3.588   7.417 -0.9407 -0.5074  0.0394
 6706TIP3    H141677   0.936   3.560   7.330  0.6528  0.1021  0.3141
 6706TIP3    H241678   0.818   3.555   7.426 -0.8310 -1.2974 -1.4913
 6707TIP3   OH241679   3.366   0.376   6.295 -0.1990 -0.6539  0.4143
 6707TIP3    H141680   3.317   0.407   6.372 -2.1647  1.0379 -1.4037
 6707TIP3    H241681   3.313   0.306   6.258 -1.4643  1.2677 -1.6371
 6708TIP3   OH241682   6.567   5.373   0.904  0.0601  0.0203 -0.3212
 6708TIP3    H141683   6.643   5.401   0.854  1.6859 -2.7344  0.3586
 6708TIP3    H241684   6.517   5.319   0.844 -0.8565  1.0149 -0.4719
 6709TIP3   OH241685   6.686   6.112   1.432 -0.5303 -0.0975  0.0424
 6709TIP3    H141686   6.639   6.170   1.492  0.1957  1.2135 -0.6101
 6709TIP3    H241687   6.679   6.026   1.472  0.6078  0.8448  2.4458
 6710TIP3   OH241688   5.466   5.775   8.618  0.4373 -0.4593  0.2058
 6710TIP3    H141689   5.482   5.822   8.700 -1.3233  1.1706 -0.3269
 6710TIP3    H241690   5.441   5.687   8.647  0.0475  0.0280  1.4340
 6711TIP3   OH241691   6.041   3.517   0.087 -0.1601  0.4112 -0.2605
 6711TIP3    H141692   5.986   3.589   0.055  0.2379  1.0938  0.5244
 6711TIP3    H241693   6.086   3.485   0.009  0.1571  1.4748 -0.5397
 6712TIP3   OH241694   6.193   5.886   8.061 -0.5182  0.6686  0.4507
 6712TIP3    H141695   6.236   5.878   7.976  0.6573 -0.5870  1.1187
 6712TIP3    H241696   6.222   5.971   8.095 -1.8094  1.6489 -0.7925
 6713TIP3   OH241697   1.215   2.605   7.157 -0.2582  0.4970  0.3307
 6713TIP3    H141698   1.252   2.519   7.174 -0.1876  0.3520 -0.5003
 6713TIP3    H241699   1.290   2.664   7.156 -0.2294  0.4599  0.2550
 6714TIP3   OH241700   2.763   5.424   1.920  0.5128  0.2292 -0.0134
 6714TIP3    H141701   2.758   5.519   1.932 -1.5889  0.3049 -1.1237
 6714TIP3    H241702   2.676   5.392   1.943  0.6225 -1.2090 -1.4171
 6715TIP3   OH241703   2.028   2.049   8.344 -0.0975 -0.6290 -0.7564
 6715TIP3    H141704   2.018   1.987   8.417  1.5354 -0.2057 -0.1448
 6715TIP3    H241705   2.024   2.135   8.386  1.1382 -0.3854 -1.1033
 6716TIP3   OH241706   5.059   4.940   6.555 -0.4683 -0.0413 -0.2636
 6716TIP3    H141707   5.093   4.993   6.626 -0.6302 -0.2301 -0.0434
 6716TIP3    H241708   5.074   4.993   6.476 -1.5822  0.8002  0.0649
 6717TIP3   OH241709   2.662   2.482   0.500 -0.0017  0.1502  0.3639
 6717TIP3    H141710   2.583   2.523   0.536 -0.3514 -1.0774  1.0424
 6717TIP3    H241711   2.644   2.388   0.502  2.3000 -0.3687  2.6691
 6718TIP3   OH241712   5.763   1.672   2.159 -0.3706 -0.0030 -0.1191
 6718TIP3    H141713   5.775   1.591   2.210 -0.4622 -0.8141 -1.3421
 6718TIP3    H241714   5.787   1.647   2.070  0.1806  1.4946 -0.4150
 6719TIP3   OH241715   1.462   6.556   1.386 -0.4866  0.3310 -0.6725
 6719TIP3    H141716   1.532   6.621   1.376 -0.0742 -0.2719 -1.8490
 6719TIP3    H241717   1.509   6.473   1.399 -1.0059  0.3280  1.4665
 6720TIP3   OH241718   4.559   4.996   0.921  0.4434  0.3044 -0.5342
 6720TIP3    H141719   4.549   5.068   0.859  3.4341  1.4383  0.1400
 6720TIP3    H241720   4.575   5.038   1.005  0.1077 -1.1959  0.3336
 6721TIP3   OH241721   0.756   5.003   7.163  0.3266 -0.3093 -0.0656
 6721TIP3    H141722   0.677   4.978   7.114  0.7097 -1.2245 -0.2375
 6721TIP3    H241723   0.828   4.977   7.106  0.7679 -0.0194  0.3520
 6722TIP3   OH241724   5.126   1.725   0.421  0.4333 -0.3997 -0.7117
 6722TIP3    H141725   5.111   1.631   0.431 -1.2879 -0.2265 -1.3272
 6722TIP3    H241726   5.105   1.744   0.330  0.0962  0.6928 -0.4264
 6723TIP3   OH241727   3.507   6.109   7.479 -0.8256  0.1557  0.0405
 6723TIP3    H141728   3.454   6.029   7.483 -0.1146 -0.3940 -0.9224
 6723TIP3    H241729   3.488   6.155   7.560 -0.5623 -1.4443  1.0568
 6724TIP3   OH241730   0.136   6.536   7.435 -0.3110 -0.2793 -0.1219
 6724TIP3    H141731   0.105   6.445   7.438 -1.2205 -0.0240 -1.0690
 6724TIP3    H241732   0.162   6.549   7.343  1.1921 -0.0084  0.3214
 6725TIP3   OH241733   1.223   0.082   0.912 -0.1954 -0.0163  0.2039
 6725TIP3    H141734   1.188   0.018   0.849  1.1950  0.5861 -1.2573
 6725TIP3    H241735   1.157   0.086   0.981 -0.9929 -1.9551 -0.3808
 6726TIP3   OH241736   5.167   5.993   7.336  0.0502  0.5907 -0.1989
 6726TIP3    H141737   5.116   6.059   7.383 -0.6564  1.6457 -2.3149
 6726TIP3    H241738   5.141   5.910   7.376 -1.7778  1.2807  0.1763
 6727TIP3   OH241739   0.195   4.570   0.002  0.3023  0.1080  0.1423
 6727TIP3    H141740   0.104   4.542   0.014  0.3049  0.5681  1.2642
 6727TIP3    H241741   0.198   4.602  -0.088 -0.6846  0.2385  0.1446
 6728TIP3   OH241742   6.690   5.035   0.415  0.4140 -0.3738  0.2236
 6728TIP3    H141743   6.600   5.007   0.429  0.3191  0.0343  0.4268
 6728TIP3    H241744   6.714   4.996   0.330  0.1924 -0.8326  0.3666
 6729TIP3   OH241745   1.922   1.699   6.766  0.3890  0.2265  0.0948
 6729TIP3    H141746   1.871   1.772   6.798 -2.0268  0.0884 -2.9797
 6729TIP3    H241747   1.881   1.675   6.682  4.0340 -1.5084 -1.4362
 6730TIP3   OH241748   6.175   2.795   8.662  0.0282 -0.0114 -0.5766
 6730TIP3    H141749   6.098   2.821   8.712  0.3127 -0.6637  0.2235
 6730TIP3    H241750   6.246   2.792   8.727  0.4567 -0.6325 -1.0635
 6731TIP3   OH241751   6.764   6.241   7.046  0.4585 -0.2365  0.4559
 6731TIP3    H141752   6.844   6.198   7.015 -0.2559 -1.3412  0.0571
 6731TIP3    H241753   6.711   6.253   6.967 -0.5538 -1.2805  0.9387
 6732TIP3   OH241754   3.875   6.081   1.052 -0.5029  0.2177  0.0699
 6732TIP3    H141755   3.807   6.022   1.020  0.2788 -0.9301  0.4496
 6732TIP3    H241756   3.827   6.148   1.101 -1.5668  1.0429 -2.0042
 6733TIP3   OH241757   1.617   6.611   8.174 -0.3513 -0.6987  0.1807
 6733TIP3    H141758   1.618   6.611   8.269  0.6294 -1.1703  0.1861
 6733TIP3    H241759   1.636   6.520   8.150  4.5693  0.1946 -0.4185
 6734TIP3   OH241760   1.529   6.464   7.010  0.6257  0.5793 -0.4680
 6734TIP3    H141761   1.459   6.512   6.964  0.1256 -1.3649 -1.8475
 6734TIP3    H241762   1.609   6.511   6.988  0.1821  0.6730 -1.9812
 6735TIP3   OH241763   6.859   2.849   2.128 -0.3693  0.8202 -0.5413
 6735TIP3    H141764   6.909   2.834   2.048 -0.1748 -0.6027 -0.1990
 6735TIP3    H241765   6.844   2.761   2.163  1.6781  1.4322  2.2727
 6736TIP3   OH241766   4.553   3.788   8.205 -0.1441 -0.2036 -0.1176
 6736TIP3    H141767   4.507   3.754   8.281 -0.0462 -2.2914 -0.9470
 6736TIP3    H241768   4.543   3.721   8.138  1.0286  0.9189 -1.4877
 6737TIP3   OH241769   1.859   4.407   6.998  0.4057 -0.2589  0.1875
 6737TIP3    H141770   1.941   4.365   7.024  0.1210 -0.1248  1.3382
 6737TIP3    H241771   1.829   4.452   7.077 -0.4509  0.2328 -0.4056
 6738TIP3   OH241772   2.474   4.111   1.679 -0.1387  0.1658 -0.3006
 6738TIP3    H141773   2.536   4.113   1.752 -0.1075  1.2150 -0.3333
 6738TIP3    H241774   2.403   4.055   1.710 -0.8693  1.8312  1.1900
 6739TIP3   OH241775   2.442   0.975   2.415 -0.9698  0.1790  0.2610
 6739TIP3    H141776   2.534   0.990   2.395 -0.5080 -1.7394  0.7364
 6739TIP3    H241777   2.394   1.012   2.341  0.1884  1.0730 -0.0529
 6740TIP3   OH241778   6.741   3.103   8.048 -0.8106 -0.1167 -0.4007
 6740TIP3    H141779   6.731   3.179   7.991  0.5808 -0.3922 -1.0674
 6740TIP3    H241780   6.670   3.111   8.112 -1.9325  0.6406 -1.6772
 6741TIP3   OH241781   0.287   5.226   7.017 -0.1783 -0.2393  0.2265
 6741TIP3    H141782   0.361   5.220   7.077 -0.7753 -0.2644  0.9850
 6741TIP3    H241783   0.300   5.155   6.954  0.5766 -0.0717  0.1802
 6742TIP3   OH241784   5.252   2.874   1.614 -0.3348  0.4155 -0.1413
 6742TIP3    H141785   5.282   2.853   1.702 -1.8837 -0.3766  0.2255
 6742TIP3    H241786   5.223   2.965   1.619 -1.3778  0.0672  0.4559
 6743TIP3   OH241787   2.434   1.123   7.085  0.4411  0.4064 -0.2126
 6743TIP3    H141788   2.490   1.188   7.042  0.5854  0.8006  0.5544
 6743TIP3    H241789   2.440   1.045   7.029  0.8543  0.8118 -0.7433
 6744TIP3   OH241790   1.772   0.988   2.473 -0.0528 -0.2014 -0.6017
 6744TIP3    H141791   1.745   0.923   2.539 -3.5135 -0.8695 -2.4746
 6744TIP3    H241792   1.831   0.939   2.415 -0.2225 -0.7841 -0.2966
 6745TIP3   OH241793   5.944   1.687   0.023 -0.0482  0.3774 -0.0007
 6745TIP3    H141794   5.950   1.782   0.014 -1.4697  0.3358 -2.0727
 6745TIP3    H241795   5.864   1.673   0.074  0.6588  0.3035  1.0968
 6746TIP3   OH241796   0.804   0.668   6.142  0.1761 -0.0570 -0.9145
 6746TIP3    H141797   0.780   0.675   6.050 -1.7262 -2.0722 -0.6704
 6746TIP3    H241798   0.754   0.592   6.174  2.7866 -1.0957  1.1209
 6747TIP3   OH241799   5.076   3.546   1.596  0.1604  0.6128  0.2899
 6747TIP3    H141800   5.041   3.541   1.685  1.9095  3.3098  1.2383
 6747TIP3    H241801   5.145   3.612   1.600 -0.2917  1.5479 -3.2652
 6748TIP3   OH241802   2.396   1.604   7.062 -0.2957 -0.0528  0.5796
 6748TIP3    H141803   2.441   1.688   7.056 -1.3412  0.5451  0.8167
 6748TIP3    H241804   2.461   1.544   7.100  0.3130  0.7536  0.8288
 6749TIP3   OH241805   2.246   3.767   7.923  0.3927 -0.6171  0.4585
 6749TIP3    H141806   2.280   3.816   7.849  1.2096 -3.7020 -1.3857
 6749TIP3    H241807   2.321   3.759   7.983  0.5595 -0.5271  0.2620
 6750TIP3   OH241808   5.477   2.250   0.419 -0.0890 -0.0655 -0.5158
 6750TIP3    H141809   5.500   2.163   0.386  0.0533 -0.6264  0.9981
 6750TIP3    H241810   5.553   2.277   0.470  0.4984  1.6302 -2.1778
 6751TIP3   OH241811   1.595   4.354   1.693 -0.0947 -0.0041 -0.7377
 6751TIP3    H141812   1.507   4.318   1.707  0.5011 -0.8847  1.0893
 6751TIP3    H241813   1.652   4.278   1.688  0.6806  0.5823 -1.0554
 6752TIP3   OH241814   2.901   1.034   7.385  0.9076  0.3897 -0.3600
 6752TIP3    H141815   2.849   0.983   7.323  2.4745  0.1726 -1.5431
 6752TIP3    H241816   2.867   1.009   7.471 -0.9305  0.2739 -1.0814
 6753TIP3   OH241817   0.545   6.446   1.661 -0.2319  0.2028 -0.1848
 6753TIP3    H141818   0.495   6.522   1.635  1.0482  1.5868  1.1768
 6753TIP3    H241819   0.546   6.449   1.757 -0.9228 -2.0687 -0.0432
 6754TIP3   OH241820   3.718   1.954   0.630  0.1406 -0.2017  0.2525
 6754TIP3    H141821   3.738   1.860   0.630  0.9328 -0.0598 -1.0075
 6754TIP3    H241822   3.699   1.974   0.538  0.2497  0.9250  0.4620
 6755TIP3   OH241823   0.701   4.618   7.426 -0.2637 -0.0017  0.1598
 6755TIP3    H141824   0.758   4.672   7.371 -1.3507 -0.6889 -1.7188
 6755TIP3    H241825   0.761   4.577   7.488  1.0069  0.8890 -0.4224
 6756TIP3   OH241826   3.099   2.235   7.888 -0.1032 -0.4355 -0.4261
 6756TIP3    H141827   3.150   2.312   7.913 -1.6198  0.1829  0.9586
 6756TIP3    H241828   3.087   2.243   7.794  1.2980  0.0341 -0.5865
 6757TIP3   OH241829   5.446   2.343   0.138  0.3744  0.5122 -0.3291
 6757TIP3    H141830   5.427   2.431   0.171 -0.3741  1.0152 -1.9599
 6757TIP3    H241831   5.457   2.289   0.216 -0.4860  1.7874  0.7086
 6758TIP3   OH241832   0.709   3.898   2.049 -0.2472 -0.4456 -0.2010
 6758TIP3    H141833   0.708   3.957   2.124  1.2367  0.4642 -0.8445
 6758TIP3    H241834   0.618   3.889   2.024 -0.7967 -0.8244  1.7269
 6759TIP3   OH241835   3.584   1.544   1.342 -0.3391 -0.7830  0.0620
 6759TIP3    H141836   3.640   1.538   1.419  0.9663 -0.7509 -0.8598
 6759TIP3    H241837   3.640   1.518   1.269 -1.6867 -1.2933 -0.8277
 6760TIP3   OH241838   6.175   6.293   0.690 -0.4442 -0.0871 -0.3656
 6760TIP3    H141839   6.260   6.311   0.649 -1.5249  1.7549 -1.9848
 6760TIP3    H241840   6.157   6.201   0.670  0.2199  0.0860 -1.8910
 6761TIP3   OH241841   6.384   6.441   6.550  0.3985 -0.3944 -0.1019
 6761TIP3    H141842   6.446   6.458   6.479 -0.0499 -0.8324 -0.6085
 6761TIP3    H241843   6.435   6.393   6.615  0.6803 -0.4334 -0.3495
 6762TIP3   OH241844   5.812   4.134   7.849 -0.2193 -0.5994 -0.5546
 6762TIP3    H141845   5.903   4.127   7.879 -0.5861 -2.7433  0.2943
 6762TIP3    H241846   5.813   4.096   7.762 -0.2646 -0.4564 -0.6168
 6763TIP3   OH241847   2.091   5.631   7.467 -0.2786 -0.0630 -0.4639
 6763TIP3    H141848   2.102   5.552   7.520 -0.4794 -0.1213 -0.5085
 6763TIP3    H241849   2.024   5.608   7.403  0.8882 -0.4305 -1.6122
 6764TIP3   OH241850   3.840   4.883   7.262 -0.3553  0.0329 -0.5017
 6764TIP3    H141851   3.758   4.839   7.283 -0.4280  0.6497  0.6312
 6764TIP3    H241852   3.882   4.826   7.197 -2.0493  0.1519 -1.7703
 6765TIP3   OH241853   5.993   3.824   0.753  0.0228 -0.4254  0.2391
 6765TIP3    H141854   6.079   3.829   0.711  0.2501  1.2546  0.8259
 6765TIP3    H241855   5.942   3.894   0.713 -0.1105  0.4932  1.9127
 6766TIP3   OH241856   2.641   1.183   0.188 -0.0380 -0.5862 -0.2434
 6766TIP3    H141857   2.736   1.182   0.199 -0.0223  0.0485 -0.2962
 6766TIP3    H241858   2.613   1.094   0.211  0.8685 -1.7149 -3.0749
 6767TIP3   OH241859   1.458   5.110   7.211 -0.1412 -0.4156  0.5935
 6767TIP3    H141860   1.450   5.036   7.272 -2.0906 -0.9160 -0.1671
 6767TIP3    H241861   1.543   5.149   7.231  0.0365 -1.6074  2.4273
 6768TIP3   OH241862   2.807   1.021   8.178 -0.3372 -0.0089  0.0491
 6768TIP3    H141863   2.884   0.989   8.225 -1.4723  0.2827  2.2525
 6768TIP3    H241864   2.827   1.006   8.086  1.4951 -1.8408  0.6673
 6769TIP3   OH241865   5.256   2.063   8.166 -0.2173  0.0575 -0.3076
 6769TIP3    H141866   5.173   2.015   8.165 -0.2183  0.0187 -2.3202
 6769TIP3    H241867   5.233   2.150   8.133  0.2226  0.7280  1.0448
 6770TIP3   OH241868   5.674   4.640   6.922 -0.1170  0.4718 -0.2223
 6770TIP3    H141869   5.613   4.690   6.867  0.5447 -0.4393 -1.8390
 6770TIP3    H241870   5.755   4.693   6.922 -0.7699  1.5941  1.7813
 6771TIP3   OH241871   0.781   5.899   6.690  0.7560  0.4371 -0.0329
 6771TIP3    H141872   0.876   5.900   6.694  0.8942  2.8962 -1.5236
 6771TIP3    H241873   0.758   5.982   6.648 -2.0610 -0.0157  0.3968
 6772TIP3   OH241874   0.833   2.178   6.912  0.0680  0.4127  0.2887
 6772TIP3    H141875   0.805   2.105   6.857 -1.4231  0.1654  1.3255
 6772TIP3    H241876   0.841   2.252   6.852 -1.9441  0.2586 -0.2474
 6773TIP3   OH241877   6.465   4.973   0.603 -0.4109  0.2378 -0.0786
 6773TIP3    H141878   6.442   4.898   0.658  0.3161 -1.2248 -1.6915
 6773TIP3    H241879   6.389   4.986   0.547  0.2055 -0.5873 -1.1400
 6774TIP3   OH241880   2.080   4.380   6.600 -0.4107  0.8454  0.2647
 6774TIP3    H141881   2.175   4.388   6.587 -0.2720  1.3316  1.4274
 6774TIP3    H241882   2.060   4.290   6.576  0.4523  0.5454  0.6298
 6775TIP3   OH241883   1.117   6.631   8.088  0.5042 -0.0110  0.3321
 6775TIP3    H141884   1.037   6.642   8.140  1.7844 -0.1118  2.4696
 6775TIP3    H241885   1.179   6.694   8.125  1.6289 -0.3840 -0.8285
 6776TIP3   OH241886   5.859   3.635   1.233 -0.0344  0.0769  0.1478
 6776TIP3    H141887   5.849   3.574   1.160  1.8912  0.6713 -0.6739
 6776TIP3    H241888   5.851   3.579   1.311  1.2512 -1.1981 -0.5716
 6777TIP3   OH241889   1.221   4.223   0.320  0.0238  0.2219 -0.6468
 6777TIP3    H141890   1.240   4.273   0.241 -0.7797 -0.8001 -1.5195
 6777TIP3    H241891   1.130   4.194   0.308  0.2429 -0.8400  0.1559
 6778TIP3   OH241892   4.492   5.466   6.808  0.2371 -0.2779 -0.3672
 6778TIP3    H141893   4.413   5.457   6.756 -1.0818  2.7053  0.8889
 6778TIP3    H241894   4.556   5.507   6.749 -1.2738  3.1768  0.1352
 6779TIP3   OH241895   2.875   3.652   7.794  0.1413 -0.3182  0.3136
 6779TIP3    H141896   2.943   3.682   7.734 -0.6505  0.8784 -0.0195
 6779TIP3    H241897   2.862   3.560   7.771  0.3866 -0.0741 -0.8595
 6780TIP3   OH241898   0.238   2.209   8.321 -0.5449  0.2927  0.2561
 6780TIP3    H141899   0.288   2.156   8.259 -0.2361  0.2795  0.5184
 6780TIP3    H241900   0.158   2.232   8.273  0.3421  1.5431 -0.6874
 6781TIP3   OH241901   3.206   5.727   7.638  0.4054  0.6348  0.4994
 6781TIP3    H141902   3.279   5.697   7.693  1.5051 -1.4245 -1.9084
 6781TIP3    H241903   3.137   5.663   7.653  0.1329  0.9517  0.6176
 6782TIP3   OH241904   1.494   5.885   7.241 -0.0643  0.7937  0.5318
 6782TIP3    H141905   1.459   5.875   7.330 -0.9319 -1.4156  0.0150
 6782TIP3    H241906   1.576   5.836   7.242  0.4949  1.7142  0.3966
 6783TIP3   OH241907   2.043   1.940   1.435 -0.6109  0.1419  0.6175
 6783TIP3    H141908   1.965   1.886   1.440 -3.1765  3.3838 -0.3938
 6783TIP3    H241909   2.013   2.021   1.394  3.2879  1.6800  0.3588
 6784TIP3   OH241910   6.745   1.909   1.491  0.6240  0.8371  0.1117
 6784TIP3    H141911   6.666   1.905   1.546 -0.2622  2.1148 -1.0322
 6784TIP3    H241912   6.817   1.911   1.554 -0.1969 -0.7671  1.1845
 6785TIP3   OH241913   5.940   2.450   7.292 -0.2608 -0.1127 -0.3848
 6785TIP3    H141914   5.994   2.495   7.227  0.3441 -1.8086 -1.1117
 6785TIP3    H241915   5.948   2.357   7.270 -0.3437 -0.7147  1.8799
 6786TIP3   OH241916   3.371   5.494   1.972 -0.3323  0.1108 -0.0950
 6786TIP3    H141917   3.381   5.583   1.939  2.5606  0.1795  0.6861
 6786TIP3    H241918   3.349   5.505   2.065 -0.1877 -0.0058 -0.0474
 6787TIP3   OH241919   0.871   0.337   6.618  0.3291  0.2441 -0.7637
 6787TIP3    H141920   0.956   0.354   6.658 -1.2166  2.1075  2.0510
 6787TIP3    H241921   0.823   0.286   6.684 -1.8591  2.2164 -0.7077
 6788TIP3   OH241922   4.193   4.122   7.492  0.3203 -0.4383 -0.1256
 6788TIP3    H141923   4.250   4.073   7.433  1.7456  1.8859 -0.7915
 6788TIP3    H241924   4.239   4.205   7.507 -2.8507  1.6118 -0.7104
 6789TIP3   OH241925   5.116   4.880   7.219  0.3781  0.0153 -0.1751
 6789TIP3    H141926   5.130   4.794   7.180  2.5133 -0.0049  0.4958
 6789TIP3    H241927   5.157   4.941   7.158  0.2739  0.3810  0.1156
 6790TIP3   OH241928   5.481   3.893   1.249 -0.2275  0.2391 -0.0614
 6790TIP3    H141929   5.385   3.891   1.248 -0.2692 -0.9207 -2.5038
 6790TIP3    H241930   5.504   3.920   1.338 -2.8100  1.7248  0.2597
 6791TIP3   OH241931   3.247   0.361   8.453  0.2467  0.3116  0.1724
 6791TIP3    H141932   3.274   0.440   8.500 -1.8871  0.3051  1.5468
 6791TIP3    H241933   3.217   0.394   8.368 -0.1394  0.9155  0.5362
 6792TIP3   OH241934   2.702   1.889   6.811  0.3327 -0.0023  0.7831
 6792TIP3    H141935   2.732   1.970   6.770 -0.4579  0.2972  0.7815
 6792TIP3    H241936   2.608   1.902   6.823 -0.0405 -1.3874 -0.3226
 6793TIP3   OH241937   1.412   0.475   1.581  0.0040 -0.3745  0.3353
 6793TIP3    H141938   1.380   0.563   1.562 -0.6825 -0.8135 -0.5680
 6793TIP3    H241939   1.505   0.478   1.556  0.2839  0.4026  1.3763
 6794TIP3   OH241940   1.164   2.813   8.408 -0.3908  0.2653 -0.2757
 6794TIP3    H141941   1.142   2.816   8.502 -1.0507  0.6019 -0.4353
 6794TIP3    H241942   1.259   2.825   8.406 -0.4188  0.6744  0.3278
 6795TIP3   OH241943   1.483   6.306   0.563 -0.2403  0.1319 -0.2318
 6795TIP3    H141944   1.394   6.273   0.573 -0.6013  1.1902  0.2123
 6795TIP3    H241945   1.487   6.337   0.473 -0.6110  0.8869  0.0058
 6796TIP3   OH241946   0.278   4.564   0.346  0.3145 -0.1837  0.4492
 6796TIP3    H141947   0.368   4.546   0.318 -0.5118 -1.5136 -1.6292
 6796TIP3    H241948   0.243   4.478   0.368 -1.6358 -0.3762 -2.8173
 6797TIP3   OH241949   1.056   5.588   7.586  0.0075 -0.0605  0.6573
 6797TIP3    H141950   1.065   5.533   7.664  0.4483  0.2002  0.7882
 6797TIP3    H241951   1.041   5.676   7.620  1.6013  0.3084  0.4683
 6798TIP3   OH241952   3.490   0.860   0.671 -0.2735  0.2357 -0.5608
 6798TIP3    H141953   3.413   0.834   0.722  1.7855 -0.8319  2.2529
 6798TIP3    H241954   3.492   0.956   0.678 -0.6425  0.1827  0.4622
 6799TIP3   OH241955   1.485   0.072   0.884  0.0896 -0.2571 -0.4485
 6799TIP3    H141956   1.393   0.092   0.902  0.5631  2.1090 -0.2499
 6799TIP3    H241957   1.512   0.014   0.956 -0.8317  0.3805  0.4339
 6800TIP3   OH241958   1.444   3.280   0.493 -0.4632  0.5134 -0.2326
 6800TIP3    H141959   1.427   3.217   0.423 -2.8325  0.6881  0.0948
 6800TIP3    H241960   1.483   3.355   0.448 -1.1946  0.3086 -1.2599
 6801TIP3   OH241961   3.513   4.384   8.519  0.1590  0.1303 -0.4036
 6801TIP3    H141962   3.517   4.302   8.568  1.0248 -0.1003 -0.8366
 6801TIP3    H241963   3.604   4.409   8.506 -0.0506  0.3374 -1.6368
 6802TIP3   OH241964   2.504   0.599   8.287  0.4074 -0.3972 -0.1568
 6802TIP3    H141965   2.518   0.515   8.330 -0.8934 -1.3209 -1.4957
 6802TIP3    H241966   2.410   0.613   8.291  0.6763  1.6159  1.1027
 6803TIP3   OH241967   0.556   1.848   1.583 -0.3514  0.4124 -0.0790
 6803TIP3    H141968   0.486   1.913   1.590  1.5246  2.5063  0.0158
 6803TIP3    H241969   0.596   1.846   1.670 -0.2020 -0.7067 -0.1578
 6804TIP3   OH241970   1.258   4.379   1.090  0.5004  0.2391  0.1816
 6804TIP3    H141971   1.268   4.390   0.995  0.5880 -1.0961  0.0169
 6804TIP3    H241972   1.163   4.384   1.104  0.5931  2.7734  0.3769
 6805TIP3   OH241973   0.325   3.437   2.899 -0.2958 -0.0464  0.6961
 6805TIP3    H141974   0.345   3.380   2.825  0.9600  0.3882  0.6833
 6805TIP3    H241975   0.337   3.381   2.976  0.6015  0.1017  0.6687
 6806TIP3   OH241976   3.417   1.028   0.939  0.1714  0.3181  0.4571
 6806TIP3    H141977   3.415   0.941   0.899 -0.4715 -0.2432  1.6525
 6806TIP3    H241978   3.424   1.088   0.865 -2.5368 -0.5849 -0.6651
 6807TIP3   OH241979   1.045   1.774   1.259  0.3255 -0.1987 -0.1396
 6807TIP3    H141980   1.092   1.759   1.341 -1.2530 -1.1149  0.6355
 6807TIP3    H241981   0.996   1.855   1.274  1.6496  0.8166 -0.9874
 6808TIP3   OH241982   0.180   6.803   7.826 -0.1948  0.3616 -0.1081
 6808TIP3    H141983   0.166   6.736   7.892  2.1896  0.8683  1.0286
 6808TIP3    H241984   0.253   6.770   7.773 -1.2685  0.5138 -1.7607
 6809TIP3   OH241985   0.708   3.268   1.695 -0.5472 -0.4876  0.2469
 6809TIP3    H141986   0.622   3.229   1.713 -1.3349  0.7130 -0.6557
 6809TIP3    H241987   0.719   3.334   1.763 -1.7603  1.4026 -1.2742
 6810TIP3   OH241988   5.604   0.351   8.459 -0.0704  0.5671 -0.3635
 6810TIP3    H141989   5.673   0.417   8.462  0.5542 -0.0010 -1.5202
 6810TIP3    H241990   5.647   0.273   8.423 -0.7569 -0.5236  1.0836
 6811TIP3   OH241991   2.504   2.421   0.026  0.3947 -0.3345 -0.6401
 6811TIP3    H141992   2.471   2.343  -0.019  1.4071 -1.2965  0.2090
 6811TIP3    H241993   2.543   2.474  -0.043  0.0845 -0.7980 -1.1787
 6812TIP3   OH241994   5.081   2.382   6.949 -0.1947  0.0875 -0.3399
 6812TIP3    H141995   5.007   2.334   6.913 -0.6807 -0.4865  1.3330
 6812TIP3    H241996   5.117   2.431   6.875 -2.7539  1.0563 -1.0303
 6813TIP3   OH241997   0.164   3.009   7.590  0.4148  0.3401 -0.2559
 6813TIP3    H141998   0.110   3.002   7.669 -0.0177 -0.3402 -0.5951
 6813TIP3    H241999   0.232   3.071   7.613 -0.7336  1.5285  0.0613
 6814TIP3   OH242000   1.503   4.937   0.245 -0.2338 -0.4832  0.1342
 6814TIP3    H142001   1.473   4.946   0.155 -1.1633 -1.0103  0.3717
 6814TIP3    H242002   1.507   4.843   0.260 -1.5070 -0.4159  1.0739
 6815TIP3   OH242003   5.887   3.492   0.771 -0.2129  0.0785  0.2530
 6815TIP3    H142004   5.836   3.556   0.721  0.8973  1.2873  0.5897
 6815TIP3    H242005   5.894   3.531   0.858  2.8965  1.0209 -0.2644
 6816TIP3   OH242006   4.283   1.580   2.234 -0.4770  0.0340 -0.0299
 6816TIP3    H142007   4.268   1.657   2.180 -0.1132  0.3970  0.3795
 6816TIP3    H242008   4.376   1.584   2.256 -0.0056 -1.5264 -1.5319
 6817TIP3   OH242009   6.099   4.199   8.271 -0.0849  0.1927 -0.3081
 6817TIP3    H142010   6.050   4.117   8.267  0.7158 -0.4168  1.3732
 6817TIP3    H242011   6.042   4.259   8.319 -0.1606  0.2308 -0.4452
 6818TIP3   OH242012   0.217   4.624   1.183  0.7241  0.3903 -0.3606
 6818TIP3    H142013   0.200   4.582   1.267  1.0162 -0.4386 -0.7063
 6818TIP3    H242014   0.144   4.684   1.171  1.0074  0.9883  0.7742
 6819TIP3   OH242015   5.307   1.652   7.676  0.0133 -0.2048  0.0301
 6819TIP3    H142016   5.271   1.593   7.743  1.2369 -0.8546  0.1312
 6819TIP3    H242017   5.375   1.601   7.633 -0.6578  0.2537 -1.6499
 6820TIP3   OH242018   4.565   6.350   0.317 -0.1384  0.0437  0.5303
 6820TIP3    H142019   4.513   6.397   0.252 -0.7661 -2.0695 -0.6050
 6820TIP3    H242020   4.542   6.391   0.400 -3.6122 -0.6515  0.0848
 6821TIP3   OH242021   3.510   4.244   0.748  0.4433 -0.1142  0.0455
 6821TIP3    H142022   3.522   4.336   0.726 -0.8325 -0.2970 -1.5875
 6821TIP3    H242023   3.486   4.245   0.841 -0.4274  1.2851 -0.1588
 6822TIP3   OH242024   6.412   2.539   1.657  0.4929 -0.5559 -0.1336
 6822TIP3    H142025   6.499   2.505   1.635  0.8041 -0.9305  1.5210
 6822TIP3    H242026   6.358   2.460   1.667 -0.0423 -0.3280 -1.0905
 6823TIP3   OH242027   0.606   5.388   2.374 -0.1421 -0.8076  0.1101
 6823TIP3    H142028   0.560   5.310   2.341 -0.6652  0.0926 -1.4253
 6823TIP3    H242029   0.600   5.450   2.302  2.2055 -0.1104  0.4516
 6824TIP3   OH242030   5.112   6.182   0.708  0.3577 -0.3542  0.5058
 6824TIP3    H142031   5.043   6.117   0.723 -0.7291  0.4786 -0.7410
 6824TIP3    H242032   5.080   6.261   0.750 -1.1472  1.0329 -2.9086
 6825TIP3   OH242033   1.963   3.738   1.582 -0.1018  0.5410  0.0273
 6825TIP3    H142034   1.967   3.742   1.677  1.7071  1.7466 -0.0402
 6825TIP3    H242035   1.871   3.755   1.561 -0.4412  0.7332  1.5240
 6826TIP3   OH242036   4.802   2.826   2.090  0.3091 -0.5863 -0.3250
 6826TIP3    H142037   4.793   2.913   2.129 -3.0688 -0.4162 -1.1618
 6826TIP3    H242038   4.880   2.832   2.035 -0.1367  2.1124 -0.7879
 6827TIP3   OH242039   0.588   5.528   1.702 -1.0019 -0.4908 -0.2418
 6827TIP3    H142040   0.529   5.552   1.773 -1.4069 -1.0700 -0.3715
 6827TIP3    H242041   0.664   5.586   1.713 -1.5108  0.1318  0.0361
 6828TIP3   OH242042   3.301   0.049   1.047  0.1874 -0.1856  0.0140
 6828TIP3    H142043   3.299   0.131   0.998 -0.8214  0.0166  0.3704
 6828TIP3    H242044   3.253   0.069   1.128  1.3202 -0.6708  0.8350
 6829TIP3   OH242045   4.386   1.705   1.748  0.1541 -0.3227  0.2210
 6829TIP3    H142046   4.337   1.655   1.812 -0.2480 -1.3204 -0.8251
 6829TIP3    H242047   4.466   1.654   1.733  0.1461 -0.2122 -0.2223
 6830TIP3   OH242048   5.627   3.849   6.700  0.1615  0.1353 -0.0125
 6830TIP3    H142049   5.568   3.875   6.771  1.6785  1.2745  0.9259
 6830TIP3    H242050   5.570   3.827   6.627 -1.4330 -0.0936  1.2585
 6831TIP3   OH242051   6.044   2.966   7.670 -0.2429  0.3295 -0.3794
 6831TIP3    H142052   6.003   2.941   7.587  0.1175  1.6776 -0.9897
 6831TIP3    H242053   5.971   2.988   7.728 -0.4909 -0.5009 -0.3654
 6832TIP3   OH242054   6.197   1.132   0.820 -0.2000  0.9940 -0.6966
 6832TIP3    H142055   6.156   1.116   0.736  0.9342 -1.4604 -0.9013
 6832TIP3    H242056   6.178   1.053   0.872  0.6716  1.6191  0.6590
 6833TIP3   OH242057   2.073   5.962   7.585 -0.0139 -0.6739  0.1129
 6833TIP3    H142058   2.114   5.985   7.501  2.5995  0.0009  1.4613
 6833TIP3    H242059   2.089   6.038   7.641 -0.6343 -1.5898  1.5936
 6834TIP3   OH242060   0.764   2.686   0.638 -0.7749 -0.3592 -0.0345
 6834TIP3    H142061   0.845   2.642   0.610  0.4079  2.6827 -1.9187
 6834TIP3    H242062   0.712   2.692   0.558 -2.0665 -0.6339  0.7720
 6835TIP3   OH242063   2.625   2.636   7.506 -0.5972 -0.2160  0.2761
 6835TIP3    H142064   2.631   2.580   7.429 -0.4413  2.1627 -1.5243
 6835TIP3    H242065   2.691   2.703   7.493  0.7851 -0.7832  3.4670
 6836TIP3   OH242066   3.861   4.673   0.923 -0.6375  0.3011 -0.0894
 6836TIP3    H142067   3.900   4.586   0.930  0.0492  0.6056 -0.0494
 6836TIP3    H242068   3.849   4.686   0.829  3.1321  1.7814 -0.5777
 6837TIP3   OH242069   6.859   0.076   8.255  0.5920  0.6370 -0.0521
 6837TIP3    H142070   6.810   0.094   8.175 -0.0830 -1.8391 -0.2688
 6837TIP3    H242071   6.950   0.071   8.226  0.9379  3.8059  0.1129
 6838TIP3   OH242072   0.093   5.920   6.750  1.2940 -0.0522 -0.7923
 6838TIP3    H142073   0.083   5.988   6.683 -2.1699 -1.6885 -2.1603
 6838TIP3    H242074   0.080   5.966   6.833  0.6929  1.2442 -1.5694
 6839TIP3   OH242075   0.820   1.913   1.350  0.2260  0.0858 -0.0327
 6839TIP3    H142076   0.785   1.967   1.280 -0.3954 -0.9596 -0.5516
 6839TIP3    H242077   0.787   1.825   1.332  0.4513 -0.2996  1.3056
 6840TIP3   OH242078   5.574   5.812   7.772 -0.1276  0.0349 -0.2273
 6840TIP3    H142079   5.522   5.875   7.722  0.0157  0.9600  0.7516
 6840TIP3    H242080   5.569   5.842   7.862 -0.1591 -1.4476  0.2988
 6841TIP3   OH242081   4.793   4.732   8.207 -0.3504  0.1014 -0.4737
 6841TIP3    H142082   4.736   4.772   8.272 -0.3937 -0.0033 -0.4473
 6841TIP3    H242083   4.812   4.645   8.241  1.0217  0.6481  0.2481
 6842TIP3   OH242084   2.474   5.399   7.999  0.3886 -0.1274  0.3610
 6842TIP3    H142085   2.531   5.322   8.002 -0.1364 -0.5278  2.7936
 6842TIP3    H242086   2.532   5.473   8.018  0.5591 -0.1679  0.0064
 6843TIP3   OH242087   2.035   3.055   8.441 -0.1864  0.4515  0.2320
 6843TIP3    H142088   2.061   3.007   8.520 -1.5716  0.1254  0.5163
 6843TIP3    H242089   1.964   3.111   8.470 -0.4529  0.6096 -0.7085
 6844TIP3   OH242090   1.027   4.983   2.348  0.0318 -0.1225 -0.0977
 6844TIP3    H142091   1.108   4.935   2.338  0.6165  0.7653  0.2536
 6844TIP3    H242092   1.036   5.029   2.431 -1.7395 -1.7002  1.0577
 6845TIP3   OH242093   1.381   2.362   1.694 -0.2503 -0.6110  0.2118
 6845TIP3    H142094   1.445   2.393   1.629  0.8828 -0.2809  1.4369
 6845TIP3    H242095   1.327   2.439   1.712  0.0898 -0.4144  0.4074
 6846TIP3   OH242096   2.755   5.357   6.857 -0.2041  0.7071 -0.6915
 6846TIP3    H142097   2.705   5.368   6.938 -0.1070  1.0904 -0.6840
 6846TIP3    H242098   2.692   5.371   6.787 -0.4990 -0.5055 -0.7002
 6847TIP3   OH242099   3.168   5.337   7.645  0.3344 -0.3574  0.0757
 6847TIP3    H142100   3.228   5.384   7.703 -0.8191 -1.2981  2.1300
 6847TIP3    H242101   3.104   5.403   7.618  0.2709 -0.1380  0.7525
 6848TIP3   OH242102   6.156   0.164   6.051  0.8341 -0.4618 -0.0402
 6848TIP3    H142103   6.084   0.179   5.988  1.3523 -0.2709 -0.6001
 6848TIP3    H242104   6.174   0.070   6.045  1.2684 -0.3482 -0.6150
 6849TIP3   OH242105   1.548   6.815   1.115 -0.2916 -0.2601  0.0664
 6849TIP3    H142106   1.616   6.788   1.177  0.1179 -1.9505 -1.0453
 6849TIP3    H242107   1.467   6.813   1.166  0.3382  0.7006  1.1280
 6850TIP3   OH242108   3.349   4.183   7.079 -0.5254  0.1084 -0.2331
 6850TIP3    H142109   3.397   4.100   7.078 -0.0167  0.3925 -1.2251
 6850TIP3    H242110   3.417   4.250   7.071 -0.8588  0.6850  1.4944
 6851TIP3   OH242111   3.905   5.844   0.068  0.0189 -0.0058 -0.0019
 6851TIP3    H142112   3.859   5.877  -0.010 -0.1491 -0.3429 -0.0462
 6851TIP3    H242113   3.835   5.816   0.127  0.1596 -0.2063  0.0705
 6852TIP3   OH242114   0.810   2.715   8.251 -0.0140  0.1245  0.2987
 6852TIP3    H142115   0.882   2.776   8.266  0.9558 -1.0996  0.7522
 6852TIP3    H242116   0.771   2.743   8.168  2.7288 -0.8356 -1.4249
 6853TIP3   OH242117   3.864   2.553   0.759  0.4818 -0.6187 -0.1101
 6853TIP3    H142118   3.909   2.628   0.799 -0.0034 -0.8024  0.8132
 6853TIP3    H242119   3.925   2.522   0.692 -0.1326  1.8111 -1.9448
 6854TIP3   OH242120   5.457   4.312   1.750  0.4633  0.2474 -0.0982
 6854TIP3    H142121   5.413   4.394   1.774 -0.3918 -0.1950 -0.1197
 6854TIP3    H242122   5.517   4.337   1.680 -0.0481  0.7977 -0.3515
 6855TIP3   OH242123   1.723   5.420   0.335  0.2667 -0.0577 -0.1379
 6855TIP3    H142124   1.759   5.420   0.246  2.0702  0.8542  0.5504
 6855TIP3    H242125   1.628   5.419   0.322  0.4651 -1.9334 -2.0380
 6856TIP3   OH242126   4.075   1.086   1.336  0.2227 -0.2409 -0.3221
 6856TIP3    H142127   4.128   1.115   1.262  0.3155  0.2089 -0.0838
 6856TIP3    H242128   4.080   0.990   1.333  1.0044 -0.2042 -0.3320
 6857TIP3   OH242129   3.502   6.626   6.819  0.1242 -0.7156 -0.2387
 6857TIP3    H142130   3.494   6.579   6.736  1.0087 -1.6048  0.1494
 6857TIP3    H242131   3.413   6.649   6.843 -0.0470  1.2187 -2.3363
 6858TIP3   OH242132   3.018   0.571   7.196 -0.1016  0.0277  0.3865
 6858TIP3    H142133   2.975   0.617   7.268 -2.3994  0.6486 -1.2434
 6858TIP3    H242134   3.065   0.499   7.237 -0.0361  1.2796  2.6119
 6859TIP3   OH242135   1.903   5.270   8.349 -0.4519 -0.1951 -0.6401
 6859TIP3    H142136   1.846   5.195   8.367 -1.1027  0.7353  1.5512
 6859TIP3    H242137   1.988   5.245   8.385 -0.4319 -0.2416 -0.7206
 6860TIP3   OH242138   0.516   4.005   7.102 -0.1800  0.0940 -0.3214
 6860TIP3    H142139   0.466   4.069   7.152 -0.3457  0.4118 -0.8848
 6860TIP3    H242140   0.497   3.921   7.144 -0.6381  0.3047 -0.1003
 6861TIP3   OH242141   5.257   6.634   2.559  0.0183 -0.2970  0.1565
 6861TIP3    H142142   5.203   6.599   2.629 -1.6928  0.9987 -0.4397
 6861TIP3    H242143   5.248   6.729   2.567  0.3104 -0.1102 -1.4139
 6862TIP3   OH242144   3.246   0.233   0.401 -0.4733  0.5212  0.2984
 6862TIP3    H142145   3.341   0.240   0.389 -0.6559  1.2585 -1.0194
 6862TIP3    H242146   3.210   0.284   0.328 -1.8754  0.8163  1.1740
 6863TIP3   OH242147   5.513   1.012   6.327 -0.0509  0.5249 -0.7354
 6863TIP3    H142148   5.424   1.042   6.348  0.1258  1.1256 -0.8298
 6863TIP3    H242149   5.507   0.916   6.331 -0.3278  0.5762  0.8498
 6864TIP3   OH242150   6.090   5.131   8.118  0.3224  0.7928  0.0517
 6864TIP3    H142151   6.032   5.059   8.092 -1.1821  2.4683 -1.4777
 6864TIP3    H242152   6.033   5.195   8.159  1.3290  1.8984 -0.2159
 6865TIP3   OH242153   2.921   0.072   1.946  0.3812  0.0399  0.0605
 6865TIP3    H142154   3.010   0.055   1.916 -0.3456 -1.7854 -1.2145
 6865TIP3    H242155   2.883   0.126   1.877  0.8610  2.0533  1.2770
 6866TIP3   OH242156   3.877   5.755   1.367 -0.1398  0.5823  0.2511
 6866TIP3    H142157   3.880   5.751   1.272  0.7132 -0.9527  0.3113
 6866TIP3    H242158   3.824   5.832   1.386 -0.8108  0.5864 -1.4642
 6867TIP3   OH242159   1.602   3.249   0.144 -0.4576  0.1278  0.9289
 6867TIP3    H142160   1.548   3.174   0.168  0.3482 -0.6239  0.4791
 6867TIP3    H242161   1.546   3.325   0.157 -2.0985 -0.6962 -0.8950
 6868TIP3   OH242162   3.407   5.069   7.021 -0.0200  0.0114 -0.5032
 6868TIP3    H142163   3.327   5.120   7.012  0.7833  1.3721 -0.3208
 6868TIP3    H242164   3.383   4.993   7.073 -0.8321  1.2658  1.0195
 6869TIP3   OH242165   2.743   3.933   7.591 -0.2790 -0.0342 -0.0558
 6869TIP3    H142166   2.821   3.882   7.567 -1.6760 -1.5249 -1.7158
 6869TIP3    H242167   2.692   3.937   7.510 -2.0037  0.7718  1.0295
 6870TIP3   OH242168   6.315   4.899   8.545 -0.1950  0.0828 -0.1901
 6870TIP3    H142169   6.297   4.827   8.605 -1.4100 -0.0970 -0.7392
 6870TIP3    H242170   6.229   4.920   8.507  0.5444  0.1515 -1.8952
 6871TIP3   OH242171   4.013   5.274   1.396  0.2969  0.0707 -0.0545
 6871TIP3    H142172   4.101   5.295   1.363  0.1377  0.8937  0.0350
 6871TIP3    H242173   3.983   5.355   1.437 -0.2061 -0.4303  0.5842
 6872TIP3   OH242174   6.005   5.584   1.038  0.3505  0.4647  0.1635
 6872TIP3    H142175   5.995   5.584   0.943 -2.4537 -0.6715  0.3642
 6872TIP3    H242176   6.021   5.492   1.060  1.2897  0.7652  0.8007
 6873TIP3   OH242177   2.400   0.237   2.377 -0.0175  0.0975  0.1834
 6873TIP3    H142178   2.421   0.144   2.391  0.2718 -0.4108 -2.9322
 6873TIP3    H242179   2.465   0.284   2.428  1.1148 -1.4348  0.2361
 6874TIP3   OH242180   0.290   1.164   6.904 -0.8322  0.7556  0.2392
 6874TIP3    H142181   0.211   1.134   6.858 -1.4361  2.4592  0.1046
 6874TIP3    H242182   0.334   1.222   6.842  2.2678 -2.4459 -0.9207
 6875TIP3   OH242183   4.429   0.437   7.881  0.0548 -0.0492 -0.1371
 6875TIP3    H142184   4.423   0.486   7.800  1.9378  0.9890  0.2805
 6875TIP3    H242185   4.496   0.483   7.932 -0.8974 -0.8116  1.9061
 6876TIP3   OH242186   2.051   4.748   7.682 -0.5925 -0.3887  0.0593
 6876TIP3    H142187   2.142   4.759   7.708 -1.1437  2.3028  1.2059
 6876TIP3    H242188   2.052   4.761   7.587  0.1374  0.5882  0.1813
 6877TIP3   OH242189   0.194   0.518   1.152  0.1831 -0.2633 -0.7753
 6877TIP3    H142190   0.123   0.453   1.151 -0.2175 -0.0754  2.8733
 6877TIP3    H242191   0.273   0.467   1.169 -0.0546  0.0337  1.5270
 6878TIP3   OH242192   1.710   4.374   0.561 -0.2348  0.1305  0.7827
 6878TIP3    H142193   1.742   4.283   0.557 -1.3980 -0.2657 -1.0490
 6878TIP3    H242194   1.779   4.422   0.607  2.0587 -1.0575 -1.1399
 6879TIP3   OH242195   0.055   0.830   5.841  0.0221 -0.1692 -0.8343
 6879TIP3    H142196  -0.024   0.785   5.872  1.2373 -0.3006  2.4832
 6879TIP3    H242197   0.029   0.922   5.834 -0.8313 -0.4427 -1.4207
 6880TIP3   OH242198   4.355   3.326   6.806  0.8206 -0.3216  0.0258
 6880TIP3    H142199   4.447   3.315   6.827  0.4328 -3.1839  0.6123
 6880TIP3    H242200   4.309   3.262   6.860 -1.6048  1.3721  0.1543
 6881TIP3   OH242201   0.522   2.612   7.510  0.6507 -0.3956  0.7583
 6881TIP3    H142202   0.442   2.588   7.557  1.4206 -3.2503  0.7976
 6881TIP3    H242203   0.586   2.629   7.580  0.4986  0.3403  0.7238
 6882TIP3   OH242204   2.108   3.262   0.673  0.3216  0.2249 -0.0618
 6882TIP3    H142205   2.192   3.307   0.664  0.9918 -0.8864  0.3976
 6882TIP3    H242206   2.114   3.188   0.612  0.3517 -0.8003  1.1447
 6883TIP3   OH242207   1.460   6.220   0.880 -0.0884 -0.4214  0.2612
 6883TIP3    H142208   1.465   6.160   0.805  2.2440  0.6923 -0.5895
 6883TIP3    H242209   1.496   6.303   0.846 -0.2125  0.5055  2.2669
 6884TIP3   OH242210   4.115   1.790   8.014 -0.5718  0.9914 -0.4163
 6884TIP3    H142211   4.175   1.790   8.089 -2.4183  0.4641  1.1553
 6884TIP3    H242212   4.037   1.834   8.047 -1.4693  0.6870 -2.0434
 6885TIP3   OH242213   6.097   6.166   0.221 -0.1374 -0.4124 -0.3506
 6885TIP3    H142214   6.010   6.196   0.196  0.4548  1.4069 -0.3926
 6885TIP3    H242215   6.114   6.209   0.306  1.1552  0.2544 -0.9099
 6886TIP3   OH242216   1.394   4.789   7.837 -0.5287 -0.0818  0.2073
 6886TIP3    H142217   1.377   4.861   7.897 -0.2183 -0.7555  1.1095
 6886TIP3    H242218   1.346   4.715   7.873  2.5831 -1.5091  1.7314
 6887TIP3   OH242219   2.206   0.873   1.753 -0.1941 -0.6853  0.0245
 6887TIP3    H142220   2.207   0.781   1.728 -0.3469 -0.9662  0.9971
 6887TIP3    H242221   2.119   0.887   1.791 -0.0686 -0.2176  0.1438
 6888TIP3   OH242222   0.397   5.486   6.929  0.4212  0.1217  0.0569
 6888TIP3    H142223   0.353   5.447   7.004  0.9991 -0.6608  0.0021
 6888TIP3    H242224   0.374   5.428   6.855  1.6473 -0.4053  0.0579
 6889TIP3   OH242225   5.938   4.414   0.053 -0.7542  0.0033 -0.2572
 6889TIP3    H142226   6.002   4.485   0.056  0.8064 -1.2746 -1.6175
 6889TIP3    H242227   5.880   4.431   0.128  1.3499  1.0190  1.2501
 6890TIP3   OH242228   1.764   6.386   0.575 -0.6688 -0.0595  0.1868
 6890TIP3    H142229   1.669   6.377   0.569 -0.6477 -2.1910  1.6219
 6890TIP3    H242230   1.784   6.361   0.665  1.2025  1.1757  0.1619
 6891TIP3   OH242231   0.658   2.507   8.545  0.0724  0.0231  0.8694
 6891TIP3    H142232   0.749   2.483   8.531  0.1270 -0.1251  1.4555
 6891TIP3    H242233   0.656   2.546   8.632 -0.2602  0.8891  0.4950
 6892TIP3   OH242234   6.462   6.304   0.652  0.0295  0.0085 -0.4391
 6892TIP3    H142235   6.546   6.283   0.612  0.6386 -0.1078  0.8625
 6892TIP3    H242236   6.431   6.381   0.605  0.5351 -0.3536 -1.3772
 6893TIP3   OH242237   4.173   2.809   7.979  0.3072  0.4535 -0.0293
 6893TIP3    H142238   4.216   2.886   8.015  1.1245  0.3801 -0.8011
 6893TIP3    H242239   4.160   2.830   7.886  0.8922 -0.4753 -0.3348
 6894TIP3   OH242240   0.744   0.130   1.673  0.1942  0.0154 -0.0857
 6894TIP3    H142241   0.809   0.199   1.683 -0.5382  0.4412  2.5274
 6894TIP3    H242242   0.782   0.054   1.717 -0.5951 -0.0673  0.4728
 6895TIP3   OH242243   2.280   5.257   2.194 -0.0917 -0.5838  0.1076
 6895TIP3    H142244   2.247   5.177   2.153  0.8544 -1.0532  0.2394
 6895TIP3    H242245   2.201   5.309   2.212 -0.7454 -1.5938  0.2564
 6896TIP3   OH242246   5.936   0.173   8.660  0.2767 -0.2907  0.5093
 6896TIP3    H142247   5.937   0.184   8.564  0.2369 -0.0081  0.5394
 6896TIP3    H242248   5.957   0.081   8.674  2.5813  0.1506  0.3036
 6897TIP3   OH242249   3.650   6.171   7.252 -0.1282  0.3630 -0.3821
 6897TIP3    H142250   3.602   6.145   7.331  1.5214 -0.6477  0.3546
 6897TIP3    H242251   3.584   6.174   7.183 -1.3846 -0.0743  0.7599
 6898TIP3   OH242252   4.153   4.374   2.241  0.1136  0.0893  0.3913
 6898TIP3    H142253   4.225   4.358   2.302  2.2597 -0.6743 -2.1710
 6898TIP3    H242254   4.171   4.462   2.207  0.0299 -0.2237 -0.4762
 6899TIP3   OH242255   5.082   4.387   7.513 -0.5512 -0.0280 -0.2504
 6899TIP3    H142256   5.150   4.408   7.448  0.9483 -0.1326  1.2180
 6899TIP3    H242257   5.021   4.461   7.508 -0.8753 -0.3490 -2.2149
 6900TIP3   OH242258   0.635   3.569   0.871 -0.0534  0.0390 -0.4098
 6900TIP3    H142259   0.721   3.605   0.850  2.1358 -4.2213  0.0512
 6900TIP3    H242260   0.619   3.595   0.962  1.2855  0.0022 -0.1491
 6901TIP3   OH242261   1.020   1.350   2.155 -0.0223  0.3297 -0.0322
 6901TIP3    H142262   0.947   1.306   2.112  0.5922 -0.8316  0.0752
 6901TIP3    H242263   1.092   1.286   2.153  0.8485  1.2658  0.2870
 6902TIP3   OH242264   5.198   0.017   2.574  0.3408 -0.1502 -1.1389
 6902TIP3    H142265   5.253   0.083   2.531 -1.5065  0.2292 -3.1192
 6902TIP3    H242266   5.118   0.064   2.597 -1.4780 -1.7672 -3.5722
 6903TIP3   OH242267   1.209   0.367   8.372 -0.3997  0.2915  0.3851
 6903TIP3    H142268   1.126   0.414   8.367 -0.8420 -0.6133 -1.8760
 6903TIP3    H242269   1.258   0.412   8.440 -2.2657  1.6090  0.9252
 6904TIP3   OH242270   5.206   6.871   6.944 -0.6943 -0.4842  0.0161
 6904TIP3    H142271   5.125   6.921   6.947 -0.2527  0.3941 -1.4635
 6904TIP3    H242272   5.253   6.906   6.868  0.8953 -1.2360  0.5979
 6905TIP3   OH242273   3.810   5.507   7.354 -0.6265  0.6695 -0.1915
 6905TIP3    H142274   3.811   5.423   7.400 -0.0015 -0.6104 -2.3923
 6905TIP3    H242275   3.869   5.494   7.279 -2.3994  2.2565 -1.9821
 6906TIP3   OH242276   1.048   0.891   0.489  0.0409  0.3133 -0.2447
 6906TIP3    H142277   1.033   0.933   0.404 -1.3966  2.3276  0.9248
 6906TIP3    H242278   1.132   0.926   0.519 -0.2306  0.8923 -0.1390
 6907TIP3   OH242279   0.925   2.676   0.869 -0.3662 -0.2596 -0.3271
 6907TIP3    H142280   0.873   2.678   0.789 -1.4678 -0.6148  0.3618
 6907TIP3    H242281   0.910   2.762   0.910  0.2998 -0.0278 -0.5578
 6908TIP3   OH242282   0.229   2.308   7.940 -0.0966 -0.3162 -0.3239
 6908TIP3    H142283   0.291   2.376   7.967  0.3488 -0.9709  0.3189
 6908TIP3    H242284   0.144   2.340   7.970  0.1933 -0.3187  0.5338
 6909TIP3   OH242285   3.866   6.244   7.729  0.5592 -0.4143 -0.1841
 6909TIP3    H142286   3.960   6.229   7.718  0.4325 -1.9001  0.4249
 6909TIP3    H242287   3.837   6.275   7.643  1.5172 -0.5016 -0.5545
 6910TIP3   OH242288   0.588   3.509   2.190 -0.1827  0.6790  0.6417
 6910TIP3    H142289   0.602   3.583   2.131 -0.3566  1.2118  1.2539
 6910TIP3    H242290   0.660   3.515   2.253 -0.2057  0.3349  0.7032
 6911TIP3   OH242291   0.047   0.883   1.626 -0.5018 -0.1088  0.1910
 6911TIP3    H142292   0.074   0.842   1.544 -1.0159  0.8004 -0.4419
 6911TIP3    H242293  -0.044   0.857   1.637 -0.1032 -1.2001  1.0977
 6912TIP3   OH242294   2.484   2.139   1.689  0.0648  0.0152  0.4828
 6912TIP3    H142295   2.504   2.045   1.694  1.3702  0.2494  0.1193
 6912TIP3    H242296   2.528   2.169   1.610  0.6027  1.1369  1.1737
 6913TIP3   OH242297   2.754   2.300   8.200 -0.1745 -0.3499  0.5354
 6913TIP3    H142298   2.750   2.210   8.167  0.8492  0.0271 -0.6945
 6913TIP3    H242299   2.820   2.343   8.146  0.9239  0.5812  2.4880
 6914TIP3   OH242300   3.581   4.529   1.840 -0.0873 -0.7903 -0.1735
 6914TIP3    H142301   3.503   4.580   1.860 -0.5737 -0.9637 -1.5163
 6914TIP3    H242302   3.624   4.516   1.925 -1.0726  0.0113  0.4695
 6915TIP3   OH242303   1.828   0.214   0.409 -0.2142 -0.5453  0.1257
 6915TIP3    H142304   1.851   0.140   0.354  0.4064 -0.7369  0.6291
 6915TIP3    H242305   1.766   0.265   0.357  0.8381 -0.3762 -0.9995
 6916TIP3   OH242306   4.905   5.177   0.003  0.3418 -0.3635  0.2278
 6916TIP3    H142307   4.923   5.217  -0.082 -2.1939  0.0287 -0.2063
 6916TIP3    H242308   4.917   5.083  -0.013 -0.4106 -0.3232 -0.6685
 6917TIP3   OH242309   0.333   0.101   6.524 -0.2154  0.2924  0.2287
 6917TIP3    H142310   0.368   0.183   6.557 -0.6018  1.1344 -1.3499
 6917TIP3    H242311   0.410   0.045   6.511  0.0573  0.4187  1.2042
 6918TIP3   OH242312   0.612   1.068   7.780 -0.0850  0.6345  0.3526
 6918TIP3    H142313   0.622   1.142   7.841  0.7711 -0.4202  1.5399
 6918TIP3    H242314   0.700   1.035   7.768 -0.4400 -0.0899 -0.3164
 6919TIP3   OH242315   2.981   5.750   8.393  0.5097  0.5059 -0.3318
 6919TIP3    H142316   3.024   5.691   8.454  0.6567 -0.3289 -1.2289
 6919TIP3    H242317   3.049   5.772   8.329 -0.5411 -1.5476 -2.3010
 6920TIP3   OH242318   1.895   2.250   0.823 -0.0219  0.0827 -0.2612
 6920TIP3    H142319   1.983   2.247   0.860  0.1200 -2.2285 -0.6697
 6920TIP3    H242320   1.838   2.220   0.893  0.0889 -2.8906 -1.3267
 6921TIP3   OH242321   0.804   5.724   1.367 -0.4742  0.0967  0.2733
 6921TIP3    H142322   0.719   5.735   1.323 -0.0888  0.5066 -0.3878
 6921TIP3    H242323   0.813   5.803   1.420 -1.7427 -1.1883  2.5292
 6922TIP3   OH242324   0.073   2.397   7.144  0.1476  0.1514  0.0671
 6922TIP3    H142325   0.079   2.356   7.231 -0.1611  0.4973  0.2579
 6922TIP3    H242326   0.101   2.329   7.083 -0.1051 -0.2564  0.3990
 6923TIP3   OH242327   1.635   6.633   1.666 -0.5717  0.5872 -0.1683
 6923TIP3    H142328   1.573   6.560   1.665 -0.5106  0.5217 -1.5128
 6923TIP3    H242329   1.704   6.605   1.726  0.1161 -1.0672 -1.6264
 6924TIP3   OH242330   3.151   5.840   1.071  0.2506  0.2983  0.7161
 6924TIP3    H142331   3.109   5.809   1.151  0.9891 -1.3879  0.5000
 6924TIP3    H242332   3.223   5.896   1.102  0.4330 -0.2144  1.2338
 6925TIP3   OH242333   6.792   3.465   0.527  0.0716  0.1744  0.2330
 6925TIP3    H142334   6.762   3.385   0.483 -0.8824  0.0221  1.1173
 6925TIP3    H242335   6.755   3.459   0.615  0.2934  1.4242  0.4308
 6926TIP3   OH242336   6.753   0.240   0.964  0.5756  0.4127  0.0247
 6926TIP3    H142337   6.802   0.220   0.885  0.3822 -0.8280  0.1967
 6926TIP3    H242338   6.686   0.171   0.969 -0.2491  1.2372  0.5662
 6927TIP3   OH242339   4.806   2.892   1.146  0.1094  0.5221  0.1347
 6927TIP3    H142340   4.882   2.855   1.190 -0.2600  0.3373  0.6193
 6927TIP3    H242341   4.811   2.856   1.057 -0.1766 -0.6177  0.5581
 6928TIP3   OH242342   3.491   4.701   7.944 -0.8030 -0.2099  0.3141
 6928TIP3    H142343   3.485   4.782   7.894  1.3251 -0.5553 -0.6175
 6928TIP3    H242344   3.430   4.642   7.901 -0.9006  0.2911 -0.2536
 6929TIP3   OH242345   3.185   5.949   6.362  0.1430  0.0095  0.0002
 6929TIP3    H142346   3.201   5.994   6.445 -0.2970  0.6983 -0.2769
 6929TIP3    H242347   3.232   6.003   6.297 -0.2329 -0.0412 -0.3135
 6930TIP3   OH242348   2.744   3.353   0.485  0.0498 -0.0083 -0.8002
 6930TIP3    H142349   2.705   3.440   0.493  0.9236  0.2764  0.7957
 6930TIP3    H242350   2.739   3.316   0.573  1.2281 -0.8945 -1.0740
 6931TIP3   OH242351   3.322   0.394   7.980 -0.8956 -0.2917  0.2198
 6931TIP3    H142352   3.341   0.487   7.967 -0.1237  0.1242  3.3412
 6931TIP3    H242353   3.404   0.359   8.015 -1.6364 -1.8044  0.4905
 6932TIP3   OH242354   2.347   5.325   1.198  0.3945 -0.4820  0.5308
 6932TIP3    H142355   2.294   5.258   1.154  1.2467 -1.3926  0.8365
 6932TIP3    H242356   2.414   5.348   1.134  0.8963 -0.9083  0.8891
 6933TIP3   OH242357   2.455   6.845   1.171  0.3348  0.2593 -0.1296
 6933TIP3    H142358   2.458   6.782   1.243  1.5329  1.1907  0.6665
 6933TIP3    H242359   2.433   6.792   1.095  1.6912 -1.2281  0.4389
 6934TIP3   OH242360   0.187   6.819   7.489 -0.7475  0.7439  0.4367
 6934TIP3    H142361   0.271   6.860   7.466 -0.8868  1.2731  0.8692
 6934TIP3    H242362   0.202   6.726   7.473  1.1725  0.2615  3.9705
 6935TIP3   OH242363   5.824   4.503   0.703  0.1068 -0.0331  0.2256
 6935TIP3    H142364   5.740   4.457   0.702 -0.7999  1.5817  0.0034
 6935TIP3    H242365   5.861   4.486   0.617 -0.5710  0.2852 -0.1353
 6936TIP3   OH242366   6.115   2.668   1.336  0.0207 -0.0173  0.0468
 6936TIP3    H142367   6.180   2.681   1.406  0.3755  0.6133 -0.3954
 6936TIP3    H242368   6.112   2.751   1.290  0.7854 -0.8244 -1.5342
 6937TIP3   OH242369   0.692   4.377   1.548 -0.5832  0.6941  0.2538
 6937TIP3    H142370   0.749   4.431   1.602  0.5167 -1.2038  1.0575
 6937TIP3    H242371   0.703   4.288   1.581 -1.2322 -0.2847 -1.9565
 6938TIP3   OH242372   0.634   0.564   0.667  0.1710 -0.0938  0.0784
 6938TIP3    H142373   0.624   0.469   0.666 -2.5346  0.1402 -0.8217
 6938TIP3    H242374   0.569   0.594   0.731 -0.6604  1.2671 -1.3607
 6939TIP3   OH242375   3.846   2.000   0.281  0.4814 -0.3225  0.1503
 6939TIP3    H142376   3.778   2.022   0.218  0.4323 -1.7059 -0.3246
 6939TIP3    H242377   3.840   1.905   0.290 -0.5022 -0.0420  3.4212
 6940TIP3   OH242378   6.420   1.797   0.153 -0.4067 -0.4192  0.1540
 6940TIP3    H142379   6.398   1.710   0.187 -2.6186  0.3439  0.8617
 6940TIP3    H242380   6.485   1.831   0.214 -1.6049 -0.5074  1.5102
 6941TIP3   OH242381   4.005   4.103   0.975 -0.9240  0.1106 -0.1955
 6941TIP3    H142382   4.096   4.075   0.991 -1.0343  0.8429  2.1180
 6941TIP3    H242383   4.000   4.113   0.880  1.2317 -0.5750 -0.4534
 6942TIP3   OH242384   3.558   1.693   0.341 -0.3825  0.1642  0.4721
 6942TIP3    H142385   3.552   1.787   0.322  0.3255  0.1373  0.0538
 6942TIP3    H242386   3.600   1.689   0.427  0.9660  0.2303 -0.1482
 6943TIP3   OH242387   1.924   5.905   0.223 -0.5916 -0.6641 -0.0945
 6943TIP3    H142388   2.016   5.902   0.247 -0.9296 -0.3835  1.3174
 6943TIP3    H242389   1.924   5.907   0.127  0.7676 -4.1317 -0.2911
 6944TIP3   OH242390   0.425   1.749   2.028  0.8650 -0.6732  0.1210
 6944TIP3    H142391   0.475   1.819   1.985 -0.1019  0.0919  0.2050
 6944TIP3    H242392   0.344   1.792   2.056 -0.8556 -2.3600 -1.9488
 6945TIP3   OH242393   1.198   6.431   1.292 -0.6215  0.9862 -0.3080
 6945TIP3    H142394   1.275   6.452   1.345 -2.9807  1.5728  3.2781
 6945TIP3    H242395   1.212   6.341   1.263  0.3814  0.1280  2.4896
 6946TIP3   OH242396   2.186   0.700   1.023 -0.2452  0.1001  0.9362
 6946TIP3    H142397   2.244   0.667   1.092  1.3053  0.7912  0.0205
 6946TIP3    H242398   2.236   0.688   0.942 -2.4370 -1.7050 -0.2871
 6947TIP3   OH242399   4.890   4.110   7.256 -0.0543  0.0674 -0.4756
 6947TIP3    H142400   4.869   4.173   7.325  0.8154  1.1880 -1.1797
 6947TIP3    H242401   4.816   4.115   7.195 -0.9583 -1.1320  0.4756
 6948TIP3   OH242402   1.560   0.273   1.200 -0.4304 -0.1946  0.1141
 6948TIP3    H142403   1.529   0.236   1.117  0.3045 -0.6621  0.0409
 6948TIP3    H242404   1.641   0.226   1.219  0.0462  0.7428  0.4852
 6949TIP3   OH242405   0.156   2.204   1.434 -0.2749  0.1152 -0.3750
 6949TIP3    H142406   0.114   2.239   1.356  1.0874  2.6192 -0.1051
 6949TIP3    H242407   0.085   2.192   1.497 -1.0590  0.4081 -1.1817
 6950TIP3   OH242408   2.294   2.161   8.285  0.1717 -0.3308 -0.1228
 6950TIP3    H142409   2.214   2.122   8.250  1.4900 -1.6099 -1.8991
 6950TIP3    H242410   2.334   2.205   8.210  2.1526 -1.5200  0.1662
 6951TIP3   OH242411   1.204   5.024   6.861 -0.0840 -0.4554  0.2326
 6951TIP3    H142412   1.198   5.071   6.945 -0.4404 -0.8412  0.4256
 6951TIP3    H242413   1.276   4.961   6.874  1.5331  1.1303 -0.5797
 6952TIP3   OH242414   3.690   5.973   1.299  0.0354  0.0603 -0.1523
 6952TIP3    H142415   3.688   6.068   1.308 -1.4223  0.3027 -2.1863
 6952TIP3    H242416   3.600   5.950   1.273 -0.3477 -2.2104  2.7247
 6953TIP3   OH242417   5.426   2.247   7.205 -0.2452 -0.5167 -0.2295
 6953TIP3    H142418   5.451   2.207   7.288 -1.7068  1.9928  1.5646
 6953TIP3    H242419   5.489   2.319   7.194 -0.9044  0.0297 -0.5382
 6954TIP3   OH242420   2.281   2.060   0.210 -0.8325 -0.2084  0.0541
 6954TIP3    H142421   2.271   2.115   0.288 -1.3169  0.3012 -0.3595
 6954TIP3    H242422   2.368   2.083   0.176 -0.1479 -1.2341  1.0421
 6955TIP3   OH242423   1.279   4.746   7.340  0.1484  0.1574 -0.2177
 6955TIP3    H142424   1.205   4.723   7.283  0.3476  1.0685 -0.8575
 6955TIP3    H242425   1.290   4.669   7.397  1.4770 -1.8293 -2.9393
 6956TIP3   OH242426   5.449   5.093   0.745  0.3056  0.3011 -0.1200
 6956TIP3    H142427   5.499   5.078   0.664 -0.7190 -0.4647 -0.6198
 6956TIP3    H242428   5.360   5.065   0.725 -0.8401  3.3459  0.1584
 6957TIP3   OH242429   0.909   4.636   2.376 -0.0994  0.3270  0.5950
 6957TIP3    H142430   1.000   4.663   2.389  0.9463 -1.6526 -1.7559
 6957TIP3    H242431   0.907   4.601   2.287 -2.9994 -0.4955  0.8678
 6958TIP3   OH242432   0.634   2.412   1.155  0.0277  0.0700  0.2215
 6958TIP3    H142433   0.608   2.435   1.066 -1.0710  2.4581  1.0787
 6958TIP3    H242434   0.709   2.469   1.173 -0.3675  0.3212  1.1344
 6959TIP3   OH242435   6.703   4.266   2.004  0.0449  0.5212  0.0392
 6959TIP3    H142436   6.720   4.222   2.088  0.3581 -0.2804 -0.4301
 6959TIP3    H242437   6.609   4.254   1.990 -0.2572  1.7487  0.8633
 6960TIP3   OH242438   0.065   3.285   7.646 -0.4544  0.5180 -0.1449
 6960TIP3    H142439   0.081   3.379   7.638  0.4923  0.3730 -0.0258
 6960TIP3    H242440   0.151   3.247   7.663 -1.1602 -0.1154  2.3767
 6961TIP3   OH242441   0.047   1.923   1.703  0.6697 -0.4065 -0.2231
 6961TIP3    H142442   0.117   1.975   1.741 -0.5774  1.8391 -0.8109
 6961TIP3    H242443   0.018   1.866   1.775 -0.4792  2.5037  1.8401
 6962TIP3   OH242444   6.513   4.255   8.657 -0.0525  0.2126  0.4633
 6962TIP3    H142445   6.486   4.189   8.721 -3.6107 -0.5810 -1.5977
 6962TIP3    H242446   6.602   4.228   8.631 -0.5100 -2.4528  1.3449
 6963TIP3   OH242447   5.481   3.462   7.374  0.3092  0.3962 -0.5014
 6963TIP3    H142448   5.456   3.392   7.435  0.9662 -0.2625 -0.9763
 6963TIP3    H242449   5.567   3.491   7.406 -0.0379  1.1242 -0.1991
 6964TIP3   OH242450   0.709   6.728   6.811  0.0428 -0.7696 -0.1365
 6964TIP3    H142451   0.799   6.749   6.787 -0.8613  0.8312 -2.4646
 6964TIP3    H242452   0.674   6.681   6.735 -1.2075 -1.0376  0.5724
 6965TIP3   OH242453   5.668   1.385   1.998  0.2317  0.0535 -0.7185
 6965TIP3    H142454   5.590   1.377   2.054 -0.3107  0.6594 -1.3627
 6965TIP3    H242455   5.719   1.307   2.017 -0.8171 -0.6518 -0.7108
 6966TIP3   OH242456   2.987   6.848   0.765 -0.0695 -0.7642 -0.4781
 6966TIP3    H142457   3.025   6.787   0.828  0.4856 -1.0981 -1.1295
 6966TIP3    H242458   2.899   6.866   0.800  0.3303 -0.7187  0.5322
 6967TIP3   OH242459   6.526   4.017   7.607  0.3878 -0.1614  0.1400
 6967TIP3    H142460   6.600   4.046   7.660 -0.9362  0.5155  1.7015
 6967TIP3    H242461   6.471   4.094   7.598 -0.8766 -1.0026  0.3235
 6968TIP3   OH242462   1.076   6.447   2.442  0.8015  0.0878  0.3417
 6968TIP3    H142463   1.094   6.515   2.508  1.0067  1.0857 -0.7079
 6968TIP3    H242464   1.149   6.455   2.380 -0.9979  1.4082 -1.7612
 6969TIP3   OH242465   6.306   4.998   1.110  0.1422  0.4037  0.2412
 6969TIP3    H142466   6.242   4.961   1.171 -0.5118  0.2576 -0.5162
 6969TIP3    H242467   6.253   5.044   1.045  0.8967  2.0694  0.7457
 6970TIP3   OH242468   6.784   3.075   1.407 -0.2314 -0.0024 -0.1970
 6970TIP3    H142469   6.864   3.074   1.355 -0.4221 -0.3970 -0.4840
 6970TIP3    H242470   6.809   3.034   1.490 -0.6320 -2.0300 -1.0362
 6971TIP3   OH242471   5.657   3.354   0.208 -0.0365 -0.0657  0.4450
 6971TIP3    H142472   5.591   3.369   0.276 -0.1236  0.5899  0.2254
 6971TIP3    H242473   5.610   3.304   0.141 -0.3836  0.5848  0.1916
 6972TIP3   OH242474   4.772   5.278   8.420  0.3436 -0.3756 -0.0799
 6972TIP3    H142475   4.700   5.322   8.374 -0.1577 -0.3495  0.7081
 6972TIP3    H242476   4.748   5.185   8.417  0.6646 -0.4516 -0.4673
 6973TIP3   OH242477   5.616   5.696   1.029  0.1501 -0.8425  0.0998
 6973TIP3    H142478   5.554   5.768   1.039  3.2901  2.0418  0.5145
 6973TIP3    H242479   5.612   5.674   0.936 -0.3350  0.4082 -0.1954
 6974TIP3   OH242480   2.545   5.623   0.355 -0.3918  0.5252  0.0667
 6974TIP3    H142481   2.637   5.624   0.380 -0.1123 -0.1034 -0.8480
 6974TIP3    H242482   2.497   5.634   0.437  0.4830  3.2668  0.3059
 6975TIP3   OH242483   0.045   4.536   2.040  0.4762  0.2272 -0.0333
 6975TIP3    H142484   0.089   4.452   2.030  1.7803  0.6188  1.8304
 6975TIP3    H242485   0.035   4.547   2.135  0.0034  1.9914 -0.2457
 6976TIP3   OH242486   2.082   0.588   7.605  0.0134  0.4832 -0.1895
 6976TIP3    H142487   2.037   0.586   7.520 -0.2614 -0.1122 -0.0424
 6976TIP3    H242488   2.135   0.667   7.603  1.1899 -0.3026 -1.5274
 6977TIP3   OH242489   4.227   1.824   7.076 -0.7425 -0.1527  0.0190
 6977TIP3    H142490   4.264   1.782   7.154 -1.0383 -0.1805  0.1435
 6977TIP3    H242491   4.304   1.851   7.026 -0.5455 -0.6409  0.0439
 6978TIP3   OH242492   0.311   3.117   8.202 -0.1109 -0.1223  0.0581
 6978TIP3    H142493   0.386   3.094   8.257  0.4749  0.0483 -0.6518
 6978TIP3    H242494   0.311   3.213   8.201 -0.5000 -0.1187  0.2670
 6979TIP3   OH242495   5.972   4.592   0.291  0.1090  0.0512  0.1138
 6979TIP3    H142496   6.046   4.578   0.350  0.1393 -2.5681 -0.4259
 6979TIP3    H242497   5.896   4.556   0.337 -0.3684  0.4629 -0.3340
 6980TIP3   OH242498   2.552   4.135   2.347  0.2632  0.0362  0.1706
 6980TIP3    H142499   2.625   4.186   2.312 -0.3277 -0.2527 -1.5991
 6980TIP3    H242500   2.490   4.200   2.380  1.7211  0.2658  2.7252
 6981TIP3   OH242501   2.818   4.306   1.712 -0.1319  0.0324 -0.0360
 6981TIP3    H142502   2.822   4.210   1.721  0.5642 -0.1612 -1.9556
 6981TIP3    H242503   2.840   4.339   1.799  1.1937 -1.5451  0.2895
 6982TIP3   OH242504   3.476   4.581   0.101  0.6975  0.0766  0.0456
 6982TIP3    H142505   3.408   4.627   0.150  0.7781 -0.2599  0.4807
 6982TIP3    H242506   3.480   4.627   0.017 -0.2128 -0.0296 -0.0691
 6983TIP3   OH242507   1.603   1.591   7.087  0.0986  0.5064 -0.4067
 6983TIP3    H142508   1.624   1.678   7.120  0.7695  0.6188 -1.0964
 6983TIP3    H242509   1.654   1.531   7.143  1.1904  0.6919 -1.1667
 6984TIP3   OH242510   1.653   5.345   2.323 -0.4234 -0.0166  0.1432
 6984TIP3    H142511   1.681   5.327   2.233  1.5884  0.7856  0.5434
 6984TIP3    H242512   1.628   5.437   2.323 -2.1656 -0.4600  0.0445
 6985TIP3   OH242513   1.937   1.483   7.038  0.8062  0.1690  0.0742
 6985TIP3    H142514   2.025   1.458   7.013  0.6377  1.2520 -1.7965
 6985TIP3    H242515   1.947   1.570   7.077  0.5896  0.2064  0.0471
 6986TIP3   OH242516   4.606   0.195   1.337  0.5816  0.4955  0.1881
 6986TIP3    H142517   4.622   0.237   1.252 -0.7993 -0.0072 -0.3491
 6986TIP3    H242518   4.517   0.161   1.330  1.4911 -2.2242  0.7029
 6987TIP3   OH242519   3.978   5.052   6.917 -0.1602  0.1280  0.3093
 6987TIP3    H142520   3.993   5.145   6.899  1.5665  0.0014  0.9316
 6987TIP3    H242521   3.904   5.051   6.977 -0.6785  1.0522 -0.2932
 6988TIP3   OH242522   2.866   1.858   0.870  0.7976 -0.3403 -0.0703
 6988TIP3    H142523   2.852   1.936   0.924 -0.9836 -0.4006 -0.3623
 6988TIP3    H242524   2.959   1.839   0.878  1.6030  2.6252 -1.0687
 6989TIP3   OH242525   1.489   2.102   7.912  0.1820  0.5155 -0.2436
 6989TIP3    H142526   1.491   2.011   7.941 -0.3180  0.5332 -0.1402
 6989TIP3    H242527   1.400   2.115   7.879  0.5104  0.7207 -1.0718
 6990TIP3   OH242528   0.200   3.473   0.813  0.1970  0.5613 -0.2653
 6990TIP3    H142529   0.137   3.470   0.741 -0.4321  0.2917  0.2970
 6990TIP3    H242530   0.282   3.498   0.770  0.6693 -2.7764 -1.6923
 6991TIP3   OH242531   6.410   0.194   1.779  0.1632  0.3827 -0.1201
 6991TIP3    H142532   6.468   0.138   1.830 -0.4993  0.9362  1.2913
 6991TIP3    H242533   6.326   0.189   1.825 -0.1682  1.7469 -0.5399
 6992TIP3   OH242534   1.254   2.127   7.764  0.0785  0.2547  0.2195
 6992TIP3    H142535   1.181   2.154   7.709 -0.9121 -1.5831  0.5586
 6992TIP3    H242536   1.229   2.152   7.853  0.0488  0.0187  0.2794
 6993TIP3   OH242537   1.447   6.394   7.258  0.1520  0.4178  0.2197
 6993TIP3    H142538   1.467   6.424   7.169 -1.7190 -1.3502 -0.8895
 6993TIP3    H242539   1.384   6.458   7.290  0.4274  0.7728  0.0614
 6994TIP3   OH242540   2.790   2.646   1.059  0.4236 -0.1660  0.1707
 6994TIP3    H142541   2.870   2.698   1.046  0.7641 -0.6909  0.1327
 6994TIP3    H242542   2.821   2.564   1.096  0.0672 -0.9377 -1.1562
 6995TIP3   OH242543   0.315   4.050   2.077 -0.5409  0.1714 -1.0281
 6995TIP3    H142544   0.243   4.007   2.030 -0.5633 -0.1264 -0.7251
 6995TIP3    H242545   0.272   4.115   2.132 -0.5018  0.6316 -1.5371
 6996TIP3   OH242546   1.511   0.722   7.510  0.5077  0.1990 -0.2489
 6996TIP3    H142547   1.540   0.668   7.436  0.0628  1.8967 -1.7378
 6996TIP3    H242548   1.428   0.760   7.481  0.0009  0.4330  1.3966
 6997TIP3   OH242549   5.764   0.490   1.803 -0.4113 -0.4990  0.1765
 6997TIP3    H142550   5.848   0.447   1.819 -0.7741 -1.5459 -0.5430
 6997TIP3    H242551   5.774   0.577   1.839  0.5105 -1.0600  1.3549
 6998TIP3   OH242552   2.124   1.362   6.795 -0.5399 -0.3835  0.0067
 6998TIP3    H142553   2.040   1.333   6.762 -0.8662  0.3083  0.2060
 6998TIP3    H242554   2.175   1.383   6.717 -0.2166 -1.6865 -0.1434
 6999TIP3   OH242555   3.931   3.128   1.709 -0.1194  0.2392 -0.4361
 6999TIP3    H142556   4.000   3.191   1.687 -1.6079  1.6518 -1.3283
 6999TIP3    H242557   3.877   3.173   1.774  0.7663 -1.5676  1.6940
 7000TIP3   OH242558   1.232   4.494   1.670  0.3186  0.1761 -0.1665
 7000TIP3    H142559   1.160   4.508   1.608  1.8038  1.3694 -1.7174
 7000TIP3    H242560   1.288   4.430   1.626 -0.1505 -1.3576  1.3829
 7001TIP3   OH242561   6.420   2.617   2.491  0.2163  0.0886  0.4352
 7001TIP3    H142562   6.473   2.686   2.452 -0.2218  0.4064  0.3981
 7001TIP3    H242563   6.476   2.580   2.559  0.6566  0.1127  0.0921
 7002TIP3   OH242564   2.592   1.908   7.606  0.5090  0.1346  0.3601
 7002TIP3    H142565   2.682   1.876   7.619  0.6184  0.5901  0.7552
 7002TIP3    H242566   2.591   1.940   7.516  0.0734 -1.9918 -0.4541
 7003TIP3   OH242567   1.600   4.174   0.823  0.6674  0.4162  0.2955
 7003TIP3    H142568   1.556   4.089   0.824 -1.1208  1.1859 -2.6065
 7003TIP3    H242569   1.645   4.177   0.739 -1.1426  3.1481 -0.6724
 7004TIP3   OH242570   5.617   4.663   7.712 -0.0149 -0.0493  0.0236
 7004TIP3    H142571   5.636   4.597   7.779 -1.0929 -1.0305 -0.6086
 7004TIP3    H242572   5.561   4.726   7.757  1.5004  0.7893  0.7984
 7005TIP3   OH242573   4.702   2.416   7.999  0.0578 -0.1550  0.1769
 7005TIP3    H142574   4.648   2.344   8.030  0.2560 -0.2038  0.4165
 7005TIP3    H242575   4.745   2.449   8.078  0.2977 -0.0506  0.0039
 7006TIP3   OH242576   0.882   1.213   0.485 -0.4206 -0.0756 -0.0366
 7006TIP3    H142577   0.958   1.266   0.508 -0.5415 -0.2527  0.7879
 7006TIP3    H242578   0.807   1.272   0.494 -0.3556  0.2618 -1.3917
 7007TIP3   OH242579   2.531   0.906   1.345 -0.0973  0.1663 -0.8892
 7007TIP3    H142580   2.453   0.962   1.345  0.0012  0.3126 -0.1719
 7007TIP3    H242581   2.543   0.882   1.253 -1.1858 -0.1312 -0.9681
 7008TIP3   OH242582   5.123   1.089   6.969 -0.0223 -0.3121 -0.6871
 7008TIP3    H142583   5.078   1.005   6.980 -0.3441 -0.4091 -2.4248
 7008TIP3    H242584   5.216   1.066   6.964 -0.0228 -0.4438 -0.1515
 7009TIP3   OH242585   0.504   3.361   1.037 -0.1566 -0.5090 -0.2433
 7009TIP3    H142586   0.448   3.424   1.082 -3.2041 -1.6203 -2.1962
 7009TIP3    H242587   0.542   3.411   0.965 -0.8094 -0.3681 -0.4971
 7010TIP3   OH242588   6.327   1.591   6.932 -0.2439 -0.3910  0.3975
 7010TIP3    H142589   6.271   1.514   6.939 -0.1255 -0.4725  0.4535
 7010TIP3    H242590   6.298   1.635   6.851 -0.4962 -0.3450  0.5115
 7011TIP3   OH242591   5.589   5.229   7.532  0.0766  0.0391  0.7407
 7011TIP3    H142592   5.563   5.321   7.536 -1.4483 -0.3274 -0.0492
 7011TIP3    H242593   5.632   5.220   7.447  2.2456  0.4629  1.7156
 7012TIP3   OH242594   2.793   6.236   7.208  0.0427 -0.2467  0.3601
 7012TIP3    H142595   2.838   6.310   7.169  0.5703  0.6716  2.5435
 7012TIP3    H242596   2.706   6.235   7.167 -0.1182  1.8372  0.5667
 7013TIP3   OH242597   2.093   3.589   6.846 -0.2431  0.4066  0.3890
 7013TIP3    H142598   2.003   3.556   6.855  0.3877 -1.3488  0.5083
 7013TIP3    H242599   2.086   3.657   6.779 -1.6304  0.1718  0.2519
 7014TIP3   OH242600   0.286   5.858   7.501 -0.0858 -0.4260 -0.0910
 7014TIP3    H142601   0.337   5.922   7.451 -1.5716  0.1590 -0.9292
 7014TIP3    H242602   0.205   5.848   7.451 -1.4361 -0.2259  1.9397
 7015TIP3   OH242603   2.283   4.914   1.542 -0.1301 -0.6464 -0.5572
 7015TIP3    H142604   2.195   4.880   1.555 -1.0037  1.7324  0.2497
 7015TIP3    H242605   2.340   4.849   1.582 -1.7628 -0.7567  1.7565
 7016TIP3   OH242606   1.364   0.819   6.670  0.2776 -0.0173 -0.0883
 7016TIP3    H142607   1.280   0.847   6.634  0.5712  1.2556  0.1740
 7016TIP3    H242608   1.398   0.756   6.606 -0.7636 -0.3756 -0.3057
 7017TIP3   OH242609   5.142   2.633   7.392 -0.2238  0.4048  0.3279
 7017TIP3    H142610   5.127   2.540   7.378  0.7775  0.2898 -0.0794
 7017TIP3    H242611   5.141   2.671   7.304  1.2604  0.4577  0.3095
 7018TIP3   OH242612   1.351   6.249   8.633 -0.3625  0.0213  0.0951
 7018TIP3    H142613   1.306   6.182   8.582 -1.0967  0.7170 -0.2000
 7018TIP3    H242614   1.418   6.202   8.682 -1.8417 -1.1726  1.0757
 7019TIP3   OH242615   5.213   5.524   6.729 -0.0710  0.2260  0.0967
 7019TIP3    H142616   5.117   5.532   6.732 -0.2014 -1.0185  2.9778
 7019TIP3    H242617   5.232   5.494   6.640 -2.3847  0.1473 -0.4496
 7020TIP3   OH242618   4.836   4.464   8.254  0.1493  0.0763  0.4749
 7020TIP3    H142619   4.805   4.402   8.189 -1.3773  0.2374  1.0157
 7020TIP3    H242620   4.830   4.417   8.337 -0.3814  0.7008  0.8073
 7021TIP3   OH242621   6.027   3.732   1.868 -0.2677  0.0223  0.5894
 7021TIP3    H142622   5.958   3.765   1.925 -1.2982  0.0975 -0.6322
 7021TIP3    H242623   6.108   3.740   1.919 -0.3802  4.4306  0.4780
 7022TIP3   OH242624   0.505   5.624   8.125 -0.0562  0.0450 -0.4750
 7022TIP3    H142625   0.486   5.579   8.208 -1.1633  1.4577  0.0645
 7022TIP3    H242626   0.580   5.680   8.146  0.7787 -0.8646 -0.9249
 7023TIP3   OH242627   4.594   1.339   1.679  0.3760 -0.3025  0.4199
 7023TIP3    H142628   4.564   1.331   1.770  2.0419  1.8256  1.2258
 7023TIP3    H242629   4.638   1.423   1.676  0.2592 -0.2747 -2.4334
 7024TIP3   OH242630   0.382   0.484   0.415  0.6222 -0.2011 -0.3696
 7024TIP3    H142631   0.418   0.395   0.417 -0.0016 -0.4529  1.3698
 7024TIP3    H242632   0.291   0.473   0.443 -0.3934  0.6367 -2.9988
 7025TIP3   OH242633   4.596   0.682   0.771 -0.7027 -0.2287 -0.4044
 7025TIP3    H142634   4.600   0.777   0.758  0.7681 -0.0635  1.0198
 7025TIP3    H242635   4.528   0.669   0.837 -0.0308 -0.0488  0.3274
 7026TIP3   OH242636   2.212   2.527   7.779  0.1986 -0.0585 -0.0020
 7026TIP3    H142637   2.123   2.505   7.804  1.7412 -3.3699  3.7729
 7026TIP3    H242638   2.252   2.443   7.755  2.6739  1.0299 -0.0526
 7027TIP3   OH242639   3.557   0.337   8.447  0.2563 -0.5513 -0.1917
 7027TIP3    H142640   3.645   0.306   8.467  0.4014 -0.5083 -0.7350
 7027TIP3    H242641   3.500   0.287   8.505  0.5315 -1.4220 -0.6575
 7028TIP3   OH242642   1.389   1.804   7.332 -0.2627 -0.0868 -0.0890
 7028TIP3    H142643   1.476   1.785   7.367  0.2081 -0.4785 -1.4116
 7028TIP3    H242644   1.373   1.895   7.356 -0.1865 -0.4726  1.5483
 7029TIP3   OH242645   3.459   0.566   1.054 -0.2753 -0.2617 -0.2710
 7029TIP3    H142646   3.511   0.641   1.082 -2.9602  1.7238 -0.2995
 7029TIP3    H242647   3.517   0.490   1.069  1.8052  1.5739  1.6459
 7030TIP3   OH242648   4.118   2.365   8.217 -0.3523  0.9959  0.0916
 7030TIP3    H142649   4.029   2.357   8.182  0.0015  0.8678 -0.8099
 7030TIP3    H242650   4.174   2.339   8.145  0.3750 -0.7540  1.2405
 7031TIP3   OH242651   3.272   1.664   7.299 -0.6246 -0.3125  0.2223
 7031TIP3    H142652   3.305   1.619   7.221 -1.2274  0.3488 -0.4388
 7031TIP3    H242653   3.186   1.696   7.273  0.0458  1.7991  0.4274
 7032TIP3   OH242654   2.616   1.306   7.941  0.3496  0.2237 -0.0036
 7032TIP3    H142655   2.561   1.228   7.929  1.4983 -0.7933  1.0874
 7032TIP3    H242656   2.614   1.323   8.035  0.7471  1.0569 -0.1335
 7033TIP3   OH242657   3.956   4.394   0.864  0.2722  0.0992  0.5144
 7033TIP3    H142658   3.885   4.357   0.811  0.5435 -1.3213  1.0854
 7033TIP3    H242659   4.036   4.362   0.821  0.5628  1.1297  0.2685
 7034TIP3   OH242660   2.155   5.911   0.345  0.3412  0.3524 -0.3161
 7034TIP3    H142661   2.130   5.840   0.405 -1.3847  1.4694  0.3756
 7034TIP3    H242662   2.243   5.888   0.316  0.1699 -1.6184  0.5521
 7035TIP3   OH242663   5.466   3.569   1.236 -0.1906  0.3754 -0.8269
 7035TIP3    H142664   5.467   3.642   1.174 -0.2309  1.5999  0.5838
 7035TIP3    H242665   5.538   3.586   1.296 -0.8459 -0.1699  0.1524
 7036TIP3   OH242666   5.115   3.118   0.932 -0.1162  0.2558 -0.4276
 7036TIP3    H142667   5.178   3.172   0.884 -0.0881  0.8604  0.2733
 7036TIP3    H242668   5.130   3.029   0.900  0.2928  0.5670 -1.1151
 7037TIP3   OH242669   3.500   5.635   8.615  1.0419 -0.9316 -0.3993
 7037TIP3    H142670   3.525   5.717   8.572 -1.4094  0.4461  0.6260
 7037TIP3    H242671   3.582   5.586   8.623  2.6478  1.5676 -0.7015
 7038TIP3   OH242672   3.586   6.630   0.653 -0.1234 -0.1007  0.6102
 7038TIP3    H142673   3.527   6.680   0.710 -1.9464  2.1599 -2.8885
 7038TIP3    H242674   3.542   6.546   0.641 -0.3683 -0.1049  1.4804
 7039TIP3   OH242675   1.490   1.004   0.271 -0.4504  0.0476  0.1587
 7039TIP3    H142676   1.483   0.914   0.237  0.4712 -0.6960  1.8283
 7039TIP3    H242677   1.473   1.059   0.195  3.1888 -1.4732 -2.0227
 7040TIP3   OH242678   4.853   3.744   7.140 -0.5861  0.2501 -0.4751
 7040TIP3    H142679   4.796   3.820   7.154 -1.3899 -0.3885 -0.1566
 7040TIP3    H242680   4.937   3.781   7.115 -0.2919  1.3496  1.8835
 7041TIP3   OH242681   4.929   0.158   7.007 -0.1929 -0.5560 -0.2246
 7041TIP3    H142682   4.926   0.190   6.917 -1.2714 -0.4400 -0.1558
 7041TIP3    H242683   4.856   0.097   7.014  0.1275 -0.8719  0.4638
 7042TIP3   OH242684   3.290   0.350   7.063 -0.4604 -0.0585  0.0168
 7042TIP3    H142685   3.243   0.294   7.001  2.2429 -2.7970  0.2207
 7042TIP3    H242686   3.251   0.329   7.148 -1.4207  0.6427 -0.2284
 7043TIP3   OH242687   5.550   4.572   0.939 -0.0189 -0.1159  0.0146
 7043TIP3    H142688   5.471   4.527   0.970  0.4747  0.1908  1.8035
 7043TIP3    H242689   5.549   4.657   0.983  1.3219 -0.1123  0.0756
 7044TIP3   OH242690   1.688   1.439   1.498 -0.2653 -0.4249  0.4562
 7044TIP3    H142691   1.648   1.353   1.481  0.5500 -1.3557  2.8996
 7044TIP3    H242692   1.703   1.475   1.410 -2.3244 -1.9395 -0.6156
 7045TIP3   OH242693   6.334   6.384   8.543  0.8413  0.3608 -0.0356
 7045TIP3    H142694   6.279   6.306   8.547  1.8051 -0.3072  1.0746
 7045TIP3    H242695   6.364   6.387   8.452  2.1055 -1.5689  0.2371
 7046TIP3   OH242696   4.190   4.054   8.628  0.0631 -0.2196 -0.1557
 7046TIP3    H142697   4.280   4.022   8.639  0.5038  1.2936  0.9585
 7046TIP3    H242698   4.190   4.096   8.542  1.6326  3.2597  1.3545
 7047TIP3   OH242699   6.474   0.590   0.253  0.3533  0.1927 -0.6674
 7047TIP3    H142700   6.560   0.558   0.226  0.4837  0.1039 -0.1534
 7047TIP3    H242701   6.438   0.521   0.309  0.0843  0.3709 -0.6162
 7048TIP3   OH242702   6.561   0.221   7.593 -0.1916 -0.5298  0.1235
 7048TIP3    H142703   6.564   0.128   7.615  0.3522 -0.7902 -0.9693
 7048TIP3    H242704   6.645   0.238   7.552 -0.0094  0.6300  0.9500
 7049TIP3   OH242705   1.755   6.187   7.761  0.0024  0.1464 -0.1213
 7049TIP3    H142706   1.820   6.189   7.691  0.3870 -0.0219  0.2268
 7049TIP3    H242707   1.726   6.096   7.765 -2.9222  0.8031 -2.6782
 7050TIP3   OH242708   2.767   2.054   1.438  0.3764  0.3339 -0.4814
 7050TIP3    H142709   2.730   1.979   1.486 -1.4697  2.0062  0.8687
 7050TIP3    H242710   2.697   2.080   1.377 -0.1933  2.6264  1.0394
 7051TIP3   OH242711   6.449   1.157   0.964 -0.0830  0.1098 -0.7379
 7051TIP3    H142712   6.516   1.163   0.897  1.6651 -4.8778  0.1205
 7051TIP3    H242713   6.368   1.139   0.916  0.5203 -0.2470 -1.6404
 7052TIP3   OH242714   6.418   2.427   2.296  0.1578  0.0123 -0.1235
 7052TIP3    H142715   6.512   2.437   2.309 -0.0104 -1.1385  2.6832
 7052TIP3    H242716   6.379   2.492   2.355 -0.8314  0.1296 -0.8729
 7053TIP3   OH242717   6.701   2.674   0.303 -0.3367 -0.6379 -0.0313
 7053TIP3    H142718   6.692   2.580   0.320 -1.1836 -0.4854  0.4202
 7053TIP3    H242719   6.618   2.699   0.262 -1.0811  0.3433  1.9316
 7054TIP3   OH242720   3.896   3.980   1.606 -0.4666  0.0928 -0.0146
 7054TIP3    H142721   3.931   4.062   1.640 -0.2418  0.0662 -0.1745
 7054TIP3    H242722   3.957   3.956   1.536  0.5057 -1.1209  1.1821
 7055TIP3   OH242723   5.568   3.616   0.081  0.0696  0.1399  0.1276
 7055TIP3    H142724   5.476   3.591   0.091  0.7912 -2.0356  2.7939
 7055TIP3    H242725   5.617   3.535   0.099  2.5270  1.1883 -1.3208
 7056TIP3   OH242726   5.218   3.665   0.813 -0.2376  0.2286 -0.2957
 7056TIP3    H142727   5.180   3.584   0.846 -1.5484  0.0937 -2.0011
 7056TIP3    H242728   5.204   3.729   0.883  1.6600 -1.1533  1.4807
 7057TIP3   OH242729   5.874   5.469   8.258  0.3340 -0.1446 -0.3570
 7057TIP3    H142730   5.903   5.560   8.264  0.6336 -0.2403 -0.3285
 7057TIP3    H242731   5.867   5.452   8.164  0.5681 -0.1822 -0.3681
 7058TIP3   OH242732   2.456   0.488   1.457  0.0382 -0.1660  0.6757
 7058TIP3    H142733   2.478   0.396   1.441 -0.1146 -0.4262  1.8586
 7058TIP3    H242734   2.539   0.529   1.479  0.1633  0.0682 -0.2101
 7059TIP3   OH242735   2.177   2.253   7.666  0.2450 -0.1320  0.3224
 7059TIP3    H142736   2.222   2.182   7.710 -0.1280 -1.0339 -0.7110
 7059TIP3    H242737   2.203   2.245   7.574 -0.4247  0.5768  0.0591
 7060TIP3   OH242738   1.234   0.656   1.272  0.2408 -0.2591 -0.3303
 7060TIP3    H142739   1.256   0.699   1.355 -1.4467  0.3189 -0.1371
 7060TIP3    H242740   1.306   0.680   1.213 -0.4770  2.7336 -0.1802
 7061TIP3   OH242741   5.050   1.779   7.617 -0.0388  0.0586 -0.6614
 7061TIP3    H142742   5.090   1.834   7.550  0.4691  1.0439  0.4166
 7061TIP3    H242743   5.119   1.719   7.644  0.5118  1.2090  0.6061
 7062TIP3   OH242744   5.733   4.793   8.551  0.4607 -0.1436  0.3620
 7062TIP3    H142745   5.675   4.854   8.597 -0.4214  0.5864 -1.5869
 7062TIP3    H242746   5.804   4.775   8.613  1.2330  3.5263  0.7790
 7063TIP3   OH242747   6.663   5.779   8.150  0.2983 -0.7760  0.0511
 7063TIP3    H142748   6.714   5.824   8.083 -0.7184  2.2493  1.1663
 7063TIP3    H242749   6.697   5.811   8.233 -1.3521 -1.0082  0.8732
 7064TIP3   OH242750   2.219   0.155   7.339 -0.0691  0.7636  0.0713
 7064TIP3    H142751   2.286   0.209   7.382  0.3639  1.4759 -1.4398
 7064TIP3    H242752   2.137   0.202   7.355 -0.0285  0.6091  0.7658
 7065TIP3   OH242753   0.929   0.486   6.889 -0.0227  0.2296 -0.7778
 7065TIP3    H142754   0.969   0.412   6.844  3.8497 -0.0156  2.4533
 7065TIP3    H242755   0.990   0.558   6.877  0.9625  0.3121  3.1498
 7066TIP3   OH242756   1.011   3.923   0.744 -0.1953 -0.1214  0.3175
 7066TIP3    H142757   1.059   3.863   0.801 -0.6975 -0.7873  0.0441
 7066TIP3    H242758   1.026   4.009   0.783 -0.3389 -0.5398  1.3201
 7067TIP3   OH242759   2.487   1.580   8.399  0.2118 -0.2685  0.5841
 7067TIP3    H142760   2.399   1.573   8.437  0.6406 -1.1405  1.4760
 7067TIP3    H242761   2.512   1.490   8.381  1.0612 -0.0616  0.6834
 7068TIP3   OH242762   6.472   2.555   7.811 -0.6798 -0.0260  0.3332
 7068TIP3    H142763   6.417   2.478   7.797 -0.2128 -0.4662  0.8326
 7068TIP3    H242764   6.410   2.626   7.826 -1.1219 -0.2310 -0.4709
 7069TIP3   OH242765   0.364   3.982   1.618  0.1087  0.0088  0.2543
 7069TIP3    H142766   0.435   4.009   1.560 -0.0002 -1.5606 -0.6537
 7069TIP3    H242767   0.408   3.962   1.701  0.5775  0.0672  0.0215
 7070TIP3   OH242768   1.680   0.453   8.632  0.1691  0.1996 -0.3514
 7070TIP3    H142769   1.683   0.442   8.727 -1.3445  0.5130 -0.2445
 7070TIP3    H242770   1.654   0.367   8.599 -0.8733  0.4931 -0.3400
 7071TIP3   OH242771   1.661   4.258   0.034  0.2222  0.2479  0.5196
 7071TIP3    H142772   1.743   4.291  -0.001  0.8903 -0.4597  1.3885
 7071TIP3    H242773   1.676   4.248   0.128 -0.8929  0.2281  0.7087
 7072LIG      O42774   0.944   6.260   3.988  0.1662 -0.1828 -0.0694
 7072LIG     C142775   1.070   6.324   3.961  0.0073  0.0207  0.3468
 7072LIG     C242776   1.067   6.415   3.844 -0.1430  0.3342  0.0055
 7072LIG     C342777   1.098   6.396   4.092 -0.2685  0.2484  0.1275
 7072LIG     H142778   1.145   6.244   3.945 -0.2519  0.1356 -1.6926
 7072LIG     H242779   1.173   6.427   3.811  0.1457 -1.3848  0.2240
 7072LIG     H342780   1.027   6.513   3.879  0.1001  0.7688 -0.8927
 7072LIG     H442781   1.013   6.371   3.758  2.7536  0.3981 -1.9762
 7072LIG     H542782   1.095   6.323   4.176 -0.3137 -0.5577 -0.5704
 7072LIG     H642783   1.027   6.479   4.114  0.5616  0.5431  1.8384
 7072LIG     H742784   1.194   6.452   4.088  0.9364 -1.7245  0.2719
 7072LIG     H842785   0.948   6.222   4.076  1.1468  1.3973  0.6195
   6.87624   6.87624   8.67067
