Title
42785
    1SAPS     N    1   4.888   2.385   6.907  0.7611  0.4453 -0.3804
    1SAPS   HN1    2   4.904   2.341   7.000  1.8398  1.6853  0.0486
    1SAPS   HN2    3   4.907   2.484   6.931  0.3554 -0.1059  2.7411
    1SAPS   HN3    4   4.788   2.378   6.878  0.5275 -1.6122  0.7143
    1SAPS   C12    5   4.981   2.319   6.813 -0.1467 -0.4300  0.7134
    1SAPS  H12A    6   4.981   2.371   6.718 -0.7650  0.8319  1.3815
    1SAPS   C13    7   5.131   2.324   6.849 -0.1309 -0.1477 -0.3152
    1SAPS  O13A    8   5.160   2.375   6.962 -0.1345 -0.0834  0.5364
    1SAPS  O13B    9   5.214   2.245   6.793 -0.0579 -0.6679  0.5965
    1SAPS   C11   10   4.933   2.170   6.806  0.2258 -0.2517  0.1269
    1SAPS  H11A   11   4.964   2.113   6.897 -0.7789 -1.3418 -0.1908
    1SAPS  H11B   12   4.978   2.128   6.713  0.9987  0.9383 -0.0575
    1SAPS     P   13   4.709   2.097   6.678  0.0104  0.5745 -0.1116
    1SAPS   O13   14   4.747   1.953   6.645 -0.1755  0.1294 -0.1257
    1SAPS   O14   15   4.566   2.119   6.707 -0.2633  0.2126  0.4636
    1SAPS   O12   16   4.789   2.165   6.794 -0.7002  0.2447  0.2172
    1SAPS   O11   17   4.744   2.182   6.549  0.1384  0.6416  0.0378
    1SAPS    C1   18   4.667   2.300   6.506 -0.8284 -0.2911 -0.1468
    1SAPS    HA   19   4.623   2.342   6.599  0.7728  1.1864 -0.0158
    1SAPS    HB   20   4.735   2.378   6.465  1.7458 -2.1498  0.3249
    1SAPS    C2   21   4.546   2.273   6.409  0.0345 -0.6205  0.0357
    1SAPS    HS   22   4.478   2.207   6.467  0.0761 -0.1136  0.6772
    1SAPS   O21   23   4.603   2.206   6.301  0.2914 -0.1789 -0.0377
    1SAPS   C21   24   4.524   2.119   6.227  0.4719 -0.2595 -0.1206
    1SAPS   O22   25   4.405   2.099   6.240 -0.7048 -0.1213 -0.0988
    1SAPS   C22   26   4.610   2.040   6.127 -0.2396  0.1558  0.3988
    1SAPS   H2R   27   4.711   2.041   6.175 -0.5887 -2.8117  1.3633
    1SAPS   H2S   28   4.570   1.937   6.131 -1.3397  0.4481 -1.7904
    1SAPS    C3   29   4.470   2.405   6.367 -0.6987  0.0111  0.0370
    1SAPS    HX   30   4.429   2.427   6.468  0.8140  1.3143  0.4163
    1SAPS    HY   31   4.383   2.382   6.302  0.6398 -4.0463 -0.5579
    1SAPS   O31   32   4.554   2.510   6.326 -0.5394 -0.2090 -0.4383
    1SAPS   C31   33   4.606   2.493   6.201 -0.0127  0.0783 -0.1749
    1SAPS   O32   34   4.560   2.416   6.119 -0.2314 -0.0627  0.2255
    1SAPS   C32   35   4.734   2.577   6.171  0.1739 -0.2082 -0.1074
    1SAPS   H2X   36   4.815   2.505   6.150  0.8055  0.1313  1.0858
    1SAPS   H2Y   37   4.757   2.636   6.263 -1.9306  1.1888 -0.4035
    1SAPS   C23   38   4.614   2.116   5.996 -0.2481  0.4060  0.0544
    1SAPS   H3R   39   4.667   2.212   6.010 -0.2339  0.2388  1.2293
    1SAPS   H3S   40   4.518   2.150   5.951 -1.1945 -1.4330  0.5763
    1SAPS   C24   41   4.698   2.031   5.887  0.2469  0.0230 -0.6966
    1SAPS   H4R   42   4.800   2.003   5.921 -0.2943 -2.0033 -0.6206
    1SAPS   H4S   43   4.708   2.103   5.803  0.2721  1.2046  0.2889
    1SAPS   C25   44   4.625   1.908   5.843  0.2130  0.8927 -0.0024
    1SAPS   H5R   45   4.591   1.841   5.922 -0.8125  0.9591 -0.3678
    1SAPS   C26   46   4.572   1.878   5.723 -0.3181 -0.1376 -0.2785
    1SAPS   H6R   47   4.516   1.784   5.711 -2.7179  1.1660  0.0929
    1SAPS   C27   48   4.591   1.959   5.596  0.0996 -0.1620  0.7644
    1SAPS   H7R   49   4.678   2.026   5.614  0.1676 -0.2186  0.6507
    1SAPS   H7S   50   4.500   2.020   5.579  0.3296  0.2540  1.0078
    1SAPS   C28   51   4.614   1.872   5.469 -0.4433 -0.4220 -0.2572
    1SAPS   H8R   52   4.643   1.768   5.487  1.7349 -0.6557 -4.0140
    1SAPS   C29   53   4.595   1.908   5.339 -0.0437  0.8395 -0.1307
    1SAPS   H9R   54   4.629   1.828   5.272  0.1674  1.4361 -0.7436
    1SAPS  C210   55   4.559   2.041   5.281  0.0130 -0.6507  0.1782
    1SAPS  H10R   56   4.590   2.047   5.174  2.2547 -0.8080  0.7811
    1SAPS  H10S   57   4.624   2.119   5.325  1.6647 -0.5003 -2.3321
    1SAPS  C211   58   4.417   2.092   5.311  0.5925  0.2063  0.6661
    1SAPS  H11R   59   4.405   2.129   5.414 -0.8939  0.0232  0.5743
    1SAPS  C212   60   4.311   2.090   5.232 -0.3600 -0.2835 -0.5254
    1SAPS  H12R   61   4.216   2.126   5.273  0.5708 -0.9118  2.3799
    1SAPS  C213   62   4.308   2.058   5.082 -0.7703 -0.1798 -0.4175
    1SAPS  H13R   63   4.392   2.101   5.024 -1.0110 -0.5922 -1.0748
    1SAPS  H13S   64   4.223   2.116   5.041  1.8178  3.2128 -1.5073
    1SAPS  C214   65   4.308   1.907   5.065  0.7863 -0.0574  0.3911
    1SAPS  H14R   66   4.362   1.845   5.138 -1.5024 -1.6148  0.8497
    1SAPS  C215   67   4.243   1.835   4.971  0.1499 -0.1240  0.5695
    1SAPS  H15R   68   4.254   1.725   4.968  0.4451 -0.0695 -1.3318
    1SAPS  C216   69   4.144   1.888   4.870  0.0353  0.0729 -0.1279
    1SAPS  H16R   70   4.163   1.834   4.775 -3.8254 -0.8805 -0.5037
    1SAPS  H16S   71   4.157   1.997   4.848 -0.5307  0.4926  1.4581
    1SAPS  C217   72   4.007   1.874   4.919  0.1494  0.2563  0.1272
    1SAPS  H17R   73   3.991   1.935   5.011  1.4821 -0.2038  0.6938
    1SAPS  H17S   74   3.970   1.771   4.934  0.0479  0.0493 -1.4012
    1SAPS  C218   75   3.915   1.934   4.817 -0.5592 -0.2179  0.5284
    1SAPS  H18R   76   3.932   1.877   4.722 -4.0502 -0.0392 -0.3502
    1SAPS  H18S   77   3.943   2.040   4.801  1.5979 -0.6471  1.1382
    1SAPS  C219   78   3.769   1.933   4.854 -0.0774  0.0852 -0.6002
    1SAPS  H19R   79   3.750   1.983   4.951 -1.1372  0.2139 -0.8593
    1SAPS  H19S   80   3.741   1.827   4.876 -2.4733  0.8133  0.1496
    1SAPS  C220   81   3.677   1.981   4.752  0.1163 -0.0781 -0.6127
    1SAPS  H20R   82   3.707   1.946   4.651 -2.8843 -0.7516 -1.3707
    1SAPS  H20S   83   3.671   2.092   4.746 -0.3764 -0.0516  0.3129
    1SAPS  H20T   84   3.576   1.939   4.771 -0.4530  1.4780  0.0165
    1SAPS   C33   85   4.729   2.673   6.050  0.3324 -0.0377 -0.1028
    1SAPS   H3X   86   4.818   2.739   6.040  0.4845 -0.4838 -2.0590
    1SAPS   H3Y   87   4.634   2.729   6.060  0.0598 -0.3390 -0.9048
    1SAPS   C34   88   4.715   2.605   5.915  0.0606 -0.0162 -0.2689
    1SAPS   H4X   89   4.669   2.681   5.849  2.1474  0.8691 -0.8052
    1SAPS   H4Y   90   4.650   2.517   5.936 -2.6511  2.1311  0.8980
    1SAPS   C35   91   4.849   2.555   5.840  0.9050  0.2362 -0.5150
    1SAPS   H5X   92   4.906   2.481   5.901 -0.3465 -0.4994 -0.2194
    1SAPS   H5Y   93   4.915   2.644   5.830  0.1921  0.6337 -1.8919
    1SAPS   C36   94   4.817   2.505   5.707 -0.1185  0.3270 -0.0659
    1SAPS   H6X   95   4.775   2.591   5.650  0.9689  1.1958  0.4016
    1SAPS   H6Y   96   4.738   2.427   5.711 -1.2357  1.4606  1.6701
    1SAPS   C37   97   4.942   2.447   5.635  0.1807  0.0215  0.1658
    1SAPS   H7X   98   4.995   2.378   5.705  0.8394 -0.7087 -1.0137
    1SAPS   H7Y   99   5.013   2.531   5.620  0.5514 -0.0617  1.3223
    1SAPS   C38  100   4.908   2.365   5.502 -0.6309 -0.5343  0.3023
    1SAPS   H8X  101   4.845   2.437   5.445  1.9867  2.7968  1.2989
    1SAPS   H8Y  102   4.844   2.277   5.524 -2.6279  0.6006 -0.7315
    1SAPS   C39  103   5.040   2.350   5.419 -0.1355  0.6049 -0.2983
    1SAPS   H9X  104   5.100   2.272   5.471 -0.6900  0.5653  0.2867
    1SAPS   H9Y  105   5.104   2.441   5.414  1.3557 -0.4408 -1.2455
    1SAPS  C310  106   5.019   2.310   5.268 -0.0316 -0.1325 -0.9210
    1SAPS  H10X  107   5.122   2.314   5.225  0.6394 -1.5340  0.4319
    1SAPS  H10Y  108   4.963   2.392   5.220 -1.0149  0.0029  0.4016
    1SAPS  C311  109   4.957   2.172   5.237 -0.1520  0.5032 -0.1350
    1SAPS  H11X  110   4.858   2.166   5.287  0.4110  0.2166  0.9672
    1SAPS  H11Y  111   5.032   2.099   5.273  1.4619  1.2720 -1.7496
    1SAPS  C312  112   4.934   2.154   5.083 -0.2089 -0.3156  1.0001
    1SAPS  H12X  113   5.037   2.168   5.045 -0.3848 -1.3090  0.1233
    1SAPS  H12Y  114   4.887   2.244   5.037  1.4577  0.2231  0.2698
    1SAPS  C313  115   4.876   2.023   5.033  0.9918 -0.1481 -0.3195
    1SAPS  H13X  116   4.777   2.027   5.083  0.4916  0.8803 -1.3263
    1SAPS  H13Y  117   4.926   1.934   5.076  2.9280  1.1755  0.2801
    1SAPS  C314  118   4.853   2.018   4.878 -0.2872  0.5191 -0.1857
    1SAPS  H14X  119   4.936   1.980   4.815 -0.0266  0.0852  0.4059
    1SAPS  H14Y  120   4.827   2.124   4.854  1.1719  0.4843 -2.2108
    1SAPS  C315  121   4.726   1.938   4.842 -0.6231 -0.0164 -0.0203
    1SAPS  H15X  122   4.651   1.944   4.923 -2.4046  0.9311 -1.6725
    1SAPS  H15Y  123   4.750   1.830   4.830  0.0156 -0.0541  1.4611
    1SAPS  C316  124   4.666   1.995   4.716 -0.6073  0.1340 -0.2391
    1SAPS  H16X  125   4.642   2.102   4.733  0.9941  0.5192 -0.2885
    1SAPS  H16Y  126   4.573   1.937   4.695 -0.4405 -0.2852  0.1661
    1SAPS  C317  127   4.766   1.985   4.594 -0.1674  0.8785 -0.6751
    1SAPS  H17X  128   4.798   1.880   4.580 -2.7462  0.2651 -2.4738
    1SAPS  H17Y  129   4.855   2.049   4.616 -0.6179  1.4321 -0.4286
    1SAPS  C318  130   4.707   2.024   4.457 -0.3238  0.0805 -0.1070
    1SAPS  H18X  131   4.644   2.115   4.468 -1.1598 -0.2964 -1.5062
    1SAPS  H18Y  132   4.643   1.952   4.402  0.7450  0.8374 -2.4594
    1SAPS  H18Z  133   4.792   2.052   4.391 -1.0020  3.2420  0.1886
    2SAPS     N  134   3.661   1.669   6.743  0.3570 -0.2808 -0.1703
    2SAPS   HN1  135   3.661   1.761   6.792  0.7057 -1.3142  1.8885
    2SAPS   HN2  136   3.573   1.654   6.689  0.1999 -2.1390  0.5403
    2SAPS   HN3  137   3.657   1.588   6.807 -2.4699  0.3449  0.6226
    2SAPS   C12  138   3.770   1.669   6.644  0.3232 -0.4575 -1.1120
    2SAPS  H12A  139   3.866   1.692   6.688 -0.0911 -2.5270  1.0552
    2SAPS   C13  140   3.795   1.531   6.572 -0.4869  0.3556 -0.4959
    2SAPS  O13A  141   3.700   1.448   6.587 -0.3787  0.2813  0.2646
    2SAPS  O13B  142   3.901   1.506   6.504 -0.2601 -0.4071 -0.1031
    2SAPS   C11  143   3.721   1.769   6.535 -0.0313  0.9783 -0.1164
    2SAPS  H11A  144   3.635   1.733   6.476  0.1158 -0.6461  0.6112
    2SAPS  H11B  145   3.802   1.765   6.459 -0.3566 -0.6849 -0.4027
    2SAPS     P  146   3.562   1.973   6.564 -0.2448  0.2029  0.5946
    2SAPS   O13  147   3.455   1.885   6.607 -0.3620 -0.3316 -0.0426
    2SAPS   O14  148   3.567   2.113   6.620 -0.7613 -0.1503  0.3350
    2SAPS   O12  149   3.699   1.892   6.597 -0.1529  0.5420 -0.6169
    2SAPS   O11  150   3.571   1.975   6.406 -0.1261 -0.1938  0.3371
    2SAPS    C1  151   3.681   2.032   6.333 -0.1896 -0.0971 -0.1655
    2SAPS    HA  152   3.771   2.056   6.395  0.7212 -0.6309 -1.2340
    2SAPS    HB  153   3.711   1.959   6.254 -0.2313 -0.5286  0.2152
    2SAPS    C2  154   3.640   2.171   6.268 -0.4594  0.4736 -0.6056
    2SAPS    HS  155   3.648   2.235   6.358  1.9629 -0.3520 -0.1670
    2SAPS   O21  156   3.504   2.173   6.216  0.3613  0.1799  0.2889
    2SAPS   C21  157   3.463   2.290   6.197  0.3882 -0.2707  0.4480
    2SAPS   O22  158   3.517   2.396   6.236 -0.3415  0.3682 -0.3727
    2SAPS   C22  159   3.339   2.284   6.108  0.7958 -0.0076 -0.7313
    2SAPS   H2R  160   3.288   2.185   6.103  0.5144  0.1262 -0.5117
    2SAPS   H2S  161   3.272   2.363   6.148  1.9859  1.2269 -1.0849
    2SAPS    C3  162   3.743   2.227   6.177  0.7140  0.2126  0.1267
    2SAPS    HX  163   3.839   2.200   6.225 -0.0373 -2.1546  0.4270
    2SAPS    HY  164   3.730   2.337   6.183 -1.9728 -0.0191 -0.1168
    2SAPS   O31  165   3.715   2.179   6.042 -0.3585 -0.1396  0.0861
    2SAPS   C31  166   3.819   2.121   5.983  0.1889 -0.2926 -0.3373
    2SAPS   O32  167   3.928   2.101   6.033  0.1926 -0.4566  0.2678
    2SAPS   C32  168   3.781   2.078   5.842 -0.6706  0.2493  0.4945
    2SAPS   H2X  169   3.850   2.129   5.772 -0.7179  0.7246  0.7870
    2SAPS   H2Y  170   3.676   2.107   5.821 -0.9115 -1.1853 -0.3914
    2SAPS   C23  171   3.375   2.326   5.963 -0.0257  0.1554 -0.1696
    2SAPS   H3R  172   3.443   2.249   5.920 -1.0955 -0.8061 -0.1832
    2SAPS   H3S  173   3.440   2.416   5.960  0.1382  0.0460  0.0754
    2SAPS   C24  174   3.251   2.364   5.868 -0.3583 -0.3003 -0.0833
    2SAPS   H4R  175   3.193   2.440   5.926  1.3748 -0.1052  1.5034
    2SAPS   H4S  176   3.190   2.272   5.862 -1.5189  0.1924  2.4309
    2SAPS   C25  177   3.288   2.419   5.733 -0.0243  0.9236  0.5020
    2SAPS   H5R  178   3.339   2.516   5.731 -0.6430  1.2550  0.4933
    2SAPS   C26  179   3.261   2.357   5.618 -0.1535 -0.5518  0.6449
    2SAPS   H6R  180   3.297   2.419   5.535  2.2699 -0.8056  1.4135
    2SAPS   C27  181   3.200   2.218   5.606 -0.7053  0.3671 -0.1976
    2SAPS   H7R  182   3.173   2.208   5.499 -0.5497 -1.1746 -0.1060
    2SAPS   H7S  183   3.112   2.218   5.675 -1.3413  0.3495 -0.9885
    2SAPS   C28  184   3.293   2.106   5.647  0.4511  0.3436  0.1638
    2SAPS   H8R  185   3.380   2.123   5.712  0.1657  0.2641  0.5716
    2SAPS   C29  186   3.287   1.981   5.599  0.0988  0.7121  0.0630
    2SAPS   H9R  187   3.351   1.905   5.646  0.7319  0.3586 -1.3041
    2SAPS  C210  188   3.186   1.920   5.511 -0.7086  0.0396  0.1616
    2SAPS  H10R  189   3.239   1.903   5.415  1.3241  1.4077  0.9553
    2SAPS  H10S  190   3.099   1.987   5.497 -0.6791 -0.0757 -0.5983
    2SAPS  C211  191   3.145   1.782   5.554  0.5423  0.5874 -0.0350
    2SAPS  H11R  192   3.160   1.763   5.661  3.3757 -0.4808 -0.5263
    2SAPS  C212  193   3.078   1.690   5.476  0.5578 -0.7772  0.9433
    2SAPS  H12R  194   3.019   1.606   5.516 -0.3137 -0.6023  0.0701
    2SAPS  C213  195   3.042   1.710   5.332  0.4576 -0.1272  0.6082
    2SAPS  H13R  196   3.080   1.812   5.308 -0.6896 -0.1869 -1.7256
    2SAPS  H13S  197   2.933   1.730   5.324  0.8085  1.4033 -1.1438
    2SAPS  C214  198   3.093   1.614   5.231  0.3545 -0.7819 -0.3948
    2SAPS  H14R  199   3.146   1.535   5.286 -0.7475 -0.5797  1.0188
    2SAPS  C215  200   3.090   1.615   5.099  0.0170  0.3300  0.6826
    2SAPS  H15R  201   3.122   1.519   5.055  0.2129  0.2918  0.9075
    2SAPS  C216  202   3.013   1.720   5.022  0.6028  0.2538  0.5177
    2SAPS  H16R  203   2.941   1.779   5.083  2.2369  2.3101  0.5630
    2SAPS  H16S  204   2.949   1.667   4.948  0.2560 -1.9611  2.2782
    2SAPS  C217  205   3.100   1.825   4.958  0.1074  0.1228  0.2275
    2SAPS  H17R  206   3.047   1.869   4.870  1.7908  2.6143  0.3763
    2SAPS  H17S  207   3.197   1.787   4.920  0.6755 -1.8950  3.3869
    2SAPS  C218  208   3.132   1.933   5.065  0.6508  0.4105 -0.2949
    2SAPS  H18R  209   3.219   1.910   5.130 -0.7295  0.5303  1.6851
    2SAPS  H18S  210   3.043   1.946   5.131  1.0364  1.8081 -0.0321
    2SAPS  C219  211   3.133   2.058   4.974  0.5052 -0.5269 -0.2028
    2SAPS  H19R  212   3.164   2.145   5.037 -1.4800 -1.5124  2.3093
    2SAPS  H19S  213   3.025   2.072   4.954  0.0668 -1.0995  1.5405
    2SAPS  C220  214   3.227   2.066   4.853 -0.8183  0.4255  0.1857
    2SAPS  H20R  215   3.215   2.164   4.803 -0.9851  0.0023 -0.6169
    2SAPS  H20S  216   3.199   1.989   4.778  2.2060 -0.4777 -0.1637
    2SAPS  H20T  217   3.336   2.062   4.874 -0.7029 -4.4374 -0.2433
    2SAPS   C33  218   3.786   1.921   5.815 -0.2488 -0.8605  0.2451
    2SAPS   H3X  219   3.757   1.858   5.902 -0.5506 -0.6415  0.3039
    2SAPS   H3Y  220   3.892   1.891   5.800  0.3192  0.2625  1.7906
    2SAPS   C34  221   3.703   1.883   5.692  0.7678 -0.6267 -0.2998
    2SAPS   H4X  222   3.757   1.910   5.598  0.2501  2.2043  0.1501
    2SAPS   H4Y  223   3.617   1.953   5.699  0.4932 -1.1385  2.9599
    2SAPS   C35  224   3.663   1.738   5.699 -0.3867 -0.5045 -0.1244
    2SAPS   H5X  225   3.612   1.714   5.794 -0.3759 -0.9673 -0.2343
    2SAPS   H5Y  226   3.753   1.672   5.699 -0.8704 -1.2004 -1.1629
    2SAPS   C36  227   3.562   1.691   5.587  0.2545  0.1370 -0.1956
    2SAPS   H6X  228   3.472   1.756   5.588  0.0545 -0.0932 -1.6358
    2SAPS   H6Y  229   3.534   1.590   5.622  0.9939  0.3296  1.0359
    2SAPS   C37  230   3.623   1.693   5.441 -0.6146 -0.7265 -0.2014
    2SAPS   H7X  231   3.699   1.612   5.450 -0.1405 -0.5649 -2.2660
    2SAPS   H7Y  232   3.669   1.788   5.407 -1.7085  0.0082  0.3154
    2SAPS   C38  233   3.517   1.658   5.338 -0.4573  0.2563  0.2264
    2SAPS   H8X  234   3.432   1.729   5.333  0.5651  1.4849 -0.3456
    2SAPS   H8Y  235   3.484   1.554   5.357  3.5606 -1.4105 -0.6991
    2SAPS   C39  236   3.577   1.635   5.196 -0.3459  0.4197  0.6099
    2SAPS   H9X  237   3.658   1.560   5.202 -0.9079 -0.5593 -2.2325
    2SAPS   H9Y  238   3.630   1.729   5.172 -0.2683  0.9778  2.7967
    2SAPS  C310  239   3.476   1.589   5.099  0.5149  0.6720  0.2137
    2SAPS  H10X  240   3.387   1.656   5.104  1.1641  1.6061 -0.4470
    2SAPS  H10Y  241   3.448   1.483   5.116  2.9660 -0.0021  0.3683
    2SAPS  C311  242   3.531   1.575   4.954  0.0326 -0.3211  0.8242
    2SAPS  H11X  243   3.590   1.483   4.934 -0.3061 -0.0338 -1.7185
    2SAPS  H11Y  244   3.606   1.657   4.949 -2.0937  1.6620 -0.1325
    2SAPS  C312  245   3.422   1.582   4.848  0.0593  1.2034  0.4541
    2SAPS  H12X  246   3.368   1.678   4.857  0.2740  1.2849  0.8779
    2SAPS  H12Y  247   3.345   1.506   4.870  3.0397 -1.8190  1.3242
    2SAPS  C313  248   3.478   1.556   4.711 -0.1788  0.2490 -0.0616
    2SAPS  H13X  249   3.385   1.521   4.661 -1.6230  3.3834  0.1978
    2SAPS  H13Y  250   3.569   1.492   4.715  0.2170  0.7047 -1.3080
    2SAPS  C314  251   3.531   1.670   4.613  0.0139  0.0619 -0.0417
    2SAPS  H14X  252   3.611   1.721   4.670 -0.4706  1.3384 -0.4629
    2SAPS  H14Y  253   3.455   1.750   4.604 -1.2653 -1.3447 -3.0787
    2SAPS  C315  254   3.584   1.628   4.476 -0.5981  0.1646  0.0839
    2SAPS  H15X  255   3.663   1.550   4.483  0.4354  1.0741 -1.0002
    2SAPS  H15Y  256   3.629   1.712   4.419 -2.2852  0.6994 -0.5121
    2SAPS  C316  257   3.472   1.577   4.389 -0.1828  0.0556 -0.2826
    2SAPS  H16X  258   3.399   1.661   4.396 -0.5175 -0.3849  4.0137
    2SAPS  H16Y  259   3.418   1.485   4.419 -0.5866 -0.7389 -3.1194
    2SAPS  C317  260   3.527   1.555   4.246 -0.2181 -0.1967 -0.1160
    2SAPS  H17X  261   3.625   1.502   4.248  0.9133  1.8365  0.6408
    2SAPS  H17Y  262   3.550   1.653   4.199  0.5088 -1.1067 -1.7476
    2SAPS  C318  263   3.421   1.482   4.165 -0.1066 -0.2494 -0.1309
    2SAPS  H18X  264   3.457   1.438   4.070  2.3487 -0.7179  0.9400
    2SAPS  H18Y  265   3.328   1.539   4.143 -1.3832 -3.0595 -2.6824
    2SAPS  H18Z  266   3.389   1.401   4.232  0.2673  1.1325  1.8136
    3SAPS     N  267   2.244   1.399   6.543  0.8210 -0.2439 -0.0418
    3SAPS   HN1  268   2.333   1.351   6.571  0.5585 -1.2973 -0.9126
    3SAPS   HN2  269   2.207   1.349   6.460  1.9415 -1.4619  0.1558
    3SAPS   HN3  270   2.257   1.501   6.529  0.7442 -0.3255 -0.7324
    3SAPS   C12  271   2.149   1.398   6.660 -0.2350 -0.1507 -0.6449
    3SAPS  H12A  272   2.104   1.301   6.673 -1.5657  0.3920 -0.9668
    3SAPS   C13  273   2.216   1.441   6.795 -1.1842 -0.3824  0.0092
    3SAPS  O13A  274   2.331   1.496   6.795 -0.0766  0.2024  0.1680
    3SAPS  O13B  275   2.155   1.425   6.900 -0.2308 -0.0382 -0.0086
    3SAPS   C11  276   2.040   1.495   6.629  0.4368 -0.0586  0.6180
    3SAPS  H11A  277   1.968   1.507   6.712 -0.3811  1.0094 -0.2076
    3SAPS  H11B  278   1.962   1.454   6.561  1.6621 -0.3834 -0.6420
    3SAPS     P  279   2.000   1.740   6.519 -0.0584 -0.3590  0.0973
    3SAPS   O13  280   1.895   1.783   6.612 -0.4253  0.0948 -0.2772
    3SAPS   O14  281   2.097   1.838   6.467  0.0776  0.4380  0.6131
    3SAPS   O12  282   2.087   1.621   6.582 -0.2739 -0.5316  0.4748
    3SAPS   O11  283   1.921   1.666   6.403  0.6222 -0.1789  0.6581
    3SAPS    C1  284   1.979   1.589   6.301  0.5486 -0.5545 -0.1924
    3SAPS    HA  285   2.084   1.559   6.324  0.6821 -0.0187 -0.0839
    3SAPS    HB  286   1.912   1.502   6.288  0.3656 -0.4192 -0.1610
    3SAPS    C2  287   1.979   1.652   6.156 -0.0503  0.2496 -0.8062
    3SAPS    HS  288   2.006   1.573   6.083  1.3336 -1.1840  1.1537
    3SAPS   O21  289   2.064   1.770   6.153  0.0973  0.2828  0.1406
    3SAPS   C21  290   2.196   1.737   6.127 -0.0203  0.8159  0.0316
    3SAPS   O22  291   2.238   1.625   6.107 -0.3315 -0.3005 -0.3825
    3SAPS   C22  292   2.271   1.867   6.110 -0.1349 -0.2227  0.1741
    3SAPS   H2R  293   2.263   1.927   6.204  3.1346 -0.5842  0.8077
    3SAPS   H2S  294   2.377   1.833   6.110 -0.0428  0.0584  0.4987
    3SAPS    C3  295   1.835   1.692   6.124  0.0365  0.0800  0.2272
    3SAPS    HX  296   1.806   1.780   6.186  0.5069 -1.1048  2.2264
    3SAPS    HY  297   1.765   1.613   6.156 -2.2780  1.7044 -0.5279
    3SAPS   O31  298   1.821   1.721   5.981 -0.1416 -0.0400  0.5902
    3SAPS   C31  299   1.826   1.618   5.898  0.3939  0.1681 -0.1067
    3SAPS   O32  300   1.838   1.501   5.932  0.6376 -0.2621  0.0506
    3SAPS   C32  301   1.809   1.666   5.754 -0.1360  0.6021 -0.4117
    3SAPS   H2X  302   1.782   1.772   5.741  2.0935  0.9662 -3.2245
    3SAPS   H2Y  303   1.725   1.607   5.712 -1.8926  1.2152  2.0779
    3SAPS   C23  304   2.246   1.949   5.982 -0.0732  0.2993 -0.3108
    3SAPS   H3R  305   2.138   1.975   5.983 -0.0514  0.3756  0.8935
    3SAPS   H3S  306   2.256   1.879   5.896 -0.3854 -1.2798  0.8885
    3SAPS   C24  307   2.339   2.076   5.964 -0.7190 -1.1751  0.1823
    3SAPS   H4R  308   2.447   2.057   5.942 -1.0766 -1.7501 -1.1312
    3SAPS   H4S  309   2.340   2.127   6.063  0.5409  0.1596 -0.4810
    3SAPS   C25  310   2.267   2.169   5.871 -0.2443  0.3966  0.1055
    3SAPS   H5R  311   2.237   2.261   5.923 -0.0402  0.2967  0.4063
    3SAPS   C26  312   2.256   2.159   5.737 -0.1596  0.1613 -0.1131
    3SAPS   H6R  313   2.192   2.227   5.680  0.9676  0.6009 -0.8828
    3SAPS   C27  314   2.321   2.051   5.650  0.1879  0.3439 -0.9106
    3SAPS   H7R  315   2.374   1.972   5.707 -0.3404 -0.1571 -1.0995
    3SAPS   H7S  316   2.396   2.103   5.588  1.8115  0.8126  1.3522
    3SAPS   C28  317   2.221   1.979   5.561 -0.0406 -0.7480 -0.0133
    3SAPS   H8R  318   2.140   1.926   5.613 -0.4392  0.1166  0.2650
    3SAPS   C29  319   2.214   1.978   5.425  0.6700 -0.1456  0.3178
    3SAPS   H9R  320   2.142   1.906   5.384  1.1191 -2.2284  2.9493
    3SAPS  C210  321   2.311   2.036   5.319 -0.3422  0.6142 -0.6724
    3SAPS  H10R  322   2.317   1.975   5.227  0.6073  2.3071 -1.7948
    3SAPS  H10S  323   2.411   2.038   5.368 -0.6677  0.7270  0.0110
    3SAPS  C211  324   2.270   2.177   5.289 -0.1352 -0.3337 -0.3666
    3SAPS  H11R  325   2.252   2.239   5.378 -4.3776 -1.2424 -0.3867
    3SAPS  C212  326   2.257   2.230   5.164 -0.1212 -0.0143 -0.3438
    3SAPS  H12R  327   2.226   2.335   5.156  0.6213  0.1453 -1.3336
    3SAPS  C213  328   2.274   2.163   5.033 -0.2142 -0.1493 -0.7496
    3SAPS  H13R  329   2.312   2.058   5.034  2.4294  0.7211 -1.1925
    3SAPS  H13S  330   2.361   2.219   4.992 -0.3521  1.2368  0.7623
    3SAPS  C214  331   2.148   2.172   4.953 -0.0244  0.0642 -0.6998
    3SAPS  H14R  332   2.069   2.111   5.001  0.8618 -1.1385 -0.7130
    3SAPS  C215  333   2.118   2.251   4.845 -0.7623  0.1030  0.2193
    3SAPS  H15R  334   2.017   2.252   4.803 -0.1884  0.9467 -1.2279
    3SAPS  C216  335   2.223   2.343   4.776  0.0681  0.0876 -0.7761
    3SAPS  H16R  336   2.323   2.308   4.810  0.8090  2.9554  0.1912
    3SAPS  H16S  337   2.204   2.444   4.817 -1.6835 -1.2527  2.0714
    3SAPS  C217  338   2.224   2.358   4.628 -0.3449 -0.1690  0.8370
    3SAPS  H17R  339   2.312   2.420   4.600  0.2723 -0.3256  2.3210
    3SAPS  H17S  340   2.135   2.403   4.580  0.1687  0.5131  0.4959
    3SAPS  C218  341   2.253   2.225   4.559  0.4261  0.5248  0.3964
    3SAPS  H18R  342   2.165   2.165   4.590  0.1927 -0.3178 -1.7252
    3SAPS  H18S  343   2.346   2.182   4.601 -0.0619 -0.0630  0.8989
    3SAPS  C219  344   2.242   2.235   4.404  0.5821  0.6899 -0.3641
    3SAPS  H19R  345   2.142   2.277   4.376 -1.3192 -2.9128  0.4433
    3SAPS  H19S  346   2.318   2.303   4.360 -0.1663  2.0072  0.3151
    3SAPS  C220  347   2.250   2.104   4.335  0.4182  0.3091 -0.5117
    3SAPS  H20R  348   2.355   2.066   4.343  1.0242  1.3879 -2.5074
    3SAPS  H20S  349   2.237   2.122   4.226 -1.3529  0.4261 -0.2950
    3SAPS  H20T  350   2.178   2.033   4.381  0.1167  1.3327  0.6400
    3SAPS   C33  351   1.934   1.659   5.673 -0.3279 -0.1135 -0.1828
    3SAPS   H3X  352   1.966   1.558   5.705  0.0961  0.2057  0.4294
    3SAPS   H3Y  353   2.013   1.731   5.704  2.2033 -2.9152  0.3871
    3SAPS   C34  354   1.920   1.650   5.520  0.9616  0.5259 -0.4588
    3SAPS   H4X  355   1.866   1.556   5.498  0.4283  1.0693 -1.5627
    3SAPS   H4Y  356   2.017   1.632   5.468 -0.2973 -1.6788 -2.1925
    3SAPS   C35  357   1.854   1.775   5.458 -0.2378  0.3382  0.0715
    3SAPS   H5X  358   1.760   1.808   5.507  0.2932 -0.0844  1.4333
    3SAPS   H5Y  359   1.934   1.852   5.462 -1.6720  1.9755 -1.3873
    3SAPS   C36  360   1.821   1.775   5.311 -0.8588 -0.2396  0.3246
    3SAPS   H6X  361   1.785   1.874   5.276  0.5943 -0.7283 -2.9032
    3SAPS   H6Y  362   1.740   1.700   5.295 -0.5910 -0.5750  0.5223
    3SAPS   C37  363   1.940   1.728   5.223  0.5090  0.4623 -0.5033
    3SAPS   H7X  364   1.967   1.633   5.274 -0.1352  0.0673 -0.8835
    3SAPS   H7Y  365   2.020   1.801   5.249  0.1386  1.3000 -1.5958
    3SAPS   C38  366   1.904   1.721   5.072  0.3556 -0.1164 -0.3064
    3SAPS   H8X  367   1.798   1.690   5.063  0.0021 -0.2088  2.9582
    3SAPS   H8Y  368   1.975   1.650   5.024  1.7668 -1.9742  3.9977
    3SAPS   C39  369   1.929   1.866   5.011 -0.1566  0.8275 -0.6083
    3SAPS   H9X  370   2.029   1.910   5.032  1.2559 -1.9361 -1.0783
    3SAPS   H9Y  371   1.844   1.919   5.058 -3.0674 -4.3390  0.7626
    3SAPS  C310  372   1.905   1.864   4.861 -0.1215 -0.0183  0.1530
    3SAPS  H10X  373   1.879   1.966   4.827  0.3918 -0.6766 -2.4469
    3SAPS  H10Y  374   1.826   1.795   4.824  0.2289 -0.3345 -0.0129
    3SAPS  C311  375   2.031   1.827   4.776 -0.2688  0.0042  0.0669
    3SAPS  H11X  376   2.039   1.717   4.786 -0.5164 -0.1200 -1.0150
    3SAPS  H11Y  377   2.122   1.872   4.821  1.0625 -1.9400 -0.5595
    3SAPS  C312  378   2.024   1.860   4.622 -0.4013 -0.1845  0.6306
    3SAPS  H12X  379   2.127   1.839   4.584 -1.0801 -0.8774 -0.9197
    3SAPS  H12Y  380   2.001   1.969   4.618 -0.0012 -0.0939  0.7303
    3SAPS  C313  381   1.927   1.775   4.540  0.2201 -0.1419  0.6089
    3SAPS  H13X  382   1.830   1.760   4.593 -0.2630 -1.8536 -0.6857
    3SAPS  H13Y  383   1.970   1.673   4.530 -1.8484 -0.8435 -2.5471
    3SAPS  C314  384   1.893   1.829   4.401 -0.2079 -0.1650 -1.2383
    3SAPS  H14X  385   1.829   1.752   4.354 -0.8205 -1.5854  1.6844
    3SAPS  H14Y  386   1.991   1.836   4.348  2.3908  1.0696  3.2098
    3SAPS  C315  387   1.816   1.956   4.417  0.2736  1.0102 -0.5848
    3SAPS  H15X  388   1.826   2.007   4.515 -0.4510 -0.0118  0.0332
    3SAPS  H15Y  389   1.709   1.929   4.428  0.4325 -0.2392 -1.8083
    3SAPS  C316  390   1.842   2.041   4.293  1.0948  0.1899  0.6688
    3SAPS  H16X  391   1.824   1.974   4.206  0.0414 -2.1867  2.5795
    3SAPS  H16Y  392   1.950   2.066   4.290  0.2885  4.1452 -1.4786
    3SAPS  C317  393   1.752   2.166   4.274 -0.3838 -0.2050 -0.1230
    3SAPS  H17X  394   1.791   2.239   4.200 -2.0494  0.2240 -0.6204
    3SAPS  H17Y  395   1.755   2.214   4.374 -1.5784 -1.1272  0.3859
    3SAPS  C318  396   1.604   2.135   4.243  0.1425  0.4176 -0.1997
    3SAPS  H18X  397   1.543   2.219   4.283  1.0784  1.1978 -0.3561
    3SAPS  H18Y  398   1.582   2.043   4.302  1.2761 -0.7354 -1.5072
    3SAPS  H18Z  399   1.579   2.120   4.136  2.7494 -0.6783 -0.7303
    4SAPS     N  400   2.793   4.671   6.872  0.4032  0.7086 -0.2345
    4SAPS   HN1  401   2.812   4.722   6.960 -1.6845 -0.2271  0.8240
    4SAPS   HN2  402   2.719   4.604   6.899 -0.5740  2.0138  0.4271
    4SAPS   HN3  403   2.878   4.623   6.835  0.5801  1.6318 -1.0833
    4SAPS   C12  404   2.742   4.769   6.773  0.1264  0.7732  0.4728
    4SAPS  H12A  405   2.730   4.707   6.686 -0.3490  0.2952  0.8733
    4SAPS   C13  406   2.607   4.836   6.798  0.9763  0.4737  0.4887
    4SAPS  O13A  407   2.533   4.803   6.896  0.0268  0.6317 -0.5701
    4SAPS  O13B  408   2.563   4.913   6.707 -0.6213 -0.1836 -0.3551
    4SAPS   C11  409   2.851   4.878   6.742 -0.7790  0.2377 -0.0294
    4SAPS  H11A  410   2.845   4.947   6.828  0.7331 -0.8665  1.0189
    4SAPS  H11B  411   2.825   4.940   6.653  0.2555 -0.6666 -1.0010
    4SAPS     P  412   3.102   4.912   6.691 -0.6672 -0.0428 -0.4174
    4SAPS   O13  413   3.069   5.054   6.729  0.2800  0.3222 -0.3621
    4SAPS   O14  414   3.226   4.849   6.743 -0.0994 -0.3727  0.7400
    4SAPS   O12  415   2.985   4.824   6.737  0.5940 -0.2757  0.0054
    4SAPS   O11  416   3.099   4.889   6.538 -0.0065  0.4687  0.1042
    4SAPS    C1  417   3.100   5.009   6.452 -0.1699  0.3924 -0.3302
    4SAPS    HA  418   3.165   5.091   6.489 -0.6086 -0.0396  1.5155
    4SAPS    HB  419   3.150   4.977   6.358  3.0428  1.3724  0.9185
    4SAPS    C2  420   2.957   5.058   6.416 -0.5119 -0.3459 -0.4357
    4SAPS    HS  421   2.913   5.116   6.500 -0.8500 -0.9273 -0.2097
    4SAPS   O21  422   2.877   4.944   6.387  0.6054 -0.2098  0.0693
    4SAPS   C21  423   2.752   4.969   6.365  0.1530  0.2816  0.7844
    4SAPS   O22  424   2.689   5.068   6.390  0.3580  0.6960  0.0068
    4SAPS   C22  425   2.699   4.837   6.300  0.3452 -0.7225 -0.7971
    4SAPS   H2R  426   2.767   4.751   6.319  2.0715  0.8110  0.2682
    4SAPS   H2S  427   2.610   4.813   6.361  0.4704 -0.4209 -0.4939
    4SAPS    C3  428   2.971   5.151   6.293  0.0513  0.5171 -0.5231
    4SAPS    HX  429   2.872   5.186   6.257 -0.3047 -1.3809 -1.5071
    4SAPS    HY  430   3.019   5.101   6.207 -0.0321  1.8338 -1.3615
    4SAPS   O31  431   3.055   5.259   6.332  0.4428 -0.5555 -0.3087
    4SAPS   C31  432   2.998   5.373   6.363 -0.0925 -0.4470  0.1238
    4SAPS   O32  433   2.882   5.385   6.382  0.7377  0.2912  0.4593
    4SAPS   C32  434   3.108   5.481   6.369  0.4689 -0.0233  0.2245
    4SAPS   H2X  435   3.194   5.438   6.425 -0.6404 -2.0474  0.5158
    4SAPS   H2Y  436   3.064   5.562   6.432 -1.4709 -1.1089  0.3691
    4SAPS   C23  437   2.665   4.855   6.153  0.3834 -0.6870 -0.6709
    4SAPS   H3R  438   2.580   4.925   6.136  0.4311  0.3785  2.6520
    4SAPS   H3S  439   2.630   4.759   6.111 -4.2011 -0.3124  1.6921
    4SAPS   C24  440   2.780   4.899   6.060  0.3306  0.0164 -0.4096
    4SAPS   H4R  441   2.813   4.997   6.100 -0.1068  0.3579 -0.8825
    4SAPS   H4S  442   2.739   4.919   5.959  0.2451  1.5957 -0.0803
    4SAPS   C25  443   2.895   4.803   6.045 -1.2398 -1.0923 -0.6155
    4SAPS   H5R  444   2.931   4.759   6.140 -1.0666  0.4536  0.0625
    4SAPS   C26  445   2.949   4.753   5.930  0.0410  0.0270 -0.3633
    4SAPS   H6R  446   3.026   4.675   5.937 -0.7215 -0.8018 -0.9045
    4SAPS   C27  447   2.926   4.803   5.792  0.0303 -1.0518 -0.0833
    4SAPS   H7R  448   2.908   4.913   5.790  2.0560 -0.6251  1.5115
    4SAPS   H7S  449   2.833   4.758   5.753  1.0966 -1.2450 -2.5970
    4SAPS   C28  450   3.040   4.774   5.693  0.6238  0.3807 -0.7753
    4SAPS   H8R  451   3.133   4.732   5.734 -1.4208 -1.2531  2.7074
    4SAPS   C29  452   3.020   4.792   5.564 -0.4054  0.4102 -0.1421
    4SAPS   H9R  453   3.097   4.763   5.490 -0.5303 -2.0763  0.5998
    4SAPS  C210  454   2.894   4.841   5.495  0.1376 -0.0700 -0.1147
    4SAPS  H10R  455   2.879   4.945   5.533  1.9581  0.8978 -1.8562
    4SAPS  H10S  456   2.800   4.784   5.513  0.3350 -0.6633 -0.9763
    4SAPS  C211  457   2.915   4.842   5.342 -0.1954 -0.8613  0.9098
    4SAPS  H11R  458   2.865   4.755   5.297 -2.0288  0.5050  0.1375
    4SAPS  C212  459   2.982   4.932   5.265 -0.2091 -0.0946 -0.3085
    4SAPS  H12R  460   2.994   4.921   5.157  1.2975  0.3799 -0.2126
    4SAPS  C213  461   3.056   5.047   5.322 -0.0299  0.2661  0.0502
    4SAPS  H13R  462   3.124   5.004   5.399 -0.3906 -0.3702  0.0188
    4SAPS  H13S  463   2.984   5.120   5.365  0.3096  1.1006 -0.7607
    4SAPS  C214  464   3.148   5.118   5.222 -0.5557 -0.2473 -0.1796
    4SAPS  H14R  465   3.151   5.078   5.120  2.6822  1.9426 -1.1025
    4SAPS  C215  466   3.231   5.218   5.259 -0.3513  0.1767 -0.5231
    4SAPS  H15R  467   3.273   5.278   5.177  0.8284  0.3136  0.1600
    4SAPS  C216  468   3.220   5.280   5.394  0.4490 -0.3723 -0.2702
    4SAPS  H16R  469   3.140   5.242   5.460 -0.5356  0.4891 -0.9418
    4SAPS  H16S  470   3.200   5.389   5.392  0.8860 -0.2987 -1.5826
    4SAPS  C217  471   3.351   5.259   5.471 -0.4626  0.6151 -0.2287
    4SAPS  H17R  472   3.353   5.331   5.555 -1.4912  0.4098 -0.0242
    4SAPS  H17S  473   3.433   5.281   5.399 -2.0606 -0.0540 -2.3431
    4SAPS  C218  474   3.369   5.118   5.538 -0.4401  0.0201  0.0821
    4SAPS  H18R  475   3.372   5.029   5.471  1.3773 -1.8645  2.4981
    4SAPS  H18S  476   3.285   5.106   5.610 -1.5080 -0.8139 -1.2412
    4SAPS  C219  477   3.501   5.095   5.616  0.1533 -0.4171  0.3317
    4SAPS  H19R  478   3.523   5.178   5.687  1.7770  1.1903 -1.8810
    4SAPS  H19S  479   3.582   5.100   5.540 -0.3700  2.7572 -0.1422
    4SAPS  C220  480   3.510   4.967   5.693  0.4034  0.7043  0.3147
    4SAPS  H20R  481   3.524   4.886   5.618  3.5705  0.5905  0.8977
    4SAPS  H20S  482   3.414   4.948   5.744  0.6621 -0.9297  0.2505
    4SAPS  H20T  483   3.585   4.958   5.774 -0.0074 -2.1787  0.5020
    4SAPS   C33  484   3.165   5.528   6.239  0.7462 -0.4285  0.5801
    4SAPS   H3X  485   3.212   5.439   6.193 -3.0029 -1.5629 -1.4443
    4SAPS   H3Y  486   3.252   5.591   6.269  0.6994  0.2335 -0.5984
    4SAPS   C34  487   3.064   5.595   6.152  0.5564 -0.1713 -0.0874
    4SAPS   H4X  488   2.996   5.661   6.210  0.5079 -0.2309 -0.0762
    4SAPS   H4Y  489   3.011   5.513   6.099  1.5484  1.1216 -3.2744
    4SAPS   C35  490   3.136   5.673   6.039 -0.7882  0.0619 -0.2841
    4SAPS   H5X  491   3.187   5.606   5.967 -0.3857  1.0248 -0.9189
    4SAPS   H5Y  492   3.213   5.737   6.086 -2.4128  1.5752  0.4639
    4SAPS   C36  493   3.035   5.751   5.962  0.2598 -0.1304  1.1192
    4SAPS   H6X  494   2.974   5.817   6.026  0.0956 -1.1390  2.0299
    4SAPS   H6Y  495   2.967   5.682   5.907  2.1651  1.4410 -3.7961
    4SAPS   C37  496   3.095   5.849   5.861 -0.0398  0.1756 -0.3948
    4SAPS   H7X  497   3.175   5.906   5.913  1.1968  0.4659 -2.5106
    4SAPS   H7Y  498   3.012   5.901   5.811  0.4949 -0.2398 -1.7552
    4SAPS   C38  499   3.185   5.782   5.747  0.1737  0.7206  0.1549
    4SAPS   H8X  500   3.129   5.705   5.692  1.1858  0.4521 -0.5307
    4SAPS   H8Y  501   3.272   5.728   5.790  0.3605  2.3260  1.9287
    4SAPS   C39  502   3.226   5.881   5.636  0.1676 -0.3193 -0.9627
    4SAPS   H9X  503   3.277   5.965   5.686  0.3289 -0.7345 -0.4250
    4SAPS   H9Y  504   3.131   5.918   5.592 -0.5865 -0.4916  0.4639
    4SAPS  C310  505   3.322   5.816   5.531  0.1362  0.5944 -0.4130
    4SAPS  H10X  506   3.389   5.754   5.595  0.3167  3.8735  2.9496
    4SAPS  H10Y  507   3.377   5.897   5.480 -0.6338  0.7735 -0.9729
    4SAPS  C311  508   3.242   5.728   5.434 -1.3813 -0.0965 -0.3674
    4SAPS  H11X  509   3.184   5.794   5.366 -1.5030  3.1516  2.6165
    4SAPS  H11Y  510   3.177   5.662   5.493 -1.3685 -0.3148 -0.5959
    4SAPS  C312  511   3.353   5.636   5.365  0.2522 -0.0019  0.0946
    4SAPS  H12X  512   3.299   5.553   5.315  1.3712 -1.5443  1.3380
    4SAPS  H12Y  513   3.412   5.602   5.453  0.8770 -0.9289 -0.6562
    4SAPS  C313  514   3.433   5.711   5.253 -0.1746  0.2044  0.1788
    4SAPS  H13X  515   3.505   5.784   5.297 -0.9073 -1.2838  4.3189
    4SAPS  H13Y  516   3.358   5.773   5.200  0.8412  1.2975 -0.0032
    4SAPS  C314  517   3.506   5.619   5.153 -0.8472 -0.2546  0.5401
    4SAPS  H14X  518   3.557   5.689   5.082  0.3138 -0.3498  1.2564
    4SAPS  H14Y  519   3.429   5.557   5.103 -0.7461 -1.6567  2.0663
    4SAPS  C315  520   3.615   5.519   5.204  0.0103 -0.2741 -0.2441
    4SAPS  H15X  521   3.576   5.470   5.295  0.6580 -0.9866 -0.3337
    4SAPS  H15Y  522   3.702   5.579   5.239 -0.8869  1.5783 -1.0727
    4SAPS  C316  523   3.649   5.416   5.101 -0.1840 -0.7466 -0.6076
    4SAPS  H16X  524   3.684   5.455   5.003  1.9424  0.7009  0.6506
    4SAPS  H16Y  525   3.562   5.351   5.077 -1.5400  0.5211  0.6533
    4SAPS  C317  526   3.757   5.336   5.166 -0.1155 -0.3505 -1.3404
    4SAPS  H17X  527   3.848   5.397   5.185  0.5611 -1.5570 -0.5947
    4SAPS  H17Y  528   3.793   5.271   5.083 -0.7816 -0.1329 -1.8091
    4SAPS  C318  529   3.713   5.253   5.289 -0.6817  0.0295  0.5358
    4SAPS  H18X  530   3.792   5.187   5.331 -1.1314 -0.5724  0.4503
    4SAPS  H18Y  531   3.626   5.192   5.257 -0.3935  0.6720 -1.6853
    4SAPS  H18Z  532   3.688   5.311   5.379 -0.8038 -1.2762  1.3744
    5SAPS     N  533   4.472   1.397   6.557 -0.2098 -0.3267 -0.0689
    5SAPS   HN1  534   4.419   1.365   6.641  0.4706 -0.6146  0.2574
    5SAPS   HN2  535   4.401   1.444   6.497  0.5367  2.0339  0.7800
    5SAPS   HN3  536   4.511   1.312   6.512  0.0007  0.3765 -1.2485
    5SAPS   C12  537   4.579   1.495   6.581 -0.4153  0.8896 -0.4187
    5SAPS  H12A  538   4.536   1.594   6.587 -1.2805  0.4476  1.4070
    5SAPS   C13  539   4.658   1.466   6.714  0.4061  0.5838 -0.1667
    5SAPS  O13A  540   4.629   1.369   6.786  0.2734 -0.0702 -0.1979
    5SAPS  O13B  541   4.752   1.544   6.747 -0.4710  0.5021 -0.7462
    5SAPS   C11  542   4.682   1.481   6.462 -0.1820 -0.2779  1.1111
    5SAPS  H11A  543   4.763   1.555   6.479 -0.0693 -0.5081  1.5856
    5SAPS  H11B  544   4.631   1.525   6.374  0.2842  2.5423  2.1579
    5SAPS     P  545   4.885   1.310   6.437 -0.0477 -0.1025  0.0847
    5SAPS   O13  546   4.971   1.428   6.425  0.3485 -0.4892  0.2128
    5SAPS   O14  547   4.909   1.223   6.556  0.4981 -0.4257  0.3771
    5SAPS   O12  548   4.734   1.353   6.424 -0.0936  0.1480  0.3968
    5SAPS   O11  549   4.923   1.232   6.304  0.4344 -0.1823  0.3866
    5SAPS    C1  550   4.862   1.249   6.178 -0.1698 -0.8093 -0.6589
    5SAPS    HA  551   4.877   1.155   6.120  0.2042 -1.8750  1.1178
    5SAPS    HB  552   4.758   1.282   6.199  0.4504  1.8838 -1.3950
    5SAPS    C2  553   4.920   1.363   6.099  0.1090 -0.6969 -0.1531
    5SAPS    HS  554   4.900   1.460   6.148  3.0147  1.4798 -2.9057
    5SAPS   O21  555   4.856   1.355   5.968  0.1174  0.0866  0.1782
    5SAPS   C21  556   4.837   1.474   5.906  0.2434  0.8248 -0.1697
    5SAPS   O22  557   4.880   1.578   5.949 -0.4603 -0.0417 -0.0660
    5SAPS   C22  558   4.765   1.448   5.771 -0.0982 -0.3213  0.4626
    5SAPS   H2R  559   4.789   1.349   5.727  2.1131  0.8816 -1.2209
    5SAPS   H2S  560   4.658   1.461   5.799 -0.2562  2.1867 -1.0488
    5SAPS    C3  561   5.070   1.361   6.074  0.0879  0.0805  0.1790
    5SAPS    HX  562   5.113   1.372   6.175 -2.4234 -0.3733  1.3726
    5SAPS    HY  563   5.095   1.440   5.999 -1.1263 -0.1707 -0.5296
    5SAPS   O31  564   5.108   1.228   6.031 -0.1498  0.0815  0.2343
    5SAPS   C31  565   5.170   1.221   5.918 -0.1251 -0.4332 -0.4719
    5SAPS   O32  566   5.218   1.318   5.865  0.6375 -0.3552 -0.7500
    5SAPS   C32  567   5.219   1.079   5.884 -0.2626  0.3079  0.6022
    5SAPS   H2X  568   5.122   1.027   5.869  0.9005 -2.0520  0.7636
    5SAPS   H2Y  569   5.284   1.046   5.968  1.5533  2.1014 -0.0108
    5SAPS   C23  570   4.793   1.561   5.673  0.0619 -0.4539  0.7006
    5SAPS   H3R  571   4.786   1.659   5.725 -0.0406  0.0695 -0.2681
    5SAPS   H3S  572   4.720   1.563   5.589  0.9711 -0.2936 -0.1000
    5SAPS   C24  573   4.926   1.563   5.610  0.0371 -0.1369  0.0230
    5SAPS   H4R  574   4.960   1.458   5.593  1.2616  0.1710  0.4342
    5SAPS   H4S  575   5.004   1.609   5.674  0.9340 -0.7338 -0.6180
    5SAPS   C25  576   4.945   1.646   5.486 -0.3756 -0.2590  0.7184
    5SAPS   H5R  577   4.941   1.755   5.501 -1.7480 -0.3126  0.8270
    5SAPS   C26  578   4.967   1.610   5.357  1.2754 -0.5770  0.2531
    5SAPS   H6R  579   4.989   1.695   5.291 -0.6174 -0.0083  0.2982
    5SAPS   C27  580   4.979   1.467   5.294 -0.2922  0.2806  0.1091
    5SAPS   H7R  581   4.879   1.440   5.254 -1.2566  1.4016  1.6367
    5SAPS   H7S  582   4.994   1.389   5.372  2.5326  0.9102  0.3058
    5SAPS   C28  583   5.079   1.450   5.185  0.3838 -0.1430  0.1233
    5SAPS   H8R  584   5.178   1.417   5.221 -0.0410 -2.5537 -0.7765
    5SAPS   C29  585   5.062   1.481   5.051 -0.2977  0.5146 -0.0368
    5SAPS   H9R  586   5.142   1.456   4.980  0.5238  1.6048  0.4635
    5SAPS  C210  587   4.929   1.536   4.991 -0.1957  0.7494 -0.1664
    5SAPS  H10R  588   4.848   1.548   5.065  0.5688  3.3526  0.3400
    5SAPS  H10S  589   4.892   1.469   4.911  0.1694  1.5541 -1.0177
    5SAPS  C211  590   4.947   1.660   4.906 -0.5267 -0.2393 -0.2792
    5SAPS  H11R  591   4.945   1.759   4.953 -1.9072  0.6737 -2.1535
    5SAPS  C212  592   4.976   1.669   4.776 -0.6475 -0.5814  0.1332
    5SAPS  H12R  593   4.994   1.768   4.731  0.5281  0.9604  3.6450
    5SAPS  C213  594   4.992   1.548   4.683 -0.6995 -0.0895  0.0902
    5SAPS  H13R  595   4.943   1.566   4.584 -1.1190 -0.4510  0.2304
    5SAPS  H13S  596   4.939   1.462   4.727 -3.3331  2.0288  1.3826
    5SAPS  C214  597   5.138   1.523   4.673 -0.0844  0.1397  0.4861
    5SAPS  H14R  598   5.182   1.475   4.763  1.2870  1.6283  0.6615
    5SAPS  C215  599   5.214   1.525   4.565 -0.2576 -0.2744 -0.2667
    5SAPS  H15R  600   5.318   1.494   4.583 -0.2583 -0.2776 -0.2687
    5SAPS  C216  601   5.179   1.571   4.426  0.5118 -0.6228  0.1544
    5SAPS  H16R  602   5.248   1.649   4.389  0.1182  0.0214  0.7575
    5SAPS  H16S  603   5.080   1.621   4.418  1.3184  1.2512  1.1707
    5SAPS  C217  604   5.182   1.462   4.317  0.2462  0.2561  0.4693
    5SAPS  H17R  605   5.281   1.412   4.327 -1.1185 -2.9624 -0.6035
    5SAPS  H17S  606   5.161   1.496   4.214  2.7840  1.5270  0.2854
    5SAPS  C218  607   5.079   1.353   4.358 -0.4930  0.1358  0.0337
    5SAPS  H18R  608   4.977   1.395   4.364 -0.3585  0.5738 -0.5964
    5SAPS  H18S  609   5.112   1.304   4.452  0.0114 -0.4390 -0.4319
    5SAPS  C219  610   5.070   1.242   4.252  0.0293 -0.1936 -0.6584
    5SAPS  H19R  611   5.161   1.178   4.249  0.3413  0.2389 -0.4913
    5SAPS  H19S  612   5.060   1.302   4.159 -0.3886 -1.1392 -1.2384
    5SAPS  C220  613   4.946   1.156   4.273  0.2820  0.4820 -0.2911
    5SAPS  H20R  614   4.853   1.216   4.276  0.5913  0.9944  3.4334
    5SAPS  H20S  615   4.947   1.114   4.376  2.1945  2.6003  0.6184
    5SAPS  H20T  616   4.942   1.069   4.204  1.2063  0.0361  0.1988
    5SAPS   C33  617   5.297   1.076   5.749 -0.2643  0.6508  1.0966
    5SAPS   H3X  618   5.323   0.968   5.740 -1.3861  0.3842  0.9359
    5SAPS   H3Y  619   5.393   1.132   5.760  0.2904 -0.4722  2.4597
    5SAPS   C34  620   5.225   1.119   5.623 -0.7578 -0.3373  0.0319
    5SAPS   H4X  621   5.205   1.228   5.629  1.3376  0.1179 -0.4049
    5SAPS   H4Y  622   5.123   1.076   5.615 -0.7553 -0.7349  1.7934
    5SAPS   C35  623   5.302   1.090   5.487  0.0352  0.0054 -0.9821
    5SAPS   H5X  624   5.340   0.986   5.482 -0.3393 -0.1587 -0.4526
    5SAPS   H5Y  625   5.386   1.162   5.474 -0.0890  0.6812  1.5215
    5SAPS   C36  626   5.212   1.099   5.361 -0.3028  0.1311  0.5453
    5SAPS   H6X  627   5.162   1.197   5.378  0.8006  0.9009 -0.4646
    5SAPS   H6Y  628   5.143   1.013   5.346 -0.4614  0.4491 -0.6912
    5SAPS   C37  629   5.289   1.120   5.230  0.6896 -0.3232  0.4320
    5SAPS   H7X  630   5.363   1.038   5.218  1.3782  0.5754 -2.4054
    5SAPS   H7Y  631   5.349   1.214   5.235  0.4364  0.3441 -4.2794
    5SAPS   C38  632   5.199   1.114   5.103 -0.1257  0.7822  0.3188
    5SAPS   H8X  633   5.110   1.179   5.109 -0.9410 -0.4222  2.3779
    5SAPS   H8Y  634   5.153   1.013   5.112  1.0799  0.1770 -0.0329
    5SAPS   C39  635   5.277   1.132   4.974 -0.4167  0.1597 -0.4150
    5SAPS   H9X  636   5.365   1.064   4.978  1.1724  2.1554  0.9381
    5SAPS   H9Y  637   5.315   1.237   4.967 -0.3989  0.1137 -1.1629
    5SAPS  C310  638   5.199   1.094   4.852 -0.5262  0.2508  0.7812
    5SAPS  H10X  639   5.118   1.171   4.850  0.9100  1.8619 -1.8910
    5SAPS  H10Y  640   5.167   0.988   4.852  1.5907 -0.4227  1.3160
    5SAPS  C311  641   5.297   1.100   4.728 -0.1279  0.2845 -0.4408
    5SAPS  H11X  642   5.399   1.066   4.759  0.3757  1.2539 -0.9789
    5SAPS  H11Y  643   5.318   1.205   4.698 -1.0864  1.4284  2.4847
    5SAPS  C312  644   5.251   1.017   4.608  0.1981 -0.4114 -0.5768
    5SAPS  H12X  645   5.146   1.051   4.605 -0.6518 -2.4607  1.8716
    5SAPS  H12Y  646   5.246   0.908   4.630 -2.0230 -0.1964  0.2318
    5SAPS  C313  647   5.315   1.063   4.476  0.8488 -0.4017 -0.2846
    5SAPS  H13X  648   5.325   1.174   4.469 -0.2111 -0.3657 -1.8102
    5SAPS  H13Y  649   5.252   1.030   4.391  4.1379 -0.4733 -2.8962
    5SAPS  C314  650   5.451   0.988   4.460 -0.2726  0.5574 -0.2310
    5SAPS  H14X  651   5.446   0.877   4.458  1.0933  0.4773 -0.9672
    5SAPS  H14Y  652   5.520   1.015   4.543  0.5741  2.5103 -1.4811
    5SAPS  C315  653   5.522   1.027   4.327 -0.0887 -0.1764  0.2097
    5SAPS  H15X  654   5.568   1.128   4.338 -2.2054  0.9228 -0.3448
    5SAPS  H15Y  655   5.443   1.028   4.249  0.8875  1.5207 -0.8315
    5SAPS  C316  656   5.636   0.929   4.278  0.0102  0.5723 -0.4632
    5SAPS  H16X  657   5.590   0.828   4.277  0.5332  0.3216  0.1746
    5SAPS  H16Y  658   5.724   0.928   4.345 -0.2376  0.9278 -0.1258
    5SAPS  C317  659   5.692   0.976   4.143  0.1509 -0.4157 -0.0669
    5SAPS  H17X  660   5.723   1.082   4.148 -0.6640  0.0726 -2.9807
    5SAPS  H17Y  661   5.611   0.968   4.067 -0.7490  0.2653  0.7966
    5SAPS  C318  662   5.818   0.895   4.095  0.4313 -0.3051  0.0278
    5SAPS  H18X  663   5.884   0.934   4.014 -1.0172  1.3526 -0.4240
    5SAPS  H18Y  664   5.787   0.789   4.087  0.8258 -0.4322  0.1540
    5SAPS  H18Z  665   5.886   0.892   4.183  1.9856  0.3678 -1.1042
    6SAPS     N  666   2.263   0.651   6.863 -1.2684 -0.2593 -0.7489
    6SAPS   HN1  667   2.229   0.649   6.962  1.1904  1.3803  0.2168
    6SAPS   HN2  668   2.366   0.652   6.877 -1.4419  2.2504  1.2414
    6SAPS   HN3  669   2.245   0.752   6.843 -0.7112  0.4539  1.8299
    6SAPS   C12  670   2.194   0.579   6.761  0.5848  0.0649 -0.0826
    6SAPS  H12A  671   2.220   0.477   6.785 -0.1645 -0.1957 -0.3382
    6SAPS   C13  672   2.039   0.602   6.758 -0.0161  0.4144  1.1990
    6SAPS  O13A  673   1.987   0.665   6.854  0.1025  0.5852 -0.3064
    6SAPS  O13B  674   1.968   0.531   6.679 -0.0241 -0.2442  0.5963
    6SAPS   C11  675   2.254   0.604   6.617 -0.3227  0.1748 -0.3112
    6SAPS  H11A  676   2.242   0.712   6.596  0.1579  0.1271 -0.8645
    6SAPS  H11B  677   2.193   0.541   6.548 -1.0940 -1.1922  1.5186
    6SAPS     P  678   2.482   0.587   6.486  0.3535  0.2358  0.3568
    6SAPS   O13  679   2.544   0.723   6.487 -0.1087  0.0453 -0.5000
    6SAPS   O14  680   2.586   0.480   6.492 -0.6536 -0.4122  0.3595
    6SAPS   O12  681   2.392   0.570   6.614  0.0075 -0.8103 -0.1954
    6SAPS   O11  682   2.380   0.573   6.372  0.6941  0.2317  0.2250
    6SAPS    C1  683   2.317   0.682   6.297  0.3106  0.4491  0.1787
    6SAPS    HA  684   2.294   0.763   6.369 -0.9644 -1.2600  1.7714
    6SAPS    HB  685   2.397   0.725   6.232  2.4527 -2.9047  0.3482
    6SAPS    C2  686   2.193   0.635   6.215  0.1485  0.0094  0.6397
    6SAPS    HS  687   2.124   0.578   6.281 -1.1865 -2.0801 -2.3620
    6SAPS   O21  688   2.237   0.550   6.104 -0.0513  0.6164 -0.8031
    6SAPS   C21  689   2.143   0.497   6.027  0.0863  0.3570 -0.1897
    6SAPS   O22  690   2.021   0.503   6.049 -0.2674  0.1424 -0.5808
    6SAPS   C22  691   2.215   0.420   5.916 -0.2301 -0.3420 -0.0762
    6SAPS   H2R  692   2.313   0.470   5.907 -1.2429  2.3757  2.2804
    6SAPS   H2S  693   2.219   0.312   5.945  1.5448  0.1605  1.7596
    6SAPS    C3  694   2.113   0.753   6.153 -0.6189  0.0368 -0.0375
    6SAPS    HX  695   2.067   0.809   6.237 -2.0882  0.4114 -1.0485
    6SAPS    HY  696   2.030   0.724   6.085  0.0205  2.4660 -2.0289
    6SAPS   O31  697   2.200   0.849   6.090 -0.1784 -0.0859  0.2494
    6SAPS   C31  698   2.158   0.975   6.079 -0.4664  0.0769 -0.3425
    6SAPS   O32  699   2.046   1.012   6.114  0.1389  0.0881 -0.3535
    6SAPS   C32  700   2.269   1.057   6.014  0.5130 -0.0631 -0.6477
    6SAPS   H2X  701   2.338   0.983   5.969  1.2473  0.1892  0.0429
    6SAPS   H2Y  702   2.330   1.108   6.091 -0.3982 -0.2110  0.1993
    6SAPS   C23  703   2.133   0.421   5.779  0.9864  0.0090  0.2891
    6SAPS   H3R  704   2.039   0.363   5.796  0.3788  0.7875 -0.3102
    6SAPS   H3S  705   2.191   0.369   5.700  2.2155 -0.5411  1.5364
    6SAPS   C24  706   2.075   0.563   5.720  0.0579 -0.3717 -1.0918
    6SAPS   H4R  707   2.004   0.608   5.793 -1.1477 -2.5316 -0.8698
    6SAPS   H4S  708   2.004   0.532   5.640 -2.0261  1.9070 -0.2554
    6SAPS   C25  709   2.186   0.660   5.679 -0.1373  0.1741  0.2317
    6SAPS   H5R  710   2.256   0.684   5.761 -0.3645 -0.1596  0.5244
    6SAPS   C26  711   2.217   0.700   5.553  0.7104 -0.2226 -0.6898
    6SAPS   H6R  712   2.315   0.750   5.545  1.5135 -1.2983  1.5395
    6SAPS   C27  713   2.146   0.666   5.422  0.9130 -0.0364 -0.0846
    6SAPS   H7R  714   2.091   0.747   5.370  0.7711 -1.1742 -1.7751
    6SAPS   H7S  715   2.064   0.592   5.430 -1.2643  2.3473  1.1439
    6SAPS   C28  716   2.241   0.599   5.325  0.5855  0.4771 -0.7240
    6SAPS   H8R  717   2.330   0.558   5.375 -0.2717 -2.7335 -1.5390
    6SAPS   C29  718   2.217   0.570   5.197 -0.1404  0.8130 -0.2927
    6SAPS   H9R  719   2.302   0.530   5.139  1.5386  2.4353  0.9067
    6SAPS  C210  720   2.099   0.600   5.114  0.4333 -0.1974  0.1558
    6SAPS  H10R  721   2.030   0.653   5.183 -0.1827  0.9150 -1.2663
    6SAPS  H10S  722   2.055   0.502   5.084  1.6576 -0.6198 -0.3179
    6SAPS  C211  723   2.135   0.694   5.003 -0.1253 -0.0369 -0.2398
    6SAPS  H11R  724   2.216   0.765   5.027 -0.7328  1.2617 -1.8333
    6SAPS  C212  725   2.098   0.685   4.876 -0.2555  0.0130  0.5710
    6SAPS  H12R  726   2.145   0.752   4.802 -0.3768 -0.1192  0.3725
    6SAPS  C213  727   1.995   0.594   4.826  0.3721 -0.8476  0.2370
    6SAPS  H13R  728   1.944   0.653   4.747 -1.2041  0.3367  2.0621
    6SAPS  H13S  729   1.924   0.567   4.906  0.2659  1.6210  1.0365
    6SAPS  C214  730   2.065   0.466   4.776 -0.3370  0.4373 -0.0709
    6SAPS  H14R  731   2.123   0.407   4.848 -0.3331  2.2435  1.5093
    6SAPS  C215  732   2.057   0.426   4.652 -0.5130  0.5691  0.0062
    6SAPS  H15R  733   2.111   0.335   4.625 -1.2948 -0.0117  0.3590
    6SAPS  C216  734   1.985   0.481   4.536 -0.3997 -1.0340  0.0176
    6SAPS  H16R  735   2.056   0.497   4.452 -1.1808  0.0976 -0.4453
    6SAPS  H16S  736   1.944   0.581   4.564 -0.3223 -1.0231  0.0913
    6SAPS  C217  737   1.886   0.388   4.479  0.3603  0.9340  0.7603
    6SAPS  H17R  738   1.830   0.443   4.401  0.4099  1.8061  1.3290
    6SAPS  H17S  739   1.813   0.348   4.553 -0.9147  1.9092  0.0618
    6SAPS  C218  740   1.952   0.269   4.409  0.3943  0.7495  0.0368
    6SAPS  H18R  741   2.019   0.205   4.470  2.3195  2.0817 -0.5936
    6SAPS  H18S  742   2.021   0.319   4.338 -0.9307  3.4072  0.4866
    6SAPS  C219  743   1.839   0.202   4.335  0.3376  0.3986 -0.0774
    6SAPS  H19R  744   1.777   0.267   4.269 -1.3571 -0.2087  0.8520
    6SAPS  H19S  745   1.764   0.162   4.407  0.2841 -2.6855 -1.6800
    6SAPS  C220  746   1.890   0.085   4.255 -0.2565  0.5323  0.2718
    6SAPS  H20R  747   1.976   0.038   4.307 -1.0467 -0.9416  0.3042
    6SAPS  H20S  748   1.920   0.105   4.150 -1.2963 -0.5692 -0.2545
    6SAPS  H20T  749   1.811   0.007   4.255  0.3030 -0.0413 -0.2616
    6SAPS   C33  750   2.216   1.168   5.923 -0.2767 -1.5445  0.1079
    6SAPS   H3X  751   2.305   1.222   5.886  0.7452 -1.2063  2.8266
    6SAPS   H3Y  752   2.163   1.248   5.979  1.1209  0.2001 -0.9430
    6SAPS   C34  753   2.136   1.114   5.801  0.4941 -0.2226  0.0477
    6SAPS   H4X  754   2.028   1.103   5.827  0.6802  2.1657  2.1278
    6SAPS   H4Y  755   2.185   1.020   5.768  0.4444  0.5660 -2.5125
    6SAPS   C35  756   2.139   1.218   5.689  0.1546 -0.4985 -0.2747
    6SAPS   H5X  757   2.241   1.254   5.664  0.8091 -0.3182  2.4306
    6SAPS   H5Y  758   2.089   1.308   5.730 -0.6051 -1.2299  0.4293
    6SAPS   C36  759   2.069   1.168   5.562  0.1951 -0.2198 -0.7031
    6SAPS   H6X  760   1.960   1.152   5.573 -0.4108  1.9561 -2.6138
    6SAPS   H6Y  761   2.117   1.073   5.529  1.3944 -0.4404  1.5308
    6SAPS   C37  762   2.089   1.270   5.446 -0.1732  0.5102 -0.0988
    6SAPS   H7X  763   2.196   1.295   5.428  0.1251 -0.5225  0.1678
    6SAPS   H7Y  764   2.044   1.370   5.465 -2.2111 -0.1878 -0.9977
    6SAPS   C38  765   2.034   1.216   5.307 -0.3215 -0.3544 -0.3804
    6SAPS   H8X  766   1.926   1.198   5.330  0.2303 -3.6473  0.1301
    6SAPS   H8Y  767   2.064   1.112   5.286 -2.8810 -1.2899  0.1263
    6SAPS   C39  768   2.056   1.306   5.190  0.3059  0.2600 -0.3892
    6SAPS   H9X  769   2.164   1.333   5.183  0.3045  0.1147 -1.1179
    6SAPS   H9Y  770   1.995   1.397   5.206 -0.0471  0.5592 -2.9390
    6SAPS  C310  771   2.022   1.245   5.048 -0.0107 -0.0315  0.3523
    6SAPS  H10X  772   1.913   1.236   5.027 -0.0877 -0.4206  0.8785
    6SAPS  H10Y  773   2.077   1.149   5.036 -1.5423 -0.7716 -1.1971
    6SAPS  C311  774   2.075   1.331   4.940  0.4262 -0.0251  0.2450
    6SAPS  H11X  775   2.186   1.317   4.938  0.4853 -0.0725  2.0729
    6SAPS  H11Y  776   2.057   1.440   4.953 -0.5841  0.4811 -3.9802
    6SAPS  C312  777   2.037   1.284   4.800 -0.2464  0.0551  0.5701
    6SAPS  H12X  778   1.929   1.306   4.784 -0.2553  0.0903  0.6758
    6SAPS  H12Y  779   2.060   1.177   4.783  0.6944  0.3649 -0.1662
    6SAPS  C313  780   2.114   1.362   4.691 -0.6685  0.1646  0.0569
    6SAPS  H13X  781   2.223   1.368   4.711 -0.9008 -0.6625  1.7320
    6SAPS  H13Y  782   2.062   1.460   4.690 -0.5481  0.2635  1.3942
    6SAPS  C314  783   2.090   1.296   4.553  0.0657 -1.4077 -0.2743
    6SAPS  H14X  784   1.981   1.312   4.536 -0.0235 -2.1579 -0.4406
    6SAPS  H14Y  785   2.116   1.190   4.532 -1.3111 -1.6710 -0.7900
    6SAPS  C315  786   2.165   1.379   4.447  0.2654 -0.0164  0.1338
    6SAPS  H15X  787   2.267   1.336   4.438  0.5770  0.3096  1.8131
    6SAPS  H15Y  788   2.177   1.488   4.465 -1.7896  0.4656 -1.0361
    6SAPS  C316  789   2.111   1.364   4.302  0.3453  0.1210 -0.2054
    6SAPS  H16X  790   2.087   1.262   4.267  0.6944  0.7850 -2.5536
    6SAPS  H16Y  791   2.192   1.392   4.230  0.4916  1.1526  0.3353
    6SAPS  C317  792   1.995   1.468   4.269  0.4074 -1.2336 -1.1088
    6SAPS  H17X  793   2.000   1.549   4.344 -1.1248 -0.6936 -1.5393
    6SAPS  H17Y  794   1.895   1.423   4.288  0.2973 -1.1391 -1.4630
    6SAPS  C318  795   1.997   1.527   4.131  0.4021 -0.5214  0.8878
    6SAPS  H18X  796   2.097   1.569   4.106 -0.8516  1.3193 -1.3232
    6SAPS  H18Y  797   1.937   1.620   4.127 -1.7770 -1.9224 -1.8831
    6SAPS  H18Z  798   1.972   1.450   4.055  1.4094 -0.5775  0.5895
    7SAPS     N  799   1.894   3.787   6.676 -0.4021 -0.3500 -0.2294
    7SAPS   HN1  800   1.939   3.783   6.582 -1.8549  2.4785 -1.1687
    7SAPS   HN2  801   1.793   3.767   6.663 -1.1120  1.8634  1.2747
    7SAPS   HN3  802   1.910   3.888   6.696 -1.1662 -0.0586 -1.0837
    7SAPS   C12  803   1.959   3.700   6.777  0.0364 -0.2949 -0.4081
    7SAPS  H12A  804   2.065   3.723   6.781  0.5311 -2.4544  0.4965
    7SAPS   C13  805   1.888   3.693   6.912  0.1634  0.2649 -0.3158
    7SAPS  O13A  806   1.810   3.786   6.948 -0.2151 -0.3006  0.1445
    7SAPS  O13B  807   1.905   3.593   6.992 -0.2771  0.4950  0.3103
    7SAPS   C11  808   1.950   3.551   6.723  0.0016 -0.0630  0.8281
    7SAPS  H11A  809   1.842   3.525   6.718 -0.2266  1.0506 -0.6598
    7SAPS  H11B  810   1.997   3.483   6.797 -0.2724 -0.4289  0.6716
    7SAPS     P  811   2.014   3.399   6.541  0.2905 -0.0146  0.0889
    7SAPS   O13  812   2.132   3.336   6.600 -0.4954 -0.2538 -0.0015
    7SAPS   O14  813   1.887   3.327   6.532 -0.2356 -0.3049  0.1560
    7SAPS   O12  814   1.994   3.546   6.585 -0.2483 -0.2363 -0.8655
    7SAPS   O11  815   2.067   3.423   6.388  0.0642  0.2300 -0.0994
    7SAPS    C1  816   1.982   3.472   6.289  0.8038 -0.4022 -0.3262
    7SAPS    HA  817   1.895   3.404   6.279  1.2221 -0.5970 -3.3437
    7SAPS    HB  818   1.950   3.578   6.304 -1.5072 -0.5606 -3.2559
    7SAPS    C2  819   2.042   3.466   6.148 -0.7123 -0.5407  0.3129
    7SAPS    HS  820   1.956   3.488   6.081  0.9433 -0.3519 -1.8561
    7SAPS   O21  821   2.101   3.340   6.123 -0.2278  0.2534 -0.4106
    7SAPS   C21  822   2.026   3.227   6.105  0.6787 -0.5076  0.6354
    7SAPS   O22  823   1.903   3.237   6.096  0.3141  0.4048  0.5403
    7SAPS   C22  824   2.110   3.106   6.101 -0.0288  0.6526 -0.3754
    7SAPS   H2R  825   2.215   3.141   6.093  0.2405  0.6715  2.4720
    7SAPS   H2S  826   2.112   3.054   6.199  0.9086 -1.0175 -1.2383
    7SAPS    C3  827   2.146   3.582   6.131  0.1976 -0.2520  0.6855
    7SAPS    HX  828   2.220   3.572   6.213  2.2715 -0.1686 -1.0585
    7SAPS    HY  829   2.093   3.678   6.141 -0.9746 -0.6447 -1.1859
    7SAPS   O31  830   2.213   3.570   6.006 -0.2469 -0.1219 -0.3561
    7SAPS   C31  831   2.149   3.626   5.907 -0.0012  0.1231  0.5015
    7SAPS   O32  832   2.041   3.681   5.905 -0.0109 -0.2247  0.3748
    7SAPS   C32  833   2.245   3.615   5.784 -0.5139  0.6090  0.1248
    7SAPS   H2X  834   2.292   3.514   5.784 -0.0036  0.7976  2.3267
    7SAPS   H2Y  835   2.333   3.682   5.798 -1.2557  1.7640 -0.6227
    7SAPS   C23  836   2.073   3.017   5.981  0.0676 -1.1464 -0.3564
    7SAPS   H3R  837   1.979   2.966   6.012  0.1400 -0.6859  0.6416
    7SAPS   H3S  838   2.150   2.938   5.969  4.5885  2.4314  2.2041
    7SAPS   C24  839   2.058   3.091   5.847 -0.4636 -0.0262  0.1848
    7SAPS   H4R  840   1.967   3.154   5.853 -0.0019  0.7855 -0.8981
    7SAPS   H4S  841   2.029   3.020   5.767  1.4980 -0.9286  0.2116
    7SAPS   C25  842   2.169   3.175   5.803  0.2160 -0.7515 -0.0484
    7SAPS   H5R  843   2.162   3.278   5.840 -1.6024 -0.2825 -1.5522
    7SAPS   C26  844   2.258   3.143   5.706  0.3985 -0.0180  0.0995
    7SAPS   H6R  845   2.330   3.220   5.677 -0.5374  0.4469 -1.0694
    7SAPS   C27  846   2.274   3.017   5.624  0.5279 -0.2856 -0.9413
    7SAPS   H7R  847   2.193   2.947   5.655 -0.7368  1.6081  0.2483
    7SAPS   H7S  848   2.375   2.983   5.654 -0.0192  0.0715  1.4803
    7SAPS   C28  849   2.257   3.053   5.481 -0.4275 -0.4697  0.4526
    7SAPS   H8R  850   2.158   3.090   5.450 -0.8756 -2.4246 -0.5883
    7SAPS   C29  851   2.349   3.054   5.386  0.2634  0.5057  0.2383
    7SAPS   H9R  852   2.318   3.077   5.283  0.3074 -1.8521 -0.3742
    7SAPS  C210  853   2.490   3.017   5.406 -0.2938 -0.3423 -0.5902
    7SAPS  H10R  854   2.522   3.013   5.512 -1.3573  2.0001 -0.1098
    7SAPS  H10S  855   2.549   3.101   5.364  2.4755 -1.8341  0.0509
    7SAPS  C211  856   2.512   2.886   5.331  0.3351  0.0934  0.2400
    7SAPS  H11R  857   2.472   2.805   5.393 -2.2230  0.5830 -0.6701
    7SAPS  C212  858   2.570   2.857   5.213 -0.2809  0.5635  0.6936
    7SAPS  H12R  859   2.575   2.751   5.183  1.1492  0.6027  0.7147
    7SAPS  C213  860   2.621   2.955   5.113 -0.3125 -0.6972  0.0573
    7SAPS  H13R  861   2.718   2.992   5.152 -0.8792 -1.6869  2.5780
    7SAPS  H13S  862   2.545   3.036   5.104  0.0942 -0.2514  0.6045
    7SAPS  C214  863   2.641   2.898   4.977 -0.5602  0.4547  0.0218
    7SAPS  H14R  864   2.582   2.806   4.964 -0.5428  0.3160  0.8729
    7SAPS  C215  865   2.706   2.957   4.872  0.0190  0.2768  0.2757
    7SAPS  H15R  866   2.721   2.908   4.775 -1.2616 -2.1662  1.2257
    7SAPS  C216  867   2.781   3.081   4.898 -0.1292 -0.4661  0.7207
    7SAPS  H16R  868   2.874   3.061   4.954  0.2169  0.2589  0.4074
    7SAPS  H16S  869   2.721   3.153   4.957 -0.5550 -1.4645  1.5418
    7SAPS  C217  870   2.817   3.158   4.767  0.3859  0.0781 -0.5536
    7SAPS  H17R  871   2.882   3.097   4.700  1.7500  0.0920  0.7108
    7SAPS  H17S  872   2.886   3.243   4.789  1.2240 -0.8928  0.6795
    7SAPS  C218  873   2.691   3.221   4.701  0.3104 -0.1719 -0.3132
    7SAPS  H18R  874   2.612   3.150   4.666  0.5448  0.0337 -1.2890
    7SAPS  H18S  875   2.739   3.254   4.606  3.4676 -0.3296  1.1167
    7SAPS  C219  876   2.629   3.350   4.770 -0.2862 -0.0797 -0.0174
    7SAPS  H19R  877   2.630   3.350   4.881 -2.3954  0.9415  0.0557
    7SAPS  H19S  878   2.518   3.349   4.765 -0.2803 -0.8175 -0.1404
    7SAPS  C220  879   2.668   3.492   4.718  0.7324  0.3408  0.1443
    7SAPS  H20R  880   2.778   3.501   4.708  0.8636  0.9538  1.7691
    7SAPS  H20S  881   2.635   3.579   4.779  1.9444  1.0433 -0.1665
    7SAPS  H20T  882   2.635   3.499   4.612  0.7955  2.7696  0.2311
    7SAPS   C33  883   2.185   3.636   5.639 -0.2472  0.8047 -0.1528
    7SAPS   H3X  884   2.243   3.722   5.599  2.1311 -1.0702 -0.9980
    7SAPS   H3Y  885   2.076   3.652   5.653 -1.1942 -3.8187 -0.7519
    7SAPS   C34  886   2.198   3.512   5.549 -0.6113  0.3624  0.4411
    7SAPS   H4X  887   2.158   3.426   5.608  1.1698 -0.4225  0.5842
    7SAPS   H4Y  888   2.307   3.507   5.529 -0.2949  2.0023  1.5858
    7SAPS   C35  889   2.121   3.505   5.417 -0.0987  0.1110  0.8659
    7SAPS   H5X  890   2.149   3.589   5.349  0.1073 -1.2159 -0.7635
    7SAPS   H5Y  891   2.012   3.523   5.428 -0.5902 -1.9989 -0.0945
    7SAPS   C36  892   2.145   3.374   5.332 -0.0316  0.1896 -0.7298
    7SAPS   H6X  893   2.137   3.289   5.403  0.1677  1.6106  1.0427
    7SAPS   H6Y  894   2.250   3.354   5.303  0.4308  0.2043  0.8628
    7SAPS   C37  895   2.054   3.348   5.209 -0.6387  0.3801 -0.1768
    7SAPS   H7X  896   2.059   3.440   5.147 -0.4307  1.3903  1.2812
    7SAPS   H7Y  897   1.950   3.336   5.246 -0.7487  3.8087  1.0431
    7SAPS   C38  898   2.107   3.224   5.122 -0.7265 -0.7256  0.1766
    7SAPS   H8X  899   2.088   3.129   5.176  1.6592 -0.3863  1.7150
    7SAPS   H8Y  900   2.217   3.229   5.107 -0.8622  0.9104 -0.5720
    7SAPS   C39  901   2.036   3.221   4.988  0.5170  0.0900  0.8620
    7SAPS   H9X  902   2.057   3.320   4.941 -0.3437 -0.3644 -0.5563
    7SAPS   H9Y  903   1.925   3.216   4.989  0.4222  0.2750 -1.7495
    7SAPS  C310  904   2.085   3.114   4.884 -0.2429 -0.4541  0.2552
    7SAPS  H10X  905   2.016   3.103   4.798 -0.5085 -0.6121  0.4905
    7SAPS  H10Y  906   2.093   3.014   4.931 -3.1193 -0.9683 -0.1804
    7SAPS  C311  907   2.232   3.123   4.828  1.1209 -0.1318 -0.7812
    7SAPS  H11X  908   2.307   3.105   4.908  0.9106 -0.3628 -0.6349
    7SAPS  H11Y  909   2.259   3.223   4.789  0.3032  0.9948  1.3181
    7SAPS  C312  910   2.249   3.027   4.708 -0.4870  0.0573 -0.0800
    7SAPS  H12X  911   2.175   3.047   4.628  2.3612 -2.0729 -3.5538
    7SAPS  H12Y  912   2.228   2.924   4.745 -1.8332  0.7425  1.1557
    7SAPS  C313  913   2.390   3.029   4.656  0.4964 -0.0357 -0.2581
    7SAPS  H13X  914   2.451   2.983   4.737 -1.8816 -1.0943  1.0082
    7SAPS  H13Y  915   2.424   3.131   4.629  1.3075  0.3316  1.9430
    7SAPS  C314  916   2.406   2.938   4.527  0.3953 -0.4300  0.0674
    7SAPS  H14X  917   2.339   2.963   4.441  1.4300 -1.8549 -1.2039
    7SAPS  H14Y  918   2.371   2.837   4.555 -1.7797  0.4053  0.6018
    7SAPS  C315  919   2.551   2.941   4.484  0.6119 -0.0630 -0.1195
    7SAPS  H15X  920   2.611   2.907   4.572 -1.6173 -2.0177  0.7566
    7SAPS  H15Y  921   2.580   3.043   4.452 -0.3146  0.2833  0.1050
    7SAPS  C316  922   2.586   2.837   4.375  0.4019 -0.4127 -0.7842
    7SAPS  H16X  923   2.514   2.862   4.294  1.1372  0.3916 -1.2062
    7SAPS  H16Y  924   2.577   2.732   4.411  0.0524  0.2466  1.1722
    7SAPS  C317  925   2.729   2.849   4.332 -0.6202 -0.0673  1.2043
    7SAPS  H17X  926   2.747   2.951   4.292 -1.4950  0.0572  1.1077
    7SAPS  H17Y  927   2.756   2.787   4.243  0.7058  1.7029  0.3096
    7SAPS  C318  928   2.840   2.827   4.431 -0.3379  0.4085 -0.0773
    7SAPS  H18X  929   2.842   2.725   4.473 -1.4618  1.0970  1.7595
    7SAPS  H18Y  930   2.828   2.911   4.503 -2.3912 -0.1647  0.2855
    7SAPS  H18Z  931   2.940   2.849   4.386  0.9141 -1.0470  1.8304
    8SAPS     N  932   2.660   5.354   6.937  0.2583  0.3041 -0.3439
    8SAPS   HN1  933   2.761   5.332   6.923  0.2718 -0.5092  0.8606
    8SAPS   HN2  934   2.627   5.333   7.034 -2.6865  0.7140 -1.1704
    8SAPS   HN3  935   2.619   5.288   6.868  0.0501 -1.2040  1.1518
    8SAPS   C12  936   2.614   5.495   6.909 -0.4501 -0.1478 -0.5124
    8SAPS  H12A  937   2.629   5.496   6.802 -2.0000 -0.8547 -0.7590
    8SAPS   C13  938   2.469   5.539   6.951 -0.2366  0.1342 -0.9295
    8SAPS  O13A  939   2.397   5.458   7.017 -0.3375  0.1579  0.2312
    8SAPS  O13B  940   2.426   5.652   6.924 -0.1832 -0.4152 -0.7570
    8SAPS   C11  941   2.719   5.592   6.961 -0.1329  0.3804  0.5921
    8SAPS  H11A  942   2.729   5.570   7.069  0.2883 -2.6735  0.0134
    8SAPS  H11B  943   2.686   5.698   6.964 -1.0847  0.0754  1.7675
    8SAPS     P  944   2.899   5.678   6.792 -0.2338 -0.0461  0.5682
    8SAPS   O13  945   2.939   5.799   6.871  0.2686  0.3207  0.1863
    8SAPS   O14  946   2.993   5.611   6.697  0.0415  0.7588  0.0009
    8SAPS   O12  947   2.851   5.570   6.898  0.4429 -0.3361  0.3179
    8SAPS   O11  948   2.758   5.708   6.723 -0.0621  0.1815  0.4367
    8SAPS    C1  949   2.735   5.651   6.596  0.6207 -0.2172  0.3030
    8SAPS    HA  950   2.773   5.548   6.578  0.3405  0.2491 -3.8912
    8SAPS    HB  951   2.626   5.631   6.588  0.9201 -1.3308 -1.4507
    8SAPS    C2  952   2.781   5.741   6.477 -0.7156  0.0866 -0.4337
    8SAPS    HS  953   2.891   5.739   6.470 -0.6028 -1.6724  1.2181
    8SAPS   O21  954   2.739   5.873   6.509 -0.2206 -0.1549 -0.2285
    8SAPS   C21  955   2.824   5.962   6.555  0.8593  0.1747  1.4955
    8SAPS   O22  956   2.945   5.945   6.556 -0.0011  0.2653 -0.2785
    8SAPS   C22  957   2.742   6.083   6.609 -0.4053  0.6414  0.1417
    8SAPS   H2R  958   2.704   6.145   6.525  0.7715 -0.7872 -1.5200
    8SAPS   H2S  959   2.649   6.043   6.654  0.2753 -1.9049 -0.5375
    8SAPS    C3  960   2.728   5.701   6.337 -0.1470  0.1431  0.1113
    8SAPS    HX  961   2.627   5.659   6.357 -0.1162 -0.1529 -0.3381
    8SAPS    HY  962   2.796   5.619   6.307 -0.3323  0.1150 -0.2371
    8SAPS   O31  963   2.715   5.809   6.244 -0.2926  0.0169  0.0185
    8SAPS   C31  964   2.607   5.883   6.248  0.9871 -0.7717  0.0794
    8SAPS   O32  965   2.507   5.869   6.322 -0.3932  0.2413 -0.0906
    8SAPS   C32  966   2.616   5.992   6.148  0.0254  0.0755  0.0867
    8SAPS   H2X  967   2.529   6.062   6.151  0.3236  0.4178  2.9255
    8SAPS   H2Y  968   2.614   5.933   6.054 -3.2179  0.1172  0.0084
    8SAPS   C23  969   2.813   6.162   6.715 -0.6260  0.1317 -0.2029
    8SAPS   H3R  970   2.851   6.091   6.792 -0.1947  1.3382  0.7303
    8SAPS   H3S  971   2.744   6.232   6.769  0.4011  1.2080 -0.2404
    8SAPS   C24  972   2.933   6.240   6.656  0.6449 -0.1041  0.1139
    8SAPS   H4R  973   3.004   6.168   6.610 -0.8223  0.0287 -2.5625
    8SAPS   H4S  974   2.979   6.295   6.741 -1.5792  1.8548  0.1792
    8SAPS   C25  975   2.891   6.351   6.562 -0.0745  0.5688 -0.6305
    8SAPS   H5R  976   2.830   6.428   6.611 -2.5423 -0.9395 -1.1822
    8SAPS   C26  977   2.919   6.360   6.430 -0.4228 -0.5202  0.0599
    8SAPS   H6R  978   2.873   6.446   6.380 -2.2731 -2.0654 -1.0013
    8SAPS   C27  979   2.995   6.264   6.355  0.2329  0.4252  0.5269
    8SAPS   H7R  980   2.950   6.257   6.254 -0.0639  2.0985  0.5111
    8SAPS   H7S  981   2.983   6.164   6.401 -2.6336 -0.2278 -1.4171
    8SAPS   C28  982   3.131   6.315   6.330  0.3022 -0.0143 -0.1112
    8SAPS   H8R  983   3.163   6.413   6.369  1.0246 -0.1886 -0.2638
    8SAPS   C29  984   3.225   6.229   6.271 -0.0615 -0.0335 -0.0732
    8SAPS   H9R  985   3.320   6.277   6.243 -0.6033  0.1211 -1.6993
    8SAPS  C210  986   3.195   6.089   6.212 -0.3299  0.2595  0.7507
    8SAPS  H10R  987   3.245   6.089   6.113 -2.9771  0.6288 -0.6624
    8SAPS  H10S  988   3.090   6.065   6.186  1.2657 -4.8751 -2.5792
    8SAPS  C211  989   3.264   5.972   6.286  0.4800  0.2997 -0.6630
    8SAPS  H11R  990   3.206   5.923   6.365  0.7723  0.8774 -0.0884
    8SAPS  C212  991   3.384   5.917   6.265 -0.0538 -0.1853  1.0047
    8SAPS  H12R  992   3.419   5.827   6.318 -0.7424 -0.7003  0.6010
    8SAPS  C213  993   3.487   5.959   6.166  0.9469 -0.1534 -0.6010
    8SAPS  H13R  994   3.580   5.908   6.200  1.8064  1.1265 -0.9577
    8SAPS  H13S  995   3.505   6.068   6.175 -1.4157  0.1328  2.0831
    8SAPS  C214  996   3.459   5.928   6.021 -0.5017  0.9240 -0.3827
    8SAPS  H14R  997   3.368   5.976   5.984 -0.5166  2.7022  1.7394
    8SAPS  C215  998   3.512   5.821   5.959 -0.1329 -0.2212 -0.0683
    8SAPS  H15R  999   3.481   5.805   5.855  0.1658  2.5942 -0.6617
    8SAPS  C216 1000   3.613   5.715   6.009 -0.1184 -0.0273  0.0399
    8SAPS  H16R 1001   3.613   5.717   6.120  1.3911  1.0701  0.0524
    8SAPS  H16S 1002   3.716   5.733   5.972 -0.2256  1.1254  0.2873
    8SAPS  C217 1003   3.578   5.576   5.966  0.1324 -0.3258 -0.7115
    8SAPS  H17R 1004   3.478   5.541   6.002 -0.4313  0.1165 -1.8132
    8SAPS  H17S 1005   3.655   5.511   6.014 -0.2631  0.3391  0.8710
    8SAPS  C218 1006   3.589   5.553   5.813  0.5717 -0.3624  0.4027
    8SAPS  H18R 1007   3.628   5.641   5.758  1.6561  0.0404  1.7773
    8SAPS  H18S 1008   3.487   5.553   5.768  1.2104  2.0265 -1.2511
    8SAPS  C219 1009   3.676   5.429   5.773  0.1337  0.3525 -1.0505
    8SAPS  H19R 1010   3.626   5.343   5.822 -1.7217  1.5606 -0.6989
    8SAPS  H19S 1011   3.774   5.446   5.823  0.1436 -2.2421 -0.0539
    8SAPS  C220 1012   3.699   5.397   5.631  0.2516 -0.1921  0.0752
    8SAPS  H20R 1013   3.738   5.496   5.599 -1.1291  1.3248  2.7375
    8SAPS  H20S 1014   3.601   5.373   5.585 -1.1542  0.3386  2.5857
    8SAPS  H20T 1015   3.769   5.311   5.624  0.0779 -0.2081 -1.7567
    8SAPS   C33 1016   2.739   6.080   6.129  0.4041 -0.3288  0.0312
    8SAPS   H3X 1017   2.835   6.024   6.132 -0.1885 -1.4423 -1.0537
    8SAPS   H3Y 1018   2.750   6.154   6.211 -0.8019 -0.0536 -0.0427
    8SAPS   C34 1019   2.744   6.160   5.999 -0.9968  0.2804  0.1045
    8SAPS   H4X 1020   2.788   6.257   6.029  1.8711 -1.4018  1.8866
    8SAPS   H4Y 1021   2.640   6.182   5.967 -0.4953  3.9777  0.6135
    8SAPS   C35 1022   2.834   6.090   5.892 -0.1351  0.4735 -0.2272
    8SAPS   H5X 1023   2.827   5.979   5.893 -1.0576  0.2877 -4.7274
    8SAPS   H5Y 1024   2.936   6.121   5.921 -1.1612  1.1759  2.9985
    8SAPS   C36 1025   2.787   6.140   5.758  0.0651  0.6103 -0.5528
    8SAPS   H6X 1026   2.794   6.250   5.745 -4.0216  0.9966 -0.8224
    8SAPS   H6Y 1027   2.678   6.123   5.746  0.0406 -0.0633  0.5497
    8SAPS   C37 1028   2.867   6.073   5.640 -0.5329  0.9144 -0.8509
    8SAPS   H7X 1029   2.826   5.974   5.611 -1.3841  0.8416  0.5260
    8SAPS   H7Y 1030   2.975   6.081   5.665 -0.2135 -1.1831 -1.3665
    8SAPS   C38 1031   2.847   6.153   5.515 -1.3422 -0.3310 -0.0366
    8SAPS   H8X 1032   2.880   6.257   5.534  1.6409 -1.0189 -0.9116
    8SAPS   H8Y 1033   2.738   6.133   5.507 -1.1267 -1.6883  0.1358
    8SAPS   C39 1034   2.917   6.089   5.391 -0.2385  0.2446 -0.0076
    8SAPS   H9X 1035   2.896   5.981   5.384 -0.0904  0.2778 -1.1331
    8SAPS   H9Y 1036   3.027   6.105   5.395  0.0037 -0.5025 -2.3073
    8SAPS  C310 1037   2.867   6.145   5.252  0.3587  0.3080  0.6432
    8SAPS  H10X 1038   2.865   6.256   5.259  1.5210  0.4366 -0.6070
    8SAPS  H10Y 1039   2.766   6.104   5.231  0.2796  0.3418  0.9521
    8SAPS  C311 1040   2.950   6.108   5.127  0.5782  0.0963 -0.5411
    8SAPS  H11X 1041   2.972   5.999   5.130  0.5212  0.1142  0.9373
    8SAPS  H11Y 1042   3.050   6.157   5.129  0.4436  0.4376  2.8287
    8SAPS  C312 1043   2.877   6.148   5.003  0.5393 -0.0455  1.1014
    8SAPS  H12X 1044   2.879   6.258   4.986 -0.5035  0.2219  2.5014
    8SAPS  H12Y 1045   2.772   6.113   5.012  0.4763 -1.2014 -2.4435
    8SAPS  C313 1046   2.937   6.089   4.878 -0.3132 -0.2821  0.0958
    8SAPS  H13X 1047   2.935   5.978   4.879  0.6182 -0.3452 -1.4556
    8SAPS  H13Y 1048   3.047   6.106   4.879 -0.0410 -1.8199 -0.1582
    8SAPS  C314 1049   2.878   6.132   4.741  0.0605 -0.2769  0.6721
    8SAPS  H14X 1050   2.953   6.128   4.659 -1.1978 -2.2919 -0.4742
    8SAPS  H14Y 1051   2.837   6.235   4.741 -0.2811 -0.3987  1.7713
    8SAPS  C315 1052   2.777   6.027   4.694 -0.3041 -0.4068  0.3484
    8SAPS  H15X 1053   2.704   6.010   4.775 -1.9144  1.9608 -0.4744
    8SAPS  H15Y 1054   2.822   5.931   4.664 -0.3307  0.3321 -2.3208
    8SAPS  C316 1055   2.697   6.089   4.572 -0.0685  0.4524  0.4250
    8SAPS  H16X 1056   2.651   6.185   4.604 -2.6270 -1.1277  1.7981
    8SAPS  H16Y 1057   2.611   6.020   4.570  0.6500 -0.5438  1.9889
    8SAPS  C317 1058   2.781   6.081   4.440  0.2953 -0.4992 -0.1049
    8SAPS  H17X 1059   2.822   5.978   4.444  0.6015 -0.3251  2.1325
    8SAPS  H17Y 1060   2.866   6.152   4.450  3.5999 -4.3704  2.2427
    8SAPS  C318 1061   2.699   6.118   4.311  0.4318 -0.2816  0.4681
    8SAPS  H18X 1062   2.625   6.036   4.295 -0.6308  0.5411  1.0874
    8SAPS  H18Y 1063   2.774   6.123   4.229 -0.6195  0.4871 -0.4878
    8SAPS  H18Z 1064   2.652   6.218   4.310  2.0038  0.4922  1.0293
    9SAPS     N 1065   0.463   2.022   6.594 -0.7957  0.4163  0.3505
    9SAPS   HN1 1066   0.433   2.041   6.692 -1.8062  0.4162  0.0549
    9SAPS   HN2 1067   0.542   2.086   6.575 -0.7850  0.4240  0.4236
    9SAPS   HN3 1068   0.384   2.027   6.526  0.4069 -3.1065 -1.5107
    9SAPS   C12 1069   0.517   1.875   6.591 -0.2745 -0.2944  0.2688
    9SAPS  H12A 1070   0.613   1.879   6.640 -0.9958 -2.1433  2.0051
    9SAPS   C13 1071   0.440   1.776   6.678  0.7954  0.8438 -0.2165
    9SAPS  O13A 1072   0.349   1.819   6.757 -0.2168  0.0985 -0.4545
    9SAPS  O13B 1073   0.486   1.660   6.692 -0.1825 -0.2771  0.5510
    9SAPS   C11 1074   0.521   1.813   6.451 -0.2985 -0.0888  0.7067
    9SAPS  H11A 1075   0.430   1.796   6.390  0.3559 -2.5469  0.2838
    9SAPS  H11B 1076   0.580   1.718   6.456  2.3708  1.4679  0.7188
    9SAPS     P 1077   0.708   1.858   6.268 -0.0739  0.0303  0.2241
    9SAPS   O13 1078   0.757   1.976   6.188 -0.6918  0.4309 -0.7096
    9SAPS   O14 1079   0.811   1.777   6.341  0.5245  0.2373 -0.1569
    9SAPS   O12 1080   0.608   1.904   6.381 -0.3720 -0.6732 -0.2748
    9SAPS   O11 1081   0.613   1.770   6.173 -0.2812 -0.0303 -0.0814
    9SAPS    C1 1082   0.633   1.626   6.162  1.1954  0.1594 -0.2138
    9SAPS    HA 1083   0.670   1.585   6.259 -0.7248 -1.6240 -0.1563
    9SAPS    HB 1084   0.534   1.576   6.155  2.2700 -2.3368  0.9187
    9SAPS    C2 1085   0.720   1.587   6.043 -0.4527  0.1340  0.4661
    9SAPS    HS 1086   0.825   1.618   6.065  1.0215 -1.8700 -2.8658
    9SAPS   O21 1087   0.657   1.649   5.930 -0.4648  0.5271 -0.2410
    9SAPS   C21 1088   0.730   1.748   5.873  0.5631 -0.1539 -0.3798
    9SAPS   O22 1089   0.839   1.786   5.914 -0.2826  0.1897  0.2892
    9SAPS   C22 1090   0.654   1.810   5.750 -0.3518  0.2050 -0.3585
    9SAPS   H2R 1091   0.580   1.737   5.714  1.9724 -3.3834  1.4813
    9SAPS   H2S 1092   0.602   1.902   5.785 -1.2643 -0.5919  0.4326
    9SAPS    C3 1093   0.711   1.431   6.028 -0.4443 -0.2028 -0.0612
    9SAPS    HX 1094   0.610   1.409   5.987 -0.4685 -0.8217  0.3163
    9SAPS    HY 1095   0.719   1.376   6.124 -1.1807  0.4830  0.4093
    9SAPS   O31 1096   0.816   1.383   5.932  0.8059 -0.3254 -0.2043
    9SAPS   C31 1097   0.913   1.310   5.980  0.1184 -0.6907 -0.3704
    9SAPS   O32 1098   0.937   1.289   6.101 -0.6518  0.5972  0.2131
    9SAPS   C32 1099   0.994   1.251   5.868  0.4659 -0.3078  0.3324
    9SAPS   H2X 1100   0.946   1.276   5.771 -1.0892 -0.7207  0.9645
    9SAPS   H2Y 1101   0.992   1.140   5.880  1.0529 -0.3284  0.2837
    9SAPS   C23 1102   0.761   1.853   5.641  0.0791 -0.1915 -0.2864
    9SAPS   H3R 1103   0.842   1.913   5.688  1.3182 -0.6353 -1.7611
    9SAPS   H3S 1104   0.716   1.930   5.575 -0.0432  0.9707  1.1048
    9SAPS   C24 1105   0.805   1.732   5.561  0.2211  0.1474  0.8270
    9SAPS   H4R 1106   0.855   1.650   5.618  2.0256  1.2029  0.8323
    9SAPS   H4S 1107   0.889   1.766   5.496 -0.5397  1.4126  0.4784
    9SAPS   C25 1108   0.686   1.673   5.488 -0.2818 -0.2483  0.3396
    9SAPS   H5R 1109   0.613   1.609   5.540 -0.2465 -1.7318 -1.3371
    9SAPS   C26 1110   0.666   1.684   5.350 -0.3926 -0.9147 -0.9619
    9SAPS   H6R 1111   0.581   1.632   5.303 -1.4072  0.6324 -0.9062
    9SAPS   C27 1112   0.755   1.760   5.255  0.0207  0.1975  0.0198
    9SAPS   H7R 1113   0.857   1.715   5.253  0.3175  0.8388  0.4948
    9SAPS   H7S 1114   0.776   1.860   5.297 -0.1794  0.2975 -0.1157
    9SAPS   C28 1115   0.696   1.776   5.122 -0.6002 -0.5661  0.0707
    9SAPS   H8R 1116   0.637   1.866   5.102 -2.2706 -1.9768 -1.6511
    9SAPS   C29 1117   0.717   1.709   5.007 -0.2684 -0.0635  0.2188
    9SAPS   H9R 1118   0.674   1.743   4.912 -0.7995 -1.0409  0.0902
    9SAPS  C210 1119   0.806   1.590   5.009 -0.1614  0.1217  0.1799
    9SAPS  H10R 1120   0.764   1.510   5.073 -0.4025 -0.5037 -0.7449
    9SAPS  H10S 1121   0.901   1.611   5.064 -0.4491 -2.1869  1.7084
    9SAPS  C211 1122   0.826   1.535   4.873  0.3664  0.1968  0.0282
    9SAPS  H11R 1123   0.744   1.477   4.828 -0.5888 -0.7637  2.8211
    9SAPS  C212 1124   0.937   1.547   4.804 -0.8898  0.1703  0.1807
    9SAPS  H12R 1125   0.945   1.494   4.708  3.1503  1.9001 -0.6332
    9SAPS  C213 1126   1.059   1.632   4.832 -0.1932  0.3579 -0.6494
    9SAPS  H13R 1127   1.137   1.567   4.878  0.1337  2.3320  1.7989
    9SAPS  H13S 1128   1.047   1.706   4.915 -1.2539 -0.6323  0.1052
    9SAPS  C214 1129   1.106   1.718   4.719 -0.3241 -0.4678 -0.3214
    9SAPS  H14R 1130   1.213   1.715   4.695 -0.5033 -1.0792 -1.1086
    9SAPS  C215 1131   1.033   1.793   4.637 -0.9441 -0.4097  0.8780
    9SAPS  H15R 1132   1.079   1.851   4.555 -2.3984 -1.3172 -0.6361
    9SAPS  C216 1133   0.881   1.822   4.654  0.2371 -0.3647  0.0821
    9SAPS  H16R 1134   0.873   1.933   4.664  5.2554  0.2041  0.6258
    9SAPS  H16S 1135   0.852   1.784   4.754 -1.4629 -0.7376 -0.5230
    9SAPS  C217 1136   0.786   1.776   4.533  0.2322  0.5406 -0.7475
    9SAPS  H17R 1137   0.855   1.750   4.450 -1.4684  0.9445 -2.3275
    9SAPS  H17S 1138   0.732   1.867   4.501  0.3225  1.1705  0.7596
    9SAPS  C218 1139   0.677   1.680   4.571  0.2417 -0.1293 -0.2297
    9SAPS  H18R 1140   0.712   1.593   4.632 -0.4599  0.2153  0.6869
    9SAPS  H18S 1141   0.626   1.631   4.485  1.1690  0.3538 -1.0709
    9SAPS  C219 1142   0.560   1.745   4.641  0.4860  0.5002 -0.4443
    9SAPS  H19R 1143   0.498   1.801   4.569 -0.7549  0.4773  0.5729
    9SAPS  H19S 1144   0.592   1.824   4.712 -0.5333 -0.9373  1.7292
    9SAPS  C220 1145   0.477   1.639   4.721  0.6308  0.4977  0.3348
    9SAPS  H20R 1146   0.540   1.583   4.793  1.2810  0.2017 -0.4326
    9SAPS  H20S 1147   0.431   1.560   4.658 -0.7525 -1.0918  3.1524
    9SAPS  H20T 1148   0.392   1.678   4.780 -0.8454  0.3942 -1.6300
    9SAPS   C33 1149   1.146   1.301   5.870 -0.4637  0.2375 -0.1738
    9SAPS   H3X 1150   1.210   1.238   5.804  0.1817  3.2653 -2.6587
    9SAPS   H3Y 1151   1.195   1.289   5.969  0.1646  0.1825 -0.4864
    9SAPS   C34 1152   1.163   1.442   5.816 -0.2442  0.2755 -0.1706
    9SAPS   H4X 1153   1.270   1.468   5.800 -0.2770  0.4283 -0.1433
    9SAPS   H4Y 1154   1.108   1.512   5.883 -1.8899 -1.8497  0.7995
    9SAPS   C35 1155   1.104   1.463   5.677  0.1871 -0.3175 -0.1876
    9SAPS   H5X 1156   1.130   1.564   5.640  1.2895  0.1308  1.6763
    9SAPS   H5Y 1157   0.993   1.463   5.682  0.1557 -2.3169  0.0280
    9SAPS   C36 1158   1.141   1.358   5.571 -0.1684  0.6846 -0.3081
    9SAPS   H6X 1159   1.099   1.256   5.586 -0.0940  0.4612 -1.5053
    9SAPS   H6Y 1160   1.249   1.333   5.568 -0.5141 -1.0791  0.4748
    9SAPS   C37 1161   1.107   1.406   5.436  0.1809 -0.0743 -0.1479
    9SAPS   H7X 1162   1.156   1.494   5.389 -1.5102 -0.1894 -2.2606
    9SAPS   H7Y 1163   1.000   1.437   5.440  0.5935  1.2518  1.9281
    9SAPS   C38 1164   1.124   1.291   5.330  0.0412  0.0813 -0.7552
    9SAPS   H8X 1165   1.046   1.214   5.347  1.8286 -1.3092  1.7432
    9SAPS   H8Y 1166   1.226   1.247   5.324  0.0671 -0.4487  2.2223
    9SAPS   C39 1167   1.103   1.341   5.177 -0.2546 -0.1965 -0.2233
    9SAPS   H9X 1168   1.182   1.412   5.144  1.5304 -2.2084 -0.5460
    9SAPS   H9Y 1169   1.001   1.383   5.169 -0.0772  0.3300  0.2655
    9SAPS  C310 1170   1.124   1.229   5.076  0.1954 -0.3380  0.6329
    9SAPS  H10X 1171   1.020   1.194   5.058 -1.0787  2.9625  0.8394
    9SAPS  H10Y 1172   1.189   1.147   5.113  3.6615  1.3983 -1.0845
    9SAPS  C311 1173   1.186   1.269   4.937  0.4225  0.0790 -0.5503
    9SAPS  H11X 1174   1.293   1.289   4.955  0.4856 -1.3609  0.9569
    9SAPS  H11Y 1175   1.139   1.366   4.909  1.8029  0.7221 -0.6873
    9SAPS  C312 1176   1.158   1.177   4.818  0.0164 -0.5384  0.6135
    9SAPS  H12X 1177   1.048   1.182   4.799  0.4663  1.7367 -1.8667
    9SAPS  H12Y 1178   1.193   1.074   4.841  0.6825 -0.6451 -0.8125
    9SAPS  C313 1179   1.222   1.222   4.690 -0.2664  0.3214  0.0799
    9SAPS  H13X 1180   1.322   1.263   4.715  1.1161 -2.8537  0.1913
    9SAPS  H13Y 1181   1.159   1.305   4.651  1.0551  0.4578 -1.9166
    9SAPS  C314 1182   1.242   1.113   4.587 -0.3185  0.3789  0.7862
    9SAPS  H14X 1183   1.148   1.055   4.576 -0.0154 -0.1390  0.9253
    9SAPS  H14Y 1184   1.323   1.048   4.627 -1.4066  0.5429  3.5089
    9SAPS  C315 1185   1.288   1.160   4.445 -0.5636 -0.2367  0.1619
    9SAPS  H15X 1186   1.391   1.202   4.446 -0.9918  0.9049 -0.9245
    9SAPS  H15Y 1187   1.221   1.242   4.411  0.4596  1.1982  1.4406
    9SAPS  C316 1188   1.285   1.041   4.345 -0.6332  0.1233  0.6682
    9SAPS  H16X 1189   1.349   0.961   4.386  1.7845  1.3907 -0.4396
    9SAPS  H16Y 1190   1.340   1.066   4.252 -0.2109 -1.1853  0.5527
    9SAPS  C317 1191   1.141   0.993   4.312 -0.0799 -0.0578 -0.0666
    9SAPS  H17X 1192   1.121   1.006   4.203  3.3184  2.6541 -0.5468
    9SAPS  H17Y 1193   1.071   1.065   4.359  2.0489  2.8830 -1.0802
    9SAPS  C318 1194   1.112   0.846   4.353 -0.3149 -1.1674  0.7374
    9SAPS  H18X 1195   1.193   0.775   4.327  1.8824  0.6963  2.0796
    9SAPS  H18Y 1196   1.021   0.810   4.300  0.1279 -1.6404  0.2936
    9SAPS  H18Z 1197   1.103   0.831   4.463  0.2551  0.2899  0.9994
   10SAPS     N 1198   1.961   0.929   6.854 -0.1404 -0.4992  0.1106
   10SAPS   HN1 1199   1.987   0.961   6.949 -2.5453  0.3683  0.5359
   10SAPS   HN2 1200   1.858   0.920   6.839  0.0717 -0.5314 -1.5216
   10SAPS   HN3 1201   1.997   0.832   6.855 -1.1902 -0.9007  0.0034
   10SAPS   C12 1202   2.019   1.017   6.749 -0.5726 -0.4683  0.4095
   10SAPS  H12A 1203   2.008   1.121   6.776 -2.1845  0.5028 -3.3127
   10SAPS   C13 1204   2.172   0.984   6.725 -0.1942 -0.6442  0.4419
   10SAPS  O13A 1205   2.233   0.903   6.801  0.2003 -0.0063 -0.1819
   10SAPS  O13B 1206   2.250   1.042   6.639  0.5363 -0.3866 -0.6297
   10SAPS   C11 1207   1.928   1.006   6.618  0.4219  0.0275  0.6438
   10SAPS  H11A 1208   1.942   0.903   6.578 -2.4562  0.0392 -0.6050
   10SAPS  H11B 1209   1.953   1.081   6.540 -4.3715  1.1225 -0.1369
   10SAPS     P 1210   1.676   0.963   6.569 -0.1369  0.4462  0.0291
   10SAPS   O13 1211   1.688   0.816   6.590  0.3161 -0.0823 -0.5427
   10SAPS   O14 1212   1.547   1.018   6.618 -0.1755  0.0433  0.3391
   10SAPS   O12 1213   1.792   1.032   6.657 -0.6466  0.8837  0.0389
   10SAPS   O11 1214   1.700   1.009   6.422  0.9287  0.2482  0.1278
   10SAPS    C1 1215   1.687   1.146   6.377 -0.4830 -0.3713 -0.2989
   10SAPS    HA 1216   1.706   1.220   6.457 -0.8169  1.2407 -1.6551
   10SAPS    HB 1217   1.761   1.180   6.301  0.8799 -0.5341  0.9048
   10SAPS    C2 1218   1.548   1.173   6.326 -0.0345  0.0248  0.0131
   10SAPS    HS 1219   1.476   1.171   6.410 -1.5922  2.1440 -1.1772
   10SAPS   O21 1220   1.516   1.074   6.221  0.6558 -0.4439  0.5357
   10SAPS   C21 1221   1.384   1.062   6.192 -0.2764  0.2114 -0.6511
   10SAPS   O22 1222   1.302   1.103   6.273  0.6234  0.2052 -0.5360
   10SAPS   C22 1223   1.359   0.972   6.068 -0.7074  0.4753  0.1847
   10SAPS   H2R 1224   1.376   1.031   5.975  1.3688  1.0090  0.8521
   10SAPS   H2S 1225   1.429   0.886   6.073  1.1617  1.9419  0.6093
   10SAPS    C3 1226   1.534   1.321   6.269 -0.3509  0.5127 -0.2865
   10SAPS    HX 1227   1.593   1.380   6.342  0.5618 -0.4645 -0.2021
   10SAPS    HY 1228   1.430   1.359   6.280  0.5551  2.3703  3.2800
   10SAPS   O31 1229   1.597   1.328   6.143  0.7601  0.3394  0.1936
   10SAPS   C31 1230   1.519   1.334   6.044 -0.2139 -0.1106  0.5233
   10SAPS   O32 1231   1.402   1.379   6.043 -0.0020  0.0346 -0.2702
   10SAPS   C32 1232   1.592   1.274   5.922 -0.3453 -0.1818  0.3740
   10SAPS   H2X 1233   1.591   1.163   5.923 -0.3210 -0.1813  0.5792
   10SAPS   H2Y 1234   1.700   1.299   5.924 -0.3101 -0.1415 -1.1659
   10SAPS   C23 1235   1.211   0.930   6.077 -0.0179 -0.5057 -0.4991
   10SAPS   H3R 1236   1.150   1.023   6.075 -1.8660 -1.6856 -2.5008
   10SAPS   H3S 1237   1.189   0.883   6.176  1.5699  0.4064  0.3344
   10SAPS   C24 1238   1.179   0.847   5.953 -0.2490 -0.3874  0.1185
   10SAPS   H4R 1239   1.212   0.742   5.968 -1.6283 -0.7086  1.0551
   10SAPS   H4S 1240   1.248   0.884   5.874  1.6058 -0.2318  1.7526
   10SAPS   C25 1241   1.039   0.844   5.902 -0.2739 -0.0456  0.6776
   10SAPS   H5R 1242   0.957   0.804   5.964  0.0367  2.2202  2.7452
   10SAPS   C26 1243   1.003   0.885   5.774 -0.6197  1.0909 -0.4977
   10SAPS   H6R 1244   0.896   0.881   5.751 -0.7267  1.2426 -0.0471
   10SAPS   C27 1245   1.091   0.943   5.666  0.6208  0.4906 -0.7349
   10SAPS   H7R 1246   1.163   1.007   5.722  0.7620  1.6669 -2.2077
   10SAPS   H7S 1247   1.035   1.007   5.595  1.2818  2.2679  0.2876
   10SAPS   C28 1248   1.162   0.832   5.596  0.1890  0.2768 -0.5140
   10SAPS   H8R 1249   1.236   0.772   5.650 -0.4852 -0.1620 -0.0733
   10SAPS   C29 1250   1.150   0.792   5.469 -0.6925 -0.0059  0.1518
   10SAPS   H9R 1251   1.222   0.718   5.430 -2.0985 -1.1191 -0.4262
   10SAPS  C210 1252   1.060   0.855   5.373 -0.6009  0.0900  0.5119
   10SAPS  H10R 1253   1.101   0.936   5.310 -1.8179  0.9607  0.8107
   10SAPS  H10S 1254   0.971   0.898   5.424  0.0507  2.1708 -0.0191
   10SAPS  C211 1255   1.011   0.741   5.286  0.5056  0.3522 -0.5368
   10SAPS  H11R 1256   0.956   0.661   5.338 -1.5473  1.8901 -0.2250
   10SAPS  C212 1257   1.005   0.740   5.149 -0.2084  0.4125  0.4778
   10SAPS  H12R 1258   0.974   0.652   5.091 -1.8635  1.3125 -0.0848
   10SAPS  C213 1259   1.067   0.844   5.057 -0.6371  0.4505  0.0380
   10SAPS  H13R 1260   1.124   0.918   5.117 -0.7842 -0.8358  1.8298
   10SAPS  H13S 1261   0.974   0.887   5.013 -1.1218  0.6589  1.2266
   10SAPS  C214 1262   1.160   0.772   4.960  0.0513 -0.2749  0.0122
   10SAPS  H14R 1263   1.265   0.763   4.990  0.3290 -0.0570 -0.8712
   10SAPS  C215 1264   1.123   0.715   4.843 -0.4192  0.7436 -0.8033
   10SAPS  H15R 1265   1.192   0.663   4.776  0.4852 -1.3316  1.6222
   10SAPS  C216 1266   0.983   0.716   4.804  0.0016 -0.3233  0.0223
   10SAPS  H16R 1267   0.951   0.821   4.790 -2.7785 -0.9556  0.9828
   10SAPS  H16S 1268   0.915   0.677   4.883  1.5278 -0.3779  1.3694
   10SAPS  C217 1269   0.942   0.630   4.681 -0.0241 -0.0155  0.4648
   10SAPS  H17R 1270   0.997   0.673   4.594 -0.1995 -1.0411 -0.1711
   10SAPS  H17S 1271   0.834   0.645   4.662 -0.0663  1.5966  1.8587
   10SAPS  C218 1272   0.987   0.483   4.685  0.3170 -0.4252 -0.0904
   10SAPS  H18R 1273   0.912   0.436   4.752  0.8574 -0.4962  0.4807
   10SAPS  H18S 1274   1.092   0.474   4.721  0.0694 -0.8956  0.5425
   10SAPS  C219 1275   0.962   0.417   4.550  0.2284 -0.6842  0.3832
   10SAPS  H19R 1276   1.029   0.464   4.475 -2.4174  1.3033 -0.8924
   10SAPS  H19S 1277   0.862   0.450   4.516  1.1522  0.2210 -1.6328
   10SAPS  C220 1278   0.969   0.268   4.559  0.7632 -0.2685  0.0910
   10SAPS  H20R 1279   0.979   0.225   4.457 -3.4531 -0.7846 -0.3001
   10SAPS  H20S 1280   0.878   0.231   4.611  1.5991  2.4226  3.8852
   10SAPS  H20T 1281   1.051   0.229   4.622  0.3183  0.3790  1.1037
   10SAPS   C33 1282   1.557   1.338   5.784  0.0934 -0.1858 -0.4101
   10SAPS   H3X 1283   1.566   1.448   5.794 -0.7540 -0.1112 -0.4025
   10SAPS   H3Y 1284   1.449   1.315   5.769 -0.3229  0.9606  0.6187
   10SAPS   C34 1285   1.651   1.295   5.668 -0.2750  0.5554  0.0379
   10SAPS   H4X 1286   1.626   1.187   5.665 -3.5354  1.1613  1.5829
   10SAPS   H4Y 1287   1.760   1.305   5.692  0.2784 -1.8500 -1.1039
   10SAPS   C35 1288   1.619   1.376   5.546 -0.4190  0.0973 -0.0866
   10SAPS   H5X 1289   1.649   1.482   5.562 -0.2483 -0.0342  0.4787
   10SAPS   H5Y 1290   1.511   1.373   5.520 -0.7945 -0.7101  1.4334
   10SAPS   C36 1291   1.684   1.330   5.413 -0.5212 -0.0088  0.3728
   10SAPS   H6X 1292   1.692   1.220   5.408  1.9658  0.0307  1.7794
   10SAPS   H6Y 1293   1.785   1.377   5.407 -1.5030  2.2110  0.1565
   10SAPS   C37 1294   1.608   1.390   5.293  0.3332 -1.0243 -0.2095
   10SAPS   H7X 1295   1.581   1.493   5.325  2.0483 -0.7600  0.4782
   10SAPS   H7Y 1296   1.515   1.331   5.275 -0.0657 -0.1873 -0.9280
   10SAPS   C38 1297   1.688   1.386   5.168  0.5630  0.1469  0.0058
   10SAPS   H8X 1298   1.719   1.282   5.143 -2.7593 -0.9709  0.1658
   10SAPS   H8Y 1299   1.784   1.441   5.182  0.4462  0.7567 -1.3639
   10SAPS   C39 1300   1.610   1.463   5.056 -0.0854 -0.0393  0.7977
   10SAPS   H9X 1301   1.597   1.573   5.066 -0.7563  0.2531 -2.1910
   10SAPS   H9Y 1302   1.511   1.414   5.044 -0.5321  0.8115  0.9236
   10SAPS  C310 1303   1.682   1.439   4.923 -0.6045 -0.5923  0.0336
   10SAPS  H10X 1304   1.707   1.331   4.915  1.8841 -0.1753  1.0530
   10SAPS  H10Y 1305   1.777   1.495   4.934 -0.9235  0.1219 -0.7939
   10SAPS  C311 1306   1.625   1.513   4.801 -0.6071 -0.4105  0.1680
   10SAPS  H11X 1307   1.643   1.622   4.811  0.5065 -0.3962 -1.4295
   10SAPS  H11Y 1308   1.515   1.504   4.810 -0.8030  0.3283 -1.1284
   10SAPS  C312 1309   1.659   1.452   4.668 -0.2550  0.4771  0.1335
   10SAPS  H12X 1310   1.643   1.343   4.664  1.5441  0.1280  1.0547
   10SAPS  H12Y 1311   1.769   1.470   4.661 -0.0952 -0.3378  0.4577
   10SAPS  C313 1312   1.581   1.527   4.552  0.8734 -0.3085 -0.7757
   10SAPS  H13X 1313   1.619   1.630   4.538 -0.9596  0.8757  1.9939
   10SAPS  H13Y 1314   1.472   1.533   4.574  0.6359 -0.5710 -1.8215
   10SAPS  C314 1315   1.586   1.448   4.424  0.5132 -0.2184  0.0355
   10SAPS  H14X 1316   1.521   1.360   4.441 -1.2269  0.9919 -0.1673
   10SAPS  H14Y 1317   1.693   1.418   4.414  0.1338 -1.5027 -0.3888
   10SAPS  C315 1318   1.567   1.528   4.295  0.5287 -0.1025 -0.5543
   10SAPS  H15X 1319   1.601   1.457   4.217  2.0492 -2.9827  2.4971
   10SAPS  H15Y 1320   1.638   1.611   4.315  1.0436 -0.7576  0.4166
   10SAPS  C316 1321   1.428   1.569   4.258  0.4657 -0.0217  0.0069
   10SAPS  H16X 1322   1.373   1.473   4.253  1.0341 -0.5021  1.9732
   10SAPS  H16Y 1323   1.430   1.608   4.154  0.0512  1.6967  0.6016
   10SAPS  C317 1324   1.347   1.662   4.349  0.6039  0.4870  0.1936
   10SAPS  H17X 1325   1.336   1.601   4.441  1.0881 -0.3350 -0.2858
   10SAPS  H17Y 1326   1.245   1.680   4.309  0.7255  2.2829  0.5732
   10SAPS  C318 1327   1.405   1.799   4.382 -0.7379  0.1834 -0.7869
   10SAPS  H18X 1328   1.495   1.780   4.444 -0.3241  2.9376 -0.4456
   10SAPS  H18Y 1329   1.329   1.860   4.434 -1.7104 -1.6620  0.0424
   10SAPS  H18Z 1330   1.439   1.857   4.293  1.0871  0.0268 -0.2407
   11SAPS     N 1331   5.496   0.694   1.570  0.4004 -0.5246 -0.6353
   11SAPS   HN1 1332   5.558   0.764   1.526  0.3268 -0.4492 -0.6184
   11SAPS   HN2 1333   5.429   0.653   1.501 -0.8499  2.6423 -1.4845
   11SAPS   HN3 1334   5.436   0.744   1.639 -1.7326 -1.9686 -1.3273
   11SAPS   C12 1335   5.588   0.597   1.629 -0.0540 -0.3516  0.8291
   11SAPS  H12A 1336   5.542   0.568   1.722 -3.9075 -1.9995 -1.3636
   11SAPS   C13 1337   5.600   0.475   1.536  0.7458  0.3753 -0.3796
   11SAPS  O13A 1338   5.507   0.446   1.452  0.2709 -0.0426 -0.6866
   11SAPS  O13B 1339   5.676   0.380   1.571 -0.0089 -0.1627  0.1294
   11SAPS   C11 1340   5.723   0.664   1.644 -0.1890  0.1575 -0.4858
   11SAPS  H11A 1341   5.758   0.700   1.544 -0.7943 -3.5202 -2.2018
   11SAPS  H11B 1342   5.797   0.586   1.672 -0.0146  0.9497  1.3761
   11SAPS     P 1343   5.751   0.779   1.894 -0.1450 -0.4541  0.3351
   11SAPS   O13 1344   5.899   0.790   1.907 -0.4268 -0.4971  0.0942
   11SAPS   O14 1345   5.667   0.884   1.955 -0.0624 -0.0199  0.0314
   11SAPS   O12 1346   5.715   0.769   1.739 -0.0120  0.1500  0.1518
   11SAPS   O11 1347   5.696   0.633   1.936 -0.0788 -0.2002  0.2354
   11SAPS    C1 1348   5.581   0.632   2.017 -0.3466  0.1433 -0.5041
   11SAPS    HA 1349   5.497   0.687   1.970 -1.4910 -2.2841 -1.4548
   11SAPS    HB 1350   5.552   0.525   2.024  2.9069 -0.7683  1.2922
   11SAPS    C2 1351   5.614   0.670   2.171 -1.2084 -0.0285  0.0660
   11SAPS    HS 1352   5.636   0.779   2.173  0.1818 -0.2982  1.5005
   11SAPS   O21 1353   5.729   0.577   2.211  0.3455 -0.3519  0.1874
   11SAPS   C21 1354   5.819   0.639   2.282  0.7808  0.0774  0.8368
   11SAPS   O22 1355   5.830   0.759   2.276  0.3467 -0.3633  0.5659
   11SAPS   C22 1356   5.891   0.542   2.374  0.3024  0.2607 -0.1153
   11SAPS   H2R 1357   5.983   0.510   2.320  0.4425  0.5916 -0.0739
   11SAPS   H2S 1358   5.927   0.605   2.458 -0.4405  0.4330  0.0739
   11SAPS    C3 1359   5.489   0.660   2.262  0.2846  0.3663  0.5835
   11SAPS    HX 1360   5.459   0.554   2.256  2.5227 -0.2368 -2.2363
   11SAPS    HY 1361   5.407   0.719   2.216 -0.4662 -0.4761  0.8145
   11SAPS   O31 1362   5.513   0.704   2.399  0.4361  0.2333 -0.0117
   11SAPS   C31 1363   5.481   0.832   2.420 -0.3561  0.5290 -0.1343
   11SAPS   O32 1364   5.400   0.895   2.358  0.5643  0.7424 -0.3001
   11SAPS   C32 1365   5.549   0.890   2.543  0.2096  0.0243  0.4373
   11SAPS   H2X 1366   5.570   0.997   2.521  0.3577 -0.1989 -0.5547
   11SAPS   H2Y 1367   5.640   0.829   2.564  0.0469 -0.4885 -0.2700
   11SAPS   C23 1368   5.805   0.430   2.433 -0.3286 -0.3051 -0.1174
   11SAPS   H3R 1369   5.805   0.349   2.357  0.1670  0.2930 -0.7636
   11SAPS   H3S 1370   5.699   0.452   2.460  0.1557 -1.3313  3.1542
   11SAPS   C24 1371   5.867   0.358   2.552  0.0654  0.0250  0.3449
   11SAPS   H4R 1372   5.969   0.330   2.520  0.6283  0.5826  1.6177
   11SAPS   H4S 1373   5.810   0.262   2.563  0.9899 -0.3862  1.7963
   11SAPS   C25 1374   5.871   0.439   2.679 -0.3780  0.0702  0.5277
   11SAPS   H5R 1375   5.963   0.498   2.687 -0.5439  0.4505 -0.2593
   11SAPS   C26 1376   5.781   0.430   2.778 -0.1547  0.0861  0.0193
   11SAPS   H6R 1377   5.805   0.476   2.874 -0.5874 -0.6802  0.5075
   11SAPS   C27 1378   5.653   0.347   2.771  0.1035 -0.2265  0.3911
   11SAPS   H7R 1379   5.672   0.238   2.780 -0.2869 -0.1814  2.1857
   11SAPS   H7S 1380   5.611   0.358   2.669 -0.4051  1.1448  0.7228
   11SAPS   C28 1381   5.547   0.389   2.870  0.5132  0.0323 -0.5375
   11SAPS   H8R 1382   5.473   0.455   2.823 -1.1254 -0.6169  0.9902
   11SAPS   C29 1383   5.538   0.355   3.000  1.0044  0.2138 -0.4199
   11SAPS   H9R 1384   5.455   0.406   3.052  1.0362  0.2599 -0.4148
   11SAPS  C210 1385   5.630   0.265   3.083  0.9893 -0.2573 -0.1236
   11SAPS  H10R 1386   5.716   0.240   3.016  2.1317 -0.1633  1.2649
   11SAPS  H10S 1387   5.586   0.164   3.098 -0.1440  0.1092 -0.8368
   11SAPS  C211 1388   5.687   0.314   3.211  0.7935  0.4791  0.0124
   11SAPS  H11R 1389   5.781   0.371   3.203  1.9378 -1.3217  0.1487
   11SAPS  C212 1390   5.651   0.289   3.339 -0.2804 -0.6269  0.1347
   11SAPS  H12R 1391   5.699   0.342   3.422 -1.9309  2.3343 -0.6828
   11SAPS  C213 1392   5.561   0.179   3.384  0.5734 -0.2909  0.1542
   11SAPS  H13R 1393   5.582   0.090   3.322 -0.4167 -0.5199  0.1323
   11SAPS  H13S 1394   5.453   0.202   3.368  0.4390 -1.0183 -0.0239
   11SAPS  C214 1395   5.593   0.143   3.522  0.5200 -0.6196  0.1796
   11SAPS  H14R 1396   5.651   0.050   3.532  0.5250 -0.6379 -0.0145
   11SAPS  C215 1397   5.524   0.180   3.631  0.4577 -0.6093  0.1934
   11SAPS  H15R 1398   5.544   0.124   3.723 -0.3831 -1.8256 -0.3313
   11SAPS  C216 1399   5.419   0.291   3.637  0.1464 -0.5129  0.9077
   11SAPS  H16R 1400   5.320   0.248   3.663 -0.4041 -0.9709 -1.7127
   11SAPS  H16S 1401   5.401   0.325   3.533  1.0153  1.1115  1.2609
   11SAPS  C217 1402   5.464   0.408   3.724 -0.0307  0.1516 -0.4264
   11SAPS  H17R 1403   5.508   0.364   3.816  0.3171  0.6497 -0.3495
   11SAPS  H17S 1404   5.375   0.472   3.743  0.2817  0.0398  1.6669
   11SAPS  C218 1405   5.576   0.490   3.661  0.4852 -0.3877 -0.3123
   11SAPS  H18R 1406   5.564   0.517   3.554  0.1101  0.1857 -0.1326
   11SAPS  H18S 1407   5.669   0.430   3.662 -0.1568 -1.4352  1.1584
   11SAPS  C219 1408   5.612   0.625   3.724  0.0301  0.6940  0.1321
   11SAPS  H19R 1409   5.623   0.618   3.834  3.0345  1.6102 -0.0140
   11SAPS  H19S 1410   5.534   0.699   3.695 -1.8156 -1.3723 -0.3977
   11SAPS  C220 1411   5.749   0.682   3.676  0.1918 -0.1172  0.1798
   11SAPS  H20R 1412   5.748   0.728   3.574 -0.9572  2.3023  1.2017
   11SAPS  H20S 1413   5.823   0.600   3.666 -1.6740 -1.8327 -0.4297
   11SAPS  H20T 1414   5.785   0.764   3.742  2.1545  1.5645 -2.7360
   11SAPS   C33 1415   5.457   0.906   2.664 -0.0658  0.5174  0.5160
   11SAPS   H3X 1416   5.355   0.919   2.622  0.2855  1.1234 -0.1703
   11SAPS   H3Y 1417   5.487   0.998   2.718  2.3063  0.2489 -0.2055
   11SAPS   C34 1418   5.463   0.778   2.752  0.6068 -0.2387 -0.8976
   11SAPS   H4X 1419   5.551   0.753   2.816  0.3611  0.8291 -0.1156
   11SAPS   H4Y 1420   5.448   0.692   2.683 -0.6891 -0.6071 -0.1858
   11SAPS   C35 1421   5.345   0.773   2.851 -0.4379 -0.2808  0.0987
   11SAPS   H5X 1422   5.250   0.797   2.798 -1.1424  1.7450  2.1163
   11SAPS   H5Y 1423   5.358   0.853   2.927  1.6216 -0.4439 -0.0342
   11SAPS   C36 1424   5.336   0.648   2.934 -0.2807  0.0571  0.5250
   11SAPS   H6X 1425   5.437   0.620   2.970 -1.3944 -1.1991  2.9001
   11SAPS   H6Y 1426   5.308   0.566   2.865 -0.1535  1.1861 -0.9236
   11SAPS   C37 1427   5.229   0.666   3.040  0.8313 -0.1859  0.0545
   11SAPS   H7X 1428   5.136   0.684   2.983  2.6273  1.6467 -2.5638
   11SAPS   H7Y 1429   5.250   0.764   3.088  0.7244 -0.2537  0.2429
   11SAPS   C38 1430   5.216   0.550   3.133  0.0012 -0.3847 -0.4917
   11SAPS   H8X 1431   5.293   0.562   3.211 -1.6028  1.0422  0.9490
   11SAPS   H8Y 1432   5.236   0.452   3.084  1.1210 -0.2234 -0.3764
   11SAPS   C39 1433   5.087   0.539   3.206  0.1320 -0.0550 -0.2323
   11SAPS   H9X 1434   5.022   0.505   3.123  0.7471 -0.7575 -0.4376
   11SAPS   H9Y 1435   5.052   0.632   3.254  1.9497  1.2338 -1.2552
   11SAPS  C310 1436   5.082   0.425   3.316 -0.1209 -0.3155 -0.4852
   11SAPS  H10X 1437   5.152   0.340   3.300  2.3708  1.3589  0.8416
   11SAPS  H10Y 1438   4.980   0.383   3.304  0.3948 -1.6336 -0.3605
   11SAPS  C311 1439   5.098   0.474   3.456  0.5048  0.2813 -0.0543
   11SAPS  H11X 1440   5.039   0.568   3.465 -1.2151 -0.8111  0.6856
   11SAPS  H11Y 1441   5.208   0.476   3.473  1.0259 -1.8469 -2.5818
   11SAPS  C312 1442   5.042   0.371   3.557 -0.0453  0.1807  0.2861
   11SAPS  H12X 1443   5.063   0.410   3.658 -0.6556  2.4927 -0.4011
   11SAPS  H12Y 1444   5.103   0.279   3.552  3.2335  2.2271 -0.1915
   11SAPS  C313 1445   4.894   0.339   3.558  0.5644 -0.7501  0.3404
   11SAPS  H13X 1446   4.876   0.246   3.500  1.1137 -0.0189 -1.0450
   11SAPS  H13Y 1447   4.842   0.427   3.516  3.1066  0.5602 -0.2497
   11SAPS  C314 1448   4.850   0.308   3.701  0.7026  0.0996  0.5962
   11SAPS  H14X 1449   4.879   0.391   3.770 -0.5806 -0.0830  1.3971
   11SAPS  H14Y 1450   4.909   0.223   3.742  0.7487 -0.4035 -0.4858
   11SAPS  C315 1451   4.703   0.274   3.720 -0.0482  0.4282  0.6857
   11SAPS  H15X 1452   4.667   0.211   3.636 -0.4908  0.4919  0.8266
   11SAPS  H15Y 1453   4.652   0.372   3.710  4.1230  2.6415 -1.3916
   11SAPS  C316 1454   4.667   0.212   3.854  0.3125 -0.1153  0.5078
   11SAPS  H16X 1455   4.703   0.279   3.934 -1.3907 -0.6480  1.7849
   11SAPS  H16Y 1456   4.708   0.109   3.862 -1.3254 -0.6932  2.1483
   11SAPS  C317 1457   4.516   0.191   3.868  0.7547 -0.1988 -0.0494
   11SAPS  H17X 1458   4.478   0.125   3.787  1.9079 -0.6778 -0.2231
   11SAPS  H17Y 1459   4.468   0.291   3.862 -1.1103 -0.9835  0.9098
   11SAPS  C318 1460   4.493   0.146   4.014  0.4740 -0.0155 -0.3074
   11SAPS  H18X 1461   4.515   0.223   4.091  0.8068 -1.0904  0.6989
   11SAPS  H18Y 1462   4.556   0.061   4.045 -3.0251 -2.1183  1.6299
   11SAPS  H18Z 1463   4.385   0.121   4.027 -0.1907  1.8943 -1.5493
   12SAPS     N 1464   6.447   5.720   2.406 -0.4684 -0.4550 -0.3532
   12SAPS   HN1 1465   6.451   5.630   2.458  0.1404  0.6382  1.5978
   12SAPS   HN2 1466   6.532   5.754   2.357 -0.6784  0.9530  0.1991
   12SAPS   HN3 1467   6.428   5.793   2.479  0.7642  2.3978 -2.6567
   12SAPS   C12 1468   6.337   5.736   2.304 -0.0926  0.7189  0.2628
   12SAPS  H12A 1469   6.338   5.841   2.280  2.3682  1.1948  2.0970
   12SAPS   C13 1470   6.366   5.679   2.161 -0.0923  0.0514  0.3531
   12SAPS  O13A 1471   6.468   5.609   2.143  0.0359 -0.0643  0.2854
   12SAPS  O13B 1472   6.297   5.709   2.062  0.2939 -0.6480 -0.1524
   12SAPS   C11 1473   6.201   5.677   2.367 -0.6647 -0.9253 -0.6645
   12SAPS  H11A 1474   6.108   5.686   2.307 -1.3361 -0.9492  0.3330
   12SAPS  H11B 1475   6.181   5.732   2.461  1.3097 -0.9654 -0.1743
   12SAPS     P 1476   6.134   5.428   2.334  0.0463 -0.1008  0.1068
   12SAPS   O13 1477   6.139   5.435   2.187  0.3202  0.1816  0.4494
   12SAPS   O14 1478   6.175   5.301   2.394 -1.1811  0.4167  0.0464
   12SAPS   O12 1479   6.224   5.539   2.397  0.1315  0.2058 -0.1066
   12SAPS   O11 1480   5.994   5.466   2.383 -0.0588  0.2519  0.6576
   12SAPS    C1 1481   5.929   5.414   2.497 -0.0160 -0.4895 -0.6187
   12SAPS    HA 1482   5.819   5.410   2.477 -0.2880 -3.0501  0.9710
   12SAPS    HB 1483   5.954   5.308   2.519 -2.0473 -0.6768  1.1357
   12SAPS    C2 1484   5.942   5.511   2.618 -0.1716  0.0742  0.1624
   12SAPS    HS 1485   6.050   5.527   2.635 -0.0349 -0.9245  0.2724
   12SAPS   O21 1486   5.887   5.457   2.739  0.0622  0.0903 -0.3330
   12SAPS   C21 1487   5.965   5.371   2.810  0.5991  0.0113 -0.1624
   12SAPS   O22 1488   6.080   5.342   2.775  0.4177 -0.5176  0.2844
   12SAPS   C22 1489   5.900   5.335   2.942 -0.1771 -0.1528 -0.5425
   12SAPS   H2R 1490   5.873   5.431   2.991  3.5929  0.3355  0.9176
   12SAPS   H2S 1491   5.804   5.283   2.920  1.1753 -2.1690 -2.0473
   12SAPS    C3 1492   5.887   5.648   2.579 -0.3599 -0.2936  0.2660
   12SAPS    HX 1493   5.789   5.641   2.526  0.2447  0.6167 -1.0145
   12SAPS    HY 1494   5.938   5.697   2.494  0.0418 -0.1347  0.5950
   12SAPS   O31 1495   5.886   5.742   2.692  0.3250 -0.2611  0.2405
   12SAPS   C31 1496   5.772   5.767   2.758  0.9851  0.9353  0.3300
   12SAPS   O32 1497   5.663   5.719   2.726 -0.8070  0.3441  0.2960
   12SAPS   C32 1498   5.802   5.862   2.878 -0.3819  0.5841  1.1475
   12SAPS   H2X 1499   5.832   5.957   2.829  0.0120 -1.5576 -3.2617
   12SAPS   H2Y 1500   5.896   5.833   2.928 -1.3670  0.5354  3.0586
   12SAPS   C23 1501   5.983   5.228   3.017  0.3398 -0.6935  0.1434
   12SAPS   H3R 1502   6.090   5.255   3.030  0.5036  0.2209 -2.5391
   12SAPS   H3S 1503   5.970   5.139   2.952  0.6517 -0.3217 -0.4394
   12SAPS   C24 1504   5.923   5.183   3.152  0.1972  0.2861  0.4855
   12SAPS   H4R 1505   5.823   5.141   3.131  0.6766 -0.6859  0.0874
   12SAPS   H4S 1506   5.927   5.269   3.222 -0.0027  3.7517 -3.4365
   12SAPS   C25 1507   6.003   5.065   3.207 -0.0585  0.2798 -0.5274
   12SAPS   H5R 1508   6.055   5.003   3.133 -0.5604 -2.6297  1.3859
   12SAPS   C26 1509   6.021   5.030   3.339 -0.0538  0.2601 -0.3854
   12SAPS   H6R 1510   6.072   4.934   3.351 -0.0696  0.4169  1.2273
   12SAPS   C27 1511   5.961   5.081   3.467 -0.0731  0.3634  0.1569
   12SAPS   H7R 1512   5.878   5.011   3.492  2.3528 -2.2516  1.4806
   12SAPS   H7S 1513   5.910   5.176   3.440 -1.5390 -0.8290 -1.5114
   12SAPS   C28 1514   6.044   5.088   3.588 -0.3423 -0.0539 -0.0882
   12SAPS   H8R 1515   6.147   5.119   3.567 -1.0503  1.6651 -1.2350
   12SAPS   C29 1516   6.009   5.064   3.715  0.1276  0.3556  0.8829
   12SAPS   H9R 1517   6.081   5.080   3.796 -0.2106 -0.0864  1.2798
   12SAPS  C210 1518   5.876   5.001   3.764  0.0002  0.0544  0.1428
   12SAPS  H10R 1519   5.793   5.036   3.698 -1.1516  0.8221  1.9299
   12SAPS  H10S 1520   5.850   5.043   3.863 -0.9934  2.3424 -1.0003
   12SAPS  C211 1521   5.889   4.849   3.775 -0.0420  0.5026 -0.1666
   12SAPS  H11R 1522   5.893   4.785   3.686 -1.1709  0.2760 -0.0735
   12SAPS  C212 1523   5.884   4.772   3.888 -0.3757 -0.6446 -0.5102
   12SAPS  H12R 1524   5.887   4.662   3.887 -1.2377 -0.6747 -0.5064
   12SAPS  C213 1525   5.885   4.832   4.033 -0.3226 -0.0143 -0.7199
   12SAPS  H13R 1526   5.944   4.927   4.034 -0.0945 -0.1258  1.3301
   12SAPS  H13S 1527   5.943   4.766   4.101 -0.0202  0.5673 -0.4019
   12SAPS  C214 1528   5.753   4.869   4.103 -0.2901  0.0616  0.2214
   12SAPS  H14R 1529   5.692   4.927   4.033  1.8374  2.1297 -0.0498
   12SAPS  C215 1530   5.711   4.839   4.229  0.1947 -0.9685  0.0482
   12SAPS  H15R 1531   5.621   4.887   4.272 -1.1310 -0.4459 -3.0337
   12SAPS  C216 1532   5.796   4.750   4.316 -0.0267 -0.6310  0.1846
   12SAPS  H16R 1533   5.767   4.758   4.423 -0.7712  1.2770 -0.1225
   12SAPS  H16S 1534   5.903   4.776   4.333 -0.4453  0.2543  1.6144
   12SAPS  C217 1535   5.795   4.602   4.269 -0.0094  0.1943  0.1489
   12SAPS  H17R 1536   5.836   4.554   4.360 -0.0934  0.6234  0.4109
   12SAPS  H17S 1537   5.863   4.586   4.182 -0.6710  0.7156 -0.4835
   12SAPS  C218 1538   5.654   4.543   4.236 -0.2487 -0.5896  0.5622
   12SAPS  H18R 1539   5.622   4.597   4.144  1.1440  0.1735  0.4961
   12SAPS  H18S 1540   5.585   4.570   4.318 -0.0636 -0.1801  0.5857
   12SAPS  C219 1541   5.647   4.396   4.209 -0.2695  0.0002  0.9584
   12SAPS  H19R 1542   5.554   4.360   4.160  0.4527 -0.4406 -0.1316
   12SAPS  H19S 1543   5.650   4.339   4.304  0.5330 -0.8178  0.4699
   12SAPS  C220 1544   5.759   4.328   4.130  0.5847  0.0730 -0.5386
   12SAPS  H20R 1545   5.857   4.354   4.175  0.0157  1.8456 -0.2170
   12SAPS  H20S 1546   5.760   4.379   4.032 -2.6841 -0.0479 -0.7462
   12SAPS  H20T 1547   5.743   4.221   4.105  1.4199 -0.2063  0.0770
   12SAPS   C33 1548   5.678   5.870   2.974  0.0471 -0.3220 -0.6586
   12SAPS   H3X 1549   5.583   5.899   2.924 -1.0456  0.1247  1.5542
   12SAPS   H3Y 1550   5.693   5.949   3.051 -0.5057 -0.8836  0.0420
   12SAPS   C34 1551   5.667   5.737   3.055 -0.0228  0.8311 -0.2671
   12SAPS   H4X 1552   5.777   5.727   3.069  0.1145  0.4966 -1.4314
   12SAPS   H4Y 1553   5.623   5.657   2.991 -1.4322  0.0504  1.5929
   12SAPS   C35 1554   5.603   5.722   3.196 -0.2889 -0.7382 -0.0282
   12SAPS   H5X 1555   5.612   5.615   3.226 -0.0419 -0.0900  2.3940
   12SAPS   H5Y 1556   5.492   5.731   3.188 -0.0665  1.5863 -1.4499
   12SAPS   C36 1557   5.651   5.818   3.307  0.3295  0.0474  0.1844
   12SAPS   H6X 1558   5.641   5.926   3.282 -0.6746 -0.1862 -0.4358
   12SAPS   H6Y 1559   5.759   5.791   3.313  0.5980  0.6819 -1.3600
   12SAPS   C37 1560   5.594   5.781   3.448 -0.2642 -0.9532  0.1634
   12SAPS   H7X 1561   5.609   5.672   3.459 -1.1215 -1.1959 -0.8949
   12SAPS   H7Y 1562   5.485   5.802   3.447  0.0646  0.9944 -1.6841
   12SAPS   C38 1563   5.649   5.857   3.565 -0.5272  0.3791  0.7459
   12SAPS   H8X 1564   5.610   5.960   3.556 -0.1446  0.5941  1.4280
   12SAPS   H8Y 1565   5.760   5.859   3.553 -0.5992 -0.8022 -0.3671
   12SAPS   C39 1566   5.623   5.789   3.702 -0.0848  0.0161 -0.4680
   12SAPS   H9X 1567   5.688   5.703   3.728 -2.0702 -2.3400 -2.7486
   12SAPS   H9Y 1568   5.517   5.759   3.695 -0.2565  0.8738 -1.9164
   12SAPS  C310 1569   5.635   5.901   3.813 -0.1127 -0.2787 -0.1912
   12SAPS  H10X 1570   5.540   5.959   3.809 -1.5423 -2.3489  1.2405
   12SAPS  H10Y 1571   5.726   5.963   3.798  1.1160 -2.2321 -1.2221
   12SAPS  C311 1572   5.640   5.832   3.956  0.9666  0.2455 -0.3976
   12SAPS  H11X 1573   5.693   5.897   4.029  1.1310 -0.3030 -0.0227
   12SAPS  H11Y 1574   5.703   5.740   3.955  1.3155  0.4213  1.4335
   12SAPS  C312 1575   5.498   5.790   4.014 -0.6314  0.4656 -0.8252
   12SAPS  H12X 1576   5.447   5.735   3.933 -2.5070  0.3592  0.3696
   12SAPS  H12Y 1577   5.443   5.885   4.032 -0.9344 -0.0328  1.1150
   12SAPS  C313 1578   5.503   5.712   4.146 -0.1523 -0.0215 -0.4031
   12SAPS  H13X 1579   5.563   5.767   4.221 -1.9224  0.5841  0.6330
   12SAPS  H13Y 1580   5.538   5.608   4.125 -3.9022 -1.7047  0.7887
   12SAPS  C314 1581   5.367   5.684   4.209 -0.0192  0.8849  0.7289
   12SAPS  H14X 1582   5.306   5.621   4.140 -0.9813  1.6031  0.8952
   12SAPS  H14Y 1583   5.301   5.773   4.218 -2.2226 -0.3014 -2.0331
   12SAPS  C315 1584   5.377   5.610   4.342 -0.7935  1.0670 -0.0411
   12SAPS  H15X 1585   5.460   5.642   4.409 -1.1034  0.5901  0.5760
   12SAPS  H15Y 1586   5.406   5.505   4.324  3.0474  1.7703  1.0946
   12SAPS  C316 1587   5.246   5.603   4.411  0.5888  0.1960  0.2674
   12SAPS  H16X 1588   5.193   5.700   4.400  1.5295  0.5595 -1.5748
   12SAPS  H16Y 1589   5.261   5.588   4.520  0.9138 -0.0060  0.1950
   12SAPS  C317 1590   5.147   5.491   4.364  0.1166 -0.2535 -0.7877
   12SAPS  H17X 1591   5.190   5.391   4.387 -3.1587 -1.5505  0.2075
   12SAPS  H17Y 1592   5.138   5.498   4.253 -0.3449 -0.3560 -0.7568
   12SAPS  C318 1593   5.014   5.495   4.441 -0.1571  0.4350  0.7498
   12SAPS  H18X 1594   5.025   5.467   4.548 -0.2322  0.7999  0.8515
   12SAPS  H18Y 1595   4.938   5.428   4.396  0.9356 -0.6451  0.4380
   12SAPS  H18Z 1596   4.972   5.596   4.426  2.8737  1.8007  0.6419
   13SAPS     N 1597   0.003   5.874   2.462  0.3880 -0.0073  0.1847
   13SAPS   HN1 1598   0.100   5.875   2.500  0.2446 -0.7299  0.5780
   13SAPS   HN2 1599  -0.053   5.951   2.504  1.8658  1.3753 -0.2812
   13SAPS   HN3 1600  -0.039   5.781   2.477 -1.2476  0.8616  1.2861
   13SAPS   C12 1601   0.014   5.901   2.311 -0.3654  0.4316 -0.0632
   13SAPS  H12A 1602   0.093   5.835   2.279  0.5513  1.0930  0.7806
   13SAPS   C13 1603  -0.119   5.875   2.232 -0.3029  0.0715  0.3273
   13SAPS  O13A 1604  -0.213   5.809   2.279  0.8832  0.4364 -0.3771
   13SAPS  O13B 1605  -0.109   5.907   2.109  0.2409 -0.2050 -0.5746
   13SAPS   C11 1606   0.052   6.049   2.288 -0.2286 -0.0131  0.3889
   13SAPS  H11A 1607  -0.027   6.118   2.323 -1.5761 -1.5447  0.4630
   13SAPS  H11B 1608   0.071   6.056   2.179  0.7495  0.6914  0.5832
   13SAPS     P 1609   0.282   6.179   2.309  0.0798 -0.1178  0.4551
   13SAPS   O13 1610   0.413   6.155   2.373 -0.4255  0.6836  0.0635
   13SAPS   O14 1611   0.284   6.190   2.161 -0.0127  0.3849  0.3415
   13SAPS   O12 1612   0.172   6.075   2.360  0.2214 -0.1130 -0.0170
   13SAPS   O11 1613   0.233   6.319   2.360 -0.0391 -0.4735 -0.0736
   13SAPS    C1 1614   0.146   6.334   2.467 -0.7864  0.9243 -0.7982
   13SAPS    HA 1615   0.045   6.297   2.437 -0.2412 -2.1964  0.7421
   13SAPS    HB 1616   0.182   6.283   2.559 -0.6510  1.5818 -0.4794
   13SAPS    C2 1617   0.125   6.480   2.497  0.2226  0.5977 -0.9298
   13SAPS    HS 1618   0.098   6.537   2.405 -0.2938  2.2841  0.2142
   13SAPS   O21 1619   0.256   6.524   2.545  0.4685 -0.6312  0.0468
   13SAPS   C21 1620   0.271   6.659   2.548 -0.9611  0.2645 -0.2434
   13SAPS   O22 1621   0.202   6.742   2.500 -0.2784 -0.0688  0.6142
   13SAPS   C22 1622   0.383   6.684   2.647 -0.5599  0.0952 -0.6448
   13SAPS   H2R 1623   0.344   6.635   2.738 -1.0355 -0.6973 -1.2601
   13SAPS   H2S 1624   0.473   6.634   2.607 -1.1906 -0.8134 -0.9734
   13SAPS    C3 1625   0.020   6.506   2.601  0.4289 -0.0300 -0.2973
   13SAPS    HX 1626  -0.063   6.434   2.587  0.5883  0.2391 -3.1816
   13SAPS    HY 1627  -0.026   6.604   2.574  1.7611  0.9820  0.9377
   13SAPS   O31 1628   0.069   6.516   2.737  0.4496 -0.4225 -0.3869
   13SAPS   C31 1629   0.033   6.418   2.827 -0.3495  0.3454 -0.4231
   13SAPS   O32 1630  -0.036   6.325   2.803 -0.3546  0.4870  0.0184
   13SAPS   C32 1631   0.101   6.444   2.965  0.9978 -0.2769 -0.2057
   13SAPS   H2X 1632   0.050   6.529   3.016  1.8888 -0.1069  0.4239
   13SAPS   H2Y 1633   0.208   6.463   2.943  0.9959  1.1129  0.8379
   13SAPS   C23 1634   0.421   6.833   2.668  0.2145  0.7028  0.3083
   13SAPS   H3R 1635   0.329   6.892   2.691  2.3659  4.1143  0.9818
   13SAPS   H3S 1636   0.458   6.868   2.569  1.8694 -0.2042  0.5629
   13SAPS   C24 1637   0.530   6.876   2.778  1.2137 -0.1011  0.4706
   13SAPS   H4R 1638   0.552   6.984   2.768  4.1646 -0.6814 -0.1589
   13SAPS   H4S 1639   0.626   6.824   2.755  0.7963 -0.7936  0.2482
   13SAPS   C25 1640   0.490   6.831   2.916  0.2017  0.4429  0.1366
   13SAPS   H5R 1641   0.562   6.762   2.963  0.9263  2.2299  1.7787
   13SAPS   C26 1642   0.399   6.883   2.998 -0.1460 -0.7030 -0.5516
   13SAPS   H6R 1643   0.385   6.835   3.096  0.4012  1.4200  0.6516
   13SAPS   C27 1644   0.299   6.989   2.969 -0.6254  0.3131 -0.0364
   13SAPS   H7R 1645   0.312   7.039   2.870 -1.2081  0.7800  0.1178
   13SAPS   H7S 1646   0.311   7.071   3.043 -1.8053  2.8716 -2.4752
   13SAPS   C28 1647   0.155   6.940   2.995 -0.2049 -0.6034  0.0629
   13SAPS   H8R 1648   0.109   6.881   2.913 -0.3579  0.8962 -0.9650
   13SAPS   C29 1649   0.075   6.953   3.106  0.5696  0.0005  0.7753
   13SAPS   H9R 1650  -0.031   6.933   3.090  0.7024  0.2861 -0.5550
   13SAPS  C210 1651   0.113   7.023   3.238 -0.1603  0.0099 -0.5790
   13SAPS  H10R 1652   0.016   7.043   3.289 -0.2043  0.0882 -0.6914
   13SAPS  H10S 1653   0.173   7.116   3.227  0.9280 -0.3411  1.8469
   13SAPS  C211 1654   0.198   6.943   3.334 -0.5757 -0.3872  0.5708
   13SAPS  H11R 1655   0.303   6.938   3.301 -0.7859  0.2351 -0.1906
   13SAPS  C212 1656   0.160   6.873   3.440  0.2360  0.0182 -0.3177
   13SAPS  H12R 1657   0.229   6.813   3.501 -0.8255 -1.0255 -0.1099
   13SAPS  C213 1658   0.024   6.876   3.516 -0.4953 -0.2980  0.4273
   13SAPS  H13R 1659   0.014   6.777   3.565  2.3171  0.0211  1.8171
   13SAPS  H13S 1660  -0.056   6.889   3.440 -0.2457 -1.2915 -0.0196
   13SAPS  C214 1661   0.026   6.987   3.618  0.3852  0.3203 -0.3168
   13SAPS  H14R 1662   0.076   7.083   3.595  3.1338 -1.7344 -4.0678
   13SAPS  C215 1663  -0.051   6.993   3.729  0.5963  0.1896 -0.2006
   13SAPS  H15R 1664  -0.039   7.081   3.795 -1.8251  0.7832 -0.4758
   13SAPS  C216 1665  -0.151   6.884   3.773 -0.1450 -0.1451 -0.4365
   13SAPS  H16R 1666  -0.133   6.856   3.879 -3.4519  0.7295  0.4698
   13SAPS  H16S 1667  -0.140   6.795   3.709 -0.8397  0.2062 -1.0531
   13SAPS  C217 1668  -0.291   6.935   3.762  0.1750  0.3074 -1.2114
   13SAPS  H17R 1669  -0.355   6.844   3.765  1.9440 -0.9710  1.5147
   13SAPS  H17S 1670  -0.302   6.990   3.666 -1.0348 -0.0226 -1.2838
   13SAPS  C218 1671  -0.330   7.040   3.870  0.0618  0.9037 -0.4809
   13SAPS  H18R 1672  -0.248   7.113   3.886  0.1075  0.8257 -0.3598
   13SAPS  H18S 1673  -0.357   6.982   3.961  1.4062  0.6962 -0.1900
   13SAPS  C219 1674  -0.452   7.115   3.813  0.1491  0.4867  0.1011
   13SAPS  H19R 1675  -0.515   7.041   3.759 -0.3103  1.9701 -1.5002
   13SAPS  H19S 1676  -0.435   7.188   3.731  0.5069 -1.4435 -1.6061
   13SAPS  C220 1677  -0.541   7.175   3.923 -0.5660 -0.2636 -0.7640
   13SAPS  H20R 1678  -0.479   7.234   3.994 -0.7841  0.8783 -1.4949
   13SAPS  H20S 1679  -0.579   7.086   3.978 -0.7264 -0.3473 -1.0097
   13SAPS  H20T 1680  -0.624   7.235   3.879 -0.3624 -0.8436 -1.9940
   13SAPS   C33 1681   0.102   6.325   3.066 -0.1739 -0.0513 -0.0491
   13SAPS   H3X 1682   0.181   6.357   3.137  0.6485  0.9187 -1.3628
   13SAPS   H3Y 1683   0.122   6.229   3.013  1.8539  0.6252 -0.5647
   13SAPS   C34 1684  -0.028   6.314   3.149 -0.4575  0.2633  0.2961
   13SAPS   H4X 1685  -0.112   6.285   3.082  2.0587 -2.5272 -1.8855
   13SAPS   H4Y 1686  -0.057   6.412   3.192 -1.7433  0.2513 -0.4918
   13SAPS   C35 1687  -0.007   6.212   3.262 -0.1582  0.6355  0.0640
   13SAPS   H5X 1688   0.029   6.114   3.226 -1.1723  0.2149  0.1643
   13SAPS   H5Y 1689  -0.104   6.192   3.311  0.4480 -2.1608  0.2323
   13SAPS   C36 1690   0.089   6.257   3.368 -0.4769 -0.1714  0.0980
   13SAPS   H6X 1691   0.045   6.342   3.424 -1.8789 -1.8524  1.6762
   13SAPS   H6Y 1692   0.182   6.300   3.325 -0.8681  1.0672  0.4422
   13SAPS   C37 1693   0.134   6.155   3.472 -0.0688 -0.4070 -0.2063
   13SAPS   H7X 1694   0.222   6.200   3.523 -2.3945  1.0168  2.8307
   13SAPS   H7Y 1695   0.154   6.053   3.431  0.3267 -0.3741 -0.0981
   13SAPS   C38 1696   0.036   6.127   3.583  0.0576  0.1988 -0.5763
   13SAPS   H8X 1697  -0.056   6.075   3.550 -0.7056 -0.0154  1.7119
   13SAPS   H8Y 1698   0.003   6.228   3.615  1.7875  1.2455 -1.8934
   13SAPS   C39 1699   0.088   6.061   3.719 -0.2077 -0.3868  0.2708
   13SAPS   H9X 1700   0.184   6.110   3.744 -0.0878 -0.1753 -0.5735
   13SAPS   H9Y 1701   0.102   5.953   3.701  0.6759  0.1061 -2.5446
   13SAPS  C310 1702   0.001   6.115   3.829  0.1087 -0.4972  0.5283
   13SAPS  H10X 1703  -0.105   6.113   3.796  0.1474 -2.9170  0.3933
   13SAPS  H10Y 1704   0.021   6.220   3.860  0.2716 -0.4524  0.2805
   13SAPS  C311 1705   0.015   6.028   3.954 -0.3017 -0.0044  0.5848
   13SAPS  H11X 1706   0.121   6.021   3.986 -0.4570 -0.4891  1.0306
   13SAPS  H11Y 1707  -0.025   5.928   3.924  1.8570 -0.6184 -0.4459
   13SAPS  C312 1708  -0.066   6.063   4.070  0.7775  0.8278 -0.3607
   13SAPS  H12X 1709  -0.175   6.070   4.049  0.8759  1.2184 -0.7583
   13SAPS  H12Y 1710  -0.031   6.162   4.108 -0.1325  0.9858  0.1174
   13SAPS  C313 1711  -0.061   5.964   4.189  0.3254 -0.2964 -0.1369
   13SAPS  H13X 1712   0.046   5.958   4.220  0.3144  0.9524  0.2076
   13SAPS  H13Y 1713  -0.098   5.864   4.161 -0.4480 -0.2463  0.6588
   13SAPS  C314 1714  -0.152   6.005   4.304  0.7330 -0.3471  0.4217
   13SAPS  H14X 1715  -0.259   6.015   4.276  0.7341 -0.8269  0.2368
   13SAPS  H14Y 1716  -0.125   6.101   4.352 -1.7850  0.5319  0.2346
   13SAPS  C315 1717  -0.143   5.900   4.415  0.2191 -0.3835 -1.0220
   13SAPS  H15X 1718  -0.039   5.871   4.442 -0.4626  0.6960  3.7010
   13SAPS  H15Y 1719  -0.183   5.801   4.383 -0.3899 -0.8798  1.0587
   13SAPS  C316 1720  -0.204   5.938   4.549 -0.0655 -0.2163  0.5497
   13SAPS  H16X 1721  -0.164   6.029   4.599 -1.4339 -0.3952  2.0754
   13SAPS  H16Y 1722  -0.184   5.862   4.627 -0.1087  0.9382  1.7407
   13SAPS  C317 1723  -0.356   5.946   4.530 -0.2698  0.9151 -0.2299
   13SAPS  H17X 1724  -0.399   5.862   4.471  1.5023 -0.4706  0.3585
   13SAPS  H17Y 1725  -0.369   6.032   4.460 -0.3136  0.3815 -0.8966
   13SAPS  C318 1726  -0.439   5.958   4.660 -1.1675 -0.0360  0.3521
   13SAPS  H18X 1727  -0.545   5.985   4.641 -0.9921  0.5044  0.1227
   13SAPS  H18Y 1728  -0.384   6.033   4.720 -0.5876 -0.0280 -0.1765
   13SAPS  H18Z 1729  -0.435   5.861   4.714 -0.8012  0.1184  0.6052
   14SAPS     N 1730   6.609   2.632   1.523  0.4192 -0.4499 -0.2475
   14SAPS   HN1 1731   6.629   2.689   1.438 -0.8973 -1.4931 -1.3024
   14SAPS   HN2 1732   6.563   2.540   1.507 -1.7306  0.3483  0.9981
   14SAPS   HN3 1733   6.558   2.689   1.593 -2.4628 -1.3904 -1.4053
   14SAPS   C12 1734   6.747   2.616   1.583 -0.2302  0.6444  0.5698
   14SAPS  H12A 1735   6.793   2.540   1.522  0.0365  0.8937  0.4580
   14SAPS   C13 1736   6.846   2.735   1.584 -0.1476  0.5587 -0.2896
   14SAPS  O13A 1737   6.804   2.847   1.551  0.4514 -0.2187  0.2691
   14SAPS  O13B 1738   6.959   2.718   1.639  0.3587 -0.5172 -0.0006
   14SAPS   C11 1739   6.733   2.558   1.725 -1.2457  0.3399 -0.2689
   14SAPS  H11A 1740   6.696   2.634   1.797  0.5077  0.7474  0.2253
   14SAPS  H11B 1741   6.833   2.538   1.768 -1.2142  1.2757  0.1119
   14SAPS     P 1742   6.703   2.300   1.725  0.0516  0.1268  0.1459
   14SAPS   O13 1743   6.584   2.210   1.722 -0.0971  0.1205  0.1439
   14SAPS   O14 1744   6.798   2.285   1.613  0.2212  0.0427  0.7171
   14SAPS   O12 1745   6.641   2.447   1.729 -0.7188 -0.1226 -0.3221
   14SAPS   O11 1746   6.783   2.290   1.870  0.2264  0.0651  0.4355
   14SAPS    C1 1747   6.720   2.335   1.992 -0.0010  0.5328 -0.0878
   14SAPS    HA 1748   6.711   2.446   1.993 -0.8996  0.4576  0.6707
   14SAPS    HB 1749   6.622   2.283   2.001  0.7879 -0.8870  0.5807
   14SAPS    C2 1750   6.777   2.284   2.124  0.5490 -0.2721  0.4651
   14SAPS    HS 1751   6.885   2.311   2.128  1.0578 -1.9607 -0.8244
   14SAPS   O21 1752   6.751   2.140   2.117  0.3506 -0.1074 -0.3692
   14SAPS   C21 1753   6.852   2.068   2.184 -0.5302  0.3513  0.5641
   14SAPS   O22 1754   6.957   2.113   2.219 -1.0569  0.1657 -0.2933
   14SAPS   C22 1755   6.806   1.923   2.179  0.5610 -0.9782 -0.2272
   14SAPS   H2R 1756   6.697   1.925   2.201  0.7898  1.6146  1.0921
   14SAPS   H2S 1757   6.818   1.873   2.081 -2.3002 -1.5118 -0.3998
   14SAPS    C3 1758   6.701   2.332   2.254 -0.0492  0.1400  0.4145
   14SAPS    HX 1759   6.605   2.277   2.258  0.2714 -0.4254  0.4274
   14SAPS    HY 1760   6.682   2.442   2.248  0.3665  0.2152  0.4085
   14SAPS   O31 1761   6.768   2.284   2.370  0.3937 -0.3548 -0.5272
   14SAPS   C31 1762   6.826   2.374   2.444 -0.4386  0.3235  0.1697
   14SAPS   O32 1763   6.855   2.485   2.411 -0.5215  0.0835 -0.0169
   14SAPS   C32 1764   6.847   2.309   2.583  0.4599  0.3557  0.2482
   14SAPS   H2X 1765   6.775   2.225   2.598 -0.1375  0.7677 -0.2741
   14SAPS   H2Y 1766   6.827   2.391   2.656 -0.0623  0.6408 -0.2140
   14SAPS   C23 1767   6.871   1.834   2.285 -0.4878  0.1332  1.2929
   14SAPS   H3R 1768   6.980   1.851   2.271 -0.5891 -0.0500  0.2129
   14SAPS   H3S 1769   6.840   1.731   2.257  2.9285 -0.4316 -1.1002
   14SAPS   C24 1770   6.850   1.866   2.425 -0.1929  0.5809 -0.4727
   14SAPS   H4R 1771   6.746   1.901   2.440 -0.8923 -1.5301  0.0312
   14SAPS   H4S 1772   6.913   1.951   2.458 -0.1925  0.0160  1.0537
   14SAPS   C25 1773   6.872   1.745   2.512  0.2094  0.3141  0.5666
   14SAPS   H5R 1774   6.943   1.669   2.475 -1.1401 -1.2415  1.0331
   14SAPS   C26 1775   6.832   1.720   2.638  0.6179 -0.1551  0.1481
   14SAPS   H6R 1776   6.862   1.625   2.684  0.3848 -1.4502 -2.2038
   14SAPS   C27 1777   6.745   1.811   2.723  0.3563  0.3839  0.0540
   14SAPS   H7R 1778   6.711   1.904   2.673  0.4870  0.2622 -0.2641
   14SAPS   H7S 1779   6.804   1.850   2.809  0.5426  1.1837 -0.4321
   14SAPS   C28 1780   6.622   1.735   2.772  0.5184  1.1849  0.4998
   14SAPS   H8R 1781   6.594   1.644   2.715 -1.5405  1.2753  1.2847
   14SAPS   C29 1782   6.547   1.757   2.880  0.6734 -0.7522 -0.3167
   14SAPS   H9R 1783   6.458   1.699   2.908 -0.5040  0.6303 -1.0462
   14SAPS  C210 1784   6.573   1.862   2.991 -0.2771 -0.1490  0.4200
   14SAPS  H10R 1785   6.474   1.872   3.041  0.0751 -0.1459  1.1310
   14SAPS  H10S 1786   6.604   1.959   2.948  0.3753 -0.8899 -0.8462
   14SAPS  C211 1787   6.668   1.828   3.101  0.0739  0.3099  0.4083
   14SAPS  H11R 1788   6.755   1.774   3.061 -0.2842  0.2677 -0.3400
   14SAPS  C212 1789   6.667   1.874   3.227  0.4099  0.5500  0.8880
   14SAPS  H12R 1790   6.734   1.822   3.296  1.8927  1.4556  0.1788
   14SAPS  C213 1791   6.560   1.960   3.293  0.6393 -0.3868 -0.0926
   14SAPS  H13R 1792   6.474   1.982   3.226  0.7332 -0.2515 -0.1680
   14SAPS  H13S 1793   6.613   2.057   3.308 -0.5528  0.6178 -2.0362
   14SAPS  C214 1794   6.502   1.892   3.412  0.1403 -0.2916  0.8754
   14SAPS  H14R 1795   6.447   1.798   3.406 -1.1143  0.2032  3.3070
   14SAPS  C215 1796   6.521   1.934   3.541 -0.0499 -0.6689 -1.0586
   14SAPS  H15R 1797   6.505   1.856   3.617  0.0590  1.5741  1.4113
   14SAPS  C216 1798   6.600   2.055   3.597 -0.4407  0.7838 -0.3674
   14SAPS  H16R 1799   6.625   2.123   3.512 -2.7876  1.6870 -0.4094
   14SAPS  H16S 1800   6.693   2.029   3.653 -0.1905 -0.7241 -1.4195
   14SAPS  C217 1801   6.511   2.139   3.693 -0.4020 -0.2515  0.7062
   14SAPS  H17R 1802   6.495   2.082   3.786  2.5540  0.6566  1.8827
   14SAPS  H17S 1803   6.409   2.159   3.654 -0.4108  1.9716  1.7151
   14SAPS  C218 1804   6.584   2.277   3.718 -0.4883 -0.1088  0.5358
   14SAPS  H18R 1805   6.602   2.326   3.619 -2.2931 -0.4120  0.0268
   14SAPS  H18S 1806   6.686   2.249   3.750 -0.4502 -2.1867 -1.2169
   14SAPS  C219 1807   6.498   2.373   3.805 -0.1555 -0.1093  0.2918
   14SAPS  H19R 1808   6.504   2.327   3.906 -1.4874 -3.0297 -0.8465
   14SAPS  H19S 1809   6.394   2.346   3.778  0.0617 -1.3365  0.6183
   14SAPS  C220 1810   6.551   2.515   3.797  0.2302 -0.1666 -0.4718
   14SAPS  H20R 1811   6.551   2.555   3.693  0.5476  1.4417  0.1208
   14SAPS  H20S 1812   6.653   2.511   3.840  1.4903 -0.9121 -3.2612
   14SAPS  H20T 1813   6.496   2.587   3.861  1.1844  0.3249 -0.1899
   14SAPS   C33 1814   6.995   2.271   2.622 -0.1337  0.0202  0.5789
   14SAPS   H3X 1815   7.072   2.347   2.597  1.5022 -1.4522  0.9765
   14SAPS   H3Y 1816   7.020   2.188   2.552 -0.5694  0.7345 -0.4510
   14SAPS   C34 1817   7.021   2.209   2.760  0.5925  0.3127 -0.1059
   14SAPS   H4X 1818   7.124   2.236   2.793  0.0869 -0.3820  2.2284
   14SAPS   H4Y 1819   7.015   2.098   2.758 -1.2710  0.3696  0.2555
   14SAPS   C35 1820   6.943   2.270   2.876 -0.1193  0.1174  0.1749
   14SAPS   H5X 1821   6.834   2.246   2.871 -0.3475  1.2834 -0.9199
   14SAPS   H5Y 1822   6.944   2.380   2.862 -0.5062  0.2733  1.2504
   14SAPS   C36 1823   7.005   2.239   3.018  0.2958 -0.2233  0.3694
   14SAPS   H6X 1824   7.101   2.294   3.019  2.1766 -3.2838  1.1972
   14SAPS   H6Y 1825   7.030   2.133   3.037 -2.2591 -0.6850  1.5924
   14SAPS   C37 1826   6.916   2.281   3.136  0.4279  0.5744 -0.6440
   14SAPS   H7X 1827   6.818   2.232   3.118  0.8606 -1.2956  1.6036
   14SAPS   H7Y 1828   6.897   2.390   3.128 -3.0195  0.1000 -0.3909
   14SAPS   C38 1829   6.970   2.232   3.271 -0.3953  0.1603  0.0578
   14SAPS   H8X 1830   7.058   2.298   3.290 -1.2773  1.7395 -1.1171
   14SAPS   H8Y 1831   7.006   2.128   3.255  0.3264  0.6026 -1.3390
   14SAPS   C39 1832   6.869   2.238   3.389 -0.1726  0.1545 -0.6361
   14SAPS   H9X 1833   6.783   2.169   3.381 -0.1639  0.0593  0.0533
   14SAPS   H9Y 1834   6.832   2.343   3.383 -2.0805 -0.5556 -2.6753
   14SAPS  C310 1835   6.934   2.237   3.537 -0.2272  0.2079 -0.0752
   14SAPS  H10X 1836   7.011   2.156   3.533  0.3066  0.7045 -0.0426
   14SAPS  H10Y 1837   6.859   2.204   3.611 -1.1798 -3.7799 -2.4739
   14SAPS  C311 1838   6.995   2.372   3.579 -0.2745  0.4857  0.3196
   14SAPS  H11X 1839   6.912   2.446   3.586 -1.2355 -0.6967  2.3594
   14SAPS  H11Y 1840   7.068   2.398   3.500 -0.8056  0.5476 -0.1595
   14SAPS  C312 1841   7.071   2.365   3.713  0.2925  0.3925  0.0226
   14SAPS  H12X 1842   7.116   2.467   3.714 -1.6848  1.3539 -1.8472
   14SAPS  H12Y 1843   7.146   2.283   3.713 -1.1854 -1.0155  0.2872
   14SAPS  C313 1844   6.984   2.345   3.841  0.1146 -0.5209  0.3001
   14SAPS  H13X 1845   6.919   2.258   3.823 -0.0490 -0.8251  2.1577
   14SAPS  H13Y 1846   6.914   2.431   3.849 -0.0354 -0.4789 -1.1224
   14SAPS  C314 1847   7.059   2.317   3.973 -0.4316  0.0555  0.9199
   14SAPS  H14X 1848   7.127   2.230   3.971 -1.9511 -1.1791 -1.7717
   14SAPS  H14Y 1849   6.982   2.289   4.048 -0.9207  1.8622  1.1557
   14SAPS  C315 1850   7.130   2.446   4.014  0.1892  0.8327  0.6233
   14SAPS  H15X 1851   7.054   2.527   4.023 -0.2746  0.5377 -0.4251
   14SAPS  H15Y 1852   7.209   2.480   3.943 -1.1377  0.7872 -0.9499
   14SAPS  C316 1853   7.192   2.417   4.150 -0.5955 -0.1692  0.1643
   14SAPS  H16X 1854   7.280   2.352   4.129  1.5933  2.3000  1.2159
   14SAPS  H16Y 1855   7.126   2.363   4.222 -1.5421  0.3249 -0.3203
   14SAPS  C317 1856   7.252   2.547   4.211 -0.3428  0.2163  0.0202
   14SAPS  H17X 1857   7.299   2.611   4.135 -1.4217  0.7811 -0.1865
   14SAPS  H17Y 1858   7.325   2.525   4.292 -0.3122  1.0717  0.2261
   14SAPS  C318 1859   7.142   2.637   4.275 -0.0582  1.1637  0.1363
   14SAPS  H18X 1860   7.204   2.706   4.335  1.2128  1.5493 -1.5370
   14SAPS  H18Y 1861   7.073   2.576   4.337  0.1127  1.4793  0.6418
   14SAPS  H18Z 1862   7.091   2.692   4.193 -0.8129  0.8217  0.3702
   15SAPS     N 1863   6.112   2.169   1.347 -0.1285  0.2279 -0.0699
   15SAPS   HN1 1864   6.138   2.107   1.268 -2.0240 -1.3385  0.4775
   15SAPS   HN2 1865   6.085   2.263   1.311  1.5048  0.7763  0.0327
   15SAPS   HN3 1866   6.193   2.166   1.412  0.9475 -0.7260 -1.4039
   15SAPS   C12 1867   5.996   2.102   1.411  0.2357 -0.2148 -0.1838
   15SAPS  H12A 1868   5.932   2.186   1.434  0.0865 -0.1880 -0.6735
   15SAPS   C13 1869   5.923   2.019   1.306  0.1859  0.0648  1.8082
   15SAPS  O13A 1870   5.976   2.008   1.188 -0.1782  0.6836 -0.1997
   15SAPS  O13B 1871   5.808   1.971   1.327 -0.0319  0.0113 -0.2325
   15SAPS   C11 1872   6.033   2.031   1.539 -0.0522 -0.1509 -0.4077
   15SAPS  H11A 1873   6.130   1.978   1.527  0.6706  1.1181 -0.3543
   15SAPS  H11B 1874   5.953   1.958   1.559 -1.7441  0.6035 -3.7407
   15SAPS     P 1875   6.040   2.086   1.799  0.3064 -0.2997  0.4170
   15SAPS   O13 1876   6.173   2.040   1.834 -0.8729  0.1470  0.2362
   15SAPS   O14 1877   5.998   2.217   1.860 -0.2169  0.3523 -0.1697
   15SAPS   O12 1878   6.041   2.115   1.647 -0.0869  0.3722 -0.5360
   15SAPS   O11 1879   5.939   1.966   1.813  0.3414 -0.2677 -0.1211
   15SAPS    C1 1880   5.798   1.975   1.806  0.6867  0.5871 -0.3324
   15SAPS    HA 1881   5.766   2.049   1.729 -0.0497  0.3747 -0.2391
   15SAPS    HB 1882   5.762   1.877   1.769  1.5527 -0.8045  2.3227
   15SAPS    C2 1883   5.732   2.018   1.947 -0.1516  1.0362  0.2509
   15SAPS    HS 1884   5.749   2.127   1.963  0.4078  1.7587 -4.2102
   15SAPS   O21 1885   5.795   1.936   2.043 -0.1835 -0.5316 -0.6230
   15SAPS   C21 1886   5.834   1.999   2.155 -0.2148  0.7399 -0.2756
   15SAPS   O22 1887   5.828   2.119   2.167  0.1128  0.2292 -0.3033
   15SAPS   C22 1888   5.892   1.898   2.255  0.5938  0.3202 -0.1069
   15SAPS   H2R 1889   5.807   1.862   2.318  2.1625 -0.9367  1.3877
   15SAPS   H2S 1890   5.937   1.812   2.202  0.3174  0.9087 -1.3333
   15SAPS    C3 1891   5.578   1.996   1.942  0.0433  0.1827 -0.1422
   15SAPS    HX 1892   5.544   1.895   1.912 -1.8135  0.9441 -0.7501
   15SAPS    HY 1893   5.543   2.060   1.858 -0.2986 -0.3713 -0.4288
   15SAPS   O31 1894   5.517   2.039   2.068  0.0524 -0.1285  0.0095
   15SAPS   C31 1895   5.518   1.950   2.171 -0.1428  0.1207 -0.1109
   15SAPS   O32 1896   5.564   1.839   2.168  0.6275 -0.0339 -0.5897
   15SAPS   C32 1897   5.469   2.016   2.298  0.6500  0.2286 -0.3013
   15SAPS   H2X 1898   5.384   1.950   2.326  1.3414 -0.4517  0.2596
   15SAPS   H2Y 1899   5.422   2.113   2.272 -3.4905 -1.9057 -1.6805
   15SAPS   C23 1900   5.973   1.962   2.374 -0.2825  0.2601 -0.4118
   15SAPS   H3R 1901   5.977   1.903   2.468  2.8913  2.8582  1.2791
   15SAPS   H3S 1902   5.930   2.062   2.397 -0.8287 -0.1585  0.4454
   15SAPS   C24 1903   6.123   1.975   2.346  0.6314  0.5356 -0.1184
   15SAPS   H4R 1904   6.154   1.883   2.292  0.5893  0.4000  0.0858
   15SAPS   H4S 1905   6.172   1.988   2.445  1.6767  0.8987 -0.6662
   15SAPS   C25 1906   6.142   2.096   2.262 -0.2913 -0.0009 -0.0192
   15SAPS   H5R 1907   6.093   2.101   2.164 -0.0854 -0.3855 -0.1411
   15SAPS   C26 1908   6.216   2.209   2.296  0.0628  0.7105 -0.7137
   15SAPS   H6R 1909   6.227   2.289   2.221 -0.1533 -0.8200 -2.4275
   15SAPS   C27 1910   6.300   2.218   2.425 -0.3526 -0.1094  0.2660
   15SAPS   H7R 1911   6.252   2.193   2.522 -1.4009 -0.5299 -0.3380
   15SAPS   H7S 1912   6.330   2.325   2.434  0.3695 -0.2300 -0.6013
   15SAPS   C28 1913   6.424   2.133   2.400  0.5512  0.2839 -0.0251
   15SAPS   H8R 1914   6.436   2.097   2.297 -2.3562  1.7866 -0.9872
   15SAPS   C29 1915   6.507   2.075   2.500  0.4486 -0.6639  0.3776
   15SAPS   H9R 1916   6.600   2.024   2.471  0.3711 -0.8960  0.5287
   15SAPS  C210 1917   6.500   2.109   2.647 -0.0282  0.1580  0.4986
   15SAPS  H10R 1918   6.573   2.046   2.702  0.3083 -0.1829 -0.3291
   15SAPS  H10S 1919   6.403   2.068   2.685  0.1501 -0.3263  0.4413
   15SAPS  C211 1920   6.519   2.250   2.696  0.9235 -0.4211 -0.1536
   15SAPS  H11R 1921   6.577   2.322   2.635  0.6665  2.0659  2.2952
   15SAPS  C212 1922   6.459   2.306   2.804  0.3648  0.4999 -0.5806
   15SAPS  H12R 1923   6.475   2.412   2.830 -2.1576  0.1635  3.2865
   15SAPS  C213 1924   6.372   2.248   2.915 -0.1397  0.6210  0.6971
   15SAPS  H13R 1925   6.335   2.145   2.894  0.3446  0.5911 -0.0507
   15SAPS  H13S 1926   6.277   2.303   2.929 -2.4684 -2.1222 -2.5831
   15SAPS  C214 1927   6.452   2.230   3.036 -1.1566 -0.1549 -0.2636
   15SAPS  H14R 1928   6.515   2.140   3.030  0.5288  0.7535  2.2747
   15SAPS  C215 1929   6.470   2.316   3.130 -0.3740  0.0116  0.1608
   15SAPS  H15R 1930   6.536   2.292   3.215 -1.6444  3.2038  2.2354
   15SAPS  C216 1931   6.410   2.449   3.149 -0.0302 -0.2714 -0.0857
   15SAPS  H16R 1932   6.323   2.468   3.084  1.3458 -0.7712 -2.1671
   15SAPS  H16S 1933   6.491   2.518   3.115 -1.2571  1.3488  0.1747
   15SAPS  C217 1934   6.365   2.489   3.291  0.5472  0.3198 -0.0445
   15SAPS  H17R 1935   6.348   2.599   3.293 -3.0046 -0.1448  1.8346
   15SAPS  H17S 1936   6.446   2.471   3.366 -0.0264  0.0653  0.5174
   15SAPS  C218 1937   6.241   2.415   3.328  0.9404  0.1078  0.4694
   15SAPS  H18R 1938   6.232   2.312   3.288  1.8719  0.3223 -0.3335
   15SAPS  H18S 1939   6.147   2.456   3.284 -0.4410 -0.8517  2.3922
   15SAPS  C219 1940   6.218   2.406   3.488 -0.7661 -0.1093  0.0462
   15SAPS  H19R 1941   6.306   2.357   3.534  0.7806  1.3503 -1.2082
   15SAPS  H19S 1942   6.133   2.336   3.503 -1.5438  0.7909 -0.0632
   15SAPS  C220 1943   6.197   2.542   3.553 -0.3241 -0.5098 -0.2751
   15SAPS  H20R 1944   6.289   2.604   3.555  0.4492 -1.6193  2.4051
   15SAPS  H20S 1945   6.177   2.526   3.661  0.0196 -0.6735 -0.2363
   15SAPS  H20T 1946   6.114   2.600   3.507 -0.6354  0.2391  1.1761
   15SAPS   C33 1947   5.556   2.007   2.430  0.0781 -0.9517 -0.0727
   15SAPS   H3X 1948   5.524   2.085   2.502 -1.7889  0.1843 -2.0197
   15SAPS   H3Y 1949   5.656   2.041   2.398 -0.5409 -0.1739 -1.2535
   15SAPS   C34 1950   5.537   1.864   2.492 -0.2585 -1.6030  1.1948
   15SAPS   H4X 1951   5.561   1.796   2.408  1.2019  0.2458  0.0231
   15SAPS   H4Y 1952   5.441   1.838   2.540  0.1850 -1.6610  2.0814
   15SAPS   C35 1953   5.654   1.842   2.590 -0.3629  0.0735 -0.3263
   15SAPS   H5X 1954   5.636   1.899   2.684 -2.6690  1.1642 -1.3809
   15SAPS   H5Y 1955   5.747   1.886   2.548 -0.5243  1.5693  0.8148
   15SAPS   C36 1956   5.693   1.698   2.622 -0.3409 -0.5189 -0.3996
   15SAPS   H6X 1957   5.765   1.661   2.546  1.0790  2.4605 -0.6377
   15SAPS   H6Y 1958   5.603   1.634   2.636 -1.7284  1.3793 -0.0888
   15SAPS   C37 1959   5.755   1.684   2.763  0.0158  1.0384 -0.3182
   15SAPS   H7X 1960   5.857   1.727   2.769  1.3558 -1.7721 -1.3340
   15SAPS   H7Y 1961   5.757   1.576   2.789  1.6065  0.7752 -1.4154
   15SAPS   C38 1962   5.672   1.734   2.888  0.1435 -0.3688 -0.2795
   15SAPS   H8X 1963   5.568   1.697   2.880 -0.0551 -0.7520  2.7970
   15SAPS   H8Y 1964   5.673   1.845   2.894  1.9183 -0.4267  1.9504
   15SAPS   C39 1965   5.731   1.680   3.016  0.3854  0.5971 -0.3941
   15SAPS   H9X 1966   5.833   1.722   3.014  0.2141  1.0773  0.4196
   15SAPS   H9Y 1967   5.738   1.570   2.999 -1.0340  0.1625  1.4714
   15SAPS  C310 1968   5.660   1.700   3.150  0.3578 -0.4968  0.9388
   15SAPS  H10X 1969   5.556   1.663   3.133  0.0886  1.3282 -2.1553
   15SAPS  H10Y 1970   5.652   1.809   3.167 -0.3306 -0.3982  0.0756
   15SAPS  C311 1971   5.734   1.634   3.266  0.0891 -0.4760 -0.2303
   15SAPS  H11X 1972   5.842   1.656   3.261 -0.2072  1.4709  0.9561
   15SAPS  H11Y 1973   5.718   1.524   3.257  1.1860 -0.7753  1.0846
   15SAPS  C312 1974   5.680   1.667   3.406 -0.5612 -0.1757  0.9148
   15SAPS  H12X 1975   5.582   1.616   3.418 -0.3693 -0.3246  1.8975
   15SAPS  H12Y 1976   5.686   1.777   3.419  0.0685 -0.2223  1.0529
   15SAPS  C313 1977   5.782   1.607   3.508 -0.5209 -0.3590 -0.0859
   15SAPS  H13X 1978   5.879   1.659   3.496 -1.3519  1.9397  2.3662
   15SAPS  H13Y 1979   5.790   1.498   3.485  0.8076  0.0188 -1.5773
   15SAPS  C314 1980   5.749   1.641   3.652 -0.0858 -0.0894 -0.8343
   15SAPS  H14X 1981   5.644   1.617   3.680  0.1930  1.0028  1.4343
   15SAPS  H14Y 1982   5.772   1.749   3.665  1.7820 -0.4223 -1.1175
   15SAPS  C315 1983   5.838   1.563   3.752 -0.3233  0.3234 -0.2198
   15SAPS  H15X 1984   5.824   1.594   3.857  0.5191 -1.1655  0.3618
   15SAPS  H15Y 1985   5.946   1.579   3.729  1.0954 -4.7070  1.5564
   15SAPS  C316 1986   5.807   1.416   3.757 -0.5067  0.4830 -0.2175
   15SAPS  H16X 1987   5.825   1.370   3.657  0.5313  1.5209 -0.5252
   15SAPS  H16Y 1988   5.698   1.405   3.778 -0.9925  0.3743 -2.5302
   15SAPS  C317 1989   5.893   1.340   3.860 -0.1749 -0.2318 -0.6376
   15SAPS  H17X 1990   5.850   1.366   3.959  0.1438  2.1875 -1.0902
   15SAPS  H17Y 1991   5.998   1.375   3.862 -0.3177  0.3927 -2.3646
   15SAPS  C318 1992   5.891   1.190   3.837  0.1016 -0.5011  0.0268
   15SAPS  H18X 1993   5.792   1.139   3.844  0.9406 -2.4206 -1.1159
   15SAPS  H18Y 1994   5.961   1.147   3.912 -1.8117 -1.6400  1.2255
   15SAPS  H18Z 1995   5.930   1.177   3.733 -0.5623 -1.1047 -0.1543
   16SAPS     N 1996   1.228   2.858   2.353  1.0939 -0.0893 -0.6364
   16SAPS   HN1 1997   1.267   2.929   2.418 -1.4737  0.2073  0.7282
   16SAPS   HN2 1998   1.134   2.854   2.398  0.8593  0.5854 -1.0519
   16SAPS   HN3 1999   1.287   2.774   2.366 -0.7024 -1.5659 -1.4322
   16SAPS   C12 2000   1.196   2.906   2.211  0.1892  0.7613 -0.1184
   16SAPS  H12A 2001   1.117   2.843   2.173  1.2098 -0.1256 -0.8222
   16SAPS   C13 2002   1.143   3.051   2.214  0.4253  0.6001 -0.3894
   16SAPS  O13A 2003   1.119   3.103   2.329  0.2479  0.0867  0.7233
   16SAPS  O13B 2004   1.089   3.090   2.109 -0.2322  0.4140 -0.4340
   16SAPS   C11 2005   1.321   2.897   2.125  0.6796 -0.1854  0.2811
   16SAPS  H11A 2006   1.400   2.965   2.164  1.4869 -0.7877 -0.2838
   16SAPS  H11B 2007   1.288   2.915   2.020 -0.8413 -0.7899  0.6332
   16SAPS     P 2008   1.469   2.732   2.002  0.0312  0.2442 -0.0560
   16SAPS   O13 2009   1.378   2.755   1.888  0.5691 -0.4219 -0.2181
   16SAPS   O14 2010   1.593   2.817   1.995  0.1543 -0.2445  0.3258
   16SAPS   O12 2011   1.386   2.762   2.135  0.2064 -0.3343 -0.1297
   16SAPS   O11 2012   1.499   2.577   2.014  0.2124 -0.1132  0.2283
   16SAPS    C1 2013   1.442   2.484   2.110 -0.9031 -0.6553  1.0682
   16SAPS    HA 2014   1.331   2.481   2.113 -1.0068 -1.5873 -1.3230
   16SAPS    HB 2015   1.466   2.384   2.068  1.3239 -0.2930  1.3339
   16SAPS    C2 2016   1.500   2.507   2.244  0.3645 -0.8091  0.3814
   16SAPS    HS 2017   1.477   2.610   2.278  0.8791 -0.4587 -0.3015
   16SAPS   O21 2018   1.641   2.482   2.234  0.5154  0.4569 -0.3127
   16SAPS   C21 2019   1.717   2.557   2.314 -0.1476  0.3045  0.0855
   16SAPS   O22 2020   1.672   2.636   2.396 -0.1239  0.1693  0.2574
   16SAPS   C22 2021   1.860   2.525   2.279 -0.1034  0.6389 -0.1845
   16SAPS   H2R 2022   1.876   2.415   2.288  0.8057  0.5256 -2.4739
   16SAPS   H2S 2023   1.898   2.570   2.184  1.3113  1.3465  0.6779
   16SAPS    C3 2024   1.435   2.403   2.344  0.7111  1.1657 -0.1493
   16SAPS    HX 2025   1.477   2.300   2.341 -0.4041  0.6034  2.0318
   16SAPS    HY 2026   1.326   2.404   2.324  0.8870 -0.6469 -1.4641
   16SAPS   O31 2027   1.457   2.446   2.481 -0.4597 -0.5217 -0.1015
   16SAPS   C31 2028   1.396   2.557   2.520  0.0301 -0.6972 -0.2275
   16SAPS   O32 2029   1.312   2.624   2.458  0.3823  0.1007  0.3059
   16SAPS   C32 2030   1.449   2.603   2.653  0.0769 -0.8238 -0.2778
   16SAPS   H2X 2031   1.553   2.642   2.653 -0.0407 -0.3743  2.0102
   16SAPS   H2Y 2032   1.440   2.516   2.721  1.3976 -0.6540  0.1382
   16SAPS   C23 2033   1.958   2.605   2.364  0.3117 -0.1766  0.6985
   16SAPS   H3R 2034   1.912   2.695   2.410  0.0214 -0.1801  0.4164
   16SAPS   H3S 2035   2.050   2.636   2.310  1.5176 -1.8112  1.7010
   16SAPS   C24 2036   2.015   2.507   2.468 -0.1115  0.6125 -0.2106
   16SAPS   H4R 2037   2.058   2.426   2.405  1.7496  1.2558  0.1643
   16SAPS   H4S 2038   1.939   2.456   2.530 -0.1489 -0.0663 -0.8126
   16SAPS   C25 2039   2.130   2.559   2.549 -1.0996  0.5678  1.2371
   16SAPS   H5R 2040   2.231   2.541   2.509 -1.7692 -1.3036  0.2691
   16SAPS   C26 2041   2.124   2.588   2.686  0.3044 -0.1251  0.1207
   16SAPS   H6R 2042   2.217   2.604   2.740  0.4703  1.8951 -0.6772
   16SAPS   C27 2043   1.996   2.587   2.768 -0.0773 -0.4403  0.0558
   16SAPS   H7R 2044   1.902   2.607   2.712  0.3997  1.5815 -0.1268
   16SAPS   H7S 2045   2.008   2.669   2.842 -3.0817  0.3827 -0.2285
   16SAPS   C28 2046   1.986   2.452   2.831 -0.0095  0.1556 -0.1172
   16SAPS   H8R 2047   1.911   2.394   2.776  0.1294 -0.5890  0.4619
   16SAPS   C29 2048   2.026   2.411   2.953 -0.0734  0.0072 -1.0100
   16SAPS   H9R 2049   2.004   2.309   2.988  0.1400  0.2123 -0.2708
   16SAPS  C210 2050   2.114   2.492   3.048 -0.0357  0.3785 -0.7705
   16SAPS  H10R 2051   2.175   2.562   2.986 -1.3613  1.2401 -1.1260
   16SAPS  H10S 2052   2.187   2.432   3.108  1.7046  2.5539 -0.5696
   16SAPS  C211 2053   2.042   2.592   3.141  0.1651  0.6347 -1.1327
   16SAPS  H11R 2054   2.060   2.699   3.124  1.2116  0.9381  1.3709
   16SAPS  C212 2055   1.981   2.559   3.262  0.4426 -1.0418  0.8045
   16SAPS  H12R 2056   1.951   2.636   3.334  2.2320  1.1090 -0.6152
   16SAPS  C213 2057   1.978   2.410   3.299 -0.3578 -0.7562 -0.1171
   16SAPS  H13R 2058   2.038   2.352   3.225  1.7142  0.6253  0.3921
   16SAPS  H13S 2059   1.870   2.385   3.287 -0.2658 -0.7262 -1.0738
   16SAPS  C214 2060   2.022   2.373   3.441 -0.6137  0.1228  0.8632
   16SAPS  H14R 2061   2.120   2.322   3.442 -1.2533 -1.2236 -0.7239
   16SAPS  C215 2062   1.952   2.375   3.556 -0.5962  0.3491  0.2423
   16SAPS  H15R 2063   2.002   2.336   3.646  2.1364  0.4326 -1.1544
   16SAPS  C216 2064   1.820   2.439   3.579 -0.8288  0.0031 -0.2786
   16SAPS  H16R 2065   1.790   2.497   3.489 -0.1353  0.5185 -0.1893
   16SAPS  H16S 2066   1.837   2.512   3.662 -1.3110 -0.2878  0.0819
   16SAPS  C217 2067   1.702   2.341   3.602 -0.1096 -0.1054 -0.1359
   16SAPS  H17R 2068   1.619   2.402   3.642 -0.4893  0.1488 -1.2903
   16SAPS  H17S 2069   1.732   2.263   3.675 -2.5786  0.4956  1.6521
   16SAPS  C218 2070   1.669   2.271   3.478 -0.3257 -0.2229  0.1418
   16SAPS  H18R 2071   1.749   2.206   3.435 -0.5523 -0.8309  0.6194
   16SAPS  H18S 2072   1.643   2.347   3.402  0.7502  1.6506  1.5395
   16SAPS  C219 2073   1.541   2.186   3.491  0.0256  0.4973  0.3130
   16SAPS  H19R 2074   1.455   2.246   3.528  0.7723  1.8099 -0.0111
   16SAPS  H19S 2075   1.558   2.125   3.582  0.3717 -1.3762 -0.9605
   16SAPS  C220 2076   1.507   2.096   3.369 -0.1690  0.0159 -0.1707
   16SAPS  H20R 2077   1.421   2.028   3.388  1.7705 -2.8368 -0.8293
   16SAPS  H20S 2078   1.589   2.023   3.353 -0.1426  0.6519 -3.7074
   16SAPS  H20T 2079   1.497   2.160   3.279  1.7887 -0.0485 -0.4646
   16SAPS   C33 2080   1.365   2.722   2.709  0.2987  0.6901 -0.3739
   16SAPS   H3X 2081   1.262   2.687   2.732  0.7176 -0.3605 -0.0222
   16SAPS   H3Y 2082   1.341   2.798   2.631 -0.9486  1.7893  1.0120
   16SAPS   C34 2083   1.432   2.797   2.819 -0.2844  0.2348  0.1903
   16SAPS   H4X 2084   1.529   2.833   2.777 -0.0107 -2.6590 -2.0308
   16SAPS   H4Y 2085   1.456   2.738   2.910  1.4467  1.7728  0.8054
   16SAPS   C35 2086   1.354   2.917   2.866 -0.8261  0.1674  0.4517
   16SAPS   H5X 2087   1.248   2.887   2.877 -0.7405 -0.0018  0.8282
   16SAPS   H5Y 2088   1.372   3.000   2.794 -0.2861  1.0596  1.5943
   16SAPS   C36 2089   1.409   2.973   2.998  0.2384  0.0750 -1.1122
   16SAPS   H6X 2090   1.519   2.969   2.991  0.2148 -2.6516 -1.1409
   16SAPS   H6Y 2091   1.400   2.907   3.087 -2.8312  0.9736 -0.6373
   16SAPS   C37 2092   1.357   3.117   3.028  0.1766  0.5175 -0.0092
   16SAPS   H7X 2093   1.247   3.108   3.041  0.2571  0.5532  0.7192
   16SAPS   H7Y 2094   1.375   3.182   2.939  2.3305  0.6367  0.4549
   16SAPS   C38 2095   1.416   3.183   3.159  0.1718  0.9982 -0.4082
   16SAPS   H8X 2096   1.355   3.272   3.182 -0.0373  0.1929  2.6854
   16SAPS   H8Y 2097   1.524   3.207   3.145  1.0933 -1.4183  1.7586
   16SAPS   C39 2098   1.399   3.101   3.283 -0.4531 -0.6704 -0.5005
   16SAPS   H9X 2099   1.445   3.161   3.364 -0.4434 -0.5003 -0.6321
   16SAPS   H9Y 2100   1.457   3.007   3.273  0.1322 -0.4778  0.7822
   16SAPS  C310 2101   1.256   3.075   3.324  0.1598 -0.0478  0.7739
   16SAPS  H10X 2102   1.201   3.036   3.236 -0.0672  0.6841  0.5789
   16SAPS  H10Y 2103   1.204   3.171   3.345  1.2831  0.8599 -0.4453
   16SAPS  C311 2104   1.240   2.970   3.439  0.6796  0.1370 -0.3492
   16SAPS  H11X 2105   1.298   2.886   3.396  0.1647 -1.0497  1.1992
   16SAPS  H11Y 2106   1.134   2.939   3.446  1.2111 -2.3628 -2.0914
   16SAPS  C312 2107   1.292   3.027   3.574 -0.0382  0.4111 -0.1278
   16SAPS  H12X 2108   1.401   3.047   3.567  0.3466 -1.3960  0.1756
   16SAPS  H12Y 2109   1.272   2.938   3.638 -0.0993 -0.7031 -1.6507
   16SAPS  C313 2110   1.209   3.143   3.637  0.2597  0.0347 -0.4302
   16SAPS  H13X 2111   1.102   3.112   3.635 -0.8911  3.6642 -1.0823
   16SAPS  H13Y 2112   1.206   3.235   3.574 -4.5978  2.4688  2.7828
   16SAPS  C314 2113   1.253   3.191   3.783 -0.1638 -0.3159  0.2190
   16SAPS  H14X 2114   1.187   3.276   3.811  1.4749  0.8864  0.5555
   16SAPS  H14Y 2115   1.359   3.224   3.779 -0.6347  1.3690  0.8363
   16SAPS  C315 2116   1.235   3.090   3.898 -0.0354  0.8030  0.2783
   16SAPS  H15X 2117   1.294   2.999   3.874  0.6929  1.9299 -2.5349
   16SAPS  H15Y 2118   1.130   3.055   3.888  0.6763 -1.5642  0.4883
   16SAPS  C316 2119   1.285   3.146   4.034 -0.0024  0.6502 -0.4240
   16SAPS  H16X 2120   1.240   3.246   4.052 -1.9865 -0.3705  0.6445
   16SAPS  H16Y 2121   1.396   3.141   4.037 -0.0701 -2.7974  1.0210
   16SAPS  C317 2122   1.229   3.060   4.145 -0.1328  0.2845  0.4130
   16SAPS  H17X 2123   1.263   2.954   4.136 -1.7535 -0.1023 -2.1737
   16SAPS  H17Y 2124   1.120   3.066   4.126 -0.2211 -0.4622  0.6404
   16SAPS  C318 2125   1.266   3.109   4.283  0.8821  0.3483 -0.1652
   16SAPS  H18X 2126   1.258   3.034   4.365  1.8960 -2.3356 -2.3849
   16SAPS  H18Y 2127   1.200   3.198   4.294 -0.4434 -0.2596 -2.4840
   16SAPS  H18Z 2128   1.372   3.142   4.283  0.6392  1.1644 -0.8546
   17SAPS     N 2129   3.036   6.021   2.323  0.2032 -0.2553  0.3142
   17SAPS   HN1 2130   3.123   5.982   2.364  0.4264 -1.0045 -0.8335
   17SAPS   HN2 2131   3.046   6.124   2.330  2.3477 -0.5221  2.4665
   17SAPS   HN3 2132   2.945   5.996   2.367  0.3729 -0.7008  0.4234
   17SAPS   C12 2133   3.020   5.981   2.179  0.5872  0.2108 -0.4470
   17SAPS  H12A 2134   3.000   5.875   2.186 -1.9282  0.6931  0.6906
   17SAPS   C13 2135   2.902   6.038   2.100  0.1588 -0.7416 -0.3651
   17SAPS  O13A 2136   2.839   6.136   2.156 -0.4050 -0.2321 -0.9730
   17SAPS  O13B 2137   2.885   6.009   1.977  0.3514 -0.5470  0.3760
   17SAPS   C11 2138   3.148   6.016   2.098  0.3624 -0.6183 -0.7284
   17SAPS  H11A 2139   3.157   6.126   2.091  0.0756 -0.5214  0.2566
   17SAPS  H11B 2140   3.147   5.980   1.992  0.7403 -0.5034 -0.7721
   17SAPS     P 2141   3.409   6.024   2.130 -0.0976 -0.2506  0.0018
   17SAPS   O13 2142   3.419   6.002   1.984  0.6362 -0.4068 -0.4560
   17SAPS   O14 2143   3.425   6.164   2.180  0.0493 -0.3175  0.6617
   17SAPS   O12 2144   3.267   5.975   2.167  0.1505 -0.0615  0.0425
   17SAPS   O11 2145   3.509   5.928   2.207  0.0518  0.2590  0.7866
   17SAPS    C1 2146   3.469   5.849   2.321 -0.3168 -0.0596  0.4710
   17SAPS    HA 2147   3.372   5.880   2.367  0.6375  0.2947  2.3450
   17SAPS    HB 2148   3.443   5.748   2.283 -3.0800  0.8799 -0.3872
   17SAPS    C2 2149   3.585   5.844   2.420 -0.0349  0.7175  0.0730
   17SAPS    HS 2150   3.559   5.771   2.500  0.0633  0.0058 -0.5296
   17SAPS   O21 2151   3.626   5.967   2.479 -0.2299 -0.0869  0.2139
   17SAPS   C21 2152   3.536   6.025   2.564 -0.4796  0.6378  0.2240
   17SAPS   O22 2153   3.429   5.980   2.592 -0.2117  0.1307 -0.1205
   17SAPS   C22 2154   3.599   6.145   2.626 -0.0908  0.7863 -0.6676
   17SAPS   H2R 2155   3.693   6.095   2.659 -0.7351 -1.3813 -1.9023
   17SAPS   H2S 2156   3.616   6.230   2.556  0.1767  0.6737 -0.7387
   17SAPS    C3 2157   3.709   5.779   2.347 -0.2981 -0.3109 -0.0037
   17SAPS    HX 2158   3.735   5.856   2.271 -0.6818 -1.3366 -1.1887
   17SAPS    HY 2159   3.686   5.694   2.279 -1.4890  0.3159 -0.4169
   17SAPS   O31 2160   3.815   5.749   2.439 -0.2521  0.5065  0.1716
   17SAPS   C31 2161   3.841   5.621   2.458 -0.3568  0.1818  0.5715
   17SAPS   O32 2162   3.784   5.532   2.398 -0.7260  1.3618 -0.0008
   17SAPS   C32 2163   3.949   5.594   2.574 -0.3656 -0.7104  0.5232
   17SAPS   H2X 2164   3.982   5.697   2.598  0.3206 -1.1976  1.7179
   17SAPS   H2Y 2165   4.026   5.540   2.516 -1.6193 -0.4089 -1.5385
   17SAPS   C23 2166   3.520   6.199   2.743  0.1046  0.7399  0.2732
   17SAPS   H3R 2167   3.466   6.118   2.797  3.3434 -0.4006  2.0662
   17SAPS   H3S 2168   3.438   6.270   2.722 -1.1646 -0.0427  2.2696
   17SAPS   C24 2169   3.601   6.259   2.860  0.1461  0.6022  0.0436
   17SAPS   H4R 2170   3.672   6.180   2.892 -0.6132 -0.1839 -0.1763
   17SAPS   H4S 2171   3.527   6.279   2.940 -0.7526 -1.3628 -0.2415
   17SAPS   C25 2172   3.678   6.375   2.815  0.5552 -0.4194  0.9009
   17SAPS   H5R 2173   3.774   6.346   2.770 -0.6451 -1.1171 -1.4260
   17SAPS   C26 2174   3.635   6.502   2.803  0.0848  0.3065  0.3272
   17SAPS   H6R 2175   3.698   6.566   2.739  0.9275 -0.8465 -0.0225
   17SAPS   C27 2176   3.508   6.573   2.850  0.8269  0.1141  0.4714
   17SAPS   H7R 2177   3.520   6.600   2.957 -1.0184 -0.3919  0.8420
   17SAPS   H7S 2178   3.423   6.502   2.858  1.5776 -0.9292 -0.5198
   17SAPS   C28 2179   3.458   6.677   2.759  0.5518  0.2517  0.5703
   17SAPS   H8R 2180   3.405   6.640   2.670  0.5561  1.4957  0.0212
   17SAPS   C29 2181   3.472   6.811   2.770  0.4117 -0.0806  0.7379
   17SAPS   H9R 2182   3.436   6.874   2.688 -0.0114 -1.3876 -0.1156
   17SAPS  C210 2183   3.552   6.875   2.885  0.8150  0.8050  0.3206
   17SAPS  H10R 2184   3.618   6.797   2.928 -0.0698 -1.6616 -2.5069
   17SAPS  H10S 2185   3.470   6.890   2.960  2.3461  0.0651  2.2243
   17SAPS  C211 2186   3.630   7.007   2.869 -0.3522  0.3536 -0.0020
   17SAPS  H11R 2187   3.739   6.997   2.881  0.0845  3.0809 -1.0389
   17SAPS  C212 2188   3.583   7.124   2.832 -0.2525 -0.0673  0.5483
   17SAPS  H12R 2189   3.660   7.202   2.818  0.1102  0.0570  2.8601
   17SAPS  C213 2190   3.433   7.166   2.797 -0.5380  0.1534 -0.1233
   17SAPS  H13R 2191   3.402   7.094   2.718  2.3046 -0.4613 -0.7921
   17SAPS  H13S 2192   3.425   7.269   2.757  0.6463  0.2498 -0.1459
   17SAPS  C214 2193   3.337   7.157   2.915 -0.8501  0.3177 -0.3454
   17SAPS  H14R 2194   3.378   7.220   2.996  2.0504 -0.9723 -0.6891
   17SAPS  C215 2195   3.215   7.098   2.927 -0.7064  0.2564 -0.2013
   17SAPS  H15R 2196   3.165   7.099   3.025  1.6825 -1.1479  1.1235
   17SAPS  C216 2197   3.142   7.002   2.835  0.7854  0.3264  0.5752
   17SAPS  H16R 2198   3.197   6.964   2.746  0.7661  1.5468  0.0284
   17SAPS  H16S 2199   3.073   7.075   2.788  1.3666 -0.0417 -0.9234
   17SAPS  C217 2200   3.059   6.887   2.888  0.3960 -0.0154  0.4042
   17SAPS  H17R 2201   2.968   6.866   2.829  1.1654 -1.9732 -0.1672
   17SAPS  H17S 2202   3.017   6.920   2.986 -0.1740  1.3708 -0.2862
   17SAPS  C218 2203   3.136   6.757   2.913  0.4357  0.3283 -0.4773
   17SAPS  H18R 2204   3.237   6.787   2.951 -0.0955  0.5536  0.8065
   17SAPS  H18S 2205   3.145   6.704   2.815  0.5086 -1.9269  0.6737
   17SAPS  C219 2206   3.079   6.651   3.006 -0.1336  0.3498  0.3827
   17SAPS  H19R 2207   3.152   6.568   3.001 -0.3539  0.2242 -1.1125
   17SAPS  H19S 2208   2.989   6.610   2.955  0.2567  0.2130 -0.1980
   17SAPS  C220 2209   3.057   6.694   3.150 -0.9705  0.0733  0.0186
   17SAPS  H20R 2210   3.037   6.606   3.214  1.3844  0.0434  0.7989
   17SAPS  H20S 2211   2.979   6.770   3.171  0.1923  0.9529  1.3730
   17SAPS  H20T 2212   3.155   6.727   3.191 -0.7914 -0.6248  0.1563
   17SAPS   C33 2213   3.911   5.505   2.685 -0.0487  0.4628  0.1236
   17SAPS   H3X 2214   4.000   5.488   2.750  0.2269  0.3565 -0.2714
   17SAPS   H3Y 2215   3.875   5.408   2.644  2.1922 -0.1451 -0.5587
   17SAPS   C34 2216   3.796   5.560   2.778 -0.3450 -0.6637  0.6184
   17SAPS   H4X 2217   3.709   5.597   2.719  0.9520 -0.1093 -1.0121
   17SAPS   H4Y 2218   3.820   5.648   2.841 -0.1447 -0.5638  0.4047
   17SAPS   C35 2219   3.749   5.451   2.874 -0.0274 -0.1197 -0.4071
   17SAPS   H5X 2220   3.706   5.362   2.824 -0.1968 -0.0093 -0.4601
   17SAPS   H5Y 2221   3.672   5.498   2.939 -1.3837  0.2045 -2.1738
   17SAPS   C36 2222   3.865   5.402   2.969  0.1886 -0.5050 -0.3478
   17SAPS   H6X 2223   3.929   5.480   3.015  0.4996 -0.2610 -1.1626
   17SAPS   H6Y 2224   3.940   5.346   2.908  0.5831  0.9209 -1.2164
   17SAPS   C37 2225   3.804   5.306   3.076 -0.3393 -0.6909  0.6586
   17SAPS   H7X 2226   3.786   5.210   3.023 -1.9525 -0.5819  0.9809
   17SAPS   H7Y 2227   3.701   5.337   3.102 -0.0183  1.3311 -0.2250
   17SAPS   C38 2228   3.893   5.286   3.199  0.3170  0.8583 -0.4437
   17SAPS   H8X 2229   3.999   5.287   3.166  0.1478 -0.0073 -1.0557
   17SAPS   H8Y 2230   3.868   5.181   3.228 -0.4269  1.0544 -0.3587
   17SAPS   C39 2231   3.858   5.391   3.310  1.0210 -0.2960 -0.5673
   17SAPS   H9X 2232   3.750   5.408   3.328  1.1409  1.0336 -0.9639
   17SAPS   H9Y 2233   3.900   5.488   3.274 -0.5017 -0.3763 -2.7883
   17SAPS  C310 2234   3.915   5.352   3.447 -0.8513  0.1761 -0.1665
   17SAPS  H10X 2235   4.026   5.347   3.440 -0.9586 -1.7169 -1.1343
   17SAPS  H10Y 2236   3.883   5.253   3.485  0.8427  0.1852  1.4338
   17SAPS  C311 2237   3.876   5.459   3.546 -0.1869 -0.3410  0.2197
   17SAPS  H11X 2238   3.767   5.442   3.555  0.1665 -3.8735 -0.5803
   17SAPS  H11Y 2239   3.898   5.557   3.498  0.3225 -0.9353 -0.7858
   17SAPS  C312 2240   3.946   5.455   3.680 -0.1508 -0.3106  0.6648
   17SAPS  H12X 2241   3.903   5.539   3.739 -1.7567  0.1562 -1.0583
   17SAPS  H12Y 2242   4.054   5.475   3.666  0.5987 -4.2514 -0.4653
   17SAPS  C313 2243   3.937   5.331   3.767  0.0472 -0.5859 -0.3110
   17SAPS  H13X 2244   3.990   5.249   3.715 -0.7367  0.3731 -2.7207
   17SAPS  H13Y 2245   3.831   5.301   3.781  0.0545 -0.7941 -0.6993
   17SAPS  C314 2246   3.998   5.347   3.910 -0.3359 -0.8549  0.7204
   17SAPS  H14X 2247   3.948   5.436   3.953 -1.6666 -1.9383  1.5039
   17SAPS  H14Y 2248   4.103   5.384   3.906 -1.3606  2.2487 -0.4633
   17SAPS  C315 2249   3.969   5.226   4.007 -0.8638 -0.0038 -0.3035
   17SAPS  H15X 2250   4.028   5.135   3.983 -2.5890 -1.3116  0.2186
   17SAPS  H15Y 2251   3.863   5.195   4.000 -0.3442 -1.8445 -0.5845
   17SAPS  C316 2252   3.992   5.261   4.155  0.0158 -0.3965  0.4448
   17SAPS  H16X 2253   3.928   5.351   4.169  1.8565  1.3752 -1.6515
   17SAPS  H16Y 2254   4.097   5.296   4.167 -0.3324  1.0368 -0.5034
   17SAPS  C317 2255   3.953   5.148   4.248 -0.6927 -0.1801 -0.6461
   17SAPS  H17X 2256   4.019   5.062   4.224  1.5403  0.7897  1.5748
   17SAPS  H17Y 2257   3.847   5.120   4.231 -1.0580  1.1531 -0.6350
   17SAPS  C318 2258   3.970   5.183   4.394 -0.7379  0.0792  0.0563
   17SAPS  H18X 2259   3.919   5.114   4.465 -2.5168  1.3738  0.1179
   17SAPS  H18Y 2260   3.938   5.286   4.423  1.8559  1.0413 -0.2618
   17SAPS  H18Z 2261   4.078   5.176   4.419 -0.9244 -1.6378  0.4781
   18SAPS     N 2262   6.418   2.014   1.708  0.1381  0.2824  0.0158
   18SAPS   HN1 2263   6.476   2.099   1.718  1.1924 -0.3598 -0.5304
   18SAPS   HN2 2264   6.319   2.020   1.740  0.8268  1.1355  2.1207
   18SAPS   HN3 2265   6.460   1.945   1.773  1.2597 -0.4664 -1.4418
   18SAPS   C12 2266   6.437   1.965   1.573  0.2633 -0.0600 -0.0776
   18SAPS  H12A 2267   6.365   1.886   1.560 -0.0852  0.4114 -1.1069
   18SAPS   C13 2268   6.388   2.068   1.467  0.2254  0.7357 -0.1516
   18SAPS  O13A 2269   6.340   2.178   1.491 -0.0635  0.1154 -0.0590
   18SAPS  O13B 2270   6.418   2.035   1.346 -0.4903 -0.3633  0.0307
   18SAPS   C11 2271   6.582   1.909   1.538 -0.5723 -0.2025 -0.1508
   18SAPS  H11A 2272   6.649   1.996   1.553 -0.9780  0.2589 -0.9436
   18SAPS  H11B 2273   6.576   1.883   1.430  1.4722 -0.7558 -0.1583
   18SAPS     P 2274   6.695   1.815   1.756  0.0640 -0.0486  0.0314
   18SAPS   O13 2275   6.818   1.902   1.736 -0.0672  0.4367  0.4526
   18SAPS   O14 2276   6.597   1.862   1.858  0.3940  0.1785 -0.5253
   18SAPS   O12 2277   6.617   1.793   1.615 -0.0011 -0.4037 -0.2689
   18SAPS   O11 2278   6.751   1.677   1.803  0.0604  0.4778  0.0835
   18SAPS    C1 2279   6.663   1.569   1.831  0.1463  0.3326 -0.5856
   18SAPS    HA 2280   6.555   1.593   1.829  0.2365  0.6883 -1.5656
   18SAPS    HB 2281   6.673   1.488   1.755 -0.0759  0.9351 -1.2604
   18SAPS    C2 2282   6.694   1.517   1.973  0.3776 -0.0264 -0.1655
   18SAPS    HS 2283   6.632   1.425   1.984 -1.3325  1.0093 -0.7067
   18SAPS   O21 2284   6.657   1.596   2.085  0.1620  0.5999  0.0377
   18SAPS   C21 2285   6.528   1.625   2.104 -0.4216 -0.6399  0.7768
   18SAPS   O22 2286   6.433   1.582   2.040 -0.7756 -0.3997  0.4873
   18SAPS   C22 2287   6.518   1.708   2.236 -0.5337  0.4535  0.3514
   18SAPS   H2R 2288   6.611   1.687   2.293 -0.4847  1.1556  0.5404
   18SAPS   H2S 2289   6.507   1.813   2.203 -0.3023 -0.0044 -1.2931
   18SAPS    C3 2290   6.844   1.476   1.966  1.0796  0.2102 -0.5038
   18SAPS    HX 2291   6.904   1.568   1.947 -1.2214  1.7004 -0.9789
   18SAPS    HY 2292   6.872   1.409   1.882  1.0238  0.9595 -1.1351
   18SAPS   O31 2293   6.878   1.414   2.088  0.3941  0.2530 -0.1240
   18SAPS   C31 2294   6.850   1.282   2.097  0.5387 -0.9185  0.3621
   18SAPS   O32 2295   6.811   1.217   2.008 -0.7822  0.2995  0.0123
   18SAPS   C32 2296   6.869   1.239   2.238  0.1633  0.6627  0.1164
   18SAPS   H2X 2297   6.855   1.129   2.237 -0.2531  0.6426  2.3710
   18SAPS   H2Y 2298   6.781   1.272   2.298 -0.4865 -0.8320  0.0441
   18SAPS   C23 2299   6.396   1.675   2.325  0.3380  0.0573 -0.0161
   18SAPS   H3R 2300   6.303   1.685   2.264  0.5088 -0.6608 -0.4069
   18SAPS   H3S 2301   6.384   1.743   2.412 -1.9452 -0.7098  0.3294
   18SAPS   C24 2302   6.389   1.528   2.370 -0.3862 -0.5226 -0.3249
   18SAPS   H4R 2303   6.384   1.450   2.290  0.8985  0.8196 -1.7885
   18SAPS   H4S 2304   6.293   1.513   2.423 -0.7611  1.3236 -0.4364
   18SAPS   C25 2305   6.509   1.488   2.455 -0.1496 -0.8727 -0.1662
   18SAPS   H5R 2306   6.586   1.565   2.472 -0.2604 -0.8600  0.2807
   18SAPS   C26 2307   6.512   1.378   2.535  0.8289 -0.4624 -0.6509
   18SAPS   H6R 2308   6.607   1.344   2.579  0.0236 -1.0903  0.6767
   18SAPS   C27 2309   6.407   1.272   2.542  0.5213  0.7457  0.3417
   18SAPS   H7R 2310   6.322   1.280   2.471  1.1916  1.4628 -0.3876
   18SAPS   H7S 2311   6.355   1.298   2.636  1.9090  3.0115  0.5556
   18SAPS   C28 2312   6.456   1.134   2.534 -0.1284 -0.1972  0.2482
   18SAPS   H8R 2313   6.472   1.097   2.431  1.1867 -0.6101  0.5773
   18SAPS   C29 2314   6.488   1.042   2.629 -0.7504 -0.0339 -0.3282
   18SAPS   H9R 2315   6.509   0.937   2.602 -4.6288 -0.4419 -2.4481
   18SAPS  C210 2316   6.483   1.063   2.779 -0.2750  0.0352  0.5098
   18SAPS  H10R 2317   6.482   1.171   2.807 -1.0913  0.1269  0.1555
   18SAPS  H10S 2318   6.575   1.016   2.820 -1.2477 -2.7970 -0.2952
   18SAPS  C211 2319   6.358   1.009   2.846 -0.3667 -0.8137 -0.5771
   18SAPS  H11R 2320   6.265   1.005   2.787 -1.9767  0.1247  1.7536
   18SAPS  C212 2321   6.351   0.973   2.974 -0.0637  0.1661  1.2814
   18SAPS  H12R 2322   6.256   0.937   3.015  0.1109 -1.8137  0.0666
   18SAPS  C213 2323   6.465   0.987   3.077  0.6516 -0.3428  0.4907
   18SAPS  H13R 2324   6.466   1.090   3.120  3.1363 -0.5576  1.1060
   18SAPS  H13S 2325   6.562   0.974   3.025 -0.6381  0.1100 -2.1581
   18SAPS  C214 2326   6.432   0.878   3.177 -1.0355  0.1682  0.1059
   18SAPS  H14R 2327   6.445   0.777   3.134 -0.0017  0.4730 -0.3175
   18SAPS  C215 2328   6.438   0.887   3.315  0.1485 -0.2056  0.4433
   18SAPS  H15R 2329   6.424   0.796   3.376  1.3383 -0.2400  0.6739
   18SAPS  C216 2330   6.451   1.020   3.386  0.9800 -0.0278 -0.0873
   18SAPS  H16R 2331   6.370   1.089   3.353  0.8641  0.0961  0.4455
   18SAPS  H16S 2332   6.544   1.070   3.352  1.4058 -0.4948  0.3771
   18SAPS  C217 2333   6.441   1.018   3.538  0.2777  0.0879  0.7487
   18SAPS  H17R 2334   6.437   1.115   3.593 -0.8411 -0.9609  2.6501
   18SAPS  H17S 2335   6.524   0.956   3.577  0.7041 -0.8785 -1.5347
   18SAPS  C218 2336   6.303   0.957   3.572 -0.0603  0.5287 -0.5335
   18SAPS  H18R 2337   6.301   0.852   3.536 -0.0939  0.6788 -0.9826
   18SAPS  H18S 2338   6.219   1.015   3.530 -1.0337 -0.7361 -0.3886
   18SAPS  C219 2339   6.300   0.952   3.725  0.0235 -0.5085 -0.2839
   18SAPS  H19R 2340   6.301   1.058   3.757  1.0629 -0.8899  1.0365
   18SAPS  H19S 2341   6.388   0.897   3.764 -1.2235 -0.7002  2.4847
   18SAPS  C220 2342   6.180   0.883   3.786 -0.2927 -0.1053 -0.0601
   18SAPS  H20R 2343   6.090   0.944   3.769 -0.3088  0.0490  0.5269
   18SAPS  H20S 2344   6.193   0.881   3.897  0.0109  0.2754 -0.0867
   18SAPS  H20T 2345   6.172   0.777   3.751  2.3482 -0.8138  1.1890
   18SAPS   C33 2346   7.004   1.288   2.302 -0.5706 -0.3155 -0.3112
   18SAPS   H3X 2347   7.017   1.398   2.303  0.4119 -0.4247  0.2967
   18SAPS   H3Y 2348   7.087   1.259   2.233 -0.3238  0.0344 -0.1633
   18SAPS   C34 2349   7.034   1.232   2.445  0.3232  0.1673 -1.0188
   18SAPS   H4X 2350   7.130   1.279   2.472 -0.2150  1.2590 -0.9547
   18SAPS   H4Y 2351   7.055   1.123   2.435 -0.2804 -0.0780  0.1553
   18SAPS   C35 2352   6.928   1.256   2.551  0.4665 -0.1848 -0.3362
   18SAPS   H5X 2353   6.857   1.171   2.557  0.8109 -0.4872 -0.5027
   18SAPS   H5Y 2354   6.871   1.347   2.521  0.2474 -0.0870  0.3742
   18SAPS   C36 2355   6.970   1.289   2.690  0.1902 -0.5186  0.1141
   18SAPS   H6X 2356   7.037   1.378   2.691  3.0095 -2.4528 -1.8083
   18SAPS   H6Y 2357   7.029   1.210   2.740 -0.4875 -1.4094 -0.4564
   18SAPS   C37 2358   6.842   1.310   2.781  0.3612 -0.1539 -0.3928
   18SAPS   H7X 2359   6.775   1.222   2.785 -1.2693  1.0749  0.4810
   18SAPS   H7Y 2360   6.778   1.392   2.741 -0.8386 -1.2113 -0.6915
   18SAPS   C38 2361   6.883   1.351   2.925  0.1096 -0.6797  0.3655
   18SAPS   H8X 2362   6.947   1.439   2.901  0.6471 -1.5055 -1.4466
   18SAPS   H8Y 2363   6.957   1.276   2.960  1.0711 -0.3896 -0.9466
   18SAPS   C39 2364   6.761   1.376   3.006 -0.1257  0.0795 -0.0152
   18SAPS   H9X 2365   6.708   1.282   3.032 -0.8042  1.0412  2.2702
   18SAPS   H9Y 2366   6.691   1.442   2.951 -0.5394 -0.3331  0.0097
   18SAPS  C310 2367   6.790   1.450   3.138 -0.2533 -0.2951 -0.7344
   18SAPS  H10X 2368   6.817   1.553   3.107  1.0507 -1.0755 -2.3600
   18SAPS  H10Y 2369   6.875   1.407   3.196  0.2508  4.4772  2.6634
   18SAPS  C311 2370   6.673   1.440   3.239 -0.8863 -0.4107 -0.3849
   18SAPS  H11X 2371   6.657   1.335   3.272 -0.3378 -0.5375 -0.5095
   18SAPS  H11Y 2372   6.573   1.477   3.209 -0.6855  0.5099  0.0473
   18SAPS  C312 2373   6.710   1.512   3.371 -0.6434  0.0677 -0.1322
   18SAPS  H12X 2374   6.764   1.606   3.346  0.2301 -0.6749 -1.1436
   18SAPS  H12Y 2375   6.795   1.460   3.420  0.3672  1.6916 -0.0964
   18SAPS  C313 2376   6.594   1.538   3.466 -0.9797  0.3302  0.2677
   18SAPS  H13X 2377   6.516   1.609   3.429 -0.2983  0.8333 -0.2156
   18SAPS  H13Y 2378   6.654   1.585   3.547 -1.9372  1.6537  0.2557
   18SAPS  C314 2379   6.531   1.405   3.512 -0.0997 -0.0950 -0.3843
   18SAPS  H14X 2380   6.610   1.328   3.502 -0.1828 -0.0156 -1.8997
   18SAPS  H14Y 2381   6.452   1.387   3.437  0.0424 -0.6295 -0.4095
   18SAPS  C315 2382   6.473   1.392   3.654  0.4388 -0.2540 -0.3016
   18SAPS  H15X 2383   6.548   1.432   3.725  0.8802 -2.1519  0.3599
   18SAPS  H15Y 2384   6.459   1.285   3.681 -2.2370  0.4246  1.3277
   18SAPS  C316 2385   6.351   1.477   3.688 -0.4274 -0.0573  0.3396
   18SAPS  H16X 2386   6.361   1.588   3.688 -0.6583 -0.0360  0.0657
   18SAPS  H16Y 2387   6.315   1.459   3.791  2.1815  1.0061  1.5301
   18SAPS  C317 2388   6.241   1.457   3.585 -0.2954 -0.1434  0.0454
   18SAPS  H17X 2389   6.293   1.474   3.488 -0.5128  1.4838  0.1836
   18SAPS  H17Y 2390   6.161   1.535   3.580 -0.1231  0.0192 -0.2301
   18SAPS  C318 2391   6.184   1.316   3.563 -0.0713 -0.1013 -0.2322
   18SAPS  H18X 2392   6.106   1.285   3.635 -1.0980  1.3102 -0.6858
   18SAPS  H18Y 2393   6.265   1.243   3.585 -1.3223 -1.0168  1.6339
   18SAPS  H18Z 2394   6.154   1.295   3.459  2.2999  2.4938 -1.5794
   19SAPS     N 2395   1.163   3.356   2.142  0.3025  0.3232 -0.3587
   19SAPS   HN1 2396   1.123   3.261   2.134 -1.3794  1.0801 -1.2747
   19SAPS   HN2 2397   1.262   3.340   2.113  0.1933 -0.7406 -0.1855
   19SAPS   HN3 2398   1.155   3.385   2.241  1.0035  0.9587 -0.4807
   19SAPS   C12 2399   1.087   3.451   2.051 -0.0521  0.3310  0.0833
   19SAPS  H12A 2400   1.099   3.419   1.948  1.5395  0.4779  0.2052
   19SAPS   C13 2401   0.933   3.460   2.092 -0.0519  0.0261  0.0270
   19SAPS  O13A 2402   0.887   3.368   2.162 -0.8497  0.2541 -1.4295
   19SAPS  O13B 2403   0.861   3.535   2.019 -0.1786 -0.5810  0.0709
   19SAPS   C11 2404   1.147   3.589   2.074 -0.5314  0.0984 -0.2898
   19SAPS  H11A 2405   1.146   3.622   2.180 -0.9284  2.2345 -0.9050
   19SAPS  H11B 2406   1.084   3.653   2.008  0.1323 -0.1020 -1.1380
   19SAPS     P 2407   1.404   3.654   2.095 -0.7905 -0.3252  0.4380
   19SAPS   O13 2408   1.523   3.563   2.078  0.2461  0.0391  0.3923
   19SAPS   O14 2409   1.413   3.785   2.026 -0.0348  0.4738  0.4890
   19SAPS   O12 2410   1.286   3.583   2.031  0.5474  0.1925 -0.5015
   19SAPS   O11 2411   1.358   3.659   2.242 -0.0823  0.0855 -0.0127
   19SAPS    C1 2412   1.416   3.763   2.323  0.0987  0.0526  0.1830
   19SAPS    HA 2413   1.527   3.759   2.311  0.1021 -1.9698  0.4989
   19SAPS    HB 2414   1.377   3.861   2.289  0.1085  0.5115  1.4384
   19SAPS    C2 2415   1.401   3.738   2.475  0.1219 -0.7491  0.2760
   19SAPS    HS 2416   1.477   3.796   2.533 -1.0166  1.4403 -0.3270
   19SAPS   O21 2417   1.428   3.599   2.507 -0.2597 -0.4551  0.1732
   19SAPS   C21 2418   1.549   3.554   2.480 -0.5985  0.1092  0.6611
   19SAPS   O22 2419   1.641   3.621   2.447 -0.3982 -0.2912 -0.4286
   19SAPS   C22 2420   1.546   3.405   2.494  0.0891 -0.4591 -0.3850
   19SAPS   H2R 2421   1.458   3.372   2.435  1.4450 -1.5321 -1.8952
   19SAPS   H2S 2422   1.635   3.356   2.447 -0.2315 -1.6178  0.1743
   19SAPS    C3 2423   1.260   3.781   2.527 -0.3107  0.2105 -0.2600
   19SAPS    HX 2424   1.182   3.712   2.488 -0.5400 -0.4551  1.3093
   19SAPS    HY 2425   1.245   3.885   2.490 -1.3875 -0.8975 -3.2558
   19SAPS   O31 2426   1.254   3.780   2.669  0.5795 -0.2379 -0.2015
   19SAPS   C31 2427   1.186   3.675   2.722 -0.3070  0.0944  0.5313
   19SAPS   O32 2428   1.132   3.582   2.668 -0.0467  0.4658  0.3250
   19SAPS   C32 2429   1.203   3.676   2.876  0.5474 -0.0626  0.8148
   19SAPS   H2X 2430   1.203   3.783   2.906  1.5590  0.0928  0.2711
   19SAPS   H2Y 2431   1.297   3.632   2.914  0.2459  0.8740  2.7920
   19SAPS   C23 2432   1.539   3.351   2.641 -0.1736 -0.0092  0.3508
   19SAPS   H3R 2433   1.524   3.242   2.625 -1.1221  0.0961  0.4280
   19SAPS   H3S 2434   1.460   3.398   2.705 -0.0950  0.4050  0.1455
   19SAPS   C24 2435   1.677   3.360   2.714 -0.7019  0.7409  0.7757
   19SAPS   H4R 2436   1.756   3.318   2.648  1.4673  0.5906  3.3043
   19SAPS   H4S 2437   1.677   3.291   2.801  2.8607  1.0446  1.1798
   19SAPS   C25 2438   1.722   3.499   2.756 -0.1698  0.0190 -0.4018
   19SAPS   H5R 2439   1.796   3.542   2.687 -0.2309  1.8154  0.5958
   19SAPS   C26 2440   1.696   3.550   2.880 -0.1741  0.3720 -0.5236
   19SAPS   H6R 2441   1.745   3.645   2.907 -0.5317  0.4349 -0.0681
   19SAPS   C27 2442   1.603   3.487   2.983 -0.3888 -0.2558 -0.1538
   19SAPS   H7R 2443   1.649   3.389   3.009 -0.2419 -0.1302  0.0645
   19SAPS   H7S 2444   1.508   3.462   2.932  0.1964  0.0936 -1.4447
   19SAPS   C28 2445   1.581   3.580   3.100  0.7357  0.0199  0.1760
   19SAPS   H8R 2446   1.498   3.651   3.088  0.4893 -0.3741 -0.5148
   19SAPS   C29 2447   1.636   3.584   3.224 -0.9091  0.0689 -0.8487
   19SAPS   H9R 2448   1.614   3.663   3.296  0.9592  0.7569 -0.9586
   19SAPS  C210 2449   1.740   3.480   3.275 -0.2430 -0.5880  0.5003
   19SAPS  H10R 2450   1.830   3.521   3.325  0.9335 -1.2630 -0.9975
   19SAPS  H10S 2451   1.779   3.425   3.187 -0.5483  1.3030 -0.8757
   19SAPS  C211 2452   1.670   3.368   3.345 -0.5733  0.3315 -0.2611
   19SAPS  H11R 2453   1.571   3.337   3.307 -0.8765 -0.2140  0.9500
   19SAPS  C212 2454   1.711   3.312   3.463  0.1335 -0.3434 -0.0579
   19SAPS  H12R 2455   1.654   3.229   3.507  0.8756 -0.3447  0.9321
   19SAPS  C213 2456   1.842   3.339   3.530  0.5318 -0.8012  0.0615
   19SAPS  H13R 2457   1.906   3.413   3.477  2.1200 -0.5761  2.1661
   19SAPS  H13S 2458   1.895   3.241   3.532  1.8395 -0.1399 -0.6236
   19SAPS  C214 2459   1.819   3.385   3.678 -0.0552 -0.8892 -0.3060
   19SAPS  H14R 2460   1.825   3.494   3.689 -0.8252 -0.6988 -1.5407
   19SAPS  C215 2461   1.816   3.316   3.793  0.3448 -0.0582 -0.4424
   19SAPS  H15R 2462   1.805   3.371   3.888  1.4271  1.0525 -0.9271
   19SAPS  C216 2463   1.823   3.171   3.799 -0.1153 -0.0406  0.2556
   19SAPS  H16R 2464   1.923   3.130   3.771  0.0921 -0.2373  1.2589
   19SAPS  H16S 2465   1.751   3.124   3.729  1.6671 -2.5370 -0.0428
   19SAPS  C217 2466   1.775   3.119   3.936  0.3190 -0.3762  1.1611
   19SAPS  H17R 2467   1.752   3.011   3.922 -0.3222 -0.2182  0.9698
   19SAPS  H17S 2468   1.684   3.174   3.968  0.8037  0.1757  1.5946
   19SAPS  C218 2469   1.879   3.118   4.048  0.4663 -0.3036 -0.4158
   19SAPS  H18R 2470   1.885   3.224   4.082 -2.1199  0.8469 -3.1215
   19SAPS  H18S 2471   1.976   3.092   4.000 -0.1876  0.5879 -2.3035
   19SAPS  C219 2472   1.833   3.025   4.165  0.6881  0.5372 -0.2547
   19SAPS  H19R 2473   1.905   3.029   4.250 -0.0209  0.6554  0.3573
   19SAPS  H19S 2474   1.814   2.919   4.136 -0.6352  0.4659  0.7493
   19SAPS  C220 2475   1.697   3.061   4.231 -0.6266 -0.0329 -0.3401
   19SAPS  H20R 2476   1.698   3.016   4.332 -0.0263 -1.9113 -1.1310
   19SAPS  H20S 2477   1.605   3.029   4.176 -1.1533  1.9299 -0.6723
   19SAPS  H20T 2478   1.695   3.170   4.254  1.5974  0.0777 -0.4901
   19SAPS   C33 2479   1.072   3.605   2.934  0.1702 -0.3257  0.6348
   19SAPS   H3X 2480   1.064   3.498   2.907  0.4491 -0.9416  2.8010
   19SAPS   H3Y 2481   0.985   3.661   2.895  0.2360  0.2406  1.2769
   19SAPS   C34 2482   1.070   3.630   3.089 -1.0706  0.9852 -0.3141
   19SAPS   H4X 2483   0.973   3.589   3.125 -0.0473 -0.6956  0.6719
   19SAPS   H4Y 2484   1.073   3.738   3.115 -0.8739  0.5340  1.6942
   19SAPS   C35 2485   1.181   3.558   3.167 -0.0289 -0.7163 -0.0016
   19SAPS   H5X 2486   1.284   3.588   3.138  0.0473 -0.8708  0.1035
   19SAPS   H5Y 2487   1.181   3.452   3.133  0.7245 -0.9016  0.5415
   19SAPS   C36 2488   1.171   3.580   3.322  0.5035  0.0002 -0.2358
   19SAPS   H6X 2489   1.085   3.523   3.363 -0.7103  1.7502 -0.2016
   19SAPS   H6Y 2490   1.157   3.685   3.356 -0.3611 -0.1194 -0.2004
   19SAPS   C37 2491   1.297   3.530   3.405 -0.0686  0.5427 -0.2763
   19SAPS   H7X 2492   1.390   3.582   3.372  0.5362 -1.6212 -2.3076
   19SAPS   H7Y 2493   1.318   3.422   3.387  0.2072  0.2018  1.8377
   19SAPS   C38 2494   1.287   3.550   3.556  0.3007 -0.5835  0.3756
   19SAPS   H8X 2495   1.194   3.504   3.597 -0.4120  0.9230  0.5321
   19SAPS   H8Y 2496   1.264   3.656   3.579 -1.8693 -0.6053 -1.3062
   19SAPS   C39 2497   1.407   3.503   3.629 -0.3637  0.0926  0.1088
   19SAPS   H9X 2498   1.496   3.549   3.579 -0.6511  0.7798  0.2177
   19SAPS   H9Y 2499   1.440   3.397   3.623  1.8021  0.7663 -0.8421
   19SAPS  C310 2500   1.407   3.535   3.785  1.5556 -0.4061 -0.2508
   19SAPS  H10X 2501   1.316   3.493   3.833  2.1222 -0.1233  1.1326
   19SAPS  H10Y 2502   1.376   3.642   3.780  1.5191 -0.3899  0.2666
   19SAPS  C311 2503   1.529   3.490   3.866  0.6865 -0.7232 -0.1598
   19SAPS  H11X 2504   1.620   3.520   3.810  0.2866 -1.3624 -1.1659
   19SAPS  H11Y 2505   1.531   3.379   3.869  1.0709 -0.8000 -2.0638
   19SAPS  C312 2506   1.532   3.553   4.010 -0.3731 -0.0545  0.0626
   19SAPS  H12X 2507   1.435   3.553   4.065 -1.6174 -0.9740 -2.0318
   19SAPS  H12Y 2508   1.564   3.659   4.002 -0.3179 -0.0982 -0.2838
   19SAPS  C313 2509   1.644   3.486   4.092 -0.2092 -1.1792  0.6624
   19SAPS  H13X 2510   1.736   3.505   4.032 -1.8551  0.6731 -1.4870
   19SAPS  H13Y 2511   1.617   3.378   4.090 -1.6301 -0.8463  0.2978
   19SAPS  C314 2512   1.667   3.551   4.229 -0.1391 -0.0942  0.1230
   19SAPS  H14X 2513   1.578   3.523   4.289 -0.2170 -0.0312  0.0386
   19SAPS  H14Y 2514   1.683   3.661   4.221  0.5514 -0.1573  0.5354
   19SAPS  C315 2515   1.782   3.483   4.304 -0.6082 -0.8443  0.3370
   19SAPS  H15X 2516   1.796   3.374   4.293  3.3440 -0.5867  1.3575
   19SAPS  H15Y 2517   1.780   3.518   4.410 -0.5925 -0.4217  0.1981
   19SAPS  C316 2518   1.920   3.540   4.250  0.0981  0.2402 -0.2019
   19SAPS  H16X 2519   1.921   3.650   4.236 -0.2248  0.0430 -2.0295
   19SAPS  H16Y 2520   1.931   3.485   4.153  0.2864 -0.4364  0.1961
   19SAPS  C317 2521   2.038   3.496   4.338  0.1946 -0.2283 -0.2505
   19SAPS  H17X 2522   2.038   3.555   4.432 -3.1008 -0.1048 -0.1880
   19SAPS  H17Y 2523   2.126   3.531   4.279  0.4571 -0.6250 -0.0977
   19SAPS  C318 2524   2.044   3.347   4.373  0.4437 -0.2633  0.5309
   19SAPS  H18X 2525   2.141   3.333   4.425  0.7502 -2.1738 -0.4528
   19SAPS  H18Y 2526   2.031   3.276   4.289 -2.0941 -1.4806  1.8342
   19SAPS  H18Z 2527   1.965   3.318   4.446  0.2847  0.5190  0.6735
   20SAPS     N 2528   1.376   4.809   2.362 -0.6813  0.3552  0.2523
   20SAPS   HN1 2529   1.407   4.908   2.364  1.1800 -0.1547  3.1480
   20SAPS   HN2 2530   1.356   4.776   2.459 -0.5260  1.5684  0.7136
   20SAPS   HN3 2531   1.453   4.739   2.348  0.0659  1.1554  0.2628
   20SAPS   C12 2532   1.265   4.793   2.274 -0.3408 -0.0561  0.2692
   20SAPS  H12A 2533   1.181   4.842   2.320 -0.7373 -1.7042  1.4071
   20SAPS   C13 2534   1.298   4.860   2.132  0.5737 -0.0832 -0.0640
   20SAPS  O13A 2535   1.385   4.950   2.125  0.3848  0.2091 -0.3206
   20SAPS  O13B 2536   1.218   4.840   2.034 -0.4443 -0.2380  0.1098
   20SAPS   C11 2537   1.227   4.648   2.257 -0.1243  0.1091  0.5387
   20SAPS  H11A 2538   1.299   4.593   2.193 -0.1213  3.0849 -2.2489
   20SAPS  H11B 2539   1.126   4.648   2.212 -0.7322 -0.5717  1.8434
   20SAPS     P 2540   1.153   4.451   2.402  0.0002  0.0642 -0.1382
   20SAPS   O13 2541   1.004   4.468   2.398  0.2166 -0.3136  0.4389
   20SAPS   O14 2542   1.216   4.360   2.303 -0.1568 -0.2101 -0.7913
   20SAPS   O12 2543   1.214   4.595   2.390 -0.0637  0.0033 -0.2970
   20SAPS   O11 2544   1.184   4.409   2.554  0.7066  0.0313  0.2606
   20SAPS    C1 2545   1.278   4.471   2.638  0.0822  0.7949  0.0712
   20SAPS    HA 2546   1.334   4.392   2.693 -0.3224  1.4684  1.5019
   20SAPS    HB 2547   1.354   4.523   2.576 -0.1050  0.1597 -0.7149
   20SAPS    C2 2548   1.215   4.566   2.743  1.4946 -0.2097  0.7155
   20SAPS    HS 2549   1.142   4.633   2.692  0.8179 -1.8063 -0.4726
   20SAPS   O21 2550   1.314   4.642   2.804  0.6520 -0.0827  0.6246
   20SAPS   C21 2551   1.372   4.741   2.729  0.2220 -0.5037  0.1121
   20SAPS   O22 2552   1.317   4.786   2.627  0.2572  0.2342  0.0777
   20SAPS   C22 2553   1.499   4.789   2.786 -0.9392  0.5292  0.2680
   20SAPS   H2R 2554   1.574   4.725   2.837  1.6729  3.0580 -0.0977
   20SAPS   H2S 2555   1.557   4.816   2.695  0.9808 -2.0529  0.6049
   20SAPS    C3 2556   1.141   4.488   2.850  0.2054  0.8148  0.2582
   20SAPS    HX 2557   1.209   4.412   2.895 -0.8070 -0.8805 -0.9345
   20SAPS    HY 2558   1.066   4.435   2.787 -1.3555  3.0807  0.0895
   20SAPS   O31 2559   1.065   4.573   2.944 -0.1561  0.5433 -0.3189
   20SAPS   C31 2560   0.990   4.507   3.034  0.0863  0.3650  0.8791
   20SAPS   O32 2561   0.987   4.384   3.029  0.5226 -0.0454  0.2601
   20SAPS   C32 2562   0.945   4.601   3.145 -0.5703 -0.1108  0.4142
   20SAPS   H2X 2563   0.863   4.668   3.110 -1.8667 -0.0065  3.3278
   20SAPS   H2Y 2564   1.028   4.671   3.172 -0.1979 -0.4635  0.1851
   20SAPS   C23 2565   1.476   4.922   2.851  0.1030 -0.3542 -0.3272
   20SAPS   H3R 2566   1.411   4.987   2.788 -1.2159 -2.8752 -1.6870
   20SAPS   H3S 2567   1.565   4.989   2.855 -1.2519  1.4528  3.0503
   20SAPS   C24 2568   1.420   4.903   2.991 -0.9512 -0.5592 -0.1563
   20SAPS   H4R 2569   1.330   4.840   2.979 -0.3311 -1.1487 -1.9719
   20SAPS   H4S 2570   1.391   5.000   3.036  0.8111  0.9251 -2.0392
   20SAPS   C25 2571   1.513   4.836   3.090 -0.5768 -0.7276 -0.1039
   20SAPS   H5R 2572   1.613   4.810   3.052 -0.8331 -0.6415 -0.8446
   20SAPS   C26 2573   1.516   4.852   3.222  1.0696  0.5989  0.0959
   20SAPS   H6R 2574   1.583   4.794   3.287 -0.7192 -0.6820  0.8802
   20SAPS   C27 2575   1.415   4.927   3.299  0.5204  0.1427  0.6915
   20SAPS   H7R 2576   1.383   5.021   3.248 -2.7126 -0.5835  1.1712
   20SAPS   H7S 2577   1.456   4.960   3.397 -0.6800 -1.2898  1.7121
   20SAPS   C28 2578   1.286   4.843   3.313  0.1558  0.3782 -1.4570
   20SAPS   H8R 2579   1.277   4.753   3.249  0.0985 -1.1635  0.6169
   20SAPS   C29 2580   1.187   4.865   3.404  0.1974  0.6126  0.2845
   20SAPS   H9R 2581   1.100   4.798   3.405  0.7973 -0.1905 -0.0246
   20SAPS  C210 2582   1.180   4.981   3.492 -0.2025 -0.2728  0.1721
   20SAPS  H10R 2583   1.079   5.025   3.509  0.1687  0.6241  0.1355
   20SAPS  H10S 2584   1.231   5.068   3.445 -0.5335  1.4608  2.8007
   20SAPS  C211 2585   1.247   4.950   3.627  0.4321  0.1873 -0.0773
   20SAPS  H11R 2586   1.357   4.939   3.623  0.3554 -0.3229 -1.1769
   20SAPS  C212 2587   1.189   4.942   3.750 -0.3373 -0.4802  0.3543
   20SAPS  H12R 2588   1.244   4.919   3.842 -0.6736  0.7729  0.8883
   20SAPS  C213 2589   1.043   4.965   3.778  0.3251  0.1092  0.8453
   20SAPS  H13R 2590   0.993   5.045   3.719  1.2840  0.4520  0.4692
   20SAPS  H13S 2591   1.045   5.002   3.883  2.8679  0.5427  0.7264
   20SAPS  C214 2592   0.956   4.843   3.763 -0.2750 -0.7777  0.0351
   20SAPS  H14R 2593   0.949   4.825   3.654 -2.8731  2.6997 -0.5104
   20SAPS  C215 2594   0.891   4.769   3.854  0.1629 -0.3698 -0.5183
   20SAPS  H15R 2595   0.835   4.679   3.826  0.6727 -0.1694 -2.2971
   20SAPS  C216 2596   0.904   4.788   4.007 -0.9461 -0.6882 -0.0306
   20SAPS  H16R 2597   0.819   4.856   4.029 -0.9865 -0.6176 -0.4122
   20SAPS  H16S 2598   0.997   4.839   4.040 -0.2781 -0.9124 -1.4986
   20SAPS  C217 2599   0.877   4.649   4.075  0.1408  0.3670 -0.4962
   20SAPS  H17R 2600   0.956   4.574   4.054 -0.8709 -1.7717  2.5691
   20SAPS  H17S 2601   0.788   4.608   4.024  0.9905 -0.1353 -1.6064
   20SAPS  C218 2602   0.854   4.668   4.224  0.4580 -0.9842  0.1403
   20SAPS  H18R 2603   0.763   4.726   4.248  0.0556 -0.8845 -1.4963
   20SAPS  H18S 2604   0.932   4.735   4.267  1.4385 -0.9715 -1.5832
   20SAPS  C219 2605   0.837   4.532   4.294 -0.2551  0.2605 -0.0654
   20SAPS  H19R 2606   0.903   4.454   4.250  0.1881  1.2772 -1.2576
   20SAPS  H19S 2607   0.735   4.496   4.268  0.6991 -2.4889 -0.3619
   20SAPS  C220 2608   0.856   4.532   4.445  1.1387 -0.1046 -0.3593
   20SAPS  H20R 2609   0.841   4.627   4.501 -0.6885 -1.0183  0.7875
   20SAPS  H20S 2610   0.955   4.486   4.468  0.6298 -1.9163 -1.6044
   20SAPS  H20T 2611   0.787   4.456   4.486  0.3742 -0.7400 -2.7008
   20SAPS   C33 2612   0.903   4.533   3.282  0.5837 -0.0671  0.6653
   20SAPS   H3X 2613   0.845   4.444   3.250  1.2383 -0.1556 -0.3036
   20SAPS   H3Y 2614   0.827   4.587   3.344 -0.2323 -1.1580  0.6492
   20SAPS   C34 2615   1.017   4.501   3.378  0.7220  0.7528 -0.1287
   20SAPS   H4X 2616   1.058   4.597   3.417 -1.6221  1.4890  0.7726
   20SAPS   H4Y 2617   1.097   4.454   3.319 -1.1290 -0.2365 -1.9884
   20SAPS   C35 2618   0.964   4.396   3.480 -1.1508  1.1202 -0.6540
   20SAPS   H5X 2619   0.912   4.309   3.433 -0.7548 -0.8871  2.3650
   20SAPS   H5Y 2620   0.891   4.453   3.541 -1.1086  1.8744 -1.2825
   20SAPS   C36 2621   1.072   4.338   3.570 -0.3544 -0.1942 -0.1519
   20SAPS   H6X 2622   1.170   4.364   3.525 -1.0755 -0.2168 -1.8114
   20SAPS   H6Y 2623   1.062   4.227   3.573 -0.4260 -0.1734  0.5520
   20SAPS   C37 2624   1.073   4.386   3.714  0.3156 -0.2192  0.0635
   20SAPS   H7X 2625   0.968   4.372   3.750  0.0255 -1.0048 -1.0283
   20SAPS   H7Y 2626   1.097   4.494   3.722  1.2609 -0.3494 -0.8054
   20SAPS   C38 2627   1.156   4.294   3.800 -0.9419  0.5063  0.1739
   20SAPS   H8X 2628   1.264   4.302   3.773 -0.8761 -1.1707 -0.1206
   20SAPS   H8Y 2629   1.131   4.187   3.788 -1.6714  0.7641 -0.6854
   20SAPS   C39 2630   1.153   4.317   3.950  0.3961  0.2361 -0.4972
   20SAPS   H9X 2631   1.048   4.313   3.984  1.0925  2.6736  2.3631
   20SAPS   H9Y 2632   1.179   4.425   3.964 -1.9386  0.7687  0.0899
   20SAPS  C310 2633   1.242   4.228   4.035  0.3657 -0.0400 -0.5879
   20SAPS  H10X 2634   1.347   4.228   4.000  0.2451  3.0792 -1.1839
   20SAPS  H10Y 2635   1.210   4.123   4.017 -1.3601  0.0696  1.4516
   20SAPS  C311 2636   1.224   4.263   4.185 -0.3646  0.2103 -0.1749
   20SAPS  H11X 2637   1.248   4.170   4.242  0.7325 -0.7051 -2.0175
   20SAPS  H11Y 2638   1.120   4.283   4.217  0.0100 -0.2109  1.4302
   20SAPS  C312 2639   1.325   4.369   4.242 -1.1285 -0.1085 -0.4093
   20SAPS  H12X 2640   1.323   4.459   4.178  0.5415 -0.3745 -0.8620
   20SAPS  H12Y 2641   1.424   4.319   4.236 -1.2094 -0.5510  1.2566
   20SAPS  C313 2642   1.288   4.406   4.388 -0.2733 -0.3035 -0.3529
   20SAPS  H13X 2643   1.256   4.317   4.446 -1.2908  0.0265 -0.3868
   20SAPS  H13Y 2644   1.209   4.484   4.380 -0.0232 -0.1154 -1.1336
   20SAPS  C314 2645   1.402   4.463   4.475 -0.0671 -0.6839 -0.3094
   20SAPS  H14X 2646   1.345   4.496   4.564  1.2845 -0.9625  0.6871
   20SAPS  H14Y 2647   1.440   4.548   4.414 -0.8188 -0.1415 -0.0328
   20SAPS  C315 2648   1.507   4.358   4.517 -0.0144  0.2171 -0.0227
   20SAPS  H15X 2649   1.535   4.299   4.428 -2.2441  1.6100 -1.7255
   20SAPS  H15Y 2650   1.461   4.285   4.588  0.7945 -1.6417 -1.3260
   20SAPS  C316 2651   1.637   4.408   4.591  0.3661  0.4331 -0.2755
   20SAPS  H16X 2652   1.602   4.472   4.675 -0.4896  0.6420 -0.7723
   20SAPS  H16Y 2653   1.711   4.469   4.535  0.9023  0.7732  0.7836
   20SAPS  C317 2654   1.717   4.299   4.659  0.3346 -0.9464 -0.5793
   20SAPS  H17X 2655   1.750   4.224   4.584 -0.0867 -0.8773 -0.8339
   20SAPS  H17Y 2656   1.655   4.240   4.729  0.3500 -1.3301 -0.8839
   20SAPS  C318 2657   1.846   4.344   4.734  1.2322  0.3766 -0.4776
   20SAPS  H18X 2658   1.906   4.407   4.666  1.5233  0.6967  0.0658
   20SAPS  H18Y 2659   1.906   4.255   4.765  0.2137 -0.7381 -1.5924
   20SAPS  H18Z 2660   1.824   4.402   4.826  1.3707 -0.7983  0.3283
   21CHL1    C3 2661   6.406   1.122   5.920 -0.3716 -0.3430 -0.3208
   21CHL1    H3 2662   6.326   1.060   5.875 -0.2228  0.0200 -1.1052
   21CHL1    O3 2663   6.384   1.130   6.058  0.5400  0.0936 -0.3001
   21CHL1   H3' 2664   6.454   1.185   6.095 -1.1364  1.1078  1.5885
   21CHL1    C4 2665   6.547   1.065   5.892  0.0785  0.4783 -0.3449
   21CHL1   H4A 2666   6.622   1.133   5.937 -0.9745  0.8028  1.0103
   21CHL1   H4B 2667   6.557   0.965   5.941  0.9690  0.7725  0.0877
   21CHL1    C5 2668   6.567   1.038   5.745  0.1373 -0.1695  0.0648
   21CHL1    C6 2669   6.597   0.915   5.695  0.2478 -0.4189  0.0800
   21CHL1    H6 2670   6.616   0.829   5.762  1.6699  0.1233  0.4143
   21CHL1    C7 2671   6.621   0.889   5.550 -0.1894 -0.5706  0.2855
   21CHL1   H7A 2672   6.705   0.821   5.523  0.0698 -1.3074  2.7114
   21CHL1   H7B 2673   6.537   0.833   5.503  1.7350 -0.1244 -4.2295
   21CHL1    C8 2674   6.634   1.014   5.460  0.1525 -0.3863  0.9085
   21CHL1    H8 2675   6.738   1.053   5.459 -0.9395  2.9005 -1.5497
   21CHL1   C14 2676   6.595   0.978   5.316 -0.7298 -0.4046 -0.0280
   21CHL1   H14 2677   6.485   0.962   5.317 -0.6750 -0.8291 -0.3360
   21CHL1   C15 2678   6.663   0.853   5.257  0.7490 -0.3872  0.1884
   21CHL1  H15A 2679   6.766   0.831   5.292  1.3500 -1.4933 -2.1302
   21CHL1  H15B 2680   6.606   0.762   5.287 -2.2892  1.2145 -0.2991
   21CHL1   C16 2681   6.634   0.873   5.103 -0.4160 -0.0316 -0.0521
   21CHL1  H16A 2682   6.728   0.841   5.053  0.5945 -0.3305  1.9353
   21CHL1  H16B 2683   6.550   0.812   5.064  0.5857 -1.4899 -0.0231
   21CHL1   C17 2684   6.604   1.025   5.080  0.3035  0.5401  0.2756
   21CHL1   H17 2685   6.493   1.023   5.069  0.3384 -2.0996 -0.4655
   21CHL1   C13 2686   6.620   1.097   5.218 -0.4299 -0.3650  0.1895
   21CHL1   C18 2687   6.771   1.145   5.227  0.2717  0.5190 -0.2020
   21CHL1  H18A 2688   6.791   1.212   5.140  2.7872 -0.6528 -0.6082
   21CHL1  H18B 2689   6.782   1.209   5.317 -2.2350  0.2792  0.3537
   21CHL1  H18C 2690   6.835   1.055   5.224  0.0952  0.4114 -2.1532
   21CHL1   C12 2691   6.531   1.217   5.256  0.2889  0.1921 -0.8095
   21CHL1  H12A 2692   6.562   1.307   5.197  3.3035 -0.9739 -1.1814
   21CHL1  H12B 2693   6.426   1.192   5.230 -0.8125  3.2835  0.1585
   21CHL1   C11 2694   6.535   1.258   5.405 -0.6822  0.4670  0.1779
   21CHL1  H11A 2695   6.631   1.314   5.414 -0.2427 -0.0169 -1.2175
   21CHL1  H11B 2696   6.449   1.321   5.436 -0.2230  0.7294  0.9282
   21CHL1    C9 2697   6.535   1.129   5.499  0.5411 -0.1331 -0.0279
   21CHL1    H9 2698   6.438   1.077   5.486  1.3000 -1.8573  0.8290
   21CHL1   C10 2699   6.549   1.162   5.660 -0.0602  0.4826  0.7650
   21CHL1   C19 2700   6.677   1.238   5.682  0.1534 -0.2477 -0.0007
   21CHL1  H19A 2701   6.676   1.336   5.631  0.0359  0.0256  0.5176
   21CHL1  H19B 2702   6.688   1.268   5.789 -2.3436  1.8502 -0.2346
   21CHL1  H19C 2703   6.761   1.181   5.637 -2.3112 -3.3760 -0.9966
   21CHL1    C1 2704   6.432   1.248   5.717 -0.2799 -0.3509 -0.0194
   21CHL1   H1A 2705   6.459   1.347   5.677 -2.0889  0.6252  1.0374
   21CHL1   H1B 2706   6.343   1.212   5.662  0.0993  1.0086 -1.5906
   21CHL1    C2 2707   6.406   1.263   5.862  0.2513  0.3321 -0.1750
   21CHL1   H2A 2708   6.303   1.300   5.880 -0.1561 -1.8087  2.5194
   21CHL1   H2B 2709   6.455   1.343   5.923 -0.7000 -0.7597  2.1311
   21CHL1   C20 2710   6.663   1.084   4.945 -0.2452  0.0405 -0.0358
   21CHL1   H20 2711   6.772   1.100   4.954 -0.2090 -0.4382  0.3708
   21CHL1   C21 2712   6.618   1.231   4.937  0.1644 -0.2471  0.6598
   21CHL1  H21A 2713   6.658   1.290   5.021  1.5962 -2.6158  1.7407
   21CHL1  H21B 2714   6.507   1.233   4.933  0.1840 -0.3150 -0.1826
   21CHL1  H21C 2715   6.657   1.286   4.848 -0.5795  1.2213  1.2043
   21CHL1   C22 2716   6.629   1.008   4.815  0.3636 -0.4059  0.1061
   21CHL1  H22A 2717   6.635   0.898   4.824  0.4579 -0.7018 -2.5980
   21CHL1  H22B 2718   6.524   1.038   4.792  0.2475 -1.3055 -0.6159
   21CHL1   C23 2719   6.715   1.052   4.695  0.0722 -0.3093  0.3254
   21CHL1  H23A 2720   6.713   1.162   4.683  0.6713 -0.5043 -2.0115
   21CHL1  H23B 2721   6.820   1.020   4.715 -0.0889 -2.1153 -1.4120
   21CHL1   C24 2722   6.675   1.001   4.557  0.1549  0.1910  0.4196
   21CHL1  H24A 2723   6.658   0.891   4.565 -0.6438  0.3325  0.7639
   21CHL1  H24B 2724   6.575   1.038   4.525  0.1506 -0.6079 -0.5418
   21CHL1   C25 2725   6.788   1.037   4.446  0.0569 -0.3804 -0.9365
   21CHL1   H25 2726   6.879   1.001   4.499 -0.6334  0.8026  1.1559
   21CHL1   C26 2727   6.776   0.962   4.313  0.6652 -0.4333  0.1219
   21CHL1  H26A 2728   6.687   1.000   4.258 -0.8357 -2.3745  1.0804
   21CHL1  H26B 2729   6.866   0.990   4.255  0.3307  2.1757  0.7576
   21CHL1  H26C 2730   6.764   0.852   4.325  2.2011 -0.5393  1.0360
   21CHL1   C27 2731   6.796   1.189   4.420  0.1023 -0.2492 -0.2800
   21CHL1  H27A 2732   6.809   1.248   4.513  0.5507  1.3573 -1.3276
   21CHL1  H27B 2733   6.887   1.192   4.357 -0.6325 -1.5988 -1.4887
   21CHL1  H27C 2734   6.706   1.230   4.371 -0.5428 -1.0212  0.2135
   22CHL1    C3 2735   3.941   6.257   5.907 -0.3192  0.0638 -0.0535
   22CHL1    H3 2736   3.953   6.357   5.860 -1.9049  1.5328  2.4722
   22CHL1    O3 2737   3.933   6.279   6.045  0.3233  0.1690 -0.1756
   22CHL1   H3' 2738   3.908   6.192   6.077  0.2646 -0.2127 -1.2016
   22CHL1    C4 2739   3.814   6.195   5.852  0.0514 -0.0155  0.1097
   22CHL1   H4A 2740   3.801   6.093   5.893  2.3547 -0.0283  0.9584
   22CHL1   H4B 2741   3.730   6.261   5.882  0.1325  0.8154 -1.3861
   22CHL1    C5 2742   3.823   6.159   5.706 -0.1609 -0.8303  0.3414
   22CHL1    C6 2743   3.739   6.207   5.614 -0.0703  0.5822 -0.4213
   22CHL1    H6 2744   3.651   6.263   5.651  0.1334 -0.7420  2.2828
   22CHL1    C7 2745   3.735   6.172   5.471  0.1317  0.1836  0.4643
   22CHL1   H7A 2746   3.631   6.136   5.451  0.3503 -0.1999 -0.0186
   22CHL1   H7B 2747   3.746   6.265   5.411  2.2955  0.0129  0.5254
   22CHL1    C8 2748   3.831   6.053   5.438  0.0379 -0.0257  0.2523
   22CHL1    H8 2749   3.779   5.959   5.466 -0.8680  0.2147 -0.5760
   22CHL1   C14 2750   3.854   6.047   5.289  0.0138  1.3285  0.2586
   22CHL1   H14 2751   3.898   6.149   5.279 -1.3624  2.0708  1.3929
   22CHL1   C15 2752   3.732   6.036   5.203 -0.7934  0.0716 -0.6157
   22CHL1  H15A 2753   3.652   5.967   5.239 -2.5693  1.1737 -2.2710
   22CHL1  H15B 2754   3.686   6.134   5.181  0.5302  0.4428 -1.8842
   22CHL1   C16 2755   3.793   5.984   5.071 -0.7724 -0.7757 -0.1577
   22CHL1  H16A 2756   3.732   5.900   5.033 -1.3115  0.0234 -1.0880
   22CHL1  H16B 2757   3.770   6.066   5.000 -1.4480 -0.0021  0.9253
   22CHL1   C17 2758   3.942   5.953   5.086 -0.1349 -0.3803  0.0933
   22CHL1   H17 2759   3.998   6.043   5.051  0.4912 -0.2471  1.3865
   22CHL1   C13 2760   3.950   5.941   5.237 -0.2072  0.0889 -0.5854
   22CHL1   C18 2761   3.904   5.798   5.266  0.4381  0.3543 -0.5215
   22CHL1  H18A 2762   3.975   5.721   5.230 -1.3276 -2.2639  1.2012
   22CHL1  H18B 2763   3.894   5.770   5.374 -2.9079  1.4589 -0.4419
   22CHL1  H18C 2764   3.806   5.785   5.217 -2.0955  1.1317  3.8031
   22CHL1   C12 2765   4.085   5.969   5.307  0.6443 -0.3477  0.8038
   22CHL1  H12A 2766   4.157   5.886   5.287  0.4239 -0.1304 -1.0383
   22CHL1  H12B 2767   4.121   6.063   5.261 -0.6209 -0.0763  0.3213
   22CHL1   C11 2768   4.078   5.975   5.459 -0.5937 -0.0066  0.0067
   22CHL1  H11A 2769   4.053   5.877   5.506 -1.5971  1.6382  3.1869
   22CHL1  H11B 2770   4.174   6.010   5.503 -1.0368 -1.3267  2.2211
   22CHL1    C9 2771   3.965   6.067   5.514 -0.4442  0.3656  0.0633
   22CHL1    H9 2772   4.005   6.167   5.489 -0.0190 -0.0369 -0.8949
   22CHL1   C10 2773   3.947   6.078   5.670  0.3026 -0.5156  0.3454
   22CHL1   C19 2774   3.912   5.936   5.723  0.3524  0.5157 -0.4430
   22CHL1  H19A 2775   3.892   5.943   5.832  0.6831 -0.6903 -0.2823
   22CHL1  H19B 2776   3.828   5.896   5.663  0.4182  1.4594 -1.1926
   22CHL1  H19C 2777   3.996   5.863   5.716  0.5330  0.8177 -1.5805
   22CHL1    C1 2778   4.078   6.141   5.735 -0.6902 -0.1763  0.6899
   22CHL1   H1A 2779   4.148   6.056   5.723 -0.9241 -0.2901  0.0902
   22CHL1   H1B 2780   4.110   6.228   5.675 -2.0239  0.4527  0.8592
   22CHL1    C2 2781   4.070   6.177   5.878 -0.0547  0.4894 -0.2220
   22CHL1   H2A 2782   4.160   6.225   5.920 -0.8138  2.0614 -0.3011
   22CHL1   H2B 2783   4.064   6.074   5.921  1.7545 -0.0479 -1.1741
   22CHL1   C20 2784   3.981   5.838   4.994 -0.8746  0.1321  0.1960
   22CHL1   H20 2785   3.914   5.752   5.019 -0.8800 -0.4217 -1.6274
   22CHL1   C21 2786   4.133   5.798   5.020  1.0524  0.1762 -0.2275
   22CHL1  H21A 2787   4.179   5.761   4.926  1.7666  2.5883 -0.9105
   22CHL1  H21B 2788   4.135   5.714   5.092 -0.3398 -0.7357 -1.2029
   22CHL1  H21C 2789   4.188   5.889   5.053  0.5334  0.0810  0.9462
   22CHL1   C22 2790   3.961   5.878   4.849  0.4306  0.6441  0.2929
   22CHL1  H22A 2791   3.871   5.943   4.843  0.5669  0.8494  0.4590
   22CHL1  H22B 2792   4.038   5.940   4.799  0.3773  0.8767  0.5038
   22CHL1   C23 2793   3.945   5.762   4.755 -0.3723  0.4482 -0.2080
   22CHL1  H23A 2794   3.937   5.807   4.653 -0.7763  1.6450  0.3263
   22CHL1  H23B 2795   4.044   5.715   4.769 -0.6074  0.5521  2.2461
   22CHL1   C24 2796   3.820   5.671   4.770 -0.2311 -0.3781 -0.0652
   22CHL1  H24A 2797   3.837   5.585   4.838 -1.6603  0.5322  1.5276
   22CHL1  H24B 2798   3.736   5.724   4.819  0.8704 -0.2491  1.7776
   22CHL1   C25 2799   3.751   5.619   4.639 -0.3184 -0.1089 -0.2440
   22CHL1   H25 2800   3.710   5.707   4.583 -2.5397 -1.5180 -0.9733
   22CHL1   C26 2801   3.857   5.542   4.553 -0.0486 -0.2591 -0.1284
   22CHL1  H26A 2802   3.811   5.504   4.460  0.8571 -0.0120 -0.6974
   22CHL1  H26B 2803   3.938   5.609   4.516  1.2474 -0.7942  1.5658
   22CHL1  H26C 2804   3.906   5.466   4.618 -0.1087  0.1493  0.4030
   22CHL1   C27 2805   3.633   5.517   4.661 -0.7087 -0.5629  0.5934
   22CHL1  H27A 2806   3.618   5.471   4.561 -0.4972  0.1719  0.2210
   22CHL1  H27B 2807   3.672   5.441   4.732 -0.0263  0.5414  1.4502
   22CHL1  H27C 2808   3.542   5.565   4.704 -0.7099  1.2981 -1.3302
   23CHL1    C3 2809   1.204   0.298   5.955 -0.1600  0.6459 -0.4034
   23CHL1    H3 2810   1.112   0.236   5.963 -0.9824  2.0333  2.4039
   23CHL1    O3 2811   1.215   0.330   6.093 -0.2840  0.5835  0.5773
   23CHL1   H3' 2812   1.301   0.369   6.107 -0.3650  0.9057  0.1994
   23CHL1    C4 2813   1.313   0.208   5.913 -0.3359 -0.8520  0.0277
   23CHL1   H4A 2814   1.408   0.261   5.936 -1.2006 -0.1861  2.3377
   23CHL1   H4B 2815   1.314   0.111   5.967  1.9381 -2.9858 -3.4361
   23CHL1    C5 2816   1.317   0.186   5.760  0.6617 -0.1950 -0.5007
   23CHL1    C6 2817   1.344   0.063   5.711 -0.3967  0.3359 -0.1126
   23CHL1    H6 2818   1.375  -0.016   5.782 -2.7466 -0.1631  0.4542
   23CHL1    C7 2819   1.367   0.036   5.562  0.2446  0.2623  0.0080
   23CHL1   H7A 2820   1.458  -0.023   5.536  0.2743 -0.5983  1.9424
   23CHL1   H7B 2821   1.279  -0.023   5.530  0.1748 -0.0691  0.8066
   23CHL1    C8 2822   1.367   0.156   5.468  0.3441 -0.4887 -0.2450
   23CHL1    H8 2823   1.471   0.192   5.484 -0.2810  0.3091  2.6379
   23CHL1   C14 2824   1.332   0.124   5.326  0.4764  0.1992  0.4209
   23CHL1   H14 2825   1.229   0.089   5.305  0.4026  1.0234 -0.7250
   23CHL1   C15 2826   1.422   0.023   5.262  0.7930  0.8857  0.3749
   23CHL1  H15A 2827   1.531   0.027   5.283  0.7322 -1.4476  1.4067
   23CHL1  H15B 2828   1.390  -0.079   5.290 -0.3613  1.1473  0.0380
   23CHL1   C16 2829   1.411   0.056   5.110  0.0676 -0.5612  0.0532
   23CHL1  H16A 2830   1.514   0.075   5.072  0.3912  1.3561  1.7462
   23CHL1  H16B 2831   1.359  -0.033   5.066 -1.8578  0.0588  0.9503
   23CHL1   C17 2832   1.317   0.184   5.097 -0.0136  0.6448  0.8816
   23CHL1   H17 2833   1.214   0.145   5.087  0.8066 -2.1729  2.3658
   23CHL1   C13 2834   1.330   0.253   5.229  0.4907  1.8437 -0.1436
   23CHL1   C18 2835   1.465   0.330   5.233  0.3395 -0.4684 -0.1096
   23CHL1  H18A 2836   1.455   0.435   5.199  1.4365 -0.2606  0.1877
   23CHL1  H18B 2837   1.502   0.331   5.338  0.3495 -0.8304 -0.1073
   23CHL1  H18C 2838   1.540   0.284   5.165 -1.2098 -1.1881 -1.4060
   23CHL1   C12 2839   1.214   0.336   5.276  0.7504  0.0391 -0.7978
   23CHL1  H12A 2840   1.191   0.418   5.204 -0.0191 -0.5247 -1.2085
   23CHL1  H12B 2841   1.117   0.283   5.274  0.0869  1.1816 -0.0860
   23CHL1   C11 2842   1.248   0.386   5.419  0.3060  0.2550 -0.4264
   23CHL1  H11A 2843   1.336   0.454   5.421  1.7592 -1.4941 -1.4921
   23CHL1  H11B 2844   1.169   0.455   5.457 -0.3176  0.0251 -1.2615
   23CHL1    C9 2845   1.262   0.268   5.520  0.2622 -0.6803  0.0107
   23CHL1    H9 2846   1.165   0.215   5.527  0.0945 -0.1976  4.1421
   23CHL1   C10 2847   1.285   0.312   5.671 -0.0960  0.4572  0.3491
   23CHL1   C19 2848   1.407   0.406   5.695 -0.0138 -0.1885  0.2268
   23CHL1  H19A 2849   1.397   0.494   5.627 -0.5731 -0.8875 -0.6185
   23CHL1  H19B 2850   1.417   0.437   5.801  1.3834 -2.2500  0.7542
   23CHL1  H19C 2851   1.495   0.348   5.661  0.3188  0.0617  0.6605
   23CHL1    C1 2852   1.159   0.385   5.724 -0.1670  0.0481  0.8241
   23CHL1   H1A 2853   1.137   0.477   5.665  0.4251 -0.5890 -0.4397
   23CHL1   H1B 2854   1.078   0.314   5.698  1.2584 -0.5308 -2.5443
   23CHL1    C2 2855   1.160   0.418   5.872  0.0039 -0.3442 -0.3577
   23CHL1   H2A 2856   1.058   0.454   5.898 -0.0365  1.2809 -2.5149
   23CHL1   H2B 2857   1.226   0.502   5.904 -0.1535  0.1094 -1.1955
   23CHL1   C20 2858   1.348   0.246   4.964 -0.8050  0.3024 -0.8933
   23CHL1   H20 2859   1.459   0.255   4.954 -0.3510 -2.6859  0.3947
   23CHL1   C21 2860   1.274   0.386   4.948  0.0479  0.2478 -0.5149
   23CHL1  H21A 2861   1.303   0.433   4.851 -1.2703  1.6996 -0.2430
   23CHL1  H21B 2862   1.295   0.448   5.038  2.1020 -1.9740  0.6404
   23CHL1  H21C 2863   1.166   0.363   4.949  0.4315 -1.6760 -0.7213
   23CHL1   C22 2864   1.289   0.161   4.842 -0.2988  0.6096 -0.1468
   23CHL1  H22A 2865   1.329   0.060   4.862 -0.6426  0.2994 -0.9881
   23CHL1  H22B 2866   1.179   0.152   4.855 -0.1258 -0.5528  0.6794
   23CHL1   C23 2867   1.333   0.210   4.700 -0.0201  0.4108 -0.0571
   23CHL1  H23A 2868   1.271   0.297   4.671 -0.4235  0.2306  0.2507
   23CHL1  H23B 2869   1.437   0.246   4.689  1.3095 -3.1818 -0.5149
   23CHL1   C24 2870   1.318   0.090   4.600 -0.6903  0.3278  0.2795
   23CHL1  H24A 2871   1.378   0.009   4.646 -1.7184 -0.1253  0.8504
   23CHL1  H24B 2872   1.213   0.054   4.604 -0.8730  0.6807 -0.9031
   23CHL1   C25 2873   1.372   0.133   4.467  0.0612 -0.1695 -0.2151
   23CHL1   H25 2874   1.454   0.206   4.483 -3.1671  3.6792  0.3929
   23CHL1   C26 2875   1.433   0.016   4.386  0.5459  0.8830  0.1583
   23CHL1  H26A 2876   1.470   0.043   4.285  2.5993 -0.3988  0.5109
   23CHL1  H26B 2877   1.522  -0.021   4.441 -0.5602 -2.5203 -0.0999
   23CHL1  H26C 2878   1.361  -0.068   4.375  2.3794 -0.6221 -1.0432
   23CHL1   C27 2879   1.265   0.219   4.385  0.5251  0.2787 -0.1203
   23CHL1  H27A 2880   1.171   0.159   4.381  1.3365 -1.0906  0.4881
   23CHL1  H27B 2881   1.252   0.313   4.443 -0.4855  0.1587 -0.1271
   23CHL1  H27C 2882   1.299   0.253   4.285 -1.7410  0.7914 -0.7812
   24CHL1    C3 2883   1.355   2.468   5.860 -1.1941  0.8318 -0.1456
   24CHL1    H3 2884   1.252   2.425   5.859 -0.6093 -0.6680 -1.6680
   24CHL1    O3 2885   1.399   2.452   5.991 -0.3321  0.3260 -0.6486
   24CHL1   H3' 2886   1.383   2.538   6.032 -2.1632 -0.4054  0.2304
   24CHL1    C4 2887   1.452   2.383   5.773 -0.0335  0.0761  0.2344
   24CHL1   H4A 2888   1.552   2.430   5.770 -0.8163  2.1863  2.7208
   24CHL1   H4B 2889   1.451   2.278   5.808 -1.8318 -0.2397 -0.6232
   24CHL1    C5 2890   1.402   2.398   5.629 -0.3204  0.7330 -0.1677
   24CHL1    C6 2891   1.381   2.295   5.547 -0.1948  0.0983  0.4294
   24CHL1    H6 2892   1.397   2.193   5.585  1.9315 -0.9875 -2.8713
   24CHL1    C7 2893   1.337   2.298   5.399 -0.0122  0.1174 -0.4279
   24CHL1   H7A 2894   1.410   2.241   5.338 -2.6415 -2.6777 -1.2340
   24CHL1   H7B 2895   1.234   2.256   5.388  0.4046 -1.2861  0.7184
   24CHL1    C8 2896   1.337   2.442   5.336  0.5873  0.4454  0.7485
   24CHL1    H8 2897   1.437   2.477   5.303 -0.2513 -0.4897 -3.3291
   24CHL1   C14 2898   1.238   2.446   5.221  0.1224 -0.3174  0.1693
   24CHL1   H14 2899   1.134   2.419   5.247 -1.0497  0.7439 -2.9715
   24CHL1   C15 2900   1.273   2.351   5.102 -0.4282  0.2952 -0.0077
   24CHL1  H15A 2901   1.382   2.337   5.089 -0.4091  0.0300  0.4124
   24CHL1  H15B 2902   1.232   2.248   5.117  0.2970  0.3593  2.9151
   24CHL1   C16 2903   1.215   2.419   4.978 -0.4776 -0.9205 -0.4483
   24CHL1  H16A 2904   1.297   2.442   4.906 -0.0707  1.4844  0.6838
   24CHL1  H16B 2905   1.143   2.357   4.920  0.1018 -0.6495 -1.4902
   24CHL1   C17 2906   1.145   2.550   5.020  0.2953  0.4277 -0.1529
   24CHL1   H17 2907   1.038   2.526   5.036  0.4420 -0.8967 -0.9466
   24CHL1   C13 2908   1.222   2.580   5.156  0.1766 -0.7500 -0.4168
   24CHL1   C18 2909   1.355   2.651   5.132 -0.9547 -0.3090 -0.2988
   24CHL1  H18A 2910   1.328   2.748   5.086 -3.5009 -1.8549 -2.3476
   24CHL1  H18B 2911   1.414   2.677   5.223  0.9079 -2.5243 -0.7603
   24CHL1  H18C 2912   1.423   2.596   5.063  1.4617  2.4046 -0.2706
   24CHL1   C12 2913   1.155   2.673   5.260  1.0420  0.5622 -0.2398
   24CHL1  H12A 2914   1.138   2.777   5.226 -2.3025 -0.1715 -1.1710
   24CHL1  H12B 2915   1.061   2.622   5.288 -0.4502  1.9819 -2.3457
   24CHL1   C11 2916   1.234   2.676   5.393 -0.3680  0.2835  0.0748
   24CHL1  H11A 2917   1.314   2.752   5.381  0.1583 -0.4616 -1.2937
   24CHL1  H11B 2918   1.157   2.711   5.466  2.2350 -0.2002  3.2931
   24CHL1    C9 2919   1.281   2.531   5.440 -0.3297 -0.2148 -0.2617
   24CHL1    H9 2920   1.187   2.482   5.474  0.0952 -1.1659 -0.4212
   24CHL1   C10 2921   1.372   2.540   5.571  0.1920  0.3262  0.3384
   24CHL1   C19 2922   1.512   2.617   5.533 -0.1142  0.3410 -0.4333
   24CHL1  H19A 2923   1.575   2.563   5.460 -2.1671 -0.9866 -1.3117
   24CHL1  H19B 2924   1.494   2.711   5.477 -3.2742 -1.9300 -3.6995
   24CHL1  H19C 2925   1.572   2.633   5.626 -1.7568  0.3193  0.6797
   24CHL1    C1 2926   1.308   2.622   5.684 -0.2793 -0.6958  0.8090
   24CHL1   H1A 2927   1.330   2.727   5.656  0.5999 -1.2953 -0.8264
   24CHL1   H1B 2928   1.198   2.603   5.683 -0.1107 -1.7602  0.5898
   24CHL1    C2 2929   1.355   2.613   5.827  0.1455 -0.1939  0.3621
   24CHL1   H2A 2930   1.299   2.688   5.886 -2.8485  0.2275 -2.7524
   24CHL1   H2B 2931   1.460   2.647   5.812 -0.2807  0.2964 -1.8932
   24CHL1   C20 2932   1.141   2.654   4.906 -0.9555 -0.0132  0.0239
   24CHL1   H20 2933   1.247   2.665   4.875 -1.0515 -1.6533 -1.0159
   24CHL1   C21 2934   1.083   2.783   4.964 -0.1522 -0.1742 -0.3472
   24CHL1  H21A 2935   0.982   2.761   5.005 -0.4110  0.9539 -0.3654
   24CHL1  H21B 2936   1.086   2.857   4.882  1.8859  0.4890  0.2610
   24CHL1  H21C 2937   1.140   2.816   5.053  1.3855 -1.8733 -0.6386
   24CHL1   C22 2938   1.071   2.608   4.781  0.3732  0.0644  0.5397
   24CHL1  H22A 2939   1.108   2.507   4.756  0.6464  0.1801  0.4754
   24CHL1  H22B 2940   0.967   2.589   4.814 -0.3058  0.7640 -1.0613
   24CHL1   C23 2941   1.070   2.704   4.663  0.3364  0.3718  0.2304
   24CHL1  H23A 2942   0.987   2.775   4.682 -0.8847 -0.5296 -1.5173
   24CHL1  H23B 2943   1.165   2.762   4.672  0.3140  0.4217  0.1556
   24CHL1   C24 2944   1.044   2.656   4.514  0.4706 -0.0405 -0.6195
   24CHL1  H24A 2945   1.124   2.579   4.508 -0.2558 -0.7116 -2.1031
   24CHL1  H24B 2946   0.951   2.596   4.506  0.8930 -0.9541  0.8781
   24CHL1   C25 2947   1.053   2.765   4.407  0.1046  0.3435  0.0949
   24CHL1   H25 2948   1.143   2.825   4.431  1.0007 -0.7207 -0.5219
   24CHL1   C26 2949   1.071   2.713   4.271  0.4712  0.1635  0.6519
   24CHL1  H26A 2950   0.982   2.654   4.239  1.7928  0.0038 -3.2245
   24CHL1  H26B 2951   1.081   2.796   4.198  0.4524 -2.3735 -2.4614
   24CHL1  H26C 2952   1.163   2.651   4.278  0.1925 -0.4818 -1.0073
   24CHL1   C27 2953   0.928   2.859   4.406  0.1346 -0.3709 -0.7067
   24CHL1  H27A 2954   0.935   2.940   4.330  2.1052 -1.3065 -1.5957
   24CHL1  H27B 2955   0.839   2.800   4.378 -0.8445  0.3980  0.6212
   24CHL1  H27C 2956   0.892   2.900   4.503 -1.0831  0.8390 -1.6276
   25CHL1    C3 2957   0.194   3.096   5.837  0.3792  0.5164  0.3027
   25CHL1    H3 2958   0.088   3.074   5.816  0.5384  0.8333 -0.8730
   25CHL1    O3 2959   0.221   3.066   5.977 -0.2092 -0.7781  0.0707
   25CHL1   H3' 2960   0.176   2.982   5.992 -2.1168  0.4435  1.8014
   25CHL1    C4 2961   0.284   3.011   5.751  0.8901 -0.4289 -0.0465
   25CHL1   H4A 2962   0.388   3.035   5.780  0.8701 -1.1336  0.6559
   25CHL1   H4B 2963   0.285   2.901   5.770  1.9835 -0.8102 -2.0208
   25CHL1    C5 2964   0.251   3.039   5.603  0.2237  0.7722 -0.4689
   25CHL1    C6 2965   0.206   2.939   5.527  0.0670  0.0733 -0.6164
   25CHL1    H6 2966   0.189   2.837   5.564 -1.8249 -0.0892 -1.8428
   25CHL1    C7 2967   0.166   2.952   5.382  0.1288 -0.6828 -0.5214
   25CHL1   H7A 2968   0.208   2.863   5.330 -0.9885 -0.7994 -1.2619
   25CHL1   H7B 2969   0.055   2.943   5.376  0.2450 -1.1973 -2.2199
   25CHL1    C8 2970   0.223   3.083   5.322  0.1493  1.0926 -0.7536
   25CHL1    H8 2971   0.332   3.071   5.306  0.4843 -1.3509  2.4118
   25CHL1   C14 2972   0.170   3.107   5.181 -0.1027 -0.0838 -0.0370
   25CHL1   H14 2973   0.062   3.110   5.204 -0.3395 -1.1943 -0.9145
   25CHL1   C15 2974   0.186   2.997   5.074 -0.2362 -0.0747 -0.8836
   25CHL1  H15A 2975   0.290   2.959   5.070  0.2794  1.2574 -0.6464
   25CHL1  H15B 2976   0.114   2.914   5.090 -0.5428  0.0598 -1.5103
   25CHL1   C16 2977   0.173   3.071   4.941  0.4069  0.1772 -0.1550
   25CHL1  H16A 2978   0.268   3.063   4.885 -0.2143 -1.8047 -1.0087
   25CHL1  H16B 2979   0.089   3.028   4.882 -0.9038 -2.0933  3.0561
   25CHL1   C17 2980   0.148   3.223   4.974  0.3656  0.2031 -0.4507
   25CHL1   H17 2981   0.039   3.230   4.990  0.6304 -2.2377  3.9824
   25CHL1   C13 2982   0.213   3.236   5.117 -0.7265  0.4000 -0.7194
   25CHL1   C18 2983   0.373   3.241   5.090  0.1651 -0.3639 -0.2293
   25CHL1  H18A 2984   0.425   3.251   5.187  0.1325  2.1960 -0.3947
   25CHL1  H18B 2985   0.411   3.145   5.049 -2.2114 -1.7697  0.7177
   25CHL1  H18C 2986   0.406   3.337   5.044  1.0610 -0.9812 -0.9210
   25CHL1   C12 2987   0.172   3.356   5.203 -0.3362 -0.1232  0.2951
   25CHL1  H12A 2988   0.212   3.456   5.175 -2.2107  0.4692 -0.4193
   25CHL1  H12B 2989   0.061   3.363   5.198 -0.4125 -1.1714 -4.4484
   25CHL1   C11 2990   0.224   3.342   5.346 -0.0415  0.0684 -0.5200
   25CHL1  H11A 2991   0.331   3.370   5.357  0.5826 -2.3366  0.0325
   25CHL1  H11B 2992   0.172   3.418   5.408 -1.0548 -0.6208 -0.4947
   25CHL1    C9 2993   0.197   3.199   5.412 -0.6140  0.1576 -0.0914
   25CHL1    H9 2994   0.087   3.190   5.423 -0.5874 -1.9609 -1.0459
   25CHL1   C10 2995   0.264   3.184   5.556  0.0823  0.3886  0.3728
   25CHL1   C19 2996   0.416   3.200   5.543 -0.0823 -0.4328 -0.2418
   25CHL1  H19A 2997   0.428   3.308   5.520 -0.5640 -0.1245  0.8866
   25CHL1  H19B 2998   0.476   3.171   5.633  0.9491  1.4345 -0.2771
   25CHL1  H19C 2999   0.461   3.152   5.454 -0.5279 -1.6387  0.1602
   25CHL1    C1 3000   0.193   3.284   5.662  0.5154 -0.7789 -0.9440
   25CHL1   H1A 3001   0.240   3.383   5.643  1.3313 -1.3937 -2.3152
   25CHL1   H1B 3002   0.084   3.279   5.642  0.3298 -2.2681  0.2568
   25CHL1    C2 3003   0.224   3.244   5.809  0.5914  0.5344 -0.2343
   25CHL1   H2A 3004   0.164   3.300   5.884  1.2299  1.9804 -0.7563
   25CHL1   H2B 3005   0.327   3.271   5.842 -0.6691  3.5264  1.7014
   25CHL1   C20 3006   0.188   3.321   4.871  0.4062 -0.6108 -0.2310
   25CHL1   H20 3007   0.295   3.304   4.847  0.3515 -2.0933  0.4858
   25CHL1   C21 3008   0.171   3.466   4.924  0.8396 -0.3574  0.1477
   25CHL1  H21A 3009   0.255   3.490   4.993  0.6727  2.2931 -0.4655
   25CHL1  H21B 3010   0.081   3.470   4.989  0.4515 -2.3183 -0.2201
   25CHL1  H21C 3011   0.162   3.534   4.837 -0.3038 -2.5853 -1.5890
   25CHL1   C22 3012   0.107   3.301   4.734 -0.5652 -0.3312 -0.5940
   25CHL1  H22A 3013   0.135   3.380   4.661 -0.0694  0.8741  0.8400
   25CHL1  H22B 3014   0.130   3.201   4.691  1.4387  1.1137 -3.1037
   25CHL1   C23 3015  -0.046   3.313   4.728 -0.1318 -0.4360  0.1365
   25CHL1  H23A 3016  -0.092   3.220   4.769 -0.0802 -0.6791 -0.3482
   25CHL1  H23B 3017  -0.086   3.396   4.791  0.3787  0.2458 -0.4228
   25CHL1   C24 3018  -0.106   3.343   4.590  0.0777  0.3284 -0.3526
   25CHL1  H24A 3019  -0.107   3.454   4.584  1.7808  0.4298  0.5973
   25CHL1  H24B 3020  -0.037   3.292   4.519 -0.1821 -0.4415 -0.0496
   25CHL1   C25 3021  -0.250   3.283   4.557 -0.2644  0.0189  0.2887
   25CHL1   H25 3022  -0.243   3.174   4.575  0.8970  0.1854  0.9393
   25CHL1   C26 3023  -0.361   3.349   4.643  0.1387  0.1574  0.2221
   25CHL1  H26A 3024  -0.465   3.321   4.615 -0.8258  1.0927  2.6070
   25CHL1  H26B 3025  -0.347   3.312   4.747  2.8158 -0.1358 -0.1738
   25CHL1  H26C 3026  -0.339   3.456   4.664  0.2249 -0.1013  1.5145
   25CHL1   C27 3027  -0.281   3.312   4.405 -0.2246  0.4984 -0.5571
   25CHL1  H27A 3028  -0.207   3.250   4.350  0.2001  1.1799 -0.7641
   25CHL1  H27B 3029  -0.378   3.264   4.377  0.9116 -1.7655 -0.8146
   25CHL1  H27C 3030  -0.267   3.418   4.378  0.6217  0.5544  0.0655
   26CHL1    C3 3031   4.127   0.318   5.976  0.2339 -0.0784  0.4506
   26CHL1    H3 3032   4.194   0.231   5.963  0.1851 -0.0373 -0.1111
   26CHL1    O3 3033   4.115   0.350   6.108 -0.0173  0.0621  0.0959
   26CHL1   H3' 3034   4.056   0.426   6.112  1.6715  1.4083  2.0809
   26CHL1    C4 3035   4.174   0.443   5.898  0.5329  0.1163 -0.5737
   26CHL1   H4A 3036   4.099   0.522   5.923 -0.2837 -0.6453 -0.5460
   26CHL1   H4B 3037   4.274   0.462   5.941 -0.0205 -0.4666  1.0446
   26CHL1    C5 3038   4.189   0.409   5.753  0.3519 -0.0109  0.7461
   26CHL1    C6 3039   4.299   0.433   5.686  0.2779 -0.1691 -0.2127
   26CHL1    H6 3040   4.380   0.492   5.731  1.7732 -0.6916 -2.0911
   26CHL1    C7 3041   4.320   0.423   5.535  0.0809  0.4711 -0.3328
   26CHL1   H7A 3042   4.374   0.512   5.496 -0.8326  0.8879 -0.6829
   26CHL1   H7B 3043   4.377   0.329   5.518 -1.5504 -0.2068 -2.5909
   26CHL1    C8 3044   4.180   0.401   5.464  0.2331 -0.1173 -0.2126
   26CHL1    H8 3045   4.125   0.497   5.452 -1.7677 -1.2550 -0.4162
   26CHL1   C14 3046   4.203   0.345   5.322 -0.4634  0.4176  0.6413
   26CHL1   H14 3047   4.254   0.248   5.340  1.5931  1.4921  0.8891
   26CHL1   C15 3048   4.294   0.426   5.230  0.1773  0.1029  0.6751
   26CHL1  H15A 3049   4.261   0.532   5.233 -1.1052 -0.0076 -3.2273
   26CHL1  H15B 3050   4.401   0.414   5.255  0.1994 -0.8235  0.1999
   26CHL1   C16 3051   4.267   0.374   5.091 -0.1747 -0.2969  0.2946
   26CHL1  H16A 3052   4.243   0.458   5.022 -1.1088 -1.4681 -0.8845
   26CHL1  H16B 3053   4.352   0.329   5.036  1.6893  2.7341  0.4957
   26CHL1   C17 3054   4.142   0.287   5.096  0.1065 -0.2583  0.5796
   26CHL1   H17 3055   4.181   0.184   5.111  0.1489 -0.2129  0.7762
   26CHL1   C13 3056   4.075   0.327   5.238  1.0863  0.5586 -0.6857
   26CHL1   C18 3057   3.992   0.454   5.219  0.1414 -0.0828 -0.4454
   26CHL1  H18A 3058   3.896   0.436   5.166 -0.2736 -0.8963  0.5592
   26CHL1  H18B 3059   3.960   0.501   5.314  0.9834  1.4466 -0.8800
   26CHL1  H18C 3060   4.045   0.538   5.169 -0.7057  0.0705 -1.1080
   26CHL1   C12 3061   3.988   0.220   5.317 -0.1811 -0.4274  0.9473
   26CHL1  H12A 3062   3.889   0.212   5.268 -0.2279  1.5193  0.6501
   26CHL1  H12B 3063   4.039   0.123   5.304 -0.7012 -0.9000  2.2242
   26CHL1   C11 3064   3.963   0.257   5.462  0.2952  0.2721  0.7890
   26CHL1  H11A 3065   3.896   0.346   5.457  0.3609  0.3689  1.5013
   26CHL1  H11B 3066   3.911   0.178   5.520  0.7176 -0.4912  0.1348
   26CHL1    C9 3067   4.092   0.303   5.538  0.2747  0.5092  0.7038
   26CHL1    H9 3068   4.155   0.212   5.549 -0.4916 -0.0146  0.8372
   26CHL1   C10 3069   4.061   0.349   5.684  0.2317  0.1288  0.0224
   26CHL1   C19 3070   3.946   0.462   5.684 -0.1708 -0.7559 -0.0728
   26CHL1  H19A 3071   3.965   0.536   5.603  0.2951 -1.6183 -0.7669
   26CHL1  H19B 3072   3.854   0.406   5.659 -0.7209 -0.2042  0.6667
   26CHL1  H19C 3073   3.920   0.510   5.781 -1.8317 -2.7524  0.5335
   26CHL1    C1 3074   4.007   0.230   5.766 -0.7246  0.5783 -0.3915
   26CHL1   H1A 3075   3.905   0.204   5.728 -0.7671 -0.8897  0.6294
   26CHL1   H1B 3076   4.072   0.144   5.740 -0.9293  0.9762 -2.4338
   26CHL1    C2 3077   3.995   0.262   5.916 -0.1034  0.3692  0.3948
   26CHL1   H2A 3078   3.962   0.171   5.969 -0.8912  0.0415 -0.6218
   26CHL1   H2B 3079   3.921   0.345   5.924 -0.2137  0.1469  2.0100
   26CHL1   C20 3080   4.060   0.281   4.967 -0.1385  0.4885  0.2514
   26CHL1   H20 3081   3.990   0.366   4.954 -1.9806 -1.0354 -0.2923
   26CHL1   C21 3082   3.970   0.152   4.990 -0.1988 -0.7369  0.6399
   26CHL1  H21A 3083   3.909   0.143   4.898 -0.0768  0.5073  0.4123
   26CHL1  H21B 3084   3.905   0.149   5.079 -0.4149  0.7071  0.5492
   26CHL1  H21C 3085   4.032   0.061   4.977  1.4814  0.6862 -2.5797
   26CHL1   C22 3086   4.150   0.270   4.841 -0.0095 -0.0771  0.7435
   26CHL1  H22A 3087   4.218   0.357   4.834  0.3529 -0.4984 -2.1429
   26CHL1  H22B 3088   4.213   0.181   4.864 -1.6806 -0.8212  2.8219
   26CHL1   C23 3089   4.086   0.257   4.699  0.3017  0.1091 -0.3032
   26CHL1  H23A 3090   4.023   0.166   4.702  0.7043 -0.1843 -0.5613
   26CHL1  H23B 3091   4.021   0.346   4.686 -1.7820 -1.4060 -0.7290
   26CHL1   C24 3092   4.189   0.236   4.587 -0.2961  0.7917  0.9171
   26CHL1  H24A 3093   4.234   0.337   4.584  0.0185  0.6639  1.2762
   26CHL1  H24B 3094   4.271   0.166   4.613 -1.0203 -0.6926 -0.6039
   26CHL1   C25 3095   4.133   0.194   4.451  0.1977 -0.0271 -0.1985
   26CHL1   H25 3096   4.046   0.257   4.422  0.1139 -0.7906 -1.7047
   26CHL1   C26 3097   4.242   0.191   4.342  0.4903 -0.6881 -0.1926
   26CHL1  H26A 3098   4.291   0.291   4.341  0.5570 -0.6878 -2.5864
   26CHL1  H26B 3099   4.321   0.114   4.359 -1.0800 -1.8846  2.2440
   26CHL1  H26C 3100   4.190   0.181   4.245 -1.4963  0.6827  0.6644
   26CHL1   C27 3101   4.093   0.047   4.460  0.6814 -0.3058 -0.0367
   26CHL1  H27A 3102   4.037   0.008   4.372  0.3406 -0.8287  0.4002
   26CHL1  H27B 3103   4.186  -0.013   4.453 -0.0637 -1.3810 -0.9922
   26CHL1  H27C 3104   4.035   0.021   4.552  0.4311 -1.1261 -0.4166
   27CHL1    C3 3105   1.681   5.503   6.039 -0.2127  1.2408  0.2482
   27CHL1    H3 3106   1.715   5.397   6.041 -0.5651  1.0464 -1.6867
   27CHL1    O3 3107   1.596   5.532   6.145  0.3769 -0.1712 -0.1344
   27CHL1   H3' 3108   1.648   5.580   6.210 -0.3584  2.2371 -1.1996
   27CHL1    C4 3109   1.807   5.594   6.035 -0.2033 -0.1561 -0.1315
   27CHL1   H4A 3110   1.760   5.695   6.026 -2.1766 -0.9960  0.2575
   27CHL1   H4B 3111   1.862   5.581   6.130  0.3335 -1.8167 -0.6468
   27CHL1    C5 3112   1.903   5.571   5.923  0.0751  0.8489  0.5016
   27CHL1    C6 3113   2.027   5.538   5.939 -1.1759  0.2589 -0.6121
   27CHL1    H6 3114   2.073   5.520   6.037  0.5086  0.6359 -1.2920
   27CHL1    C7 3115   2.127   5.536   5.827 -0.6694  0.4258 -0.0111
   27CHL1   H7A 3116   2.217   5.591   5.859 -1.3106 -0.0878  2.9218
   27CHL1   H7B 3117   2.148   5.428   5.815 -2.1218  0.2075 -0.8034
   27CHL1    C8 3118   2.073   5.579   5.685 -0.3455  0.6277 -0.9154
   27CHL1    H8 3119   2.072   5.690   5.680 -0.8541  0.5708 -2.8050
   27CHL1   C14 3120   2.169   5.524   5.566 -0.2907 -0.9386 -0.4497
   27CHL1   H14 3121   2.159   5.414   5.580 -1.0344 -0.8056  0.1207
   27CHL1   C15 3122   2.317   5.562   5.569 -0.2338  0.1393  0.0563
   27CHL1  H15A 3123   2.334   5.669   5.594 -0.1129 -0.2639  1.8902
   27CHL1  H15B 3124   2.371   5.497   5.641  0.5102 -0.0319 -0.6502
   27CHL1   C16 3125   2.359   5.528   5.431 -0.2114  0.0143 -0.7409
   27CHL1  H16A 3126   2.411   5.619   5.396 -0.6962  0.6436  0.1130
   27CHL1  H16B 3127   2.436   5.450   5.418 -0.6485 -0.8703  1.4253
   27CHL1   C17 3128   2.234   5.509   5.343 -0.1466 -0.5178  0.2778
   27CHL1   H17 3129   2.216   5.399   5.334 -0.0874 -0.3980 -1.8791
   27CHL1   C13 3130   2.117   5.562   5.422 -0.4982  0.0885 -0.7921
   27CHL1   C18 3131   2.102   5.716   5.407 -0.3006 -0.1010 -0.0097
   27CHL1  H18A 3132   2.020   5.754   5.471 -0.5757  0.5645 -0.7366
   27CHL1  H18B 3133   2.194   5.769   5.439 -0.0332  0.0443 -0.9808
   27CHL1  H18C 3134   2.072   5.756   5.307  1.3414  2.4201  0.4211
   27CHL1   C12 3135   1.975   5.498   5.407  0.2127 -0.9146  0.2872
   27CHL1  H12A 3136   1.926   5.533   5.314 -0.6888 -0.9519  0.7440
   27CHL1  H12B 3137   1.984   5.387   5.410  0.7809 -0.9278 -1.1170
   27CHL1   C11 3138   1.876   5.550   5.515  0.0711  0.1671  0.5819
   27CHL1  H11A 3139   1.847   5.656   5.499 -2.7398 -0.1891  2.5389
   27CHL1  H11B 3140   1.783   5.489   5.512  0.6168 -0.7038 -2.9064
   27CHL1    C9 3141   1.932   5.533   5.668  0.2324 -0.5218 -1.2579
   27CHL1    H9 3142   1.944   5.424   5.685  0.1430 -0.2603  0.7052
   27CHL1   C10 3143   1.832   5.582   5.784 -0.1236 -0.1228 -0.4556
   27CHL1   C19 3144   1.786   5.726   5.748  0.1377  0.3444  0.1591
   27CHL1  H19A 3145   1.869   5.794   5.720 -0.1571  0.4011 -0.5927
   27CHL1  H19B 3146   1.711   5.725   5.666  2.8768 -2.2658 -2.5407
   27CHL1  H19C 3147   1.745   5.776   5.839  0.6454 -1.6769  1.5553
   27CHL1    C1 3148   1.705   5.487   5.787 -1.0582 -0.1599  0.1857
   27CHL1   H1A 3149   1.655   5.504   5.689 -1.8542  0.5924  0.7044
   27CHL1   H1B 3150   1.733   5.380   5.797  0.2973 -0.1644 -2.6958
   27CHL1    C2 3151   1.612   5.517   5.905 -0.7066 -0.0613  0.2963
   27CHL1   H2A 3152   1.528   5.445   5.908 -0.0283 -0.9981 -1.6179
   27CHL1   H2B 3153   1.565   5.618   5.899  1.0568  0.7466 -0.6817
   27CHL1   C20 3154   2.251   5.552   5.201 -0.3132 -0.0031  0.0553
   27CHL1   H20 3155   2.289   5.655   5.188  0.2597 -0.3199 -0.8646
   27CHL1   C21 3156   2.119   5.547   5.121  0.2661  0.5748 -0.2571
   27CHL1  H21A 3157   2.140   5.529   5.014  0.4260  0.3751 -0.1929
   27CHL1  H21B 3158   2.055   5.637   5.129 -1.1563 -0.4019 -0.3196
   27CHL1  H21C 3159   2.046   5.467   5.148 -1.9024  2.5799  0.1736
   27CHL1   C22 3160   2.361   5.463   5.125  0.1701  0.4666 -0.4395
   27CHL1  H22A 3161   2.379   5.510   5.026  0.6439 -0.1865 -0.6732
   27CHL1  H22B 3162   2.455   5.479   5.182 -0.0374  1.1989 -0.2938
   27CHL1   C23 3163   2.332   5.320   5.109 -0.0976 -0.2727  0.1211
   27CHL1  H23A 3164   2.331   5.271   5.208  0.0548 -0.1297  0.1933
   27CHL1  H23B 3165   2.232   5.309   5.060  0.6682 -0.9431 -1.3655
   27CHL1   C24 3166   2.434   5.243   5.029 -0.6812  0.4234 -0.2978
   27CHL1  H24A 3167   2.401   5.138   5.012  2.9338 -0.7283 -1.2043
   27CHL1  H24B 3168   2.457   5.292   4.933  2.2086  0.0231  0.0959
   27CHL1   C25 3169   2.571   5.237   5.107 -0.1561  0.6057 -0.7375
   27CHL1   H25 3170   2.620   5.336   5.120  3.0261 -0.9441  0.1519
   27CHL1   C26 3171   2.571   5.181   5.265 -0.3497  0.4765 -0.0472
   27CHL1  H26A 3172   2.543   5.259   5.339  0.9575 -0.7728  1.8341
   27CHL1  H26B 3173   2.515   5.085   5.272 -0.9141  0.8809  1.2103
   27CHL1  H26C 3174   2.677   5.162   5.292 -0.3451  1.3818  0.6269
   27CHL1   C27 3175   2.662   5.140   5.027 -0.3604 -0.2478  0.3169
   27CHL1  H27A 3176   2.764   5.138   5.072 -0.6800  0.5401  1.1017
   27CHL1  H27B 3177   2.681   5.185   4.927 -1.7702  0.1707  0.2207
   27CHL1  H27C 3178   2.619   5.039   5.011  0.5819 -0.9289  1.8301
   28CHL1    C3 3179   5.735   0.788   5.807 -0.1933  0.0071 -0.2619
   28CHL1    H3 3180   5.806   0.871   5.785 -0.0874 -0.1189 -0.3988
   28CHL1    O3 3181   5.699   0.809   5.943  0.3523 -0.2868  0.3172
   28CHL1   H3' 3182   5.656   0.894   5.949  2.6001  1.2240 -2.6973
   28CHL1    C4 3183   5.615   0.820   5.710  0.2644 -0.0322  0.4626
   28CHL1   H4A 3184   5.528   0.754   5.728 -1.6164  1.7350 -1.6334
   28CHL1   H4B 3185   5.578   0.919   5.743  0.7999  0.5354 -0.6129
   28CHL1    C5 3186   5.650   0.810   5.561  0.2309 -0.1100 -0.4519
   28CHL1    C6 3187   5.622   0.911   5.479 -0.3801 -0.0434  0.4015
   28CHL1    H6 3188   5.581   1.006   5.518  0.2494  0.5380 -0.3106
   28CHL1    C7 3189   5.667   0.918   5.334  0.0482  0.5225 -0.2125
   28CHL1   H7A 3190   5.590   0.964   5.270  0.5524  0.3124 -0.9838
   28CHL1   H7B 3191   5.757   0.984   5.332 -1.1354  2.7707  4.6784
   28CHL1    C8 3192   5.693   0.776   5.281 -0.9850  0.0174 -0.3530
   28CHL1    H8 3193   5.593   0.728   5.276 -0.4204 -1.2061 -0.4757
   28CHL1   C14 3194   5.749   0.778   5.135  0.4193  0.3433 -0.4691
   28CHL1   H14 3195   5.848   0.828   5.137  0.8979 -0.5805  1.7516
   28CHL1   C15 3196   5.673   0.865   5.036  0.4132 -0.1892  0.1476
   28CHL1  H15A 3197   5.564   0.849   5.053 -0.0769  1.1692 -1.4328
   28CHL1  H15B 3198   5.687   0.974   5.052 -1.8791  0.2498 -0.4639
   28CHL1   C16 3199   5.717   0.818   4.896  0.4633 -0.0338  0.1607
   28CHL1  H16A 3200   5.621   0.798   4.845 -0.4311  1.6210  1.1111
   28CHL1  H16B 3201   5.778   0.886   4.832  1.4721 -0.0945  1.0394
   28CHL1   C17 3202   5.811   0.698   4.926 -0.1426 -0.4186  0.3087
   28CHL1   H17 3203   5.916   0.733   4.930  0.0724 -1.1116  0.7604
   28CHL1   C13 3204   5.768   0.647   5.068  0.1609 -0.2758  0.2398
   28CHL1   C18 3205   5.628   0.576   5.053  0.4613 -0.2663  0.7066
   28CHL1  H18A 3206   5.573   0.557   5.148  1.0947 -0.6608  0.9996
   28CHL1  H18B 3207   5.567   0.630   4.977  3.6388  0.0267 -1.8006
   28CHL1  H18C 3208   5.649   0.475   5.012  0.5921 -0.2643  0.7700
   28CHL1   C12 3209   5.869   0.567   5.156  0.3551 -0.3825 -0.5492
   28CHL1  H12A 3210   5.873   0.465   5.114 -1.8991 -0.5029 -0.6226
   28CHL1  H12B 3211   5.971   0.611   5.157  0.4527 -0.6025  0.2184
   28CHL1   C11 3212   5.814   0.556   5.306  0.0277 -0.4079 -1.1617
   28CHL1  H11A 3213   5.732   0.481   5.308  2.2653 -2.9747  0.3665
   28CHL1  H11B 3214   5.893   0.523   5.377 -1.1836 -0.1156  0.3699
   28CHL1    C9 3215   5.783   0.695   5.372 -0.1772  0.1191  0.0308
   28CHL1    H9 3216   5.871   0.757   5.397 -2.1740  2.9515  0.4918
   28CHL1   C10 3217   5.718   0.679   5.515  0.1668  0.0933  0.2128
   28CHL1   C19 3218   5.608   0.574   5.516 -0.0682  0.2403  0.0424
   28CHL1  H19A 3219   5.540   0.577   5.604  0.7491  1.1075  0.6571
   28CHL1  H19B 3220   5.544   0.577   5.425 -1.0646 -0.0840  0.7125
   28CHL1  H19C 3221   5.651   0.472   5.513 -0.1309  0.2266 -0.4252
   28CHL1    C1 3222   5.828   0.639   5.615  0.3569 -0.4265 -0.5033
   28CHL1   H1A 3223   5.850   0.530   5.609 -0.1054 -0.4806 -1.3579
   28CHL1   H1B 3224   5.921   0.692   5.586  0.0024  1.1670  1.0843
   28CHL1    C2 3225   5.800   0.648   5.774  1.2711  0.8026 -0.3477
   28CHL1   H2A 3226   5.897   0.632   5.826  1.9378  0.0396 -1.7667
   28CHL1   H2B 3227   5.718   0.580   5.806 -1.1862  3.2253 -1.0288
   28CHL1   C20 3228   5.816   0.589   4.816  0.2214 -0.3573  0.1305
   28CHL1   H20 3229   5.726   0.524   4.823 -2.0342  2.4029 -0.9679
   28CHL1   C21 3230   5.945   0.506   4.829  0.0459 -0.7111 -1.0693
   28CHL1  H21A 3231   5.935   0.404   4.785 -1.5776 -0.2973 -1.7269
   28CHL1  H21B 3232   5.972   0.494   4.936 -2.1452  0.6631 -0.3074
   28CHL1  H21C 3233   6.037   0.558   4.794  0.6655  0.0923  1.5375
   28CHL1   C22 3234   5.817   0.650   4.673 -0.1700 -1.6413 -0.2645
   28CHL1  H22A 3235   5.730   0.718   4.666  0.0009 -1.2113  1.4036
   28CHL1  H22B 3236   5.902   0.722   4.672  1.0257 -2.9765  0.5142
   28CHL1   C23 3237   5.849   0.548   4.562 -0.1191  0.5851 -0.2320
   28CHL1  H23A 3238   5.954   0.517   4.579 -0.6983  0.0152  2.8829
   28CHL1  H23B 3239   5.791   0.458   4.592 -0.5752  0.9637  0.0314
   28CHL1   C24 3240   5.800   0.579   4.424 -0.4624 -0.5043  0.3895
   28CHL1  H24A 3241   5.693   0.602   4.441 -0.0570  1.2230  0.8092
   28CHL1  H24B 3242   5.860   0.655   4.370 -0.3488  0.1152  1.3589
   28CHL1   C25 3243   5.823   0.448   4.341  0.6219 -0.7521 -0.4148
   28CHL1   H25 3244   5.796   0.362   4.406 -0.4214  0.0503  0.2453
   28CHL1   C26 3245   5.736   0.450   4.207  0.7481  0.0019  0.0050
   28CHL1  H26A 3246   5.629   0.462   4.234  1.1106  1.4334  0.9137
   28CHL1  H26B 3247   5.779   0.529   4.141  3.1057 -1.8375 -0.8070
   28CHL1  H26C 3248   5.761   0.355   4.156 -1.9591 -1.1020  0.5855
   28CHL1   C27 3249   5.966   0.431   4.305  1.1435  1.0189 -0.5476
   28CHL1  H27A 3250   5.981   0.338   4.246 -0.1373 -0.5812  1.5139
   28CHL1  H27B 3251   6.011   0.506   4.238 -2.2274  0.9245 -3.1928
   28CHL1  H27C 3252   6.033   0.420   4.393 -0.9382 -3.0097  0.8185
   29CHL1    C3 3253   1.691   0.865   5.769  0.2595 -0.3568 -0.0958
   29CHL1    H3 3254   1.712   0.974   5.763  1.5329 -0.6536 -1.4293
   29CHL1    O3 3255   1.684   0.837   5.912 -0.5252 -0.6285  0.3534
   29CHL1   H3' 3256   1.720   0.914   5.957 -1.2607  0.5409 -0.9760
   29CHL1    C4 3257   1.554   0.828   5.702  0.4631  0.1789  0.0415
   29CHL1   H4A 3258   1.537   0.721   5.724 -0.1845  0.5869  1.6746
   29CHL1   H4B 3259   1.478   0.890   5.754 -1.2240 -0.0423 -2.0597
   29CHL1    C5 3260   1.549   0.854   5.553 -0.7726 -0.5510 -0.1074
   29CHL1    C6 3261   1.458   0.942   5.495 -0.1028 -0.0494 -0.2677
   29CHL1    H6 3262   1.388   0.995   5.561 -0.1569 -0.3962 -0.0459
   29CHL1    C7 3263   1.450   0.974   5.350  0.1731  0.5921 -0.0881
   29CHL1   H7A 3264   1.345   0.957   5.317 -0.3378  0.1263  1.6605
   29CHL1   H7B 3265   1.470   1.081   5.333 -1.7978  1.0534  0.2513
   29CHL1    C8 3266   1.542   0.886   5.261 -0.4033 -0.0450 -0.2353
   29CHL1    H8 3267   1.486   0.791   5.250 -0.4251 -0.0877  0.2039
   29CHL1   C14 3268   1.581   0.953   5.122  0.7607  0.3325  0.0245
   29CHL1   H14 3269   1.648   1.036   5.153  0.3417  0.5980  0.2140
   29CHL1   C15 3270   1.464   1.015   5.038 -0.2668 -0.1845  0.6358
   29CHL1  H15A 3271   1.378   0.945   5.037 -0.3108 -0.1458 -0.6942
   29CHL1  H15B 3272   1.430   1.113   5.077  0.9997  1.3947 -1.9057
   29CHL1   C16 3273   1.541   1.037   4.910 -0.5984  0.1204  0.7554
   29CHL1  H16A 3274   1.469   1.005   4.831 -0.0431 -1.0813  0.7267
   29CHL1  H16B 3275   1.560   1.145   4.892  2.1297 -0.1984  1.3478
   29CHL1   C17 3276   1.676   0.955   4.893 -0.1377 -0.5769  0.4297
   29CHL1   H17 3277   1.762   1.019   4.921 -0.7441  0.9295 -0.9865
   29CHL1   C13 3278   1.657   0.860   5.020 -0.2770  0.5804 -0.7860
   29CHL1   C18 3279   1.571   0.738   4.990 -0.1337  0.0756 -0.0887
   29CHL1  H18A 3280   1.605   0.681   4.901 -1.1593  1.3606 -1.3407
   29CHL1  H18B 3281   1.559   0.673   5.080  1.4837  0.5909  0.5326
   29CHL1  H18C 3282   1.469   0.766   4.957  1.0102  3.7626 -0.9542
   29CHL1   C12 3283   1.784   0.820   5.081 -0.1455  0.7402  0.3844
   29CHL1  H12A 3284   1.827   0.729   5.035  1.9067  2.1538 -0.6533
   29CHL1  H12B 3285   1.858   0.903   5.088 -0.5603  1.1774 -0.2929
   29CHL1   C11 3286   1.769   0.769   5.234 -0.3356 -0.0281 -0.0578
   29CHL1  H11A 3287   1.744   0.661   5.226  3.7124 -1.1652  0.3805
   29CHL1  H11B 3288   1.869   0.755   5.280 -0.3669  0.2623  0.1031
   29CHL1    C9 3289   1.679   0.860   5.326  0.2310 -0.2351 -0.0365
   29CHL1    H9 3290   1.725   0.960   5.344  0.8483 -0.8213  1.8597
   29CHL1   C10 3291   1.672   0.805   5.474  0.0621 -0.7058  0.2987
   29CHL1   C19 3292   1.650   0.649   5.470  0.9819 -0.1921 -0.0639
   29CHL1  H19A 3293   1.658   0.609   5.574 -0.5937 -2.0091 -0.5920
   29CHL1  H19B 3294   1.548   0.623   5.435 -0.1419  2.6120  0.8692
   29CHL1  H19C 3295   1.721   0.591   5.408  1.1478  0.4620 -0.4920
   29CHL1    C1 3296   1.803   0.840   5.544 -1.1163  0.7480 -0.3750
   29CHL1   H1A 3297   1.885   0.788   5.489 -2.1477  0.5578 -1.8029
   29CHL1   H1B 3298   1.824   0.948   5.527  0.3058  0.6052  0.3359
   29CHL1    C2 3299   1.819   0.805   5.695  0.6300 -0.0188 -0.0320
   29CHL1   H2A 3300   1.908   0.848   5.746 -1.0528  0.4075  2.7806
   29CHL1   H2B 3301   1.813   0.695   5.702  0.4246  0.0456  0.9686
   29CHL1   C20 3302   1.714   0.894   4.754 -0.7176  1.2596  0.8626
   29CHL1   H20 3303   1.791   0.816   4.769 -1.4841  0.1216 -0.9047
   29CHL1   C21 3304   1.773   1.010   4.668  0.1387  0.3204  0.5101
   29CHL1  H21A 3305   1.857   1.058   4.723  2.0886 -1.7542 -0.5084
   29CHL1  H21B 3306   1.693   1.086   4.659  0.2186  0.4565  0.9030
   29CHL1  H21C 3307   1.813   0.972   4.572  1.4703 -2.4668  2.0546
   29CHL1   C22 3308   1.594   0.833   4.677 -0.2071  0.1163 -0.2186
   29CHL1  H22A 3309   1.522   0.783   4.745  0.7009 -0.3807  0.4081
   29CHL1  H22B 3310   1.534   0.914   4.631  0.3332  0.6126 -0.0736
   29CHL1   C23 3311   1.626   0.750   4.560  0.3837  0.2270 -0.1691
   29CHL1  H23A 3312   1.699   0.794   4.489 -0.8053  0.2688 -1.4072
   29CHL1  H23B 3313   1.671   0.651   4.582 -0.1231 -0.7250 -2.9781
   29CHL1   C24 3314   1.500   0.711   4.479 -0.4447 -0.5911 -0.1302
   29CHL1  H24A 3315   1.417   0.699   4.552  0.6034 -0.8409  1.0493
   29CHL1  H24B 3316   1.475   0.794   4.410  0.9459 -0.4512 -0.4858
   29CHL1   C25 3317   1.517   0.588   4.384 -0.2932 -0.2747  0.6358
   29CHL1   H25 3318   1.604   0.616   4.321 -1.4233  1.5896 -0.1770
   29CHL1   C26 3319   1.521   0.455   4.456 -0.6295  0.5322 -0.2302
   29CHL1  H26A 3320   1.429   0.431   4.512 -0.4001 -0.1874 -0.1454
   29CHL1  H26B 3321   1.543   0.371   4.386  3.0368  1.1288  0.0137
   29CHL1  H26C 3322   1.606   0.453   4.528 -0.6793  1.8475 -0.1091
   29CHL1   C27 3323   1.395   0.567   4.294 -0.3456 -0.1066  0.4247
   29CHL1  H27A 3324   1.310   0.521   4.349 -0.5524  1.1747  1.2089
   29CHL1  H27B 3325   1.354   0.661   4.252 -0.6035  0.7819  2.5137
   29CHL1  H27C 3326   1.420   0.503   4.207  1.0718  0.9907 -0.0108
   30CHL1    C3 3327   1.779   0.164   5.716  0.6056 -0.3656  0.2489
   30CHL1    H3 3328   1.679   0.122   5.696 -1.0771  3.6848 -0.8323
   30CHL1    O3 3329   1.773   0.205   5.850 -0.5712 -0.0595 -0.0758
   30CHL1   H3' 3330   1.724   0.287   5.846 -2.1794 -0.6578  3.4271
   30CHL1    C4 3331   1.896   0.071   5.699 -0.5147  0.6052  0.4505
   30CHL1   H4A 3332   1.979   0.144   5.716 -1.8148  1.9156  1.4030
   30CHL1   H4B 3333   1.896  -0.006   5.779 -1.3559 -2.1498 -2.0132
   30CHL1    C5 3334   1.895   0.019   5.554 -0.1237  0.0445 -0.3389
   30CHL1    C6 3335   1.871  -0.109   5.530  0.0767  0.6931 -0.0829
   30CHL1    H6 3336   1.865  -0.173   5.619  0.3083 -1.1963 -1.3800
   30CHL1    C7 3337   1.880  -0.169   5.385 -0.3930 -1.0873 -0.2614
   30CHL1   H7A 3338   1.951  -0.255   5.378  2.3861  1.1997 -4.3473
   30CHL1   H7B 3339   1.782  -0.206   5.350 -0.1580 -0.7792 -1.2903
   30CHL1    C8 3340   1.937  -0.065   5.278  0.0521  0.2505  0.7592
   30CHL1    H8 3341   2.047  -0.060   5.270  0.0864 -0.9359  0.2233
   30CHL1   C14 3342   1.879  -0.117   5.139 -0.4052  0.0136 -0.5937
   30CHL1   H14 3343   1.769  -0.125   5.154 -0.4506 -0.5296 -1.1627
   30CHL1   C15 3344   1.922  -0.260   5.086 -0.6548 -0.1098  0.6252
   30CHL1  H15A 3345   2.032  -0.269   5.076 -0.9228 -1.0159 -2.5499
   30CHL1  H15B 3346   1.893  -0.342   5.156  0.4139 -0.4727  0.6676
   30CHL1   C16 3347   1.879  -0.264   4.937 -0.3862  0.2582 -0.9722
   30CHL1  H16A 3348   1.953  -0.326   4.883 -1.4436 -0.0473 -2.1371
   30CHL1  H16B 3349   1.785  -0.323   4.944  0.1156 -0.4262  0.3792
   30CHL1   C17 3350   1.848  -0.114   4.897  0.3869 -0.9680  0.6561
   30CHL1   H17 3351   1.738  -0.113   4.914 -0.0276 -1.0828 -1.6690
   30CHL1   C13 3352   1.897  -0.025   5.015 -0.5324  0.2002  0.4989
   30CHL1   C18 3353   2.044  -0.003   4.976  0.0076 -0.0899 -0.1133
   30CHL1  H18A 3354   2.102   0.056   5.050  2.0602 -1.2817 -0.6984
   30CHL1  H18B 3355   2.101  -0.098   4.969 -0.4748 -0.2914 -1.6590
   30CHL1  H18C 3356   2.055   0.041   4.874 -0.8855 -0.9919 -0.6143
   30CHL1   C12 3357   1.836   0.113   5.050  0.5609 -0.8514  1.2172
   30CHL1  H12A 3358   1.867   0.192   4.978  2.5172  0.7836  3.6910
   30CHL1  H12B 3359   1.726   0.107   5.065  0.6113 -2.3449  1.1496
   30CHL1   C11 3360   1.890   0.174   5.185 -0.3209  0.1846 -0.7033
   30CHL1  H11A 3361   1.997   0.200   5.171  0.5004 -3.0810 -1.2635
   30CHL1  H11B 3362   1.836   0.268   5.207 -1.0342 -0.2280 -0.6606
   30CHL1    C9 3363   1.881   0.071   5.307  0.3575 -0.3653  0.4152
   30CHL1    H9 3364   1.776   0.040   5.325  0.6182 -1.3699  0.2416
   30CHL1   C10 3365   1.915   0.127   5.443 -0.1259 -0.6623 -0.6072
   30CHL1   C19 3366   2.059   0.173   5.441  0.1464 -0.7829  0.1795
   30CHL1  H19A 3367   2.130   0.089   5.422 -1.7322 -2.4268  0.0899
   30CHL1  H19B 3368   2.072   0.259   5.371  0.1349  0.4623  1.6507
   30CHL1  H19C 3369   2.109   0.208   5.533  0.3743  0.1230 -0.2788
   30CHL1    C1 3370   1.811   0.245   5.473  0.0368  0.5221  0.6235
   30CHL1   H1A 3371   1.848   0.330   5.412  2.5347 -0.2624  0.9226
   30CHL1   H1B 3372   1.714   0.217   5.428 -0.0385  0.4927  0.8031
   30CHL1    C2 3373   1.793   0.286   5.617  1.0522  0.0249  0.4466
   30CHL1   H2A 3374   1.709   0.359   5.624  0.3568 -0.6718 -0.3983
   30CHL1   H2B 3375   1.886   0.336   5.652  0.6665 -1.2585  3.6562
   30CHL1   C20 3376   1.868  -0.083   4.750  0.2342  0.0513  0.2156
   30CHL1   H20 3377   1.978  -0.092   4.734  0.3256  0.6498  0.4639
   30CHL1   C21 3378   1.831   0.062   4.723 -0.0226 -0.0491 -0.3911
   30CHL1  H21A 3379   1.858   0.098   4.622  0.0032  0.9597 -0.0290
   30CHL1  H21B 3380   1.885   0.123   4.797  0.7105 -0.1645 -0.8223
   30CHL1  H21C 3381   1.721   0.071   4.737  0.1957 -0.3825  1.8075
   30CHL1   C22 3382   1.795  -0.179   4.654  0.9013 -0.0010  0.3488
   30CHL1  H22A 3383   1.839  -0.148   4.557  2.4070  1.7298  1.5357
   30CHL1  H22B 3384   1.841  -0.279   4.671  0.4712 -0.2144  0.2934
   30CHL1   C23 3385   1.643  -0.196   4.678 -0.8440  0.0228  0.1680
   30CHL1  H23A 3386   1.643  -0.239   4.780  1.0997  0.8785  0.5674
   30CHL1  H23B 3387   1.593  -0.099   4.657  2.5186  1.7777 -0.5161
   30CHL1   C24 3388   1.586  -0.298   4.574 -0.6395 -0.1639 -0.7453
   30CHL1  H24A 3389   1.601  -0.263   4.470  0.1258 -2.7120 -1.5597
   30CHL1  H24B 3390   1.631  -0.398   4.588 -0.1141  0.1704  0.1058
   30CHL1   C25 3391   1.433  -0.321   4.590  0.7613  0.0102 -0.2510
   30CHL1   H25 3392   1.387  -0.220   4.588  0.0958 -0.2919 -1.2147
   30CHL1   C26 3393   1.362  -0.390   4.468  0.1183  0.1051  0.5287
   30CHL1  H26A 3394   1.358  -0.322   4.381  0.9359  1.1941  1.3110
   30CHL1  H26B 3395   1.412  -0.487   4.447  0.5219  0.3900  0.1724
   30CHL1  H26C 3396   1.261  -0.412   4.509  0.3033  1.0091  1.5172
   30CHL1   C27 3397   1.385  -0.396   4.717 -0.5156  0.2124  0.0155
   30CHL1  H27A 3398   1.276  -0.381   4.727 -0.5589  0.0754 -0.2423
   30CHL1  H27B 3399   1.415  -0.503   4.709 -0.1026  0.4002 -1.1971
   30CHL1  H27C 3400   1.429  -0.355   4.810 -0.1771  1.1699 -0.5523
   31CHL1    C3 3401   6.695   2.937   5.973 -0.1532 -0.3596 -0.0339
   31CHL1    H3 3402   6.804   2.921   5.961 -0.2137  1.2232 -3.7090
   31CHL1    O3 3403   6.677   2.935   6.116  0.1398  0.1617  0.0318
   31CHL1   H3' 3404   6.584   2.934   6.141  0.3453  1.9553  1.0103
   31CHL1    C4 3405   6.644   3.074   5.920  0.1901  0.2260  0.3347
   31CHL1   H4A 3406   6.540   3.101   5.948 -0.4373 -1.5869 -0.1268
   31CHL1   H4B 3407   6.716   3.148   5.963  0.2849  1.3795 -1.6887
   31CHL1    C5 3408   6.642   3.090   5.768 -0.2394 -0.2015 -0.6539
   31CHL1    C6 3409   6.694   3.190   5.702 -0.5630 -0.7361  0.0235
   31CHL1    H6 3410   6.736   3.278   5.754 -0.7829 -0.3041 -0.5135
   31CHL1    C7 3411   6.692   3.216   5.559  0.9589  0.3873 -0.0656
   31CHL1   H7A 3412   6.649   3.317   5.541  1.2470  0.5386  0.0728
   31CHL1   H7B 3413   6.794   3.234   5.518  1.0723  0.6985  0.3518
   31CHL1    C8 3414   6.603   3.119   5.485 -0.2084 -0.3581  0.8314
   31CHL1    H8 3415   6.495   3.145   5.482 -0.0212  0.4751 -1.5801
   31CHL1   C14 3416   6.649   3.111   5.334 -0.2966  0.0020 -0.4104
   31CHL1   H14 3417   6.751   3.067   5.333 -0.0098  0.4648  2.0316
   31CHL1   C15 3418   6.650   3.241   5.259  0.7114 -0.0969  0.4845
   31CHL1  H15A 3419   6.560   3.299   5.286  1.5086  2.4928 -1.9865
   31CHL1  H15B 3420   6.742   3.302   5.274  1.5872 -1.0624 -0.6861
   31CHL1   C16 3421   6.641   3.197   5.106 -0.2394 -0.3371  0.4553
   31CHL1  H16A 3422   6.555   3.245   5.053  0.7350  1.0944  0.1134
   31CHL1  H16B 3423   6.737   3.230   5.062 -0.3147  1.0173  1.2353
   31CHL1   C17 3424   6.615   3.047   5.110  0.3655 -0.0376 -0.7666
   31CHL1   H17 3425   6.716   3.006   5.090  0.9467  1.6909 -1.5922
   31CHL1   C13 3426   6.559   3.022   5.253 -0.2747 -0.4005  0.8500
   31CHL1   C18 3427   6.410   3.071   5.248  0.8295 -0.9788 -0.2407
   31CHL1  H18A 3428   6.360   3.073   5.347 -2.0490  3.6597 -1.4987
   31CHL1  H18B 3429   6.396   3.174   5.208  1.1445 -0.3872  1.1157
   31CHL1  H18C 3430   6.343   3.007   5.187 -2.1489  0.8373  0.9327
   31CHL1   C12 3431   6.566   2.886   5.306 -0.4477  0.4494 -0.5144
   31CHL1  H12A 3432   6.497   2.814   5.258 -0.2722  1.8765 -3.0872
   31CHL1  H12B 3433   6.673   2.860   5.295 -0.3119  0.6394  0.2668
   31CHL1   C11 3434   6.526   2.887   5.456 -0.8860 -0.0344 -0.7338
   31CHL1  H11A 3435   6.418   2.916   5.455 -1.4596 -2.0110 -0.5968
   31CHL1  H11B 3436   6.547   2.783   5.490  0.9913  0.7441  0.6066
   31CHL1    C9 3437   6.613   2.983   5.543 -0.2579  0.3272  1.0971
   31CHL1    H9 3438   6.719   2.956   5.524 -0.7316 -0.1524 -1.1519
   31CHL1   C10 3439   6.576   2.969   5.694 -0.3365 -0.0996  0.6469
   31CHL1   C19 3440   6.418   2.971   5.716  0.0913  0.2783 -0.5049
   31CHL1  H19A 3441   6.396   3.006   5.819 -1.7666  0.7360 -1.0134
   31CHL1  H19B 3442   6.359   3.038   5.651 -1.0243  0.5549  0.7494
   31CHL1  H19C 3443   6.384   2.865   5.710  0.9226  0.0369 -1.1519
   31CHL1    C1 3444   6.633   2.833   5.753  0.0914 -1.1902  0.1007
   31CHL1   H1A 3445   6.571   2.754   5.706  0.5057 -1.9321  0.7867
   31CHL1   H1B 3446   6.739   2.819   5.724 -0.4483  0.0022 -2.8172
   31CHL1    C2 3447   6.616   2.825   5.909  0.5260 -0.2600 -0.7478
   31CHL1   H2A 3448   6.651   2.723   5.936  3.6094  0.9335  0.1265
   31CHL1   H2B 3449   6.508   2.844   5.926  0.7353  1.6372 -1.3091
   31CHL1   C20 3450   6.530   2.979   4.994 -0.1690  0.1167 -0.3223
   31CHL1   H20 3451   6.485   2.886   5.035 -1.2691  1.2867  1.2353
   31CHL1   C21 3452   6.629   2.935   4.888  0.1596  0.3866  0.2367
   31CHL1  H21A 3453   6.707   2.866   4.927  0.5179 -0.1512 -1.3164
   31CHL1  H21B 3454   6.684   3.027   4.858  1.4955 -0.6216 -0.5380
   31CHL1  H21C 3455   6.579   2.879   4.806  0.7584  2.5851 -1.7361
   31CHL1   C22 3456   6.422   3.054   4.923  0.0359 -0.3334 -0.6417
   31CHL1  H22A 3457   6.369   3.127   4.988  0.3620 -0.3469 -0.3517
   31CHL1  H22B 3458   6.475   3.111   4.844  0.6236 -0.6928 -0.5128
   31CHL1   C23 3459   6.320   2.969   4.861  0.7011  0.5372 -0.6014
   31CHL1  H23A 3460   6.360   2.893   4.790  0.9756  0.2766 -0.1731
   31CHL1  H23B 3461   6.284   2.906   4.945  1.1208  0.4559 -0.4777
   31CHL1   C24 3462   6.201   3.045   4.798 -0.0784  0.2750 -0.6077
   31CHL1  H24A 3463   6.114   2.976   4.791 -0.8813  1.3225 -1.3644
   31CHL1  H24B 3464   6.185   3.132   4.865  1.9201 -1.7697  2.8179
   31CHL1   C25 3465   6.234   3.121   4.668 -0.1162  0.3647  0.0844
   31CHL1   H25 3466   6.323   3.182   4.697  1.5192 -1.2457 -1.2603
   31CHL1   C26 3467   6.278   3.024   4.563  0.3186  0.1630  0.6102
   31CHL1  H26A 3468   6.199   2.950   4.537 -0.4836  1.7706 -1.9370
   31CHL1  H26B 3469   6.297   3.090   4.476  1.0938  1.2198  1.5645
   31CHL1  H26C 3470   6.377   2.976   4.580  0.9079  2.3414  4.2517
   31CHL1   C27 3471   6.113   3.202   4.624 -0.1468 -0.5403 -0.3104
   31CHL1  H27A 3472   6.138   3.308   4.602  1.6924 -0.6395  1.0679
   31CHL1  H27B 3473   6.055   3.158   4.540 -0.2062 -2.7046  0.7850
   31CHL1  H27C 3474   6.042   3.205   4.710 -0.2558 -0.4609 -0.4033
   32CHL1    C3 3475   3.524   6.833   5.899  0.4335  0.6118 -0.1620
   32CHL1    H3 3476   3.466   6.923   5.871 -2.2770 -0.6748  0.9653
   32CHL1    O3 3477   3.520   6.821   6.039  0.4595  0.2326 -0.6551
   32CHL1   H3' 3478   3.530   6.726   6.049 -0.1110  0.1994 -0.3474
   32CHL1    C4 3479   3.466   6.715   5.831 -1.0028  0.6257 -0.8566
   32CHL1   H4A 3480   3.520   6.621   5.858 -0.6468  0.9636 -0.3762
   32CHL1   H4B 3481   3.365   6.697   5.875 -0.0284 -3.2249  0.2669
   32CHL1    C5 3482   3.472   6.720   5.678  0.5442  0.5026  0.5334
   32CHL1    C6 3483   3.360   6.706   5.603  0.0567  0.1307  0.0998
   32CHL1    H6 3484   3.264   6.698   5.656  0.8385 -0.1148  1.5205
   32CHL1    C7 3485   3.359   6.705   5.457  0.4433  0.4323  0.2830
   32CHL1   H7A 3486   3.283   6.638   5.413 -0.7139 -0.1170  2.8813
   32CHL1   H7B 3487   3.339   6.811   5.431  1.4564  0.1945 -1.6194
   32CHL1    C8 3488   3.503   6.676   5.398 -0.6029 -0.0971 -0.2081
   32CHL1    H8 3489   3.522   6.569   5.422 -0.4166  0.4101  2.1366
   32CHL1   C14 3490   3.507   6.697   5.249  0.3533  0.2099  0.0710
   32CHL1   H14 3491   3.496   6.806   5.232 -0.7077  0.2160  0.6845
   32CHL1   C15 3492   3.394   6.635   5.159 -0.2844  0.3442  0.1312
   32CHL1  H15A 3493   3.374   6.531   5.190 -1.5504 -0.1171 -2.0909
   32CHL1  H15B 3494   3.311   6.708   5.171  2.6927  3.6323  4.1136
   32CHL1   C16 3495   3.452   6.637   5.017  0.4216  0.8869  0.2872
   32CHL1  H16A 3496   3.456   6.536   4.972 -0.6030  2.4164 -3.6212
   32CHL1  H16B 3497   3.387   6.702   4.955  1.0907 -0.5786 -2.0859
   32CHL1   C17 3498   3.600   6.690   5.033  0.7249  0.0524  0.0508
   32CHL1   H17 3499   3.594   6.801   5.035  1.9310  0.3127 -3.4327
   32CHL1   C13 3500   3.634   6.661   5.181 -0.0704  0.5877 -0.0679
   32CHL1   C18 3501   3.672   6.514   5.196  0.1476  0.3740  0.2341
   32CHL1  H18A 3502   3.591   6.447   5.158  1.7226 -1.1131 -0.6404
   32CHL1  H18B 3503   3.764   6.489   5.139 -0.8868  0.8307 -1.7525
   32CHL1  H18C 3504   3.684   6.483   5.302 -1.1859 -1.5454 -0.1262
   32CHL1   C12 3505   3.739   6.747   5.246 -0.4066 -0.4944  0.9768
   32CHL1  H12A 3506   3.841   6.724   5.208 -0.6897 -0.1924  0.0226
   32CHL1  H12B 3507   3.722   6.856   5.232  0.4076 -0.3345  1.1202
   32CHL1   C11 3508   3.749   6.731   5.403 -0.0871 -0.0215  0.0498
   32CHL1  H11A 3509   3.798   6.634   5.425 -1.2297 -0.9453 -1.3303
   32CHL1  H11B 3510   3.821   6.808   5.437 -0.8927  1.5697 -1.6702
   32CHL1    C9 3511   3.614   6.764   5.472  0.7471 -0.5787 -0.0448
   32CHL1    H9 3512   3.601   6.872   5.453 -0.2936 -0.5464  0.7595
   32CHL1   C10 3513   3.611   6.736   5.627 -0.7268  0.4148 -0.1720
   32CHL1   C19 3514   3.685   6.606   5.653 -0.3674  0.3342 -0.5505
   32CHL1  H19A 3515   3.689   6.562   5.755  4.2895 -0.0840 -0.7040
   32CHL1  H19B 3516   3.644   6.528   5.585 -3.7586  2.1368 -0.7893
   32CHL1  H19C 3517   3.794   6.608   5.632  0.5761  0.1342  3.4466
   32CHL1    C1 3518   3.684   6.844   5.701  0.0430  0.5295 -0.4226
   32CHL1   H1A 3519   3.793   6.848   5.683  0.1568 -0.4131 -0.0008
   32CHL1   H1B 3520   3.651   6.945   5.670  2.4093  1.4195 -0.2361
   32CHL1    C2 3521   3.669   6.842   5.862 -0.1034 -0.1402 -0.2172
   32CHL1   H2A 3522   3.715   6.941   5.882 -2.9803  1.9753 -3.0049
   32CHL1   H2B 3523   3.726   6.754   5.898  0.3925  0.6660  1.0368
   32CHL1   C20 3524   3.708   6.669   4.928 -0.3242  0.8676 -0.0622
   32CHL1   H20 3525   3.807   6.670   4.979 -0.8298  1.3164  0.9518
   32CHL1   C21 3526   3.698   6.776   4.818 -0.3983 -0.1604  0.1547
   32CHL1  H21A 3527   3.609   6.764   4.753  1.1673 -0.1360 -2.1112
   32CHL1  H21B 3528   3.784   6.765   4.748  1.2208  3.1839  1.4044
   32CHL1  H21C 3529   3.699   6.875   4.869  0.7744  0.0362 -0.2319
   32CHL1   C22 3530   3.704   6.520   4.866 -0.5600  0.6651 -0.2880
   32CHL1  H22A 3531   3.691   6.439   4.940  1.8863  1.6501  1.3512
   32CHL1  H22B 3532   3.613   6.512   4.803 -0.8942 -0.2012  0.2953
   32CHL1   C23 3533   3.829   6.474   4.782  0.0457 -0.5595 -0.3476
   32CHL1  H23A 3534   3.844   6.562   4.715  0.5417  0.0268  0.5130
   32CHL1  H23B 3535   3.906   6.479   4.861 -0.5988  1.3831  0.2271
   32CHL1   C24 3536   3.818   6.338   4.715  0.7613  1.1024 -0.3057
   32CHL1  H24A 3537   3.798   6.259   4.790  1.6170  0.0035 -1.1909
   32CHL1  H24B 3538   3.733   6.329   4.644  0.8143  0.9429 -0.3494
   32CHL1   C25 3539   3.939   6.296   4.622  0.0377 -0.0536 -0.0499
   32CHL1   H25 3540   4.033   6.306   4.680  0.5550 -1.6935 -0.5643
   32CHL1   C26 3541   3.902   6.151   4.573  0.1628 -0.7996 -0.0996
   32CHL1  H26A 3542   3.881   6.095   4.667  2.7763 -0.5425  0.7372
   32CHL1  H26B 3543   3.808   6.153   4.515 -1.2809  0.4881  2.1383
   32CHL1  H26C 3544   3.983   6.101   4.516 -1.9854 -1.1912 -2.9932
   32CHL1   C27 3545   3.945   6.391   4.506 -0.0049 -0.4686 -0.3738
   32CHL1  H27A 3546   4.031   6.365   4.441  0.8371 -1.4175  1.0549
   32CHL1  H27B 3547   3.852   6.389   4.446 -1.7383 -0.2696  2.1260
   32CHL1  H27C 3548   3.969   6.492   4.545  1.2450 -0.3272 -1.4320
   33CHL1    C3 3549   1.084   3.289   6.010  0.0190 -0.9453  0.0689
   33CHL1    H3 3550   1.177   3.330   5.964  0.4422 -1.3143  0.5871
   33CHL1    O3 3551   1.101   3.244   6.143 -0.0699  0.2864  0.2686
   33CHL1   H3' 3552   1.196   3.257   6.152  0.0187 -0.5577  0.6753
   33CHL1    C4 3553   0.986   3.407   6.008  0.1136 -0.0661  0.0698
   33CHL1   H4A 3554   0.896   3.366   6.058 -0.7265  2.4299  0.7589
   33CHL1   H4B 3555   1.021   3.491   6.071 -1.1433  0.4151  0.1499
   33CHL1    C5 3556   0.947   3.453   5.870 -0.0304  0.2565  0.4660
   33CHL1    C6 3557   0.963   3.586   5.835 -0.9752  1.2326 -0.8790
   33CHL1    H6 3558   1.004   3.649   5.916 -2.4830  2.7389 -1.2394
   33CHL1    C7 3559   0.934   3.639   5.693  0.6206  0.4580  0.1200
   33CHL1   H7A 3560   0.873   3.732   5.694 -1.4219 -0.8191 -0.3974
   33CHL1   H7B 3561   1.022   3.664   5.631 -0.9157  3.0496 -1.2120
   33CHL1    C8 3562   0.855   3.529   5.614  0.4446  0.0697 -0.1050
   33CHL1    H8 3563   0.748   3.530   5.645 -0.2060  0.6456 -2.1641
   33CHL1   C14 3564   0.852   3.575   5.464 -0.2169 -0.1372 -0.2357
   33CHL1   H14 3565   0.956   3.575   5.425 -0.5927 -0.7439 -1.2876
   33CHL1   C15 3566   0.813   3.725   5.432 -0.0369 -0.7716  0.1396
   33CHL1  H15A 3567   0.726   3.759   5.492  0.0324  1.4621 -0.9181
   33CHL1  H15B 3568   0.897   3.797   5.441  1.3159 -2.2611 -0.1448
   33CHL1   C16 3569   0.779   3.733   5.280  0.7803 -0.1588 -0.9232
   33CHL1  H16A 3570   0.671   3.759   5.282  0.5089 -1.2861  0.5822
   33CHL1  H16B 3571   0.850   3.805   5.234  2.4817 -1.2268 -0.0735
   33CHL1   C17 3572   0.787   3.581   5.232  0.6263 -0.9980 -0.2775
   33CHL1   H17 3573   0.894   3.578   5.206  0.2730 -0.3810 -1.8955
   33CHL1   C13 3574   0.776   3.492   5.357 -0.7180 -0.0455  0.1547
   33CHL1   C18 3575   0.621   3.471   5.381 -0.2228 -0.0383  0.3622
   33CHL1  H18A 3576   0.593   3.401   5.299 -0.2032  0.1240  0.2148
   33CHL1  H18B 3577   0.599   3.424   5.479  1.5867  0.7633  1.2002
   33CHL1  H18C 3578   0.563   3.565   5.384  1.1387  0.8102  2.9726
   33CHL1   C12 3579   0.849   3.359   5.366  0.0251 -0.6662  0.1963
   33CHL1  H12A 3580   0.801   3.281   5.303  0.1156 -0.3514 -0.2767
   33CHL1  H12B 3581   0.956   3.357   5.334 -0.5304  0.8518 -2.0230
   33CHL1   C11 3582   0.846   3.309   5.512 -0.0585 -0.5127 -0.7135
   33CHL1  H11A 3583   0.738   3.289   5.531 -0.2577  0.0410 -1.2297
   33CHL1  H11B 3584   0.898   3.211   5.520 -0.2972 -0.6866 -1.2419
   33CHL1    C9 3585   0.912   3.394   5.622 -0.2916  0.2871 -0.9358
   33CHL1    H9 3586   1.017   3.399   5.586  0.0839 -3.4251 -0.7326
   33CHL1   C10 3587   0.909   3.341   5.771  0.0896 -0.6313  0.6453
   33CHL1   C19 3588   0.765   3.296   5.804  0.2305  0.0654 -0.8156
   33CHL1  H19A 3589   0.733   3.314   5.909  0.9224  3.4525 -1.0655
   33CHL1  H19B 3590   0.689   3.361   5.756  0.4521  1.1232  0.1981
   33CHL1  H19C 3591   0.744   3.190   5.781 -0.3547 -0.1801  0.7515
   33CHL1    C1 3592   1.004   3.215   5.784  0.4925 -0.1876 -0.3632
   33CHL1   H1A 3593   0.958   3.131   5.728 -1.2587  0.2963  0.2529
   33CHL1   H1B 3594   1.099   3.229   5.729  0.1752 -0.0478 -0.8821
   33CHL1    C2 3595   1.035   3.174   5.925 -0.1359  0.4067 -0.6900
   33CHL1   H2A 3596   1.116   3.100   5.940 -0.7494 -0.0516  0.5210
   33CHL1   H2B 3597   0.947   3.124   5.972  0.2144 -0.1720 -0.6435
   33CHL1   C20 3598   0.716   3.559   5.105  0.1755  0.1118  0.2643
   33CHL1   H20 3599   0.606   3.563   5.120  0.2242  2.0560  0.3429
   33CHL1   C21 3600   0.745   3.417   5.052 -0.1680 -0.3069  0.2261
   33CHL1  H21A 3601   0.852   3.398   5.031 -0.0843 -0.2065  0.5499
   33CHL1  H21B 3602   0.678   3.406   4.964 -2.1069  1.2528  1.4182
   33CHL1  H21C 3603   0.718   3.340   5.128 -1.5441  0.8088  0.9009
   33CHL1   C22 3604   0.747   3.661   4.997  0.3610 -0.0085 -1.2436
   33CHL1  H22A 3605   0.824   3.724   5.045  0.7336 -1.3307 -0.0453
   33CHL1  H22B 3606   0.790   3.609   4.909 -2.3613 -1.5008 -1.8085
   33CHL1   C23 3607   0.634   3.757   4.947  0.2539  0.1016  0.3426
   33CHL1  H23A 3608   0.565   3.706   4.876  1.6239  0.2403 -1.1287
   33CHL1  H23B 3609   0.580   3.783   5.041 -0.1388  0.2473  0.0824
   33CHL1   C24 3610   0.684   3.884   4.882 -0.4578  0.1903  0.2790
   33CHL1  H24A 3611   0.770   3.927   4.938  1.2288 -0.7381 -1.4697
   33CHL1  H24B 3612   0.735   3.858   4.787  1.0492  0.5353  0.9703
   33CHL1   C25 3613   0.573   3.991   4.869  0.8119  0.0077  0.1407
   33CHL1   H25 3614   0.484   3.950   4.816  0.4348 -0.9978  1.5023
   33CHL1   C26 3615   0.528   4.049   5.001 -0.0093  0.0178 -0.2447
   33CHL1  H26A 3616   0.467   3.974   5.056 -1.8187  0.7789 -1.1256
   33CHL1  H26B 3617   0.606   4.093   5.067 -1.2960  0.9289  0.7295
   33CHL1  H26C 3618   0.453   4.129   4.986  2.2857  2.3062 -0.2683
   33CHL1   C27 3619   0.619   4.105   4.781  0.0741 -0.3262  0.5479
   33CHL1  H27A 3620   0.638   4.072   4.677  0.0710  1.1687  0.0540
   33CHL1  H27B 3621   0.540   4.183   4.782  0.9985  0.6665 -0.5710
   33CHL1  H27C 3622   0.721   4.135   4.815  0.6022  1.0995 -2.0635
   34CHL1    C3 3623   4.392   0.863   5.665  0.2131 -1.0573  0.2428
   34CHL1    H3 3624   4.414   0.754   5.657  1.4207 -0.8326  0.4517
   34CHL1    O3 3625   4.469   0.901   5.783  0.8959  0.4025  0.7516
   34CHL1   H3' 3626   4.405   0.886   5.853  1.3235 -0.1456  1.0336
   34CHL1    C4 3627   4.436   0.947   5.546 -0.2951  0.0801  0.0801
   34CHL1   H4A 3628   4.444   1.054   5.574 -1.7736 -0.4659  2.9310
   34CHL1   H4B 3629   4.544   0.921   5.540  0.0197  0.6783  2.4421
   34CHL1    C5 3630   4.357   0.923   5.421  0.4670 -0.2828  0.3303
   34CHL1    C6 3631   4.417   0.879   5.313 -1.3188 -0.1081 -0.4202
   34CHL1    H6 3632   4.524   0.854   5.316 -1.0798  0.9361  0.1117
   34CHL1    C7 3633   4.348   0.854   5.180  0.7573 -0.6375 -0.1661
   34CHL1   H7A 3634   4.397   0.914   5.101 -1.4822  0.8217 -0.5208
   34CHL1   H7B 3635   4.357   0.746   5.154  2.1011 -0.5581 -0.1122
   34CHL1    C8 3636   4.207   0.913   5.174  0.2427  0.5693  0.0918
   34CHL1    H8 3637   4.221   1.019   5.143  1.0517  0.4054 -0.1200
   34CHL1   C14 3638   4.135   0.839   5.071 -0.0231 -0.0097  0.0927
   34CHL1   H14 3639   4.124   0.735   5.109 -0.2779 -0.5496 -1.3731
   34CHL1   C15 3640   4.200   0.825   4.931 -0.1911 -0.1427 -0.8944
   34CHL1  H15A 3641   4.223   0.929   4.901 -2.2766  0.4100 -0.7014
   34CHL1  H15B 3642   4.297   0.771   4.928 -0.4866 -0.7907  0.5193
   34CHL1   C16 3643   4.088   0.761   4.854 -0.3224 -0.2137 -0.5569
   34CHL1  H16A 3644   4.077   0.819   4.760  0.7538  2.1156  0.6627
   34CHL1  H16B 3645   4.097   0.653   4.827 -1.5550 -0.2271 -0.9561
   34CHL1   C17 3646   3.953   0.768   4.941 -0.0360 -0.2436  0.1243
   34CHL1   H17 3647   3.936   0.676   5.001  2.3908 -0.7512  0.1065
   34CHL1   C13 3648   3.988   0.871   5.042 -0.0027 -0.4307 -0.6503
   34CHL1   C18 3649   3.982   1.015   4.986  0.2673 -0.7497 -0.6411
   34CHL1  H18A 3650   3.873   1.038   4.977  0.5851  0.3876 -2.0883
   34CHL1  H18B 3651   4.022   1.096   5.051 -3.1176  1.4195 -0.9856
   34CHL1  H18C 3652   4.027   1.032   4.886 -1.0586  1.4410 -0.9404
   34CHL1   C12 3653   3.913   0.876   5.177 -0.4279  0.3617  0.4115
   34CHL1  H12A 3654   3.812   0.919   5.164 -0.8721 -0.0220  2.3381
   34CHL1  H12B 3655   3.899   0.767   5.196 -0.5832  0.4493  0.7958
   34CHL1   C11 3656   3.984   0.944   5.293  0.2046 -0.3669 -0.8790
   34CHL1  H11A 3657   3.976   1.053   5.270  1.9234 -0.4645 -2.1121
   34CHL1  H11B 3658   3.918   0.920   5.379  1.1882 -1.7553 -0.4858
   34CHL1    C9 3659   4.126   0.899   5.305 -0.6346 -0.1351 -0.2752
   34CHL1    H9 3660   4.118   0.789   5.312 -0.9833 -0.1511 -0.8366
   34CHL1   C10 3661   4.208   0.953   5.429  0.0083  0.3437  0.9144
   34CHL1   C19 3662   4.200   1.113   5.445 -0.5954  0.0465 -0.3172
   34CHL1  H19A 3663   4.102   1.164   5.438 -0.0737  1.0515 -0.5559
   34CHL1  H19B 3664   4.250   1.147   5.538 -2.7259  3.4221 -0.2481
   34CHL1  H19C 3665   4.260   1.148   5.358  0.0412 -0.1057  0.0563
   34CHL1    C1 3666   4.158   0.879   5.557 -0.6688 -0.4347  0.3032
   34CHL1   H1A 3667   4.059   0.924   5.579 -0.2806  0.4987  0.1840
   34CHL1   H1B 3668   4.149   0.769   5.543  0.1305 -0.4568 -0.1601
   34CHL1    C2 3669   4.243   0.895   5.678 -0.3596  0.9814  0.1169
   34CHL1   H2A 3670   4.208   0.826   5.757  1.6816  0.8423  0.9530
   34CHL1   H2B 3671   4.216   0.991   5.727 -1.8075  0.0528  1.2336
   34CHL1   C20 3672   3.834   0.792   4.856  0.2314 -0.2054  0.2537
   34CHL1   H20 3673   3.844   0.890   4.804 -0.6687  0.2139  0.8659
   34CHL1   C21 3674   3.711   0.805   4.932  0.2042  0.0367  0.2419
   34CHL1  H21A 3675   3.701   0.895   4.997 -0.0193 -0.1404  0.4523
   34CHL1  H21B 3676   3.704   0.721   5.004  2.3514 -0.7030 -0.3533
   34CHL1  H21C 3677   3.620   0.810   4.869 -0.7005  1.0572  1.5610
   34CHL1   C22 3678   3.817   0.674   4.755  0.3598 -0.2438 -0.2435
   34CHL1  H22A 3679   3.918   0.651   4.715  1.5141  0.3698  2.0942
   34CHL1  H22B 3680   3.775   0.582   4.800 -3.1539  0.8940 -0.8920
   34CHL1   C23 3681   3.729   0.716   4.636  0.1368  0.1127 -0.6483
   34CHL1  H23A 3682   3.627   0.735   4.675  0.2753 -0.7732  0.1667
   34CHL1  H23B 3683   3.770   0.809   4.591  0.0483  0.1138 -0.7271
   34CHL1   C24 3684   3.717   0.609   4.530 -0.4093 -0.3500  1.4740
   34CHL1  H24A 3685   3.816   0.597   4.481  0.0420  1.0431  1.9946
   34CHL1  H24B 3686   3.683   0.516   4.581  0.1044 -1.0632  0.5523
   34CHL1   C25 3687   3.615   0.645   4.423  0.4010 -0.0841  1.2298
   34CHL1   H25 3688   3.549   0.721   4.470  0.1175  0.7637 -0.4944
   34CHL1   C26 3689   3.687   0.717   4.305  0.7858 -0.6363 -0.0358
   34CHL1  H26A 3690   3.752   0.653   4.242  1.0770  1.0204 -1.5202
   34CHL1  H26B 3691   3.605   0.755   4.240  0.5393 -1.1107 -0.0062
   34CHL1  H26C 3692   3.735   0.810   4.342 -0.7533  0.4682 -0.6789
   34CHL1   C27 3693   3.528   0.531   4.374 -0.1022  0.6574 -0.6665
   34CHL1  H27A 3694   3.464   0.571   4.293  0.6173  4.7411  0.5497
   34CHL1  H27B 3695   3.597   0.449   4.348 -0.1715 -0.2189  1.6482
   34CHL1  H27C 3696   3.459   0.496   4.454 -0.5104 -2.3436 -2.1979
   35CHL1    C3 3697   5.068   5.272   6.010  0.9460 -0.6595 -0.0071
   35CHL1    H3 3698   5.120   5.178   6.036  2.2969 -0.2232 -1.0221
   35CHL1    O3 3699   4.992   5.323   6.115 -0.6382  0.1729  0.2658
   35CHL1   H3' 3700   5.031   5.409   6.132 -1.5124  0.6670 -0.1524
   35CHL1    C4 3701   5.173   5.379   5.971  0.0913 -0.5920 -0.2157
   35CHL1   H4A 3702   5.127   5.480   5.966  0.9980 -0.1704 -0.3072
   35CHL1   H4B 3703   5.256   5.384   6.044 -0.0722  1.0620 -0.0981
   35CHL1    C5 3704   5.237   5.350   5.838  0.5820  0.5182  1.1799
   35CHL1    C6 3705   5.369   5.339   5.824 -0.5517 -0.1751 -0.5079
   35CHL1    H6 3706   5.427   5.361   5.915 -1.8215  1.1698  0.0175
   35CHL1    C7 3707   5.452   5.315   5.702  0.5663 -0.9596 -0.2228
   35CHL1   H7A 3708   5.529   5.395   5.697 -0.6014  0.5522  3.0105
   35CHL1   H7B 3709   5.496   5.213   5.714 -0.5639 -1.3168  1.1793
   35CHL1    C8 3710   5.362   5.320   5.575 -0.0701  0.2384 -0.5221
   35CHL1    H8 3711   5.341   5.424   5.543 -0.3513  0.0602 -0.9259
   35CHL1   C14 3712   5.433   5.259   5.458 -0.0364 -0.1251  0.0217
   35CHL1   H14 3713   5.463   5.157   5.490  0.6394  0.4800  1.4093
   35CHL1   C15 3714   5.569   5.326   5.413  0.5213 -0.4494 -0.2859
   35CHL1  H15A 3715   5.558   5.435   5.401 -0.8381 -0.3676  1.3515
   35CHL1  H15B 3716   5.657   5.309   5.478  1.0895  0.1226 -0.9067
   35CHL1   C16 3717   5.597   5.267   5.277 -0.0360  0.5728 -0.6339
   35CHL1  H16A 3718   5.632   5.346   5.207 -1.3018  1.1588 -0.6359
   35CHL1  H16B 3719   5.669   5.184   5.289  1.2117  1.6742 -0.2720
   35CHL1   C17 3720   5.462   5.211   5.231  0.2401 -0.1328  0.2557
   35CHL1   H17 3721   5.473   5.104   5.259  0.5757 -0.0275  0.5398
   35CHL1   C13 3722   5.354   5.264   5.325 -0.9047 -0.2210 -0.6850
   35CHL1   C18 3723   5.319   5.407   5.284 -0.2096  0.4322 -0.1060
   35CHL1  H18A 3724   5.407   5.472   5.265  3.0227 -3.2415  1.0811
   35CHL1  H18B 3725   5.250   5.400   5.197  0.4414  0.3978 -0.6322
   35CHL1  H18C 3726   5.257   5.454   5.363  2.6317  1.7909  1.4712
   35CHL1   C12 3727   5.227   5.179   5.347 -0.3523  0.3555 -0.3922
   35CHL1  H12A 3728   5.155   5.186   5.263 -0.6770 -1.9595 -0.3686
   35CHL1  H12B 3729   5.247   5.070   5.347 -0.5521  0.3158 -0.7765
   35CHL1   C11 3730   5.141   5.227   5.472  0.1070  1.0993 -0.1172
   35CHL1  H11A 3731   5.084   5.317   5.440 -0.8740 -0.0914 -1.8674
   35CHL1  H11B 3732   5.067   5.145   5.482  0.4190  0.7883 -0.3623
   35CHL1    C9 3733   5.226   5.246   5.602  0.2875  0.1938 -0.6434
   35CHL1    H9 3734   5.252   5.144   5.637  0.4484  0.9667  1.6558
   35CHL1   C10 3735   5.141   5.319   5.715  0.4906 -0.1757 -0.1012
   35CHL1   C19 3736   5.093   5.456   5.672  0.3313  0.0515 -0.3914
   35CHL1  H19A 3737   5.026   5.494   5.752  0.4690 -0.3674 -0.0716
   35CHL1  H19B 3738   5.170   5.535   5.663 -0.5596  1.0524  0.5716
   35CHL1  H19C 3739   5.037   5.461   5.575  1.0144  0.6465 -0.7584
   35CHL1    C1 3740   5.022   5.228   5.757 -0.3277  0.6264  0.5488
   35CHL1   H1A 3741   4.943   5.223   5.679 -0.2154  0.1713  0.4594
   35CHL1   H1B 3742   5.070   5.129   5.774 -2.3978 -0.5465 -0.0714
   35CHL1    C2 3743   4.965   5.261   5.897 -1.0463  0.7173 -0.0493
   35CHL1   H2A 3744   4.895   5.177   5.917  0.9971 -1.2522 -0.8032
   35CHL1   H2B 3745   4.906   5.355   5.887  1.5211  2.2320 -2.1849
   35CHL1   C20 3746   5.435   5.222   5.076  0.4940  0.5867  0.0894
   35CHL1   H20 3747   5.411   5.326   5.046 -1.0117 -0.2677 -1.9166
   35CHL1   C21 3748   5.307   5.139   5.031  0.1732 -0.0255 -0.9700
   35CHL1  H21A 3749   5.277   5.067   5.110 -2.5375  0.5572 -1.3786
   35CHL1  H21B 3750   5.319   5.086   4.934  0.1779  1.1867 -1.6436
   35CHL1  H21C 3751   5.223   5.210   5.015 -2.4089 -2.3688  1.1672
   35CHL1   C22 3752   5.559   5.189   4.985 -0.4281 -0.1309  0.1772
   35CHL1  H22A 3753   5.643   5.251   5.022  0.8341  0.8020 -3.7520
   35CHL1  H22B 3754   5.579   5.083   5.008  0.2737 -0.1971 -0.6712
   35CHL1   C23 3755   5.539   5.214   4.840 -0.1160 -0.8277  0.0257
   35CHL1  H23A 3756   5.461   5.148   4.796 -1.2540  1.3727 -1.4877
   35CHL1  H23B 3757   5.511   5.321   4.829  1.9224 -0.3050 -0.4265
   35CHL1   C24 3758   5.667   5.185   4.761  0.3830  0.2505 -0.0824
   35CHL1  H24A 3759   5.741   5.266   4.775 -0.1378  0.7616 -0.2172
   35CHL1  H24B 3760   5.712   5.085   4.779 -2.6806 -0.8906  2.1188
   35CHL1   C25 3761   5.631   5.187   4.616 -0.2313  0.3139 -0.2797
   35CHL1   H25 3762   5.539   5.128   4.598  1.3815 -1.9417 -1.6556
   35CHL1   C26 3763   5.607   5.326   4.558  0.7695 -0.3991 -0.1049
   35CHL1  H26A 3764   5.520   5.383   4.596 -0.3815 -2.9272  1.3481
   35CHL1  H26B 3765   5.698   5.388   4.576 -0.3825  1.2166  0.3504
   35CHL1  H26C 3766   5.599   5.304   4.450 -0.9390 -1.1294  0.1412
   35CHL1   C27 3767   5.726   5.102   4.527 -0.1942 -0.5322 -0.2351
   35CHL1  H27A 3768   5.820   5.160   4.516  0.1198 -1.0442 -0.3029
   35CHL1  H27B 3769   5.740   5.001   4.571 -1.1573  0.8158  3.5807
   35CHL1  H27C 3770   5.671   5.088   4.432 -0.7203 -2.2922  0.2988
   36CHL1    C3 3771   2.448   6.564   6.274  0.3223 -0.3395 -0.6322
   36CHL1    H3 3772   2.493   6.665   6.282  0.3083 -0.5007  3.3600
   36CHL1    O3 3773   2.432   6.526   6.412  0.2591  0.3967 -0.1735
   36CHL1   H3' 3774   2.379   6.446   6.408 -2.2370  1.9391 -0.1429
   36CHL1    C4 3775   2.318   6.583   6.203  0.1065  0.2586 -0.3253
   36CHL1   H4A 3776   2.247   6.504   6.234 -0.8677 -0.0279 -3.0439
   36CHL1   H4B 3777   2.271   6.673   6.248  0.6894  1.2702 -1.6743
   36CHL1    C5 3778   2.325   6.602   6.054 -0.4624 -0.1507  0.3970
   36CHL1    C6 3779   2.261   6.701   5.994 -0.2326  0.0917  0.6540
   36CHL1    H6 3780   2.200   6.771   6.053  0.2649  0.2909  0.9415
   36CHL1    C7 3781   2.261   6.726   5.849  0.3037 -0.2810  0.0362
   36CHL1   H7A 3782   2.155   6.731   5.818  0.5191 -0.1023 -0.7075
   36CHL1   H7B 3783   2.302   6.828   5.827  0.6415 -0.2212  0.8966
   36CHL1    C8 3784   2.324   6.605   5.771  0.3764  0.6438 -0.0741
   36CHL1    H8 3785   2.242   6.530   5.768  0.1218  0.8313  1.3280
   36CHL1   C14 3786   2.364   6.632   5.629 -0.0761  0.4997  0.0243
   36CHL1   H14 3787   2.446   6.707   5.626 -1.5242  2.1483 -2.1398
   36CHL1   C15 3788   2.260   6.710   5.535  0.1674  0.4849  0.1111
   36CHL1  H15A 3789   2.156   6.677   5.556 -0.2646  1.1935 -0.8118
   36CHL1  H15B 3790   2.275   6.819   5.552 -0.7249  1.1654 -2.8217
   36CHL1   C16 3791   2.299   6.677   5.387  0.2305  0.1448 -0.1789
   36CHL1  H16A 3792   2.211   6.625   5.342 -0.0459  1.5784 -1.3663
   36CHL1  H16B 3793   2.325   6.771   5.334  0.9449  0.3158  0.4511
   36CHL1   C17 3794   2.422   6.587   5.404 -0.3119  0.6888  0.6970
   36CHL1   H17 3795   2.518   6.643   5.411  0.3494 -0.2601 -0.4286
   36CHL1   C13 3796   2.418   6.516   5.541 -0.6811  0.2517 -0.2353
   36CHL1   C18 3797   2.311   6.404   5.525  1.2914  0.0841 -0.1087
   36CHL1  H18A 3798   2.357   6.318   5.473 -1.5993 -0.5878 -1.7622
   36CHL1  H18B 3799   2.281   6.365   5.625 -0.4848  0.4801 -0.4542
   36CHL1  H18C 3800   2.218   6.422   5.466  0.6572  1.0822  1.1357
   36CHL1   C12 3801   2.550   6.470   5.606  0.1722  0.0432 -0.8423
   36CHL1  H12A 3802   2.587   6.374   5.564 -3.9339 -2.6770  1.1440
   36CHL1  H12B 3803   2.631   6.544   5.585  2.0588 -2.2857 -2.3976
   36CHL1   C11 3804   2.526   6.439   5.754  0.1416 -0.1870 -0.0906
   36CHL1  H11A 3805   2.466   6.346   5.755 -0.2515  0.0636 -0.1701
   36CHL1  H11B 3806   2.627   6.423   5.797 -0.5302 -0.6561  1.3850
   36CHL1    C9 3807   2.449   6.545   5.838 -0.1400 -0.6854  0.3013
   36CHL1    H9 3808   2.514   6.635   5.846  1.5460 -1.8272 -0.0645
   36CHL1   C10 3809   2.419   6.503   5.982 -0.0107  0.8608 -1.0717
   36CHL1   C19 3810   2.348   6.362   5.979  0.0388 -0.4018  0.3520
   36CHL1  H19A 3811   2.265   6.350   6.051  0.8173 -0.8548  1.1992
   36CHL1  H19B 3812   2.305   6.348   5.877  2.5179  1.0687 -0.9990
   36CHL1  H19C 3813   2.421   6.282   6.006 -0.3885 -0.5268  1.1485
   36CHL1    C1 3814   2.551   6.487   6.062  0.1218  0.1462 -0.1399
   36CHL1   H1A 3815   2.605   6.402   6.015  1.1595  1.0201 -0.5906
   36CHL1   H1B 3816   2.597   6.588   6.047 -3.0267  2.2399  2.7231
   36CHL1    C2 3817   2.542   6.468   6.215  0.2625  0.6186  1.1475
   36CHL1   H2A 3818   2.640   6.478   6.267  0.1220  1.6275  1.2296
   36CHL1   H2B 3819   2.499   6.366   6.227 -2.6860  1.6035 -0.1680
   36CHL1   C20 3820   2.429   6.503   5.270  0.5076 -0.4141  0.4936
   36CHL1   H20 3821   2.353   6.422   5.272 -0.2637  0.2698 -0.3733
   36CHL1   C21 3822   2.566   6.452   5.254 -0.9679  0.4927 -0.1233
   36CHL1  H21A 3823   2.651   6.523   5.265  1.4423 -1.9923 -1.4845
   36CHL1  H21B 3824   2.582   6.402   5.156  1.9562  0.2647  0.3951
   36CHL1  H21C 3825   2.581   6.375   5.333 -4.1512 -1.0335 -0.8124
   36CHL1   C22 3826   2.387   6.577   5.137 -0.4481  0.2459 -0.4034
   36CHL1  H22A 3827   2.282   6.611   5.145 -0.4458  0.0538  0.4934
   36CHL1  H22B 3828   2.463   6.657   5.122 -0.5227 -0.1989 -3.9945
   36CHL1   C23 3829   2.395   6.493   5.005 -0.1262 -0.1862  0.1428
   36CHL1  H23A 3830   2.495   6.456   4.975  0.2428  0.7222  0.2227
   36CHL1  H23B 3831   2.327   6.406   5.021 -0.2022 -0.0775  0.4334
   36CHL1   C24 3832   2.341   6.570   4.878 -0.2954  0.1120 -1.1338
   36CHL1  H24A 3833   2.270   6.652   4.902 -2.5040 -1.4631 -1.8609
   36CHL1  H24B 3834   2.438   6.605   4.839 -0.3783  0.6204 -0.8913
   36CHL1   C25 3835   2.264   6.485   4.777  0.8012  0.7820 -0.2060
   36CHL1   H25 3836   2.173   6.444   4.826 -1.2926  0.9492 -3.6357
   36CHL1   C26 3837   2.211   6.574   4.666 -0.5818 -0.3412  0.2518
   36CHL1  H26A 3838   2.157   6.519   4.586 -1.5531  0.2314  0.4851
   36CHL1  H26B 3839   2.138   6.651   4.702  0.4800 -0.2072  2.2776
   36CHL1  H26C 3840   2.288   6.632   4.610 -1.0813 -0.7697 -0.8987
   36CHL1   C27 3841   2.346   6.365   4.742  0.3399  0.4684 -0.1465
   36CHL1  H27A 3842   2.277   6.307   4.676 -2.1965  0.6456  2.1383
   36CHL1  H27B 3843   2.435   6.403   4.690  1.8513 -0.2972  1.7454
   36CHL1  H27C 3844   2.370   6.296   4.826  0.8798 -0.2280 -0.8544
   37CHL1    C3 3845   0.935   2.335   5.976  0.7476  0.5548  0.0840
   37CHL1    H3 3846   1.036   2.380   5.976  0.0937  2.2110  1.9868
   37CHL1    O3 3847   0.902   2.327   6.112 -0.3336 -0.5987  0.1143
   37CHL1   H3' 3848   0.965   2.259   6.140 -1.2847 -2.0436 -1.0982
   37CHL1    C4 3849   0.839   2.437   5.909  0.5316  0.5497 -0.9318
   37CHL1   H4A 3850   0.741   2.415   5.957  1.5196 -1.5020  0.2978
   37CHL1   H4B 3851   0.880   2.533   5.947 -0.9450  0.1118  2.0681
   37CHL1    C5 3852   0.839   2.438   5.755  0.3027  0.0892  0.3563
   37CHL1    C6 3853   0.859   2.551   5.691 -0.2611  0.7124 -0.3577
   37CHL1    H6 3854   0.867   2.646   5.745 -1.2963  0.2638  0.6347
   37CHL1    C7 3855   0.865   2.556   5.543  0.2069 -0.5977 -0.0840
   37CHL1   H7A 3856   0.821   2.644   5.491 -0.2068  0.6597  2.2916
   37CHL1   H7B 3857   0.969   2.541   5.507 -0.3742 -1.2781 -1.5672
   37CHL1    C8 3858   0.792   2.429   5.474  0.3848  0.7022  0.2868
   37CHL1    H8 3859   0.683   2.426   5.494  0.3115 -1.5776 -0.2307
   37CHL1   C14 3860   0.802   2.434   5.325  0.1685  0.5135  0.1557
   37CHL1   H14 3861   0.912   2.428   5.316  0.1241 -1.6546  0.5158
   37CHL1   C15 3862   0.742   2.551   5.246 -0.0760  0.1282  0.1574
   37CHL1  H15A 3863   0.644   2.580   5.290 -0.4296  1.5153 -1.4231
   37CHL1  H15B 3864   0.811   2.638   5.257 -2.6887  2.0924  2.2357
   37CHL1   C16 3865   0.739   2.504   5.099  0.1770  0.5175 -0.3245
   37CHL1  H16A 3866   0.640   2.536   5.061 -0.4301 -0.0307  0.7531
   37CHL1  H16B 3867   0.815   2.546   5.030  0.6595 -0.5430 -0.4622
   37CHL1   C17 3868   0.773   2.351   5.110  0.7005  0.2566 -0.1502
   37CHL1   H17 3869   0.883   2.343   5.098  0.8193  1.4761  0.0290
   37CHL1   C13 3870   0.748   2.307   5.254  0.1405 -0.0392  0.1610
   37CHL1   C18 3871   0.595   2.298   5.280  0.3172 -0.3770  0.2742
   37CHL1  H18A 3872   0.543   2.382   5.230 -1.6378 -0.4159  2.1079
   37CHL1  H18B 3873   0.573   2.198   5.239  2.0792 -0.9047  0.5163
   37CHL1  H18C 3874   0.560   2.298   5.385  2.7486  0.2761  1.1670
   37CHL1   C12 3875   0.822   2.189   5.305  0.3168  0.2305 -1.4770
   37CHL1  H12A 3876   0.784   2.098   5.253 -1.8777  1.6841 -2.5526
   37CHL1  H12B 3877   0.931   2.190   5.287  0.5307 -2.9954 -0.9748
   37CHL1   C11 3878   0.799   2.176   5.460  0.5094  0.5603 -0.3188
   37CHL1  H11A 3879   0.694   2.144   5.476  0.4319  1.3611  0.8915
   37CHL1  H11B 3880   0.852   2.085   5.495  0.3653  0.8773  0.7681
   37CHL1    C9 3881   0.850   2.295   5.532  0.6248  0.4199 -0.1515
   37CHL1    H9 3882   0.960   2.296   5.513  0.3238  1.5771 -2.1054
   37CHL1   C10 3883   0.829   2.295   5.692 -0.7307  0.1557  0.2732
   37CHL1   C19 3884   0.692   2.240   5.714 -0.0783 -0.4128 -0.4397
   37CHL1  H19A 3885   0.604   2.294   5.674 -0.3413 -0.6117 -0.1417
   37CHL1  H19B 3886   0.688   2.137   5.674  0.2876 -0.2560 -0.8911
   37CHL1  H19C 3887   0.659   2.232   5.820 -1.1267  1.4955 -0.5615
   37CHL1    C1 3888   0.943   2.208   5.756  0.3960 -0.7169 -0.0566
   37CHL1   H1A 3889   0.943   2.106   5.713 -1.7871 -0.3108 -1.1833
   37CHL1   H1B 3890   1.042   2.251   5.732  0.8118  1.2959  4.2640
   37CHL1    C2 3891   0.938   2.196   5.911  0.1146 -0.2891 -1.5344
   37CHL1   H2A 3892   1.027   2.143   5.952 -0.4451 -0.2935 -0.2669
   37CHL1   H2B 3893   0.840   2.149   5.936 -0.3550  0.3927 -2.0671
   37CHL1   C20 3894   0.717   2.269   4.991  0.2967 -0.6511 -0.2062
   37CHL1   H20 3895   0.606   2.271   5.001 -0.0854 -3.8009 -2.2081
   37CHL1   C21 3896   0.763   2.124   4.999 -0.1132  0.2089  0.5834
   37CHL1  H21A 3897   0.695   2.069   5.066  0.9589 -2.4812 -0.4125
   37CHL1  H21B 3898   0.872   2.117   5.022  0.6010  0.4570 -2.2634
   37CHL1  H21C 3899   0.741   2.080   4.900 -1.6364  2.8715 -0.3736
   37CHL1   C22 3900   0.764   2.342   4.855 -0.2034  0.3642  0.2824
   37CHL1  H22A 3901   0.716   2.442   4.857 -0.4029  0.2636  0.4753
   37CHL1  H22B 3902   0.875   2.353   4.851  0.0120 -1.7085 -0.6616
   37CHL1   C23 3903   0.708   2.277   4.724 -0.2790  0.6435  0.0231
   37CHL1  H23A 3904   0.771   2.193   4.688  1.4582  0.5515  3.0007
   37CHL1  H23B 3905   0.602   2.254   4.747 -0.9020  3.7818  0.7597
   37CHL1   C24 3906   0.709   2.383   4.610  0.0826  0.5092 -0.2279
   37CHL1  H24A 3907   0.703   2.487   4.649  1.3213 -0.1903  2.0226
   37CHL1  H24B 3908   0.809   2.391   4.561 -0.2992 -0.3284 -1.1797
   37CHL1   C25 3909   0.609   2.369   4.496  0.4739 -0.3846  0.6502
   37CHL1   H25 3910   0.591   2.474   4.464  0.9411 -0.0994  1.2920
   37CHL1   C26 3911   0.673   2.288   4.373  0.2329  0.0663  0.1185
   37CHL1  H26A 3912   0.752   2.341   4.317  0.0087 -0.1295 -0.3868
   37CHL1  H26B 3913   0.703   2.186   4.404 -1.2493 -0.5743 -0.4345
   37CHL1  H26C 3914   0.588   2.264   4.305 -1.3662 -0.5295  2.1865
   37CHL1   C27 3915   0.470   2.314   4.531 -0.2669 -0.4148 -0.0314
   37CHL1  H27A 3916   0.412   2.394   4.584  2.1298 -0.0265  2.2067
   37CHL1  H27B 3917   0.426   2.295   4.431 -1.3138  1.5548 -0.0119
   37CHL1  H27C 3918   0.472   2.223   4.595  4.4460 -0.3673  0.2332
   38CHL1    C3 3919   2.780   4.433   6.057 -0.1425  0.2400 -0.4068
   38CHL1    H3 3920   2.847   4.522   6.057  1.7586 -1.1166  0.0277
   38CHL1    O3 3921   2.782   4.376   6.187  0.1553 -0.0189 -0.3961
   38CHL1   H3' 3922   2.863   4.395   6.234 -0.0883 -0.2321  0.1183
   38CHL1    C4 3923   2.639   4.474   6.021  0.2843 -0.2054  0.8203
   38CHL1   H4A 3924   2.572   4.387   6.035  0.4385 -0.9973 -2.5777
   38CHL1   H4B 3925   2.612   4.550   6.098  0.6853  1.1097 -0.2957
   38CHL1    C5 3926   2.622   4.520   5.875  0.2425 -0.0980 -0.6369
   38CHL1    C6 3927   2.571   4.641   5.842  0.0895 -0.1232 -0.5352
   38CHL1    H6 3928   2.523   4.704   5.918 -2.7674 -4.1004  1.3363
   38CHL1    C7 3929   2.537   4.675   5.699  0.0671  0.4172  0.1137
   38CHL1   H7A 3930   2.445   4.735   5.688 -1.5029 -1.8471  0.1214
   38CHL1   H7B 3931   2.612   4.750   5.665  0.2389  0.0778 -0.2648
   38CHL1    C8 3932   2.545   4.550   5.602  0.0814 -0.0436 -0.2012
   38CHL1    H8 3933   2.449   4.497   5.621  0.0428  0.3011  0.6369
   38CHL1   C14 3934   2.544   4.597   5.456  0.3094 -0.1125  0.3736
   38CHL1   H14 3935   2.633   4.662   5.438 -0.5368  0.8497 -0.4287
   38CHL1   C15 3936   2.430   4.698   5.423 -0.7082 -0.6521 -0.0660
   38CHL1  H15A 3937   2.336   4.658   5.467 -0.8189 -0.8740 -0.5023
   38CHL1  H15B 3938   2.451   4.799   5.465  0.1002 -1.3823  1.3661
   38CHL1   C16 3939   2.430   4.681   5.276 -0.3866  0.7843  0.6563
   38CHL1  H16A 3940   2.331   4.673   5.227  1.4265 -2.5189 -3.0472
   38CHL1  H16B 3941   2.483   4.766   5.228 -0.8597  0.4999 -0.4015
   38CHL1   C17 3942   2.512   4.556   5.228 -0.8525  0.2343  0.1464
   38CHL1   H17 3943   2.608   4.601   5.193 -0.5430 -1.2613 -1.0192
   38CHL1   C13 3944   2.540   4.478   5.361 -0.3709  0.0059  0.0801
   38CHL1   C18 3945   2.420   4.394   5.385 -1.1552  0.0848 -0.2017
   38CHL1  H18A 3946   2.422   4.346   5.485  1.0901  0.2914 -0.1041
   38CHL1  H18B 3947   2.326   4.455   5.388 -0.9801  0.7430 -3.8445
   38CHL1  H18C 3948   2.412   4.319   5.304 -0.4477  1.0516 -1.1970
   38CHL1   C12 3949   2.666   4.395   5.373  0.3548 -0.2532  0.1151
   38CHL1  H12A 3950   2.676   4.302   5.314  0.7953 -0.2588  0.1917
   38CHL1  H12B 3951   2.751   4.457   5.336  1.1195  1.1265  3.7230
   38CHL1   C11 3952   2.688   4.352   5.517 -0.5182 -0.2219 -0.1395
   38CHL1  H11A 3953   2.609   4.275   5.529 -0.7090  0.2582  2.2765
   38CHL1  H11B 3954   2.782   4.294   5.528  0.2342  0.9927  0.0510
   38CHL1    C9 3955   2.673   4.473   5.616  0.2489 -0.2662 -0.1343
   38CHL1    H9 3956   2.764   4.536   5.600 -0.2338  0.1451 -1.3453
   38CHL1   C10 3957   2.680   4.426   5.772  0.8381  0.2545  0.9459
   38CHL1   C19 3958   2.597   4.299   5.787 -0.5655 -0.3816  0.1213
   38CHL1  H19A 3959   2.585   4.267   5.892  1.2977 -1.9193 -0.0968
   38CHL1  H19B 3960   2.493   4.322   5.753 -0.7488  1.2719  1.6233
   38CHL1  H19C 3961   2.646   4.218   5.729  0.0736 -0.9665  1.4608
   38CHL1    C1 3962   2.829   4.393   5.811  0.3371 -0.2370 -0.1045
   38CHL1   H1A 3963   2.862   4.314   5.740  1.5710  0.7417 -0.6570
   38CHL1   H1B 3964   2.886   4.488   5.814  0.7149 -0.4571 -0.3037
   38CHL1    C2 3965   2.846   4.331   5.952  0.6172  0.2964  0.2621
   38CHL1   H2A 3966   2.954   4.310   5.964  1.1677  0.4795 -3.2027
   38CHL1   H2B 3967   2.795   4.232   5.964 -1.2840  1.1099 -0.5710
   38CHL1   C20 3968   2.464   4.487   5.096  0.0097  0.8126 -1.0757
   38CHL1   H20 3969   2.358   4.459   5.116 -0.0716  1.9613  0.2816
   38CHL1   C21 3970   2.557   4.369   5.069 -0.5712  0.6068  0.9411
   38CHL1  H21A 3971   2.662   4.400   5.088 -0.2004 -0.6723  1.1120
   38CHL1  H21B 3972   2.536   4.328   4.967  1.9991 -0.1006  0.6204
   38CHL1  H21C 3973   2.544   4.276   5.128 -0.9687 -1.6794 -2.4353
   38CHL1   C22 3974   2.463   4.578   4.968  0.5857  0.0139  0.6607
   38CHL1  H22A 3975   2.426   4.677   5.003 -0.9612 -0.7526  1.3114
   38CHL1  H22B 3976   2.560   4.586   4.915 -0.6034 -0.6502 -1.7920
   38CHL1   C23 3977   2.369   4.521   4.866 -0.2842  0.9805 -1.0823
   38CHL1  H23A 3978   2.396   4.418   4.834  0.8409  0.8837  0.1159
   38CHL1  H23B 3979   2.275   4.508   4.923  0.4609  0.2358  0.0310
   38CHL1   C24 3980   2.365   4.617   4.755 -0.1928 -0.7107  0.4703
   38CHL1  H24A 3981   2.344   4.722   4.786 -0.8604 -0.5210 -0.5785
   38CHL1  H24B 3982   2.465   4.626   4.708 -0.9241  0.4938 -0.9543
   38CHL1   C25 3983   2.261   4.592   4.645  0.0280 -0.4027  0.5026
   38CHL1   H25 3984   2.262   4.488   4.606  1.1503  0.0009 -0.6175
   38CHL1   C26 3985   2.113   4.609   4.678 -0.3099 -0.1955 -0.1785
   38CHL1  H26A 3986   2.057   4.637   4.585  1.1275  1.6388 -0.5487
   38CHL1  H26B 3987   2.068   4.514   4.713  1.2998 -1.5091 -1.4842
   38CHL1  H26C 3988   2.101   4.685   4.758 -2.1774  0.2363 -0.7978
   38CHL1   C27 3989   2.289   4.664   4.510 -0.5304 -0.0331 -0.3375
   38CHL1  H27A 3990   2.378   4.607   4.476 -0.7244 -1.0728  0.8220
   38CHL1  H27B 3991   2.212   4.653   4.430  0.1229 -0.7180 -0.8937
   38CHL1  H27C 3992   2.315   4.772   4.512  1.3694 -0.4545 -0.2276
   39CHL1    C3 3993   4.924   4.731   5.956 -0.5632 -0.7215  0.9061
   39CHL1    H3 3994   4.847   4.806   5.930  1.7392  1.8654  1.1070
   39CHL1    O3 3995   4.920   4.717   6.097 -0.3767 -0.7673 -0.4590
   39CHL1   H3' 3996   4.978   4.645   6.124  0.2419 -0.1440 -0.0802
   39CHL1    C4 3997   4.909   4.591   5.897 -0.2921  0.1562 -0.3193
   39CHL1   H4A 3998   4.981   4.515   5.933 -1.1013 -0.6134 -0.3059
   39CHL1   H4B 3999   4.814   4.546   5.934  1.0343 -1.7685  0.8899
   39CHL1    C5 4000   4.905   4.593   5.745 -0.1228  0.3877  0.3533
   39CHL1    C6 4001   4.802   4.543   5.675 -0.6136  0.4952  0.1235
   39CHL1    H6 4002   4.722   4.497   5.735 -2.0609  1.6296 -0.8684
   39CHL1    C7 4003   4.790   4.541   5.525  0.3327 -0.2649  0.2187
   39CHL1   H7A 4004   4.744   4.449   5.482 -1.7132  0.7650  0.0899
   39CHL1   H7B 4005   4.718   4.626   5.518  0.7058  0.1854  1.5349
   39CHL1    C8 4006   4.924   4.577   5.457 -0.1528 -0.3661 -0.1628
   39CHL1    H8 4007   4.985   4.484   5.462 -0.8493 -0.7653  1.6270
   39CHL1   C14 4008   4.897   4.612   5.318 -0.3655  0.0425  1.4223
   39CHL1   H14 4009   4.847   4.711   5.311  1.3550  0.8938  0.2534
   39CHL1   C15 4010   4.819   4.508   5.232  0.1665  0.4531 -0.0238
   39CHL1  H15A 4011   4.855   4.406   5.258  2.1006  1.6310  2.2968
   39CHL1  H15B 4012   4.708   4.508   5.243 -0.0456  1.8780 -1.6761
   39CHL1   C16 4013   4.847   4.548   5.089  0.1832  0.7336 -0.6157
   39CHL1  H16A 4014   4.892   4.458   5.042 -1.0821  0.3925 -1.2128
   39CHL1  H16B 4015   4.759   4.579   5.030  0.8603  1.0892 -1.4589
   39CHL1   C17 4016   4.953   4.656   5.094  0.3411 -0.3454  0.3716
   39CHL1   H17 4017   4.894   4.749   5.103  0.0521 -0.5274  0.3728
   39CHL1   C13 4018   5.025   4.642   5.234  0.3197 -0.0708 -0.6992
   39CHL1   C18 4019   5.118   4.521   5.231  0.4058  0.4787  0.4695
   39CHL1  H18A 4020   5.063   4.426   5.210  1.4528  0.1285 -0.8546
   39CHL1  H18B 4021   5.201   4.520   5.157  1.0343  0.7000  1.1588
   39CHL1  H18C 4022   5.173   4.505   5.326  0.7510 -2.0000 -0.0776
   39CHL1   C12 4023   5.093   4.768   5.306 -0.1662  0.2428  0.8556
   39CHL1  H12A 4024   5.182   4.799   5.247  1.6863 -1.4290  2.6258
   39CHL1  H12B 4025   5.010   4.842   5.306 -2.7635 -2.3686 -2.4314
   39CHL1   C11 4026   5.119   4.737   5.457 -0.7679 -0.3149  0.1417
   39CHL1  H11A 4027   5.209   4.674   5.469 -1.0476 -0.6534  0.4785
   39CHL1  H11B 4028   5.158   4.827   5.510 -1.0947  0.1725 -0.4274
   39CHL1    C9 4029   4.998   4.685   5.532  0.5729  0.6752 -0.6585
   39CHL1    H9 4030   4.923   4.767   5.535 -0.5382 -0.3481  1.6494
   39CHL1   C10 4031   5.025   4.655   5.687 -0.4345  0.5451  0.2615
   39CHL1   C19 4032   5.155   4.567   5.710 -0.4277 -0.2414  0.3500
   39CHL1  H19A 4033   5.142   4.480   5.642  2.1228  0.1734 -0.7831
   39CHL1  H19B 4034   5.252   4.611   5.679 -2.1993  4.5752  0.7809
   39CHL1  H19C 4035   5.164   4.533   5.815  0.6167 -0.5345  0.1797
   39CHL1    C1 4036   5.055   4.798   5.756  0.0237  0.4160  0.3491
   39CHL1   H1A 4037   5.153   4.840   5.725 -0.3792  1.4410  0.4080
   39CHL1   H1B 4038   4.985   4.874   5.715 -0.3432 -0.0600  0.0888
   39CHL1    C2 4039   5.058   4.802   5.911  0.0075  0.6050  0.4337
   39CHL1   H2A 4040   5.069   4.912   5.923  2.0234  0.4668  0.1984
   39CHL1   H2B 4041   5.149   4.747   5.943 -0.3207 -0.1454  0.0913
   39CHL1   C20 4042   5.042   4.684   4.965 -0.8813 -0.1761 -0.1788
   39CHL1   H20 4043   5.140   4.631   4.966 -0.1228  1.1898 -0.1927
   39CHL1   C21 4044   5.081   4.834   4.952 -0.1548 -0.2023 -0.2600
   39CHL1  H21A 4045   5.137   4.867   4.861  0.6407 -0.6779  0.0458
   39CHL1  H21B 4046   5.155   4.841   5.034 -0.9271 -1.6406  0.5900
   39CHL1  H21C 4047   4.998   4.904   4.976  1.5841  2.2092 -0.8206
   39CHL1   C22 4048   4.955   4.640   4.840  0.4449  0.5700 -0.4028
   39CHL1  H22A 4049   4.946   4.530   4.842 -1.9062  0.7052 -0.7599
   39CHL1  H22B 4050   4.850   4.674   4.853  0.3586  0.2813 -0.3574
   39CHL1   C23 4051   4.999   4.687   4.701  0.3750  0.0114  0.2934
   39CHL1  H23A 4052   4.983   4.796   4.689 -1.5342 -0.2769 -0.0374
   39CHL1  H23B 4053   5.108   4.670   4.682  0.5202  0.1740  0.9525
   39CHL1   C24 4054   4.916   4.629   4.589  0.9073  0.1136  0.7704
   39CHL1  H24A 4055   4.810   4.656   4.605  1.0283  0.9146  0.2947
   39CHL1  H24B 4056   4.948   4.673   4.492  1.8704 -1.3059  0.4087
   39CHL1   C25 4057   4.917   4.474   4.567  0.2920 -1.0868 -0.6053
   39CHL1   H25 4058   4.851   4.442   4.650  0.9925  0.5090  0.6127
   39CHL1   C26 4059   4.853   4.422   4.430 -0.0718 -1.2331 -0.2481
   39CHL1  H26A 4060   4.897   4.325   4.400  1.0952 -0.8771  0.2352
   39CHL1  H26B 4061   4.745   4.412   4.456 -0.2680  2.3150  0.8226
   39CHL1  H26C 4062   4.862   4.494   4.346  1.0120  0.1831  1.0087
   39CHL1   C27 4063   5.060   4.410   4.585  0.1212 -0.3790 -0.0356
   39CHL1  H27A 4064   5.050   4.303   4.556 -2.3881  0.0793 -1.0889
   39CHL1  H27B 4065   5.127   4.448   4.505 -2.2444  0.4863 -1.6992
   39CHL1  H27C 4066   5.095   4.432   4.688  3.1813 -0.9022 -0.8476
   40CHL1    C3 4067   2.685   1.614   5.932 -0.0846 -0.5486  0.7183
   40CHL1    H3 4068   2.653   1.719   5.916 -1.6388 -1.2658 -1.2874
   40CHL1    O3 4069   2.727   1.605   6.063  0.0917 -0.1290 -0.2959
   40CHL1   H3' 4070   2.820   1.627   6.052  0.2772 -0.8830 -0.2915
   40CHL1    C4 4071   2.564   1.523   5.904 -0.6583 -0.0949 -0.0458
   40CHL1   H4A 4072   2.584   1.420   5.939 -0.0611  0.9787  3.1590
   40CHL1   H4B 4073   2.479   1.551   5.970 -1.1380  0.1795 -0.7667
   40CHL1    C5 4074   2.533   1.526   5.752  0.9048  0.2538  0.3595
   40CHL1    C6 4075   2.406   1.544   5.707  0.4477 -0.2434  0.2577
   40CHL1    H6 4076   2.322   1.561   5.776 -0.0587 -1.4413 -0.0476
   40CHL1    C7 4077   2.361   1.560   5.564 -0.0709 -0.0999 -0.2961
   40CHL1   H7A 4078   2.265   1.505   5.549 -0.3000 -0.3406  1.8498
   40CHL1   H7B 4079   2.336   1.669   5.557 -1.7056 -0.4729 -0.7517
   40CHL1    C8 4080   2.467   1.517   5.462  1.2335 -0.4499  0.4671
   40CHL1    H8 4081   2.440   1.410   5.449 -0.1225 -0.0113 -0.4922
   40CHL1   C14 4082   2.444   1.586   5.326  0.6659 -0.2496 -0.3427
   40CHL1   H14 4083   2.455   1.695   5.341 -0.0727 -0.1229 -0.6841
   40CHL1   C15 4084   2.300   1.592   5.265  0.5240  0.2746  0.4319
   40CHL1  H15A 4085   2.246   1.503   5.305 -0.7616  0.2344 -1.2996
   40CHL1  H15B 4086   2.235   1.675   5.299  1.4041  0.9702  0.4789
   40CHL1   C16 4087   2.320   1.589   5.114 -0.2258  0.4573  0.6911
   40CHL1  H16A 4088   2.289   1.486   5.086  0.2342  0.4049  0.3590
   40CHL1  H16B 4089   2.258   1.656   5.051  0.0950 -0.9406 -1.1865
   40CHL1   C17 4090   2.470   1.601   5.095  0.1713  0.1222  0.2076
   40CHL1   H17 4091   2.502   1.706   5.106 -0.0799  0.2269 -0.0465
   40CHL1   C13 4092   2.535   1.537   5.217  0.0813  0.2276  0.4275
   40CHL1   C18 4093   2.534   1.389   5.191  0.0500  0.5222 -0.4599
   40CHL1  H18A 4094   2.438   1.343   5.160  0.6381 -0.1138 -1.4061
   40CHL1  H18B 4095   2.609   1.360   5.114 -0.4906 -0.9976 -0.4403
   40CHL1  H18C 4096   2.575   1.333   5.277  0.0461 -2.0365 -2.0184
   40CHL1   C12 4097   2.676   1.592   5.257  0.0185  0.5656 -0.1126
   40CHL1  H12A 4098   2.742   1.553   5.176 -0.5966 -2.3525  0.6810
   40CHL1  H12B 4099   2.689   1.701   5.270  2.7567  0.4538 -1.2167
   40CHL1   C11 4100   2.720   1.530   5.400  0.3997  0.1841  0.5667
   40CHL1  H11A 4101   2.742   1.421   5.390 -0.6649  0.0824 -0.9899
   40CHL1  H11B 4102   2.818   1.579   5.421  1.0574 -0.6452 -0.4869
   40CHL1    C9 4103   2.606   1.551   5.508 -0.3822  0.3130  0.1850
   40CHL1    H9 4104   2.612   1.661   5.525  0.1107  0.1564  1.1305
   40CHL1   C10 4105   2.645   1.504   5.648  0.5279  0.9027 -0.2756
   40CHL1   C19 4106   2.679   1.352   5.664 -0.1719 -0.0905  0.8817
   40CHL1  H19A 4107   2.675   1.302   5.763 -1.4002 -0.3048  0.7469
   40CHL1  H19B 4108   2.618   1.292   5.592  1.5484 -1.1966  0.2823
   40CHL1  H19C 4109   2.779   1.331   5.621  0.9542  0.7874  2.9333
   40CHL1    C1 4110   2.767   1.593   5.691  0.0618  0.2259 -0.3389
   40CHL1   H1A 4111   2.862   1.558   5.645 -0.4678 -0.2924 -1.0588
   40CHL1   H1B 4112   2.745   1.700   5.673 -0.8348  0.2854  0.9355
   40CHL1    C2 4113   2.809   1.574   5.835  0.3187 -0.1994 -0.1940
   40CHL1   H2A 4114   2.895   1.640   5.861  0.0595 -0.5603  1.7546
   40CHL1   H2B 4115   2.831   1.468   5.862  3.2376 -0.0386 -1.5973
   40CHL1   C20 4116   2.506   1.558   4.953  0.0081  0.9308  0.6352
   40CHL1   H20 4117   2.472   1.453   4.935  0.7864  0.4280  1.9625
   40CHL1   C21 4118   2.654   1.570   4.922 -1.2194 -0.1621  0.1798
   40CHL1  H21A 4119   2.681   1.677   4.940  1.0015 -1.0953  3.1843
   40CHL1  H21B 4120   2.691   1.545   4.820  0.4819  1.1980  0.3977
   40CHL1  H21C 4121   2.718   1.518   4.996 -2.0468 -0.3041  0.8083
   40CHL1   C22 4122   2.434   1.652   4.849  0.2351  0.7898 -0.5923
   40CHL1  H22A 4123   2.324   1.633   4.852  0.1627  1.2234  2.7673
   40CHL1  H22B 4124   2.450   1.753   4.891 -0.8711  0.9529 -0.5209
   40CHL1   C23 4125   2.480   1.655   4.704  0.0195 -0.5289 -0.1009
   40CHL1  H23A 4126   2.419   1.725   4.643  1.2953 -0.6507 -1.5598
   40CHL1  H23B 4127   2.581   1.700   4.713 -0.3952  0.5681 -0.7636
   40CHL1   C24 4128   2.490   1.514   4.636 -0.5582  0.1763 -0.7185
   40CHL1  H24A 4129   2.530   1.441   4.709 -1.8266 -0.3872 -0.5668
   40CHL1  H24B 4130   2.385   1.489   4.606  0.8734 -3.8700 -3.2725
   40CHL1   C25 4131   2.566   1.521   4.500  0.1657 -0.2254 -0.5589
   40CHL1   H25 4132   2.642   1.602   4.499  0.0868 -0.1506 -1.3560
   40CHL1   C26 4133   2.642   1.388   4.479  0.1257  0.1642 -0.1260
   40CHL1  H26A 4134   2.684   1.371   4.377 -0.1886  1.7746 -0.5604
   40CHL1  H26B 4135   2.703   1.357   4.566 -0.5085 -3.6472 -0.8907
   40CHL1  H26C 4136   2.555   1.320   4.482 -0.4990  0.8430 -1.7104
   40CHL1   C27 4137   2.477   1.540   4.381  0.3941  0.6046 -0.7937
   40CHL1  H27A 4138   2.537   1.574   4.294  0.4990  0.7390 -0.6696
   40CHL1  H27B 4139   2.413   1.453   4.353  0.3299 -0.5612  2.4555
   40CHL1  H27C 4140   2.404   1.617   4.414 -0.3301 -0.6319  0.6300
   41CHL1    C3 4141   5.790   2.779   6.128  0.4944 -0.1011  0.1179
   41CHL1    H3 4142   5.838   2.681   6.106  0.5549 -0.0372 -0.0312
   41CHL1    O3 4143   5.786   2.788   6.265 -0.2004  0.1122 -0.1023
   41CHL1   H3' 4144   5.856   2.850   6.285  2.8037 -2.4520 -1.6759
   41CHL1    C4 4145   5.900   2.877   6.075 -1.1151 -0.2062 -0.1575
   41CHL1   H4A 4146   5.868   2.982   6.089 -1.6466 -0.2347 -1.0348
   41CHL1   H4B 4147   5.994   2.850   6.128 -2.4084  1.9625  3.5911
   41CHL1    C5 4148   5.910   2.869   5.917  0.3226  0.5321 -0.1114
   41CHL1    C6 4149   6.030   2.853   5.863 -0.2536  0.8536 -0.3328
   41CHL1    H6 4150   6.115   2.840   5.932 -0.2271 -2.5510 -0.8431
   41CHL1    C7 4151   6.051   2.846   5.715  0.3304  0.5761  0.8755
   41CHL1   H7A 4152   6.136   2.907   5.676 -1.1814  0.2787 -3.4445
   41CHL1   H7B 4153   6.077   2.743   5.683 -0.9865  0.9523 -1.6341
   41CHL1    C8 4154   5.928   2.890   5.629  0.0093  0.9459 -0.2602
   41CHL1    H8 4155   5.933   3.001   5.639  1.8863  0.7233  2.3823
   41CHL1   C14 4156   5.940   2.845   5.486  0.6364 -0.1389 -0.7100
   41CHL1   H14 4157   5.928   2.735   5.485  0.7161 -0.1490 -0.5344
   41CHL1   C15 4158   6.073   2.866   5.419  0.1002  0.3190 -0.0053
   41CHL1  H15A 4159   6.114   2.965   5.449 -0.2201  0.1742  0.9356
   41CHL1  H15B 4160   6.141   2.785   5.453  0.2249  1.7381  3.4734
   41CHL1   C16 4161   6.039   2.877   5.266  0.1782 -0.0155 -1.1325
   41CHL1  H16A 4162   6.050   2.979   5.224 -0.5241 -0.8783 -3.6224
   41CHL1  H16B 4163   6.112   2.818   5.207  3.6822  1.0834  1.7607
   41CHL1   C17 4164   5.884   2.835   5.253  0.5458 -0.3180  0.4096
   41CHL1   H17 4165   5.877   2.725   5.257 -0.9075 -0.2182  1.0660
   41CHL1   C13 4166   5.827   2.880   5.396 -0.1576  0.9426  0.0375
   41CHL1   C18 4167   5.808   3.034   5.385 -0.0427 -0.8854  0.0753
   41CHL1  H18A 4168   5.730   3.057   5.310  2.3253  2.1615 -1.6861
   41CHL1  H18B 4169   5.777   3.085   5.478  1.7045 -0.6445  0.5659
   41CHL1  H18C 4170   5.899   3.092   5.358 -1.2702  0.7064 -0.7797
   41CHL1   C12 4171   5.695   2.817   5.455 -0.1539  0.5585 -0.1870
   41CHL1  H12A 4172   5.615   2.861   5.391  0.1753 -0.0715 -1.0559
   41CHL1  H12B 4173   5.696   2.706   5.446  0.5574  0.4652  0.9099
   41CHL1   C11 4174   5.674   2.853   5.600  0.1451  0.1570 -0.5339
   41CHL1  H11A 4175   5.640   2.958   5.610  1.7602  0.7911 -1.3854
   41CHL1  H11B 4176   5.583   2.797   5.631  0.9964 -0.6609  0.5499
   41CHL1    C9 4177   5.802   2.827   5.689  0.0104  0.4330 -1.0525
   41CHL1    H9 4178   5.812   2.716   5.693 -1.6277  0.3029 -0.0168
   41CHL1   C10 4179   5.779   2.867   5.836 -0.5402  0.8875  0.2338
   41CHL1   C19 4180   5.720   3.008   5.829 -0.5239 -0.2610 -0.3911
   41CHL1  H19A 4181   5.612   3.005   5.804 -0.0210  0.0542 -2.7665
   41CHL1  H19B 4182   5.735   3.051   5.931 -0.7954 -0.2676 -0.3493
   41CHL1  H19C 4183   5.761   3.087   5.762 -0.6308  0.2959  0.1893
   41CHL1    C1 4184   5.667   2.776   5.905  0.1663 -0.5341 -0.3938
   41CHL1   H1A 4185   5.571   2.799   5.855  0.4883 -1.0854 -1.2767
   41CHL1   H1B 4186   5.700   2.671   5.887  0.7878 -0.6678  1.2971
   41CHL1    C2 4187   5.653   2.795   6.057 -0.1698 -0.0326  0.0953
   41CHL1   H2A 4188   5.586   2.718   6.102  1.8065 -1.7789  0.2340
   41CHL1   H2B 4189   5.618   2.898   6.077 -0.1615 -0.1792  0.8906
   41CHL1   C20 4190   5.820   2.881   5.124 -0.4886  0.0854 -0.3328
   41CHL1   H20 4191   5.839   2.990   5.108 -2.0863 -0.0144 -3.7804
   41CHL1   C21 4192   5.671   2.862   5.121  0.3909 -0.2727 -0.1233
   41CHL1  H21A 4193   5.625   2.907   5.030  0.1560  1.7227  0.9301
   41CHL1  H21B 4194   5.620   2.928   5.194  1.3760  2.2866 -1.5833
   41CHL1  H21C 4195   5.639   2.756   5.134  0.9166 -0.3006  1.0580
   41CHL1   C22 4196   5.891   2.809   5.006  0.0556 -0.3721 -0.0176
   41CHL1  H22A 4197   5.998   2.835   4.998 -0.3077  1.0442 -0.7598
   41CHL1  H22B 4198   5.886   2.700   5.027 -0.5948 -0.2086  0.7606
   41CHL1   C23 4199   5.843   2.850   4.861  0.9180  0.1850  0.2482
   41CHL1  H23A 4200   5.733   2.865   4.852  1.2419  1.8627 -1.7514
   41CHL1  H23B 4201   5.893   2.946   4.835 -0.6116  1.1699  0.7677
   41CHL1   C24 4202   5.873   2.742   4.758  0.7985  0.2262  0.0810
   41CHL1  H24A 4203   5.977   2.711   4.782  0.2574 -1.8535 -0.1174
   41CHL1  H24B 4204   5.801   2.660   4.778  0.7694  0.2030 -0.1205
   41CHL1   C25 4205   5.864   2.789   4.610 -0.2465  0.8731 -0.4510
   41CHL1   H25 4206   5.901   2.893   4.607  0.8623  0.5287  0.5087
   41CHL1   C26 4207   5.940   2.699   4.520 -0.3885 -0.3798  0.3583
   41CHL1  H26A 4208   5.920   2.733   4.416 -2.2225 -0.0310  0.7764
   41CHL1  H26B 4209   6.048   2.695   4.546 -0.5367  1.2361  1.4052
   41CHL1  H26C 4210   5.894   2.598   4.515  0.9351 -1.1304  2.3809
   41CHL1   C27 4211   5.710   2.788   4.569  0.2248 -0.3560 -0.5840
   41CHL1  H27A 4212   5.690   2.795   4.460 -2.3779  1.4159 -0.0866
   41CHL1  H27B 4213   5.660   2.690   4.583  0.5983 -0.6268 -1.1119
   41CHL1  H27C 4214   5.654   2.867   4.624  3.2294  0.3083  1.7797
   42CHL1    C3 4215   6.745   0.448   5.774 -0.1995 -0.0875 -0.3380
   42CHL1    H3 4216   6.646   0.400   5.780 -0.3420  0.3675  1.3287
   42CHL1    O3 4217   6.766   0.501   5.909 -0.3826  0.0729 -0.0470
   42CHL1   H3' 4218   6.737   0.432   5.969 -0.0095  0.7924  0.9976
   42CHL1    C4 4219   6.856   0.349   5.741 -0.1243  0.0193 -0.8876
   42CHL1   H4A 4220   6.959   0.387   5.754  0.6194 -2.7402  3.5512
   42CHL1   H4B 4221   6.860   0.269   5.819  0.5510  0.1433 -0.7942
   42CHL1    C5 4222   6.833   0.303   5.596 -0.6338 -0.3505  0.2511
   42CHL1    C6 4223   6.820   0.177   5.579 -0.3240  0.1480  0.7679
   42CHL1    H6 4224   6.812   0.105   5.662 -0.3824 -0.6259  0.0931
   42CHL1    C7 4225   6.814   0.122   5.436 -0.5819 -1.1146 -0.7220
   42CHL1   H7A 4226   6.909   0.063   5.432  0.6936  0.5815  2.0056
   42CHL1   H7B 4227   6.720   0.067   5.415 -0.7544 -0.1663 -2.6802
   42CHL1    C8 4228   6.837   0.217   5.316  0.0320  0.3248 -0.2746
   42CHL1    H8 4229   6.947   0.231   5.302 -0.0409 -0.1250 -1.3542
   42CHL1   C14 4230   6.777   0.169   5.187 -0.2646 -0.0960 -0.9717
   42CHL1   H14 4231   6.671   0.168   5.220  0.0725  0.4245  0.2072
   42CHL1   C15 4232   6.806   0.025   5.121  0.3814 -1.3947 -0.7749
   42CHL1  H15A 4233   6.916   0.012   5.108  0.8990  0.3904  1.2569
   42CHL1  H15B 4234   6.771  -0.056   5.188 -0.9992 -1.1255 -1.1461
   42CHL1   C16 4235   6.748   0.038   4.981 -0.0009  0.0937  0.8825
   42CHL1  H16A 4236   6.833   0.041   4.909 -1.6998  0.9918 -1.1814
   42CHL1  H16B 4237   6.668  -0.034   4.957 -0.3885  0.7723  0.1225
   42CHL1   C17 4238   6.693   0.182   4.963  0.0159 -0.0774 -0.2211
   42CHL1   H17 4239   6.590   0.178   5.005  0.3987  1.6145  0.9899
   42CHL1   C13 4240   6.781   0.266   5.068 -0.6051 -0.8498  0.7681
   42CHL1   C18 4241   6.931   0.281   5.013  0.2794 -0.6307  0.0909
   42CHL1  H18A 4242   6.936   0.369   4.947  1.0250 -1.2497 -0.7044
   42CHL1  H18B 4243   7.004   0.300   5.094  1.9079 -0.8809 -1.2691
   42CHL1  H18C 4244   6.964   0.186   4.965  3.7221 -0.1901  1.2932
   42CHL1   C12 4245   6.722   0.399   5.109  0.1815 -0.2682 -0.4330
   42CHL1  H12A 4246   6.751   0.479   5.038  1.0866 -0.7060 -0.5787
   42CHL1  H12B 4247   6.613   0.385   5.122  0.1528  0.5718  0.3716
   42CHL1   C11 4248   6.797   0.450   5.237 -0.0717  0.8664 -0.0521
   42CHL1  H11A 4249   6.900   0.465   5.198 -1.2550  3.2642 -2.6791
   42CHL1  H11B 4250   6.749   0.550   5.249 -1.1826  0.2999  0.4407
   42CHL1    C9 4251   6.779   0.354   5.350 -0.5339  0.2555 -0.2648
   42CHL1    H9 4252   6.673   0.337   5.376  0.2334 -2.4016  1.4490
   42CHL1   C10 4253   6.832   0.412   5.484 -0.0492 -0.0816  0.1633
   42CHL1   C19 4254   6.972   0.487   5.472 -0.0139 -0.0231 -0.3759
   42CHL1  H19A 4255   6.944   0.584   5.425 -2.7314 -1.0079 -0.9716
   42CHL1  H19B 4256   7.015   0.494   5.574 -1.6976 -0.4472  0.4023
   42CHL1  H19C 4257   7.051   0.439   5.412  0.6571 -2.3537  2.1462
   42CHL1    C1 4258   6.729   0.524   5.523  0.1733 -0.3064  0.3019
   42CHL1   H1A 4259   6.722   0.607   5.450 -0.7206 -1.1646 -0.6175
   42CHL1   H1B 4260   6.627   0.480   5.522 -0.0704  0.2317  0.9709
   42CHL1    C2 4261   6.736   0.566   5.675 -0.7890  0.3180 -0.1032
   42CHL1   H2A 4262   6.645   0.625   5.703 -0.5281  1.0282 -0.7317
   42CHL1   H2B 4263   6.814   0.643   5.688  0.0231 -0.4227 -0.5299
   42CHL1   C20 4264   6.679   0.235   4.812  0.6480  0.0082  0.1811
   42CHL1   H20 4265   6.783   0.254   4.778  0.6531 -1.4140 -0.6686
   42CHL1   C21 4266   6.591   0.359   4.797 -0.0828 -0.2506 -0.0623
   42CHL1  H21A 4267   6.584   0.392   4.691 -0.4566 -0.6606 -0.1703
   42CHL1  H21B 4268   6.607   0.448   4.861 -2.7858 -0.5665  1.1830
   42CHL1  H21C 4269   6.488   0.334   4.829 -0.1072 -1.0472 -0.7145
   42CHL1   C22 4270   6.615   0.121   4.717 -0.1480  0.5644  0.8394
   42CHL1  H22A 4271   6.695   0.049   4.691 -1.3556 -0.9723  1.2606
   42CHL1  H22B 4272   6.538   0.063   4.773  0.8731 -1.4826  0.2097
   42CHL1   C23 4273   6.555   0.162   4.577  0.0608 -0.2512  0.1107
   42CHL1  H23A 4274   6.484   0.245   4.599  0.0998 -0.8693  2.9902
   42CHL1  H23B 4275   6.638   0.210   4.522 -0.6495 -0.2650 -1.0005
   42CHL1   C24 4276   6.498   0.044   4.498 -0.2861 -0.5578  0.2139
   42CHL1  H24A 4277   6.572  -0.039   4.501  0.8427  0.3193 -1.7192
   42CHL1  H24B 4278   6.414   0.013   4.564 -1.7285  2.5186 -0.0385
   42CHL1   C25 4279   6.455   0.078   4.350  0.9429 -0.4055  0.5058
   42CHL1   H25 4280   6.543   0.110   4.290  1.9087 -3.2922  0.1924
   42CHL1   C26 4281   6.421  -0.057   4.276  0.0273  0.3298  0.4878
   42CHL1  H26A 4282   6.507  -0.127   4.276 -1.9878 -2.4070  3.1217
   42CHL1  H26B 4283   6.343  -0.110   4.335  0.9965 -0.5122  1.0551
   42CHL1  H26C 4284   6.385  -0.044   4.172  2.3261 -0.1229 -0.4138
   42CHL1   C27 4285   6.336   0.174   4.352 -0.6757  0.2170 -0.4830
   42CHL1  H27A 4286   6.249   0.121   4.397  0.0894 -1.0478 -0.4546
   42CHL1  H27B 4287   6.361   0.272   4.398 -1.7933  0.3978 -0.2138
   42CHL1  H27C 4288   6.292   0.190   4.251 -1.9117 -1.2894 -0.2307
   43CHL1    C3 4289   0.214   6.272   5.894 -0.1730  0.5152  0.5376
   43CHL1    H3 4290   0.175   6.170   5.876  1.0551 -0.1868  1.7595
   43CHL1    O3 4291   0.165   6.311   6.026 -0.0687 -0.0263 -0.3127
   43CHL1   H3' 4292   0.209   6.246   6.082 -0.2620  1.1492  1.2993
   43CHL1    C4 4293   0.369   6.280   5.881  0.1313 -0.1356 -0.9652
   43CHL1   H4A 4294   0.392   6.386   5.906  0.9103 -0.9683  2.3765
   43CHL1   H4B 4295   0.411   6.223   5.967  0.8678  1.5045 -0.1767
   43CHL1    C5 4296   0.417   6.253   5.734 -0.0886  0.1627  0.2256
   43CHL1    C6 4297   0.525   6.178   5.710 -0.1381  0.4439  0.3947
   43CHL1    H6 4298   0.572   6.129   5.797 -0.4835 -0.7985 -0.1016
   43CHL1    C7 4299   0.583   6.137   5.578 -0.1141  0.8777  0.5281
   43CHL1   H7A 4300   0.694   6.136   5.581 -0.0354  2.2057 -0.7102
   43CHL1   H7B 4301   0.555   6.034   5.548 -0.4926  1.2231 -0.3508
   43CHL1    C8 4302   0.534   6.238   5.468 -0.7176  0.3578  0.9037
   43CHL1    H8 4303   0.595   6.330   5.476 -0.9034  0.3389  2.9243
   43CHL1   C14 4304   0.561   6.182   5.323  0.6058  0.1912  0.0989
   43CHL1   H14 4305   0.504   6.087   5.313  1.4341 -0.5140  1.6627
   43CHL1   C15 4306   0.706   6.139   5.282 -0.1830 -0.1452 -0.6002
   43CHL1  H15A 4307   0.768   6.222   5.320 -1.5104  1.3231 -1.4958
   43CHL1  H15B 4308   0.740   6.040   5.320  1.4338  0.6875  0.1860
   43CHL1   C16 4309   0.701   6.127   5.134 -0.5232  0.2472 -0.2154
   43CHL1  H16A 4310   0.784   6.177   5.080  0.8576 -2.6312 -0.9637
   43CHL1  H16B 4311   0.695   6.020   5.103  1.4424  0.0142  0.0722
   43CHL1   C17 4312   0.569   6.192   5.086  0.4240  0.2120  0.5039
   43CHL1   H17 4313   0.494   6.110   5.082  1.9065 -1.1535 -0.5054
   43CHL1   C13 4314   0.523   6.272   5.205 -0.5085 -0.1992 -0.6351
   43CHL1   C18 4315   0.612   6.402   5.199  0.2162 -0.1051 -0.3238
   43CHL1  H18A 4316   0.599   6.452   5.297 -2.2035  0.2796 -0.7832
   43CHL1  H18B 4317   0.720   6.377   5.184  0.2589 -0.3271  0.3551
   43CHL1  H18C 4318   0.591   6.479   5.122  3.0211 -1.0924 -2.2423
   43CHL1   C12 4319   0.377   6.300   5.224  0.1452  0.2812 -0.1523
   43CHL1  H12A 4320   0.349   6.377   5.150  1.9767  0.7730 -0.3977
   43CHL1  H12B 4321   0.323   6.206   5.201  0.3119  0.7402 -2.6232
   43CHL1   C11 4322   0.340   6.358   5.365  0.1779 -0.2933  0.0746
   43CHL1  H11A 4323   0.398   6.453   5.363  1.0924 -0.6918  2.9632
   43CHL1  H11B 4324   0.234   6.388   5.376  0.4344  0.4723  0.5338
   43CHL1    C9 4325   0.390   6.268   5.481 -1.0333  0.5181  0.8993
   43CHL1    H9 4326   0.345   6.168   5.465  1.1593 -0.7044  1.9719
   43CHL1   C10 4327   0.346   6.323   5.618 -0.1170  0.1440 -0.2946
   43CHL1   C19 4328   0.397   6.472   5.621  0.4948  0.6721 -1.1509
   43CHL1  H19A 4329   0.338   6.533   5.548 -0.0768  1.9753  0.3319
   43CHL1  H19B 4330   0.384   6.519   5.721 -0.1440  2.9547 -2.2220
   43CHL1  H19C 4331   0.504   6.479   5.592  0.6104 -1.5547 -1.4148
   43CHL1    C1 4332   0.188   6.306   5.636 -0.5950 -0.1728  0.1623
   43CHL1   H1A 4333   0.127   6.366   5.565 -1.9979  0.0157  1.4580
   43CHL1   H1B 4334   0.158   6.200   5.619  2.2275 -0.9584 -0.4903
   43CHL1    C2 4335   0.144   6.344   5.781  0.3372  0.5356  0.3032
   43CHL1   H2A 4336   0.037   6.315   5.787  0.6108 -0.2057  2.2618
   43CHL1   H2B 4337   0.159   6.454   5.785  0.7727  0.4976 -0.1085
   43CHL1   C20 4338   0.580   6.251   4.946  0.6468  0.0132  0.2384
   43CHL1   H20 4339   0.660   6.327   4.930  1.8350 -1.3112 -0.2691
   43CHL1   C21 4340   0.445   6.317   4.892 -1.0975 -0.2548 -0.7323
   43CHL1  H21A 4341   0.417   6.329   4.785 -2.6139  0.3494 -0.2980
   43CHL1  H21B 4342   0.427   6.422   4.921 -2.0006  0.1976 -2.7558
   43CHL1  H21C 4343   0.369   6.258   4.947  0.7902 -0.9002  1.3340
   43CHL1   C22 4344   0.619   6.139   4.850  0.2327  0.3350  0.8310
   43CHL1  H22A 4345   0.695   6.068   4.888  1.5591  0.6311 -1.1542
   43CHL1  H22B 4346   0.530   6.074   4.832  0.1829 -0.2125  2.8050
   43CHL1   C23 4347   0.684   6.203   4.719  0.3307  0.6084  0.0123
   43CHL1  H23A 4348   0.599   6.252   4.665  0.2963  2.5989  1.7209
   43CHL1  H23B 4349   0.762   6.276   4.748 -0.5654  1.8290 -0.5119
   43CHL1   C24 4350   0.745   6.098   4.620 -0.0335 -0.0198  0.2391
   43CHL1  H24A 4351   0.821   6.033   4.670 -1.3143  0.4057  2.9507
   43CHL1  H24B 4352   0.663   6.029   4.591  1.0021 -0.3187 -2.1914
   43CHL1   C25 4353   0.817   6.160   4.493  0.2272  1.2961 -0.1905
   43CHL1   H25 4354   0.742   6.213   4.431 -2.5504 -3.0824 -1.0759
   43CHL1   C26 4355   0.935   6.243   4.529  0.4729  0.4804 -0.3452
   43CHL1  H26A 4356   1.000   6.253   4.440  2.5285 -0.4370  0.9553
   43CHL1  H26B 4357   0.909   6.342   4.574 -0.2129  0.0902  0.1337
   43CHL1  H26C 4358   1.003   6.204   4.609 -1.3480 -0.0536  1.0083
   43CHL1   C27 4359   0.858   6.038   4.404 -0.4166  0.2909  0.3301
   43CHL1  H27A 4360   0.908   5.963   4.467 -0.1273  0.1173 -0.0996
   43CHL1  H27B 4361   0.771   5.984   4.362 -0.4778 -0.5027  1.4570
   43CHL1  H27C 4362   0.920   6.061   4.314  2.3448 -0.7551  1.8303
   44CHL1    C3 4363   0.632   0.554   5.833 -0.4155  0.5447  0.5810
   44CHL1    H3 4364   0.603   0.454   5.871  5.2774 -0.6673  2.7726
   44CHL1    O3 4365   0.655   0.616   5.953 -0.0025  0.8599 -0.1601
   44CHL1   H3' 4366   0.676   0.705   5.922  1.8844  0.2318 -0.8529
   44CHL1    C4 4367   0.771   0.555   5.751  0.3796  0.6331 -0.2007
   44CHL1   H4A 4368   0.800   0.662   5.753  1.2450  0.4019  0.2403
   44CHL1   H4B 4369   0.864   0.508   5.791  0.5801  2.9192  2.2791
   44CHL1    C5 4370   0.753   0.519   5.604 -0.0133  0.0949 -0.7975
   44CHL1    C6 4371   0.831   0.424   5.546 -0.0457 -0.1343  0.2879
   44CHL1    H6 4372   0.907   0.379   5.611 -1.5118 -2.9761  0.2160
   44CHL1    C7 4373   0.818   0.365   5.405 -0.8005 -0.6565  0.2395
   44CHL1   H7A 4374   0.920   0.334   5.374  0.6391  0.9836  2.9854
   44CHL1   H7B 4375   0.739   0.288   5.419 -1.0331 -0.2345  1.2827
   44CHL1    C8 4376   0.744   0.463   5.315 -0.1494  1.0843  0.1526
   44CHL1    H8 4377   0.813   0.544   5.282  0.6430 -0.2020 -1.5044
   44CHL1   C14 4378   0.687   0.394   5.187 -0.1402 -0.4595 -0.2374
   44CHL1   H14 4379   0.621   0.315   5.227  2.0890 -1.7322  1.1476
   44CHL1   C15 4380   0.791   0.321   5.095  0.0146  0.0936  0.3701
   44CHL1  H15A 4381   0.879   0.385   5.073  1.8163 -2.0893  0.8093
   44CHL1  H15B 4382   0.837   0.236   5.149 -0.5064 -0.2293  0.3180
   44CHL1   C16 4383   0.711   0.286   4.970  0.2905  0.3714  0.2555
   44CHL1  H16A 4384   0.763   0.300   4.873  0.1248 -0.4597  0.0364
   44CHL1  H16B 4385   0.677   0.180   4.978  1.2246  0.2009  3.4034
   44CHL1   C17 4386   0.576   0.368   4.978  0.5770  0.5373  0.1335
   44CHL1   H17 4387   0.499   0.307   5.029 -1.4638  1.2997 -1.8678
   44CHL1   C13 4388   0.603   0.475   5.082 -0.6501  0.0313 -0.6486
   44CHL1   C18 4389   0.686   0.595   5.024  0.2902  0.3179 -0.2076
   44CHL1  H18A 4390   0.618   0.646   4.953 -1.6710 -0.8285  0.7718
   44CHL1  H18B 4391   0.723   0.671   5.096  0.5682  0.0459 -0.0603
   44CHL1  H18C 4392   0.779   0.556   4.975  1.2575  1.6793  0.4951
   44CHL1   C12 4393   0.477   0.518   5.159 -0.0801  0.5061 -0.5695
   44CHL1  H12A 4394   0.414   0.582   5.094 -0.2750  0.5000 -0.3869
   44CHL1  H12B 4395   0.412   0.435   5.192  0.2968  0.5259  0.2635
   44CHL1   C11 4396   0.524   0.598   5.296 -0.2068 -0.3334  0.5092
   44CHL1  H11A 4397   0.580   0.686   5.258  0.4781 -0.9504  0.0595
   44CHL1  H11B 4398   0.424   0.625   5.336 -0.9290 -0.9174 -0.8542
   44CHL1    C9 4399   0.616   0.513   5.392  0.0484 -0.5261  0.1264
   44CHL1    H9 4400   0.557   0.421   5.408  1.9345 -1.8652 -0.2998
   44CHL1   C10 4401   0.636   0.580   5.529 -0.4222  0.0114  0.4584
   44CHL1   C19 4402   0.678   0.729   5.498 -0.1971  0.0613  0.7639
   44CHL1  H19A 4403   0.714   0.784   5.587  1.6088 -2.9323  2.0658
   44CHL1  H19B 4404   0.760   0.728   5.423 -1.4338 -0.0087 -0.6349
   44CHL1  H19C 4405   0.588   0.774   5.451 -0.4625  0.1748  1.3835
   44CHL1    C1 4406   0.503   0.572   5.614 -0.4609 -0.1552  0.1427
   44CHL1   H1A 4407   0.418   0.621   5.561  1.0807  2.5546 -0.0009
   44CHL1   H1B 4408   0.475   0.465   5.618  2.0988 -0.8443  1.0369
   44CHL1    C2 4409   0.517   0.626   5.762 -0.3254 -0.1305  0.0148
   44CHL1   H2A 4410   0.426   0.603   5.822  1.3898 -0.9751  2.4552
   44CHL1   H2B 4411   0.530   0.736   5.759 -0.7032 -0.0937 -0.4566
   44CHL1   C20 4412   0.505   0.405   4.848 -0.9266 -0.3890 -0.1177
   44CHL1   H20 4413   0.429   0.482   4.870  0.2822  1.0197 -0.7273
   44CHL1   C21 4414   0.439   0.274   4.807 -0.0099  1.1738 -0.4031
   44CHL1  H21A 4415   0.519   0.200   4.787 -1.5496 -0.1766 -1.9413
   44CHL1  H21B 4416   0.371   0.291   4.720 -1.9628 -0.9336  0.5943
   44CHL1  H21C 4417   0.376   0.230   4.888 -0.1009 -0.7926 -1.4701
   44CHL1   C22 4418   0.593   0.460   4.733  0.4364 -0.7378  0.0422
   44CHL1  H22A 4419   0.675   0.526   4.768  0.2927  0.5905 -1.9622
   44CHL1  H22B 4420   0.648   0.374   4.690  1.0032 -0.6245  0.5252
   44CHL1   C23 4421   0.511   0.540   4.640  0.3798 -0.7586  0.1852
   44CHL1  H23A 4422   0.431   0.478   4.595 -0.2383  0.4569 -0.4489
   44CHL1  H23B 4423   0.451   0.623   4.685 -2.1461 -1.3208 -1.8972
   44CHL1   C24 4424   0.590   0.603   4.519 -0.2331 -0.0863 -0.4448
   44CHL1  H24A 4425   0.657   0.684   4.553 -0.5193  0.2547 -0.6831
   44CHL1  H24B 4426   0.656   0.518   4.492  0.3759 -0.5242  2.2008
   44CHL1   C25 4427   0.503   0.656   4.396  0.0226  0.0378 -0.6085
   44CHL1   H25 4428   0.475   0.566   4.336 -2.4779  0.5808 -0.3947
   44CHL1   C26 4429   0.372   0.721   4.438  0.7819  0.0016  0.1419
   44CHL1  H26A 4430   0.338   0.765   4.342  0.6703  0.7063  0.4976
   44CHL1  H26B 4431   0.298   0.650   4.481  0.8956  0.4554  1.0904
   44CHL1  H26C 4432   0.379   0.802   4.513  1.2586  0.2273 -0.1411
   44CHL1   C27 4433   0.594   0.743   4.313  0.1882 -0.2913 -0.0584
   44CHL1  H27A 4434   0.684   0.686   4.280 -0.4582 -0.0041 -2.5030
   44CHL1  H27B 4435   0.548   0.773   4.216 -1.7399 -1.0387  0.5765
   44CHL1  H27C 4436   0.622   0.824   4.383 -1.8623 -0.6701  1.3002
   45CHL1    C3 4437   5.613   1.505   5.599  0.0348 -0.1308 -0.7210
   45CHL1    H3 4438   5.618   1.616   5.606  0.4619 -0.0092 -2.5018
   45CHL1    O3 4439   5.579   1.456   5.728  0.2085 -0.2943 -0.3450
   45CHL1   H3' 4440   5.503   1.507   5.756  1.2326  2.5081 -2.2803
   45CHL1    C4 4441   5.500   1.453   5.508  0.0991 -0.2389  0.2812
   45CHL1   H4A 4442   5.486   1.345   5.527 -1.4448 -0.2773 -0.8265
   45CHL1   H4B 4443   5.405   1.498   5.545 -0.4332 -0.1500 -1.1302
   45CHL1    C5 4444   5.532   1.470   5.361  0.9723  0.0209 -0.3593
   45CHL1    C6 4445   5.457   1.538   5.277  0.1878  0.0359 -0.1775
   45CHL1    H6 4446   5.361   1.577   5.314 -0.5919 -2.4807  0.6435
   45CHL1    C7 4447   5.479   1.547   5.129  0.2876  0.2252  0.8025
   45CHL1   H7A 4448   5.394   1.509   5.069  2.4914 -1.4006 -1.5445
   45CHL1   H7B 4449   5.511   1.649   5.097 -0.3890  0.7368  1.7323
   45CHL1    C8 4450   5.584   1.446   5.077 -0.4710  0.4595  0.5213
   45CHL1    H8 4451   5.540   1.344   5.077  2.8207 -1.0760  0.8496
   45CHL1   C14 4452   5.615   1.487   4.938 -0.0293  0.2761 -0.4977
   45CHL1   H14 4453   5.650   1.592   4.937 -0.7683  0.5327 -0.5278
   45CHL1   C15 4454   5.494   1.484   4.833  0.6251 -0.1858  0.1054
   45CHL1  H15A 4455   5.411   1.415   4.858  1.5069 -1.4806 -0.3648
   45CHL1  H15B 4456   5.455   1.588   4.830  1.9184  0.3017 -2.0057
   45CHL1   C16 4457   5.556   1.465   4.700 -0.0470  0.4201  0.8371
   45CHL1  H16A 4458   5.512   1.380   4.645  0.0144  0.8125  0.1693
   45CHL1  H16B 4459   5.544   1.551   4.631  1.0453  0.6744  0.9469
   45CHL1   C17 4460   5.710   1.440   4.731  0.4138 -0.1636 -0.4678
   45CHL1   H17 4461   5.758   1.539   4.716  0.0558 -0.1493 -1.5969
   45CHL1   C13 4462   5.719   1.391   4.879 -0.0108 -0.0779  0.2249
   45CHL1   C18 4463   5.677   1.236   4.868 -0.0783 -0.0386  0.6900
   45CHL1  H18A 4464   5.667   1.200   4.972  0.7799 -1.0379  0.4372
   45CHL1  H18B 4465   5.573   1.220   4.832 -1.0635  2.3398  2.2213
   45CHL1  H18C 4466   5.756   1.179   4.815  2.7399  2.9787  1.3738
   45CHL1   C12 4467   5.848   1.406   4.961 -0.1416  0.4037 -0.1105
   45CHL1  H12A 4468   5.938   1.350   4.925 -1.3242 -2.0369  0.4889
   45CHL1  H12B 4469   5.876   1.513   4.970  0.3703  0.2167  0.5675
   45CHL1   C11 4470   5.829   1.369   5.113 -0.6909 -0.1043  0.4898
   45CHL1  H11A 4471   5.812   1.260   5.121  0.9938 -0.2854  2.4732
   45CHL1  H11B 4472   5.925   1.389   5.167 -0.8789 -0.1847  0.8554
   45CHL1    C9 4473   5.709   1.445   5.167  0.1102 -0.9226 -0.0828
   45CHL1    H9 4474   5.740   1.552   5.166 -0.0408 -0.8738 -1.3774
   45CHL1   C10 4475   5.671   1.409   5.313 -0.3556  0.5833 -1.3956
   45CHL1   C19 4476   5.668   1.252   5.323  0.4829  0.4440 -0.0230
   45CHL1  H19A 4477   5.606   1.209   5.243  2.0316  0.3468 -1.2157
   45CHL1  H19B 4478   5.772   1.219   5.303 -0.2745 -0.8954 -1.9343
   45CHL1  H19C 4479   5.646   1.217   5.427 -1.6295  2.3056  0.2454
   45CHL1    C1 4480   5.777   1.474   5.415 -0.4155 -0.1579  0.1454
   45CHL1   H1A 4481   5.881   1.441   5.394 -0.3224 -0.8227  1.5491
   45CHL1   H1B 4482   5.777   1.584   5.408 -0.2594 -0.2015 -0.5662
   45CHL1    C2 4483   5.753   1.446   5.561  0.7582  0.1715  0.4021
   45CHL1   H2A 4484   5.827   1.501   5.623  0.4203 -0.2202  1.1508
   45CHL1   H2B 4485   5.755   1.338   5.586  1.0237 -0.6966 -2.9003
   45CHL1   C20 4486   5.781   1.357   4.623 -0.4186  0.1844 -0.4543
   45CHL1   H20 4487   5.738   1.255   4.624 -0.4841  0.1598 -2.0866
   45CHL1   C21 4488   5.931   1.357   4.651  0.0529 -0.3408 -0.5424
   45CHL1  H21A 4489   5.973   1.306   4.740  0.9443 -0.2751 -0.9081
   45CHL1  H21B 4490   5.962   1.464   4.657 -2.1537  0.5419 -2.8605
   45CHL1  H21C 4491   5.987   1.316   4.564  2.1089  1.2424 -0.0314
   45CHL1   C22 4492   5.757   1.405   4.475 -0.0837 -0.4281  0.0013
   45CHL1  H22A 4493   5.815   1.354   4.396  0.6205  2.7028 -1.6758
   45CHL1  H22B 4494   5.651   1.389   4.443 -0.2713  0.6271  0.0487
   45CHL1   C23 4495   5.782   1.554   4.443 -0.0222 -0.0906  0.4881
   45CHL1  H23A 4496   5.716   1.620   4.503 -1.3706 -1.1232  0.1782
   45CHL1  H23B 4497   5.888   1.570   4.471  1.1032 -1.8714 -2.3367
   45CHL1   C24 4498   5.761   1.599   4.297  0.6389  0.3011  0.3969
   45CHL1  H24A 4499   5.793   1.527   4.218  1.7749 -0.3570  1.4211
   45CHL1  H24B 4500   5.653   1.620   4.283  1.3102  3.2587 -0.9769
   45CHL1   C25 4501   5.833   1.735   4.263  0.0509 -0.1282  0.3966
   45CHL1   H25 4502   5.786   1.771   4.169 -1.0109 -1.2857  0.4702
   45CHL1   C26 4503   5.804   1.846   4.367  0.3516  0.4760 -0.1210
   45CHL1  H26A 4504   5.849   1.808   4.461  2.2197  1.3302 -0.6038
   45CHL1  H26B 4505   5.848   1.946   4.345 -1.9012  1.4530 -0.4716
   45CHL1  H26C 4506   5.694   1.860   4.371  0.0303 -1.8996  2.3596
   45CHL1   C27 4507   5.980   1.716   4.253 -0.0518 -0.7284 -0.0355
   45CHL1  H27A 4508   5.996   1.649   4.166  2.3129  2.3375 -2.1641
   45CHL1  H27B 4509   6.027   1.812   4.224  0.4438 -0.5126  1.4089
   45CHL1  H27C 4510   6.023   1.671   4.345 -0.8995 -1.3913  0.0560
   46CHL1    C3 4511   0.267   2.584   5.809  0.2730 -0.2745 -0.4338
   46CHL1    H3 4512   0.251   2.693   5.791 -0.1985 -0.2516  0.1022
   46CHL1    O3 4513   0.290   2.564   5.946  0.0574 -0.4231  0.3968
   46CHL1   H3' 4514   0.332   2.477   5.949 -0.5947 -0.7156  1.6109
   46CHL1    C4 4515   0.132   2.522   5.770 -0.8803  0.4746 -0.3823
   46CHL1   H4A 4516   0.141   2.416   5.800 -0.2273  0.1480 -1.6290
   46CHL1   H4B 4517   0.055   2.568   5.835 -2.1266 -0.3670 -1.2157
   46CHL1    C5 4518   0.105   2.537   5.624  0.9321 -0.0366  0.1372
   46CHL1    C6 4519  -0.014   2.589   5.583 -0.9862  0.5445  0.2251
   46CHL1    H6 4520  -0.081   2.640   5.653 -1.7457  0.3883 -0.3697
   46CHL1    C7 4521  -0.051   2.589   5.436 -0.6108 -0.9106  0.1894
   46CHL1   H7A 4522  -0.151   2.549   5.410 -0.8110  0.6637 -1.6710
   46CHL1   H7B 4523  -0.047   2.698   5.415 -1.6957 -0.9221 -0.1402
   46CHL1    C8 4524   0.047   2.518   5.338  0.8683  0.0877  0.5685
   46CHL1    H8 4525   0.023   2.410   5.332  0.4718  0.2361 -0.7037
   46CHL1   C14 4526   0.037   2.568   5.193  0.3090  0.4745  0.3489
   46CHL1   H14 4527   0.061   2.677   5.187  1.9625  0.0788 -1.0222
   46CHL1   C15 4528  -0.106   2.564   5.120 -1.1040 -0.6791 -0.1456
   46CHL1  H15A 4529  -0.158   2.470   5.147  0.4646 -1.2036  1.2553
   46CHL1  H15B 4530  -0.171   2.650   5.146  0.4820  1.0652 -1.6168
   46CHL1   C16 4531  -0.070   2.561   4.973 -0.9764 -0.0877  0.0011
   46CHL1  H16A 4532  -0.094   2.461   4.932  1.6348 -0.5237 -0.6241
   46CHL1  H16B 4533  -0.128   2.632   4.910  1.4171  0.9005 -1.2069
   46CHL1   C17 4534   0.088   2.575   4.959  0.1995  0.1982 -0.7786
   46CHL1   H17 4535   0.106   2.685   4.962 -0.4330  0.2864  0.1181
   46CHL1   C13 4536   0.137   2.507   5.089  0.4448  0.9727  0.5222
   46CHL1   C18 4537   0.109   2.353   5.079  0.2399 -0.3180  0.2702
   46CHL1  H18A 4538  -0.000   2.332   5.074  0.3753 -0.8353 -0.5995
   46CHL1  H18B 4539   0.162   2.310   4.991 -0.5070 -2.6516  0.9105
   46CHL1  H18C 4540   0.150   2.297   5.165  2.7269  1.8916  0.6646
   46CHL1   C12 4541   0.279   2.540   5.146  0.4992  0.5742 -0.3866
   46CHL1  H12A 4542   0.350   2.477   5.089  0.4918 -1.1865  1.4284
   46CHL1  H12B 4543   0.308   2.648   5.152 -0.1924  0.8190 -1.2281
   46CHL1   C11 4544   0.294   2.477   5.285 -0.0582 -0.1368  0.8110
   46CHL1  H11A 4545   0.310   2.367   5.283 -0.3385 -0.3065 -4.2849
   46CHL1  H11B 4546   0.394   2.515   5.314  0.0712  1.2270 -1.2625
   46CHL1    C9 4547   0.191   2.539   5.384 -0.6077  1.0216  0.2993
   46CHL1    H9 4548   0.217   2.647   5.378 -0.3474  0.9144 -0.7438
   46CHL1   C10 4549   0.218   2.491   5.528 -0.3156 -0.4033 -0.5221
   46CHL1   C19 4550   0.237   2.335   5.538  0.0587 -0.0922  0.6023
   46CHL1  H19A 4551   0.335   2.313   5.491 -0.0827  0.0643  0.2260
   46CHL1  H19B 4552   0.237   2.300   5.643 -0.1248  0.1790  0.6926
   46CHL1  H19C 4553   0.155   2.277   5.490  0.7557 -0.6419  0.0443
   46CHL1    C1 4554   0.355   2.548   5.580  0.0621 -0.5690  0.0983
   46CHL1   H1A 4555   0.430   2.489   5.524  0.1676 -0.0669 -0.3046
   46CHL1   H1B 4556   0.362   2.656   5.553 -1.3633 -0.3742  0.4563
   46CHL1    C2 4557   0.383   2.534   5.725 -0.0132 -0.8281  0.4397
   46CHL1   H2A 4558   0.473   2.591   5.755 -0.3970 -0.9483  1.9438
   46CHL1   H2B 4559   0.403   2.431   5.762  0.4303  0.2519  3.5639
   46CHL1   C20 4560   0.151   2.525   4.827 -1.3455  0.2849 -0.3553
   46CHL1   H20 4561   0.150   2.414   4.825 -1.0691  0.2848 -0.5419
   46CHL1   C21 4562   0.302   2.576   4.816  0.6637  0.1439 -1.0339
   46CHL1  H21A 4563   0.313   2.677   4.861 -0.8398 -0.1372  0.0065
   46CHL1  H21B 4564   0.332   2.581   4.709  0.0720  3.4365 -1.1657
   46CHL1  H21C 4565   0.371   2.513   4.876  0.2624  0.5998 -0.0837
   46CHL1   C22 4566   0.073   2.556   4.694 -0.5339  0.7069  0.6081
   46CHL1  H22A 4567   0.132   2.519   4.608 -1.0918 -0.0164  0.5278
   46CHL1  H22B 4568  -0.021   2.497   4.693 -0.9237  1.1935 -2.9142
   46CHL1   C23 4569   0.060   2.699   4.670 -0.2498  0.3085  0.1432
   46CHL1  H23A 4570   0.030   2.756   4.760 -0.1690 -1.0535  1.0541
   46CHL1  H23B 4571   0.161   2.731   4.635 -0.7711 -0.3618 -2.1385
   46CHL1   C24 4572  -0.041   2.742   4.565 -0.7018 -0.2081 -0.7169
   46CHL1  H24A 4573  -0.015   2.687   4.471  0.6445  2.3996 -1.9682
   46CHL1  H24B 4574  -0.133   2.711   4.618 -0.9598 -1.0296 -1.6002
   46CHL1   C25 4575  -0.060   2.890   4.536 -0.2728 -0.1478  0.2065
   46CHL1   H25 4576  -0.087   2.950   4.625 -2.5423  0.6176 -0.9342
   46CHL1   C26 4577   0.058   2.961   4.477  0.1621 -0.1041 -0.0677
   46CHL1  H26A 4578   0.139   2.962   4.554 -1.2219  0.7003  1.4327
   46CHL1  H26B 4579   0.098   2.919   4.382 -0.8946  0.0780 -0.6112
   46CHL1  H26C 4580   0.029   3.066   4.457 -0.5168 -0.0574  1.0973
   46CHL1   C27 4581  -0.180   2.905   4.441  0.1768 -0.1924  0.4256
   46CHL1  H27A 4582  -0.265   2.842   4.475  0.2857 -0.4809  0.1751
   46CHL1  H27B 4583  -0.203   3.012   4.427  1.9643  0.2076  0.2662
   46CHL1  H27C 4584  -0.156   2.863   4.341 -0.0302 -0.3187  0.4294
   47CHL1    C3 4585   3.148   0.805   5.894  0.1044 -0.7781  0.6707
   47CHL1    H3 4586   3.070   0.870   5.941  1.2065 -0.5635  2.2817
   47CHL1    O3 4587   3.248   0.799   5.997  0.1421  0.0845 -0.0656
   47CHL1   H3' 4588   3.322   0.743   5.971 -1.5631 -2.2099 -0.2538
   47CHL1    C4 4589   3.102   0.659   5.862 -0.5201 -0.2401  0.1590
   47CHL1   H4A 4590   3.200   0.610   5.845  0.3187  1.8270 -1.3371
   47CHL1   H4B 4591   3.049   0.616   5.950 -4.4462  1.2453 -1.2531
   47CHL1    C5 4592   3.025   0.649   5.731 -0.4603  1.1070 -0.1957
   47CHL1    C6 4593   2.906   0.586   5.743 -0.4694 -0.3194  0.4028
   47CHL1    H6 4594   2.874   0.569   5.847 -0.1609 -1.1690  0.3690
   47CHL1    C7 4595   2.808   0.572   5.632  0.6828  0.4966 -0.2047
   47CHL1   H7A 4596   2.763   0.470   5.635  0.1748  0.7162 -0.3341
   47CHL1   H7B 4597   2.726   0.646   5.643  0.7892  1.1220 -2.9722
   47CHL1    C8 4598   2.884   0.586   5.495 -0.0137  0.5087  0.0083
   47CHL1    H8 4599   2.949   0.499   5.474  1.8525  1.8015  0.1393
   47CHL1   C14 4600   2.771   0.598   5.393 -0.3432  0.3692 -0.1040
   47CHL1   H14 4601   2.717   0.691   5.423 -0.6428  0.3616 -0.6078
   47CHL1   C15 4602   2.658   0.489   5.378 -0.2940  0.0191  0.3849
   47CHL1  H15A 4603   2.695   0.387   5.399  1.4547  0.5091 -0.1232
   47CHL1  H15B 4604   2.584   0.514   5.458 -0.2858  1.3580  0.0111
   47CHL1   C16 4605   2.602   0.517   5.241  0.2445  0.1833 -0.3978
   47CHL1  H16A 4606   2.589   0.416   5.196 -0.0801 -1.7838  3.6999
   47CHL1  H16B 4607   2.500   0.559   5.250  0.4323  1.0654 -2.0242
   47CHL1   C17 4608   2.685   0.626   5.170 -0.6966  0.2975 -0.1614
   47CHL1   H17 4609   2.639   0.726   5.185 -0.2476  0.5939 -0.7119
   47CHL1   C13 4610   2.817   0.626   5.256  0.2016  0.5138  0.8024
   47CHL1   C18 4611   2.899   0.510   5.209 -0.3799 -0.6311 -0.2431
   47CHL1  H18A 4612   2.850   0.411   5.214 -0.6439 -0.4896 -0.0025
   47CHL1  H18B 4613   2.941   0.523   5.107  2.4615 -0.7952  0.8048
   47CHL1  H18C 4614   2.992   0.503   5.269 -0.3956  2.0158  0.2084
   47CHL1   C12 4615   2.905   0.756   5.263 -0.2028  1.0339 -0.9370
   47CHL1  H12A 4616   2.924   0.782   5.157  2.2066 -0.5540 -0.9536
   47CHL1  H12B 4617   2.840   0.837   5.303 -0.0542  1.0330 -0.6945
   47CHL1   C11 4618   3.029   0.756   5.359 -0.2325  0.4727 -0.1977
   47CHL1  H11A 4619   3.101   0.677   5.325 -1.0718 -0.3382 -0.1337
   47CHL1  H11B 4620   3.077   0.856   5.353  0.1214  0.2480 -1.4913
   47CHL1    C9 4621   2.975   0.709   5.495  0.5416 -1.0321  0.9356
   47CHL1    H9 4622   2.906   0.793   5.521  0.4714 -0.6801 -0.3314
   47CHL1   C10 4623   3.086   0.712   5.606 -0.2239  0.2058  0.5110
   47CHL1   C19 4624   3.199   0.623   5.553 -0.6080 -0.8108 -0.7619
   47CHL1  H19A 4625   3.160   0.520   5.541 -3.5298  0.1280 -0.1654
   47CHL1  H19B 4626   3.250   0.666   5.464  1.3252  2.1905  1.5730
   47CHL1  H19C 4627   3.277   0.619   5.631 -1.8739  0.7296  0.6740
   47CHL1    C1 4628   3.136   0.860   5.639 -0.9873  0.5534  0.0303
   47CHL1   H1A 4629   3.200   0.877   5.550 -1.4836 -0.2761 -0.5026
   47CHL1   H1B 4630   3.048   0.928   5.635 -0.7929  0.7613 -1.4237
   47CHL1    C2 4631   3.214   0.881   5.769 -0.2454  0.1282 -0.3957
   47CHL1   H2A 4632   3.220   0.986   5.805 -0.7816 -0.0697  0.3024
   47CHL1   H2B 4633   3.316   0.837   5.767 -0.8351 -1.2946 -0.3398
   47CHL1   C20 4634   2.683   0.603   5.017  0.6668 -0.4351 -0.5233
   47CHL1   H20 4635   2.730   0.503   5.008  1.0566 -0.4184  1.0010
   47CHL1   C21 4636   2.760   0.715   4.950  0.1121  0.0555  0.2177
   47CHL1  H21A 4637   2.745   0.710   4.840  0.2904  0.4529  0.1757
   47CHL1  H21B 4638   2.870   0.705   4.962  0.4247 -1.1621 -2.6025
   47CHL1  H21C 4639   2.721   0.812   4.987 -1.2436 -0.5970  0.5509
   47CHL1   C22 4640   2.537   0.580   4.961  0.3809 -0.2344 -0.3441
   47CHL1  H22A 4641   2.498   0.494   5.019  1.0087 -0.3471 -0.0729
   47CHL1  H22B 4642   2.474   0.668   4.985  1.0859  0.0984  0.3586
   47CHL1   C23 4643   2.524   0.556   4.807 -0.3810  0.1921  0.1016
   47CHL1  H23A 4644   2.418   0.527   4.788 -0.6687  1.1796  0.0941
   47CHL1  H23B 4645   2.557   0.646   4.751  1.7133 -1.7260 -1.9595
   47CHL1   C24 4646   2.620   0.451   4.761 -0.7403  0.1333 -0.0045
   47CHL1  H24A 4647   2.720   0.499   4.766 -0.6799  0.0022  0.0577
   47CHL1  H24B 4648   2.615   0.360   4.825 -1.9485 -0.7587 -1.3101
   47CHL1   C25 4649   2.586   0.404   4.616 -0.6157 -0.2426 -0.1169
   47CHL1   H25 4650   2.578   0.497   4.556 -0.1178 -0.8808 -1.2106
   47CHL1   C26 4651   2.720   0.349   4.549  0.8452 -0.4071 -0.2410
   47CHL1  H26A 4652   2.705   0.344   4.439  0.9317 -1.9831 -0.1977
   47CHL1  H26B 4653   2.803   0.421   4.564  1.1774  0.4314 -4.7249
   47CHL1  H26C 4654   2.732   0.243   4.580  0.9515 -0.6611 -1.1107
   47CHL1   C27 4655   2.465   0.315   4.602 -0.6486  0.0388 -0.2663
   47CHL1  H27A 4656   2.476   0.228   4.669 -1.7925 -0.3210 -0.5357
   47CHL1  H27B 4657   2.368   0.368   4.612 -1.7213 -1.6615 -1.1904
   47CHL1  H27C 4658   2.477   0.264   4.504 -0.0105 -0.3197 -0.0072
   48CHL1    C3 4659   6.792   3.558   6.137 -0.1746 -0.2543 -0.2501
   48CHL1    H3 4660   6.844   3.652   6.164  3.2924 -1.7454 -1.1719
   48CHL1    O3 4661   6.820   3.479   6.248 -0.1822 -0.3398  0.1388
   48CHL1   H3' 4662   6.820   3.387   6.220  2.4917 -0.7909  1.3261
   48CHL1    C4 4663   6.646   3.594   6.125 -0.2642 -0.4791  0.1119
   48CHL1   H4A 4664   6.591   3.498   6.114 -0.9355  0.1332 -2.8759
   48CHL1   H4B 4665   6.612   3.648   6.216 -0.0486 -0.7659  0.3639
   48CHL1    C5 4666   6.622   3.676   5.998  0.1020  0.4309 -0.0026
   48CHL1    C6 4667   6.565   3.801   6.019  0.8126 -0.2077  0.8615
   48CHL1    H6 4668   6.523   3.838   6.114  1.2503  2.4118  0.1140
   48CHL1    C7 4669   6.541   3.890   5.895  0.0095  0.4208  0.1199
   48CHL1   H7A 4670   6.443   3.941   5.898 -0.6581 -0.7848 -0.6270
   48CHL1   H7B 4671   6.610   3.977   5.891 -0.5641  0.8397 -0.9866
   48CHL1    C8 4672   6.562   3.824   5.755  0.2664  0.7628 -0.1102
   48CHL1    H8 4673   6.477   3.759   5.728  0.8668  0.1898 -0.6661
   48CHL1   C14 4674   6.561   3.933   5.648 -0.4364  0.2029  0.4807
   48CHL1   H14 4675   6.649   3.999   5.664 -1.4577  1.9016 -0.6096
   48CHL1   C15 4676   6.433   4.028   5.642 -0.2169  0.6270 -0.1195
   48CHL1  H15A 4677   6.340   3.971   5.662  0.1995 -0.2347 -0.6241
   48CHL1  H15B 4678   6.431   4.115   5.712 -0.0622  2.3880 -2.2214
   48CHL1   C16 4679   6.440   4.076   5.505  0.6791 -0.0287  0.5213
   48CHL1  H16A 4680   6.341   4.057   5.458  0.4953  1.9157  0.0284
   48CHL1  H16B 4681   6.449   4.187   5.499  2.2229 -0.1600 -0.2359
   48CHL1   C17 4682   6.561   4.015   5.427  0.6132  0.8790 -0.3294
   48CHL1   H17 4683   6.649   4.076   5.457  0.4546  0.0200  2.0202
   48CHL1   C13 4684   6.584   3.878   5.507  0.1089 -0.4074  0.5036
   48CHL1   C18 4685   6.479   3.779   5.454  0.0856 -0.8315 -0.1295
   48CHL1  H18A 4686   6.491   3.755   5.346  1.8290 -0.5499 -0.0408
   48CHL1  H18B 4687   6.476   3.687   5.516 -0.2561 -1.5694 -1.2129
   48CHL1  H18C 4688   6.373   3.809   5.454  0.6353  1.3258 -1.5401
   48CHL1   C12 4689   6.722   3.813   5.503 -0.1592 -0.1049 -0.2225
   48CHL1  H12A 4690   6.744   3.760   5.408  2.5624  0.0865  0.2143
   48CHL1  H12B 4691   6.799   3.893   5.508 -1.2991  0.9460  1.7754
   48CHL1   C11 4692   6.727   3.696   5.612  1.2241  0.2078  0.7323
   48CHL1  H11A 4693   6.661   3.613   5.579  2.6197 -0.6163 -0.1305
   48CHL1  H11B 4694   6.828   3.650   5.614  1.0748 -0.2560 -0.8571
   48CHL1    C9 4695   6.687   3.737   5.754 -0.5484 -0.0826 -0.0168
   48CHL1    H9 4696   6.771   3.806   5.776  0.6072 -1.0627 -1.2145
   48CHL1   C10 4697   6.683   3.627   5.867  0.1653 -0.0312  0.8028
   48CHL1   C19 4698   6.584   3.518   5.826 -0.1951  0.2867  0.0788
   48CHL1  H19A 4699   6.620   3.480   5.728  1.4978  0.8275  0.4627
   48CHL1  H19B 4700   6.569   3.440   5.903 -2.7203  0.0278 -0.5892
   48CHL1  H19C 4701   6.487   3.570   5.809 -0.1087  0.2147 -0.6761
   48CHL1    C1 4702   6.832   3.582   5.888 -0.1942 -1.3702  0.0751
   48CHL1   H1A 4703   6.874   3.537   5.796 -0.3902 -0.0104 -0.7017
   48CHL1   H1B 4704   6.886   3.678   5.903  0.2081 -1.7847  1.4636
   48CHL1    C2 4705   6.858   3.494   6.012  0.6735 -0.4047 -0.2942
   48CHL1   H2A 4706   6.967   3.471   6.016  0.7642  0.1377  0.5420
   48CHL1   H2B 4707   6.806   3.398   5.994 -1.8228  0.9139 -0.5591
   48CHL1   C20 4708   6.564   4.010   5.272 -0.1103  0.4785 -0.2183
   48CHL1   H20 4709   6.564   3.906   5.233 -1.7816  0.3864 -0.0558
   48CHL1   C21 4710   6.696   4.079   5.224 -0.4686  0.1428 -0.4788
   48CHL1  H21A 4711   6.702   4.182   5.266  1.6691 -0.6081  1.2026
   48CHL1  H21B 4712   6.774   4.014   5.268 -2.0943 -0.2480  2.0379
   48CHL1  H21C 4713   6.690   4.084   5.113 -1.0691 -1.2970 -0.5363
   48CHL1   C22 4714   6.440   4.081   5.218 -0.1393 -0.1304  0.1628
   48CHL1  H22A 4715   6.353   4.015   5.240 -0.4061 -0.5414 -1.9092
   48CHL1  H22B 4716   6.422   4.177   5.269 -2.1183  0.3887 -1.3578
   48CHL1   C23 4717   6.439   4.096   5.066  0.6665 -0.0671  0.0101
   48CHL1  H23A 4718   6.501   4.182   5.031  0.3071 -0.4451 -1.6431
   48CHL1  H23B 4719   6.487   4.007   5.020  1.1182  0.8532 -1.4010
   48CHL1   C24 4720   6.299   4.122   5.011  0.0139  0.4445  0.0631
   48CHL1  H24A 4721   6.231   4.038   5.039  1.2252 -0.9237 -0.9189
   48CHL1  H24B 4722   6.263   4.216   5.057 -0.5658 -0.5597  1.7633
   48CHL1   C25 4723   6.298   4.119   4.850 -0.5041 -0.1224 -0.1295
   48CHL1   H25 4724   6.194   4.123   4.810 -0.4705  1.5472 -0.1099
   48CHL1   C26 4725   6.372   4.237   4.783  0.6950 -0.1305  0.4190
   48CHL1  H26A 4726   6.474   4.243   4.827  0.5437 -1.9287  1.1075
   48CHL1  H26B 4727   6.382   4.217   4.675 -0.8031 -0.5406  0.3321
   48CHL1  H26C 4728   6.310   4.329   4.790  2.4391  1.3623 -2.0405
   48CHL1   C27 4729   6.355   3.991   4.798  0.7621  0.5453  0.1072
   48CHL1  H27A 4730   6.461   3.965   4.817  0.5357  0.0224  0.6913
   48CHL1  H27B 4731   6.295   3.904   4.833  1.3503  0.1292  0.0911
   48CHL1  H27C 4732   6.355   3.978   4.688 -0.4896 -1.0008  0.2501
   49CHL1    C3 4733   6.512   0.548   2.452  1.0560 -0.9989  0.2824
   49CHL1    H3 4734   6.577   0.459   2.464  2.8225 -0.2752 -2.7990
   49CHL1    O3 4735   6.545   0.598   2.326 -0.1472 -0.4900  0.2779
   49CHL1   H3' 4736   6.487   0.673   2.310  2.6023  1.7728  0.1800
   49CHL1    C4 4737   6.358   0.532   2.457  0.2061  0.0640  0.1288
   49CHL1   H4A 4738   6.312   0.632   2.439 -0.2569 -0.3104 -0.8402
   49CHL1   H4B 4739   6.313   0.478   2.370  0.1688 -0.0678  0.2304
   49CHL1    C5 4740   6.323   0.472   2.597 -0.5844 -0.3438  0.4392
   49CHL1    C6 4741   6.257   0.355   2.604  0.7792  0.1990  0.4123
   49CHL1    H6 4742   6.224   0.304   2.512 -0.0898  1.0183  0.2516
   49CHL1    C7 4743   6.224   0.290   2.734 -0.1771  0.0221  0.0030
   49CHL1   H7A 4744   6.120   0.253   2.724 -0.5531  1.0738 -0.0870
   49CHL1   H7B 4745   6.292   0.202   2.737 -2.9612 -2.2959 -0.5361
   49CHL1    C8 4746   6.233   0.384   2.856  0.2379  0.0504 -0.0281
   49CHL1    H8 4747   6.142   0.447   2.848 -0.0799 -0.1227  1.7965
   49CHL1   C14 4748   6.221   0.315   2.987 -0.2724  0.4603 -1.3599
   49CHL1   H14 4749   6.303   0.241   2.996 -1.3940 -0.6550  0.1417
   49CHL1   C15 4750   6.099   0.224   3.007 -0.3515 -0.5500  0.4846
   49CHL1  H15A 4751   6.010   0.285   2.980  1.5506  3.1808  1.9181
   49CHL1  H15B 4752   6.093   0.133   2.944 -0.5549  0.4658 -1.0271
   49CHL1   C16 4753   6.098   0.204   3.156  0.3496  0.0395  0.5723
   49CHL1  H16A 4754   5.993   0.201   3.189  0.3753  0.9589  0.7599
   49CHL1  H16B 4755   6.129   0.098   3.170  0.3362  0.0588  0.7463
   49CHL1   C17 4756   6.194   0.309   3.224 -0.3695 -0.5172  0.5958
   49CHL1   H17 4757   6.288   0.255   3.248 -0.8971 -2.3147 -1.0859
   49CHL1   C13 4758   6.229   0.408   3.107  0.0225 -0.1102 -0.6868
   49CHL1   C18 4759   6.109   0.509   3.110  0.2438 -0.5238  0.2000
   49CHL1  H18A 4760   6.119   0.575   3.021  2.9800 -1.7909 -0.5470
   49CHL1  H18B 4761   6.008   0.465   3.121  1.0456 -2.0459  2.0343
   49CHL1  H18C 4762   6.125   0.575   3.197 -2.6011  2.7541 -1.5255
   49CHL1   C12 4763   6.370   0.482   3.109  1.2906  0.1779 -0.3249
   49CHL1  H12A 4764   6.377   0.561   3.187 -1.0317  0.8251 -0.6892
   49CHL1  H12B 4765   6.447   0.403   3.122  0.8396 -0.3275 -0.6629
   49CHL1   C11 4766   6.384   0.561   2.974  0.2806  0.5135 -0.3922
   49CHL1  H11A 4767   6.302   0.636   2.967 -0.8973 -0.6499  0.4684
   49CHL1  H11B 4768   6.484   0.609   2.974  0.7435 -0.3930  0.7701
   49CHL1    C9 4769   6.364   0.474   2.846 -0.0227  1.3346 -0.6331
   49CHL1    H9 4770   6.444   0.397   2.851 -1.6141 -0.3007  1.5909
   49CHL1   C10 4771   6.377   0.552   2.713 -0.5199  0.0560  0.2204
   49CHL1   C19 4772   6.287   0.682   2.708  0.1898  0.0920 -0.1007
   49CHL1  H19A 4773   6.295   0.750   2.796 -0.4138 -0.4265  0.3637
   49CHL1  H19B 4774   6.319   0.737   2.617  0.5324  0.1098  0.0291
   49CHL1  H19C 4775   6.183   0.642   2.704 -0.6898  1.9807  1.7481
   49CHL1    C1 4776   6.531   0.606   2.704  0.1302 -0.1139  0.1314
   49CHL1   H1A 4777   6.552   0.694   2.770  4.0718 -0.3085 -0.6325
   49CHL1   H1B 4778   6.609   0.530   2.724  0.8497  0.4325 -0.5307
   49CHL1    C2 4779   6.561   0.651   2.558  0.5254  0.1344 -0.4500
   49CHL1   H2A 4780   6.671   0.662   2.543  0.5761 -1.8337 -1.8490
   49CHL1   H2B 4781   6.508   0.747   2.538 -1.5664 -0.6179  1.0994
   49CHL1   C20 4782   6.142   0.363   3.357 -0.1732  0.0146  0.0169
   49CHL1   H20 4783   6.046   0.419   3.352  0.6888  1.6622  1.1721
   49CHL1   C21 4784   6.246   0.453   3.430 -0.0758 -0.7198 -0.1217
   49CHL1  H21A 4785   6.241   0.549   3.375 -0.5288 -0.1196  0.9393
   49CHL1  H21B 4786   6.345   0.405   3.421  0.2953  0.2767 -1.7597
   49CHL1  H21C 4787   6.217   0.470   3.536 -2.1372 -2.7450 -0.2800
   49CHL1   C22 4788   6.099   0.249   3.459  0.0533  0.2113  0.4960
   49CHL1  H22A 4789   6.051   0.160   3.414  2.0569  0.5041 -2.5374
   49CHL1  H22B 4790   6.191   0.215   3.512 -0.4117 -1.2524  0.4116
   49CHL1   C23 4791   6.001   0.296   3.568  0.1110 -0.3805  0.5470
   49CHL1  H23A 4792   6.040   0.394   3.602  0.8192  0.1016 -1.5007
   49CHL1  H23B 4793   5.902   0.313   3.522  0.2977 -1.1462 -0.1719
   49CHL1   C24 4794   5.985   0.206   3.694 -0.3334 -0.1827  0.3752
   49CHL1  H24A 4795   5.980   0.098   3.666  1.6624 -0.4648  0.9565
   49CHL1  H24B 4796   6.064   0.222   3.771 -0.8516  0.8287  0.7171
   49CHL1   C25 4797   5.849   0.237   3.765 -0.0055 -0.5491 -0.1801
   49CHL1   H25 4798   5.769   0.257   3.691 -1.6969 -1.2833  1.3801
   49CHL1   C26 4799   5.811   0.109   3.840  0.0848  0.6513 -0.0318
   49CHL1  H26A 4800   5.887   0.094   3.920  0.2488  3.7922  0.5290
   49CHL1  H26B 4801   5.715   0.121   3.894 -0.2331  0.3829 -0.5301
   49CHL1  H26C 4802   5.805   0.024   3.769 -3.0235 -0.2198  1.1379
   49CHL1   C27 4803   5.852   0.353   3.865  0.4582 -0.3318 -0.0316
   49CHL1  H27A 4804   5.747   0.369   3.897  0.2678 -1.3180 -0.1418
   49CHL1  H27B 4805   5.925   0.335   3.947  0.9000  0.4819 -0.2266
   49CHL1  H27C 4806   5.886   0.444   3.810  2.0182 -0.9130 -0.0904
   50CHL1    C3 4807   6.334   5.878   2.739  0.2175  0.1896  0.5615
   50CHL1    H3 4808   6.309   5.974   2.789 -1.2146 -0.2519  0.7222
   50CHL1    O3 4809   6.377   5.904   2.607 -0.3861 -0.3752  0.1876
   50CHL1   H3' 4810   6.326   5.983   2.585  3.4405  1.9799 -1.2238
   50CHL1    C4 4811   6.450   5.812   2.820 -0.1344 -0.0696  0.0109
   50CHL1   H4A 4812   6.481   5.718   2.770 -2.1433  0.0159 -1.5459
   50CHL1   H4B 4813   6.536   5.882   2.821 -1.2981  1.4472  1.2669
   50CHL1    C5 4814   6.394   5.781   2.961  0.1506 -0.7526 -0.1094
   50CHL1    C6 4815   6.452   5.839   3.067 -0.0700  0.2399 -0.1732
   50CHL1    H6 4816   6.552   5.880   3.048  0.5439 -0.9540  0.3857
   50CHL1    C7 4817   6.395   5.821   3.207 -0.4070 -0.3749  0.6310
   50CHL1   H7A 4818   6.479   5.813   3.280 -1.0237 -0.0763  1.3928
   50CHL1   H7B 4819   6.346   5.916   3.237  0.5665 -0.3141  2.1824
   50CHL1    C8 4820   6.299   5.704   3.221 -0.4067 -0.4020  0.2785
   50CHL1    H8 4821   6.354   5.608   3.224 -1.2555 -0.8963  0.2970
   50CHL1   C14 4822   6.220   5.713   3.353  0.0612  0.2467 -0.0095
   50CHL1   H14 4823   6.157   5.804   3.355 -1.8552 -1.0205  1.2456
   50CHL1   C15 4824   6.303   5.721   3.481  0.1329 -0.3641  0.2953
   50CHL1  H15A 4825   6.395   5.661   3.464  0.2134 -0.3792  0.7611
   50CHL1  H15B 4826   6.318   5.830   3.500 -0.0271 -0.2659 -0.1302
   50CHL1   C16 4827   6.215   5.658   3.589 -0.5631 -0.6487 -0.2139
   50CHL1  H16A 4828   6.260   5.579   3.653  2.6939 -0.2176 -1.8027
   50CHL1  H16B 4829   6.182   5.739   3.657  2.1134 -0.6264  1.1963
   50CHL1   C17 4830   6.082   5.619   3.523 -0.1370 -0.1252  0.4072
   50CHL1   H17 4831   6.011   5.704   3.528 -0.5475 -0.4744  0.5966
   50CHL1   C13 4832   6.120   5.600   3.376 -0.4185  0.8095  0.0869
   50CHL1   C18 4833   6.189   5.464   3.368 -0.1492  0.2356 -0.0368
   50CHL1  H18A 4834   6.246   5.440   3.276  0.6230  1.5458  0.0656
   50CHL1  H18B 4835   6.257   5.452   3.456  1.5690 -0.1686 -1.3637
   50CHL1  H18C 4836   6.104   5.395   3.388 -1.6150  1.8298 -0.5191
   50CHL1   C12 4837   6.007   5.612   3.269  0.3356 -0.4462 -0.4166
   50CHL1  H12A 4838   5.923   5.541   3.286  1.2674 -1.5222 -0.1758
   50CHL1  H12B 4839   5.956   5.710   3.283 -0.9396 -1.0155 -0.9111
   50CHL1   C11 4840   6.074   5.601   3.131 -0.6842  0.3852  0.0161
   50CHL1  H11A 4841   6.123   5.502   3.127  0.1898  0.7282  1.4861
   50CHL1  H11B 4842   5.990   5.603   3.058 -1.3305 -1.8607  0.6431
   50CHL1    C9 4843   6.193   5.704   3.106  0.3559  0.2888 -0.4432
   50CHL1    H9 4844   6.139   5.801   3.116  0.6870  0.2864  2.0481
   50CHL1   C10 4845   6.258   5.704   2.969 -0.2397 -0.8742 -0.5692
   50CHL1   C19 4846   6.312   5.562   2.937 -0.8257  0.1023 -0.3769
   50CHL1  H19A 4847   6.356   5.559   2.835 -0.0198  0.5637 -0.0424
   50CHL1  H19B 4848   6.387   5.524   3.008  1.5340  2.7931 -1.2447
   50CHL1  H19C 4849   6.225   5.493   2.928  0.8741 -2.2942  0.5600
   50CHL1    C1 4850   6.158   5.754   2.865 -0.8847  0.4803  0.1304
   50CHL1   H1A 4851   6.069   5.688   2.855 -0.7232  0.1285  0.9712
   50CHL1   H1B 4852   6.107   5.839   2.914 -2.6031 -1.1947  1.4050
   50CHL1    C2 4853   6.220   5.775   2.731  0.2020 -0.0627  0.8701
   50CHL1   H2A 4854   6.151   5.824   2.658  0.1405 -1.3601  0.0326
   50CHL1   H2B 4855   6.251   5.677   2.689 -2.2107 -0.7043  0.4327
   50CHL1   C20 4856   6.006   5.502   3.598 -0.0320 -0.0978 -0.0533
   50CHL1   H20 4857   6.065   5.409   3.591 -0.1039 -0.0330 -3.0004
   50CHL1   C21 4858   5.869   5.477   3.534 -0.1179 -0.3803 -0.2790
   50CHL1  H21A 4859   5.871   5.414   3.442  1.9619 -0.4868 -0.1978
   50CHL1  H21B 4860   5.810   5.570   3.518  1.8443  1.0598  0.4296
   50CHL1  H21C 4861   5.809   5.415   3.603 -1.6657 -1.2198 -2.2573
   50CHL1   C22 4862   5.992   5.538   3.750  0.0356  0.5550  0.6708
   50CHL1  H22A 4863   6.092   5.566   3.789  1.1960 -1.6893 -0.4479
   50CHL1  H22B 4864   5.934   5.632   3.753 -0.0191  0.5516 -0.0358
   50CHL1   C23 4865   5.954   5.425   3.839 -0.0519 -0.0286  0.0679
   50CHL1  H23A 4866   5.867   5.374   3.793  0.5489 -1.7171  0.7367
   50CHL1  H23B 4867   6.045   5.365   3.820  0.5076  0.9454 -0.4167
   50CHL1   C24 4868   5.911   5.476   3.982  1.1410  0.3669 -0.1318
   50CHL1  H24A 4869   5.992   5.512   4.050 -0.7508  1.8229  1.4905
   50CHL1  H24B 4870   5.849   5.566   3.960 -0.2814 -0.1335  1.5469
   50CHL1   C25 4871   5.821   5.369   4.060  0.0677 -0.0640  0.5554
   50CHL1   H25 4872   5.739   5.343   3.989  0.8149 -0.4981 -0.1688
   50CHL1   C26 4873   5.904   5.231   4.078  0.9241 -0.0154 -0.2373
   50CHL1  H26A 4874   5.956   5.235   4.176  0.0937  0.4184  0.1967
   50CHL1  H26B 4875   5.826   5.151   4.073 -0.6527  1.5063 -1.9651
   50CHL1  H26C 4876   5.979   5.209   3.999  1.0111 -0.3332 -0.0652
   50CHL1   C27 4877   5.772   5.429   4.195  0.1910  0.1026 -0.1147
   50CHL1  H27A 4878   5.861   5.427   4.262  0.8418 -0.5479 -0.9683
   50CHL1  H27B 4879   5.746   5.534   4.170 -2.4961 -0.9116 -2.0412
   50CHL1  H27C 4880   5.687   5.368   4.232 -0.9398 -0.1896 -2.9245
   51CHL1    C3 4881   6.853   4.608   2.695  0.1079  0.6213 -0.2595
   51CHL1    H3 4882   6.767   4.548   2.731  1.2005 -0.4856  0.5845
   51CHL1    O3 4883   6.864   4.611   2.554  0.1530 -0.1842 -0.5491
   51CHL1   H3' 4884   6.929   4.680   2.539 -0.3336  0.4687  0.2842
   51CHL1    C4 4885   6.858   4.748   2.759  0.2140  0.0123  0.1305
   51CHL1   H4A 4886   6.951   4.801   2.730  0.2292  0.0102  0.1753
   51CHL1   H4B 4887   6.784   4.818   2.713 -0.0926  0.9570  1.9614
   51CHL1    C5 4888   6.840   4.737   2.904  0.2500 -0.3358  0.1227
   51CHL1    C6 4889   6.725   4.784   2.961 -0.0435 -0.3278 -0.1018
   51CHL1    H6 4890   6.655   4.829   2.889 -1.8485 -2.3439  0.2769
   51CHL1    C7 4891   6.692   4.784   3.111 -0.0607 -0.2269  0.3973
   51CHL1   H7A 4892   6.657   4.889   3.125 -0.1581 -0.1100 -0.6283
   51CHL1   H7B 4893   6.604   4.718   3.124  0.1414 -0.7172 -0.6310
   51CHL1    C8 4894   6.816   4.737   3.191 -0.2620 -0.0848  0.1815
   51CHL1    H8 4895   6.881   4.827   3.201  0.6802 -1.0088  4.5079
   51CHL1   C14 4896   6.783   4.693   3.331 -0.5825 -0.6830 -0.0492
   51CHL1   H14 4897   6.725   4.599   3.315 -0.6423 -0.4748 -1.1191
   51CHL1   C15 4898   6.686   4.780   3.413 -0.3286 -0.5362 -0.1848
   51CHL1  H15A 4899   6.726   4.884   3.409  1.4599 -1.2184 -2.3259
   51CHL1  H15B 4900   6.582   4.778   3.374  0.4247 -0.4685 -2.3262
   51CHL1   C16 4901   6.706   4.723   3.552  0.0936  0.0223  0.6711
   51CHL1  H16A 4902   6.744   4.808   3.613  2.0504  2.5014 -3.5196
   51CHL1  H16B 4903   6.611   4.672   3.580 -1.0125  1.2922 -0.6144
   51CHL1   C17 4904   6.822   4.615   3.545 -0.1500  0.0458  0.0491
   51CHL1   H17 4905   6.761   4.527   3.518 -2.3377  1.4248  0.2662
   51CHL1   C13 4906   6.899   4.648   3.417 -1.1639  0.6348  0.1945
   51CHL1   C18 4907   7.001   4.769   3.436 -0.0916  0.1046  0.5155
   51CHL1  H18A 4908   6.949   4.866   3.453 -1.8253 -0.9453  1.5950
   51CHL1  H18B 4909   7.067   4.745   3.522  0.8305  1.2285  0.1330
   51CHL1  H18C 4910   7.058   4.796   3.345  0.2383  0.3405  0.7927
   51CHL1   C12 4911   6.965   4.528   3.343 -0.0322 -0.7415 -0.2602
   51CHL1  H12A 4912   7.060   4.495   3.391 -0.9927 -0.1297  2.2153
   51CHL1  H12B 4913   6.896   4.442   3.339 -0.3813 -0.4354 -1.0260
   51CHL1   C11 4914   7.011   4.561   3.203 -0.8225 -0.2584  0.7261
   51CHL1  H11A 4915   7.102   4.625   3.206 -0.9247  0.1312 -1.9564
   51CHL1  H11B 4916   7.046   4.468   3.153  1.9442 -0.1772  2.3294
   51CHL1    C9 4917   6.903   4.631   3.119 -0.1134  0.2147  0.6096
   51CHL1    H9 4918   6.825   4.553   3.104 -2.0008  2.0640  0.3319
   51CHL1   C10 4919   6.946   4.667   2.979 -0.2634 -0.2654 -0.6740
   51CHL1   C19 4920   7.074   4.753   2.984  0.2675 -0.5306 -0.2828
   51CHL1  H19A 4921   7.055   4.854   3.026  0.3216  0.6124 -2.8548
   51CHL1  H19B 4922   7.157   4.702   3.037  1.0706 -1.1973 -2.1010
   51CHL1  H19C 4923   7.116   4.768   2.883  2.0789 -0.2602  0.4653
   51CHL1    C1 4924   6.976   4.532   2.907 -0.0271  0.3995  0.0940
   51CHL1   H1A 4925   7.071   4.487   2.941 -0.7462 -1.4237 -0.2155
   51CHL1   H1B 4926   6.888   4.467   2.925 -1.3433  1.5211 -1.8793
   51CHL1    C2 4927   6.985   4.537   2.752  0.4847  0.3251 -0.4894
   51CHL1   H2A 4928   6.997   4.432   2.718 -0.2770 -0.0396  0.3238
   51CHL1   H2B 4929   7.071   4.601   2.723 -0.7656  2.3445  0.0297
   51CHL1   C20 4930   6.895   4.601   3.677 -0.1555 -0.0002 -0.0024
   51CHL1   H20 4931   6.954   4.694   3.689 -0.2965 -0.0236  0.9172
   51CHL1   C21 4932   6.989   4.486   3.670  0.1469  0.7857 -0.0050
   51CHL1  H21A 4933   6.940   4.398   3.622 -0.1900  0.7100  0.4729
   51CHL1  H21B 4934   7.029   4.471   3.772 -0.9071  0.1538  0.3369
   51CHL1  H21C 4935   7.079   4.517   3.614  1.2342 -3.5600 -1.0492
   51CHL1   C22 4936   6.801   4.588   3.809  0.1601 -0.4571 -0.5415
   51CHL1  H22A 4937   6.709   4.650   3.803  0.6944  0.3552 -0.5259
   51CHL1  H22B 4938   6.772   4.482   3.825 -1.3769  0.0918  0.5948
   51CHL1   C23 4939   6.883   4.627   3.947 -0.4532  0.2980 -0.5031
   51CHL1  H23A 4940   6.953   4.546   3.974 -0.0668  0.4907 -0.9124
   51CHL1  H23B 4941   6.937   4.723   3.930 -0.1351  0.4111  0.9826
   51CHL1   C24 4942   6.781   4.640   4.069 -0.9223  0.0227 -0.1103
   51CHL1  H24A 4943   6.726   4.731   4.035  0.1526  0.4513 -0.7226
   51CHL1  H24B 4944   6.721   4.546   4.067 -0.3568 -0.4329  1.7905
   51CHL1   C25 4945   6.839   4.661   4.207  0.3892 -0.4079 -0.5595
   51CHL1   H25 4946   6.887   4.565   4.235 -0.4392 -0.4529  0.7789
   51CHL1   C26 4947   6.932   4.779   4.203  0.0649 -0.1144  0.9136
   51CHL1  H26A 4948   6.877   4.872   4.178 -2.3624 -1.5151  0.8019
   51CHL1  H26B 4949   6.970   4.790   4.307  2.2656  2.1208 -0.0092
   51CHL1  H26C 4950   7.027   4.755   4.149 -0.6928 -1.3571  0.0751
   51CHL1   C27 4951   6.720   4.689   4.315  0.1233  0.0757  0.0818
   51CHL1  H27A 4952   6.653   4.600   4.310  0.2232 -0.1001  1.5098
   51CHL1  H27B 4953   6.768   4.696   4.415  1.7859  2.8112 -0.8100
   51CHL1  H27C 4954   6.661   4.781   4.300 -1.4062 -0.8698  0.0330
   52CHL1    C3 4955   5.629   6.227   2.824  0.1942 -0.4303  0.3562
   52CHL1    H3 4956   5.695   6.144   2.855  0.4848  0.6506  2.8504
   52CHL1    O3 4957   5.641   6.245   2.685  0.2234  0.7340  0.2089
   52CHL1   H3' 4958   5.659   6.159   2.647  0.3785  1.4310 -1.3802
   52CHL1    C4 4959   5.478   6.190   2.848 -0.5161  0.2471 -0.2187
   52CHL1   H4A 4960   5.410   6.270   2.810 -0.7341  0.3272  0.3428
   52CHL1   H4B 4961   5.466   6.101   2.783 -0.2351  1.8988 -2.7250
   52CHL1    C5 4962   5.447   6.171   2.997  0.7161 -0.0078  0.0208
   52CHL1    C6 4963   5.395   6.054   3.049  0.5531  0.0422 -0.2286
   52CHL1    H6 4964   5.365   5.971   2.984 -1.8399  0.1703  0.6188
   52CHL1    C7 4965   5.361   6.033   3.194  0.7993  0.0473 -0.1116
   52CHL1   H7A 4966   5.257   6.003   3.215 -0.1595  3.4176  0.4979
   52CHL1   H7B 4967   5.429   5.950   3.225  0.9043  0.4584  0.7958
   52CHL1    C8 4968   5.367   6.159   3.279 -0.3959 -0.3303 -0.0938
   52CHL1    H8 4969   5.270   6.210   3.265  0.1570  1.3016  1.6294
   52CHL1   C14 4970   5.381   6.128   3.424 -0.2125  1.0338  0.3060
   52CHL1   H14 4971   5.479   6.077   3.435 -0.1888  0.5638 -1.6962
   52CHL1   C15 4972   5.284   6.026   3.476 -0.1185 -0.2692  0.2926
   52CHL1  H15A 4973   5.181   6.043   3.438  0.5060  0.9812 -0.9394
   52CHL1  H15B 4974   5.313   5.925   3.438 -2.2345 -0.5702 -0.6928
   52CHL1   C16 4975   5.277   6.037   3.631 -0.1784 -0.4038 -0.0891
   52CHL1  H16A 4976   5.179   6.083   3.656 -0.0611  0.2694 -0.8086
   52CHL1  H16B 4977   5.308   5.949   3.689  0.2837  0.7226  1.4326
   52CHL1   C17 4978   5.370   6.162   3.660  0.0744 -0.6578 -0.1911
   52CHL1   H17 4979   5.468   6.112   3.681  0.3533  0.6354  1.8402
   52CHL1   C13 4980   5.390   6.240   3.529  0.6347 -0.4039 -0.1852
   52CHL1   C18 4981   5.262   6.322   3.516  0.5652  0.3871  0.6094
   52CHL1  H18A 4982   5.255   6.379   3.421  0.2325 -1.0608 -0.2664
   52CHL1  H18B 4983   5.175   6.255   3.525  0.1874  0.7258 -0.3776
   52CHL1  H18C 4984   5.247   6.403   3.591  0.9145 -1.1399  2.3945
   52CHL1   C12 4985   5.515   6.314   3.495  0.4884 -0.0099  0.9454
   52CHL1  H12A 4986   5.511   6.407   3.555 -2.8165  1.2510 -0.9665
   52CHL1  H12B 4987   5.605   6.254   3.520 -0.6894 -2.6031 -0.5389
   52CHL1   C11 4988   5.533   6.353   3.342 -0.2361  0.0744  0.3652
   52CHL1  H11A 4989   5.460   6.436   3.331  0.3153  0.4059 -1.0820
   52CHL1  H11B 4990   5.640   6.374   3.321 -0.1081 -0.2849  0.6350
   52CHL1    C9 4991   5.493   6.243   3.240  0.0136  0.2168 -0.4149
   52CHL1    H9 4992   5.581   6.176   3.249  0.1583  0.3543 -0.8051
   52CHL1   C10 4993   5.490   6.286   3.094  0.2698  0.6458  0.2154
   52CHL1   C19 4994   5.396   6.407   3.062 -0.3822 -0.0177 -0.3799
   52CHL1  H19A 4995   5.443   6.493   3.115 -0.9101 -0.1229  0.2632
   52CHL1  H19B 4996   5.409   6.429   2.953  1.1564 -0.4694 -0.3146
   52CHL1  H19C 4997   5.298   6.388   3.111  0.2112 -0.9617  0.4754
   52CHL1    C1 4998   5.633   6.330   3.050 -0.6130  0.3873 -1.0246
   52CHL1   H1A 4999   5.661   6.426   3.099 -2.1898  0.4370 -0.1466
   52CHL1   H1B 5000   5.713   6.260   3.080  1.0823  1.1692 -3.3624
   52CHL1    C2 5001   5.662   6.351   2.903  0.4337 -0.8289  0.2984
   52CHL1   H2A 5002   5.767   6.385   2.896  0.6822 -1.4909  0.7003
   52CHL1   H2B 5003   5.595   6.432   2.868 -0.1897 -1.9658 -1.3066
   52CHL1   C20 5004   5.325   6.238   3.787  0.4725 -0.1028  0.0150
   52CHL1   H20 5005   5.216   6.261   3.781  0.6719  1.5663  1.7763
   52CHL1   C21 5006   5.414   6.365   3.815 -0.0520  0.6736 -0.2433
   52CHL1  H21A 5007   5.406   6.432   3.727  0.1610  0.6547 -0.2778
   52CHL1  H21B 5008   5.519   6.329   3.827 -0.3449  0.6414  3.3870
   52CHL1  H21C 5009   5.384   6.425   3.904 -0.6991  0.0313 -0.0185
   52CHL1   C22 5010   5.337   6.140   3.910 -0.2866 -0.2643  0.1457
   52CHL1  H22A 5011   5.294   6.040   3.888  3.6935 -2.5595  1.8263
   52CHL1  H22B 5012   5.442   6.118   3.939 -0.8379  0.1689  2.7867
   52CHL1   C23 5013   5.267   6.200   4.029  0.6208  0.3594 -0.1212
   52CHL1  H23A 5014   5.323   6.292   4.057  1.3319  0.3324 -1.3723
   52CHL1  H23B 5015   5.164   6.227   3.997 -0.5593 -1.0601  2.1986
   52CHL1   C24 5016   5.245   6.097   4.140  0.7726 -0.1282 -0.4200
   52CHL1  H24A 5017   5.166   6.029   4.101  0.4783 -0.1158  0.1418
   52CHL1  H24B 5018   5.335   6.036   4.166  0.3560 -0.1613  1.0289
   52CHL1   C25 5019   5.199   6.162   4.265 -0.2154  0.6171  0.2619
   52CHL1   H25 5020   5.102   6.216   4.255  0.0303  0.9619 -0.2511
   52CHL1   C26 5021   5.190   6.056   4.376  0.0647  0.2140  0.0467
   52CHL1  H26A 5022   5.144   6.101   4.467 -0.0004  0.2456 -0.0023
   52CHL1  H26B 5023   5.130   5.968   4.347  2.1101 -1.8420  1.6733
   52CHL1  H26C 5024   5.290   6.011   4.396  1.0364  1.5104 -1.5867
   52CHL1   C27 5025   5.292   6.272   4.324  0.1035  0.0709 -0.1830
   52CHL1  H27A 5026   5.247   6.293   4.423 -0.2801  0.6067 -0.4632
   52CHL1  H27B 5027   5.393   6.228   4.338  0.6009  0.2185 -2.8555
   52CHL1  H27C 5028   5.286   6.355   4.250  1.4000 -0.4444 -0.8985
   53CHL1    C3 5029   5.400   1.519   2.306  0.3535 -0.0917 -0.9548
   53CHL1    H3 5030   5.483   1.588   2.334  0.3107 -0.8159  1.1091
   53CHL1    O3 5031   5.379   1.530   2.165 -0.1141  0.4768  0.1654
   53CHL1   H3' 5032   5.296   1.571   2.143 -0.7619 -0.7609  0.2449
   53CHL1    C4 5033   5.446   1.377   2.343  0.7272  0.5796 -0.6255
   53CHL1   H4A 5034   5.380   1.295   2.309 -2.1236  3.4848 -2.6625
   53CHL1   H4B 5035   5.544   1.365   2.293  0.0999 -3.6603 -1.1480
   53CHL1    C5 5036   5.462   1.363   2.493 -1.0377  0.2087 -0.9440
   53CHL1    C6 5037   5.581   1.328   2.550 -0.2323 -1.2699  0.0588
   53CHL1    H6 5038   5.667   1.304   2.486 -0.8302  1.5080 -2.0071
   53CHL1    C7 5039   5.600   1.304   2.698 -0.0443  0.1756  0.0692
   53CHL1   H7A 5040   5.665   1.216   2.717  0.5412  0.1069 -1.9287
   53CHL1   H7B 5041   5.657   1.393   2.733 -0.4924  1.6978 -2.7165
   53CHL1    C8 5042   5.470   1.295   2.777 -0.1474  0.7650 -0.0939
   53CHL1    H8 5043   5.418   1.198   2.760  2.1916 -0.5428 -0.1028
   53CHL1   C14 5044   5.492   1.328   2.926 -0.7544 -0.3952 -0.3672
   53CHL1   H14 5045   5.521   1.435   2.930 -0.7687 -0.3964 -0.2050
   53CHL1   C15 5046   5.608   1.249   2.991 -0.1130  0.0149 -0.1043
   53CHL1  H15A 5047   5.601   1.140   2.975  0.8237 -0.1585  0.5968
   53CHL1  H15B 5048   5.715   1.264   2.966 -0.0161  0.1933  0.4071
   53CHL1   C16 5049   5.584   1.271   3.141 -0.6394  0.1431  0.2753
   53CHL1  H16A 5050   5.587   1.180   3.205 -1.9621 -1.0710 -1.2874
   53CHL1  H16B 5051   5.664   1.344   3.165  0.0047  0.9577 -3.7250
   53CHL1   C17 5052   5.443   1.337   3.155  0.4433 -0.0321  0.0148
   53CHL1   H17 5053   5.469   1.445   3.158  0.3728 -0.0430  1.8483
   53CHL1   C13 5054   5.370   1.320   3.020 -0.4306 -0.6214  0.3094
   53CHL1   C18 5055   5.313   1.171   3.021  0.2179  0.5317 -0.3102
   53CHL1  H18A 5056   5.276   1.146   2.919  1.2034 -2.2797 -0.0767
   53CHL1  H18B 5057   5.387   1.097   3.057  0.2592  1.1783  0.9782
   53CHL1  H18C 5058   5.228   1.149   3.089  0.4321 -2.0964 -0.7851
   53CHL1   C12 5059   5.275   1.433   2.971  0.3956 -0.7709 -0.5979
   53CHL1  H12A 5060   5.180   1.426   3.029  1.5672 -0.6520  1.4421
   53CHL1  H12B 5061   5.311   1.534   2.996 -0.8508 -0.4632  0.0869
   53CHL1   C11 5062   5.246   1.410   2.819  0.7013  0.1089 -0.2580
   53CHL1  H11A 5063   5.178   1.323   2.826  2.5092 -1.2653  2.7098
   53CHL1  H11B 5064   5.176   1.490   2.788  0.1905  0.3744  1.4354
   53CHL1    C9 5065   5.369   1.403   2.730 -0.2245 -0.6792  0.1128
   53CHL1    H9 5066   5.415   1.502   2.749 -2.0653  0.0799  0.8310
   53CHL1   C10 5067   5.337   1.404   2.580 -0.2001  0.5803  0.2545
   53CHL1   C19 5068   5.230   1.287   2.557 -0.6000 -0.3119  0.2085
   53CHL1  H19A 5069   5.133   1.307   2.607  1.1760  1.5431  3.2252
   53CHL1  H19B 5070   5.206   1.272   2.449 -0.4506  0.3989  0.0741
   53CHL1  H19C 5071   5.272   1.187   2.580  0.9716  0.1276 -0.6495
   53CHL1    C1 5072   5.282   1.546   2.532 -0.6619  0.8184 -0.4542
   53CHL1   H1A 5073   5.183   1.567   2.576 -0.1590  1.4587  0.4066
   53CHL1   H1B 5074   5.357   1.618   2.571  2.1520 -1.6310 -0.9419
   53CHL1    C2 5075   5.271   1.556   2.374  0.2973  0.2469  0.3980
   53CHL1   H2A 5076   5.246   1.663   2.357 -1.0665 -0.1308 -0.0897
   53CHL1   H2B 5077   5.177   1.502   2.350  0.7884 -1.6256  2.3593
   53CHL1   C20 5078   5.376   1.292   3.282  0.6049 -0.1620  0.3637
   53CHL1   H20 5079   5.344   1.186   3.268  2.2536 -0.3923 -2.2760
   53CHL1   C21 5080   5.248   1.370   3.304 -0.4280 -0.1501  0.2709
   53CHL1  H21A 5081   5.192   1.322   3.388 -1.3766 -1.2045 -0.9305
   53CHL1  H21B 5082   5.182   1.380   3.216 -1.3671  0.8823  1.0630
   53CHL1  H21C 5083   5.288   1.472   3.323 -1.0790  0.2273 -0.3584
   53CHL1   C22 5084   5.466   1.316   3.417  0.2966 -0.1824  0.2985
   53CHL1  H22A 5085   5.559   1.254   3.422 -0.4483 -1.3349  0.2186
   53CHL1  H22B 5086   5.499   1.421   3.432 -1.0315  0.4238 -0.8504
   53CHL1   C23 5087   5.378   1.284   3.543  0.0465 -0.3877  0.0369
   53CHL1  H23A 5088   5.312   1.373   3.553  1.6664  1.2650 -2.7034
   53CHL1  H23B 5089   5.322   1.190   3.527  2.2730 -2.1606  1.8159
   53CHL1   C24 5090   5.455   1.267   3.665 -1.1895 -0.5628 -0.4293
   53CHL1  H24A 5091   5.548   1.209   3.643 -0.8747 -0.1320 -0.2525
   53CHL1  H24B 5092   5.481   1.369   3.700  0.6481 -1.1563  0.0702
   53CHL1   C25 5093   5.390   1.204   3.789  0.2103 -0.1961 -0.2603
   53CHL1   H25 5094   5.386   1.095   3.768  1.3889 -0.5888  1.3517
   53CHL1   C26 5095   5.478   1.227   3.914 -0.8665  0.0708  0.9632
   53CHL1  H26A 5096   5.501   1.333   3.937  0.0557  0.0371  0.2450
   53CHL1  H26B 5097   5.439   1.172   4.003  0.3212 -0.5983  1.0980
   53CHL1  H26C 5098   5.580   1.186   3.895 -0.4816  1.5563 -0.3542
   53CHL1   C27 5099   5.243   1.261   3.819  0.2887 -0.3474 -0.6116
   53CHL1  H27A 5100   5.181   1.254   3.726  0.7897  2.8410 -1.3070
   53CHL1  H27B 5101   5.202   1.215   3.911  1.5320 -1.7524 -0.7224
   53CHL1  H27C 5102   5.251   1.367   3.849 -1.0991 -0.1319 -0.9297
   54CHL1    C3 5103   4.259   5.879   2.807 -0.1756  0.1540 -0.1018
   54CHL1    H3 5104   4.328   5.838   2.885 -1.3054 -0.9504  0.3541
   54CHL1    O3 5105   4.297   5.834   2.682 -0.1802 -0.1665 -0.1384
   54CHL1   H3' 5106   4.340   5.749   2.691  1.4219  0.4088 -1.6021
   54CHL1    C4 5107   4.124   5.813   2.833  0.1968 -0.5127  0.5379
   54CHL1   H4A 5108   4.047   5.838   2.757  3.1233 -1.4773 -3.0700
   54CHL1   H4B 5109   4.131   5.702   2.832 -0.8755 -0.5868  0.0796
   54CHL1    C5 5110   4.068   5.860   2.964  0.1706 -1.1895 -0.6677
   54CHL1    C6 5111   4.034   5.775   3.055  0.1402  0.4736 -0.3743
   54CHL1    H6 5112   4.054   5.669   3.031 -0.1321  0.5256 -0.8339
   54CHL1    C7 5113   3.979   5.803   3.197 -0.4853  0.3870  0.6468
   54CHL1   H7A 5114   3.892   5.736   3.213 -0.4145  0.3363  0.8124
   54CHL1   H7B 5115   4.057   5.782   3.273 -0.2817 -2.8076 -0.2934
   54CHL1    C8 5116   3.928   5.948   3.204 -0.0719 -0.0705  0.4073
   54CHL1    H8 5117   3.825   5.949   3.164 -0.5907 -0.2130  1.7075
   54CHL1   C14 5118   3.911   5.991   3.350 -0.1257  0.3855  0.5156
   54CHL1   H14 5119   4.017   5.994   3.384 -0.0866  1.0358  0.3644
   54CHL1   C15 5120   3.839   5.898   3.456 -0.3604  0.4479  0.5142
   54CHL1  H15A 5121   3.740   5.872   3.414 -0.7691 -0.2378  1.8772
   54CHL1  H15B 5122   3.904   5.810   3.475  0.3286  0.4930 -1.4053
   54CHL1   C16 5123   3.825   5.986   3.579 -0.8148 -0.3239  0.6033
   54CHL1  H16A 5124   3.719   5.997   3.611 -1.4783  2.4416 -1.9987
   54CHL1  H16B 5125   3.893   5.947   3.658  0.1704 -0.8518 -0.4731
   54CHL1   C17 5126   3.883   6.130   3.541  0.3957  0.5031  0.6843
   54CHL1   H17 5127   3.990   6.115   3.568  0.1355 -3.5399  0.1048
   54CHL1   C13 5128   3.869   6.136   3.387 -0.0669 -0.1869 -0.6738
   54CHL1   C18 5129   3.722   6.159   3.356  0.0029 -0.2788 -0.5739
   54CHL1  H18A 5130   3.698   6.261   3.394 -1.0652 -1.3954  2.0306
   54CHL1  H18B 5131   3.698   6.162   3.248  0.4155  0.3813 -0.6469
   54CHL1  H18C 5132   3.656   6.088   3.411 -0.4849  0.8961  0.4156
   54CHL1   C12 5133   3.962   6.233   3.314  0.1209 -0.4424  0.7041
   54CHL1  H12A 5134   3.931   6.336   3.341  0.1274 -0.7696  2.0451
   54CHL1  H12B 5135   4.064   6.222   3.356  0.2591  0.2501  0.5645
   54CHL1   C11 5136   3.975   6.204   3.157  0.1057 -0.1890 -0.1924
   54CHL1  H11A 5137   3.874   6.221   3.115 -1.5544 -2.1612  2.6748
   54CHL1  H11B 5138   4.049   6.277   3.119 -0.2044  0.6284  0.7317
   54CHL1    C9 5139   4.016   6.055   3.127  0.2608  0.1928 -0.3109
   54CHL1    H9 5140   4.106   6.049   3.191 -0.0836  0.4549  0.2099
   54CHL1   C10 5141   4.051   6.018   2.983  0.5019 -0.4701  0.2191
   54CHL1   C19 5142   3.923   6.053   2.896 -0.2627 -0.2103 -0.4036
   54CHL1  H19A 5143   3.835   5.994   2.929  0.5261 -1.5061 -0.5659
   54CHL1  H19B 5144   3.905   6.163   2.902  0.9885  0.0577 -1.0801
   54CHL1  H19C 5145   3.949   6.030   2.790  1.0714  1.7069 -0.5449
   54CHL1    C1 5146   4.177   6.082   2.938  0.1108  0.2062  0.4564
   54CHL1   H1A 5147   4.151   6.189   2.923  1.1179  0.2605 -1.1982
   54CHL1   H1B 5148   4.256   6.066   3.014  0.0263 -0.5030  0.3993
   54CHL1    C2 5149   4.251   6.030   2.808 -0.2722 -1.0479 -0.3033
   54CHL1   H2A 5150   4.356   6.065   2.803  0.3130 -2.6155  0.4283
   54CHL1   H2B 5151   4.199   6.066   2.717  2.4077  2.1595 -0.7556
   54CHL1   C20 5152   3.820   6.237   3.639 -0.0699  0.1592 -0.0801
   54CHL1   H20 5153   3.711   6.246   3.624  0.4119  1.2227 -4.3164
   54CHL1   C21 5154   3.871   6.377   3.592  0.7068  0.0292  0.3666
   54CHL1  H21A 5155   3.831   6.402   3.492 -0.8789  2.0538  1.4372
   54CHL1  H21B 5156   3.982   6.383   3.586  0.5608  2.3673 -1.3275
   54CHL1  H21C 5157   3.830   6.449   3.666 -0.0543 -0.1417  0.1253
   54CHL1   C22 5158   3.867   6.224   3.787 -0.0152 -1.0812  0.2660
   54CHL1  H22A 5159   3.879   6.116   3.810 -0.9589 -1.2012  0.2470
   54CHL1  H22B 5160   3.969   6.265   3.802  0.3213 -2.3434  1.6740
   54CHL1   C23 5161   3.773   6.294   3.877  0.0163  0.2716 -0.5982
   54CHL1  H23A 5162   3.784   6.404   3.885  0.8203  0.2278 -1.0323
   54CHL1  H23B 5163   3.668   6.277   3.845 -0.0634 -0.5060  0.0291
   54CHL1   C24 5164   3.774   6.234   4.019 -0.4102  0.0692  0.0103
   54CHL1  H24A 5165   3.680   6.259   4.072 -1.7909 -1.4599 -1.5545
   54CHL1  H24B 5166   3.787   6.124   4.010  0.7270  0.2724 -1.2196
   54CHL1   C25 5167   3.899   6.284   4.094 -0.2393  0.3063 -0.4404
   54CHL1   H25 5168   3.983   6.284   4.021  1.3451  0.1186  1.2856
   54CHL1   C26 5169   3.884   6.432   4.145  0.4573 -0.1499  0.5304
   54CHL1  H26A 5170   3.783   6.440   4.192  0.3711  1.0056  0.1889
   54CHL1  H26B 5171   3.965   6.464   4.214  0.2802 -1.8216  1.5936
   54CHL1  H26C 5172   3.896   6.503   4.060 -0.2595  0.1098  0.6315
   54CHL1   C27 5173   3.938   6.184   4.217 -0.5649  0.5005  0.1391
   54CHL1  H27A 5174   3.854   6.178   4.289 -0.1751  0.8512  0.6334
   54CHL1  H27B 5175   3.969   6.086   4.175 -1.3735 -1.1706  3.1627
   54CHL1  H27C 5176   4.019   6.230   4.278  1.7902 -1.6017 -1.2217
   55CHL1    C3 5177   0.867   3.960   3.110  0.6018 -0.2083  0.5129
   55CHL1    H3 5178   0.935   3.882   3.071  1.5095  0.0755  1.4989
   55CHL1    O3 5179   0.813   4.041   3.001  0.3846 -0.5000  0.2522
   55CHL1   H3' 5180   0.883   4.045   2.935 -0.0799  1.2805 -0.1938
   55CHL1    C4 5181   0.749   3.906   3.199  0.4285  0.2552 -0.7793
   55CHL1   H4A 5182   0.674   3.985   3.221  0.7815 -0.0339  1.8055
   55CHL1   H4B 5183   0.694   3.834   3.136  1.4971 -1.1418 -0.1678
   55CHL1    C5 5184   0.790   3.837   3.331 -0.0479  0.1799 -0.2276
   55CHL1    C6 5185   0.769   3.705   3.358 -0.0329 -0.5873  0.8754
   55CHL1    H6 5186   0.713   3.638   3.291 -1.4673 -0.1519  1.6105
   55CHL1    C7 5187   0.808   3.635   3.485 -0.1618 -0.0803 -0.2235
   55CHL1   H7A 5188   0.722   3.573   3.518  0.6625 -0.8428  0.5236
   55CHL1   H7B 5189   0.891   3.566   3.461  0.3012  0.5802 -0.5637
   55CHL1    C8 5190   0.846   3.745   3.595 -0.5158  0.1316 -0.1948
   55CHL1    H8 5191   0.750   3.781   3.637 -0.6721  0.7678 -1.0532
   55CHL1   C14 5192   0.926   3.670   3.705 -0.3023 -0.0208 -0.1527
   55CHL1   H14 5193   1.019   3.630   3.659  0.2671  0.3743  0.6424
   55CHL1   C15 5194   0.859   3.554   3.768 -0.0598  0.6497  0.0456
   55CHL1  H15A 5195   0.753   3.582   3.783  0.2138  0.4907  2.7952
   55CHL1  H15B 5196   0.859   3.458   3.712  0.5511  0.6305  0.0676
   55CHL1   C16 5197   0.929   3.528   3.902  0.1366 -0.2435  0.2889
   55CHL1  H16A 5198   0.845   3.530   3.975 -2.2286  1.5512 -2.2976
   55CHL1  H16B 5199   0.984   3.431   3.911 -0.3318 -0.5921 -0.4990
   55CHL1   C17 5200   1.027   3.650   3.919 -0.3561  0.2193 -0.2398
   55CHL1   H17 5201   1.127   3.623   3.877  0.9620 -0.1140  2.8777
   55CHL1   C13 5202   0.970   3.760   3.821  0.0625  0.6875 -0.0580
   55CHL1   C18 5203   0.853   3.844   3.877 -0.1588  0.6140 -0.0587
   55CHL1  H18A 5204   0.891   3.905   3.962  0.9754 -1.8083  1.2952
   55CHL1  H18B 5205   0.802   3.912   3.806 -0.8395  2.4677  2.0709
   55CHL1  H18C 5206   0.783   3.775   3.928 -1.8997  2.3998  0.1012
   55CHL1   C12 5207   1.067   3.867   3.770  0.5315 -0.9142  0.2617
   55CHL1  H12A 5208   1.089   3.950   3.841  0.3924 -0.7975  0.1668
   55CHL1  H12B 5209   1.158   3.808   3.746  1.7885  0.3225  1.7163
   55CHL1   C11 5210   1.008   3.946   3.655  0.0996 -0.3768  0.8753
   55CHL1  H11A 5211   0.940   4.020   3.701  0.0705 -0.3766  0.8319
   55CHL1  H11B 5212   1.085   4.006   3.603 -0.3126 -0.0926  0.5914
   55CHL1    C9 5213   0.940   3.854   3.545  0.0504  0.1838  0.2286
   55CHL1    H9 5214   1.034   3.813   3.502 -0.1311  1.2065 -1.2446
   55CHL1   C10 5215   0.881   3.925   3.424 -0.3564 -0.9907 -0.5643
   55CHL1   C19 5216   0.789   4.046   3.472 -0.0263  0.2212  0.0966
   55CHL1  H19A 5217   0.734   4.101   3.392 -0.5502 -0.8997 -0.3405
   55CHL1  H19B 5218   0.708   4.000   3.533 -0.1404 -1.4462 -1.2122
   55CHL1  H19C 5219   0.833   4.111   3.550  1.2100 -1.4224  0.8217
   55CHL1    C1 5220   0.996   3.973   3.341  0.1843  0.3379  0.4564
   55CHL1   H1A 5221   1.050   4.053   3.396 -0.4364  1.0932  0.0013
   55CHL1   H1B 5222   1.059   3.886   3.312 -0.0612 -0.0433  1.0597
   55CHL1    C2 5223   0.944   4.045   3.210 -0.1480  0.5799  0.2066
   55CHL1   H2A 5224   1.025   4.090   3.150 -1.8703  1.3663 -1.6517
   55CHL1   H2B 5225   0.889   4.130   3.256 -1.9260  0.2208 -1.1293
   55CHL1   C20 5226   1.042   3.690   4.072 -0.5586  1.2649  0.7115
   55CHL1   H20 5227   0.948   3.728   4.117  0.0515  1.7659  1.5888
   55CHL1   C21 5228   1.147   3.801   4.087  0.5784 -0.0531  0.5817
   55CHL1  H21A 5229   1.102   3.886   4.032 -0.2141 -0.2308  0.9456
   55CHL1  H21B 5230   1.240   3.756   4.045  0.3243 -0.6823  0.6942
   55CHL1  H21C 5231   1.166   3.830   4.192  2.0632  2.5982 -0.3047
   55CHL1   C22 5232   1.073   3.568   4.166  0.2364 -0.6333 -0.1443
   55CHL1  H22A 5233   1.098   3.474   4.113 -0.3847 -1.5717  1.2008
   55CHL1  H22B 5234   1.171   3.594   4.211  0.4771  0.9071 -1.4445
   55CHL1   C23 5235   0.968   3.543   4.273  0.4176 -0.5988 -0.1866
   55CHL1  H23A 5236   0.963   3.618   4.355 -2.2723  0.0404 -0.8456
   55CHL1  H23B 5237   0.868   3.541   4.224  0.2894 -2.3640  0.0512
   55CHL1   C24 5238   0.978   3.402   4.332 -0.4412 -0.9946  0.0243
   55CHL1  H24A 5239   0.950   3.334   4.248 -0.7359  1.0600 -1.6262
   55CHL1  H24B 5240   1.083   3.381   4.361  0.1959  0.9937 -0.7036
   55CHL1   C25 5241   0.888   3.368   4.453  0.3316 -0.0051  0.4385
   55CHL1   H25 5242   0.784   3.380   4.417  0.5528  0.6757 -0.0165
   55CHL1   C26 5243   0.907   3.228   4.500  0.3801 -0.5403 -0.3614
   55CHL1  H26A 5244   1.013   3.203   4.523  0.2643 -0.6499  0.0498
   55CHL1  H26B 5245   0.837   3.201   4.582  0.1869  1.9060  0.3482
   55CHL1  H26C 5246   0.885   3.163   4.412 -1.2009 -1.5512  0.7474
   55CHL1   C27 5247   0.918   3.456   4.584 -0.0934  0.2523  1.0172
   55CHL1  H27A 5248   0.894   3.561   4.561 -1.6123 -0.5412 -1.3856
   55CHL1  H27B 5249   0.846   3.414   4.658 -1.0646 -3.3124 -1.6369
   55CHL1  H27C 5250   1.028   3.442   4.598  0.5884  1.5306 -2.2500
   56CHL1    C3 5251   1.066   1.091   2.497  0.8818 -0.3685 -0.8261
   56CHL1    H3 5252   1.162   1.144   2.515  0.2199 -0.4671  4.6268
   56CHL1    O3 5253   1.050   1.046   2.364  0.6732  0.1074 -0.3312
   56CHL1   H3' 5254   0.999   0.965   2.362  2.0041 -0.7328 -0.6857
   56CHL1    C4 5255   1.068   0.970   2.595  0.3711  0.2121 -0.3915
   56CHL1   H4A 5256   0.982   0.907   2.565  0.3381  0.8072 -1.6283
   56CHL1   H4B 5257   1.154   0.905   2.568 -0.3685 -0.7875 -0.3817
   56CHL1    C5 5258   1.069   1.001   2.743 -0.2918  0.2875  0.3222
   56CHL1    C6 5259   1.168   0.958   2.822 -0.0287 -0.1078  0.3266
   56CHL1    H6 5260   1.248   0.895   2.781 -0.7491 -0.1369 -1.1024
   56CHL1    C7 5261   1.173   0.990   2.973  0.3065  0.0885  0.2862
   56CHL1   H7A 5262   1.182   0.899   3.037 -2.0277 -1.1960 -1.0836
   56CHL1   H7B 5263   1.247   1.070   2.995 -1.0386  0.9043  2.0558
   56CHL1    C8 5264   1.044   1.046   3.025  0.3902 -0.5073  0.0663
   56CHL1    H8 5265   0.974   0.961   3.036 -0.1744  0.0593  1.1040
   56CHL1   C14 5266   1.063   1.108   3.166  0.4432 -0.0749 -0.4862
   56CHL1   H14 5267   1.129   1.196   3.154 -0.1711  0.0947 -3.7816
   56CHL1   C15 5268   1.131   1.026   3.272 -0.7101  0.0494  0.0038
   56CHL1  H15A 5269   1.097   0.921   3.263  0.9992 -0.6214  0.8281
   56CHL1  H15B 5270   1.239   1.014   3.251 -0.7535 -1.7049  0.6163
   56CHL1   C16 5271   1.096   1.092   3.402  0.8074 -0.7464  0.6325
   56CHL1  H16A 5272   1.053   1.021   3.475  1.7206 -1.0323  0.8979
   56CHL1  H16B 5273   1.177   1.138   3.463  1.7213 -1.2499 -0.1691
   56CHL1   C17 5274   0.989   1.203   3.361  0.8534  0.7085  0.7655
   56CHL1   H17 5275   1.043   1.294   3.329 -0.7918  1.6483  0.5577
   56CHL1   C13 5276   0.933   1.164   3.223 -0.2808 -0.1737 -0.7114
   56CHL1   C18 5277   0.830   1.046   3.249  0.1551  0.0101 -0.3282
   56CHL1  H18A 5278   0.868   0.969   3.319 -1.6034 -0.0939  0.5643
   56CHL1  H18B 5279   0.737   1.085   3.296 -1.3638 -0.6789 -2.5616
   56CHL1  H18C 5280   0.795   0.991   3.159 -0.1945  2.8561 -2.0745
   56CHL1   C12 5281   0.885   1.273   3.135  0.7835 -0.4740  0.0745
   56CHL1  H12A 5282   0.788   1.315   3.170  1.5966  1.9781 -0.4250
   56CHL1  H12B 5283   0.949   1.364   3.128  0.1603  0.0206  0.7539
   56CHL1   C11 5284   0.855   1.225   2.994 -0.4737 -0.0146 -0.3805
   56CHL1  H11A 5285   0.767   1.158   3.003 -1.3085  1.0051 -0.6382
   56CHL1  H11B 5286   0.832   1.317   2.935 -0.2407 -0.1183 -0.6332
   56CHL1    C9 5287   0.984   1.154   2.930 -0.1178  0.0826 -0.6716
   56CHL1    H9 5288   1.064   1.232   2.924 -1.2154  1.1688 -1.9050
   56CHL1   C10 5289   0.961   1.101   2.787  0.5011 -0.4266 -0.0838
   56CHL1   C19 5290   0.834   1.018   2.779  0.2568 -0.8651 -0.6226
   56CHL1  H19A 5291   0.841   0.949   2.866 -0.1182 -0.5308 -0.3248
   56CHL1  H19B 5292   0.748   1.087   2.792  1.5666  0.7559 -0.1642
   56CHL1  H19C 5293   0.812   0.963   2.685 -1.4897  1.2361 -1.5254
   56CHL1    C1 5294   0.954   1.220   2.678  0.1754  0.0388  0.2551
   56CHL1   H1A 5295   0.869   1.285   2.706  0.6086  0.2725  1.0527
   56CHL1   H1B 5296   1.043   1.285   2.676  0.3568 -0.1683  1.2689
   56CHL1    C2 5297   0.942   1.171   2.533  0.2130  0.3068 -0.2163
   56CHL1   H2A 5298   0.913   1.245   2.454  0.2019 -0.4794 -0.9607
   56CHL1   H2B 5299   0.852   1.108   2.518  1.8510 -1.7681 -1.9480
   56CHL1   C20 5300   0.896   1.249   3.474 -0.2869 -0.6207  0.2674
   56CHL1   H20 5301   0.820   1.320   3.436  2.2618  1.8618 -0.5315
   56CHL1   C21 5302   0.981   1.351   3.552 -0.4521 -0.6016  0.4394
   56CHL1  H21A 5303   1.084   1.309   3.555 -0.3146 -0.2450  0.7747
   56CHL1  H21B 5304   0.939   1.356   3.655 -3.2615 -3.1128 -0.4320
   56CHL1  H21C 5305   0.979   1.450   3.502  1.4010 -0.9211 -0.3640
   56CHL1   C22 5306   0.828   1.140   3.564 -0.2904  0.5621  0.4680
   56CHL1  H22A 5307   0.797   1.046   3.513 -1.5158  0.0622  2.0390
   56CHL1  H22B 5308   0.908   1.112   3.636 -0.8552  1.1527  1.3510
   56CHL1   C23 5309   0.704   1.186   3.636 -0.0811 -0.2439 -0.5703
   56CHL1  H23A 5310   0.737   1.259   3.713  3.0630 -0.5483 -1.5104
   56CHL1  H23B 5311   0.629   1.219   3.561  0.3205 -1.6171 -1.6023
   56CHL1   C24 5312   0.640   1.066   3.700 -0.3372  0.7859  0.5131
   56CHL1  H24A 5313   0.613   0.993   3.621  4.1267 -1.1452  0.4696
   56CHL1  H24B 5314   0.712   1.008   3.762  0.2500  1.3403  0.3602
   56CHL1   C25 5315   0.516   1.077   3.789 -0.7585 -0.3789 -0.3326
   56CHL1   H25 5316   0.460   1.154   3.731  1.5361  0.4368 -1.5956
   56CHL1   C26 5317   0.437   0.954   3.802  0.4648  0.7080  0.0114
   56CHL1  H26A 5318   0.491   0.861   3.831 -0.8829 -0.2283 -0.3846
   56CHL1  H26B 5319   0.349   0.974   3.867 -0.2335 -0.1301 -0.6512
   56CHL1  H26C 5320   0.388   0.941   3.703 -0.1516  2.0169  0.1288
   56CHL1   C27 5321   0.569   1.130   3.924 -0.4920  0.3994 -0.2793
   56CHL1  H27A 5322   0.623   1.057   3.988 -0.5089 -1.1017 -1.9058
   56CHL1  H27B 5323   0.632   1.220   3.906  0.3312  0.1865  1.3294
   56CHL1  H27C 5324   0.486   1.161   3.991  0.3827  1.9745  0.1265
   57CHL1    C3 5325   1.083   5.953   2.849 -0.0016 -0.9381 -0.2371
   57CHL1    H3 5326   0.979   5.973   2.817 -1.4664 -1.7813  3.5178
   57CHL1    O3 5327   1.155   5.907   2.737  0.0012 -0.0637  0.6721
   57CHL1   H3' 5328   1.151   5.811   2.747 -1.5432 -0.1454 -0.3733
   57CHL1    C4 5329   1.148   6.083   2.892 -0.0774  0.2166 -0.0885
   57CHL1   H4A 5330   1.256   6.061   2.906  0.1443  2.0330  1.4656
   57CHL1   H4B 5331   1.147   6.163   2.816  0.0891 -0.1156 -0.4425
   57CHL1    C5 5332   1.082   6.138   3.019 -0.6021  0.0422  0.1282
   57CHL1    C6 5333   1.028   6.266   3.030  0.4692  0.6895 -0.0030
   57CHL1    H6 5334   1.024   6.345   2.954  0.3044 -0.1089 -0.8472
   57CHL1    C7 5335   0.982   6.326   3.161 -0.1056  0.7782  0.4501
   57CHL1   H7A 5336   1.027   6.426   3.184  0.8308 -0.0225  2.3259
   57CHL1   H7B 5337   0.872   6.339   3.155 -0.2636 -0.4654  0.5374
   57CHL1    C8 5338   1.007   6.244   3.283 -0.5478 -0.3108  0.0385
   57CHL1    H8 5339   1.111   6.266   3.313 -0.4385 -0.6900 -0.0545
   57CHL1   C14 5340   0.920   6.282   3.403  0.2934  0.3263  0.6536
   57CHL1   H14 5341   0.820   6.246   3.370  0.9823 -0.1974 -0.9704
   57CHL1   C15 5342   0.905   6.423   3.437 -0.1642 -0.4100  0.3011
   57CHL1  H15A 5343   0.994   6.485   3.415 -1.4791  0.6840 -2.4666
   57CHL1  H15B 5344   0.830   6.463   3.365  1.0978  0.3632 -0.6384
   57CHL1   C16 5345   0.860   6.421   3.584  0.0337 -0.3248  0.2227
   57CHL1  H16A 5346   0.924   6.494   3.637  0.6045 -1.7094  1.5127
   57CHL1  H16B 5347   0.759   6.464   3.596  0.7576  1.8306 -0.8864
   57CHL1   C17 5348   0.875   6.278   3.637 -0.3937 -0.1076  0.1801
   57CHL1   H17 5349   0.779   6.229   3.609  0.4599  0.0578 -3.6086
   57CHL1   C13 5350   0.966   6.215   3.529  0.1611  0.2381  0.3453
   57CHL1   C18 5351   1.111   6.246   3.567 -0.1532  0.4659  0.8242
   57CHL1  H18A 5352   1.126   6.349   3.606  1.4910  1.1127 -1.3460
   57CHL1  H18B 5353   1.157   6.176   3.641  1.1060  0.4347  0.0496
   57CHL1  H18C 5354   1.178   6.252   3.479 -1.0574  1.5080  0.1896
   57CHL1   C12 5355   0.954   6.059   3.515  0.5260  0.2211  0.1321
   57CHL1  H12A 5356   0.985   6.003   3.605 -1.8048  0.7500  1.3453
   57CHL1  H12B 5357   0.847   6.038   3.493  0.7522 -0.6854 -0.1700
   57CHL1   C11 5358   1.031   6.011   3.394  0.5243 -0.3417 -0.1523
   57CHL1  H11A 5359   1.137   6.004   3.428  1.1231 -0.8252 -2.0126
   57CHL1  H11B 5360   1.001   5.906   3.372 -0.9242 -0.5459  2.4281
   57CHL1    C9 5361   1.002   6.093   3.264  0.4823  0.7785 -0.6709
   57CHL1    H9 5362   0.896   6.068   3.242  0.7852  0.3814 -1.7349
   57CHL1   C10 5363   1.078   6.038   3.138 -0.5691  0.1879 -0.1599
   57CHL1   C19 5364   1.219   6.012   3.186  0.0142  0.6350 -0.4240
   57CHL1  H19A 5365   1.262   6.104   3.233  2.6703 -1.0963  0.7887
   57CHL1  H19B 5366   1.246   5.934   3.260  2.7493  2.2647  0.4438
   57CHL1  H19C 5367   1.285   5.982   3.102 -1.2512 -2.4792 -0.4082
   57CHL1    C1 5368   1.013   5.900   3.083 -0.2325 -0.0465 -1.0071
   57CHL1   H1A 5369   1.032   5.826   3.163  1.9529  2.9920  1.5359
   57CHL1   H1B 5370   0.906   5.914   3.059 -1.1731 -1.7199  1.8317
   57CHL1    C2 5371   1.087   5.845   2.956 -0.0894 -0.3442  0.5970
   57CHL1   H2A 5372   1.027   5.760   2.917  1.3624 -0.5880 -1.2998
   57CHL1   H2B 5373   1.191   5.810   2.974 -0.1528 -1.9594 -1.6590
   57CHL1   C20 5374   0.917   6.265   3.782 -0.0601 -0.0374 -0.6308
   57CHL1   H20 5375   1.017   6.308   3.805 -0.5578  0.7335  0.1602
   57CHL1   C21 5376   0.930   6.116   3.831 -0.0536  0.1370  0.2168
   57CHL1  H21A 5377   0.841   6.062   3.794 -0.1761 -0.9632  1.9901
   57CHL1  H21B 5378   0.943   6.115   3.942  2.2575  0.9793  0.0051
   57CHL1  H21C 5379   1.021   6.066   3.791  1.4261  0.7491  2.6010
   57CHL1   C22 5380   0.816   6.341   3.872  0.0053 -0.1456 -0.3485
   57CHL1  H22A 5381   0.805   6.441   3.824  5.7651 -0.1096 -2.5060
   57CHL1  H22B 5382   0.719   6.288   3.872 -0.5704  0.8504  1.0156
   57CHL1   C23 5383   0.865   6.370   4.012 -0.3599 -0.6750  0.2767
   57CHL1  H23A 5384   0.845   6.275   4.066 -0.0846 -2.1523 -2.0568
   57CHL1  H23B 5385   0.973   6.395   4.020 -0.2491 -1.1505  0.2953
   57CHL1   C24 5386   0.777   6.483   4.080 -0.0756  0.1468 -0.7390
   57CHL1  H24A 5387   0.787   6.587   4.041 -0.6973  0.4405 -0.1379
   57CHL1  H24B 5388   0.669   6.460   4.065 -0.2101 -0.1880  0.6481
   57CHL1   C25 5389   0.806   6.493   4.236  0.0527 -0.4997  0.2550
   57CHL1   H25 5390   0.805   6.390   4.277  0.5348 -0.2174  1.0069
   57CHL1   C26 5391   0.947   6.544   4.261 -0.0695  0.6737  0.0627
   57CHL1  H26A 5392   1.019   6.476   4.212  0.4184  0.6160  0.8467
   57CHL1  H26B 5393   0.973   6.643   4.217  0.5955 -0.1485 -1.4349
   57CHL1  H26C 5394   0.957   6.544   4.372  0.4990 -0.6835  0.0279
   57CHL1   C27 5395   0.699   6.590   4.295 -0.6718 -0.3217 -0.2943
   57CHL1  H27A 5396   0.703   6.689   4.246  1.6763  0.2956  1.0018
   57CHL1  H27B 5397   0.597   6.549   4.278 -0.9708  0.0169  0.6527
   57CHL1  H27C 5398   0.715   6.583   4.404 -0.6219  0.0435 -0.2766
   58CHL1    C3 5399   6.874   5.552   2.655  0.4002 -0.0081 -0.3936
   58CHL1    H3 5400   6.865   5.441   2.659  0.8025 -0.0056  1.0910
   58CHL1    O3 5401   6.888   5.596   2.520  0.2087 -0.2031 -0.4610
   58CHL1   H3' 5402   6.938   5.528   2.474 -2.8207 -3.2188  0.2684
   58CHL1    C4 5403   6.749   5.613   2.731 -0.0361  1.0391  0.5033
   58CHL1   H4A 5404   6.757   5.721   2.710  1.1285  0.8334 -0.2287
   58CHL1   H4B 5405   6.657   5.582   2.678  1.0943 -1.2569 -0.2622
   58CHL1    C5 5406   6.751   5.583   2.881  0.9188  0.0280 -1.4367
   58CHL1    C6 5407   6.655   5.519   2.955 -0.2918 -0.5253  1.1784
   58CHL1    H6 5408   6.566   5.478   2.904 -0.5708  2.1106 -0.6393
   58CHL1    C7 5409   6.662   5.511   3.100  0.4707 -0.0644 -0.8710
   58CHL1   H7A 5410   6.560   5.518   3.143  0.6069  0.9285 -0.6958
   58CHL1   H7B 5411   6.693   5.408   3.129 -0.4628 -0.2766 -0.6101
   58CHL1    C8 5412   6.763   5.596   3.173 -0.1763  0.5241 -0.5117
   58CHL1    H8 5413   6.718   5.697   3.166  1.8121  1.3438 -3.8336
   58CHL1   C14 5414   6.790   5.545   3.312 -0.4495  0.2171  0.1424
   58CHL1   H14 5415   6.824   5.439   3.302 -1.3976  0.1369 -3.6257
   58CHL1   C15 5416   6.664   5.520   3.397  0.0023  0.8336  0.9992
   58CHL1  H15A 5417   6.589   5.601   3.382 -1.3511  0.2696  3.9573
   58CHL1  H15B 5418   6.613   5.428   3.360 -0.2226  0.6733  1.6766
   58CHL1   C16 5419   6.717   5.512   3.542  0.2070  0.3844 -0.2799
   58CHL1  H16A 5420   6.648   5.575   3.603  0.8463  0.6388  0.1956
   58CHL1  H16B 5421   6.716   5.410   3.586 -0.3482  0.5026  0.0010
   58CHL1   C17 5422   6.871   5.557   3.540  1.0842  0.3420  0.0408
   58CHL1   H17 5423   6.924   5.460   3.534 -2.1326 -1.6407  0.8543
   58CHL1   C13 5424   6.884   5.632   3.403 -0.8817 -0.1874 -0.1259
   58CHL1   C18 5425   6.818   5.773   3.429  0.0679  0.3701 -0.5471
   58CHL1  H18A 5426   6.770   5.807   3.335  0.4813  0.4358 -0.7356
   58CHL1  H18B 5427   6.735   5.778   3.503  1.0035  0.9808  0.4880
   58CHL1  H18C 5428   6.898   5.840   3.467  0.1062 -0.2039  0.4188
   58CHL1   C12 5429   7.022   5.637   3.328  0.4493 -0.7273 -0.0203
   58CHL1  H12A 5430   7.090   5.714   3.370  0.1789  0.4025 -1.5421
   58CHL1  H12B 5431   7.079   5.543   3.346  3.5789  1.4260  2.4411
   58CHL1   C11 5432   7.000   5.683   3.177 -0.3291  0.4165  0.1547
   58CHL1  H11A 5433   6.970   5.789   3.193  1.2532  0.9958 -0.5014
   58CHL1  H11B 5434   7.097   5.693   3.123 -1.3454  1.6382 -1.5597
   58CHL1    C9 5435   6.899   5.601   3.092  0.0163 -0.2275  0.0724
   58CHL1    H9 5436   6.942   5.498   3.098  1.3922  0.2670 -0.8215
   58CHL1   C10 5437   6.881   5.631   2.938  0.6371 -0.2880 -0.9891
   58CHL1   C19 5438   6.882   5.784   2.934  0.3564  0.5442 -0.2884
   58CHL1  H19A 5439   6.890   5.825   2.830  0.3728  0.9905 -0.1164
   58CHL1  H19B 5440   6.786   5.825   2.974  0.3612 -0.7324  1.1032
   58CHL1  H19C 5441   6.960   5.833   2.996 -1.7452  0.7918  2.3427
   58CHL1    C1 5442   7.011   5.575   2.873 -0.3251  0.4736  0.5727
   58CHL1   H1A 5443   7.094   5.632   2.919  0.8491 -0.9925  0.3471
   58CHL1   H1B 5444   7.027   5.467   2.895  2.0092  0.4017 -1.1079
   58CHL1    C2 5445   7.009   5.588   2.721  0.1240 -0.0716 -0.1669
   58CHL1   H2A 5446   7.082   5.517   2.677  0.0251  1.1784 -2.4905
   58CHL1   H2B 5447   7.038   5.692   2.696  2.5644 -0.8984 -1.0043
   58CHL1   C20 5448   6.914   5.626   3.675  0.1879  0.1269  0.3180
   58CHL1   H20 5449   6.854   5.715   3.701  0.6874  1.2298 -2.0435
   58CHL1   C21 5450   7.063   5.665   3.657 -0.1202 -0.0351  0.1194
   58CHL1  H21A 5451   7.093   5.701   3.757 -0.1538 -0.5439  0.3155
   58CHL1  H21B 5452   7.073   5.751   3.587  3.5798 -2.2210 -2.4101
   58CHL1  H21C 5453   7.128   5.586   3.613  0.0652  1.5575 -2.7150
   58CHL1   C22 5454   6.900   5.522   3.792 -0.1525  0.0169  0.3246
   58CHL1  H22A 5455   6.798   5.478   3.798 -0.1134 -0.3206 -1.0134
   58CHL1  H22B 5456   6.965   5.438   3.762  1.8381  0.3758  3.2674
   58CHL1   C23 5457   6.932   5.577   3.933 -1.0426  0.3551 -0.1179
   58CHL1  H23A 5458   7.039   5.604   3.945 -0.3919 -2.6113  1.8986
   58CHL1  H23B 5459   6.873   5.670   3.948  0.8532  1.4332  0.9722
   58CHL1   C24 5460   6.884   5.484   4.038 -0.6547 -0.1641  0.2570
   58CHL1  H24A 5461   6.787   5.434   4.018 -0.6039 -1.3903  2.7151
   58CHL1  H24B 5462   6.958   5.404   4.057  0.5965  1.2531  1.6676
   58CHL1   C25 5463   6.865   5.557   4.173  0.4231 -0.0110 -0.2092
   58CHL1   H25 5464   6.782   5.631   4.167 -1.8052 -2.2941  0.5882
   58CHL1   C26 5465   6.824   5.448   4.280  0.3039 -1.1356 -0.6542
   58CHL1  H26A 5466   6.858   5.497   4.373  0.1942 -0.3638 -1.0061
   58CHL1  H26B 5467   6.717   5.416   4.276  0.6110 -2.6320  1.4606
   58CHL1  H26C 5468   6.886   5.356   4.275 -1.2281 -2.2487  0.1517
   58CHL1   C27 5469   7.001   5.618   4.207 -0.2998 -0.5211  1.0560
   58CHL1  H27A 5470   7.008   5.651   4.312 -1.1560  0.0752  0.9299
   58CHL1  H27B 5471   7.087   5.555   4.175 -0.3115  0.7262 -1.7581
   58CHL1  H27C 5472   7.008   5.712   4.149  0.5481 -0.2549  1.5732
   59CHL1    C3 5473   4.008   2.217   2.825  0.1884  0.1519 -0.3301
   59CHL1    H3 5474   3.915   2.275   2.847  0.7831  0.6817  0.8577
   59CHL1    O3 5475   4.030   2.210   2.685  0.4702 -0.2765  0.1918
   59CHL1   H3' 5476   4.101   2.274   2.672  0.2617 -0.0285  0.2758
   59CHL1    C4 5477   4.121   2.284   2.911 -0.0349  0.5146 -0.8169
   59CHL1   H4A 5478   4.220   2.252   2.873 -0.6974 -1.4713 -0.9799
   59CHL1   H4B 5479   4.110   2.392   2.888 -2.1684  0.1181 -1.8575
   59CHL1    C5 5480   4.110   2.245   3.056  0.1729  0.1012 -0.2123
   59CHL1    C6 5481   4.101   2.340   3.148 -0.2361 -0.2189 -0.1207
   59CHL1    H6 5482   4.110   2.443   3.110  1.4893 -0.1871  0.2592
   59CHL1    C7 5483   4.097   2.322   3.294 -0.8164 -1.0141  0.1024
   59CHL1   H7A 5484   4.145   2.402   3.353 -0.9039  0.3961 -1.6442
   59CHL1   H7B 5485   3.988   2.328   3.313 -0.9143  1.5540 -0.8187
   59CHL1    C8 5486   4.140   2.183   3.342  0.4231  0.4035  0.7767
   59CHL1    H8 5487   4.248   2.166   3.325  0.0823 -0.5539 -0.6335
   59CHL1   C14 5488   4.102   2.162   3.483 -0.4439  0.1131 -0.4336
   59CHL1   H14 5489   3.992   2.179   3.486 -0.2393  2.0166 -1.7657
   59CHL1   C15 5490   4.151   2.263   3.587 -0.0657  0.0366 -0.1475
   59CHL1  H15A 5491   4.262   2.259   3.582 -0.0429 -2.8325  0.9769
   59CHL1  H15B 5492   4.112   2.367   3.589  0.9068  0.3991  1.5532
   59CHL1   C16 5493   4.118   2.190   3.722  0.2510 -0.0538  0.6096
   59CHL1  H16A 5494   4.208   2.189   3.787 -1.0137  1.3706  2.4761
   59CHL1  H16B 5495   4.031   2.246   3.761  0.6831  1.8279 -0.9598
   59CHL1   C17 5496   4.073   2.049   3.682  0.5934 -0.1647  0.4919
   59CHL1   H17 5497   3.963   2.051   3.667  0.2571  3.5066  2.2482
   59CHL1   C13 5498   4.132   2.023   3.538  0.1384 -0.2093 -0.4191
   59CHL1   C18 5499   4.286   1.988   3.551  0.3623 -0.8086 -0.0359
   59CHL1  H18A 5500   4.338   2.009   3.454  0.9222  0.2807  0.4828
   59CHL1  H18B 5501   4.342   2.040   3.631 -0.5352  0.7981 -0.3988
   59CHL1  H18C 5502   4.295   1.883   3.584  0.3536  0.1267  3.2486
   59CHL1   C12 5503   4.061   1.922   3.453  0.0867 -0.1889 -0.3758
   59CHL1  H12A 5504   4.084   1.818   3.485  0.5421 -0.3817 -1.3185
   59CHL1  H12B 5505   3.952   1.941   3.465  0.4686  1.6904  0.5036
   59CHL1   C11 5506   4.098   1.940   3.306 -0.3521  0.3510  0.2286
   59CHL1  H11A 5507   4.202   1.908   3.284 -0.8486 -0.7364 -0.6004
   59CHL1  H11B 5508   4.033   1.866   3.256 -0.3490  0.3978  0.1563
   59CHL1    C9 5509   4.074   2.077   3.251 -0.1105  0.0479 -0.6724
   59CHL1    H9 5510   3.964   2.082   3.266  0.1233 -0.1197  1.4876
   59CHL1   C10 5511   4.099   2.095   3.095  0.1202 -0.3769 -0.5153
   59CHL1   C19 5512   4.234   2.029   3.050  0.2592  0.6989 -0.6000
   59CHL1  H19A 5513   4.316   2.075   3.109 -0.8337 -0.1210  1.6630
   59CHL1  H19B 5514   4.219   1.921   3.070  0.0739  1.0274  1.1731
   59CHL1  H19C 5515   4.241   2.041   2.940  1.9144 -2.8200 -0.9959
   59CHL1    C1 5516   3.977   2.039   3.009 -0.3288  0.2069  0.0665
   59CHL1   H1A 5517   3.969   1.930   3.031  0.3999 -0.3937 -2.2927
   59CHL1   H1B 5518   3.884   2.084   3.049 -0.9118  0.2340 -1.2618
   59CHL1    C2 5519   3.991   2.064   2.861 -0.1550 -0.6151  0.3360
   59CHL1   H2A 5520   3.901   2.028   2.808  1.5974 -2.1227 -1.8033
   59CHL1   H2B 5521   4.080   2.011   2.821  0.9096  0.2842  1.4224
   59CHL1   C20 5522   4.107   1.945   3.786  0.1720  0.0874 -0.4750
   59CHL1   H20 5523   4.216   1.956   3.804 -0.2410  1.8862  1.2651
   59CHL1   C21 5524   4.079   1.798   3.739 -0.1494 -0.2644 -0.1524
   59CHL1  H21A 5525   4.097   1.729   3.824  0.3653  0.5418  0.4142
   59CHL1  H21B 5526   4.156   1.761   3.669 -0.0726 -1.9666  0.7813
   59CHL1  H21C 5527   3.973   1.780   3.711 -0.3797  0.0598  0.4755
   59CHL1   C22 5528   4.048   1.966   3.923  0.4824 -0.3671 -0.5859
   59CHL1  H22A 5529   4.027   2.074   3.937  1.1410 -0.0337 -1.8888
   59CHL1  H22B 5530   3.951   1.913   3.924  0.1836  0.1745  0.8304
   59CHL1   C23 5531   4.119   1.901   4.042 -0.4201  0.1609  0.9509
   59CHL1  H23A 5532   4.052   1.910   4.131 -1.2083 -1.3749  0.5515
   59CHL1  H23B 5533   4.130   1.793   4.022 -0.3850  0.3561 -0.1390
   59CHL1   C24 5534   4.255   1.965   4.075 -0.0668 -0.1993 -0.1371
   59CHL1  H24A 5535   4.324   1.972   3.988 -0.6007 -0.8560 -0.6315
   59CHL1  H24B 5536   4.241   2.073   4.092 -1.0029  0.1129 -2.4579
   59CHL1   C25 5537   4.324   1.892   4.198 -0.4934 -0.3481 -0.3107
   59CHL1   H25 5538   4.422   1.944   4.203 -0.5681 -0.2660  0.3911
   59CHL1   C26 5539   4.262   1.922   4.343 -0.0659 -0.3992  0.9585
   59CHL1  H26A 5540   4.151   1.929   4.348  0.0056 -0.1333  2.8376
   59CHL1  H26B 5541   4.295   1.850   4.420  0.4105  0.4820  1.5918
   59CHL1  H26C 5542   4.294   2.023   4.376 -1.2660 -0.6152  2.9109
   59CHL1   C27 5543   4.354   1.745   4.171 -0.0534 -0.1141  0.1902
   59CHL1  H27A 5544   4.412   1.706   4.256 -2.1128  0.7091  2.0722
   59CHL1  H27B 5545   4.258   1.689   4.175 -0.9382  1.1368 -1.6544
   59CHL1  H27C 5546   4.421   1.737   4.083  1.0961 -0.7533  1.1023
   60CHL1    C3 5547   1.221   5.359   2.997  0.2306 -0.5603  0.3826
   60CHL1    H3 5548   1.309   5.426   2.989 -0.6152  0.6114  0.5996
   60CHL1    O3 5549   1.211   5.288   2.878 -0.5413 -0.5941  0.2379
   60CHL1   H3' 5550   1.156   5.214   2.906 -2.3730  0.2920 -0.7741
   60CHL1    C4 5551   1.248   5.260   3.110 -0.2623  0.0247 -0.0585
   60CHL1   H4A 5552   1.176   5.176   3.093 -0.9575  0.5556  0.2247
   60CHL1   H4B 5553   1.347   5.216   3.085 -0.6163  0.4997 -2.4549
   60CHL1    C5 5554   1.239   5.318   3.246 -0.4952 -0.2295 -0.3275
   60CHL1    C6 5555   1.344   5.312   3.330 -0.0641  0.0918  0.7617
   60CHL1    H6 5556   1.434   5.258   3.297 -1.6864 -0.3038 -3.8877
   60CHL1    C7 5557   1.342   5.365   3.467 -0.6608 -0.1058 -0.5646
   60CHL1   H7A 5558   1.375   5.288   3.540 -1.2189 -0.0531 -0.2488
   60CHL1   H7B 5559   1.423   5.440   3.478 -0.3314 -0.6550  1.0458
   60CHL1    C8 5560   1.202   5.407   3.515 -0.4738 -0.0723  0.5394
   60CHL1    H8 5561   1.137   5.318   3.530 -1.7139  0.9663  1.5117
   60CHL1   C14 5562   1.210   5.497   3.640  0.3761  0.4072  0.7019
   60CHL1   H14 5563   1.250   5.587   3.588 -0.7052  0.5191  0.0365
   60CHL1   C15 5564   1.306   5.457   3.752  0.3324 -0.0907  0.1847
   60CHL1  H15A 5565   1.322   5.347   3.761 -1.7483 -0.4130  0.6563
   60CHL1  H15B 5566   1.406   5.503   3.740  0.2602  0.2175  0.7349
   60CHL1   C16 5567   1.231   5.504   3.874 -0.4477  0.1079  0.1172
   60CHL1  H16A 5568   1.195   5.417   3.933  3.8265 -3.2349 -1.6451
   60CHL1  H16B 5569   1.302   5.565   3.934 -2.7860  1.1553  1.9920
   60CHL1   C17 5570   1.110   5.596   3.827 -0.1045 -0.9333  0.1487
   60CHL1   H17 5571   1.156   5.695   3.806 -0.3095 -0.7764  0.4298
   60CHL1   C13 5572   1.071   5.529   3.698 -0.0100  0.3363  0.2600
   60CHL1   C18 5573   0.995   5.398   3.725  0.1803 -0.2191 -0.0218
   60CHL1  H18A 5574   0.982   5.340   3.631  0.6478  0.2654 -0.3921
   60CHL1  H18B 5575   1.034   5.334   3.807 -1.2836 -2.4808 -0.9893
   60CHL1  H18C 5576   0.888   5.417   3.747  0.4964  0.7617  0.7417
   60CHL1   C12 5577   1.005   5.615   3.591 -0.5808  0.0864 -0.3115
   60CHL1  H12A 5578   0.909   5.659   3.622 -1.0049 -0.2399 -1.1180
   60CHL1  H12B 5579   1.070   5.702   3.565 -0.3940 -0.4991 -1.9844
   60CHL1   C11 5580   0.986   5.545   3.457 -0.7876  0.4528  0.2733
   60CHL1  H11A 5581   0.909   5.465   3.464 -0.1338 -0.1281  1.0264
   60CHL1  H11B 5582   0.949   5.617   3.382 -2.4518  0.2130  0.8197
   60CHL1    C9 5583   1.124   5.485   3.400  0.5587 -0.1454  0.6123
   60CHL1    H9 5584   1.192   5.565   3.364 -0.3673 -1.1104 -4.0022
   60CHL1   C10 5585   1.105   5.400   3.273  0.1779  0.3599  0.6391
   60CHL1   C19 5586   0.987   5.304   3.295 -0.6214 -0.4595  0.4766
   60CHL1  H19A 5587   0.988   5.229   3.213  1.6053  0.3535 -0.3322
   60CHL1  H19B 5588   1.001   5.239   3.384 -2.6745  0.3128  1.4331
   60CHL1  H19C 5589   0.894   5.364   3.283  0.3902  0.5796 -3.7056
   60CHL1    C1 5590   1.081   5.503   3.155 -0.7137 -0.0850  0.6549
   60CHL1   H1A 5591   0.981   5.550   3.165 -1.4549 -1.8163  1.8858
   60CHL1   H1B 5592   1.162   5.578   3.170 -1.3432  0.4009  1.7985
   60CHL1    C2 5593   1.092   5.440   3.017  0.0433  0.3993  0.2905
   60CHL1   H2A 5594   1.075   5.508   2.931  0.1311  0.0977  0.0340
   60CHL1   H2B 5595   1.009   5.366   3.020 -1.0597  1.5681  3.1236
   60CHL1   C20 5596   0.999   5.612   3.934  0.2830  0.2073 -0.0263
   60CHL1   H20 5597   0.942   5.517   3.940 -1.2194  0.9159 -1.9289
   60CHL1   C21 5598   0.888   5.707   3.896  0.7468  0.4024 -0.6303
   60CHL1  H21A 5599   0.926   5.804   3.857 -0.5890  1.0950 -0.2443
   60CHL1  H21B 5600   0.825   5.731   3.984 -0.2753  0.7232 -1.4281
   60CHL1  H21C 5601   0.833   5.665   3.809  2.3957 -0.5773 -1.2539
   60CHL1   C22 5602   1.051   5.643   4.070  0.0047 -0.4044 -0.5646
   60CHL1  H22A 5603   0.955   5.645   4.125  0.6618  1.8947  0.6305
   60CHL1  H22B 5604   1.109   5.557   4.109 -1.3502 -1.5758 -1.0449
   60CHL1   C23 5605   1.149   5.768   4.083 -0.1587 -0.2842  0.0543
   60CHL1  H23A 5606   1.240   5.732   4.030  0.4452 -0.4788  1.1887
   60CHL1  H23B 5607   1.107   5.856   4.030 -1.1203  0.2547  1.6441
   60CHL1   C24 5608   1.181   5.811   4.239 -0.2306  1.0798  0.5759
   60CHL1  H24A 5609   1.084   5.835   4.286 -1.5368  0.4772 -1.6407
   60CHL1  H24B 5610   1.216   5.719   4.292 -0.7924  1.1635  1.0926
   60CHL1   C25 5611   1.282   5.927   4.248 -0.0484 -0.1761 -0.1073
   60CHL1   H25 5612   1.246   5.996   4.169  0.2469 -1.4715 -1.4290
   60CHL1   C26 5613   1.268   5.992   4.388 -0.7625  0.2767  0.5229
   60CHL1  H26A 5614   1.159   6.001   4.406 -0.3270  1.1292  3.1396
   60CHL1  H26B 5615   1.302   5.924   4.469 -0.3574  0.1436  0.2449
   60CHL1  H26C 5616   1.327   6.085   4.387 -1.3347  0.6556 -1.2143
   60CHL1   C27 5617   1.428   5.887   4.206  0.2635 -0.5110 -0.3150
   60CHL1  H27A 5618   1.424   5.860   4.098  1.0059  1.2232 -0.8113
   60CHL1  H27B 5619   1.490   5.979   4.213 -3.0045  1.7111  2.7929
   60CHL1  H27C 5620   1.478   5.815   4.275  3.0813  3.7070  2.5400
   61CHL1    C3 5621   1.009   0.011   2.882 -0.6305 -0.0298 -0.1454
   61CHL1    H3 5622   0.964   0.111   2.863 -0.8109 -0.0384  0.2114
   61CHL1    O3 5623   1.080  -0.019   2.764  0.7062  0.3947  0.1157
   61CHL1   H3' 5624   1.018  -0.029   2.692  1.1066  0.2137 -0.2108
   61CHL1    C4 5625   1.106   0.017   2.997  0.1957  0.6288 -0.2235
   61CHL1   H4A 5626   1.160  -0.079   3.002 -2.7888 -1.2583 -1.3933
   61CHL1   H4B 5627   1.175   0.100   2.972  2.3537 -0.1184  2.6776
   61CHL1    C5 5628   1.046   0.040   3.137  0.1059 -0.5412  1.0739
   61CHL1    C6 5629   1.077   0.142   3.218  1.0349 -0.1939  0.4401
   61CHL1    H6 5630   1.158   0.214   3.201  0.2711  1.2143  2.4632
   61CHL1    C7 5631   1.003   0.179   3.340 -0.2484 -0.4556  0.0245
   61CHL1   H7A 5632   1.072   0.217   3.418  0.1494  1.8419 -1.3497
   61CHL1   H7B 5633   0.943   0.272   3.323  1.2280  0.6633  0.6853
   61CHL1    C8 5634   0.905   0.066   3.387  0.2498 -1.0584  0.3685
   61CHL1    H8 5635   0.964  -0.016   3.433 -2.7315 -2.4005  2.0327
   61CHL1   C14 5636   0.808   0.129   3.489 -0.0680  0.7642 -0.4284
   61CHL1   H14 5637   0.737   0.198   3.439  0.2286  0.0614 -1.8800
   61CHL1   C15 5638   0.870   0.202   3.607  0.8187  0.2548  0.8171
   61CHL1  H15A 5639   0.953   0.148   3.658  0.2598 -0.4566  0.9764
   61CHL1  H15B 5640   0.902   0.304   3.576  0.6254  0.2803  0.6996
   61CHL1   C16 5641   0.764   0.210   3.713 -0.2332 -0.0729  0.1566
   61CHL1  H16A 5642   0.819   0.185   3.806  2.5270 -1.5379 -1.7163
   61CHL1  H16B 5643   0.713   0.308   3.728 -1.8548 -0.5101 -1.9772
   61CHL1   C17 5644   0.655   0.114   3.669  0.3974 -0.5122 -0.5180
   61CHL1   H17 5645   0.572   0.170   3.622 -0.7001 -0.6090  1.2167
   61CHL1   C13 5646   0.721   0.021   3.560 -0.0976 -0.0394 -0.0206
   61CHL1   C18 5647   0.798  -0.096   3.624 -0.1409 -0.6034 -0.4126
   61CHL1  H18A 5648   0.728  -0.179   3.647 -0.8259  0.4208  1.3843
   61CHL1  H18B 5649   0.867  -0.144   3.551 -0.1717 -0.8989 -0.2498
   61CHL1  H18C 5650   0.846  -0.062   3.718 -0.6304 -2.3098  0.4844
   61CHL1   C12 5651   0.636  -0.028   3.438  0.7674  0.6930  0.0570
   61CHL1  H12A 5652   0.567  -0.114   3.455  1.4918 -0.1556 -1.1283
   61CHL1  H12B 5653   0.565   0.049   3.400 -0.1209  0.2915  0.8700
   61CHL1   C11 5654   0.718  -0.086   3.319  0.0703 -0.0721  0.5322
   61CHL1  H11A 5655   0.753  -0.181   3.364 -1.3328 -0.0912  1.6334
   61CHL1  H11B 5656   0.644  -0.111   3.239  0.7618  0.6501 -0.3601
   61CHL1    C9 5657   0.825   0.013   3.273  0.6449  0.8748  1.0072
   61CHL1    H9 5658   0.771   0.098   3.226  0.5569  1.4711  2.1543
   61CHL1   C10 5659   0.918  -0.048   3.159  0.2937 -1.5022 -0.0923
   61CHL1   C19 5660   0.963  -0.186   3.211 -0.2570  0.2220  0.2630
   61CHL1  H19A 5661   1.046  -0.231   3.151 -0.8295  1.7696 -1.8218
   61CHL1  H19B 5662   1.002  -0.160   3.312  1.7781 -1.9351  0.1156
   61CHL1  H19C 5663   0.883  -0.262   3.219 -0.4478  0.5129  1.2125
   61CHL1    C1 5664   0.833  -0.072   3.029 -0.2456 -0.2122 -0.4821
   61CHL1   H1A 5665   0.764  -0.155   3.054  0.5111  0.0663  2.9766
   61CHL1   H1B 5666   0.776   0.023   3.025  0.9769  0.6056  0.5378
   61CHL1    C2 5667   0.908  -0.102   2.902 -0.1590 -0.3373  0.8514
   61CHL1   H2A 5668   0.836  -0.118   2.819  0.3092 -1.3566  0.6281
   61CHL1   H2B 5669   0.967  -0.194   2.925  1.5533  0.5915  0.3033
   61CHL1   C20 5670   0.589   0.046   3.797  0.5761  0.2407 -0.1542
   61CHL1   H20 5671   0.669  -0.011   3.849  1.7359  1.4085 -0.5852
   61CHL1   C21 5672   0.473  -0.045   3.762  0.2513  0.3202  0.1622
   61CHL1  H21A 5673   0.409   0.001   3.684 -0.6251 -0.8346  0.1847
   61CHL1  H21B 5674   0.410  -0.083   3.844 -1.6868 -2.4026 -2.3935
   61CHL1  H21C 5675   0.515  -0.141   3.725 -2.0834 -0.4620 -0.5958
   61CHL1   C22 5676   0.546   0.138   3.919 -0.7958 -0.5053 -0.0278
   61CHL1  H22A 5677   0.596   0.237   3.921 -0.1696 -0.8326  1.0425
   61CHL1  H22B 5678   0.438   0.160   3.910 -0.8845 -0.3446  1.2272
   61CHL1   C23 5679   0.575   0.071   4.053 -0.6709 -0.4242  0.8077
   61CHL1  H23A 5680   0.501  -0.010   4.066 -2.1611  1.0156  1.6423
   61CHL1  H23B 5681   0.679   0.030   4.053  0.6137  2.5211 -0.5966
   61CHL1   C24 5682   0.543   0.164   4.165 -0.5337 -0.2750  0.2119
   61CHL1  H24A 5683   0.610   0.251   4.145 -1.3437 -0.2226 -2.5734
   61CHL1  H24B 5684   0.435   0.190   4.162 -0.8573 -1.6661 -1.7601
   61CHL1   C25 5685   0.560   0.099   4.300 -0.2733  0.0202  0.6716
   61CHL1   H25 5686   0.645   0.029   4.294 -1.7500 -1.7351 -2.9864
   61CHL1   C26 5687   0.571   0.206   4.408  0.1799  0.5454 -0.2105
   61CHL1  H26A 5688   0.561   0.166   4.511  1.2320  3.9980  1.3859
   61CHL1  H26B 5689   0.665   0.264   4.402  0.3906  0.3410  0.9482
   61CHL1  H26C 5690   0.492   0.283   4.395  1.5137  2.2821  1.4077
   61CHL1   C27 5691   0.443  -0.001   4.335  0.2713 -0.4005 -0.0576
   61CHL1  H27A 5692   0.354   0.059   4.307  1.2416  1.2290  0.1722
   61CHL1  H27B 5693   0.452  -0.092   4.273 -0.2326 -0.9604  0.6720
   61CHL1  H27C 5694   0.435  -0.011   4.445  0.2880 -0.3788 -0.0547
   62CHL1    C3 5695   6.674   3.840   2.946 -0.1687 -0.3802 -0.2693
   62CHL1    H3 5696   6.731   3.932   2.968 -2.0526  1.1329 -1.3808
   62CHL1    O3 5697   6.739   3.806   2.825  0.1754  0.3174  0.1419
   62CHL1   H3' 5698   6.726   3.877   2.761 -0.5047  0.0648 -0.0109
   62CHL1    C4 5699   6.692   3.718   3.052 -0.3763  0.0267  0.8427
   62CHL1   H4A 5700   6.651   3.621   3.015  0.0563  0.1664 -0.0577
   62CHL1   H4B 5701   6.796   3.680   3.064 -0.5136 -1.5296 -2.0212
   62CHL1    C5 5702   6.619   3.753   3.181 -0.2741 -0.0676  0.3624
   62CHL1    C6 5703   6.687   3.755   3.295 -0.0847 -0.1589  0.3418
   62CHL1    H6 5704   6.793   3.727   3.295  0.1619  0.7093  1.5701
   62CHL1    C7 5705   6.620   3.794   3.420  0.2849  0.8326  0.0477
   62CHL1   H7A 5706   6.651   3.716   3.492  1.6834 -1.0015 -2.3716
   62CHL1   H7B 5707   6.656   3.893   3.455  0.4927  0.4867  0.8329
   62CHL1    C8 5708   6.457   3.793   3.420 -0.5894 -0.1904  0.3252
   62CHL1    H8 5709   6.421   3.688   3.420 -2.9871  0.5761  1.3055
   62CHL1   C14 5710   6.405   3.852   3.554 -0.5760 -0.1727  0.3599
   62CHL1   H14 5711   6.437   3.959   3.558 -2.5442  0.5532 -1.2303
   62CHL1   C15 5712   6.443   3.792   3.685  0.3634 -0.1054  0.0857
   62CHL1  H15A 5713   6.432   3.682   3.680 -1.2230  0.0671 -0.8532
   62CHL1  H15B 5714   6.548   3.815   3.714  0.5389 -2.6628  1.7800
   62CHL1   C16 5715   6.351   3.872   3.776  0.1717  0.2345  0.2374
   62CHL1  H16A 5716   6.344   3.825   3.877  1.3496  1.9784  1.1788
   62CHL1  H16B 5717   6.404   3.968   3.795  0.6273  0.1256 -0.4812
   62CHL1   C17 5718   6.219   3.918   3.700 -0.4112  0.0630  0.2208
   62CHL1   H17 5719   6.212   4.026   3.676 -3.6522 -0.7066 -3.1888
   62CHL1   C13 5720   6.248   3.865   3.554 -0.6677 -0.2768  1.0141
   62CHL1   C18 5721   6.181   3.727   3.544 -0.1768 -1.1873 -0.0007
   62CHL1  H18A 5722   6.231   3.657   3.614 -0.1904  0.3467  1.6287
   62CHL1  H18B 5723   6.072   3.732   3.564 -0.4681 -1.3703 -1.4064
   62CHL1  H18C 5724   6.190   3.687   3.441  1.0110 -0.2041 -0.3048
   62CHL1   C12 5725   6.213   3.960   3.439 -0.6112  0.0315 -0.3347
   62CHL1  H12A 5726   6.106   3.989   3.432 -1.0538 -1.4652 -0.2242
   62CHL1  H12B 5727   6.267   4.056   3.453  1.0845 -0.9153 -0.2495
   62CHL1   C11 5728   6.262   3.909   3.294  0.0203 -0.3270  0.2805
   62CHL1  H11A 5729   6.202   3.824   3.255  0.7633 -1.3347  1.2746
   62CHL1  H11B 5730   6.245   3.990   3.219  0.4342 -1.3645 -0.9685
   62CHL1    C9 5731   6.413   3.871   3.297  0.5449  0.8027  0.1119
   62CHL1    H9 5732   6.464   3.969   3.311 -0.9588  1.8043 -1.0948
   62CHL1   C10 5733   6.468   3.805   3.162 -0.2549  0.0275 -0.7743
   62CHL1   C19 5734   6.397   3.669   3.135 -0.5686  0.4417  0.3057
   62CHL1  H19A 5735   6.435   3.594   3.061 -0.6935 -0.6915  1.3537
   62CHL1  H19B 5736   6.359   3.619   3.227 -3.7912  0.5464 -0.8266
   62CHL1  H19C 5737   6.300   3.697   3.088 -1.7712  0.3003  2.5888
   62CHL1    C1 5738   6.453   3.907   3.044  0.7744  0.5716  0.6566
   62CHL1   H1A 5739   6.345   3.915   3.022  0.2586 -4.1557  0.4361
   62CHL1   H1B 5740   6.486   4.010   3.070  0.9881  0.9998 -1.1694
   62CHL1    C2 5741   6.531   3.867   2.914  0.2168  0.1891 -0.1559
   62CHL1   H2A 5742   6.516   3.938   2.830 -1.3082 -3.3509 -3.1797
   62CHL1   H2B 5743   6.480   3.777   2.872 -0.2379  0.7431 -0.8097
   62CHL1   C20 5744   6.086   3.880   3.765  0.9061  0.2972 -0.2854
   62CHL1   H20 5745   6.074   3.771   3.783 -0.5960  0.8443  2.7320
   62CHL1   C21 5746   5.966   3.933   3.684 -0.1480  0.2569  0.8174
   62CHL1  H21A 5747   5.873   3.907   3.740  0.3975 -0.0753  1.5902
   62CHL1  H21B 5748   5.962   3.884   3.584  0.4501  0.2618  0.7915
   62CHL1  H21C 5749   5.972   4.043   3.671 -2.4124  0.6797  2.5739
   62CHL1   C22 5750   6.076   3.943   3.906 -0.3557 -0.2888 -0.0188
   62CHL1  H22A 5751   6.168   3.990   3.947 -1.2000  1.2209  0.1975
   62CHL1  H22B 5752   6.009   4.027   3.881  0.8115  0.3588 -1.0861
   62CHL1   C23 5753   5.997   3.854   4.009  0.1964 -0.0811 -0.4528
   62CHL1  H23A 5754   5.899   3.836   3.958  0.1377  1.7703 -1.0683
   62CHL1  H23B 5755   6.039   3.753   4.026 -0.8975 -0.6921 -1.2284
   62CHL1   C24 5756   5.974   3.930   4.144 -0.4206  0.0420  0.4940
   62CHL1  H24A 5757   5.943   4.034   4.120  2.3316  0.9591  0.5771
   62CHL1  H24B 5758   5.891   3.882   4.201 -2.4655  0.7088 -1.7647
   62CHL1   C25 5759   6.098   3.928   4.236 -0.4060  0.3279 -0.0961
   62CHL1   H25 5760   6.183   3.957   4.171 -0.7419 -0.0426 -0.7005
   62CHL1   C26 5761   6.091   4.038   4.342 -0.4110  0.0738 -0.2753
   62CHL1  H26A 5762   6.191   4.054   4.388 -0.2276 -1.0685 -0.2582
   62CHL1  H26B 5763   6.097   4.133   4.284  0.4001  0.8224  0.9957
   62CHL1  H26C 5764   6.007   4.032   4.415 -0.8160 -0.2238 -0.7596
   62CHL1   C27 5765   6.131   3.797   4.307 -0.3322 -0.1108 -0.0554
   62CHL1  H27A 5766   6.065   3.766   4.391  0.5963 -2.2301 -0.0533
   62CHL1  H27B 5767   6.134   3.723   4.225  1.1156 -0.3692  0.2002
   62CHL1  H27C 5768   6.233   3.790   4.351 -1.0478  0.6793  1.8590
   63CHL1    C3 5769   0.934   2.770   2.575 -0.1258 -0.6237 -0.0489
   63CHL1    H3 5770   1.012   2.695   2.597  0.5896 -0.2733 -1.3595
   63CHL1    O3 5771   0.941   2.797   2.434 -0.1522 -0.1565  0.1426
   63CHL1   H3' 5772   0.861   2.843   2.409 -0.4431 -1.7104 -2.0038
   63CHL1    C4 5773   0.794   2.732   2.618 -0.1578  0.6705  0.1093
   63CHL1   H4A 5774   0.724   2.817   2.604  0.3224  1.7766  3.6062
   63CHL1   H4B 5775   0.756   2.646   2.558 -0.9231  0.5913  0.6869
   63CHL1    C5 5776   0.780   2.703   2.771 -0.3947 -0.5426  0.3866
   63CHL1    C6 5777   0.737   2.585   2.810 -0.3977 -0.0600  0.1380
   63CHL1    H6 5778   0.702   2.513   2.735 -0.9250 -0.0213  0.3400
   63CHL1    C7 5779   0.717   2.538   2.952  0.0952  0.6134 -0.4538
   63CHL1   H7A 5780   0.613   2.512   2.983  1.1231 -0.4860  2.5496
   63CHL1   H7B 5781   0.783   2.452   2.977 -0.9010 -0.3637 -1.0913
   63CHL1    C8 5782   0.752   2.647   3.059  0.0160 -0.8583  0.2870
   63CHL1    H8 5783   0.660   2.709   3.060  1.1999  1.0129 -1.1737
   63CHL1   C14 5784   0.791   2.589   3.192  0.0276  0.2415  0.1012
   63CHL1   H14 5785   0.875   2.522   3.166 -0.8672 -0.9858  0.2621
   63CHL1   C15 5786   0.685   2.490   3.252  0.3235 -0.6251  0.6375
   63CHL1  H15A 5787   0.581   2.529   3.250  0.8529  1.0704  2.5944
   63CHL1  H15B 5788   0.686   2.399   3.189  1.6569  1.1355 -2.0642
   63CHL1   C16 5789   0.735   2.468   3.394  0.6577 -0.2412 -0.8519
   63CHL1  H16A 5790   0.642   2.496   3.448  0.4710 -0.6862 -0.9387
   63CHL1  H16B 5791   0.760   2.363   3.421 -0.3939 -0.0252  1.1309
   63CHL1   C17 5792   0.850   2.571   3.422 -0.1215  0.8267  0.4568
   63CHL1   H17 5793   0.946   2.525   3.393  0.0781  0.8866  1.0120
   63CHL1   C13 5794   0.833   2.678   3.310 -0.7117  0.0838  0.4722
   63CHL1   C18 5795   0.723   2.782   3.348  0.2848 -0.8053  0.3491
   63CHL1  H18A 5796   0.757   2.864   3.415  0.0304 -0.9001  0.5947
   63CHL1  H18B 5797   0.678   2.829   3.258 -1.3894  2.8485  2.8374
   63CHL1  H18C 5798   0.644   2.734   3.409 -0.5550 -1.7983 -1.4175
   63CHL1   C12 5799   0.953   2.763   3.264  0.0957 -0.0572 -0.1009
   63CHL1  H12A 5800   0.978   2.845   3.334  2.5887 -0.1193 -0.8350
   63CHL1  H12B 5801   1.036   2.693   3.243  0.1874  0.3720 -1.2629
   63CHL1   C11 5802   0.918   2.827   3.128 -0.1934 -0.5829 -0.6750
   63CHL1  H11A 5803   0.839   2.905   3.140 -0.9335 -1.5685  1.3027
   63CHL1  H11B 5804   1.010   2.880   3.094  1.4649 -0.9500  2.7365
   63CHL1    C9 5805   0.866   2.736   3.010 -0.1528 -0.3371  0.4377
   63CHL1    H9 5806   0.955   2.672   2.994 -0.1770 -0.4212  0.6389
   63CHL1   C10 5807   0.842   2.800   2.873  0.0389  0.6699 -0.0073
   63CHL1   C19 5808   0.751   2.924   2.891  0.7620 -0.1320 -1.2018
   63CHL1  H19A 5809   0.667   2.890   2.956  1.0428 -1.0026 -1.2854
   63CHL1  H19B 5810   0.797   3.005   2.953  0.0665 -1.9530  1.9361
   63CHL1  H19C 5811   0.712   2.977   2.802  0.2459  0.6228 -0.5450
   63CHL1    C1 5812   0.980   2.850   2.813  0.5075  1.0936 -0.6348
   63CHL1   H1A 5813   1.023   2.929   2.877  0.8871 -0.1621  0.7034
   63CHL1   H1B 5814   1.049   2.764   2.831 -1.3372 -0.6592 -1.5654
   63CHL1    C2 5815   0.990   2.882   2.665 -0.3347  0.9989  0.9959
   63CHL1   H2A 5816   1.090   2.900   2.620 -0.6242 -0.8229 -0.4839
   63CHL1   H2B 5817   0.934   2.978   2.655  0.4211  1.2316 -1.9411
   63CHL1   C20 5818   0.864   2.613   3.568 -0.4307 -0.6298  1.2977
   63CHL1   H20 5819   0.787   2.688   3.595 -1.0979 -0.4447 -0.9188
   63CHL1   C21 5820   1.000   2.685   3.581 -0.0226  1.1455 -0.9060
   63CHL1  H21A 5821   1.002   2.781   3.525 -2.3414  0.7029 -1.8441
   63CHL1  H21B 5822   1.083   2.630   3.530 -1.0494 -0.1850 -1.2013
   63CHL1  H21C 5823   1.022   2.720   3.684 -0.8134 -1.7839  0.3753
   63CHL1   C22 5824   0.852   2.500   3.669 -0.2787  0.2470  0.4989
   63CHL1  H22A 5825   0.748   2.460   3.661 -0.2798  0.2606  0.4475
   63CHL1  H22B 5826   0.912   2.422   3.619  0.0476  1.4119 -0.9987
   63CHL1   C23 5827   0.880   2.532   3.819  0.3610  0.0234 -0.2566
   63CHL1  H23A 5828   0.899   2.436   3.872  0.9494 -0.5525 -1.4568
   63CHL1  H23B 5829   0.972   2.593   3.834  0.9298 -0.8994  0.0941
   63CHL1   C24 5830   0.752   2.596   3.873 -0.0842  0.3584 -0.0017
   63CHL1  H24A 5831   0.728   2.679   3.802 -2.1344 -0.2053 -0.0373
   63CHL1  H24B 5832   0.670   2.523   3.859  1.5816 -1.4688 -0.7123
   63CHL1   C25 5833   0.753   2.644   4.019 -0.4268 -0.3278 -0.1752
   63CHL1   H25 5834   0.851   2.692   4.037 -0.5798  0.3047 -0.9776
   63CHL1   C26 5835   0.640   2.744   4.041  0.2795 -0.8800  0.3235
   63CHL1  H26A 5836   0.639   2.827   3.967  3.2438 -2.5342 -1.7754
   63CHL1  H26B 5837   0.541   2.697   4.028  0.3388 -1.4530  1.7407
   63CHL1  H26C 5838   0.650   2.792   4.141 -1.6341 -0.3051  0.2731
   63CHL1   C27 5839   0.746   2.527   4.124 -0.3338 -0.6155 -0.4631
   63CHL1  H27A 5840   0.645   2.481   4.130 -1.2891  1.5102  0.9621
   63CHL1  H27B 5841   0.826   2.453   4.103  1.1024  0.4710  0.9583
   63CHL1  H27C 5842   0.772   2.572   4.222  3.3174  0.1293 -1.5927
   64CHL1    C3 5843   5.161   5.694   3.115 -0.9527  0.2849 -0.3191
   64CHL1    H3 5844   5.222   5.786   3.126  0.1376 -0.2558 -1.6111
   64CHL1    O3 5845   5.187   5.630   2.994 -0.2627 -0.0325 -0.0864
   64CHL1   H3' 5846   5.130   5.553   2.991  1.5274 -1.5124  1.6271
   64CHL1    C4 5847   5.201   5.590   3.228  0.4922 -0.4173  0.3463
   64CHL1   H4A 5848   5.153   5.492   3.208  0.1367 -0.4763  1.4643
   64CHL1   H4B 5849   5.311   5.586   3.213  0.4760 -2.1331  0.5124
   64CHL1    C5 5850   5.155   5.633   3.372 -0.2522  0.2640  0.3352
   64CHL1    C6 5851   5.238   5.622   3.473  0.0039  0.1775 -0.1275
   64CHL1    H6 5852   5.339   5.582   3.457  0.4133  0.8593  0.6554
   64CHL1    C7 5853   5.197   5.649   3.615 -0.3892 -0.2500 -0.3823
   64CHL1   H7A 5854   5.253   5.577   3.679 -1.4397 -0.7282  0.0143
   64CHL1   H7B 5855   5.236   5.750   3.639 -0.8166 -0.1325 -0.1745
   64CHL1    C8 5856   5.048   5.649   3.637 -0.4921  0.0751 -0.6121
   64CHL1    H8 5857   5.005   5.547   3.629 -0.9419  0.0701  1.4403
   64CHL1   C14 5858   5.013   5.699   3.773  0.1128 -0.7125  0.3469
   64CHL1   H14 5859   5.067   5.796   3.783 -0.5366 -0.2644 -0.4305
   64CHL1   C15 5860   5.066   5.627   3.900 -0.6561  0.3325  0.3103
   64CHL1  H15A 5861   5.021   5.526   3.907 -3.0473  1.2897 -0.2769
   64CHL1  H15B 5862   5.177   5.634   3.904 -0.3373 -0.4300 -3.5006
   64CHL1   C16 5863   4.989   5.699   4.012 -0.5610 -0.1502  0.3041
   64CHL1  H16A 5864   4.934   5.618   4.063  1.0756 -0.8434  1.0592
   64CHL1  H16B 5865   5.055   5.748   4.088  0.7261  1.1842 -1.5678
   64CHL1   C17 5866   4.878   5.787   3.952  0.2949 -0.0177  0.2650
   64CHL1   H17 5867   4.917   5.891   3.941 -2.4031  1.1155  0.6761
   64CHL1   C13 5868   4.864   5.732   3.806 -0.6620  0.3402  0.4912
   64CHL1   C18 5869   4.784   5.602   3.791 -0.1201  0.2745 -0.1936
   64CHL1  H18A 5870   4.810   5.555   3.693  0.5055  0.6576 -0.2171
   64CHL1  H18B 5871   4.798   5.539   3.881  0.4435  2.1477  1.0779
   64CHL1  H18C 5872   4.675   5.622   3.781  0.0508  1.0502 -0.5594
   64CHL1   C12 5873   4.828   5.843   3.700  0.2350  0.4391  0.4835
   64CHL1  H12A 5874   4.724   5.881   3.704  0.3710  1.0980 -1.0897
   64CHL1  H12B 5875   4.896   5.931   3.706  0.8185 -0.0587  1.3742
   64CHL1   C11 5876   4.844   5.798   3.551 -0.3732  0.3773  0.7623
   64CHL1  H11A 5877   4.764   5.722   3.535  1.7717 -1.6275 -1.3343
   64CHL1  H11B 5878   4.830   5.879   3.477  1.6159  1.2126  1.2329
   64CHL1    C9 5879   4.988   5.744   3.528 -0.3706 -0.1653 -0.3188
   64CHL1    H9 5880   5.047   5.838   3.520  0.6490 -0.8042 -0.4025
   64CHL1   C10 5881   5.009   5.682   3.382  0.1716  0.4480  0.0420
   64CHL1   C19 5882   4.922   5.557   3.366 -0.3023 -0.0131  0.4404
   64CHL1  H19A 5883   4.951   5.475   3.435 -0.5158 -1.4403 -1.0884
   64CHL1  H19B 5884   4.815   5.581   3.378 -0.0024  2.7040 -1.5421
   64CHL1  H19C 5885   4.925   5.509   3.265 -1.8313  0.4782  0.1428
   64CHL1    C1 5886   4.968   5.783   3.268 -0.3726  0.2300 -0.5710
   64CHL1   H1A 5887   4.859   5.799   3.279 -0.4959 -1.3060  0.8960
   64CHL1   H1B 5888   5.013   5.878   3.304 -0.5099  0.3635 -0.7532
   64CHL1    C2 5889   5.013   5.745   3.128  0.4342 -0.0327  0.1124
   64CHL1   H2A 5890   5.003   5.831   3.059  0.4362  0.6973  1.0108
   64CHL1   H2B 5891   4.948   5.662   3.093 -0.5047  0.9117 -0.4391
   64CHL1   C20 5892   4.756   5.799   4.041 -0.5746  0.0283  0.1247
   64CHL1   H20 5893   4.735   5.690   4.050  2.0469 -0.4217  1.8549
   64CHL1   C21 5894   4.649   5.881   3.976  0.5283 -0.3281  0.9389
   64CHL1  H21A 5895   4.685   5.984   3.954  0.9173 -0.6743 -0.0804
   64CHL1  H21B 5896   4.553   5.887   4.032 -0.4108  2.5614 -0.7545
   64CHL1  H21C 5897   4.615   5.839   3.879  0.0254  1.9873  0.0433
   64CHL1   C22 5898   4.800   5.847   4.188  0.9414 -0.2650 -0.0043
   64CHL1  H22A 5899   4.866   5.771   4.235  0.8484  0.1499  0.8213
   64CHL1  H22B 5900   4.872   5.932   4.190 -0.1681  0.6876  0.2577
   64CHL1   C23 5901   4.690   5.875   4.292 -0.0915  0.1072  0.4309
   64CHL1  H23A 5902   4.629   5.957   4.248  2.1229  1.5267 -0.1587
   64CHL1  H23B 5903   4.627   5.784   4.302  2.1510 -1.4177  1.5462
   64CHL1   C24 5904   4.729   5.949   4.419  0.2181 -1.3992  0.5486
   64CHL1  H24A 5905   4.789   6.039   4.395 -1.0707 -0.9948 -1.2684
   64CHL1  H24B 5906   4.644   5.992   4.475 -0.2463 -1.0903 -0.3905
   64CHL1   C25 5907   4.815   5.859   4.510 -0.4576 -0.1080  0.3536
   64CHL1   H25 5908   4.895   5.815   4.447  0.2537 -0.5233  1.5062
   64CHL1   C26 5909   4.880   5.938   4.616 -0.3642 -0.3664 -0.2247
   64CHL1  H26A 5910   4.806   5.978   4.690 -1.1883 -0.0700 -1.1842
   64CHL1  H26B 5911   4.963   5.894   4.676  0.2349  0.7726 -0.1921
   64CHL1  H26C 5912   4.931   6.026   4.571 -2.3626  1.6615  1.2261
   64CHL1   C27 5913   4.730   5.741   4.570 -0.1672  0.0529  0.1363
   64CHL1  H27A 5914   4.695   5.662   4.500 -0.6145  1.5970 -1.4741
   64CHL1  H27B 5915   4.788   5.695   4.653 -1.0518 -1.2613  0.0597
   64CHL1  H27C 5916   4.640   5.781   4.622 -0.5179 -1.8241  1.0515
   65CHL1    C3 5917   2.970   5.338   2.832  0.4135  0.0090  0.0417
   65CHL1    H3 5918   2.982   5.228   2.838  1.6010  0.1045 -0.2727
   65CHL1    O3 5919   2.965   5.361   2.692 -0.7482  0.6711  0.3861
   65CHL1   H3' 5920   2.940   5.454   2.688 -0.8190  0.6915  1.2161
   65CHL1    C4 5921   2.838   5.377   2.894 -0.3239 -0.1969 -0.1314
   65CHL1   H4A 5922   2.804   5.481   2.874  3.1750  1.2013  0.4232
   65CHL1   H4B 5923   2.770   5.309   2.839 -0.5478  0.5381 -0.7888
   65CHL1    C5 5924   2.855   5.358   3.046 -0.3465 -0.2622  0.6124
   65CHL1    C6 5925   2.768   5.278   3.104  0.0477 -0.3584 -1.2076
   65CHL1    H6 5926   2.698   5.224   3.040 -1.4422 -0.2544  0.2590
   65CHL1    C7 5927   2.756   5.259   3.253  0.6076  0.2335 -0.9477
   65CHL1   H7A 5928   2.654   5.250   3.297  0.8532 -0.0900 -0.4327
   65CHL1   H7B 5929   2.806   5.165   3.284  0.8013  0.2983 -1.0637
   65CHL1    C8 5930   2.832   5.374   3.328 -0.7262  0.3207 -0.0302
   65CHL1    H8 5931   2.775   5.469   3.314 -1.3220  0.0767  0.7003
   65CHL1   C14 5932   2.847   5.340   3.476  0.2377 -0.0624 -0.1362
   65CHL1   H14 5933   2.893   5.238   3.480 -1.4467 -0.8084  1.8610
   65CHL1   C15 5934   2.713   5.324   3.552  0.1631 -0.1006  0.2059
   65CHL1  H15A 5935   2.639   5.400   3.519 -0.1814 -0.9739 -1.1186
   65CHL1  H15B 5936   2.667   5.224   3.539 -0.9318  0.4306 -0.1150
   65CHL1   C16 5937   2.750   5.348   3.700  0.7617 -0.3635  0.4634
   65CHL1  H16A 5938   2.693   5.423   3.759 -1.9456 -0.7845 -1.4226
   65CHL1  H16B 5939   2.718   5.255   3.753 -3.0672  1.3388  1.5214
   65CHL1   C17 5940   2.907   5.367   3.694  0.0632  0.0346 -0.1574
   65CHL1   H17 5941   2.958   5.269   3.704  0.0788  0.1869  1.5168
   65CHL1   C13 5942   2.930   5.437   3.553  0.2278  0.9742  0.2362
   65CHL1   C18 5943   2.874   5.581   3.542 -0.6317  0.4321 -0.0691
   65CHL1  H18A 5944   2.774   5.594   3.590 -0.4846  0.2707  0.2802
   65CHL1  H18B 5945   2.937   5.663   3.583 -0.9365 -0.3030  1.9418
   65CHL1  H18C 5946   2.860   5.612   3.435 -3.2689  0.2411  0.1480
   65CHL1   C12 5947   3.073   5.437   3.494 -0.4922 -0.0920 -0.1286
   65CHL1  H12A 5948   3.128   5.512   3.555 -1.0897 -0.9376  1.5323
   65CHL1  H12B 5949   3.132   5.344   3.511  0.6718  0.5994 -0.2534
   65CHL1   C11 5950   3.068   5.475   3.343 -0.2043 -0.3839 -0.3697
   65CHL1  H11A 5951   3.049   5.583   3.331 -0.9895 -0.4847 -0.0679
   65CHL1  H11B 5952   3.170   5.456   3.302  1.2658  3.5428  0.9454
   65CHL1    C9 5953   2.973   5.383   3.266 -0.3708  0.4296  0.4461
   65CHL1    H9 5954   3.015   5.281   3.258  0.0199  0.5948  0.3879
   65CHL1   C10 5955   2.966   5.438   3.116  0.4875 -0.2305 -0.0345
   65CHL1   C19 5956   2.940   5.593   3.112  0.2252 -0.0843  0.1668
   65CHL1  H19A 5957   2.916   5.636   3.012 -0.3982 -1.7084 -0.4182
   65CHL1  H19B 5958   2.855   5.622   3.177 -0.4793 -2.6971  0.5507
   65CHL1  H19C 5959   3.025   5.657   3.144  0.6088 -0.0266 -0.9094
   65CHL1    C1 5960   3.102   5.405   3.045  0.3118  0.4053 -0.1577
   65CHL1   H1A 5961   3.177   5.482   3.073  1.4647 -0.0790 -1.7825
   65CHL1   H1B 5962   3.129   5.306   3.087 -3.8816 -0.5434  0.7562
   65CHL1    C2 5963   3.095   5.411   2.887 -0.2366  0.1513 -0.9886
   65CHL1   H2A 5964   3.191   5.376   2.843  0.4755  2.8365 -1.7197
   65CHL1   H2B 5965   3.087   5.518   2.857  1.7852  0.3560 -0.9513
   65CHL1   C20 5966   2.955   5.439   3.818 -0.8643 -0.2292  0.3063
   65CHL1   H20 5967   2.902   5.536   3.810 -1.4037 -0.6869 -2.6954
   65CHL1   C21 5968   3.105   5.473   3.821 -0.4043 -0.0555 -0.4568
   65CHL1  H21A 5969   3.116   5.552   3.743  2.6056 -1.8963 -2.0761
   65CHL1  H21B 5970   3.164   5.386   3.784 -0.7389 -0.9382  0.9958
   65CHL1  H21C 5971   3.136   5.513   3.920 -0.7688  1.0289 -0.7718
   65CHL1   C22 5972   2.921   5.380   3.957 -0.0362 -0.0020  0.5104
   65CHL1  H22A 5973   2.980   5.449   4.022  1.5338  2.1602 -2.9564
   65CHL1  H22B 5974   2.813   5.394   3.980 -0.7179 -2.6297 -0.6989
   65CHL1   C23 5975   2.941   5.227   3.972  0.4403 -0.0838  0.0066
   65CHL1  H23A 5976   2.874   5.172   3.902 -0.0564  0.5475 -0.0230
   65CHL1  H23B 5977   3.044   5.203   3.938  0.6853 -0.1666  0.7905
   65CHL1   C24 5978   2.912   5.174   4.112  0.0461 -0.0884 -0.3799
   65CHL1  H24A 5979   2.814   5.211   4.147  0.5546 -0.0892  1.0901
   65CHL1  H24B 5980   2.913   5.063   4.116 -2.8849 -0.4624 -4.1151
   65CHL1   C25 5981   3.013   5.214   4.219 -0.5219 -0.6321 -0.4317
   65CHL1   H25 5982   3.031   5.324   4.222 -1.8975 -0.4059  1.2195
   65CHL1   C26 5983   2.971   5.167   4.359  0.6627 -0.4214  0.1076
   65CHL1  H26A 5984   3.034   5.213   4.438  2.6259 -2.0556 -0.4200
   65CHL1  H26B 5985   2.863   5.193   4.365  0.0348 -2.2916 -1.7928
   65CHL1  H26C 5986   2.973   5.057   4.372  2.3581 -0.5899 -1.2629
   65CHL1   C27 5987   3.144   5.143   4.198 -0.1709 -0.1352 -0.3357
   65CHL1  H27A 5988   3.123   5.034   4.193 -2.5461  0.0873  2.2650
   65CHL1  H27B 5989   3.190   5.185   4.106  1.1819 -2.8228 -0.9869
   65CHL1  H27C 5990   3.218   5.143   4.280 -0.5109 -1.0338 -0.0144
   66CHL1    C3 5991   6.613   0.143   2.569  0.5596 -0.2150  0.2799
   66CHL1    H3 5992   6.537   0.219   2.597  1.7468  0.4539  1.8306
   66CHL1    O3 5993   6.671   0.164   2.436  0.2234 -0.2431  0.2924
   66CHL1   H3' 5994   6.729   0.087   2.431 -0.2383 -0.7518  1.9937
   66CHL1    C4 5995   6.731   0.149   2.666  0.0261  0.1447  0.4857
   66CHL1   H4A 5996   6.818   0.087   2.635 -0.7578 -0.3554 -0.8183
   66CHL1   H4B 5997   6.779   0.249   2.678  0.2595 -0.0522  1.2550
   66CHL1    C5 5998   6.678   0.111   2.808 -0.3426  0.4758  0.7287
   66CHL1    C6 5999   6.687   0.197   2.910  0.5653  0.5708 -0.5597
   66CHL1    H6 6000   6.728   0.299   2.910  0.1484  0.7686  0.7553
   66CHL1    C7 6001   6.622   0.181   3.043  0.1238 -0.3959 -0.2175
   66CHL1   H7A 6002   6.676   0.219   3.132  1.0616 -0.0234 -0.9387
   66CHL1   H7B 6003   6.527   0.239   3.036  0.1760 -0.3311 -0.3898
   66CHL1    C8 6004   6.575   0.032   3.072  0.3909 -0.4181  0.5985
   66CHL1    H8 6005   6.660  -0.038   3.086  1.4076  0.8995  1.2797
   66CHL1   C14 6006   6.491   0.036   3.195  0.0985 -0.0923  0.3991
   66CHL1   H14 6007   6.403   0.085   3.149  2.1026  1.7968 -1.7166
   66CHL1   C15 6008   6.524   0.108   3.320 -0.0583  0.6729 -0.0073
   66CHL1  H15A 6009   6.628   0.084   3.353 -0.7298 -1.7555  0.6070
   66CHL1  H15B 6010   6.522   0.219   3.321 -0.4103  0.6677  0.2393
   66CHL1   C16 6011   6.426   0.049   3.422 -0.3455 -0.7333 -0.2415
   66CHL1  H16A 6012   6.485   0.009   3.507 -2.0195 -0.7881  0.9477
   66CHL1  H16B 6013   6.364   0.134   3.460  0.7066 -0.1311  0.1820
   66CHL1   C17 6014   6.343  -0.061   3.362 -1.0931  0.8228 -0.3463
   66CHL1   H17 6015   6.244  -0.019   3.335 -1.8100  0.4065  1.5019
   66CHL1   C13 6016   6.432  -0.103   3.240 -0.5064  0.1125 -0.0022
   66CHL1   C18 6017   6.545  -0.188   3.290 -0.0606 -0.0363 -0.3440
   66CHL1  H18A 6018   6.624  -0.191   3.213 -0.5988 -0.1593 -0.9041
   66CHL1  H18B 6019   6.584  -0.161   3.391  1.3373  1.1415 -1.1556
   66CHL1  H18C 6020   6.507  -0.292   3.300 -0.9153  0.2906 -0.0605
   66CHL1   C12 6021   6.359  -0.163   3.117 -0.6428  0.1127  1.2741
   66CHL1  H12A 6022   6.331  -0.269   3.133 -1.3860 -0.1329 -1.3123
   66CHL1  H12B 6023   6.272  -0.102   3.084 -0.0700 -0.1360 -0.8110
   66CHL1   C11 6024   6.458  -0.168   2.995 -0.4639 -0.5974 -0.1836
   66CHL1  H11A 6025   6.546  -0.230   3.021  3.2223  3.6672 -1.4417
   66CHL1  H11B 6026   6.393  -0.219   2.920  0.1203 -0.2097 -0.9602
   66CHL1    C9 6027   6.504  -0.028   2.950 -0.3855 -0.2584  0.3036
   66CHL1    H9 6028   6.415   0.036   2.930 -0.8447 -1.0393 -0.2342
   66CHL1   C10 6029   6.590  -0.020   2.819  0.0604 -0.1431 -0.8699
   66CHL1   C19 6030   6.693  -0.140   2.811  0.6771  0.0215 -0.5581
   66CHL1  H19A 6031   6.745  -0.129   2.713  0.6446  1.0441 -0.4698
   66CHL1  H19B 6032   6.774  -0.137   2.886 -0.2198  0.9582  0.4001
   66CHL1  H19C 6033   6.648  -0.241   2.805 -0.8989  0.6121  0.5864
   66CHL1    C1 6034   6.497  -0.043   2.698 -0.6304 -0.5724 -0.3959
   66CHL1   H1A 6035   6.454  -0.144   2.710  1.2411 -1.2800  0.6451
   66CHL1   H1B 6036   6.416   0.032   2.715 -0.5235 -0.3910 -0.6730
   66CHL1    C2 6037   6.557  -0.001   2.563  0.0689  0.8834  0.5497
   66CHL1   H2A 6038   6.488   0.005   2.477  0.7807  0.8457 -0.0413
   66CHL1   H2B 6039   6.628  -0.080   2.528  1.0875  1.1253  1.9713
   66CHL1   C20 6040   6.317  -0.175   3.470  0.2060 -0.3344  0.1792
   66CHL1   H20 6041   6.410  -0.219   3.512 -0.7906 -2.5616  0.1398
   66CHL1   C21 6042   6.236  -0.287   3.409  0.0399  0.1286  0.5963
   66CHL1  H21A 6043   6.294  -0.355   3.343  0.0930 -0.0483  0.8203
   66CHL1  H21B 6044   6.152  -0.247   3.349  0.9267  0.4689 -0.4393
   66CHL1  H21C 6045   6.188  -0.351   3.487 -1.5281 -2.3790 -2.2194
   66CHL1   C22 6046   6.241  -0.105   3.580  0.6856  0.3609  0.4778
   66CHL1  H22A 6047   6.268  -0.001   3.609 -1.2622  1.8299 -2.4436
   66CHL1  H22B 6048   6.139  -0.103   3.535  1.0026 -2.6817 -0.6368
   66CHL1   C23 6049   6.235  -0.178   3.723 -0.3978 -0.0606  0.1908
   66CHL1  H23A 6050   6.188  -0.275   3.695 -2.4406  0.8623  0.1980
   66CHL1  H23B 6051   6.340  -0.203   3.748 -0.6169 -1.7585 -0.4367
   66CHL1   C24 6052   6.154  -0.100   3.824 -0.3141  0.3386  0.8331
   66CHL1  H24A 6053   6.175   0.009   3.814 -0.7368  0.3294 -0.3888
   66CHL1  H24B 6054   6.048  -0.117   3.793  0.4323 -2.1896 -0.5277
   66CHL1   C25 6055   6.176  -0.142   3.967  0.1109 -0.4177 -0.6735
   66CHL1   H25 6056   6.284  -0.127   3.990 -0.5834  1.9882  1.3143
   66CHL1   C26 6057   6.109  -0.044   4.062 -0.3392 -0.2001  0.2823
   66CHL1  H26A 6058   6.001  -0.033   4.038 -0.4768  0.8158  1.2828
   66CHL1  H26B 6059   6.102  -0.079   4.168 -1.0240  1.9882  0.9989
   66CHL1  H26C 6060   6.150   0.058   4.051 -3.8035  1.2866 -0.1681
   66CHL1   C27 6061   6.134  -0.291   3.992  0.0217 -0.7386  0.1992
   66CHL1  H27A 6062   6.026  -0.283   4.018  0.3491  2.0127  1.1188
   66CHL1  H27B 6063   6.179  -0.315   4.091 -2.4332 -0.2022  1.5491
   66CHL1  H27C 6064   6.150  -0.355   3.903  1.7242  0.2107 -0.2247
   67CHL1    C3 6065   0.896   2.275   2.361 -0.1043 -0.4131 -0.5721
   67CHL1    H3 6066   0.860   2.370   2.404  2.4593  0.3100  0.1509
   67CHL1    O3 6067   0.886   2.286   2.216  0.4728  0.1937 -0.1155
   67CHL1   H3' 6068   0.919   2.374   2.200 -1.9207  1.4001  1.1390
   67CHL1    C4 6069   1.050   2.269   2.401 -0.1883 -0.0509 -0.1053
   67CHL1   H4A 6070   1.089   2.171   2.365 -1.1944 -0.1323 -1.0104
   67CHL1   H4B 6071   1.109   2.346   2.347 -2.0444  1.9716  0.6365
   67CHL1    C5 6072   1.050   2.294   2.551 -0.1283  0.8332 -0.4491
   67CHL1    C6 6073   1.106   2.404   2.603  0.6413  0.2830 -0.1502
   67CHL1    H6 6074   1.142   2.486   2.538  0.9678 -0.7780 -1.3380
   67CHL1    C7 6075   1.113   2.426   2.751 -0.1852 -0.0238 -0.7853
   67CHL1   H7A 6076   1.210   2.472   2.776  0.8549 -1.6882 -1.5539
   67CHL1   H7B 6077   1.038   2.496   2.792 -0.8711 -1.7509  1.0547
   67CHL1    C8 6078   1.105   2.292   2.833  0.1956 -0.1999 -0.3953
   67CHL1    H8 6079   1.194   2.228   2.815 -2.2362 -3.5007 -1.5473
   67CHL1   C14 6080   1.094   2.322   2.986 -0.0257 -0.0967  0.0516
   67CHL1   H14 6081   1.004   2.386   2.997  1.1910  1.9175 -1.0407
   67CHL1   C15 6082   1.215   2.399   3.035  0.6220 -0.5019 -0.5014
   67CHL1  H15A 6083   1.296   2.359   2.970  0.1044  0.6254 -1.8984
   67CHL1  H15B 6084   1.202   2.509   3.034  0.4310 -0.5265 -0.6506
   67CHL1   C16 6085   1.222   2.364   3.187  0.1906 -0.2180  0.7729
   67CHL1  H16A 6086   1.321   2.322   3.216  0.5212 -1.2215 -1.5585
   67CHL1  H16B 6087   1.201   2.460   3.240 -1.4913  0.2351 -0.6344
   67CHL1   C17 6088   1.101   2.260   3.210  0.7140 -0.2664  0.4130
   67CHL1   H17 6089   1.005   2.317   3.212 -0.0306 -1.4323 -0.8880
   67CHL1   C13 6090   1.087   2.197   3.075  0.0481 -0.0859  0.4918
   67CHL1   C18 6091   1.208   2.110   3.053  0.1934  0.6476  0.1572
   67CHL1  H18A 6092   1.200   2.030   3.130  0.2759  0.8661  0.3937
   67CHL1  H18B 6093   1.204   2.071   2.949 -0.9779  3.0645 -0.7807
   67CHL1  H18C 6094   1.308   2.157   3.066  2.2936 -3.5617  1.1671
   67CHL1   C12 6095   0.951   2.127   3.039 -0.7121 -0.8065 -0.4962
   67CHL1  H12A 6096   0.939   2.028   3.087 -0.4736 -1.1691 -1.1730
   67CHL1  H12B 6097   0.873   2.192   3.084  0.7519  1.0709 -0.5647
   67CHL1   C11 6098   0.944   2.093   2.890  0.0201  0.4243  0.0116
   67CHL1  H11A 6099   1.016   2.009   2.886 -0.9562 -0.5123  1.2402
   67CHL1  H11B 6100   0.839   2.065   2.864 -0.6209  2.5726  0.0713
   67CHL1    C9 6101   0.985   2.212   2.786  1.2180  0.0804 -0.8203
   67CHL1    H9 6102   0.901   2.283   2.798 -0.3945 -1.5531 -1.7931
   67CHL1   C10 6103   0.985   2.179   2.635  0.0127  0.0303  0.3713
   67CHL1   C19 6104   1.062   2.045   2.620 -0.2848 -0.2582  0.4070
   67CHL1  H19A 6105   1.065   2.012   2.514 -0.8801  0.4764  0.1545
   67CHL1  H19B 6106   1.164   2.060   2.660  0.8833  1.0383 -2.7921
   67CHL1  H19C 6107   1.008   1.968   2.680 -1.9919  0.2111 -0.4486
   67CHL1    C1 6108   0.840   2.159   2.584  0.0737 -0.0975  0.1776
   67CHL1   H1A 6109   0.805   2.058   2.616  2.0683 -0.8752  0.0313
   67CHL1   H1B 6110   0.771   2.233   2.630  0.1824  0.4742 -0.5597
   67CHL1    C2 6111   0.824   2.163   2.429  0.0216  0.3598  0.2671
   67CHL1   H2A 6112   0.719   2.168   2.393  0.3213  0.1358 -0.6777
   67CHL1   H2B 6113   0.857   2.070   2.378 -1.5805 -0.5788  0.8625
   67CHL1   C20 6114   1.117   2.179   3.337 -0.5690  0.3793 -0.2058
   67CHL1   H20 6115   1.203   2.109   3.327  0.5215  1.9614 -2.9982
   67CHL1   C21 6116   0.979   2.117   3.369  0.1812  0.4569 -0.2365
   67CHL1  H21A 6117   0.974   2.045   3.454 -0.6206 -0.1622 -0.7973
   67CHL1  H21B 6118   0.940   2.062   3.281 -2.5076  2.3335 -0.3402
   67CHL1  H21C 6119   0.903   2.193   3.395 -0.6138 -0.3702 -0.0700
   67CHL1   C22 6120   1.148   2.265   3.457  0.1701  0.2503 -0.0754
   67CHL1  H22A 6121   1.236   2.332   3.446  1.0823 -0.7647  0.7637
   67CHL1  H22B 6122   1.056   2.327   3.467 -0.0851 -0.2460  0.8324
   67CHL1   C23 6123   1.176   2.190   3.589 -0.5927  0.2671  1.2018
   67CHL1  H23A 6124   1.086   2.129   3.612 -1.4279  1.2204  0.4938
   67CHL1  H23B 6125   1.263   2.123   3.570 -0.7806  0.6552 -1.2806
   67CHL1   C24 6126   1.207   2.277   3.711 -0.1840 -0.2914  0.1244
   67CHL1  H24A 6127   1.295   2.342   3.693 -0.4758  1.0513  2.9465
   67CHL1  H24B 6128   1.120   2.339   3.740  0.6899  0.3349  1.4823
   67CHL1   C25 6129   1.230   2.203   3.847  0.0766 -0.3422 -0.4205
   67CHL1   H25 6130   1.136   2.144   3.853  0.2738 -0.5397  1.1579
   67CHL1   C26 6131   1.345   2.105   3.845 -0.1830 -0.1483  0.5721
   67CHL1  H26A 6132   1.347   2.041   3.936 -2.2620 -0.4395  0.4633
   67CHL1  H26B 6133   1.331   2.035   3.761 -0.5321  0.6681 -0.0623
   67CHL1  H26C 6134   1.443   2.157   3.836 -0.5584  0.4973  0.1341
   67CHL1   C27 6135   1.243   2.292   3.969  0.2739  0.4699 -0.0530
   67CHL1  H27A 6136   1.244   2.235   4.065 -0.2466 -2.3267 -1.6203
   67CHL1  H27B 6137   1.345   2.336   3.964  1.0691 -1.4057 -1.8036
   67CHL1  H27C 6138   1.158   2.363   3.962 -1.9190 -1.8259  1.5599
   68CHL1    C3 6139   1.357   1.865   5.820 -0.5058 -0.4955 -0.2299
   68CHL1    H3 6140   1.317   1.967   5.838 -0.7060 -0.7462  0.8125
   68CHL1    O3 6141   1.367   1.799   5.945  0.0758  0.3808  0.9160
   68CHL1   H3' 6142   1.277   1.806   5.977 -0.1362 -1.1502  0.7478
   68CHL1    C4 6143   1.253   1.788   5.734  0.0023 -0.2992  0.6493
   68CHL1   H4A 6144   1.284   1.683   5.749 -0.8101 -0.3503  2.0511
   68CHL1   H4B 6145   1.153   1.806   5.777 -0.7237  1.0828 -1.4414
   68CHL1    C5 6146   1.255   1.840   5.583 -0.8143  0.3808  0.3653
   68CHL1    C6 6147   1.143   1.888   5.528  0.0566  0.5696 -0.2372
   68CHL1    H6 6148   1.051   1.892   5.589 -0.2283 -1.3477 -0.4554
   68CHL1    C7 6149   1.124   1.935   5.381 -0.5922 -0.2533 -0.5738
   68CHL1   H7A 6150   1.033   1.886   5.342 -1.3768  0.4714  0.3094
   68CHL1   H7B 6151   1.103   2.044   5.377 -0.7093 -0.1128  2.0687
   68CHL1    C8 6152   1.256   1.899   5.304  0.0488  0.8861  0.6369
   68CHL1    H8 6153   1.246   1.790   5.283  1.0716  1.3030 -2.6104
   68CHL1   C14 6154   1.261   1.964   5.169 -0.2897  0.1453  0.7965
   68CHL1   H14 6155   1.268   2.071   5.200 -1.9003  0.2673  0.8218
   68CHL1   C15 6156   1.148   1.955   5.071  0.3614 -0.3023 -0.0805
   68CHL1  H15A 6157   1.097   1.857   5.080  1.6436 -1.0247 -0.5274
   68CHL1  H15B 6158   1.066   2.024   5.102  0.4067 -0.6363  0.8300
   68CHL1   C16 6159   1.201   2.016   4.942  0.3669  0.4732  0.5734
   68CHL1  H16A 6160   1.174   1.945   4.860 -0.0943 -1.4422  2.2891
   68CHL1  H16B 6161   1.168   2.120   4.923  1.1039  0.9123  1.6234
   68CHL1   C17 6162   1.353   2.013   4.948  0.1289 -0.9688 -0.5280
   68CHL1   H17 6163   1.382   2.117   4.973  0.7102 -1.2011 -0.2212
   68CHL1   C13 6164   1.384   1.937   5.086  0.2448 -0.0137 -0.1324
   68CHL1   C18 6165   1.382   1.786   5.054 -0.6301  0.3112 -0.0806
   68CHL1  H18A 6166   1.386   1.728   5.149  0.0380 -1.4864 -1.1558
   68CHL1  H18B 6167   1.290   1.753   5.003  0.1515 -1.3093 -0.5159
   68CHL1  H18C 6168   1.469   1.749   4.996  0.0210  0.9830  0.4402
   68CHL1   C12 6169   1.506   1.988   5.166  0.2830 -0.2742 -0.1099
   68CHL1  H12A 6170   1.604   1.980   5.115  1.6017  3.3155  1.4599
   68CHL1  H12B 6171   1.478   2.095   5.181  0.3711 -0.5657  2.6777
   68CHL1   C11 6172   1.509   1.918   5.303  0.1613  0.1091 -0.0650
   68CHL1  H11A 6173   1.533   1.813   5.277 -1.9051 -0.5979  0.6884
   68CHL1  H11B 6174   1.597   1.963   5.355 -0.2552 -1.6587  2.3260
   68CHL1    C9 6175   1.382   1.934   5.380  0.6946 -0.1486 -0.6229
   68CHL1    H9 6176   1.370   2.039   5.412  1.2233 -0.7521  1.7500
   68CHL1   C10 6177   1.387   1.848   5.511 -0.9006 -0.1091 -0.5611
   68CHL1   C19 6178   1.419   1.703   5.469 -0.1984  0.2418 -0.1247
   68CHL1  H19A 6179   1.431   1.642   5.561 -1.0286  0.8409  0.3986
   68CHL1  H19B 6180   1.346   1.656   5.399 -1.5011 -0.0520  1.3735
   68CHL1  H19C 6181   1.523   1.694   5.432  0.0210  1.9411  0.0152
   68CHL1    C1 6182   1.489   1.918   5.612 -0.5644  0.5015 -0.5666
   68CHL1   H1A 6183   1.592   1.924   5.570 -0.0664  0.3694  0.6195
   68CHL1   H1B 6184   1.457   2.024   5.616  0.8460  1.0020 -1.5147
   68CHL1    C2 6185   1.491   1.866   5.750 -0.7026  0.1105 -0.4544
   68CHL1   H2A 6186   1.571   1.914   5.811  3.9961 -0.2682 -5.5681
   68CHL1   H2B 6187   1.519   1.760   5.739  0.1144  0.3485 -0.7529
   68CHL1   C20 6188   1.433   1.983   4.823 -0.5007 -0.4025  0.0337
   68CHL1   H20 6189   1.425   1.873   4.810  1.9577 -0.5812 -0.5688
   68CHL1   C21 6190   1.583   2.005   4.848 -0.6696  0.0922 -0.2454
   68CHL1  H21A 6191   1.626   1.924   4.910 -1.3797  0.7116  1.1061
   68CHL1  H21B 6192   1.610   2.100   4.900  0.5998 -0.0539 -0.6174
   68CHL1  H21C 6193   1.640   2.006   4.753  1.0356 -0.5407  0.7343
   68CHL1   C22 6194   1.383   2.055   4.694 -0.5116  0.2520 -0.7365
   68CHL1  H22A 6195   1.438   2.013   4.607  3.9760  0.5560  1.6805
   68CHL1  H22B 6196   1.275   2.032   4.681 -0.5573 -0.7114  1.0693
   68CHL1   C23 6197   1.398   2.210   4.693  0.0895 -0.3179  0.1634
   68CHL1  H23A 6198   1.330   2.241   4.775  0.6922 -0.8347  0.8720
   68CHL1  H23B 6199   1.498   2.243   4.730 -0.3457  0.0402  1.0609
   68CHL1   C24 6200   1.359   2.266   4.556 -0.3465 -0.2754 -0.6267
   68CHL1  H24A 6201   1.362   2.376   4.571  0.5033 -0.6286  2.5760
   68CHL1  H24B 6202   1.441   2.241   4.485  1.7515  0.4406  1.4217
   68CHL1   C25 6203   1.227   2.216   4.498 -0.3498  0.4595  0.3446
   68CHL1   H25 6204   1.224   2.106   4.489  1.5414  0.4955 -1.6634
   68CHL1   C26 6205   1.106   2.248   4.582 -0.0025  0.3166  0.7645
   68CHL1  H26A 6206   1.069   2.352   4.566  1.2505  0.8413  1.1361
   68CHL1  H26B 6207   1.021   2.186   4.548 -0.0733 -0.3304  2.0585
   68CHL1  H26C 6208   1.115   2.228   4.691 -0.3053 -2.6131  0.3277
   68CHL1   C27 6209   1.185   2.273   4.359 -0.2733  0.2860  0.2239
   68CHL1  H27A 6210   1.268   2.246   4.290  1.3969 -0.3489  2.3417
   68CHL1  H27B 6211   1.085   2.235   4.332  0.2434 -0.0155 -1.3420
   68CHL1  H27C 6212   1.185   2.384   4.367 -0.8486  0.3157 -0.1796
   69CHL1    C3 6213   4.661   0.509   2.713 -0.2950  0.5600  0.4976
   69CHL1    H3 6214   4.559   0.521   2.670  1.1744  0.9273 -3.3412
   69CHL1    O3 6215   4.765   0.522   2.614 -0.1966  0.1999  0.1113
   69CHL1   H3' 6216   4.741   0.600   2.563 -0.0351  0.0449 -0.2014
   69CHL1    C4 6217   4.673   0.613   2.823 -0.3874  1.0555  0.5792
   69CHL1   H4A 6218   4.777   0.612   2.863  0.1202 -2.0899 -0.5577
   69CHL1   H4B 6219   4.674   0.710   2.770 -2.9247 -0.3198 -2.2972
   69CHL1    C5 6220   4.579   0.602   2.940 -0.4879  0.3744 -0.1848
   69CHL1    C6 6221   4.495   0.700   2.982 -0.6131  0.2672  0.4947
   69CHL1    H6 6222   4.481   0.794   2.928 -1.6257  0.2433  0.6965
   69CHL1    C7 6223   4.398   0.687   3.089 -0.3665  0.0381  0.0795
   69CHL1   H7A 6224   4.391   0.779   3.151  2.9308 -1.0280  2.3202
   69CHL1   H7B 6225   4.305   0.659   3.036  0.5267 -0.8272 -1.0914
   69CHL1    C8 6226   4.438   0.572   3.185 -0.2962  0.2010 -0.2111
   69CHL1    H8 6227   4.530   0.612   3.233  0.3992 -1.5333 -0.0288
   69CHL1   C14 6228   4.330   0.547   3.284  0.1594 -0.9670  0.1544
   69CHL1   H14 6229   4.245   0.504   3.226 -0.2392  0.8636 -0.6893
   69CHL1   C15 6230   4.273   0.669   3.351  0.2918 -0.3622 -0.0548
   69CHL1  H15A 6231   4.359   0.733   3.379  0.1146 -0.5206  0.9158
   69CHL1  H15B 6232   4.203   0.725   3.285 -0.5675 -2.7711 -1.3114
   69CHL1   C16 6233   4.199   0.608   3.470  0.4191 -0.3611  0.1829
   69CHL1  H16A 6234   4.242   0.658   3.560 -0.4552  1.5563 -0.4157
   69CHL1  H16B 6235   4.090   0.615   3.453  0.6832  2.4203 -0.7085
   69CHL1   C17 6236   4.245   0.458   3.479  0.1954 -0.3861  0.3177
   69CHL1   H17 6237   4.162   0.402   3.432 -0.5185  1.5905 -0.8898
   69CHL1   C13 6238   4.368   0.446   3.391  0.5786 -0.3364 -0.3229
   69CHL1   C18 6239   4.495   0.493   3.474 -0.4939 -0.2588 -0.2358
   69CHL1  H18A 6240   4.520   0.420   3.554  0.1097  0.4964  0.2816
   69CHL1  H18B 6241   4.584   0.492   3.408  0.9897 -0.7740  1.6995
   69CHL1  H18C 6242   4.468   0.591   3.518 -1.4765 -0.8561  0.5295
   69CHL1   C12 6243   4.399   0.314   3.318  0.5760  0.0262 -0.3456
   69CHL1  H12A 6244   4.435   0.240   3.393  0.5303 -0.7399 -1.0682
   69CHL1  H12B 6245   4.301   0.294   3.271  0.9808  0.7888 -1.5805
   69CHL1   C11 6246   4.509   0.329   3.205  0.1320 -0.3464 -0.1773
   69CHL1  H11A 6247   4.600   0.337   3.268 -0.4919  1.3833  0.5821
   69CHL1  H11B 6248   4.516   0.229   3.159  2.8683  1.3174 -3.8643
   69CHL1    C9 6249   4.478   0.444   3.107  0.0701 -0.5745 -0.2571
   69CHL1    H9 6250   4.380   0.405   3.073 -0.1148 -0.7449  0.4487
   69CHL1   C10 6251   4.579   0.460   3.001 -0.7311 -0.0589 -0.1542
   69CHL1   C19 6252   4.717   0.432   3.055 -0.3305  0.2053 -0.1503
   69CHL1  H19A 6253   4.742   0.487   3.148 -2.9622 -0.8966  1.3342
   69CHL1  H19B 6254   4.728   0.327   3.092  1.3200  0.5772  0.4974
   69CHL1  H19C 6255   4.796   0.443   2.978 -0.7488  0.8632 -0.4924
   69CHL1    C1 6256   4.564   0.353   2.885 -0.5430 -0.5202  0.1417
   69CHL1   H1A 6257   4.578   0.249   2.923 -1.5266 -0.0991  1.7302
   69CHL1   H1B 6258   4.458   0.364   2.853 -0.4445  0.8511  0.2330
   69CHL1    C2 6259   4.651   0.364   2.764  0.0860  0.6391 -0.0154
   69CHL1   H2A 6260   4.609   0.298   2.684  0.0389 -0.1490  0.6353
   69CHL1   H2B 6261   4.757   0.331   2.769  0.6615  2.0842 -1.6483
   69CHL1   C20 6262   4.252   0.395   3.622 -0.2490 -0.2034  0.3120
   69CHL1   H20 6263   4.345   0.423   3.676  0.1898  1.3187 -1.1420
   69CHL1   C21 6264   4.247   0.237   3.614 -0.2050  0.2825  0.3601
   69CHL1  H21A 6265   4.339   0.208   3.558 -0.2916  2.7351 -1.2023
   69CHL1  H21B 6266   4.156   0.190   3.571 -0.9524  2.6159 -0.8019
   69CHL1  H21C 6267   4.251   0.192   3.715  0.6077 -1.6644 -0.4805
   69CHL1   C22 6268   4.136   0.436   3.714  0.7201  1.0012 -0.2594
   69CHL1  H22A 6269   4.109   0.544   3.703 -0.1444  1.0325  1.7320
   69CHL1  H22B 6270   4.057   0.369   3.675  1.0824 -1.0228  2.2222
   69CHL1   C23 6271   4.157   0.407   3.861  0.6975  0.5107 -0.3622
   69CHL1  H23A 6272   4.211   0.312   3.881  0.5768  0.6954  0.8591
   69CHL1  H23B 6273   4.221   0.487   3.903  0.4660 -0.0849  1.1903
   69CHL1   C24 6274   4.023   0.417   3.935  0.0945 -0.3922  0.0406
   69CHL1  H24A 6275   3.974   0.507   3.892 -1.0092 -0.8621  0.2975
   69CHL1  H24B 6276   3.971   0.323   3.906 -0.9310  0.3737 -0.6501
   69CHL1   C25 6277   4.034   0.417   4.088 -0.3244  0.5297  0.4056
   69CHL1   H25 6278   4.118   0.352   4.119  0.5490  1.3210 -0.2458
   69CHL1   C26 6279   4.060   0.555   4.139  0.2439  0.2787  0.1403
   69CHL1  H26A 6280   4.003   0.635   4.086  1.7025  1.1265 -0.2028
   69CHL1  H26B 6281   4.026   0.560   4.245  1.3487  0.4497  0.4909
   69CHL1  H26C 6282   4.168   0.581   4.135  0.6994 -1.5377 -0.0257
   69CHL1   C27 6283   3.895   0.373   4.139 -0.1375 -0.0799 -0.6581
   69CHL1  H27A 6284   3.817   0.450   4.122  0.8124  0.8816 -0.7484
   69CHL1  H27B 6285   3.861   0.295   4.067  0.4886 -1.8806  0.9050
   69CHL1  H27C 6286   3.887   0.331   4.242  2.0294 -1.2294 -0.9089
   70CHL1    C3 6287   4.992   5.111   3.090  0.2276  0.5851  0.2967
   70CHL1    H3 6288   4.908   5.040   3.078  1.8634 -1.3358 -0.4050
   70CHL1    O3 6289   5.037   5.159   2.960 -0.1631  0.4475  0.4990
   70CHL1   H3' 6290   5.078   5.081   2.922  0.6250  1.3192 -0.5064
   70CHL1    C4 6291   4.951   5.233   3.174 -0.4540  1.1011  0.6878
   70CHL1   H4A 6292   5.039   5.300   3.166  1.6233 -1.5389  0.1268
   70CHL1   H4B 6293   4.859   5.276   3.128 -0.8490 -1.2617 -0.9147
   70CHL1    C5 6294   4.929   5.183   3.316  0.1132 -0.1846  0.2903
   70CHL1    C6 6295   4.810   5.205   3.375  1.0471  0.1888  0.1424
   70CHL1    H6 6296   4.745   5.276   3.321  0.3715 -1.0151 -0.6753
   70CHL1    C7 6297   4.787   5.179   3.523 -0.5582  0.7593  0.4588
   70CHL1   H7A 6298   4.760   5.271   3.578 -1.5483  0.7804 -0.0289
   70CHL1   H7B 6299   4.695   5.116   3.524 -0.6054  0.8229  0.1907
   70CHL1    C8 6300   4.912   5.132   3.598 -0.4427 -0.3036 -0.3500
   70CHL1    H8 6301   4.974   5.220   3.627  0.1839 -0.6828 -0.5056
   70CHL1   C14 6302   4.872   5.078   3.736  0.2197  0.3035 -0.2910
   70CHL1   H14 6303   4.809   4.990   3.714  2.5181 -1.4286 -0.2558
   70CHL1   C15 6304   4.771   5.154   3.826  0.3902  0.5497  0.9180
   70CHL1  H15A 6305   4.803   5.259   3.835  0.9667  0.4485  0.1491
   70CHL1  H15B 6306   4.664   5.144   3.797  1.0632 -0.1243 -1.5638
   70CHL1   C16 6307   4.803   5.096   3.968  0.3122  0.3577 -0.2243
   70CHL1  H16A 6308   4.848   5.175   4.033  1.0708 -1.8409  2.0779
   70CHL1  H16B 6309   4.700   5.064   3.995  0.5368 -0.2524 -0.0887
   70CHL1   C17 6310   4.911   4.983   3.942 -0.4328  0.9503  0.5881
   70CHL1   H17 6311   4.856   4.892   3.908 -0.9983  0.9131  1.5455
   70CHL1   C13 6312   4.987   5.029   3.821  0.2565 -0.2683 -0.4717
   70CHL1   C18 6313   5.083   5.140   3.855  0.5301  0.8571 -0.0443
   70CHL1  H18A 6314   5.043   5.208   3.934  0.5033 -1.3126  1.8996
   70CHL1  H18B 6315   5.178   5.099   3.894  0.0765  0.7265  0.9503
   70CHL1  H18C 6316   5.116   5.194   3.763  0.3427  1.9056  0.4938
   70CHL1   C12 6317   5.063   4.919   3.738  0.1104  0.1432  0.2783
   70CHL1  H12A 6318   5.145   4.878   3.801  0.0935  1.1201  0.9630
   70CHL1  H12B 6319   4.988   4.840   3.720 -0.4771  0.8824 -0.5974
   70CHL1   C11 6320   5.114   4.968   3.602 -0.3975 -0.1058  0.5887
   70CHL1  H11A 6321   5.195   5.042   3.619  0.7344 -1.0079 -0.5971
   70CHL1  H11B 6322   5.149   4.883   3.540 -2.9219  0.4032 -1.7546
   70CHL1    C9 6323   4.991   5.033   3.520 -0.9795  0.0535 -0.0524
   70CHL1    H9 6324   4.919   4.952   3.494  0.2328 -1.0313 -0.1722
   70CHL1   C10 6325   5.034   5.096   3.384 -0.6731  0.1308 -0.3066
   70CHL1   C19 6326   5.155   5.193   3.413  0.3495 -0.0440 -0.0297
   70CHL1  H19A 6327   5.138   5.256   3.503 -0.5103  1.3372 -1.1172
   70CHL1  H19B 6328   5.248   5.137   3.435  0.9865  0.9818 -0.0770
   70CHL1  H19C 6329   5.182   5.255   3.325  1.7450 -0.2524  0.2390
   70CHL1    C1 6330   5.076   4.984   3.287 -0.2509 -0.8002  0.1825
   70CHL1   H1A 6331   5.172   4.938   3.321  0.5502 -0.8567 -1.9823
   70CHL1   H1B 6332   4.986   4.919   3.286 -0.0658 -1.0596  0.2836
   70CHL1    C2 6333   5.109   5.033   3.144 -0.1210  0.2471 -0.7928
   70CHL1   H2A 6334   5.121   4.941   3.083 -2.5748 -0.5835 -0.1632
   70CHL1   H2B 6335   5.207   5.085   3.146 -0.1316  0.2661 -0.7530
   70CHL1   C20 6336   5.002   4.939   4.063  0.6439 -0.2717 -0.1539
   70CHL1   H20 6337   5.106   4.933   4.025  0.3845  0.0928 -0.9281
   70CHL1   C21 6338   4.962   4.791   4.091 -0.5300  0.2221 -0.0655
   70CHL1  H21A 6339   5.044   4.744   4.150 -0.9454 -0.8645 -0.3346
   70CHL1  H21B 6340   4.953   4.738   3.994  0.1411  0.9398 -0.5360
   70CHL1  H21C 6341   4.861   4.791   4.139 -1.5270 -1.9526 -1.9822
   70CHL1   C22 6342   5.001   5.031   4.182  0.0879  0.4023 -0.5113
   70CHL1  H22A 6343   5.052   5.129   4.164  0.0378  0.6731  0.7252
   70CHL1  H22B 6344   4.895   5.053   4.204  0.2941  1.2133 -0.2816
   70CHL1   C23 6345   5.069   4.977   4.311  0.0390 -0.0292 -0.0003
   70CHL1  H23A 6346   5.012   4.890   4.352 -2.6859  1.2088 -0.9396
   70CHL1  H23B 6347   5.173   4.941   4.299 -0.2206 -1.3560  1.3634
   70CHL1   C24 6348   5.067   5.082   4.422 -0.0018 -0.2396 -0.1414
   70CHL1  H24A 6349   5.114   5.173   4.378 -1.6602  2.0259  2.4630
   70CHL1  H24B 6350   4.960   5.106   4.441  0.0344 -1.2161  1.5382
   70CHL1   C25 6351   5.135   5.029   4.557 -0.0449 -0.2130 -0.6048
   70CHL1   H25 6352   5.070   4.951   4.603  1.2673 -0.1761  1.4380
   70CHL1   C26 6353   5.277   4.965   4.537 -0.4244 -0.7674 -0.8035
   70CHL1  H26A 6354   5.267   4.875   4.474 -1.0675 -2.3239  1.4004
   70CHL1  H26B 6355   5.346   5.045   4.503 -2.3797  0.6396 -1.6905
   70CHL1  H26C 6356   5.311   4.929   4.637 -0.5783  0.2507 -0.3683
   70CHL1   C27 6357   5.140   5.138   4.662  0.0907  0.3961 -0.1905
   70CHL1  H27A 6358   5.039   5.149   4.707 -0.4912 -1.0741 -1.0645
   70CHL1  H27B 6359   5.211   5.105   4.741  1.7457  1.0096 -1.3721
   70CHL1  H27C 6360   5.184   5.224   4.608 -0.7210  1.2325  0.4537
   71CHL1    C3 6361   1.507   4.457   3.129 -0.8840 -0.0500  0.0469
   71CHL1    H3 6362   1.548   4.559   3.119 -0.4680 -0.2514 -0.3408
   71CHL1    O3 6363   1.484   4.406   2.999 -0.1602  0.4005 -0.1681
   71CHL1   H3' 6364   1.430   4.327   3.007 -1.1923  1.1187  0.1905
   71CHL1    C4 6365   1.621   4.377   3.199 -0.3020  0.2587  0.1948
   71CHL1   H4A 6366   1.582   4.273   3.203  0.5379 -0.1052 -0.6644
   71CHL1   H4B 6367   1.702   4.383   3.123  1.0050 -1.0124  1.4278
   71CHL1    C5 6368   1.650   4.431   3.336  0.2393  0.3018  0.2427
   71CHL1    C6 6369   1.768   4.491   3.366  0.2044  0.0105  0.5479
   71CHL1    H6 6370   1.848   4.497   3.290 -0.8144  0.7411 -0.4900
   71CHL1    C7 6371   1.792   4.564   3.498  0.2600  0.6206  0.4475
   71CHL1   H7A 6372   1.887   4.537   3.550 -0.0210  0.5663  0.9446
   71CHL1   H7B 6373   1.804   4.673   3.481 -0.8802  0.5586 -0.8530
   71CHL1    C8 6374   1.687   4.526   3.608 -0.0649  0.0353  0.0102
   71CHL1    H8 6375   1.698   4.421   3.639  1.3482  0.8974  2.7145
   71CHL1   C14 6376   1.698   4.619   3.728 -0.3477 -0.4762  0.0933
   71CHL1   H14 6377   1.698   4.724   3.690  2.2478 -0.6508 -0.5814
   71CHL1   C15 6378   1.833   4.627   3.798 -0.0048 -0.0041 -0.0897
   71CHL1  H15A 6379   1.885   4.535   3.831  0.3162  1.0505  2.6298
   71CHL1  H15B 6380   1.895   4.695   3.735 -1.3486  1.5722  0.2002
   71CHL1   C16 6381   1.808   4.684   3.937 -0.4861  0.1443  0.0710
   71CHL1  H16A 6382   1.835   4.605   4.011 -0.3367 -0.5799 -0.7416
   71CHL1  H16B 6383   1.861   4.781   3.950  1.1614 -0.8673  1.3577
   71CHL1   C17 6384   1.653   4.704   3.948  0.8741 -0.5980 -0.0089
   71CHL1   H17 6385   1.631   4.809   3.916  1.2384 -0.4474  0.2312
   71CHL1   C13 6386   1.594   4.607   3.839 -0.2134  0.5625 -0.0017
   71CHL1   C18 6387   1.603   4.467   3.906 -0.5539  0.1028  0.5699
   71CHL1  H18A 6388   1.510   4.454   3.964 -1.0079 -1.5590 -0.4751
   71CHL1  H18B 6389   1.613   4.389   3.827 -1.4724  1.1709 -0.6482
   71CHL1  H18C 6390   1.693   4.456   3.970 -0.7257  2.3923  1.2890
   71CHL1   C12 6391   1.461   4.624   3.775  0.4686  0.5456  0.1271
   71CHL1  H12A 6392   1.371   4.591   3.832  1.0896 -1.3365  0.0785
   71CHL1  H12B 6393   1.458   4.731   3.744  1.1349  0.1191 -1.5138
   71CHL1   C11 6394   1.440   4.529   3.658  0.2483  0.2214  0.5600
   71CHL1  H11A 6395   1.436   4.428   3.705 -3.0598 -1.2573 -2.3942
   71CHL1  H11B 6396   1.335   4.549   3.627  0.4368  1.4885  0.6833
   71CHL1    C9 6397   1.547   4.537   3.546 -0.4326  0.6224 -0.6428
   71CHL1    H9 6398   1.547   4.642   3.510  0.6301  0.8213 -0.1267
   71CHL1   C10 6399   1.521   4.442   3.427 -0.3069  0.1972 -0.4583
   71CHL1   C19 6400   1.477   4.305   3.473 -0.2317 -0.3157 -0.1215
   71CHL1  H19A 6401   1.519   4.220   3.414  2.6612  0.5526  0.5345
   71CHL1  H19B 6402   1.526   4.281   3.570 -1.9521  3.0603  1.7376
   71CHL1  H19C 6403   1.367   4.296   3.487 -0.2228 -1.3220 -0.6219
   71CHL1    C1 6404   1.404   4.501   3.343 -0.6436  0.3242 -0.4753
   71CHL1   H1A 6405   1.313   4.507   3.406  0.5054  3.7916  1.1280
   71CHL1   H1B 6406   1.426   4.608   3.325 -1.4668  0.9305  1.8288
   71CHL1    C2 6407   1.386   4.449   3.207 -0.2856  0.8301 -0.7559
   71CHL1   H2A 6408   1.316   4.518   3.155  0.5490  0.2969 -2.6424
   71CHL1   H2B 6409   1.356   4.343   3.220  1.4920  0.6219  3.0276
   71CHL1   C20 6410   1.595   4.689   4.098 -0.4889 -0.6181  0.4997
   71CHL1   H20 6411   1.612   4.584   4.130  0.0940  0.0012  2.3438
   71CHL1   C21 6412   1.450   4.718   4.110 -0.2593  0.1567 -0.1125
   71CHL1  H21A 6413   1.392   4.643   4.052  0.4976  1.6279 -2.9643
   71CHL1  H21B 6414   1.417   4.814   4.065 -0.0596 -0.6078 -2.0339
   71CHL1  H21C 6415   1.424   4.686   4.213  1.7060 -1.9168 -0.1684
   71CHL1   C22 6416   1.689   4.771   4.195 -0.1772 -0.0100 -0.1718
   71CHL1  H22A 6417   1.798   4.765   4.173 -0.3281 -0.7587 -0.7655
   71CHL1  H22B 6418   1.661   4.874   4.165 -0.9263 -0.2968 -0.4719
   71CHL1   C23 6419   1.664   4.738   4.342  0.1971  0.0625 -0.0579
   71CHL1  H23A 6420   1.565   4.784   4.362  1.3288  2.0014  1.5466
   71CHL1  H23B 6421   1.659   4.627   4.351  2.3079 -0.3085 -2.3886
   71CHL1   C24 6422   1.770   4.801   4.440 -0.1107  0.2311  0.2405
   71CHL1  H24A 6423   1.872   4.763   4.414 -0.7204 -0.8040 -0.7202
   71CHL1  H24B 6424   1.778   4.909   4.418  0.7589 -0.2391 -2.1587
   71CHL1   C25 6425   1.760   4.766   4.591  0.3400 -0.6218  0.5397
   71CHL1   H25 6426   1.791   4.661   4.610 -0.9305 -1.1041  0.0618
   71CHL1   C26 6427   1.843   4.870   4.669 -0.1117 -0.3888 -0.2687
   71CHL1  H26A 6428   1.949   4.838   4.656  0.1547  0.8422 -1.2687
   71CHL1  H26B 6429   1.829   4.974   4.633  1.3771  0.4380  1.3311
   71CHL1  H26C 6430   1.826   4.877   4.779  0.6284 -2.2675  0.0061
   71CHL1   C27 6431   1.615   4.779   4.642 -0.5524  0.0947  0.5435
   71CHL1  H27A 6432   1.632   4.782   4.751 -2.4579  0.9022  0.8566
   71CHL1  H27B 6433   1.558   4.869   4.610  0.8806  0.2234 -1.9870
   71CHL1  H27C 6434   1.562   4.682   4.628  1.4549 -0.9646 -0.1826
   72CHL1    C3 6435   2.810   4.386   2.845  0.3209  0.4198  0.4034
   72CHL1    H3 6436   2.915   4.410   2.820 -0.1338  2.3775  0.2489
   72CHL1    O3 6437   2.734   4.377   2.720 -0.9282  0.4409  0.9508
   72CHL1   H3' 6438   2.644   4.354   2.744 -1.5956  2.5324  0.6145
   72CHL1    C4 6439   2.793   4.252   2.923  0.3128 -0.0798 -0.3534
   72CHL1   H4A 6440   2.691   4.209   2.917  0.5377 -0.8019  0.7593
   72CHL1   H4B 6441   2.856   4.181   2.864  0.9766  1.4775 -1.5915
   72CHL1    C5 6442   2.833   4.262   3.070 -0.0108  0.3284  0.6002
   72CHL1    C6 6443   2.913   4.170   3.136 -0.3793 -0.7680  0.2542
   72CHL1    H6 6444   2.945   4.081   3.079  0.3052 -1.7057  2.0519
   72CHL1    C7 6445   2.968   4.196   3.272  0.2888  0.8389 -0.1564
   72CHL1   H7A 6446   2.969   4.102   3.331  1.5353 -0.9824 -2.8830
   72CHL1   H7B 6447   3.075   4.221   3.261  0.2733  1.7761  1.4204
   72CHL1    C8 6448   2.910   4.307   3.353  0.9585 -0.1546 -0.3212
   72CHL1    H8 6449   2.807   4.274   3.379  1.3415  0.2504  1.9922
   72CHL1   C14 6450   2.980   4.331   3.487  0.5966 -0.1612 -0.5583
   72CHL1   H14 6451   3.077   4.367   3.448  1.7687  1.4444  3.3599
   72CHL1   C15 6452   3.021   4.221   3.580  0.6856  0.1990 -0.4527
   72CHL1  H15A 6453   2.947   4.139   3.572  1.1117 -0.2342 -0.0067
   72CHL1  H15B 6454   3.114   4.161   3.571  0.9433  0.0631  2.4088
   72CHL1   C16 6455   3.030   4.294   3.717 -0.0479 -0.5728  0.3346
   72CHL1  H16A 6456   2.964   4.249   3.794 -0.5472  0.8737  0.7967
   72CHL1  H16B 6457   3.137   4.292   3.746  0.5708 -1.9775 -1.8322
   72CHL1   C17 6458   2.998   4.448   3.691 -0.0355  0.6674 -0.3709
   72CHL1   H17 6459   3.093   4.502   3.671 -0.4102  1.5812  0.2498
   72CHL1   C13 6460   2.913   4.444   3.569 -0.0360 -0.1167  0.0290
   72CHL1   C18 6461   2.763   4.418   3.602 -0.7190 -0.7594 -0.1559
   72CHL1  H18A 6462   2.724   4.514   3.643  0.6703  0.1602 -0.8998
   72CHL1  H18B 6463   2.696   4.400   3.516 -0.2368  2.1058 -1.2391
   72CHL1  H18C 6464   2.756   4.332   3.672 -0.4064  0.6552  1.7030
   72CHL1   C12 6465   2.931   4.571   3.486 -0.5090 -0.6280  0.2050
   72CHL1  H12A 6466   2.889   4.657   3.542  3.2535  2.0682 -0.8170
   72CHL1  H12B 6467   3.040   4.586   3.473 -0.5283  1.0679  1.7644
   72CHL1   C11 6468   2.855   4.556   3.355  0.0311  0.1777  0.0502
   72CHL1  H11A 6469   2.750   4.573   3.385 -0.2773 -1.6266  0.1416
   72CHL1  H11B 6470   2.883   4.644   3.293  1.3490 -0.5521 -0.4410
   72CHL1    C9 6471   2.892   4.431   3.268 -0.5607 -0.0941 -0.1707
   72CHL1    H9 6472   2.994   4.454   3.229 -0.3669 -0.4651  0.1098
   72CHL1   C10 6473   2.800   4.403   3.140 -0.5796  0.0646  0.5725
   72CHL1   C19 6474   2.658   4.393   3.193  0.2909 -0.2724 -0.6946
   72CHL1  H19A 6475   2.622   4.493   3.223 -0.3750  0.1293 -2.6773
   72CHL1  H19B 6476   2.586   4.370   3.112  0.2880  0.9588 -1.0535
   72CHL1  H19C 6477   2.635   4.328   3.280 -1.1607  1.5415  0.3253
   72CHL1    C1 6478   2.816   4.530   3.050  0.5942 -0.0897  0.2355
   72CHL1   H1A 6479   2.774   4.619   3.102  1.6631 -0.2854  1.4851
   72CHL1   H1B 6480   2.924   4.550   3.038  0.4885  0.4951  0.2225
   72CHL1    C2 6481   2.745   4.504   2.917 -0.0098  0.6205  0.2511
   72CHL1   H2A 6482   2.742   4.596   2.854  0.2450  0.0773 -0.5861
   72CHL1   H2B 6483   2.637   4.493   2.940  0.0049  1.3254  0.6842
   72CHL1   C20 6484   2.929   4.510   3.818 -0.5928  0.0524 -0.1246
   72CHL1   H20 6485   2.824   4.473   3.817 -0.1030 -1.4490  0.3195
   72CHL1   C21 6486   2.924   4.663   3.824  0.1376  0.3143  0.4924
   72CHL1  H21A 6487   3.028   4.702   3.817  1.4714 -2.9116  0.8000
   72CHL1  H21B 6488   2.870   4.704   3.911 -0.7348 -0.1338  0.1767
   72CHL1  H21C 6489   2.871   4.701   3.734  0.9190 -2.5633 -1.3094
   72CHL1   C22 6490   2.988   4.463   3.953 -0.1474 -0.2175 -0.8670
   72CHL1  H22A 6491   2.938   4.507   4.042  0.8041 -0.1333 -0.3574
   72CHL1  H22B 6492   2.971   4.355   3.969 -0.1866  0.0472  1.1023
   72CHL1   C23 6493   3.140   4.490   3.977 -0.6415 -0.1104 -0.7311
   72CHL1  H23A 6494   3.192   4.462   3.883 -0.0490  1.1277 -0.8001
   72CHL1  H23B 6495   3.161   4.599   3.977  1.4214 -0.3841 -3.8405
   72CHL1   C24 6496   3.205   4.417   4.105  0.2928 -0.3210 -0.3410
   72CHL1  H24A 6497   3.137   4.439   4.190 -1.0102  1.0196 -1.6808
   72CHL1  H24B 6498   3.210   4.307   4.087  0.4190 -0.3919  0.0934
   72CHL1   C25 6499   3.337   4.476   4.162 -0.0206 -0.6287 -0.1905
   72CHL1   H25 6500   3.419   4.472   4.088 -0.1259 -0.4078 -0.3184
   72CHL1   C26 6501   3.323   4.622   4.217  0.2124  0.1741  0.1323
   72CHL1  H26A 6502   3.318   4.686   4.126 -0.2947 -1.8395 -1.3299
   72CHL1  H26B 6503   3.251   4.638   4.300 -3.4689 -0.6354 -2.6314
   72CHL1  H26C 6504   3.423   4.639   4.262  0.3895 -0.0040 -0.1891
   72CHL1   C27 6505   3.375   4.379   4.285 -0.3252  0.1923  0.0252
   72CHL1  H27A 6506   3.376   4.275   4.246 -0.6574 -0.0367  0.6150
   72CHL1  H27B 6507   3.472   4.413   4.327 -0.3456 -0.0756  0.2914
   72CHL1  H27C 6508   3.303   4.388   4.369 -1.1770  1.4571 -0.7961
   73CHL1    C3 6509   4.238   0.413   2.650  0.3366  0.7466  0.3161
   73CHL1    H3 6510   4.323   0.382   2.715  1.7185  0.9453 -1.3328
   73CHL1    O3 6511   4.282   0.409   2.515 -0.3935  0.1554  0.0210
   73CHL1   H3' 6512   4.308   0.499   2.494 -0.9779 -0.3452 -3.2709
   73CHL1    C4 6513   4.121   0.318   2.666  0.2059 -0.1406 -0.4133
   73CHL1   H4A 6514   4.054   0.346   2.582  0.5430 -0.8066 -0.9146
   73CHL1   H4B 6515   4.156   0.218   2.632 -1.7774 -0.9157 -0.2811
   73CHL1    C5 6516   4.070   0.306   2.805  0.4511  0.2268  0.3538
   73CHL1    C6 6517   4.062   0.196   2.885  0.0596 -0.3453 -0.6846
   73CHL1    H6 6518   4.106   0.100   2.854  3.2058  0.2848  1.3768
   73CHL1    C7 6519   4.006   0.194   3.027 -0.2594 -0.3173  0.2164
   73CHL1   H7A 6520   3.939   0.106   3.041  0.6195 -1.4572 -2.1004
   73CHL1   H7B 6521   4.094   0.181   3.094 -0.1985  1.0145  0.4086
   73CHL1    C8 6522   3.926   0.325   3.060 -0.6849  0.0675 -1.0154
   73CHL1    H8 6523   3.827   0.326   3.010 -1.9325 -2.4701  1.1862
   73CHL1   C14 6524   3.904   0.330   3.204  0.0680  0.2085 -0.1644
   73CHL1   H14 6525   4.003   0.345   3.253  0.6352 -1.0266 -0.8886
   73CHL1   C15 6526   3.848   0.204   3.269  0.3324 -0.4194  0.0338
   73CHL1  H15A 6527   3.771   0.160   3.202  0.1008  0.6520 -0.4260
   73CHL1  H15B 6528   3.930   0.131   3.283  1.3100  0.2430 -1.8523
   73CHL1   C16 6529   3.788   0.255   3.399  0.1482 -0.2771 -0.0362
   73CHL1  H16A 6530   3.682   0.223   3.397  0.2630 -0.6181 -1.8229
   73CHL1  H16B 6531   3.839   0.201   3.483 -1.4763  0.8044  1.7308
   73CHL1   C17 6532   3.805   0.411   3.405  0.3247  0.0628  0.2000
   73CHL1   H17 6533   3.906   0.434   3.447  1.1435  1.6458 -2.4118
   73CHL1   C13 6534   3.822   0.449   3.253  0.1029 -0.3396  0.0985
   73CHL1   C18 6535   3.679   0.454   3.195  0.1142  0.1337  0.1445
   73CHL1  H18A 6536   3.636   0.550   3.232 -2.1884 -1.0990  0.8526
   73CHL1  H18B 6537   3.678   0.439   3.085 -0.2735  0.8704  0.0414
   73CHL1  H18C 6538   3.606   0.382   3.238 -2.0538  2.5567  0.7564
   73CHL1   C12 6539   3.897   0.575   3.221  0.6450  0.2011  0.4550
   73CHL1  H12A 6540   3.843   0.670   3.242  1.1154  0.4692  0.4570
   73CHL1  H12B 6541   3.990   0.559   3.279  1.0279  1.9682  0.3737
   73CHL1   C11 6542   3.933   0.570   3.066  0.2782 -0.1899 -0.3817
   73CHL1  H11A 6543   3.833   0.582   3.021  0.1150  4.6841  0.7546
   73CHL1  H11B 6544   3.999   0.657   3.045  1.3015 -0.3167  1.9351
   73CHL1    C9 6545   4.001   0.450   3.014 -0.3070  0.6153 -0.1901
   73CHL1    H9 6546   4.100   0.447   3.065  0.1879  1.1741 -1.0721
   73CHL1   C10 6547   4.027   0.447   2.854 -0.3703 -0.2806 -0.1372
   73CHL1   C19 6548   3.897   0.477   2.776 -1.0835 -0.2991 -0.3591
   73CHL1  H19A 6549   3.820   0.400   2.801 -1.3816  0.6931  2.0686
   73CHL1  H19B 6550   3.848   0.575   2.796  0.4769  0.4890 -0.2408
   73CHL1  H19C 6551   3.912   0.486   2.666 -1.1770  0.2431 -0.3337
   73CHL1    C1 6552   4.135   0.550   2.826 -0.8066 -0.2417 -0.3280
   73CHL1   H1A 6553   4.094   0.652   2.848  2.1687  0.4604  2.9749
   73CHL1   H1B 6554   4.218   0.531   2.897 -1.0914  2.3373  0.8354
   73CHL1    C2 6555   4.196   0.545   2.686 -0.1929  0.0317  0.5866
   73CHL1   H2A 6556   4.278   0.620   2.681  1.0697 -1.1012  2.6779
   73CHL1   H2B 6557   4.118   0.587   2.620  1.2984  0.6006 -0.8936
   73CHL1   C20 6558   3.711   0.492   3.497 -0.4275  0.2040  0.4483
   73CHL1   H20 6559   3.616   0.484   3.441  1.4710 -1.7395 -2.8292
   73CHL1   C21 6560   3.755   0.642   3.509  0.7673  0.1366 -0.0708
   73CHL1  H21A 6561   3.697   0.674   3.598 -2.4319 -1.9447 -1.2280
   73CHL1  H21B 6562   3.722   0.692   3.415 -0.5367 -1.1595 -0.3407
   73CHL1  H21C 6563   3.863   0.649   3.534  0.2029  0.2181  2.6620
   73CHL1   C22 6564   3.690   0.432   3.645  0.6817 -0.0406 -0.4884
   73CHL1  H22A 6565   3.711   0.323   3.633  0.3075 -0.2327  0.4995
   73CHL1  H22B 6566   3.747   0.492   3.719 -1.0342  0.8162  0.1901
   73CHL1   C23 6567   3.542   0.451   3.698 -0.6009 -0.7563  0.2168
   73CHL1  H23A 6568   3.509   0.554   3.673  0.9085 -0.0938  0.8256
   73CHL1  H23B 6569   3.470   0.381   3.652 -0.2190 -1.6213  0.9067
   73CHL1   C24 6570   3.533   0.413   3.843 -0.1471  0.4711 -0.9941
   73CHL1  H24A 6571   3.554   0.305   3.858  0.4068  0.8300  1.0199
   73CHL1  H24B 6572   3.616   0.472   3.885  1.4814 -2.2857 -0.0488
   73CHL1   C25 6573   3.394   0.437   3.909  0.4658 -0.2774 -1.1640
   73CHL1   H25 6574   3.310   0.382   3.861 -0.1387  0.1126 -0.5808
   73CHL1   C26 6575   3.414   0.396   4.055 -0.1995  0.0472  0.3306
   73CHL1  H26A 6576   3.401   0.287   4.070 -0.4042  0.1397  0.8604
   73CHL1  H26B 6577   3.515   0.421   4.093  1.3760  1.6091 -4.2329
   73CHL1  H26C 6578   3.336   0.443   4.119  0.7185  1.1110  0.7029
   73CHL1   C27 6579   3.344   0.588   3.910  0.8491 -0.1612  0.6958
   73CHL1  H27A 6580   3.424   0.655   3.948  1.0475  2.1108 -3.2222
   73CHL1  H27B 6581   3.326   0.610   3.803 -2.1123  0.0791  1.1615
   73CHL1  H27C 6582   3.248   0.591   3.967  1.2464 -0.0718  1.3725
   74CHL1    C3 6583   4.314   3.534   2.558 -0.0630  0.0578  0.3528
   74CHL1    H3 6584   4.385   3.449   2.565 -1.9836 -1.5390  1.3617
   74CHL1    O3 6585   4.333   3.599   2.426  0.1025  0.0934 -0.0794
   74CHL1   H3' 6586   4.400   3.666   2.443  0.5709 -0.7940  1.9154
   74CHL1    C4 6587   4.169   3.472   2.576 -0.4667  0.3661  0.1309
   74CHL1   H4A 6588   4.101   3.556   2.552 -0.5999  0.0994 -0.4417
   74CHL1   H4B 6589   4.154   3.401   2.492 -1.7472 -1.0251  1.4775
   74CHL1    C5 6590   4.156   3.419   2.714 -0.7649  0.2793 -0.3235
   74CHL1    C6 6591   4.130   3.287   2.731  0.2701 -0.1557 -0.1237
   74CHL1    H6 6592   4.116   3.225   2.641  1.7063  3.0290 -2.7278
   74CHL1    C7 6593   4.108   3.225   2.867  0.7102 -0.3073 -0.1874
   74CHL1   H7A 6594   4.011   3.170   2.868  1.2289 -1.3122 -1.4394
   74CHL1   H7B 6595   4.191   3.155   2.892  1.4370  0.7507  0.4437
   74CHL1    C8 6596   4.089   3.326   2.980 -0.4332  0.0632  0.3674
   74CHL1    H8 6597   3.989   3.375   2.982 -1.2982 -1.6098  1.8717
   74CHL1   C14 6598   4.110   3.262   3.118  0.7175  0.1448  0.2289
   74CHL1   H14 6599   4.218   3.235   3.115  0.4207 -0.9903 -1.2624
   74CHL1   C15 6600   4.041   3.128   3.135  0.7721  0.3530 -0.3216
   74CHL1  H15A 6601   3.932   3.123   3.114  0.8517 -1.2563 -0.4808
   74CHL1  H15B 6602   4.085   3.045   3.076 -2.1841  1.6369 -4.8482
   74CHL1   C16 6603   4.060   3.113   3.292  0.1463 -0.3580 -0.2120
   74CHL1  H16A 6604   3.959   3.088   3.331 -0.6605  0.5141 -1.6401
   74CHL1  H16B 6605   4.124   3.025   3.313 -2.7163 -2.9107 -1.4759
   74CHL1   C17 6606   4.120   3.237   3.358  0.1281 -0.0940  0.6431
   74CHL1   H17 6607   4.229   3.218   3.367  0.2293  0.7510  1.3544
   74CHL1   C13 6608   4.091   3.338   3.246  0.0165 -0.7606  0.4049
   74CHL1   C18 6609   3.948   3.379   3.263 -0.5047 -0.1183  0.0536
   74CHL1  H18A 6610   3.873   3.300   3.284  0.4718 -1.2348 -0.5037
   74CHL1  H18B 6611   3.958   3.463   3.335  0.7689  1.3135 -1.7087
   74CHL1  H18C 6612   3.905   3.427   3.173 -1.1617  0.8351  0.8523
   74CHL1   C12 6613   4.195   3.455   3.228 -0.4106 -0.2074 -0.3059
   74CHL1  H12A 6614   4.174   3.533   3.304 -1.8641  0.0988 -0.9785
   74CHL1  H12B 6615   4.292   3.404   3.242 -0.7746 -0.4180  1.6691
   74CHL1   C11 6616   4.176   3.533   3.096  0.2180  0.2155  0.5050
   74CHL1  H11A 6617   4.075   3.579   3.108 -0.5317 -1.5437  1.4381
   74CHL1  H11B 6618   4.258   3.606   3.084 -1.0375  1.4422 -0.9846
   74CHL1    C9 6619   4.193   3.439   2.972 -0.5568  0.3566  0.3970
   74CHL1    H9 6620   4.290   3.386   2.983 -0.5827 -0.0304 -0.9972
   74CHL1   C10 6621   4.183   3.512   2.833  0.7350  0.1656 -0.3215
   74CHL1   C19 6622   4.059   3.614   2.833  0.2252  0.1111 -0.1134
   74CHL1  H19A 6623   4.056   3.680   2.923 -1.8862  0.8564 -0.6600
   74CHL1  H19B 6624   4.058   3.679   2.743 -0.9761  0.2066 -0.0438
   74CHL1  H19C 6625   3.959   3.566   2.826 -0.4565  0.9546  2.5540
   74CHL1    C1 6626   4.316   3.591   2.807 -0.6675 -0.0588 -0.2570
   74CHL1   H1A 6627   4.313   3.672   2.884 -3.0232  0.5905 -0.9337
   74CHL1   H1B 6628   4.402   3.531   2.844  1.0558  2.6945  0.5331
   74CHL1    C2 6629   4.330   3.644   2.667 -0.0354  0.6008  1.3775
   74CHL1   H2A 6630   4.426   3.697   2.646 -0.1411  0.8952  1.6238
   74CHL1   H2B 6631   4.249   3.718   2.651 -0.3989  0.0946  0.8603
   74CHL1   C20 6632   4.051   3.266   3.499  0.3783 -0.2394 -0.1772
   74CHL1   H20 6633   3.947   3.304   3.491  0.8880  1.0083 -1.3883
   74CHL1   C21 6634   4.135   3.380   3.558 -0.6387  0.1182 -0.5398
   74CHL1  H21A 6635   4.117   3.385   3.667 -4.0019 -0.7660 -0.9228
   74CHL1  H21B 6636   4.114   3.476   3.505 -1.4754  0.2332 -0.0202
   74CHL1  H21C 6637   4.240   3.351   3.540 -0.6595 -0.9429  0.8757
   74CHL1   C22 6638   4.054   3.140   3.593  0.1551 -1.8409  0.0845
   74CHL1  H22A 6639   4.008   3.055   3.539 -0.8829  0.5716 -3.1907
   74CHL1  H22B 6640   4.160   3.110   3.607  1.2349  1.7612  0.6405
   74CHL1   C23 6641   3.977   3.156   3.716 -0.6041 -0.0807 -0.6712
   74CHL1  H23A 6642   4.021   3.234   3.781  0.6620  1.3227 -3.0393
   74CHL1  H23B 6643   3.879   3.194   3.681  1.4203  2.8802 -3.8801
   74CHL1   C24 6644   3.968   3.018   3.790  0.4728 -1.0849  0.1957
   74CHL1  H24A 6645   3.936   2.939   3.719  0.1827 -1.3054  0.5691
   74CHL1  H24B 6646   4.068   2.987   3.828  0.6611  1.1098  1.7370
   74CHL1   C25 6647   3.862   3.023   3.895  1.1085 -0.3391  0.5573
   74CHL1   H25 6648   3.770   3.049   3.838  0.5265 -2.0544  0.6578
   74CHL1   C26 6649   3.844   2.892   3.964 -0.0208  0.6751  0.2725
   74CHL1  H26A 6650   3.757   2.896   4.033 -1.9486 -1.7781 -1.8520
   74CHL1  H26B 6651   3.834   2.799   3.904 -0.3649  1.7150 -1.3473
   74CHL1  H26C 6652   3.940   2.881   4.020  0.2998 -0.8656 -0.5483
   74CHL1   C27 6653   3.887   3.122   4.011  0.3264 -0.8479  0.0935
   74CHL1  H27A 6654   3.919   3.220   3.969  2.8592 -1.4826  0.3673
   74CHL1  H27B 6655   3.795   3.131   4.071  0.2371 -1.2436  0.0235
   74CHL1  H27C 6656   3.965   3.099   4.087  0.2764  0.6077  0.6061
   75CHL1    C3 6657   3.827   0.720   2.272  0.6650  0.0519  1.1391
   75CHL1    H3 6658   3.828   0.831   2.274  1.2147  0.1107 -0.6930
   75CHL1    O3 6659   3.917   0.659   2.182 -0.0004 -0.2231 -0.1794
   75CHL1   H3' 6660   3.863   0.590   2.144 -0.2203  1.4707 -3.3311
   75CHL1    C4 6661   3.865   0.683   2.418  0.2747  0.5110 -0.7937
   75CHL1   H4A 6662   3.868   0.572   2.424 -0.8468  0.4953 -0.0508
   75CHL1   H4B 6663   3.965   0.727   2.433 -0.2615  1.8754 -1.0601
   75CHL1    C5 6664   3.774   0.726   2.526  0.0819 -0.1123 -0.3242
   75CHL1    C6 6665   3.817   0.804   2.626  1.3135  0.4460 -0.7592
   75CHL1    H6 6666   3.927   0.812   2.626  1.3710 -0.0670 -2.1317
   75CHL1    C7 6667   3.726   0.855   2.737 -0.0182 -0.3784  0.1325
   75CHL1   H7A 6668   3.783   0.845   2.832 -2.8102 -0.1041  1.9352
   75CHL1   H7B 6669   3.706   0.965   2.737 -0.1489 -0.4004 -0.2647
   75CHL1    C8 6670   3.598   0.776   2.756  0.4130 -0.0458  0.4489
   75CHL1    H8 6671   3.620   0.677   2.801 -2.1576 -2.8335 -3.6810
   75CHL1   C14 6672   3.498   0.847   2.852 -0.2021 -0.8159 -0.9334
   75CHL1   H14 6673   3.480   0.949   2.812 -1.6830 -0.5905  0.2124
   75CHL1   C15 6674   3.549   0.885   2.996 -0.0192  0.5703  0.0733
   75CHL1  H15A 6675   3.606   0.795   3.029  0.1670  0.0040 -1.6770
   75CHL1  H15B 6676   3.625   0.966   3.000  0.2074  0.3218  1.4361
   75CHL1   C16 6677   3.421   0.934   3.062  0.1495  0.7210  0.2176
   75CHL1  H16A 6678   3.404   0.879   3.157  2.9979 -3.4190 -1.3893
   75CHL1  H16B 6679   3.433   1.043   3.079 -0.5603  0.9481 -0.6477
   75CHL1   C17 6680   3.299   0.899   2.961 -0.0345 -0.6554  0.4210
   75CHL1   H17 6681   3.269   0.981   2.892 -0.3386 -1.7564 -0.7707
   75CHL1   C13 6682   3.360   0.787   2.867  0.3270  0.4468 -0.1689
   75CHL1   C18 6683   3.366   0.646   2.924  0.1824  0.2109  0.1610
   75CHL1  H18A 6684   3.455   0.586   2.894 -1.3028 -2.4648  0.8145
   75CHL1  H18B 6685   3.358   0.640   3.034 -0.4982 -2.6125  0.0296
   75CHL1  H18C 6686   3.276   0.593   2.887 -0.6897  0.4282  1.8794
   75CHL1   C12 6687   3.302   0.782   2.726  0.1743 -0.0052 -0.0900
   75CHL1  H12A 6688   3.205   0.729   2.731  1.3594 -2.3611 -0.9458
   75CHL1  H12B 6689   3.288   0.888   2.693  2.2823  0.4499  0.3084
   75CHL1   C11 6690   3.390   0.706   2.622  0.0596 -0.1218 -0.2797
   75CHL1  H11A 6691   3.396   0.599   2.650 -0.4126  0.4712  2.3327
   75CHL1  H11B 6692   3.342   0.714   2.522 -0.4131 -1.4238 -0.1747
   75CHL1    C9 6693   3.535   0.751   2.614 -0.1497 -0.6211  0.0830
   75CHL1    H9 6694   3.518   0.855   2.577  0.3761 -1.0925 -1.5688
   75CHL1   C10 6695   3.622   0.682   2.511  0.1194  0.2252 -0.1618
   75CHL1   C19 6696   3.616   0.532   2.544 -0.6351 -0.4223 -0.2439
   75CHL1  H19A 6697   3.523   0.488   2.502 -1.5957  1.5372 -0.2717
   75CHL1  H19B 6698   3.701   0.482   2.492  1.0578  2.7691 -0.7665
   75CHL1  H19C 6699   3.613   0.505   2.651  2.3456  2.2709  0.6645
   75CHL1    C1 6700   3.582   0.715   2.368 -0.5306 -0.3660 -0.1161
   75CHL1   H1A 6701   3.485   0.667   2.347  0.3072 -1.3349 -2.0974
   75CHL1   H1B 6702   3.579   0.826   2.366  0.8325 -0.2797  0.9208
   75CHL1    C2 6703   3.679   0.671   2.260  0.7419 -0.1321  0.3750
   75CHL1   H2A 6704   3.653   0.703   2.157  2.5274 -0.2531 -0.1389
   75CHL1   H2B 6705   3.683   0.560   2.255  1.8586 -0.0559 -1.0143
   75CHL1   C20 6706   3.174   0.869   3.041  0.2829  0.4975  0.4509
   75CHL1   H20 6707   3.193   0.774   3.096 -0.0180  0.3288  0.2687
   75CHL1   C21 6708   3.051   0.837   2.951  0.3663  0.1865 -0.2446
   75CHL1  H21A 6709   3.078   0.740   2.905 -1.0648 -1.1177  1.5345
   75CHL1  H21B 6710   3.047   0.920   2.877  0.1175 -0.0866 -0.5416
   75CHL1  H21C 6711   2.959   0.824   3.012  1.7660 -1.0408  1.7314
   75CHL1   C22 6712   3.137   0.982   3.141  0.0483  0.2174 -0.1332
   75CHL1  H22A 6713   3.222   0.991   3.212  2.3086 -2.4632 -2.2251
   75CHL1  H22B 6714   3.128   1.068   3.071  0.2769  1.4408  1.3040
   75CHL1   C23 6715   3.002   0.974   3.211 -0.5777 -0.2803 -0.1427
   75CHL1  H23A 6716   3.003   1.060   3.280  1.0840  0.4385 -1.0176
   75CHL1  H23B 6717   2.920   0.997   3.139  0.4142  1.5009 -0.7394
   75CHL1   C24 6718   2.983   0.850   3.296  0.5490  0.1197 -0.1026
   75CHL1  H24A 6719   2.996   0.763   3.229 -1.8896  0.2033 -0.8021
   75CHL1  H24B 6720   3.060   0.835   3.375  0.2784  2.3033  0.6397
   75CHL1   C25 6721   2.848   0.837   3.373 -0.2525  0.0572  0.0605
   75CHL1   H25 6722   2.825   0.929   3.431 -0.1761  1.3977 -1.9447
   75CHL1   C26 6723   2.732   0.829   3.267 -0.2585  0.6422  0.1926
   75CHL1  H26A 6724   2.726   0.932   3.226  0.8607  1.3457  1.6664
   75CHL1  H26B 6725   2.754   0.745   3.197 -0.5746  2.7762 -2.6647
   75CHL1  H26C 6726   2.639   0.813   3.325 -0.2036  0.7826  0.3210
   75CHL1   C27 6727   2.842   0.706   3.459  0.1748 -0.5250  0.2239
   75CHL1  H27A 6728   2.739   0.673   3.484  0.5055 -1.2346  0.6660
   75CHL1  H27B 6729   2.894   0.630   3.397  0.1709 -0.4893  0.1767
   75CHL1  H27C 6730   2.901   0.721   3.552  1.8411  1.9823 -1.1242
   76CHL1    C3 6731   2.280   3.834   2.787 -1.0911  0.6529  0.4141
   76CHL1    H3 6732   2.199   3.809   2.860 -1.6516 -0.0331 -0.4279
   76CHL1    O3 6733   2.228   3.822   2.655  0.2493 -0.0924  0.2187
   76CHL1   H3' 6734   2.182   3.904   2.633 -1.7307 -1.2651 -0.3312
   76CHL1    C4 6735   2.335   3.974   2.824  0.3035  0.3207  0.0256
   76CHL1   H4A 6736   2.419   4.004   2.758  0.0216  0.9189 -0.0613
   76CHL1   H4B 6737   2.256   4.046   2.794 -0.1994 -0.7346 -1.2706
   76CHL1    C5 6738   2.369   3.985   2.967  0.3741 -1.1731 -0.3139
   76CHL1    C6 6739   2.321   4.080   3.049 -0.1314  0.3559  0.3552
   76CHL1    H6 6740   2.246   4.145   3.002  0.6176  0.7244 -0.3505
   76CHL1    C7 6741   2.334   4.094   3.197 -0.7350  0.1474 -0.3048
   76CHL1   H7A 6742   2.322   4.198   3.235 -3.0563 -0.3778  0.5783
   76CHL1   H7B 6743   2.248   4.044   3.246  0.4924 -0.7018  1.0637
   76CHL1    C8 6744   2.463   4.019   3.235  0.2190 -0.5926  1.0554
   76CHL1    H8 6745   2.550   4.077   3.198 -0.6472 -2.1435 -4.2292
   76CHL1   C14 6746   2.472   4.016   3.389  0.1472 -0.0210 -0.3544
   76CHL1   H14 6747   2.381   3.961   3.422 -1.3610  1.9376 -1.0727
   76CHL1   C15 6748   2.467   4.148   3.474  0.2824 -0.1815 -1.0172
   76CHL1  H15A 6749   2.536   4.220   3.426  0.1917  0.6246  0.0213
   76CHL1  H15B 6750   2.367   4.193   3.487  0.4841  0.6131 -2.1374
   76CHL1   C16 6751   2.534   4.106   3.608  0.4234  0.6909 -0.1956
   76CHL1  H16A 6752   2.631   4.157   3.618  1.8776 -2.1228  1.3187
   76CHL1  H16B 6753   2.472   4.117   3.700  1.5266  1.7004  0.4546
   76CHL1   C17 6754   2.560   3.950   3.601 -0.2846 -0.4423  0.3294
   76CHL1   H17 6755   2.465   3.898   3.628 -0.2777 -0.5971  0.0537
   76CHL1   C13 6756   2.587   3.933   3.451 -0.5097  1.4484  0.5048
   76CHL1   C18 6757   2.723   3.980   3.412 -0.0067  0.6323 -0.1544
   76CHL1  H18A 6758   2.805   3.911   3.441  0.5678  1.0778 -0.6705
   76CHL1  H18B 6759   2.727   3.993   3.301 -0.6468 -3.1533 -0.7663
   76CHL1  H18C 6760   2.760   4.075   3.456  2.0271  0.6137 -1.6280
   76CHL1   C12 6761   2.577   3.789   3.388 -0.4789  0.0022 -0.0086
   76CHL1  H12A 6762   2.653   3.715   3.423 -1.2135 -0.5442  0.4542
   76CHL1  H12B 6763   2.483   3.735   3.412  0.0213 -0.7919  0.2035
   76CHL1   C11 6764   2.583   3.782   3.236  0.2856 -0.2162  0.3493
   76CHL1  H11A 6765   2.680   3.828   3.207 -0.8987  1.8014 -0.6655
   76CHL1  H11B 6766   2.580   3.678   3.197  0.0294  0.7482 -2.3789
   76CHL1    C9 6767   2.476   3.877   3.176 -0.0269 -0.0265 -0.5003
   76CHL1    H9 6768   2.383   3.831   3.215  0.7594 -1.2399 -0.0058
   76CHL1   C10 6769   2.464   3.879   3.022 -0.1958  0.1075  0.9820
   76CHL1   C19 6770   2.610   3.910   2.975 -0.1100 -0.8667  0.1222
   76CHL1  H19A 6771   2.620   3.948   2.871 -0.0453  0.4325  0.5923
   76CHL1  H19B 6772   2.643   3.992   3.041 -1.7604  0.9011 -1.1332
   76CHL1  H19C 6773   2.674   3.820   2.989  1.4956  0.5444  2.2947
   76CHL1    C1 6774   2.426   3.742   2.960 -0.1822 -0.3263  0.1036
   76CHL1   H1A 6775   2.508   3.671   2.985 -0.1075  0.7627  3.5760
   76CHL1   H1B 6776   2.343   3.700   3.022 -0.8942  1.4125  0.3681
   76CHL1    C2 6777   2.391   3.736   2.812 -0.4520 -0.0590 -0.3533
   76CHL1   H2A 6778   2.350   3.634   2.796 -2.7309  0.6224  0.6933
   76CHL1   H2B 6779   2.471   3.756   2.737 -1.6821  2.0137 -1.1989
   76CHL1   C20 6780   2.668   3.894   3.695  0.0218  0.3146  0.3628
   76CHL1   H20 6781   2.768   3.893   3.647  0.1198 -0.8910  0.5568
   76CHL1   C21 6782   2.639   3.740   3.722 -0.0222  0.0516 -0.0561
   76CHL1  H21A 6783   2.588   3.696   3.633 -1.1413  0.2514  0.4699
   76CHL1  H21B 6784   2.564   3.728   3.803  0.5323 -2.9007  0.1562
   76CHL1  H21C 6785   2.728   3.675   3.742  1.5912  1.6493 -1.6802
   76CHL1   C22 6786   2.684   3.967   3.833 -0.1785 -0.2312 -0.9218
   76CHL1  H22A 6787   2.663   4.076   3.827  2.2370  0.2277 -3.6713
   76CHL1  H22B 6788   2.612   3.929   3.908 -0.2689 -0.2431 -1.0147
   76CHL1   C23 6789   2.828   3.951   3.878 -0.3153 -0.4844 -0.3845
   76CHL1  H23A 6790   2.862   3.847   3.897  0.7784 -0.0815 -0.0586
   76CHL1  H23B 6791   2.898   3.993   3.803 -1.0506 -1.9954 -1.9851
   76CHL1   C24 6792   2.854   4.027   4.017 -0.6935 -0.5314  0.8289
   76CHL1  H24A 6793   2.818   4.128   3.988 -0.5825 -0.4793  0.8757
   76CHL1  H24B 6794   2.789   3.981   4.095 -0.5317  1.7286  2.4002
   76CHL1   C25 6795   3.001   4.031   4.064 -0.2202  0.2177 -0.8571
   76CHL1   H25 6796   3.080   4.075   3.999 -0.0955 -0.6585 -1.3266
   76CHL1   C26 6797   3.019   4.100   4.201  0.3915  0.4069 -0.2319
   76CHL1  H26A 6798   2.974   4.201   4.198 -1.1385 -0.2614 -1.7898
   76CHL1  H26B 6799   2.972   4.044   4.284 -0.1773  1.8068  0.4205
   76CHL1  H26C 6800   3.127   4.120   4.216  0.2655  3.5989 -2.5304
   76CHL1   C27 6801   3.052   3.885   4.084  0.6900 -0.5166 -0.0772
   76CHL1  H27A 6802   3.061   3.823   3.993 -0.9494 -1.6328  0.4781
   76CHL1  H27B 6803   3.156   3.885   4.123  0.1942 -0.8183  1.3299
   76CHL1  H27C 6804   2.987   3.838   4.161  0.9809  1.3983  1.4409
   77SOPE     N 6805   3.797   1.206   6.475 -0.3560 -0.2634  1.0747
   77SOPE   HN1 6806   3.794   1.120   6.534 -1.4183 -0.1544  1.2080
   77SOPE   HN2 6807   3.894   1.217   6.440 -0.2888  0.9276  1.5800
   77SOPE   HN3 6808   3.790   1.292   6.534  0.8811  0.0713  0.7569
   77SOPE   C12 6809   3.701   1.205   6.356  0.4179  0.6490  0.1637
   77SOPE  H12A 6810   3.690   1.313   6.333  1.8018  0.7119 -0.3029
   77SOPE  H12B 6811   3.599   1.167   6.379  0.7243 -1.4306 -1.5717
   77SOPE   C11 6812   3.761   1.120   6.236  0.7332 -0.7398 -0.4469
   77SOPE  H11A 6813   3.831   1.188   6.183 -1.4894  0.6843 -1.7386
   77SOPE  H11B 6814   3.677   1.103   6.164 -0.0008  0.4949  0.0895
   77SOPE     P 6815   3.750   0.868   6.293  0.3352  0.0194  0.0716
   77SOPE   O13 6816   3.641   0.881   6.399 -0.3122 -0.7196  0.4049
   77SOPE   O14 6817   3.842   0.753   6.301 -0.6712  0.3185 -0.7434
   77SOPE   O12 6818   3.827   1.005   6.281  0.3955  0.4709  0.0306
   77SOPE   O11 6819   3.677   0.864   6.155  0.9114  0.1926 -0.0572
   77SOPE    C1 6820   3.756   0.867   6.032 -0.5820  0.3114  0.1648
   77SOPE    HA 6821   3.861   0.834   6.050 -0.4069  0.6753 -0.1623
   77SOPE    HB 6822   3.758   0.972   5.996  0.5604  1.0391  2.1822
   77SOPE    C2 6823   3.697   0.779   5.916 -0.2236  0.2087  0.5094
   77SOPE    HS 6824   3.598   0.819   5.884 -0.1705 -1.2150 -1.6090
   77SOPE   O21 6825   3.686   0.641   5.962  0.6483  0.7060 -0.3493
   77SOPE   C21 6826   3.562   0.599   5.969 -0.9862 -0.2225 -1.0730
   77SOPE   O22 6827   3.462   0.670   5.970 -0.2614  0.5223  0.2000
   77SOPE   C22 6828   3.566   0.449   5.993 -0.0102  0.0030  0.0224
   77SOPE   H2R 6829   3.521   0.443   6.094 -0.8360 -1.0184 -0.3888
   77SOPE   H2S 6830   3.671   0.415   6.006 -0.2590 -0.7701  0.0174
   77SOPE    C3 6831   3.793   0.779   5.794 -0.8862  0.4095  0.6718
   77SOPE    HX 6832   3.881   0.719   5.824 -0.4473 -0.9333 -2.9222
   77SOPE    HY 6833   3.824   0.882   5.767  2.6600 -0.8025 -0.3396
   77SOPE   O31 6834   3.728   0.723   5.680  0.3548  0.0804  0.3345
   77SOPE   C31 6835   3.635   0.798   5.613  0.2724  0.3044 -1.2850
   77SOPE   O32 6836   3.590   0.904   5.654 -0.2707 -0.1919 -0.0510
   77SOPE   C32 6837   3.624   0.749   5.464 -0.3645  0.0259  0.2611
   77SOPE   H2X 6838   3.606   0.640   5.474 -1.5505  0.3245  1.6032
   77SOPE   H2Y 6839   3.719   0.783   5.416 -0.5116  0.6366  0.3909
   77SOPE   C23 6840   3.477   0.365   5.893 -0.3422 -0.3880 -0.6193
   77SOPE   H3R 6841   3.370   0.380   5.918  0.3792  1.5941  1.7381
   77SOPE   H3S 6842   3.494   0.261   5.928  0.0048 -0.2889 -0.4882
   77SOPE   C24 6843   3.503   0.388   5.741 -0.4426 -0.5933 -0.5710
   77SOPE   H4R 6844   3.486   0.496   5.722  0.2906 -0.6790 -1.8276
   77SOPE   H4S 6845   3.609   0.364   5.720 -0.4997 -0.2380 -1.3123
   77SOPE   C25 6846   3.414   0.310   5.652 -0.4083 -0.1600  0.3047
   77SOPE   H5R 6847   3.400   0.210   5.698 -0.0133  0.3830  1.6435
   77SOPE   H5S 6848   3.314   0.356   5.638 -0.3248 -0.2606 -0.7128
   77SOPE   C26 6849   3.480   0.273   5.515  0.5659 -0.6282 -0.2349
   77SOPE   H6R 6850   3.590   0.261   5.527  0.9082 -2.1009 -3.6897
   77SOPE   H6S 6851   3.440   0.176   5.478  0.3932 -1.1988  1.3811
   77SOPE   C27 6852   3.451   0.384   5.414  0.1451 -0.4270 -0.2316
   77SOPE   H7R 6853   3.349   0.353   5.383 -0.2369  0.3402  0.2245
   77SOPE   H7S 6854   3.442   0.483   5.463  0.3464  0.1371 -1.3015
   77SOPE   C28 6855   3.559   0.385   5.305  0.1900 -0.0057 -0.2600
   77SOPE   H8R 6856   3.547   0.479   5.247  0.0275  0.5759  0.6960
   77SOPE   H8S 6857   3.652   0.405   5.363 -0.1541  0.4299  0.1531
   77SOPE   C29 6858   3.566   0.267   5.218 -0.0338  1.0104  0.7966
   77SOPE   H91 6859   3.522   0.176   5.262  1.2076  0.1021  0.1992
   77SOPE  C210 6860   3.602   0.264   5.089 -0.0405  0.2234 -0.0200
   77SOPE  H101 6861   3.602   0.171   5.031  2.7486  0.4077 -0.4842
   77SOPE  C211 6862   3.643   0.381   5.011 -0.0802 -0.9627 -0.2241
   77SOPE  H11R 6863   3.734   0.365   4.950 -0.3341 -1.1317 -0.5610
   77SOPE  H11S 6864   3.665   0.472   5.071  3.1572  0.2079 -2.8958
   77SOPE  C212 6865   3.542   0.417   4.900  0.3598 -0.4858 -0.1991
   77SOPE  H12R 6866   3.557   0.513   4.846 -1.0633 -0.6915 -1.0109
   77SOPE  H12S 6867   3.444   0.442   4.945 -1.5948 -3.4123 -2.4248
   77SOPE  C213 6868   3.512   0.315   4.788  0.3470 -0.1353  0.2529
   77SOPE  H13R 6869   3.461   0.374   4.710 -0.4580 -0.9791  0.1201
   77SOPE  H13S 6870   3.443   0.231   4.811 -2.2691  1.8538  0.0873
   77SOPE  C214 6871   3.633   0.251   4.720  0.8104  0.2492  0.0163
   77SOPE  H14R 6872   3.687   0.198   4.801  0.5025  0.1390  0.1512
   77SOPE  H14S 6873   3.701   0.331   4.686  0.3074  0.1213 -1.3746
   77SOPE  C215 6874   3.593   0.163   4.607 -0.0553  0.1521  0.5419
   77SOPE  H15R 6875   3.504   0.210   4.561 -1.0474 -0.0386  2.2044
   77SOPE  H15S 6876   3.549   0.065   4.637 -1.9045  1.0006  0.6984
   77SOPE  C216 6877   3.696   0.157   4.493 -0.3968  0.5421  0.7401
   77SOPE  H16R 6878   3.798   0.152   4.536  1.0143  0.4071 -2.3437
   77SOPE  H16S 6879   3.714   0.253   4.441  2.3622 -0.8880 -1.2165
   77SOPE  C217 6880   3.664   0.066   4.382 -0.0636  0.5372 -0.4520
   77SOPE  H17R 6881   3.743   0.073   4.305 -0.0229  0.4038 -0.4226
   77SOPE  H17S 6882   3.572   0.116   4.343 -0.0251  1.0869  0.1350
   77SOPE  C218 6883   3.650  -0.084   4.407  0.0480 -0.3633 -0.2579
   77SOPE  H18R 6884   3.601  -0.135   4.321  0.0685  0.9203 -1.0664
   77SOPE  H18S 6885   3.598  -0.101   4.504  0.8317  0.7647  0.3819
   77SOPE  H18T 6886   3.748  -0.124   4.437  0.5770  1.0820  0.0317
   77SOPE   C33 6887   3.499   0.802   5.388  0.6302 -0.6001 -0.1690
   77SOPE   H3X 6888   3.520   0.909   5.366  0.0284 -0.2741  0.7877
   77SOPE   H3Y 6889   3.418   0.794   5.464  2.2902 -4.1415  1.4217
   77SOPE   C34 6890   3.480   0.730   5.253 -0.3535 -0.9690  0.0880
   77SOPE   H4X 6891   3.442   0.630   5.284  0.2776 -0.6519  2.0003
   77SOPE   H4Y 6892   3.576   0.724   5.197 -0.3357  2.1593 -0.3894
   77SOPE   C35 6893   3.368   0.811   5.183  0.2531  0.1449 -0.2346
   77SOPE   H5X 6894   3.397   0.916   5.165 -0.9600  0.4208 -0.7147
   77SOPE   H5Y 6895   3.283   0.812   5.255 -0.8880 -0.9504 -1.4980
   77SOPE   C36 6896   3.330   0.748   5.050 -0.2275 -0.2949 -0.4079
   77SOPE   H6X 6897   3.301   0.642   5.060 -0.8040  0.0218  1.8412
   77SOPE   H6Y 6898   3.416   0.765   4.981  2.4800 -1.0228  2.5307
   77SOPE   C37 6899   3.210   0.817   4.994  0.0811  0.4457  0.3941
   77SOPE   H7X 6900   3.222   0.925   4.972  2.4584 -0.0988 -1.3711
   77SOPE   H7Y 6901   3.128   0.805   5.069 -1.4249 -1.4915 -1.4476
   77SOPE   C38 6902   3.148   0.743   4.870  0.0882  0.0366  0.2821
   77SOPE   H8X 6903   3.059   0.800   4.835 -0.7592 -0.1017  2.1165
   77SOPE   H8Y 6904   3.103   0.652   4.914 -0.9732 -0.6488 -2.0353
   77SOPE   C39 6905   3.251   0.710   4.762 -0.1497 -0.1246 -1.2020
   77SOPE   H9X 6906   3.345   0.663   4.799 -1.4488 -2.3778 -0.6136
   77SOPE   H9Y 6907   3.272   0.806   4.711 -0.2396  0.1055 -0.8051
   77SOPE  C310 6908   3.194   0.603   4.670  0.5083  0.2082 -0.3333
   77SOPE  H10X 6909   3.137   0.529   4.730 -0.9135  0.1399 -1.6858
   77SOPE  H10Y 6910   3.277   0.551   4.618  0.3152 -1.6919  1.1481
   77SOPE  C311 6911   3.099   0.673   4.574 -0.3247  1.0258  0.3197
   77SOPE  H11X 6912   3.149   0.764   4.534 -1.5105  2.3540  1.7206
   77SOPE  H11Y 6913   3.012   0.714   4.631 -1.7551  0.8378 -1.6105
   77SOPE  C312 6914   3.045   0.580   4.464  0.2684 -0.1676 -0.1071
   77SOPE  H12X 6915   3.009   0.478   4.486 -2.1614 -0.2528 -3.6720
   77SOPE  H12Y 6916   3.127   0.566   4.392  0.5117 -0.4846  0.2286
   77SOPE  C313 6917   2.930   0.650   4.394 -0.0812  0.1931  0.2992
   77SOPE  H13X 6918   2.938   0.760   4.385  1.5481 -0.0045 -1.4617
   77SOPE  H13Y 6919   2.835   0.634   4.449  1.5783  1.3374  3.7949
   77SOPE  C314 6920   2.918   0.592   4.256  0.4858 -0.3357  0.5508
   77SOPE  H14X 6921   2.927   0.482   4.269  2.2339 -0.1915  0.7699
   77SOPE  H14Y 6922   3.007   0.631   4.204  0.3134  0.5254  0.8928
   77SOPE  C315 6923   2.784   0.635   4.188  0.7686  0.0239  0.6606
   77SOPE  H15X 6924   2.754   0.740   4.207 -1.8903 -0.5465 -0.0327
   77SOPE  H15Y 6925   2.701   0.576   4.233  0.2747  0.0070 -0.2605
   77SOPE  C316 6926   2.799   0.610   4.036 -0.1477  0.2601  0.2783
   77SOPE  H16X 6927   2.831   0.504   4.024 -2.0496 -0.3082 -0.0670
   77SOPE  H16Y 6928   2.893   0.665   4.012 -0.5746  0.5278 -0.8652
   77SOPE  C317 6929   2.688   0.669   3.956  0.9943 -0.5270 -0.6175
   77SOPE  H17X 6930   2.691   0.779   3.945 -0.0368 -0.3181  0.9179
   77SOPE  H17Y 6931   2.588   0.645   3.998  1.0872 -0.1416 -0.1827
   77SOPE  C318 6932   2.684   0.624   3.805 -0.0933  0.1488  0.4489
   77SOPE  H18X 6933   2.790   0.642   3.777  0.0176  0.1500  0.8629
   77SOPE  H18Y 6934   2.614   0.681   3.740  0.9480  0.4081 -0.4810
   77SOPE  H18Z 6935   2.663   0.516   3.792  3.1768 -0.6948  1.2068
   78SOPE     N 6936   2.386   6.689   6.703 -0.4936  0.6996 -0.2848
   78SOPE   HN1 6937   2.282   6.694   6.708 -0.4682  0.2314  2.0965
   78SOPE   HN2 6938   2.409   6.590   6.681 -0.4964  1.0078 -1.8102
   78SOPE   HN3 6939   2.424   6.706   6.799 -3.2571  0.4784  0.9421
   78SOPE   C12 6940   2.422   6.792   6.600  0.2979 -0.4095  0.1419
   78SOPE  H12A 6941   2.395   6.889   6.648 -1.4154 -1.3174  1.0981
   78SOPE  H12B 6942   2.362   6.774   6.509  0.8449 -0.0101 -0.3018
   78SOPE   C11 6943   2.578   6.780   6.559  0.4128 -0.4729 -0.6268
   78SOPE  H11A 6944   2.601   6.862   6.488 -0.3875  0.2488 -0.0713
   78SOPE  H11B 6945   2.593   6.684   6.504 -1.9685  0.9656 -4.1054
   78SOPE     P 6946   2.815   6.790   6.680  0.0592  0.2115  0.2405
   78SOPE   O13 6947   2.866   6.652   6.668  0.4166  0.1686  0.9987
   78SOPE   O14 6948   2.864   6.869   6.790 -0.4302 -0.5314  0.4044
   78SOPE   O12 6949   2.654   6.798   6.680  0.3587  0.5379 -0.3643
   78SOPE   O11 6950   2.859   6.858   6.553 -0.2308 -0.0325  0.1216
   78SOPE    C1 6951   2.900   6.781   6.436 -1.0275  0.5420 -0.3142
   78SOPE    HA 6952   2.853   6.683   6.415  3.5816 -2.1298  0.4691
   78SOPE    HB 6953   3.006   6.749   6.450 -1.0577  0.5668 -0.0187
   78SOPE    C2 6954   2.890   6.869   6.311 -0.2127  0.0924  0.2247
   78SOPE    HS 6955   2.920   6.969   6.349  1.1771 -0.3475  0.3296
   78SOPE   O21 6956   2.756   6.866   6.260  0.1553  0.2288  0.5089
   78SOPE   C21 6957   2.735   6.959   6.165  0.2017  0.1234  0.4454
   78SOPE   O22 6958   2.813   7.044   6.132 -0.1779  0.0472 -0.1046
   78SOPE   C22 6959   2.595   6.915   6.114  0.1819 -0.6115  0.9136
   78SOPE   H2R 6960   2.532   6.900   6.204 -1.1485 -2.1005 -0.2062
   78SOPE   H2S 6961   2.609   6.817   6.064  0.6790 -0.3235  0.4741
   78SOPE    C3 6962   3.004   6.831   6.209  0.2875 -0.5384 -0.3930
   78SOPE    HX 6963   3.106   6.838   6.253 -0.0653  1.2988  0.2187
   78SOPE    HY 6964   3.013   6.899   6.121  2.9214 -0.3589 -0.0799
   78SOPE   O31 6965   2.985   6.696   6.163  0.6997  0.4326 -0.1736
   78SOPE   C31 6966   2.909   6.674   6.058 -0.4485 -0.0765  0.6344
   78SOPE   O32 6967   2.852   6.759   5.994 -0.1800 -0.4424  0.9899
   78SOPE   C32 6968   2.904   6.527   6.031  0.1083 -0.0062  0.9695
   78SOPE   H2X 6969   2.811   6.497   6.084 -0.6010  1.4170  0.5727
   78SOPE   H2Y 6970   2.981   6.466   6.083 -1.7908  0.2871  4.4304
   78SOPE   C23 6971   2.526   7.023   6.033  0.6625 -0.4187  1.1453
   78SOPE   H3R 6972   2.519   7.120   6.087  1.1910  1.6181 -2.1537
   78SOPE   H3S 6973   2.423   6.989   6.012  0.5198  1.0274 -0.8312
   78SOPE   C24 6974   2.596   7.055   5.898  0.3142  0.0296  0.0669
   78SOPE   H4R 6975   2.686   7.118   5.916 -1.6250  3.2851 -0.6446
   78SOPE   H4S 6976   2.624   6.957   5.855 -2.2278 -0.6170 -0.2684
   78SOPE   C25 6977   2.491   7.116   5.814  0.3118  0.3533 -0.4001
   78SOPE   H5R 6978   2.394   7.063   5.828 -0.3624  1.0286 -2.2078
   78SOPE   H5S 6979   2.461   7.213   5.859 -1.3325 -0.2133 -0.2094
   78SOPE   C26 6980   2.546   7.130   5.675 -0.0728 -0.2638  0.4877
   78SOPE   H6R 6981   2.478   7.191   5.613  2.3437  2.5652  0.4133
   78SOPE   H6S 6982   2.642   7.185   5.683  0.2858 -0.7431 -0.4061
   78SOPE   C27 6983   2.580   7.003   5.591 -0.2182  0.7912  0.4521
   78SOPE   H7R 6984   2.654   6.935   5.637  0.4527 -1.0998 -3.0953
   78SOPE   H7S 6985   2.488   6.939   5.587  2.6051 -3.7907  1.5807
   78SOPE   C28 6986   2.628   7.036   5.450 -0.6937  0.1345  0.3162
   78SOPE   H8R 6987   2.557   7.107   5.401 -1.1719 -1.1768 -0.9649
   78SOPE   H8S 6988   2.735   7.065   5.449 -0.7270  0.2671 -0.8962
   78SOPE   C29 6989   2.621   6.904   5.373 -0.0864  0.5899  0.1677
   78SOPE   H91 6990   2.630   6.816   5.439 -2.6962 -2.6526 -3.3710
   78SOPE  C210 6991   2.585   6.888   5.242  0.7417 -0.7699 -0.7756
   78SOPE  H101 6992   2.584   6.786   5.202 -1.5728 -2.3407  2.7007
   78SOPE  C211 6993   2.557   6.994   5.141  0.6790 -0.3514 -0.2051
   78SOPE  H11R 6994   2.505   7.081   5.186 -0.1900  0.8858 -3.3895
   78SOPE  H11S 6995   2.496   6.958   5.055  2.1951  1.1980 -1.9953
   78SOPE  C212 6996   2.685   7.046   5.085 -0.0281  0.4185  0.0538
   78SOPE  H12R 6997   2.722   7.107   5.170  0.0608  2.2298 -1.2113
   78SOPE  H12S 6998   2.666   7.114   4.998  1.5315 -0.2388 -0.8544
   78SOPE  C213 6999   2.798   6.952   5.035 -0.6021  0.5748 -0.1614
   78SOPE  H13R 7000   2.845   6.899   5.121 -1.3186  1.3153  0.7064
   78SOPE  H13S 7001   2.877   7.010   4.982 -1.7041  0.2260 -2.2972
   78SOPE  C214 7002   2.762   6.833   4.942  0.1504 -0.1951  0.3890
   78SOPE  H14R 7003   2.697   6.763   4.998 -1.5898  0.5507 -0.6012
   78SOPE  H14S 7004   2.862   6.786   4.931  1.4931  2.1357  1.7137
   78SOPE  C215 7005   2.702   6.867   4.807  0.2879 -0.2643  0.7121
   78SOPE  H15R 7006   2.751   6.951   4.754 -1.7179 -0.1741 -1.1436
   78SOPE  H15S 7007   2.595   6.890   4.826  0.2239 -0.3718  0.4769
   78SOPE  C216 7008   2.703   6.745   4.710  0.5833 -1.4590 -0.8962
   78SOPE  H16R 7009   2.658   6.668   4.777  0.2966 -0.6842 -0.1786
   78SOPE  H16S 7010   2.801   6.703   4.678  0.5954 -1.4571 -0.8619
   78SOPE  C217 7011   2.605   6.764   4.588  0.1925  0.0343 -0.5281
   78SOPE  H17R 7012   2.651   6.849   4.533 -0.3329  0.8970  0.3308
   78SOPE  H17S 7013   2.500   6.795   4.603 -0.1358 -0.1054 -2.2960
   78SOPE  C218 7014   2.615   6.637   4.503 -0.8035  0.0879  0.3209
   78SOPE  H18R 7015   2.597   6.545   4.561 -0.0898  1.1805  2.3752
   78SOPE  H18S 7016   2.712   6.627   4.449 -1.8295 -2.6078 -1.2084
   78SOPE  H18T 7017   2.535   6.640   4.425 -1.8642 -0.5145  1.3593
   78SOPE   C33 7018   2.888   6.499   5.880  0.5396 -0.4741  0.1451
   78SOPE   H3X 7019   2.805   6.558   5.836  2.1923  1.4680 -0.5587
   78SOPE   H3Y 7020   2.869   6.390   5.872  1.5665 -0.6545  0.0189
   78SOPE   C34 7021   3.012   6.536   5.803 -0.9041  0.3094  0.0559
   78SOPE   H4X 7022   3.099   6.473   5.830 -1.0932  0.7317  1.7381
   78SOPE   H4Y 7023   3.033   6.644   5.818  0.8789 -0.3489  2.9178
   78SOPE   C35 7024   2.997   6.503   5.655  0.2266 -0.7819  0.0638
   78SOPE   H5X 7025   2.925   6.419   5.661 -0.2774 -0.2575  2.3087
   78SOPE   H5Y 7026   3.096   6.474   5.613  0.1298  0.4280 -1.0701
   78SOPE   C36 7027   2.925   6.624   5.586 -0.5706  0.2174  0.2320
   78SOPE   H6X 7028   2.994   6.710   5.580  1.3370 -1.1599  1.3372
   78SOPE   H6Y 7029   2.834   6.655   5.642 -0.1713  0.0974  0.9575
   78SOPE   C37 7030   2.879   6.597   5.441 -0.2250  0.1639 -0.3062
   78SOPE   H7X 7031   2.832   6.687   5.396 -1.3313 -0.5643 -0.6537
   78SOPE   H7Y 7032   2.805   6.514   5.443 -1.0133  0.8502  1.8117
   78SOPE   C38 7033   2.988   6.543   5.347 -0.5957 -0.9321  0.3749
   78SOPE   H8X 7034   3.021   6.442   5.381 -0.3719 -1.5075 -1.4373
   78SOPE   H8Y 7035   3.073   6.615   5.342  0.2688 -1.9666 -0.5217
   78SOPE   C39 7036   2.937   6.527   5.194 -0.0819  0.0334  0.3557
   78SOPE   H9X 7037   2.908   6.631   5.167 -0.5402  0.1471  1.2538
   78SOPE   H9Y 7038   2.845   6.466   5.190 -0.1347  0.1739 -2.2666
   78SOPE  C310 7039   3.040   6.476   5.088  0.0269  0.5315 -0.3367
   78SOPE  H10X 7040   3.039   6.365   5.077 -0.5523  0.4756  0.2075
   78SOPE  H10Y 7041   3.142   6.510   5.113 -0.3345  0.6287  1.0840
   78SOPE  C311 7042   3.023   6.540   4.953 -0.2608  0.2317 -0.7573
   78SOPE  H11X 7043   3.063   6.643   4.964 -0.1067  0.0035  1.2610
   78SOPE  H11Y 7044   2.921   6.554   4.910  0.2155  1.0548 -1.6617
   78SOPE  C312 7045   3.112   6.464   4.852 -0.1862 -0.3034  1.0006
   78SOPE  H12X 7046   3.078   6.361   4.829 -0.9790  0.4904 -1.8000
   78SOPE  H12Y 7047   3.213   6.461   4.898 -0.4418  3.8854  2.2802
   78SOPE  C313 7048   3.137   6.547   4.721 -0.0473  0.5301 -0.3661
   78SOPE  H13X 7049   3.097   6.650   4.734 -2.8373 -0.5455  0.2731
   78SOPE  H13Y 7050   3.070   6.509   4.640 -0.9009  0.1070  0.5059
   78SOPE  C314 7051   3.284   6.557   4.670  0.4335 -0.6336  0.0479
   78SOPE  H14X 7052   3.313   6.450   4.667  0.1428 -0.8732 -5.7042
   78SOPE  H14Y 7053   3.334   6.618   4.748 -2.1903 -0.2303  1.5624
   78SOPE  C315 7054   3.301   6.601   4.525  0.2083 -0.1251 -0.1188
   78SOPE  H15X 7055   3.317   6.710   4.509  1.1782 -0.1879  0.3343
   78SOPE  H15Y 7056   3.207   6.569   4.477  0.7636 -2.5144  0.2604
   78SOPE  C316 7057   3.426   6.533   4.456 -0.5134  0.3877  0.0604
   78SOPE  H16X 7058   3.521   6.577   4.494 -0.3091 -1.5543  2.0324
   78SOPE  H16Y 7059   3.410   6.564   4.351  0.3173  0.4598 -0.0499
   78SOPE  C317 7060   3.436   6.376   4.458 -0.6058 -0.7596 -0.0566
   78SOPE  H17X 7061   3.340   6.323   4.439 -0.8467 -0.5788  0.6180
   78SOPE  H17Y 7062   3.465   6.340   4.559  0.1194  0.6771  0.2833
   78SOPE  C318 7063   3.542   6.319   4.369 -0.1164 -0.8823  0.0381
   78SOPE  H18X 7064   3.567   6.213   4.393  4.6185  0.4302  1.9509
   78SOPE  H18Y 7065   3.634   6.372   4.400  0.4180 -2.3518  1.1115
   78SOPE  H18Z 7066   3.517   6.332   4.262  0.4348 -1.0134 -0.1060
   79SOPE     N 7067   6.579   5.265   6.702  0.3178 -0.2627  0.5111
   79SOPE   HN1 7068   6.499   5.219   6.655 -1.5714  2.6731  0.6232
   79SOPE   HN2 7069   6.576   5.359   6.657  2.8547  1.1160  2.9435
   79SOPE   HN3 7070   6.669   5.223   6.672 -0.6356 -0.4673 -2.3774
   79SOPE   C12 7071   6.562   5.251   6.852 -0.4930 -0.8846  0.0485
   79SOPE  H12A 7072   6.640   5.316   6.897  1.0318 -0.8826 -2.4563
   79SOPE  H12B 7073   6.583   5.146   6.880  1.0333 -0.6928 -0.3087
   79SOPE   C11 7074   6.414   5.291   6.890  0.2497 -0.3888 -0.7191
   79SOPE  H11A 7075   6.408   5.298   7.001  1.4863 -1.0537 -0.5955
   79SOPE  H11B 7076   6.346   5.212   6.849  0.5076 -0.0897 -1.7620
   79SOPE     P 7077   6.235   5.462   6.834 -0.8442 -0.3686  0.1252
   79SOPE   O13 7078   6.227   5.602   6.793  0.5025  0.1294 -0.5019
   79SOPE   O14 7079   6.180   5.426   6.967 -0.1824  0.6778  0.2975
   79SOPE   O12 7080   6.380   5.419   6.832  0.1689  0.2045 -0.8706
   79SOPE   O11 7081   6.172   5.362   6.726 -0.4512  0.2041 -0.0988
   79SOPE    C1 7082   6.239   5.348   6.601  0.3314 -0.0496  0.3381
   79SOPE    HA 7083   6.243   5.238   6.581  1.5676  0.0452 -0.0106
   79SOPE    HB 7084   6.343   5.388   6.601  0.3864 -0.1840  0.0401
   79SOPE    C2 7085   6.158   5.422   6.492  0.3020 -0.3201  0.6579
   79SOPE    HS 7086   6.181   5.390   6.388  0.6896  1.9919 -0.0221
   79SOPE   O21 7087   6.179   5.562   6.509  0.3294  0.1968 -0.4047
   79SOPE   C21 7088   6.287   5.597   6.441 -0.1586 -0.5644 -0.6491
   79SOPE   O22 7089   6.364   5.524   6.383 -0.0831  0.6197 -0.1877
   79SOPE   C22 7090   6.305   5.752   6.453  0.2755  0.4692  0.6388
   79SOPE   H2R 7091   6.413   5.776   6.465  0.7348 -1.2814  0.2477
   79SOPE   H2S 7092   6.246   5.794   6.537 -1.0956  0.5033 -0.3097
   79SOPE    C3 7093   5.996   5.395   6.496 -0.6547 -0.0088 -0.0007
   79SOPE    HX 7094   5.964   5.414   6.601  0.4889  1.1226  0.1717
   79SOPE    HY 7095   5.994   5.286   6.478  0.5255  0.2771 -2.2107
   79SOPE   O31 7096   5.930   5.474   6.395  0.0475  0.1640  0.1341
   79SOPE   C31 7097   5.801   5.462   6.396 -0.2143 -0.0208 -0.0945
   79SOPE   O32 7098   5.735   5.391   6.472 -0.6670  0.1461 -0.2362
   79SOPE   C32 7099   5.747   5.536   6.278  0.6062 -0.0013  0.1082
   79SOPE   H2X 7100   5.785   5.640   6.286 -0.6183  0.4907 -0.2728
   79SOPE   H2Y 7101   5.636   5.527   6.278  0.5619  0.4162  1.1111
   79SOPE   C23 7102   6.248   5.822   6.330  0.0690 -0.6531 -0.7833
   79SOPE   H3R 7103   6.260   5.932   6.345 -1.1255 -0.3684 -1.7866
   79SOPE   H3S 7104   6.138   5.813   6.324 -0.2581  2.1327 -0.3042
   79SOPE   C24 7105   6.314   5.779   6.198 -0.0253  0.0099  0.2375
   79SOPE   H4R 7106   6.424   5.795   6.200  0.4203 -2.2174 -1.7413
   79SOPE   H4S 7107   6.315   5.670   6.178 -0.5897  0.5347 -3.4255
   79SOPE   C25 7108   6.250   5.850   6.081  0.7204  0.2964 -0.3360
   79SOPE   H5R 7109   6.141   5.836   6.092  0.7004  0.2694 -0.5596
   79SOPE   H5S 7110   6.262   5.959   6.100  1.0147  0.2135 -0.0381
   79SOPE   C26 7111   6.291   5.812   5.944  0.2090 -0.3434  0.3998
   79SOPE   H6R 7112   6.399   5.836   5.938 -0.6166  3.9795 -0.5407
   79SOPE   H6S 7113   6.281   5.703   5.924  2.2545 -0.3386 -0.8376
   79SOPE   C27 7114   6.216   5.891   5.836  0.3954  0.0496 -0.1513
   79SOPE   H7R 7115   6.108   5.865   5.833  0.4730 -0.2262 -0.6673
   79SOPE   H7S 7116   6.232   5.999   5.859  0.5967 -0.2597  1.2228
   79SOPE   C28 7117   6.278   5.846   5.705 -0.5123 -0.5299 -0.6967
   79SOPE   H8R 7118   6.370   5.907   5.698  0.0891 -1.4190 -0.7828
   79SOPE   H8S 7119   6.315   5.741   5.712 -1.7286 -0.9440 -0.1772
   79SOPE   C29 7120   6.186   5.867   5.587 -0.2402  0.2801 -0.0798
   79SOPE   H91 7121   6.100   5.799   5.593  0.8397 -1.2353 -1.0983
   79SOPE  C210 7122   6.184   5.971   5.500  0.0336 -0.0829 -0.6157
   79SOPE  H101 7123   6.095   5.971   5.435 -0.2021  1.4214 -0.3104
   79SOPE  C211 7124   6.298   6.072   5.465 -0.0206  0.6667 -0.5296
   79SOPE  H11R 7125   6.330   6.050   5.361  1.5463 -2.3821  0.4716
   79SOPE  H11S 7126   6.382   6.051   5.535 -0.1227  0.0313 -0.5899
   79SOPE  C212 7127   6.252   6.220   5.458 -0.2684  0.7304 -0.3486
   79SOPE  H12R 7128   6.218   6.253   5.558  0.9625  0.7335  0.0820
   79SOPE  H12S 7129   6.170   6.242   5.386  1.0098  1.8700 -1.5208
   79SOPE  C213 7130   6.366   6.320   5.427 -0.3011 -0.2881  0.3069
   79SOPE  H13R 7131   6.441   6.318   5.509 -0.6715 -0.4094  0.6444
   79SOPE  H13S 7132   6.339   6.427   5.412 -0.2877 -0.6246 -2.8119
   79SOPE  C214 7133   6.439   6.293   5.297  0.0100  0.5007 -0.1349
   79SOPE  H14R 7134   6.455   6.184   5.285  0.7797  0.3611  1.7047
   79SOPE  H14S 7135   6.533   6.353   5.298  0.8944 -0.7322 -2.3526
   79SOPE  C215 7136   6.359   6.336   5.169 -0.1071  0.2916 -0.4602
   79SOPE  H15R 7137   6.355   6.447   5.176  2.2731  0.4844 -1.2801
   79SOPE  H15S 7138   6.260   6.285   5.177 -0.2225  0.7774  2.4495
   79SOPE  C216 7139   6.420   6.296   5.036 -0.8280 -0.2812  0.1840
   79SOPE  H16R 7140   6.390   6.193   5.009 -0.2865  0.2829 -3.0854
   79SOPE  H16S 7141   6.528   6.321   5.035 -1.1195  1.0754  0.5366
   79SOPE  C217 7142   6.365   6.379   4.919  0.3934 -0.2316  0.1911
   79SOPE  H17R 7143   6.364   6.483   4.959 -1.4097 -0.3030  0.4119
   79SOPE  H17S 7144   6.259   6.361   4.893  0.5949 -0.8588 -0.2075
   79SOPE  C218 7145   6.447   6.370   4.789  0.2265 -0.1469 -0.7562
   79SOPE  H18R 7146   6.408   6.447   4.719  1.6072  0.1233 -1.2533
   79SOPE  H18S 7147   6.417   6.277   4.736 -2.5787  1.7376 -2.7981
   79SOPE  H18T 7148   6.556   6.376   4.807  0.0830 -2.0655  1.2514
   79SOPE   C33 7149   5.795   5.484   6.140  0.5102  0.1937 -1.1330
   79SOPE   H3X 7150   5.750   5.386   6.116  2.1821 -0.8891 -0.0589
   79SOPE   H3Y 7151   5.904   5.464   6.140  0.6422  0.6470  0.8881
   79SOPE   C34 7152   5.764   5.583   6.024  0.0036  0.6955 -0.6909
   79SOPE   H4X 7153   5.803   5.683   6.052 -0.0604  0.6721 -0.5216
   79SOPE   H4Y 7154   5.655   5.587   6.004 -0.1762  0.6800  0.2391
   79SOPE   C35 7155   5.834   5.531   5.896 -0.5866 -0.5156  0.2605
   79SOPE   H5X 7156   5.794   5.428   5.883 -1.7608 -0.1888  1.0824
   79SOPE   H5Y 7157   5.944   5.515   5.899 -0.5595 -0.2997  0.5884
   79SOPE   C36 7158   5.799   5.620   5.773  0.4375  0.0202  0.2095
   79SOPE   H6X 7159   5.825   5.727   5.789 -0.4373  0.1678  0.6982
   79SOPE   H6Y 7160   5.690   5.601   5.765  0.5271 -1.0824  1.3826
   79SOPE   C37 7161   5.872   5.568   5.644  0.7883 -0.3150 -0.4702
   79SOPE   H7X 7162   5.826   5.473   5.607  0.7906 -0.9296  1.0408
   79SOPE   H7Y 7163   5.976   5.554   5.680  0.2267 -1.3426  0.8375
   79SOPE   C38 7164   5.866   5.664   5.525 -0.6307 -0.0962 -0.0113
   79SOPE   H8X 7165   5.909   5.765   5.543 -1.3438  0.4940 -1.4254
   79SOPE   H8Y 7166   5.764   5.695   5.494  0.3744  2.3593 -1.1235
   79SOPE   C39 7167   5.945   5.636   5.398  0.3691 -0.1104 -0.3466
   79SOPE   H9X 7168   6.052   5.619   5.426 -0.3874 -3.9855  0.8104
   79SOPE   H9Y 7169   5.938   5.726   5.335  1.0431 -0.5745 -1.1071
   79SOPE  C310 7170   5.886   5.516   5.329 -0.9088  0.7311 -0.1270
   79SOPE  H10X 7171   5.788   5.543   5.284  0.1697 -1.4432 -4.2663
   79SOPE  H10Y 7172   5.875   5.424   5.390  1.2159  0.6939  0.2698
   79SOPE  C311 7173   5.964   5.469   5.202  0.2188 -0.1972 -0.1924
   79SOPE  H11X 7174   6.069   5.434   5.215  0.7785  0.9138 -1.4690
   79SOPE  H11Y 7175   5.979   5.554   5.133  2.1114 -2.6630 -3.0908
   79SOPE  C312 7176   5.899   5.349   5.133 -0.2886  0.0402 -0.2628
   79SOPE  H12X 7177   5.802   5.386   5.092 -1.0389 -0.2670  1.1520
   79SOPE  H12Y 7178   5.867   5.270   5.205  0.5673  0.4139  0.5344
   79SOPE  C313 7179   5.989   5.288   5.026 -0.3073 -0.0155 -0.5763
   79SOPE  H13X 7180   5.960   5.182   5.009 -3.3056  0.4980  0.6324
   79SOPE  H13Y 7181   6.090   5.271   5.069 -0.5445  0.1800  0.0736
   79SOPE  C314 7182   5.987   5.368   4.892  0.6728  0.7533 -0.2424
   79SOPE  H14X 7183   6.046   5.461   4.902 -1.6699  2.2529  0.4738
   79SOPE  H14Y 7184   5.888   5.404   4.856  0.6513  1.2008  0.2520
   79SOPE  C315 7185   6.036   5.281   4.777 -0.8065 -0.0875 -0.3413
   79SOPE  H15X 7186   5.969   5.193   4.765 -2.1309  0.6987  0.9371
   79SOPE  H15Y 7187   6.139   5.241   4.793 -0.1104  1.6432 -0.2551
   79SOPE  C316 7188   6.027   5.353   4.644  0.0371 -0.0679  0.5175
   79SOPE  H16X 7189   5.943   5.424   4.661  0.5185  0.4816  0.6182
   79SOPE  H16Y 7190   6.007   5.276   4.567  0.4352 -0.8283  1.1564
   79SOPE  C317 7191   6.160   5.424   4.607  0.8315 -0.3890 -0.3001
   79SOPE  H17X 7192   6.236   5.343   4.607  1.4843  0.2072 -1.5654
   79SOPE  H17Y 7193   6.179   5.505   4.680 -0.0443  0.2015 -0.7153
   79SOPE  C318 7194   6.147   5.486   4.472 -0.2090  0.9117  0.1411
   79SOPE  H18X 7195   6.246   5.527   4.440 -0.1560 -0.6996 -1.9952
   79SOPE  H18Y 7196   6.079   5.572   4.489  0.0142  1.1217 -0.0148
   79SOPE  H18Z 7197   6.113   5.417   4.392  0.2990  0.8411 -0.0180
   80SOPE     N 7198   1.826   0.212   7.014 -1.0646  0.3529  0.1155
   80SOPE   HN1 7199   1.767   0.187   6.932 -0.6316 -0.3499  0.0053
   80SOPE   HN2 7200   1.771   0.168   7.091 -0.4325 -1.0841 -0.2186
   80SOPE   HN3 7201   1.839   0.314   7.026  0.5965  0.3862 -1.5434
   80SOPE   C12 7202   1.964   0.149   7.007  1.1858 -0.1603 -0.1585
   80SOPE  H12A 7203   1.947   0.045   7.042  0.4835 -0.1270 -0.3962
   80SOPE  H12B 7204   2.033   0.201   7.076  1.5136 -0.4875 -0.2373
   80SOPE   C11 7205   2.029   0.159   6.869 -0.2601  0.2564 -0.2931
   80SOPE  H11A 7206   2.139   0.143   6.880 -0.2842 -1.0198 -1.6268
   80SOPE  H11B 7207   2.016   0.263   6.832  0.3204  1.0484  1.5934
   80SOPE     P 7208   2.013  -0.088   6.759 -0.4026 -0.5251 -0.2908
   80SOPE   O13 7209   1.996  -0.161   6.888 -0.5381 -0.4987  0.3517
   80SOPE   O14 7210   2.147  -0.094   6.695  0.2190 -0.9657 -0.6605
   80SOPE   O12 7211   1.975   0.070   6.775  0.2893  0.0982 -0.5076
   80SOPE   O11 7212   1.904  -0.124   6.642  0.2416 -0.3030  0.0990
   80SOPE    C1 7213   1.906  -0.040   6.527  0.1720  0.3364 -0.3157
   80SOPE    HA 7214   2.001   0.010   6.499  0.4511  0.2942  0.5273
   80SOPE    HB 7215   1.830   0.040   6.542 -0.4200  0.1926 -2.3230
   80SOPE    C2 7216   1.863  -0.125   6.403  1.1403 -0.2164 -0.2495
   80SOPE    HS 7217   1.836  -0.051   6.325  1.9221  0.5172  0.1558
   80SOPE   O21 7218   1.743  -0.210   6.417 -0.3969  0.3237  0.0103
   80SOPE   C21 7219   1.630  -0.139   6.437 -0.2449  0.6184  0.9096
   80SOPE   O22 7220   1.614  -0.021   6.442 -0.1620 -0.3287  0.7400
   80SOPE   C22 7221   1.515  -0.237   6.447  0.1671 -0.5401 -1.0191
   80SOPE   H2R 7222   1.420  -0.182   6.428  1.1405  1.4958 -0.2744
   80SOPE   H2S 7223   1.529  -0.268   6.553  1.6177  1.8632 -0.4402
   80SOPE    C3 7224   1.984  -0.216   6.366 -0.1606  0.3335  0.6026
   80SOPE    HX 7225   2.011  -0.266   6.462 -0.1497 -0.7211  0.0570
   80SOPE    HY 7226   2.077  -0.159   6.345 -0.3766  1.0101  1.4182
   80SOPE   O31 7227   1.954  -0.316   6.264  0.3504 -1.0986  0.6396
   80SOPE   C31 7228   1.964  -0.270   6.135  0.2170  0.1521 -0.3650
   80SOPE   O32 7229   1.960  -0.152   6.110  0.4999  0.2968  0.0821
   80SOPE   C32 7230   1.954  -0.391   6.046 -0.2000 -0.2115 -0.1616
   80SOPE   H2X 7231   1.861  -0.443   6.077 -1.0107  0.1408 -1.8764
   80SOPE   H2Y 7232   2.037  -0.459   6.075 -0.7298 -0.0532  1.8427
   80SOPE   C23 7233   1.537  -0.356   6.356  0.5103  0.3942 -0.7197
   80SOPE   H3R 7234   1.470  -0.438   6.389  0.0824  1.1091  0.2369
   80SOPE   H3S 7235   1.633  -0.409   6.377 -0.6253 -0.2705  3.9527
   80SOPE   C24 7236   1.512  -0.321   6.209 -0.8244  0.5816  0.3585
   80SOPE   H4R 7237   1.416  -0.266   6.198 -1.3238 -0.2766  0.3839
   80SOPE   H4S 7238   1.591  -0.250   6.176  2.0231 -1.5950  1.9727
   80SOPE   C25 7239   1.532  -0.434   6.102  0.0937 -0.2379 -0.9065
   80SOPE   H5R 7240   1.627  -0.484   6.131  1.1439  1.3091 -1.5893
   80SOPE   H5S 7241   1.448  -0.507   6.102 -1.5376  1.5730 -0.1512
   80SOPE   C26 7242   1.530  -0.379   5.956 -0.4014 -0.3063 -0.2274
   80SOPE   H6R 7243   1.610  -0.304   5.936 -0.4380 -0.1218  0.2989
   80SOPE   H6S 7244   1.551  -0.467   5.893  1.0091 -0.9806  1.1057
   80SOPE   C27 7245   1.394  -0.314   5.919 -0.0396  0.4352 -0.8660
   80SOPE   H7R 7246   1.315  -0.382   5.958  0.6995  0.4052  0.6814
   80SOPE   H7S 7247   1.383  -0.216   5.971 -2.1783  0.3107 -0.9910
   80SOPE   C28 7248   1.375  -0.288   5.770 -0.5290  0.5304  0.2858
   80SOPE   H8R 7249   1.287  -0.223   5.750 -0.1781  0.3647 -2.0704
   80SOPE   H8S 7250   1.460  -0.226   5.736  0.8990 -0.4240  1.9898
   80SOPE   C29 7251   1.355  -0.421   5.699 -0.0845  0.1480 -0.3893
   80SOPE   H91 7252   1.271  -0.476   5.743 -0.7486  0.8173 -0.8002
   80SOPE  C210 7253   1.418  -0.484   5.592 -0.0900 -0.1506 -0.2034
   80SOPE  H101 7254   1.396  -0.588   5.564  1.0097  0.2333 -2.7534
   80SOPE  C211 7255   1.528  -0.421   5.506 -0.1158 -0.5611 -0.3707
   80SOPE  H11R 7256   1.607  -0.499   5.511  0.4997  0.0272 -0.8239
   80SOPE  H11S 7257   1.561  -0.328   5.557  0.0014 -0.5581 -0.4525
   80SOPE  C212 7258   1.506  -0.404   5.351  1.1218 -0.2686 -0.4383
   80SOPE  H12R 7259   1.611  -0.388   5.317  0.1017  0.4695 -3.6448
   80SOPE  H12S 7260   1.445  -0.317   5.320 -0.2004 -0.8033  0.6069
   80SOPE  C213 7261   1.461  -0.535   5.289  0.1563 -0.4841 -0.7755
   80SOPE  H13R 7262   1.353  -0.554   5.307  0.1569 -0.2204 -0.4878
   80SOPE  H13S 7263   1.528  -0.611   5.334 -0.4009 -0.6333 -0.1719
   80SOPE  C214 7264   1.493  -0.529   5.136 -0.0558 -0.9320 -0.3964
   80SOPE  H14R 7265   1.598  -0.498   5.120 -0.5949  0.0225 -2.5422
   80SOPE  H14S 7266   1.420  -0.467   5.079  2.0749  1.4863 -0.6447
   80SOPE  C215 7267   1.500  -0.668   5.067  0.1318 -0.9589  0.4147
   80SOPE  H15R 7268   1.421  -0.734   5.109 -1.2128 -0.0702 -0.6464
   80SOPE  H15S 7269   1.599  -0.714   5.089  0.2510  0.1550  2.4337
   80SOPE  C216 7270   1.487  -0.656   4.916 -0.4056  0.7208 -0.5795
   80SOPE  H16R 7271   1.540  -0.562   4.890 -1.2179  1.3378 -0.0635
   80SOPE  H16S 7272   1.378  -0.637   4.905 -0.3950  0.1877 -1.7065
   80SOPE  C217 7273   1.534  -0.788   4.853  0.3821 -0.4177 -0.0391
   80SOPE  H17R 7274   1.475  -0.875   4.889 -0.3616  0.8324  1.9155
   80SOPE  H17S 7275   1.638  -0.804   4.889  0.8728  0.6880 -0.9097
   80SOPE  C218 7276   1.523  -0.792   4.701 -0.2393  0.4087  0.1705
   80SOPE  H18R 7277   1.552  -0.888   4.652 -3.8971 -0.5023 -0.5401
   80SOPE  H18S 7278   1.583  -0.711   4.653 -0.8777 -0.4732 -2.2893
   80SOPE  H18T 7279   1.418  -0.769   4.675  0.4792  3.8513 -0.1293
   80SOPE   C33 7280   1.958  -0.356   5.900  0.3642 -0.6555  0.0253
   80SOPE   H3X 7281   2.063  -0.335   5.869 -0.1060  0.4278 -0.8866
   80SOPE   H3Y 7282   1.897  -0.264   5.888  0.7911 -0.3041  0.5267
   80SOPE   C34 7283   1.894  -0.464   5.818  0.2914  0.0336  0.3388
   80SOPE   H4X 7284   1.783  -0.458   5.818  0.1211 -1.8907 -1.2572
   80SOPE   H4Y 7285   1.919  -0.563   5.862  1.3802 -0.1856 -0.7210
   80SOPE   C35 7286   1.928  -0.453   5.671 -1.3431  0.1626 -0.0032
   80SOPE   H5X 7287   2.036  -0.441   5.651 -1.5118  0.4855 -0.7501
   80SOPE   H5Y 7288   1.874  -0.363   5.635  0.5380  1.9546  1.4351
   80SOPE   C36 7289   1.886  -0.578   5.591  0.0018 -0.4315 -0.5009
   80SOPE   H6X 7290   1.784  -0.610   5.621  0.3127 -0.6615  0.3359
   80SOPE   H6Y 7291   1.960  -0.653   5.626 -1.3030 -0.7634  1.7130
   80SOPE   C37 7292   1.903  -0.560   5.434 -0.6920  0.0360 -0.0664
   80SOPE   H7X 7293   1.988  -0.507   5.385 -1.8618 -0.1440 -2.4681
   80SOPE   H7Y 7294   1.811  -0.503   5.408 -0.1685  2.1307  2.2761
   80SOPE   C38 7295   1.889  -0.698   5.358  0.1127 -0.1453  0.4108
   80SOPE   H8X 7296   1.792  -0.745   5.385 -0.7780  1.2677 -0.1881
   80SOPE   H8Y 7297   1.972  -0.761   5.397 -0.3006 -1.5439 -0.8853
   80SOPE   C39 7298   1.894  -0.686   5.205  1.1050 -0.0330 -0.8619
   80SOPE   H9X 7299   1.815  -0.613   5.179  0.0778 -0.4881  0.8813
   80SOPE   H9Y 7300   1.863  -0.780   5.154  3.4565  0.6863 -3.9386
   80SOPE  C310 7301   2.027  -0.635   5.146 -0.3185 -0.1414 -0.4223
   80SOPE  H10X 7302   2.049  -0.534   5.187 -0.2027 -0.2877 -0.1206
   80SOPE  H10Y 7303   2.024  -0.626   5.036  0.9858  0.5464 -0.4202
   80SOPE  C311 7304   2.147  -0.723   5.188  0.2034 -0.4389 -0.0752
   80SOPE  H11X 7305   2.143  -0.756   5.294  3.5629 -0.8013  0.0373
   80SOPE  H11Y 7306   2.233  -0.654   5.179 -1.8567  2.1356 -1.4799
   80SOPE  C312 7307   2.149  -0.857   5.106  1.2215 -0.0355  0.1268
   80SOPE  H12X 7308   2.042  -0.872   5.078  2.2128 -0.3058 -4.0891
   80SOPE  H12Y 7309   2.188  -0.942   5.167 -1.1616  0.1972  2.1596
   80SOPE  C313 7310   2.218  -0.856   4.976 -0.6524 -0.2346  0.1870
   80SOPE  H13X 7311   2.327  -0.843   4.997 -0.7652 -0.5528  0.9658
   80SOPE  H13Y 7312   2.197  -0.761   4.921 -2.1825  0.9269  2.6074
   80SOPE  C314 7313   2.182  -0.984   4.894  0.0114  0.4345 -0.1802
   80SOPE  H14X 7314   2.071  -0.990   4.893  0.0455 -2.2779  2.0088
   80SOPE  H14Y 7315   2.218  -1.072   4.952  0.3942  0.2431 -0.6961
   80SOPE  C315 7316   2.239  -0.972   4.757  0.3503 -0.0354  0.5757
   80SOPE  H15X 7317   2.337  -0.921   4.757  0.1206  0.4379 -0.4673
   80SOPE  H15Y 7318   2.169  -0.911   4.696  2.4637  3.3364  1.2853
   80SOPE  C316 7319   2.254  -1.113   4.690 -0.0956  0.1018  0.7050
   80SOPE  H16X 7320   2.158  -1.169   4.691  0.7619 -1.4304  0.2227
   80SOPE  H16Y 7321   2.323  -1.172   4.753  1.2586  0.5695 -0.2820
   80SOPE  C317 7322   2.314  -1.113   4.548 -0.5490  0.0782 -0.1165
   80SOPE  H17X 7323   2.420  -1.080   4.539 -0.7560  0.7601 -0.1368
   80SOPE  H17Y 7324   2.269  -1.039   4.479  2.0993  0.6697 -1.3395
   80SOPE  C318 7325   2.313  -1.249   4.476 -0.1039  0.3850 -0.1968
   80SOPE  H18X 7326   2.342  -1.321   4.556 -0.5627 -1.0821 -1.3084
   80SOPE  H18Y 7327   2.383  -1.250   4.391 -0.4815 -0.6030 -0.5159
   80SOPE  H18Z 7328   2.209  -1.265   4.438 -0.3710 -1.1411  1.0403
   81SOPE     N 7329   5.676   3.758   6.849 -0.4238 -0.1027  0.0933
   81SOPE   HN1 7330   5.671   3.677   6.783 -0.2396 -0.5733  0.6464
   81SOPE   HN2 7331   5.637   3.843   6.802 -2.3085 -0.4260  0.9596
   81SOPE   HN3 7332   5.775   3.775   6.873  0.4123 -2.3484 -1.4005
   81SOPE   C12 7333   5.595   3.735   6.976  0.1093  0.0185  0.1970
   81SOPE  H12A 7334   5.602   3.824   7.042 -0.0368  1.1075 -1.2163
   81SOPE  H12B 7335   5.640   3.648   7.029  0.4144  0.5141  0.7793
   81SOPE   C11 7336   5.451   3.711   6.938  0.0265 -0.6465  0.2427
   81SOPE  H11A 7337   5.400   3.685   7.034  1.1205  2.4345  1.8033
   81SOPE  H11B 7338   5.452   3.624   6.869  2.1842 -1.1968  0.8749
   81SOPE     P 7339   5.240   3.825   6.839 -0.2498  0.1145 -0.2962
   81SOPE   O13 7340   5.195   3.968   6.827  0.4200  0.1021 -0.1422
   81SOPE   O14 7341   5.162   3.746   6.935 -0.2624  0.3521  0.4103
   81SOPE   O12 7342   5.396   3.826   6.876  0.3208  0.6495  0.2572
   81SOPE   O11 7343   5.233   3.760   6.699  0.1776 -0.2381  0.5498
   81SOPE    C1 7344   5.338   3.780   6.599 -0.3176 -0.5517 -0.4997
   81SOPE    HA 7345   5.437   3.746   6.637  0.1808  3.0832  1.9897
   81SOPE    HB 7346   5.351   3.888   6.582  2.0332 -0.8420 -0.8791
   81SOPE    C2 7347   5.296   3.713   6.467  0.8300 -0.1366 -0.2592
   81SOPE    HS 7348   5.365   3.752   6.390  1.0738  0.1699  0.1077
   81SOPE   O21 7349   5.156   3.733   6.434 -0.3718  0.6141 -0.6909
   81SOPE   C21 7350   5.140   3.859   6.393 -0.2829 -0.4915 -0.6529
   81SOPE   O22 7351   5.220   3.942   6.370 -0.0386 -0.0209  0.0402
   81SOPE   C22 7352   4.992   3.867   6.345  0.1418 -0.3834 -0.2066
   81SOPE   H2R 7353   4.939   3.909   6.433 -0.1192  0.4145 -0.7352
   81SOPE   H2S 7354   4.948   3.766   6.325  1.8091 -1.1294 -0.2419
   81SOPE    C3 7355   5.333   3.564   6.462  0.1599  0.5445 -0.2560
   81SOPE    HX 7356   5.259   3.514   6.528 -0.2650 -1.3442 -2.0359
   81SOPE    HY 7357   5.436   3.542   6.496  1.1919  1.0436 -2.8201
   81SOPE   O31 7358   5.326   3.503   6.333 -0.6078  0.7204  0.5327
   81SOPE   C31 7359   5.344   3.374   6.328  0.0118  0.0024  0.7302
   81SOPE   O32 7360   5.371   3.303   6.428 -0.0671 -0.6250  0.5048
   81SOPE   C32 7361   5.342   3.332   6.185  0.5068 -0.0264 -0.1180
   81SOPE   H2X 7362   5.432   3.371   6.132  1.4026 -1.4985  0.2355
   81SOPE   H2Y 7363   5.264   3.388   6.129  1.3352  3.4314  1.9213
   81SOPE   C23 7364   4.968   3.949   6.220 -0.0994  0.1471  0.0356
   81SOPE   H3R 7365   5.021   3.892   6.141  0.1553  0.2072  0.1624
   81SOPE   H3S 7366   5.011   4.052   6.223  1.5281 -0.4764 -0.8396
   81SOPE   C24 7367   4.814   3.970   6.192  0.2370  0.3089 -0.1500
   81SOPE   H4R 7368   4.770   3.868   6.188 -0.8675  0.8101 -1.9642
   81SOPE   H4S 7369   4.767   4.020   6.279 -1.6562 -1.0518 -0.3403
   81SOPE   C25 7370   4.779   4.033   6.063 -0.6477  0.8582  0.8059
   81SOPE   H5R 7371   4.814   3.962   5.985 -0.2486 -2.0088  3.4261
   81SOPE   H5S 7372   4.669   4.037   6.053 -0.8060 -3.5522 -1.8722
   81SOPE   C26 7373   4.841   4.168   6.022 -0.5190 -0.0172  0.0526
   81SOPE   H6R 7374   4.809   4.240   6.101 -2.9936 -0.6598 -0.2745
   81SOPE   H6S 7375   4.951   4.164   6.027 -0.5921 -0.9964  1.4899
   81SOPE   C27 7376   4.770   4.220   5.896 -0.1626  0.7251 -0.0408
   81SOPE   H7R 7377   4.659   4.227   5.907  0.0264  4.3525  0.6156
   81SOPE   H7S 7378   4.797   4.327   5.881  0.4165  0.6501  0.4723
   81SOPE   C28 7379   4.811   4.143   5.765  0.1586  0.3003 -0.2787
   81SOPE   H8R 7380   4.795   4.034   5.777 -1.4324  0.2867 -2.1204
   81SOPE   H8S 7381   4.743   4.178   5.685  0.0092  0.6098 -0.0202
   81SOPE   C29 7382   4.950   4.179   5.729 -0.4041 -0.1501 -0.2791
   81SOPE   H91 7383   4.984   4.253   5.803 -2.9695  3.4395 -2.3659
   81SOPE  C210 7384   5.036   4.131   5.646  0.3639 -0.0338  0.0828
   81SOPE  H101 7385   5.131   4.184   5.632  1.6251 -2.0206  0.7948
   81SOPE  C211 7386   5.024   4.015   5.547  0.4612  0.3240  0.0972
   81SOPE  H11R 7387   4.920   3.985   5.522  1.0036  0.4111 -2.5685
   81SOPE  H11S 7388   5.069   3.921   5.587  1.6602  1.0792  0.5523
   81SOPE  C212 7389   5.073   4.023   5.405 -0.1282 -0.5931 -0.3112
   81SOPE  H12R 7390   5.059   3.929   5.348  1.7486 -0.4352 -1.0976
   81SOPE  H12S 7391   5.184   4.024   5.412 -0.0240 -2.7782 -0.8383
   81SOPE  C213 7392   5.007   4.146   5.334 -0.1457 -0.1495  0.0838
   81SOPE  H13R 7393   5.053   4.240   5.372 -0.9232  0.1463  0.3154
   81SOPE  H13S 7394   4.900   4.145   5.364 -0.0123  2.4532  0.8608
   81SOPE  C214 7395   5.021   4.131   5.180  0.6618 -0.2046 -0.8178
   81SOPE  H14R 7396   5.119   4.083   5.160  0.3378 -1.2551  0.0254
   81SOPE  H14S 7397   5.011   4.230   5.132  0.9958  0.2351 -0.0111
   81SOPE  C215 7398   4.913   4.037   5.113 -0.8763 -0.7096  0.1184
   81SOPE  H15R 7399   4.816   4.091   5.120 -1.8444 -2.1552 -1.2803
   81SOPE  H15S 7400   4.919   3.946   5.177  1.3614 -1.4513 -1.0528
   81SOPE  C216 7401   4.942   3.984   4.967  0.0867  0.3983  0.6179
   81SOPE  H16R 7402   4.894   3.886   4.949 -0.0470  0.8971 -2.2830
   81SOPE  H16S 7403   5.050   3.959   4.954  0.0105 -0.0362  0.7988
   81SOPE  C217 7404   4.911   4.095   4.857  0.3984  0.0361 -0.6863
   81SOPE  H17R 7405   4.971   4.184   4.887 -1.0293  1.3319 -1.5375
   81SOPE  H17S 7406   4.804   4.126   4.857  0.9055  1.9516 -0.7947
   81SOPE  C218 7407   4.952   4.062   4.708  0.3386  0.1492 -0.8082
   81SOPE  H18R 7408   4.896   4.128   4.640  0.1483 -0.6303 -1.4288
   81SOPE  H18S 7409   4.927   3.954   4.693  2.6395 -0.7691  1.1390
   81SOPE  H18T 7410   5.063   4.064   4.698  0.3224 -0.1301 -1.0497
   81SOPE   C33 7411   5.325   3.178   6.169 -0.7162  0.2512  0.3076
   81SOPE   H3X 7412   5.229   3.130   6.200  0.5198 -2.3862  0.3299
   81SOPE   H3Y 7413   5.398   3.134   6.240 -1.5279 -2.0361 -0.1978
   81SOPE   C34 7414   5.360   3.129   6.023 -0.3015 -0.5622  0.0328
   81SOPE   H4X 7415   5.357   3.018   6.027  2.2972 -0.7224 -0.5218
   81SOPE   H4Y 7416   5.463   3.160   5.994  0.1255 -2.2175 -0.2968
   81SOPE   C35 7417   5.260   3.195   5.924 -0.5022 -0.5415 -1.0434
   81SOPE   H5X 7418   5.262   3.306   5.929  3.2044 -0.4579 -1.8926
   81SOPE   H5Y 7419   5.154   3.167   5.942 -0.5943 -3.4088 -4.8556
   81SOPE   C36 7420   5.291   3.152   5.782  0.5914 -0.2030 -0.3273
   81SOPE   H6X 7421   5.282   3.042   5.772 -0.0849 -0.3027  1.1777
   81SOPE   H6Y 7422   5.395   3.178   5.753  0.2745  1.5793 -0.0128
   81SOPE   C37 7423   5.192   3.191   5.665 -0.5284  0.0199  0.7013
   81SOPE   H7X 7424   5.191   3.302   5.665  0.3936  0.0719 -0.9819
   81SOPE   H7Y 7425   5.088   3.157   5.685 -0.9269  0.2427 -0.8185
   81SOPE   C38 7426   5.246   3.119   5.537 -0.4085  0.8130 -0.4787
   81SOPE   H8X 7427   5.230   3.011   5.555 -1.6600  1.0617 -0.0079
   81SOPE   H8Y 7428   5.356   3.136   5.536 -0.2551 -0.0050  0.4626
   81SOPE   C39 7429   5.189   3.171   5.402  0.1471 -0.0781  0.3015
   81SOPE   H9X 7430   5.083   3.197   5.425 -0.2285 -2.9041  2.3746
   81SOPE   H9Y 7431   5.184   3.079   5.340  2.6552 -0.5367  0.6566
   81SOPE  C310 7432   5.272   3.276   5.322  0.9334  0.2622  0.2473
   81SOPE  H10X 7433   5.376   3.241   5.307  1.0991  0.5044  0.7996
   81SOPE  H10Y 7434   5.268   3.361   5.394 -2.5465 -1.0012  1.7732
   81SOPE  C311 7435   5.191   3.325   5.198 -0.1986  0.2348 -0.0602
   81SOPE  H11X 7436   5.143   3.421   5.223 -2.2051 -0.7767  0.2018
   81SOPE  H11Y 7437   5.105   3.255   5.185 -1.3999  1.7120 -0.2599
   81SOPE  C312 7438   5.273   3.340   5.069 -0.4231  0.4116  0.0101
   81SOPE  H12X 7439   5.375   3.379   5.089  0.0857 -0.8352 -0.0567
   81SOPE  H12Y 7440   5.216   3.403   4.997 -0.9508 -1.8432 -1.6778
   81SOPE  C313 7441   5.294   3.201   5.016  0.2419 -0.4673 -0.1751
   81SOPE  H13X 7442   5.210   3.133   5.039  0.4169  0.1411  2.4988
   81SOPE  H13Y 7443   5.377   3.165   5.079  0.9557 -0.7813 -1.2560
   81SOPE  C314 7444   5.335   3.210   4.862 -0.1778  0.4575 -0.4075
   81SOPE  H14X 7445   5.390   3.118   4.832 -1.4254 -0.3662 -0.2587
   81SOPE  H14Y 7446   5.420   3.279   4.845  0.4526 -0.7169 -2.2911
   81SOPE  C315 7447   5.228   3.249   4.761  0.5253  1.2771  0.2828
   81SOPE  H15X 7448   5.204   3.356   4.778 -0.6446  1.0849 -0.0909
   81SOPE  H15Y 7449   5.141   3.186   4.791  0.7054  0.1737 -1.3448
   81SOPE  C316 7450   5.275   3.214   4.619 -0.0902  0.0932  0.0731
   81SOPE  H16X 7451   5.307   3.110   4.600  0.5817  0.4106 -0.6128
   81SOPE  H16Y 7452   5.366   3.275   4.600 -1.2365  1.7312 -0.4620
   81SOPE  C317 7453   5.172   3.257   4.510  0.0101 -0.4650 -0.7131
   81SOPE  H17X 7454   5.163   3.367   4.523 -1.4800 -0.6899  0.3340
   81SOPE  H17Y 7455   5.070   3.217   4.528  0.6970 -1.2406  1.9434
   81SOPE  C318 7456   5.241   3.222   4.381  0.1898 -0.3113 -0.3575
   81SOPE  H18X 7457   5.338   3.275   4.391 -1.0263  2.2232 -1.1805
   81SOPE  H18Y 7458   5.196   3.260   4.287 -0.1673  0.2103  0.0227
   81SOPE  H18Z 7459   5.260   3.115   4.355 -0.2569 -0.0458 -1.8914
   82SOPE     N 7460   2.460   3.421   6.440 -0.0442 -0.0702 -0.3909
   82SOPE   HN1 7461   2.412   3.499   6.489 -0.1582  0.2379 -0.9844
   82SOPE   HN2 7462   2.391   3.353   6.404  0.5216 -1.4019  0.8976
   82SOPE   HN3 7463   2.520   3.373   6.511 -0.4578 -1.3804 -0.9082
   82SOPE   C12 7464   2.551   3.469   6.330  0.5659 -0.1434  0.5525
   82SOPE  H12A 7465   2.488   3.537   6.268  2.5756 -0.7582 -2.3850
   82SOPE  H12B 7466   2.579   3.388   6.260  1.1770  1.5401 -1.2514
   82SOPE   C11 7467   2.677   3.546   6.376  0.4210  0.3088 -0.1856
   82SOPE  H11A 7468   2.654   3.639   6.433 -1.2570  0.0924 -0.4650
   82SOPE  H11B 7469   2.743   3.571   6.290 -0.1149 -1.0840 -1.0159
   82SOPE     P 7470   2.835   3.338   6.408  0.2278 -0.1852 -0.3269
   82SOPE   O13 7471   2.790   3.202   6.452  0.5881  0.2460 -0.1861
   82SOPE   O14 7472   2.976   3.383   6.444  1.1555  0.5571  0.0090
   82SOPE   O12 7473   2.744   3.450   6.462 -0.6984 -0.3681 -0.3547
   82SOPE   O11 7474   2.816   3.353   6.254  0.4250  0.1719 -0.4441
   82SOPE    C1 7475   2.913   3.313   6.160  0.8225 -0.2305 -0.0774
   82SOPE    HA 7476   2.898   3.204   6.146 -0.7051  0.2394 -2.8616
   82SOPE    HB 7477   3.019   3.327   6.190  0.7899 -3.8710  2.3166
   82SOPE    C2 7478   2.883   3.370   6.021 -0.4199  0.0008  0.6680
   82SOPE    HS 7479   2.931   3.307   5.944  0.6518  1.3407  0.2071
   82SOPE   O21 7480   2.917   3.509   5.999 -0.0267 -0.5025 -0.6556
   82SOPE   C21 7481   3.054   3.524   6.009 -0.5143  0.4001  0.2388
   82SOPE   O22 7482   3.128   3.425   6.023 -0.2897  0.3585  0.2747
   82SOPE   C22 7483   3.103   3.666   5.999  0.3246 -0.8394  0.3736
   82SOPE   H2R 7484   3.186   3.680   6.072  2.1119  1.8076 -1.9348
   82SOPE   H2S 7485   3.018   3.732   6.028  1.3105 -0.3121  2.2010
   82SOPE    C3 7486   2.731   3.349   5.993  0.2296 -0.1187 -0.5924
   82SOPE    HX 7487   2.681   3.438   6.035 -2.5353 -0.7139 -2.3637
   82SOPE    HY 7488   2.701   3.255   6.045  1.4693 -0.3313 -0.2294
   82SOPE   O31 7489   2.715   3.365   5.849 -0.2889 -0.0372 -0.1715
   82SOPE   C31 7490   2.591   3.385   5.810 -0.5091  0.4069 -0.2305
   82SOPE   O32 7491   2.494   3.355   5.874  0.0081  0.0988  0.8996
   82SOPE   C32 7492   2.598   3.445   5.670  0.1176 -0.0828 -0.1734
   82SOPE   H2X 7493   2.666   3.533   5.676 -0.5854  0.4598  0.0314
   82SOPE   H2Y 7494   2.502   3.483   5.629  1.1043  0.6778 -1.8812
   82SOPE   C23 7495   3.153   3.690   5.856 -0.7835  0.4633 -0.2768
   82SOPE   H3R 7496   3.224   3.614   5.817 -0.2726 -0.0884  1.6086
   82SOPE   H3S 7497   3.221   3.778   5.861  2.4493 -1.7776 -1.4813
   82SOPE   C24 7498   3.041   3.720   5.758  0.2713 -0.6176 -0.1611
   82SOPE   H4R 7499   2.957   3.648   5.758 -0.5573  0.3229  0.4084
   82SOPE   H4S 7500   2.999   3.821   5.780  2.1574 -0.4392  3.2422
   82SOPE   C25 7501   3.083   3.732   5.610  0.1714  0.4153 -0.1988
   82SOPE   H5R 7502   3.167   3.805   5.612  0.3905  0.1879 -0.9077
   82SOPE   H5S 7503   3.129   3.638   5.575 -0.9403 -0.4299  0.5411
   82SOPE   C26 7504   2.972   3.786   5.513  0.2562  0.3260 -0.0535
   82SOPE   H6R 7505   2.884   3.719   5.518 -0.9761  1.9633  0.8018
   82SOPE   H6S 7506   2.940   3.887   5.544  0.3018 -0.1524  1.6653
   82SOPE   C27 7507   3.029   3.782   5.374 -0.3045 -0.4588  0.4145
   82SOPE   H7R 7508   3.129   3.826   5.393 -0.7123  1.1264 -0.9301
   82SOPE   H7S 7509   3.048   3.677   5.342 -2.7152 -1.1416  0.9998
   82SOPE   C28 7510   2.953   3.864   5.265 -0.8128 -0.1720  0.1919
   82SOPE   H8R 7511   2.879   3.797   5.217 -1.8201  0.4150  0.8923
   82SOPE   H8S 7512   2.910   3.950   5.321  1.9064  1.3981  0.0314
   82SOPE   C29 7513   3.046   3.926   5.168 -0.3232  0.0815 -0.3721
   82SOPE   H91 7514   3.153   3.936   5.191 -0.7196  2.3892  0.8131
   82SOPE  C210 7515   3.015   3.957   5.038  0.4896  0.0334 -0.0033
   82SOPE  H101 7516   3.101   3.997   4.983 -1.5782  0.2699 -3.3569
   82SOPE  C211 7517   2.882   3.941   4.961  0.2772 -0.0683 -0.2811
   82SOPE  H11R 7518   2.845   4.045   4.943  0.0599 -0.0315  0.3565
   82SOPE  H11S 7519   2.806   3.882   5.016  1.5831 -2.6753 -1.1517
   82SOPE  C212 7520   2.889   3.881   4.821  0.9145 -0.2663 -0.1277
   82SOPE  H12R 7521   2.943   3.785   4.833  0.6987 -0.3146  0.5262
   82SOPE  H12S 7522   2.956   3.942   4.757  1.8077 -1.0628  0.0253
   82SOPE  C213 7523   2.760   3.855   4.744 -0.4476 -0.2849 -0.0599
   82SOPE  H13R 7524   2.702   3.783   4.807 -0.0821 -0.8579 -0.3649
   82SOPE  H13S 7525   2.784   3.796   4.653  2.2128  0.1174  0.3057
   82SOPE  C214 7526   2.685   3.987   4.709 -0.0049 -0.2063 -0.1133
   82SOPE  H14R 7527   2.657   4.042   4.802  1.4875  0.4975 -0.0605
   82SOPE  H14S 7528   2.591   3.957   4.657  0.6796 -3.0545  0.1686
   82SOPE  C215 7529   2.762   4.066   4.606  0.0695  0.9469  0.0666
   82SOPE  H15R 7530   2.810   4.000   4.531  1.0850 -2.0525  3.0505
   82SOPE  H15S 7531   2.851   4.102   4.662  1.9140 -0.8773 -1.5140
   82SOPE  C216 7532   2.680   4.179   4.536  0.7434  0.7915 -0.8004
   82SOPE  H16R 7533   2.656   4.251   4.617  0.2176  0.3996 -0.6073
   82SOPE  H16S 7534   2.583   4.130   4.515  0.2184  1.1934  0.6065
   82SOPE  C217 7535   2.733   4.237   4.405  0.5741  0.1223 -0.2725
   82SOPE  H17R 7536   2.637   4.271   4.359 -1.1131 -1.5347  1.8033
   82SOPE  H17S 7537   2.770   4.153   4.342 -2.1222 -1.4090  0.0216
   82SOPE  C218 7538   2.837   4.346   4.423  0.0753 -0.3932 -0.5907
   82SOPE  H18R 7539   2.800   4.422   4.495  0.0273 -1.2992  0.3698
   82SOPE  H18S 7540   2.862   4.396   4.327  1.1368  0.6626  0.2097
   82SOPE  H18T 7541   2.927   4.294   4.461  0.6922  1.0893  0.0388
   82SOPE   C33 7542   2.656   3.338   5.563 -0.0331  0.1146  0.3200
   82SOPE   H3X 7543   2.594   3.246   5.558 -0.8301  0.6840 -0.4655
   82SOPE   H3Y 7544   2.755   3.304   5.600 -1.1004 -3.1797  0.4426
   82SOPE   C34 7545   2.677   3.388   5.428  0.1094  0.3379 -0.4866
   82SOPE   H4X 7546   2.711   3.310   5.357  0.9874  0.7003 -0.4819
   82SOPE   H4Y 7547   2.769   3.449   5.439 -0.6477  1.5753 -0.7105
   82SOPE   C35 7548   2.561   3.469   5.373  0.3066  0.1365  0.3809
   82SOPE   H5X 7549   2.591   3.568   5.413  2.7013 -0.5581  0.4695
   82SOPE   H5Y 7550   2.467   3.434   5.421  0.9145  0.3430  1.7933
   82SOPE   C36 7551   2.550   3.458   5.216 -0.1201 -0.3386  0.3267
   82SOPE   H6X 7552   2.464   3.522   5.187  0.0125 -0.6243 -0.7332
   82SOPE   H6Y 7553   2.530   3.351   5.194  2.2895 -0.9727  0.9506
   82SOPE   C37 7554   2.665   3.514   5.137 -0.3313 -0.1734  1.5390
   82SOPE   H7X 7555   2.691   3.619   5.166 -1.2034  0.7035 -0.6575
   82SOPE   H7Y 7556   2.626   3.517   5.033 -1.6172 -0.8212  1.9833
   82SOPE   C38 7557   2.804   3.442   5.129 -0.0769  0.6340  0.0641
   82SOPE   H8X 7558   2.801   3.335   5.101 -0.6162  0.7016 -0.1509
   82SOPE   H8Y 7559   2.837   3.439   5.235  0.1460 -0.9509 -0.0273
   82SOPE   C39 7560   2.901   3.502   5.029 -0.4497 -0.3393  0.0891
   82SOPE   H9X 7561   2.936   3.600   5.068 -1.4947 -0.9465  2.7846
   82SOPE   H9Y 7562   2.850   3.507   4.930 -1.5906 -2.6471  0.4944
   82SOPE  C310 7563   3.032   3.421   5.017 -0.0053 -0.9271 -0.0177
   82SOPE  H10X 7564   3.007   3.315   5.000 -3.9668  0.0836 -1.5444
   82SOPE  H10Y 7565   3.075   3.427   5.120  0.0585  1.2511 -0.1135
   82SOPE  C311 7566   3.141   3.474   4.914  0.7744  0.2003 -0.0514
   82SOPE  H11X 7567   3.227   3.405   4.926 -0.5707 -1.5172  0.2635
   82SOPE  H11Y 7568   3.174   3.571   4.954 -0.7496 -0.4939  3.1813
   82SOPE  C312 7569   3.085   3.486   4.775 -0.1676  0.1173 -0.4223
   82SOPE  H12X 7570   2.999   3.556   4.765  1.7353  2.6561 -0.0747
   82SOPE  H12Y 7571   3.066   3.386   4.730  1.5945 -0.0407 -0.8767
   82SOPE  C313 7572   3.191   3.552   4.679 -0.0294  0.0944  0.0285
   82SOPE  H13X 7573   3.283   3.496   4.652 -1.5081 -3.3215  1.4716
   82SOPE  H13Y 7574   3.214   3.644   4.737  2.1744  1.1405 -2.3096
   82SOPE  C314 7575   3.121   3.611   4.550  0.2756  0.0858 -0.8402
   82SOPE  H14X 7576   3.045   3.687   4.580 -0.7191 -0.2474 -2.4389
   82SOPE  H14Y 7577   3.067   3.529   4.499 -0.5299  0.6391 -0.9049
   82SOPE  C315 7578   3.226   3.664   4.450  0.1724 -0.9385 -0.1297
   82SOPE  H15X 7579   3.313   3.683   4.516  0.1918  0.7795 -0.6075
   82SOPE  H15Y 7580   3.195   3.762   4.409  2.7142 -0.1955 -0.4883
   82SOPE  C316 7581   3.257   3.556   4.345  0.0110 -0.3632  0.5458
   82SOPE  H16X 7582   3.181   3.548   4.265 -0.9005 -0.9612  1.4336
   82SOPE  H16Y 7583   3.274   3.454   4.387  1.2506 -1.0680 -1.5493
   82SOPE  C317 7584   3.394   3.593   4.292 -0.0114  0.4517 -0.0727
   82SOPE  H17X 7585   3.429   3.510   4.226  2.8437  1.4240  0.1014
   82SOPE  H17Y 7586   3.473   3.606   4.369 -1.3410 -4.1367  2.4409
   82SOPE  C318 7587   3.399   3.717   4.213 -0.7676  0.8609  0.2021
   82SOPE  H18X 7588   3.503   3.732   4.177 -0.1473 -0.1491  1.5041
   82SOPE  H18Y 7589   3.375   3.810   4.268  2.2272  1.5088  0.5743
   82SOPE  H18Z 7590   3.343   3.706   4.118 -0.3524 -1.8560  0.1926
   83SOPE     N 7591   3.094   6.670   1.806  0.3286  0.1370 -0.1694
   83SOPE   HN1 7592   3.122   6.760   1.849  0.1974  0.3102 -0.4448
   83SOPE   HN2 7593   3.140   6.587   1.848 -1.5160 -1.2534 -0.7522
   83SOPE   HN3 7594   3.114   6.674   1.704  2.0526  1.0285  0.1643
   83SOPE   C12 7595   2.947   6.670   1.838 -0.0058 -0.1059 -0.1128
   83SOPE  H12A 7596   2.908   6.567   1.826 -0.5781 -0.0214  0.8727
   83SOPE  H12B 7597   2.887   6.738   1.775 -0.0317  1.0661  1.1266
   83SOPE   C11 7598   2.933   6.710   1.989 -0.3592 -0.2604  0.2677
   83SOPE  H11A 7599   2.988   6.635   2.051 -1.3377 -0.1657  1.2854
   83SOPE  H11B 7600   2.827   6.711   2.025 -0.3582  0.9271  0.2688
   83SOPE     P 7601   2.917   6.971   1.970  0.2669 -0.2332  0.0239
   83SOPE   O13 7602   2.820   6.947   1.864 -0.4775  0.6843  0.2332
   83SOPE   O14 7603   3.017   7.080   1.946 -0.4039  0.5329 -0.3488
   83SOPE   O12 7604   2.992   6.838   2.012 -0.2441 -0.6420  0.0622
   83SOPE   O11 7605   2.829   7.006   2.097 -0.0714 -0.1738 -0.2401
   83SOPE    C1 7606   2.899   7.074   2.203 -0.0755  0.3963  0.4039
   83SOPE    HA 7607   2.963   7.153   2.157 -1.5395  1.3413 -0.0763
   83SOPE    HB 7608   2.964   6.998   2.253 -2.0781 -1.7959 -0.1633
   83SOPE    C2 7609   2.809   7.125   2.312 -0.2795 -0.6381  0.2597
   83SOPE    HS 7610   2.877   7.186   2.376 -0.7419  0.4906 -0.3015
   83SOPE   O21 7611   2.750   7.025   2.394 -0.0477 -0.0619 -0.0685
   83SOPE   C21 7612   2.829   6.958   2.474 -0.2124 -0.3185  0.0308
   83SOPE   O22 7613   2.949   6.976   2.485  0.0688  0.3994  0.3144
   83SOPE   C22 7614   2.748   6.869   2.570 -0.5964 -0.1460  0.0607
   83SOPE   H2R 7615   2.822   6.822   2.638 -1.7472  1.1138  2.3027
   83SOPE   H2S 7616   2.697   6.790   2.510  1.5811 -0.2425 -1.7872
   83SOPE    C3 7617   2.696   7.207   2.244  0.2112 -0.5715 -0.7253
   83SOPE    HX 7618   2.633   7.138   2.184 -0.3483 -0.2295 -0.5333
   83SOPE    HY 7619   2.743   7.280   2.175 -2.5166  0.8751 -1.1987
   83SOPE   O31 7620   2.610   7.270   2.344 -0.0723 -0.1948  0.7183
   83SOPE   C31 7621   2.636   7.395   2.377 -0.6141  1.0842 -0.8208
   83SOPE   O32 7622   2.731   7.461   2.342  0.7211 -0.6280 -0.0960
   83SOPE   C32 7623   2.505   7.448   2.453 -0.3423 -0.4819  0.7874
   83SOPE   H2X 7624   2.414   7.393   2.423  0.5451 -1.7674  0.3608
   83SOPE   H2Y 7625   2.516   7.556   2.432  1.8436 -0.2234  2.8675
   83SOPE   C23 7626   2.628   6.939   2.644  0.6016 -0.0820 -0.0034
   83SOPE   H3R 7627   2.590   6.853   2.701 -0.8624  1.5240  1.5566
   83SOPE   H3S 7628   2.547   6.957   2.570 -0.2710 -0.1201  0.9364
   83SOPE   C24 7629   2.656   7.058   2.739 -0.6367  0.3254 -0.9103
   83SOPE   H4R 7630   2.739   7.035   2.809  0.8679  0.3190 -2.6143
   83SOPE   H4S 7631   2.675   7.143   2.669 -0.9078  2.1061  1.0806
   83SOPE   C25 7632   2.539   7.101   2.837 -0.1081 -0.3809  0.1154
   83SOPE   H5R 7633   2.580   7.185   2.896 -1.7931  0.9576 -0.5576
   83SOPE   H5S 7634   2.458   7.125   2.765  1.5511 -0.9571 -2.0484
   83SOPE   C26 7635   2.509   6.989   2.945 -0.3213 -0.2171 -0.2621
   83SOPE   H6R 7636   2.470   6.901   2.890  0.8286  0.0241 -1.5145
   83SOPE   H6S 7637   2.602   6.969   3.001 -0.3170  1.4094  0.3640
   83SOPE   C27 7638   2.396   7.029   3.043 -0.0408 -0.1834 -0.5876
   83SOPE   H7R 7639   2.398   7.135   3.077 -3.0999  0.7695 -2.9097
   83SOPE   H7S 7640   2.297   7.012   2.995 -1.4378 -0.7261  2.2399
   83SOPE   C28 7641   2.392   6.942   3.168 -0.0774  0.6313  0.0457
   83SOPE   H8R 7642   2.397   6.838   3.131 -0.0778  0.6179  0.0833
   83SOPE   H8S 7643   2.478   6.958   3.237  0.2816 -0.0623 -0.2290
   83SOPE   C29 7644   2.255   6.949   3.232 -0.2524  0.2515  0.1961
   83SOPE   H91 7645   2.181   6.906   3.163  0.9921  1.1499 -1.7826
   83SOPE  C210 7646   2.208   7.002   3.342 -0.1561 -0.5476 -0.0854
   83SOPE  H101 7647   2.099   6.992   3.352 -0.0273 -3.2471 -0.5387
   83SOPE  C211 7648   2.288   7.070   3.454  0.0754  0.9898  0.4526
   83SOPE  H11R 7649   2.311   7.175   3.426  1.7225  0.3161 -0.9045
   83SOPE  H11S 7650   2.384   7.019   3.476 -1.0096 -0.0363  3.2999
   83SOPE  C212 7651   2.210   7.073   3.590 -0.5181  0.0595 -0.0587
   83SOPE  H12R 7652   2.183   6.967   3.611 -1.1101 -0.2400 -2.1159
   83SOPE  H12S 7653   2.114   7.123   3.568 -1.8865 -3.0892 -1.8257
   83SOPE  C213 7654   2.292   7.133   3.703  0.2616 -0.5211 -0.5060
   83SOPE  H13R 7655   2.343   7.224   3.666  0.9256  0.6525  2.9140
   83SOPE  H13S 7656   2.381   7.070   3.726  0.6240 -0.2971 -1.2597
   83SOPE  C214 7657   2.206   7.171   3.823  0.4659 -0.2360 -0.0162
   83SOPE  H14R 7658   2.153   7.081   3.861  0.4227 -1.2061 -2.2684
   83SOPE  H14S 7659   2.128   7.244   3.792  0.5490 -1.6361 -4.0482
   83SOPE  C215 7660   2.297   7.223   3.943 -0.7346 -0.0194 -0.4915
   83SOPE  H15R 7661   2.340   7.321   3.913  1.1990  0.2547  2.7596
   83SOPE  H15S 7662   2.375   7.145   3.959 -0.1290  0.4464 -1.1179
   83SOPE  C216 7663   2.218   7.240   4.070  0.5527 -0.4958  0.2458
   83SOPE  H16R 7664   2.171   7.145   4.100 -0.5448  0.1896  0.7338
   83SOPE  H16S 7665   2.133   7.311   4.062 -0.2031 -1.5154 -1.3524
   83SOPE  C217 7666   2.292   7.292   4.199 -0.6226 -0.3627 -0.2320
   83SOPE  H17R 7667   2.387   7.237   4.208 -0.9958 -0.8857  0.6303
   83SOPE  H17S 7668   2.222   7.285   4.285  0.8671  0.9782  1.1685
   83SOPE  C218 7669   2.332   7.439   4.211 -0.1347 -0.0159 -0.2628
   83SOPE  H18R 7670   2.257   7.515   4.181  0.3511 -0.0157 -1.5447
   83SOPE  H18S 7671   2.417   7.456   4.141 -0.2863 -0.6797 -0.6121
   83SOPE  H18T 7672   2.354   7.455   4.319 -4.4479  1.0447  0.6262
   83SOPE   C33 7673   2.521   7.419   2.604 -0.3726  0.4096  0.5131
   83SOPE   H3X 7674   2.598   7.495   2.628  0.0531 -0.4202  1.9160
   83SOPE   H3Y 7675   2.575   7.322   2.617  0.3157  0.2138 -2.8350
   83SOPE   C34 7676   2.397   7.433   2.690 -0.8783  0.1594 -0.1030
   83SOPE   H4X 7677   2.328   7.347   2.671 -1.3854  0.8421 -1.5028
   83SOPE   H4Y 7678   2.342   7.525   2.661 -1.3826 -0.0750  0.1008
   83SOPE   C35 7679   2.434   7.457   2.834 -0.6449  0.1007  0.5522
   83SOPE   H5X 7680   2.477   7.560   2.829  1.3036 -0.6992 -3.3359
   83SOPE   H5Y 7681   2.517   7.394   2.872  1.4903  2.0774 -0.5246
   83SOPE   C36 7682   2.329   7.431   2.932 -0.4840  0.6156 -0.5665
   83SOPE   H6X 7683   2.289   7.329   2.912  0.7002  0.0431 -0.0833
   83SOPE   H6Y 7684   2.251   7.510   2.926 -1.3908 -0.3272 -1.6972
   83SOPE   C37 7685   2.395   7.442   3.074  0.3121  0.3880  0.4486
   83SOPE   H7X 7686   2.450   7.537   3.089  1.1500 -0.2747  1.8264
   83SOPE   H7Y 7687   2.469   7.363   3.097  0.3609  1.3557  4.2351
   83SOPE   C38 7688   2.303   7.429   3.187  0.3947  1.0073 -0.4799
   83SOPE   H8X 7689   2.272   7.323   3.199 -1.4413  1.3907 -1.5421
   83SOPE   H8Y 7690   2.211   7.488   3.170 -0.7438  0.2877  2.4666
   83SOPE   C39 7691   2.358   7.493   3.318 -0.1142  0.4250  0.0651
   83SOPE   H9X 7692   2.399   7.596   3.314  2.5370 -0.4221  2.4669
   83SOPE   H9Y 7693   2.447   7.439   3.355  1.0697  2.5545  0.4452
   83SOPE  C310 7694   2.247   7.513   3.428 -0.1886 -0.4007  0.2839
   83SOPE  H10X 7695   2.197   7.416   3.448 -0.6282 -0.5500 -1.3734
   83SOPE  H10Y 7696   2.173   7.589   3.393  1.7817  0.4361 -2.4284
   83SOPE  C311 7697   2.306   7.540   3.567 -0.5409  0.8751 -0.2387
   83SOPE  H11X 7698   2.378   7.623   3.553 -1.4881  1.5331 -1.3749
   83SOPE  H11Y 7699   2.357   7.450   3.608 -2.0337  0.6329  1.2159
   83SOPE  C312 7700   2.204   7.590   3.666 -0.5530  0.1371  0.2600
   83SOPE  H12X 7701   2.124   7.516   3.688 -1.8003  1.2442 -0.3712
   83SOPE  H12Y 7702   2.148   7.673   3.617 -0.4000 -0.0531 -0.2503
   83SOPE  C313 7703   2.263   7.626   3.801 -0.3194  0.0639 -0.6852
   83SOPE  H13X 7704   2.331   7.711   3.776  2.8970 -1.8919  0.7488
   83SOPE  H13Y 7705   2.317   7.537   3.839  0.4712 -0.0078 -1.9299
   83SOPE  C314 7706   2.161   7.663   3.909  0.3209  0.6854 -0.8830
   83SOPE  H14X 7707   2.165   7.594   3.996  1.9518  3.2921  1.2545
   83SOPE  H14Y 7708   2.058   7.666   3.869 -0.5346  0.5955  1.2417
   83SOPE  C315 7709   2.181   7.797   3.982 -0.2831 -0.6189  0.7634
   83SOPE  H15X 7710   2.087   7.849   3.953 -0.4138 -1.9729 -1.5059
   83SOPE  H15Y 7711   2.268   7.852   3.941 -1.7526  0.6191 -0.8294
   83SOPE  C316 7712   2.178   7.800   4.132  0.2980 -0.8337 -0.3319
   83SOPE  H16X 7713   2.187   7.905   4.166  3.2791 -0.1189 -2.8531
   83SOPE  H16Y 7714   2.276   7.753   4.157  0.8003  0.6037  0.5161
   83SOPE  C317 7715   2.049   7.738   4.195 -0.5954 -0.6780 -0.6784
   83SOPE  H17X 7716   2.066   7.629   4.194  3.4481 -0.2199  0.3175
   83SOPE  H17Y 7717   1.959   7.768   4.138  0.3402  2.2825 -0.8146
   83SOPE  C318 7718   2.044   7.773   4.347 -0.1887 -0.4545  0.2700
   83SOPE  H18X 7719   2.145   7.786   4.392  0.7629 -1.6008 -1.3952
   83SOPE  H18Y 7720   1.985   7.700   4.406 -1.1794  0.2349  0.1469
   83SOPE  H18Z 7721   1.990   7.869   4.349 -1.8468 -1.2813 -1.6201
   84SOPE     N 7722   2.630   6.217   2.324 -0.1043  0.3423 -0.5269
   84SOPE   HN1 7723   2.684   6.172   2.248 -2.4486 -2.0469 -0.9285
   84SOPE   HN2 7724   2.622   6.317   2.296 -4.0659  0.6653  1.0995
   84SOPE   HN3 7725   2.679   6.216   2.416 -0.5050  0.5597 -0.3075
   84SOPE   C12 7726   2.496   6.158   2.316  0.4771  0.3360 -0.1485
   84SOPE  H12A 7727   2.465   6.147   2.210 -3.7148  1.0717  0.8015
   84SOPE  H12B 7728   2.416   6.232   2.338  0.0359 -0.1168 -0.2266
   84SOPE   C11 7729   2.483   6.033   2.402 -1.1349  0.6375  0.2545
   84SOPE  H11A 7730   2.379   5.995   2.400 -0.6079 -0.8808  0.0149
   84SOPE  H11B 7731   2.502   6.044   2.511  2.4084  1.7789 -0.3530
   84SOPE     P 7732   2.680   5.861   2.419 -0.2642 -0.3241  0.0146
   84SOPE   O13 7733   2.789   5.963   2.441 -0.4643  0.1088 -0.2575
   84SOPE   O14 7734   2.711   5.742   2.341  0.3596  0.7088  0.5540
   84SOPE   O12 7735   2.561   5.928   2.341  0.0334 -0.1345  0.2451
   84SOPE   O11 7736   2.621   5.814   2.550 -0.3785  0.0125 -0.3265
   84SOPE    C1 7737   2.515   5.721   2.556  0.4536  0.0086 -0.1760
   84SOPE    HA 7738   2.533   5.633   2.491 -2.4089  1.6596 -3.4930
   84SOPE    HB 7739   2.422   5.774   2.527 -0.9654 -2.0206  0.4153
   84SOPE    C2 7740   2.504   5.674   2.698 -0.7951  0.6024 -0.6710
   84SOPE    HS 7741   2.594   5.617   2.729 -1.6029 -0.1790  0.3134
   84SOPE   O21 7742   2.385   5.597   2.706  0.5298 -0.3143  0.0992
   84SOPE   C21 7743   2.396   5.470   2.690 -1.1499 -0.2260  0.0424
   84SOPE   O22 7744   2.499   5.404   2.671  0.0401  0.2623  1.0098
   84SOPE   C22 7745   2.252   5.404   2.711  0.1938 -0.0235  0.1794
   84SOPE   H2R 7746   2.268   5.297   2.685  3.4529  0.6711 -1.1182
   84SOPE   H2S 7747   2.175   5.437   2.637  1.9627  0.5745 -1.4666
   84SOPE    C3 7748   2.481   5.797   2.787  0.7305 -0.5594 -0.2926
   84SOPE    HX 7749   2.400   5.851   2.734 -1.8498 -1.3818  2.5050
   84SOPE    HY 7750   2.559   5.876   2.796  0.0052  0.1238  0.1617
   84SOPE   O31 7751   2.421   5.769   2.916  0.7028 -0.5754 -0.2348
   84SOPE   C31 7752   2.510   5.735   3.009 -0.6379 -0.1704 -0.0806
   84SOPE   O32 7753   2.629   5.717   2.986 -0.2010  0.0678  0.0732
   84SOPE   C32 7754   2.446   5.728   3.149  0.0473  0.3378  0.2334
   84SOPE   H2X 7755   2.344   5.685   3.139 -0.6754  1.5926  1.8715
   84SOPE   H2Y 7756   2.446   5.832   3.187 -0.5671  1.4324 -2.5234
   84SOPE   C23 7757   2.207   5.422   2.864 -0.0129 -0.3475 -0.2412
   84SOPE   H3R 7758   2.151   5.514   2.891  1.6764  0.0343  2.3030
   84SOPE   H3S 7759   2.299   5.430   2.925 -0.7514  0.4274  0.8165
   84SOPE   C24 7760   2.145   5.298   2.918 -0.7587  0.1152  0.1706
   84SOPE   H4R 7761   2.050   5.282   2.861 -1.3329  0.7502  0.9290
   84SOPE   H4S 7762   2.200   5.211   2.875  2.4659  2.7020 -1.2964
   84SOPE   C25 7763   2.118   5.303   3.070 -0.0057  0.3748  0.5126
   84SOPE   H5R 7764   2.060   5.394   3.093  1.6912  1.0245  2.5111
   84SOPE   H5S 7765   2.051   5.216   3.084  0.1294  0.4499  1.7266
   84SOPE   C26 7766   2.245   5.297   3.149 -0.6967 -0.0870 -0.0481
   84SOPE   H6R 7767   2.312   5.223   3.100  1.5023  1.9451 -0.2883
   84SOPE   H6S 7768   2.295   5.396   3.151  0.1106 -0.4463 -1.3438
   84SOPE   C27 7769   2.215   5.246   3.289  0.8244 -0.1655  0.1808
   84SOPE   H7R 7770   2.133   5.315   3.318  1.3461  1.5070 -2.0629
   84SOPE   H7S 7771   2.175   5.142   3.279 -1.6353  0.7599 -0.3587
   84SOPE   C28 7772   2.333   5.262   3.378 -0.2452  0.1803 -0.5188
   84SOPE   H8R 7773   2.421   5.215   3.330  0.1332  0.9949 -0.6499
   84SOPE   H8S 7774   2.362   5.370   3.375 -0.6084  0.2650 -1.3847
   84SOPE   C29 7775   2.310   5.207   3.516 -0.6637 -0.1483  0.5523
   84SOPE   H91 7776   2.328   5.100   3.535  0.4784 -0.3489 -1.3687
   84SOPE  C210 7777   2.262   5.280   3.612 -1.0524 -0.7120 -0.6203
   84SOPE  H101 7778   2.230   5.229   3.704  0.6074  1.3769  1.2108
   84SOPE  C211 7779   2.195   5.416   3.601 -0.2703  0.1999 -0.1566
   84SOPE  H11R 7780   2.161   5.447   3.500  2.1314  1.4406 -0.6688
   84SOPE  H11S 7781   2.274   5.489   3.632 -1.0284  1.1913 -0.5068
   84SOPE  C212 7782   2.072   5.434   3.692  0.3135 -0.0991 -0.8343
   84SOPE  H12R 7783   1.997   5.353   3.678 -1.6740  0.8629  2.9349
   84SOPE  H12S 7784   2.023   5.531   3.670 -1.9086 -0.8358  0.5109
   84SOPE  C213 7785   2.125   5.437   3.838 -0.5239  0.5922 -0.5531
   84SOPE  H13R 7786   2.199   5.520   3.844 -0.4359  0.5909 -1.4797
   84SOPE  H13S 7787   2.195   5.353   3.858 -0.4398  0.8537  0.2615
   84SOPE  C214 7788   2.016   5.441   3.949  0.6307 -0.1524  0.6573
   84SOPE  H14R 7789   1.952   5.350   3.939 -1.1874  1.2939 -2.3028
   84SOPE  H14S 7790   1.952   5.527   3.921  1.4472 -0.5129 -2.7058
   84SOPE  C215 7791   2.070   5.463   4.086  0.0749  0.4231 -0.6209
   84SOPE  H15R 7792   2.093   5.571   4.092  0.6188  0.2519  0.7430
   84SOPE  H15S 7793   2.158   5.401   4.113  0.2145  1.0078  0.2843
   84SOPE  C216 7794   1.962   5.436   4.191  0.2764  0.1773 -0.3179
   84SOPE  H16R 7795   1.880   5.510   4.183 -0.5062 -0.6227  0.1337
   84SOPE  H16S 7796   2.006   5.462   4.290 -1.7488  1.9607  0.1990
   84SOPE  C217 7797   1.898   5.296   4.186  0.0649  0.7045 -0.4173
   84SOPE  H17R 7798   1.984   5.230   4.161  0.7312  1.1491  0.6204
   84SOPE  H17S 7799   1.822   5.294   4.106  0.4975 -0.0566 -0.8229
   84SOPE  C218 7800   1.845   5.258   4.329 -0.3958 -0.5911  0.1803
   84SOPE  H18R 7801   1.780   5.342   4.361  1.3317  1.8806 -2.3256
   84SOPE  H18S 7802   1.922   5.235   4.406  0.3146  1.3520  0.0933
   84SOPE  H18T 7803   1.776   5.171   4.334  1.0808 -1.8050  0.1027
   84SOPE   C33 7804   2.531   5.644   3.251 -0.0015 -0.2207 -0.4890
   84SOPE   H3X 7805   2.636   5.683   3.254 -0.4582  1.0581  2.4206
   84SOPE   H3Y 7806   2.537   5.537   3.222  1.5852  0.0539 -1.2825
   84SOPE   C34 7807   2.475   5.650   3.394 -0.1005  0.3403 -0.4874
   84SOPE   H4X 7808   2.523   5.570   3.455 -2.8309  0.5909  2.2310
   84SOPE   H4Y 7809   2.366   5.628   3.393 -0.0990  0.2906  0.3477
   84SOPE   C35 7810   2.496   5.779   3.473 -0.8499 -0.1578  0.0078
   84SOPE   H5X 7811   2.442   5.858   3.417  0.7691  1.1938  0.2525
   84SOPE   H5Y 7812   2.606   5.796   3.468 -1.2315  2.8971 -0.0022
   84SOPE   C36 7813   2.441   5.778   3.619 -0.4993 -0.3357 -0.0773
   84SOPE   H6X 7814   2.339   5.734   3.614 -0.4521 -0.3323 -1.5877
   84SOPE   H6Y 7815   2.419   5.882   3.652 -0.1995  0.0458 -1.0481
   84SOPE   C37 7816   2.541   5.701   3.707 -0.0534 -0.0895  0.0272
   84SOPE   H7X 7817   2.640   5.737   3.672  0.1160 -0.3842  0.1939
   84SOPE   H7Y 7818   2.541   5.592   3.686  0.5454 -0.7229  2.8529
   84SOPE   C38 7819   2.539   5.721   3.855 -0.1873  0.1566  0.5023
   84SOPE   H8X 7820   2.606   5.651   3.910  0.1965 -0.3240 -0.5488
   84SOPE   H8Y 7821   2.439   5.705   3.901 -0.1339  1.1114  0.9711
   84SOPE   C39 7822   2.585   5.863   3.898 -0.1753  0.1392 -0.5079
   84SOPE   H9X 7823   2.581   5.867   4.009 -1.5122 -0.4812 -0.5205
   84SOPE   H9Y 7824   2.515   5.940   3.860 -0.4698 -0.4462 -1.1655
   84SOPE  C310 7825   2.723   5.912   3.874 -0.2192 -0.3826  0.1101
   84SOPE  H10X 7826   2.737   5.904   3.764  1.7810 -2.7506  0.4416
   84SOPE  H10Y 7827   2.800   5.850   3.926 -0.2953  1.0538  2.0445
   84SOPE  C311 7828   2.755   6.059   3.919 -0.2815  0.6827 -0.2031
   84SOPE  H11X 7829   2.713   6.070   4.021  0.3196 -0.1807  0.1457
   84SOPE  H11Y 7830   2.693   6.127   3.857 -2.6728 -1.3587 -0.2171
   84SOPE  C312 7831   2.902   6.102   3.925  0.4477 -0.4428 -0.0603
   84SOPE  H12X 7832   2.976   6.043   3.983  0.2649 -1.7954 -1.1450
   84SOPE  H12Y 7833   2.894   6.197   3.982 -0.6096 -0.9220  0.6143
   84SOPE  C313 7834   2.970   6.130   3.787  0.3749 -0.0904 -0.1422
   84SOPE  H13X 7835   2.942   6.043   3.724 -1.3219 -0.0479  0.5092
   84SOPE  H13Y 7836   3.078   6.130   3.816  0.7006 -0.4204 -1.3233
   84SOPE  C314 7837   2.919   6.251   3.714 -0.0071  0.1705  0.0971
   84SOPE  H14X 7838   2.809   6.244   3.700  0.1013  1.8494 -1.9713
   84SOPE  H14Y 7839   2.973   6.247   3.617 -2.0884  0.4963 -1.1335
   84SOPE  C315 7840   2.960   6.386   3.766  0.2439  0.1860  0.4395
   84SOPE  H15X 7841   3.067   6.392   3.797  0.0613  2.0283  0.8199
   84SOPE  H15Y 7842   2.908   6.402   3.862  1.3895 -1.1447  1.3351
   84SOPE  C316 7843   2.927   6.503   3.667  0.2597 -0.2641  0.2705
   84SOPE  H16X 7844   2.818   6.500   3.647  0.6234  1.2715 -2.4515
   84SOPE  H16Y 7845   2.974   6.485   3.568  1.6167 -2.4920  1.2419
   84SOPE  C317 7846   2.965   6.643   3.722 -0.1428 -0.4222 -0.2925
   84SOPE  H17X 7847   3.071   6.640   3.753  0.6355  0.1739 -2.6934
   84SOPE  H17Y 7848   2.893   6.671   3.802 -0.3100  1.7567 -1.1379
   84SOPE  C318 7849   2.972   6.760   3.618 -0.4114  0.0681  0.0230
   84SOPE  H18X 7850   3.046   6.739   3.538 -0.1230  0.8355  0.0821
   84SOPE  H18Y 7851   3.002   6.850   3.675  0.8778 -1.5459  2.0506
   84SOPE  H18Z 7852   2.874   6.773   3.567  0.2231  0.8302 -1.0368
   85SOPE     N 7853   0.865   2.142   1.974 -0.0162  0.1192  0.1163
   85SOPE   HN1 7854   0.774   2.153   1.925 -0.3416 -0.5070  0.5648
   85SOPE   HN2 7855   0.887   2.215   2.045  1.5785  2.0866 -2.2181
   85SOPE   HN3 7856   0.936   2.156   1.899 -1.1481  0.6729 -0.8884
   85SOPE   C12 7857   0.873   1.996   2.018  0.2167 -0.6394  0.7374
   85SOPE  H12A 7858   0.807   1.990   2.108  0.8740 -0.5650  1.2331
   85SOPE  H12B 7859   0.981   1.975   2.038  0.7259 -0.1382 -1.3040
   85SOPE   C11 7860   0.834   1.900   1.898 -0.1034  0.9177  0.2489
   85SOPE  H11A 7861   0.850   1.799   1.940 -1.5226  0.6607  0.2192
   85SOPE  H11B 7862   0.892   1.922   1.806 -1.7302  0.4561 -0.9353
   85SOPE     P 7863   0.566   1.832   1.926  0.6033  0.1333 -0.3987
   85SOPE   O13 7864   0.533   1.720   1.831 -0.3607 -0.6645 -0.5333
   85SOPE   O14 7865   0.453   1.929   1.937  0.4455  0.0100 -0.0563
   85SOPE   O12 7866   0.692   1.922   1.869  0.0049 -0.4004  0.1126
   85SOPE   O11 7867   0.604   1.777   2.070 -0.1033  0.2987 -0.2528
   85SOPE    C1 7868   0.606   1.639   2.092  0.6922  0.1739 -0.1016
   85SOPE    HA 7869   0.684   1.594   2.027  0.5383 -1.5740  0.8520
   85SOPE    HB 7870   0.510   1.586   2.075 -0.1364  1.1905  1.2351
   85SOPE    C2 7871   0.636   1.596   2.237  0.8915  0.3232 -0.1373
   85SOPE    HS 7872   0.607   1.489   2.244 -1.3731  0.7130 -2.2109
   85SOPE   O21 7873   0.573   1.676   2.338  0.4175  0.5451  0.6165
   85SOPE   C21 7874   0.440   1.672   2.335  0.4280  0.1470 -0.6864
   85SOPE   O22 7875   0.367   1.607   2.265 -0.2592  0.0556 -0.5361
   85SOPE   C22 7876   0.388   1.756   2.451  0.4843 -0.1381  0.8515
   85SOPE   H2R 7877   0.277   1.756   2.453  0.3366  2.7724 -1.0953
   85SOPE   H2S 7878   0.427   1.859   2.437 -0.3048 -0.0460 -0.9456
   85SOPE    C3 7879   0.793   1.594   2.263 -0.8766 -0.5155  0.2586
   85SOPE    HX 7880   0.833   1.690   2.222 -1.4394 -1.3373 -2.3625
   85SOPE    HY 7881   0.836   1.519   2.194 -0.3094  1.5633 -1.7618
   85SOPE   O31 7882   0.816   1.560   2.396 -0.5591 -0.2694  0.4061
   85SOPE   C31 7883   0.853   1.661   2.482  0.6795 -0.4915  0.6320
   85SOPE   O32 7884   0.880   1.774   2.443  0.4044  0.2372 -0.0955
   85SOPE   C32 7885   0.869   1.600   2.618 -0.4618  0.3463  0.5805
   85SOPE   H2X 7886   0.975   1.566   2.628 -0.7126 -0.4762  0.5802
   85SOPE   H2Y 7887   0.803   1.511   2.616  1.9199 -1.5451  0.8059
   85SOPE   C23 7888   0.456   1.718   2.583 -0.3419 -0.5976  0.2308
   85SOPE   H3R 7889   0.565   1.736   2.568 -0.2474 -0.4944  1.0080
   85SOPE   H3S 7890   0.437   1.616   2.623 -1.4414  0.4021  2.4261
   85SOPE   C24 7891   0.393   1.808   2.702  0.5671  0.0143  0.7271
   85SOPE   H4R 7892   0.398   1.917   2.682  1.9981 -0.4550 -1.7953
   85SOPE   H4S 7893   0.283   1.791   2.705  0.2446  1.2751 -1.9068
   85SOPE   C25 7894   0.438   1.758   2.840 -0.1958 -0.8552  0.5181
   85SOPE   H5R 7895   0.531   1.699   2.821 -0.1586 -0.7726  0.4388
   85SOPE   H5S 7896   0.460   1.844   2.906 -2.4630  0.0673  0.1553
   85SOPE   C26 7897   0.341   1.660   2.907  0.4065  1.1112  1.0926
   85SOPE   H6R 7898   0.304   1.587   2.832  1.6116  0.4858  1.0794
   85SOPE   H6S 7899   0.391   1.615   2.995  1.0353  0.3938  0.3947
   85SOPE   C27 7900   0.205   1.718   2.960  0.4321 -1.1062  0.0582
   85SOPE   H7R 7901   0.149   1.750   2.869  3.3006  1.5278 -0.9909
   85SOPE   H7S 7902   0.137   1.656   3.021 -0.5843 -0.6177 -0.5453
   85SOPE   C28 7903   0.219   1.847   3.047  0.3129  0.4701  0.4932
   85SOPE   H8R 7904   0.266   1.928   2.987  1.5937 -1.4512 -1.2382
   85SOPE   H8S 7905   0.118   1.883   3.076  1.5517  4.1104  0.8431
   85SOPE   C29 7906   0.298   1.822   3.169 -0.0189  1.2397 -0.2972
   85SOPE   H91 7907   0.399   1.786   3.145  0.0327 -0.4989  2.1328
   85SOPE  C210 7908   0.256   1.807   3.294  0.8891  0.4352  0.4400
   85SOPE  H101 7909   0.338   1.788   3.365  1.5666  1.9068  0.1040
   85SOPE  C211 7910   0.118   1.844   3.336  0.2797 -0.6436  0.4165
   85SOPE  H11R 7911   0.047   1.763   3.309  1.7861 -1.6678 -0.5589
   85SOPE  H11S 7912   0.090   1.935   3.278 -2.6186  0.1182  2.7302
   85SOPE  C212 7913   0.112   1.888   3.487  0.1949  0.3921  0.9666
   85SOPE  H12R 7914   0.005   1.918   3.496 -1.0215 -2.5771 -1.8175
   85SOPE  H12S 7915   0.188   1.966   3.510  0.0258  0.4216  1.4384
   85SOPE  C213 7916   0.131   1.769   3.577  0.1537 -0.5396 -0.0072
   85SOPE  H13R 7917   0.224   1.713   3.553 -0.0206 -0.4866 -0.8314
   85SOPE  H13S 7918   0.050   1.696   3.559 -1.3682  1.0969 -0.0803
   85SOPE  C214 7919   0.141   1.810   3.717 -0.3770  0.1104  0.2012
   85SOPE  H14R 7920   0.233   1.871   3.732 -0.8698  1.2415 -1.1502
   85SOPE  H14S 7921   0.149   1.731   3.794 -0.9207  0.8220  1.0054
   85SOPE  C215 7922   0.024   1.897   3.760 -0.4227  0.0601  0.2054
   85SOPE  H15R 7923  -0.065   1.835   3.737 -1.6205  2.1531 -1.1242
   85SOPE  H15S 7924   0.012   1.994   3.708  1.2303  0.5423  0.6605
   85SOPE  C216 7925   0.027   1.927   3.906 -0.4427 -0.0285 -0.5944
   85SOPE  H16R 7926   0.111   1.996   3.928 -1.5865  1.5937 -1.1180
   85SOPE  H16S 7927   0.047   1.833   3.961 -1.9639 -0.7104 -1.1386
   85SOPE  C217 7928  -0.112   1.980   3.954  0.1795 -0.0549  0.3775
   85SOPE  H17R 7929  -0.198   1.930   3.906 -0.4109 -2.0100  3.2278
   85SOPE  H17S 7930  -0.112   2.087   3.924  1.5832  0.0712  0.7597
   85SOPE  C218 7931  -0.145   1.999   4.103  0.2183 -0.4526  0.7114
   85SOPE  H18R 7932  -0.170   1.913   4.170 -1.0200  0.9762  2.1718
   85SOPE  H18S 7933  -0.213   2.084   4.126  0.3378  0.0199 -0.6428
   85SOPE  H18T 7934  -0.057   2.044   4.153 -1.4846  1.2433  2.3833
   85SOPE   C33 7935   0.827   1.686   2.738  0.1030 -0.1063 -0.1358
   85SOPE   H3X 7936   0.738   1.746   2.708 -0.7162 -1.4134 -0.3786
   85SOPE   H3Y 7937   0.909   1.761   2.740  0.4469 -0.4922  0.8336
   85SOPE   C34 7938   0.804   1.614   2.861 -0.4665 -0.1726 -0.0828
   85SOPE   H4X 7939   0.888   1.544   2.882 -0.7897  0.0941  2.3670
   85SOPE   H4Y 7940   0.712   1.554   2.845 -0.3478  0.4335 -3.9770
   85SOPE   C35 7941   0.788   1.709   2.980  0.0491  0.4102  0.2862
   85SOPE   H5X 7942   0.697   1.767   2.955 -1.4709 -1.0648  2.0674
   85SOPE   H5Y 7943   0.875   1.776   2.994  0.1438  1.0414 -2.6625
   85SOPE   C36 7944   0.759   1.643   3.113  0.0474  0.7480 -0.5671
   85SOPE   H6X 7945   0.842   1.576   3.145 -1.4659 -2.0566 -2.0955
   85SOPE   H6Y 7946   0.669   1.581   3.093 -1.7421  3.1754 -0.4505
   85SOPE   C37 7947   0.729   1.740   3.231 -0.0526  0.2749 -0.7068
   85SOPE   H7X 7948   0.627   1.782   3.222 -0.9277 -0.8485  2.6255
   85SOPE   H7Y 7949   0.796   1.829   3.230 -1.9240  1.7728  0.6613
   85SOPE   C38 7950   0.717   1.672   3.361 -0.5232 -0.5958 -0.4903
   85SOPE   H8X 7951   0.820   1.635   3.379  0.1713  1.2474 -0.4485
   85SOPE   H8Y 7952   0.647   1.586   3.360 -0.9752 -0.2547  0.3542
   85SOPE   C39 7953   0.675   1.775   3.468 -0.0412  0.0242 -0.1824
   85SOPE   H9X 7954   0.594   1.837   3.426 -1.1096  2.5664  4.8706
   85SOPE   H9Y 7955   0.762   1.836   3.499  2.3741 -3.2066  0.0009
   85SOPE  C310 7956   0.618   1.702   3.593 -0.2716  0.1413 -0.0487
   85SOPE  H10X 7957   0.579   1.601   3.570  3.5863 -1.3872 -0.7236
   85SOPE  H10Y 7958   0.546   1.768   3.646 -1.2177  1.0764 -2.3444
   85SOPE  C311 7959   0.729   1.659   3.698  0.5676  0.7180  0.0011
   85SOPE  H11X 7960   0.774   1.751   3.742  0.1679  0.3668  1.1747
   85SOPE  H11Y 7961   0.801   1.598   3.640  1.2677  1.3230  0.2244
   85SOPE  C312 7962   0.668   1.587   3.819 -0.3836 -0.2728  0.5111
   85SOPE  H12X 7963   0.756   1.552   3.876 -0.8347 -0.3008  1.1956
   85SOPE  H12Y 7964   0.620   1.496   3.777  1.2096 -0.9104  0.0157
   85SOPE  C313 7965   0.577   1.669   3.908  0.1950  0.3355 -0.7020
   85SOPE  H13X 7966   0.500   1.724   3.850  0.4442  1.1107 -0.3117
   85SOPE  H13Y 7967   0.629   1.754   3.959 -2.1147 -0.1113  2.7434
   85SOPE  C314 7968   0.528   1.587   4.030 -0.0462  0.5399  0.3380
   85SOPE  H14X 7969   0.583   1.493   4.050 -1.9334 -1.2567 -2.2451
   85SOPE  H14Y 7970   0.430   1.545   3.998  0.1102  0.8527 -0.5791
   85SOPE  C315 7971   0.503   1.674   4.153 -0.9907  0.1051 -0.8734
   85SOPE  H15X 7972   0.601   1.725   4.167 -0.6753 -0.4618 -0.9786
   85SOPE  H15Y 7973   0.480   1.626   4.251  0.6602 -0.6699 -0.8342
   85SOPE  C316 7974   0.388   1.778   4.133 -0.3698  0.1457  0.2398
   85SOPE  H16X 7975   0.291   1.729   4.110  0.0395  0.6411 -2.9197
   85SOPE  H16Y 7976   0.404   1.832   4.038 -2.8868 -0.8806 -0.8393
   85SOPE  C317 7977   0.378   1.862   4.251  0.3839 -0.2289  0.4264
   85SOPE  H17X 7978   0.476   1.868   4.302  0.0202 -0.7426  1.1992
   85SOPE  H17Y 7979   0.310   1.811   4.323  0.3314 -2.3910 -1.0541
   85SOPE  C318 7980   0.325   2.003   4.227  0.8642 -0.7734 -0.0323
   85SOPE  H18X 7981   0.223   1.997   4.182  0.4827 -0.3174  0.7407
   85SOPE  H18Y 7982   0.391   2.064   4.162  0.6731 -0.6217 -0.0853
   85SOPE  H18Z 7983   0.312   2.062   4.320 -0.3672 -1.7928  0.4776
   86SOPE     N 7984   5.566   1.092   2.064  0.1713 -0.4664  0.2018
   86SOPE   HN1 7985   5.631   1.131   2.135  1.1142  0.1282 -0.9426
   86SOPE   HN2 7986   5.483   1.056   2.115 -0.1095 -0.0241  0.0623
   86SOPE   HN3 7987   5.609   1.020   2.002 -1.2739 -0.1888 -1.1803
   86SOPE   C12 7988   5.507   1.200   1.977 -0.4408 -0.6192  0.0167
   86SOPE  H12A 7989   5.465   1.280   2.041  1.2377 -0.1564  0.5812
   86SOPE  H12B 7990   5.431   1.146   1.916 -0.5615  0.7174 -1.0533
   86SOPE   C11 7991   5.611   1.283   1.896  0.3133 -0.0799 -0.0177
   86SOPE  H11A 7992   5.675   1.344   1.964 -0.0945  0.1249  0.1872
   86SOPE  H11B 7993   5.550   1.342   1.825  2.1020  0.0538 -1.5126
   86SOPE     P 7994   5.804   1.263   1.739 -0.3180  0.3761  0.2878
   86SOPE   O13 7995   5.741   1.382   1.674 -0.8452 -0.4137 -0.3645
   86SOPE   O14 7996   5.860   1.161   1.647  0.3527 -0.1464 -0.4181
   86SOPE   O12 7997   5.695   1.193   1.824  0.9294  0.2420  0.0468
   86SOPE   O11 7998   5.906   1.309   1.846  0.1464 -0.2363  0.3547
   86SOPE    C1 7999   5.996   1.222   1.918  0.1105  1.1824 -0.1699
   86SOPE    HA 8000   6.094   1.273   1.928 -0.6162  2.4632  0.8565
   86SOPE    HB 8001   6.004   1.118   1.880 -1.4102  0.9944 -0.0593
   86SOPE    C2 8002   5.936   1.200   2.059 -0.1014  0.0030  0.1327
   86SOPE    HS 8003   5.840   1.154   2.025 -0.2452  0.7328 -0.4726
   86SOPE   O21 8004   5.934   1.326   2.136 -0.2296  0.4495 -0.5345
   86SOPE   C21 8005   5.824   1.350   2.208 -0.1409 -0.2089 -0.3043
   86SOPE   O22 8006   5.738   1.268   2.228 -0.3358  0.2743  0.1819
   86SOPE   C22 8007   5.815   1.493   2.264 -0.2254 -0.5943 -0.0470
   86SOPE   H2R 8008   5.715   1.499   2.313  0.2155 -3.1500  1.2901
   86SOPE   H2S 8009   5.824   1.573   2.187  0.0849 -0.0486  0.5450
   86SOPE    C3 8010   6.017   1.095   2.135 -0.6745  0.7376  0.5002
   86SOPE    HX 8011   6.125   1.121   2.126 -0.6351  0.8446  1.2009
   86SOPE    HY 8012   6.007   0.996   2.087  0.7563  0.0061  1.6393
   86SOPE   O31 8013   5.981   1.079   2.270 -0.1296 -0.3123 -0.3247
   86SOPE   C31 8014   6.079   1.019   2.345 -0.4785 -0.3666  0.5778
   86SOPE   O32 8015   6.173   0.963   2.299 -0.0815  0.5788  0.7573
   86SOPE   C32 8016   6.060   1.036   2.491  0.4557  0.3055 -0.5430
   86SOPE   H2X 8017   5.999   1.124   2.521 -1.0913 -1.7153  2.8012
   86SOPE   H2Y 8018   6.160   1.036   2.541 -1.2573 -0.8050  3.3060
   86SOPE   C23 8019   5.930   1.529   2.367 -0.5585 -0.3993  0.4477
   86SOPE   H3R 8020   5.915   1.637   2.392 -2.6112 -0.5974  0.2912
   86SOPE   H3S 8021   6.021   1.512   2.307 -0.3818  1.3770  0.1521
   86SOPE   C24 8022   5.919   1.439   2.492  0.2616  0.2741  0.1520
   86SOPE   H4R 8023   5.817   1.441   2.535  0.1855 -0.5042  0.0153
   86SOPE   H4S 8024   5.946   1.336   2.459  1.4121  0.9255 -1.0570
   86SOPE   C25 8025   6.027   1.467   2.601 -0.3053 -0.4264  0.6059
   86SOPE   H5R 8026   6.119   1.422   2.559 -0.4539  0.8287 -1.1501
   86SOPE   H5S 8027   6.035   1.577   2.619  0.0590 -0.7236  2.4700
   86SOPE   C26 8028   6.003   1.378   2.722 -0.5139  0.7063 -0.5997
   86SOPE   H6R 8029   5.909   1.413   2.771 -1.6385 -2.1779 -0.4941
   86SOPE   H6S 8030   5.982   1.277   2.681 -4.7360  1.3812 -0.5305
   86SOPE   C27 8031   6.118   1.381   2.822  0.3765 -0.3334 -0.9975
   86SOPE   H7R 8032   6.209   1.342   2.772 -0.1012  0.3966 -2.5231
   86SOPE   H7S 8033   6.150   1.487   2.833 -0.6502  0.3875 -3.8755
   86SOPE   C28 8034   6.098   1.295   2.951 -0.1637 -0.2977 -0.3367
   86SOPE   H8R 8035   6.059   1.198   2.914  0.6155 -0.8025  0.1469
   86SOPE   H8S 8036   6.201   1.276   2.988 -0.3634  0.7405  0.8140
   86SOPE   C29 8037   6.008   1.344   3.066 -0.1000 -0.7706  0.5021
   86SOPE   H91 8038   5.903   1.313   3.056 -0.1808 -0.4640  0.3809
   86SOPE  C210 8039   6.037   1.427   3.168  0.1773  0.1085 -0.6551
   86SOPE  H101 8040   5.965   1.459   3.245  1.2048  0.2589  0.2723
   86SOPE  C211 8041   6.164   1.493   3.201 -0.1594 -0.2075  0.0020
   86SOPE  H11R 8042   6.237   1.480   3.119 -0.0131 -1.0747  0.2553
   86SOPE  H11S 8043   6.206   1.439   3.288 -0.3462 -0.6575 -0.1827
   86SOPE  C212 8044   6.163   1.651   3.224  0.0249  0.6172 -0.5542
   86SOPE  H12R 8045   6.254   1.678   3.282 -0.5111  0.8811  0.1855
   86SOPE  H12S 8046   6.069   1.672   3.281  1.0658  0.1330  1.4472
   86SOPE  C213 8047   6.150   1.725   3.093 -0.5564  0.3351  0.7099
   86SOPE  H13R 8048   6.054   1.692   3.048 -1.3326  3.3378 -0.0287
   86SOPE  H13S 8049   6.237   1.692   3.032 -0.4941 -1.0198  1.4840
   86SOPE  C214 8050   6.157   1.871   3.091  0.6030 -0.6202  0.0087
   86SOPE  H14R 8051   6.236   1.911   3.158  0.4136  2.0132 -1.1835
   86SOPE  H14S 8052   6.064   1.907   3.141 -0.7509  2.4859 -4.1494
   86SOPE  C215 8053   6.164   1.943   2.956  0.3592  0.0208  0.7055
   86SOPE  H15R 8054   6.243   1.904   2.889 -0.3449  0.8192 -0.6263
   86SOPE  H15S 8055   6.182   2.050   2.979 -1.0915  0.5478 -0.4127
   86SOPE  C216 8056   6.020   1.929   2.900 -0.1687 -0.4771  0.7219
   86SOPE  H16R 8057   5.950   1.976   2.972 -1.2478  0.2266 -0.7338
   86SOPE  H16S 8058   6.000   1.820   2.887 -0.9567 -0.2028 -0.5204
   86SOPE  C217 8059   6.009   1.979   2.750  0.0394  0.1605  0.3538
   86SOPE  H17R 8060   5.903   1.971   2.719 -0.1472  0.0889  0.9979
   86SOPE  H17S 8061   6.068   1.906   2.689  0.7793  2.1397 -1.4400
   86SOPE  C218 8062   6.052   2.126   2.728 -0.0595  0.1869 -0.3473
   86SOPE  H18R 8063   6.009   2.172   2.636  0.8423  0.0858 -0.8389
   86SOPE  H18S 8064   6.163   2.123   2.727 -0.0743 -1.5956  0.0809
   86SOPE  H18T 8065   6.027   2.192   2.813 -1.4440  0.7737 -1.1633
   86SOPE   C33 8066   5.998   0.907   2.550 -0.0123 -0.0103 -0.2741
   86SOPE   H3X 8067   6.065   0.821   2.529  0.7984  0.4149  0.4509
   86SOPE   H3Y 8068   5.900   0.892   2.501  0.6805 -1.0919 -1.3913
   86SOPE   C34 8069   5.971   0.917   2.707  0.1798 -0.2093 -0.1988
   86SOPE   H4X 8070   5.886   0.986   2.730 -0.7412 -1.1437 -0.7120
   86SOPE   H4Y 8071   6.063   0.958   2.754  0.0740 -0.1633 -0.0285
   86SOPE   C35 8072   5.931   0.788   2.770 -0.1802 -0.2284 -0.1685
   86SOPE   H5X 8073   6.010   0.712   2.751  0.9131  0.7473  0.3037
   86SOPE   H5Y 8074   5.839   0.749   2.723  0.6846 -1.8718 -0.5581
   86SOPE   C36 8075   5.910   0.784   2.923  0.6978 -0.3210 -0.0988
   86SOPE   H6X 8076   6.011   0.792   2.967  0.5110  1.7394  0.0559
   86SOPE   H6Y 8077   5.875   0.685   2.960  1.9286  0.3013  2.9923
   86SOPE   C37 8078   5.814   0.894   2.978 -0.6211 -0.2437  0.5732
   86SOPE   H7X 8079   5.719   0.878   2.924  0.7190  1.3724 -2.4822
   86SOPE   H7Y 8080   5.859   0.994   2.960  0.9773 -0.6004  2.2744
   86SOPE   C38 8081   5.782   0.880   3.128  0.3500 -0.7968 -0.0347
   86SOPE   H8X 8082   5.746   0.976   3.171 -0.8322 -0.4265 -1.7337
   86SOPE   H8Y 8083   5.875   0.860   3.184  0.6510 -0.8280 -0.5400
   86SOPE   C39 8084   5.679   0.771   3.156  0.1007 -0.2014  0.0996
   86SOPE   H9X 8085   5.717   0.718   3.246  1.9314  1.0512  0.1274
   86SOPE   H9Y 8086   5.662   0.705   3.068  1.3094  1.2462 -1.3074
   86SOPE  C310 8087   5.537   0.819   3.200 -0.6456 -0.0695 -0.1477
   86SOPE  H10X 8088   5.466   0.735   3.184  0.8518 -1.4889  0.3275
   86SOPE  H10Y 8089   5.520   0.912   3.141  0.9280  0.6619  0.5133
   86SOPE  C311 8090   5.524   0.836   3.345 -0.2005 -0.0474  0.4576
   86SOPE  H11X 8091   5.586   0.923   3.375 -1.3551  0.7964  0.5061
   86SOPE  H11Y 8092   5.545   0.744   3.404 -1.6010  0.2880  1.5385
   86SOPE  C312 8093   5.377   0.866   3.389 -0.0563  1.1310 -0.0830
   86SOPE  H12X 8094   5.313   0.800   3.326  0.0060  1.1141 -0.1295
   86SOPE  H12Y 8095   5.344   0.972   3.384  1.5666  1.6329 -1.1213
   86SOPE  C313 8096   5.358   0.826   3.537 -0.3837  0.2065 -0.4054
   86SOPE  H13X 8097   5.410   0.886   3.614 -1.1558 -1.3642  1.4217
   86SOPE  H13Y 8098   5.384   0.718   3.539 -0.8205  0.1037 -0.1591
   86SOPE  C314 8099   5.203   0.824   3.567 -0.4068 -0.0296 -0.3287
   86SOPE  H14X 8100   5.167   0.758   3.486  2.2468 -0.8582 -0.9430
   86SOPE  H14Y 8101   5.164   0.926   3.550  1.5245  1.0755  1.4354
   86SOPE  C315 8102   5.172   0.772   3.710 -0.2513  0.1421 -0.5119
   86SOPE  H15X 8103   5.182   0.661   3.719 -2.4462 -0.0169  0.4318
   86SOPE  H15Y 8104   5.065   0.798   3.723  0.0670  1.8366 -1.1304
   86SOPE  C316 8105   5.243   0.832   3.828 -0.3817  0.1513  0.0899
   86SOPE  H16X 8106   5.230   0.942   3.813  0.7577  0.2987  0.1376
   86SOPE  H16Y 8107   5.350   0.806   3.813 -0.6170  0.4818 -2.8134
   86SOPE  C317 8108   5.210   0.789   3.968  0.1847  0.1797 -0.1708
   86SOPE  H17X 8109   5.288   0.810   4.045 -0.4980 -1.2665  0.9751
   86SOPE  H17Y 8110   5.206   0.678   3.961  1.3166  0.1149  0.0317
   86SOPE  C318 8111   5.076   0.837   4.035 -0.0577 -0.7413  0.1496
   86SOPE  H18X 8112   5.070   0.794   4.138  0.9899 -3.5382 -0.8445
   86SOPE  H18Y 8113   4.987   0.797   3.982 -0.9389  1.4822 -0.1208
   86SOPE  H18Z 8114   5.069   0.947   4.030  1.0444 -0.6933 -0.5424
   87SOPE     N 8115   1.388   6.250   2.124  0.0855 -0.0685 -0.2296
   87SOPE   HN1 8116   1.390   6.353   2.135 -1.6724  0.1021 -1.0726
   87SOPE   HN2 8117   1.290   6.220   2.144 -0.7525  0.4084 -3.1496
   87SOPE   HN3 8118   1.447   6.202   2.194 -0.7979 -0.6028  0.1732
   87SOPE   C12 8119   1.425   6.207   1.983  0.5422  0.1745 -0.0999
   87SOPE  H12A 8120   1.398   6.275   1.900 -1.8237 -0.6482 -0.0808
   87SOPE  H12B 8121   1.386   6.104   1.966  1.0826  0.0735 -0.7970
   87SOPE   C11 8122   1.581   6.208   1.970  0.1705  0.1757  0.6203
   87SOPE  H11A 8123   1.595   6.173   1.866 -1.3462 -0.3047  0.5447
   87SOPE  H11B 8124   1.637   6.144   2.041  1.6737 -0.0452 -0.7157
   87SOPE     P 8125   1.768   6.389   2.015  0.1035 -0.3900  0.2987
   87SOPE   O13 8126   1.774   6.536   1.991  0.0100  0.5070 -0.1832
   87SOPE   O14 8127   1.860   6.309   1.933 -0.4639  0.0149 -0.2084
   87SOPE   O12 8128   1.626   6.342   1.973  0.1179 -0.0424  0.0420
   87SOPE   O11 8129   1.782   6.368   2.166  0.0872 -0.1694  0.5560
   87SOPE    C1 8130   1.857   6.439   2.259 -0.1371  0.5360 -0.0280
   87SOPE    HA 8131   1.822   6.545   2.258 -0.4777  0.4283 -1.4452
   87SOPE    HB 8132   1.965   6.440   2.234 -0.0761  0.7526  0.2370
   87SOPE    C2 8133   1.812   6.380   2.392  0.1147 -0.7287  0.7437
   87SOPE    HS 8134   1.703   6.365   2.399 -0.4467  0.1009 -3.3724
   87SOPE   O21 8135   1.861   6.481   2.482 -0.0773  0.0672 -0.1847
   87SOPE   C21 8136   1.780   6.580   2.497 -0.3128  0.0492  0.1720
   87SOPE   O22 8137   1.665   6.593   2.461 -0.0582  0.3660 -0.3808
   87SOPE   C22 8138   1.839   6.674   2.605  0.3575  0.2972  0.0534
   87SOPE   H2R 8139   1.831   6.778   2.567  0.1517 -0.0401 -0.8267
   87SOPE   H2S 8140   1.943   6.639   2.626  0.0722 -1.4841 -1.2663
   87SOPE    C3 8141   1.877   6.239   2.425 -0.1826 -0.8858  0.3626
   87SOPE    HX 8142   1.988   6.246   2.429 -0.2987  1.1857  1.2396
   87SOPE    HY 8143   1.862   6.185   2.330 -0.2501  0.1335 -0.2254
   87SOPE   O31 8144   1.810   6.166   2.535  0.6854 -0.1323  0.2046
   87SOPE   C31 8145   1.866   6.178   2.653  0.7205  0.5266 -0.5788
   87SOPE   O32 8146   1.975   6.237   2.667 -0.2101 -0.0941  0.0550
   87SOPE   C32 8147   1.770   6.108   2.753 -0.2876  0.4395 -0.2493
   87SOPE   H2X 8148   1.811   6.011   2.788 -1.4696  0.2968  0.8307
   87SOPE   H2Y 8149   1.670   6.085   2.709  1.3607  0.4478 -4.4301
   87SOPE   C23 8150   1.763   6.662   2.732 -0.5256  0.0412  0.2040
   87SOPE   H3R 8151   1.745   6.558   2.768  0.7083 -0.2168  0.1097
   87SOPE   H3S 8152   1.659   6.700   2.715 -0.7864  0.1910  1.9711
   87SOPE   C24 8153   1.828   6.746   2.849  0.0058 -0.0657  0.4598
   87SOPE   H4R 8154   1.923   6.689   2.852  0.0397 -0.2074 -1.9676
   87SOPE   H4S 8155   1.834   6.852   2.816 -2.6363  0.5223  1.5831
   87SOPE   C25 8156   1.758   6.733   2.984 -0.5618 -0.6191 -0.5950
   87SOPE   H5R 8157   1.659   6.780   2.971  1.3602  3.8756 -0.9369
   87SOPE   H5S 8158   1.746   6.625   3.011 -1.6267 -0.7577 -1.5658
   87SOPE   C26 8159   1.830   6.803   3.096 -0.3642  0.1436 -0.3454
   87SOPE   H6R 8160   1.940   6.786   3.100 -0.2543  0.6143 -1.1211
   87SOPE   H6S 8161   1.820   6.911   3.075  1.6367  0.3596 -0.4266
   87SOPE   C27 8162   1.785   6.783   3.242 -0.1274 -0.0222  0.4823
   87SOPE   H7R 8163   1.832   6.860   3.308 -0.6193  0.7072 -0.0056
   87SOPE   H7S 8164   1.679   6.810   3.261 -0.8627 -2.3096 -0.0508
   87SOPE   C28 8165   1.810   6.646   3.304 -0.0617 -0.3681  0.5267
   87SOPE   H8R 8166   1.761   6.646   3.404 -3.3555 -2.4373 -0.9012
   87SOPE   H8S 8167   1.748   6.571   3.250  0.6073  0.1964 -1.0778
   87SOPE   C29 8168   1.959   6.618   3.297  0.6457 -0.0046  0.4097
   87SOPE   H91 8169   1.989   6.583   3.197  1.0822  1.3678  0.0304
   87SOPE  C210 8170   2.054   6.648   3.381  0.2524 -0.2308  0.1312
   87SOPE  H101 8171   2.155   6.648   3.338  0.5000 -1.6896  0.6479
   87SOPE  C211 8172   2.053   6.711   3.518  0.1030 -0.7888 -0.4062
   87SOPE  H11R 8173   1.951   6.706   3.561  0.9831  2.2098  2.4083
   87SOPE  H11S 8174   2.076   6.819   3.513  0.2103 -0.5527  2.9398
   87SOPE  C212 8175   2.135   6.643   3.632  0.0867  0.3621 -0.0007
   87SOPE  H12R 8176   2.243   6.631   3.607 -0.9172 -2.0014 -4.0795
   87SOPE  H12S 8177   2.107   6.536   3.647  1.4477 -0.1277 -0.7133
   87SOPE  C213 8178   2.123   6.713   3.768  0.0874 -0.0256 -0.6173
   87SOPE  H13R 8179   2.021   6.757   3.768  0.2051  0.2739  0.4612
   87SOPE  H13S 8180   2.200   6.793   3.776  0.7646 -0.8670  2.5018
   87SOPE  C214 8181   2.124   6.623   3.890  0.6566 -0.3495  0.4486
   87SOPE  H14R 8182   2.221   6.570   3.892  2.3964  2.4169 -1.8700
   87SOPE  H14S 8183   2.040   6.552   3.872  1.5202 -1.4369  0.6112
   87SOPE  C215 8184   2.098   6.702   4.018 -0.0041 -0.2152 -0.0364
   87SOPE  H15R 8185   1.993   6.737   4.025  0.1578 -0.0660  2.8140
   87SOPE  H15S 8186   2.164   6.791   4.017 -0.2968  0.0149 -1.6187
   87SOPE  C216 8187   2.126   6.588   4.126 -0.5272 -0.1151  0.5594
   87SOPE  H16R 8188   2.226   6.541   4.120 -1.5509 -2.2571 -2.0007
   87SOPE  H16S 8189   2.040   6.518   4.121 -2.4942  2.1990 -0.5110
   87SOPE  C217 8190   2.104   6.633   4.273  0.0423  0.7279  0.2000
   87SOPE  H17R 8191   2.095   6.543   4.338 -3.4885  1.2597  0.6607
   87SOPE  H17S 8192   2.004   6.683   4.280 -0.8355 -0.1841 -3.5642
   87SOPE  C218 8193   2.215   6.730   4.322  1.0210  0.0991 -0.1728
   87SOPE  H18R 8194   2.251   6.803   4.246  1.6901  1.4759  1.3976
   87SOPE  H18S 8195   2.303   6.668   4.349  1.6905 -0.5182 -3.3603
   87SOPE  H18T 8196   2.190   6.795   4.409  3.5493  0.7776  0.1496
   87SOPE   C33 8197   1.754   6.208   2.868  0.1851  0.1904 -0.5180
   87SOPE   H3X 8198   1.678   6.280   2.833  0.6358  0.5367 -0.7882
   87SOPE   H3Y 8199   1.845   6.266   2.895 -0.8366  0.6465  2.3697
   87SOPE   C34 8200   1.702   6.140   2.994 -0.2576 -0.0241  0.2236
   87SOPE   H4X 8201   1.751   6.042   3.015 -1.4403 -0.3821  1.4247
   87SOPE   H4Y 8202   1.596   6.123   2.967 -0.3407 -0.0385  0.5635
   87SOPE   C35 8203   1.712   6.228   3.125 -0.0757 -0.7173 -0.2595
   87SOPE   H5X 8204   1.692   6.336   3.112  0.3980 -0.7736 -1.6285
   87SOPE   H5Y 8205   1.817   6.228   3.160 -0.5689  0.7028  1.3195
   87SOPE   C36 8206   1.614   6.176   3.235 -0.9356  0.3748  0.6885
   87SOPE   H6X 8207   1.594   6.067   3.240 -1.8568  0.5582  1.3937
   87SOPE   H6Y 8208   1.516   6.228   3.229 -1.6812 -1.0013  0.7754
   87SOPE   C37 8209   1.665   6.209   3.377  0.0896  0.1412 -0.0451
   87SOPE   H7X 8210   1.579   6.191   3.444 -0.9894  1.2905 -1.0676
   87SOPE   H7Y 8211   1.684   6.319   3.384 -0.7204  0.2019  1.6978
   87SOPE   C38 8212   1.790   6.144   3.440  0.5124  0.1824  0.5304
   87SOPE   H8X 8213   1.880   6.181   3.388 -0.3707  0.7709 -0.6296
   87SOPE   H8Y 8214   1.795   6.038   3.406  0.4047  0.3187  0.0841
   87SOPE   C39 8215   1.812   6.177   3.589 -0.7171  0.6473  0.1058
   87SOPE   H9X 8216   1.887   6.107   3.632  2.5104  1.6769 -3.2724
   87SOPE   H9Y 8217   1.718   6.173   3.648 -0.1738  0.5914  0.9885
   87SOPE  C310 8218   1.871   6.322   3.602 -0.8351  0.2231 -0.2713
   87SOPE  H10X 8219   1.813   6.395   3.543 -1.2380  0.8808  0.9005
   87SOPE  H10Y 8220   1.973   6.321   3.558 -0.3233 -5.8454  0.1921
   87SOPE  C311 8221   1.863   6.368   3.752 -0.5425 -0.1838 -0.2436
   87SOPE  H11X 8222   1.754   6.374   3.774 -0.0686  1.0760  2.1318
   87SOPE  H11Y 8223   1.897   6.473   3.764 -0.9549 -0.1294  0.5279
   87SOPE  C312 8224   1.918   6.276   3.848  0.2535  0.3958 -0.2488
   87SOPE  H12X 8225   2.027   6.274   3.824  0.1256 -1.1414 -0.8442
   87SOPE  H12Y 8226   1.881   6.173   3.831 -0.8875  0.5041  1.3239
   87SOPE  C313 8227   1.879   6.302   3.993 -0.8374  0.6511  0.1799
   87SOPE  H13X 8228   1.774   6.265   4.000 -0.6131 -0.1581 -0.5910
   87SOPE  H13Y 8229   1.869   6.412   4.003 -1.4357  0.8346 -1.9304
   87SOPE  C314 8230   1.963   6.248   4.119 -0.0532 -0.0421 -0.0544
   87SOPE  H14X 8231   2.062   6.295   4.136 -0.8075  1.7744 -0.3960
   87SOPE  H14Y 8232   1.981   6.140   4.104  2.7005  0.4928 -1.2239
   87SOPE  C315 8233   1.879   6.263   4.250  0.6026 -0.2529 -0.2435
   87SOPE  H15X 8234   1.771   6.238   4.240  0.3166  0.0768  1.6793
   87SOPE  H15Y 8235   1.892   6.369   4.280  1.4299 -0.3920 -0.0985
   87SOPE  C316 8236   1.922   6.161   4.358 -0.2583  0.5381 -0.0835
   87SOPE  H16X 8237   2.032   6.169   4.371  0.0149 -2.4382  0.1160
   87SOPE  H16Y 8238   1.900   6.058   4.323  1.4962  0.1814 -0.2042
   87SOPE  C317 8239   1.849   6.181   4.501  0.3095  0.6384  0.1817
   87SOPE  H17X 8240   1.873   6.094   4.566  0.3147  0.4544 -0.0658
   87SOPE  H17Y 8241   1.739   6.179   4.487  0.2788 -0.0870  0.4908
   87SOPE  C318 8242   1.898   6.310   4.572 -0.5122 -0.1725  0.2589
   87SOPE  H18X 8243   1.898   6.396   4.502 -1.2535 -0.5372 -0.2065
   87SOPE  H18Y 8244   2.002   6.298   4.609  0.0300  1.7839 -0.5442
   87SOPE  H18Z 8245   1.829   6.329   4.657  1.5515  0.1689  1.9437
   88SOPE     N 8246   4.083   2.225   2.243 -0.7445 -0.9802 -0.5694
   88SOPE   HN1 8247   4.079   2.225   2.139 -1.2839  1.2985 -0.6008
   88SOPE   HN2 8248   4.145   2.306   2.261 -0.8117 -0.7217 -1.4645
   88SOPE   HN3 8249   4.118   2.134   2.280  0.3971  0.3791  1.9093
   88SOPE   C12 8250   3.949   2.263   2.303  0.8358  0.3668  0.4432
   88SOPE  H12A 8251   3.961   2.267   2.414 -1.0671 -0.4626  0.7256
   88SOPE  H12B 8252   3.889   2.176   2.270 -1.4029  2.1443 -0.4014
   88SOPE   C11 8253   3.899   2.399   2.241  0.5452 -0.2718  0.4265
   88SOPE  H11A 8254   3.974   2.474   2.274  1.3085 -1.0579  0.5146
   88SOPE  H11B 8255   3.809   2.426   2.299  0.6884 -2.4618  1.7905
   88SOPE     P 8256   3.742   2.361   2.027 -0.1256 -0.0235  0.3287
   88SOPE   O13 8257   3.719   2.216   2.027 -0.1986 -0.6948  0.2039
   88SOPE   O14 8258   3.737   2.423   1.898 -0.0174  0.0494  0.0359
   88SOPE   O12 8259   3.879   2.403   2.100 -0.5582  0.0788 -0.6079
   88SOPE   O11 8260   3.638   2.429   2.124 -0.3528  0.1025  0.0474
   88SOPE    C1 8261   3.503   2.389   2.142  0.4797 -0.3794 -0.2045
   88SOPE    HA 8262   3.471   2.319   2.062  2.9202 -2.0893  0.2244
   88SOPE    HB 8263   3.441   2.481   2.143  0.7233 -0.2121 -0.3971
   88SOPE    C2 8264   3.474   2.305   2.274 -0.0648 -0.7777 -0.6764
   88SOPE    HS 8265   3.366   2.282   2.265 -0.8808  2.4840 -0.4145
   88SOPE   O21 8266   3.514   2.400   2.382 -0.0262 -0.1308  0.3091
   88SOPE   C21 8267   3.463   2.373   2.501  0.0169  0.1942 -0.0576
   88SOPE   O22 8268   3.365   2.308   2.527  0.3134 -0.5773 -0.0410
   88SOPE   C22 8269   3.555   2.442   2.604  0.6401  0.0389  1.4647
   88SOPE   H2R 8270   3.539   2.548   2.575 -0.8761 -0.6959 -0.6447
   88SOPE   H2S 8271   3.658   2.405   2.583  0.8293  1.0642  0.5041
   88SOPE    C3 8272   3.552   2.168   2.292  0.7643  1.7810  0.5897
   88SOPE    HX 8273   3.660   2.193   2.282  0.4384  2.5674 -1.3184
   88SOPE    HY 8274   3.535   2.094   2.211 -0.7272  3.7440 -0.9970
   88SOPE   O31 8275   3.530   2.111   2.418  0.4462 -0.0650  0.1218
   88SOPE   C31 8276   3.410   2.036   2.426 -0.1243 -0.2283 -0.4523
   88SOPE   O32 8277   3.335   2.022   2.337  0.6889 -0.9425  0.4933
   88SOPE   C32 8278   3.392   1.972   2.566 -0.6347 -0.2041 -0.1913
   88SOPE   H2X 8279   3.403   1.862   2.564 -1.1069 -0.2609  0.2956
   88SOPE   H2Y 8280   3.284   1.991   2.579 -0.7392 -0.6186 -0.4240
   88SOPE   C23 8281   3.511   2.416   2.750 -0.5560  0.9720  0.0387
   88SOPE   H3R 8282   3.508   2.307   2.769  1.0044  0.5613 -1.7789
   88SOPE   H3S 8283   3.402   2.440   2.757 -0.6284  0.2277  1.9970
   88SOPE   C24 8284   3.569   2.510   2.856  0.4823 -0.5858  0.4535
   88SOPE   H4R 8285   3.675   2.541   2.843  0.4398 -0.3217  0.7265
   88SOPE   H4S 8286   3.506   2.601   2.867 -1.5037 -2.0497  2.1328
   88SOPE   C25 8287   3.567   2.441   2.995  0.6001  0.0302 -0.2327
   88SOPE   H5R 8288   3.532   2.514   3.071 -0.4548  0.4251 -1.0699
   88SOPE   H5S 8289   3.495   2.356   2.992 -2.1705  2.1761  0.4819
   88SOPE   C26 8290   3.704   2.391   3.049  0.1036 -0.2069  0.0973
   88SOPE   H6R 8291   3.743   2.322   2.971  0.4646 -1.4972  1.3794
   88SOPE   H6S 8292   3.773   2.478   3.044 -0.1289 -0.0880 -1.3359
   88SOPE   C27 8293   3.703   2.337   3.189 -0.3605  0.0341  0.4903
   88SOPE   H7R 8294   3.625   2.259   3.203  1.1903 -1.4615  1.2819
   88SOPE   H7S 8295   3.805   2.292   3.191 -0.8525 -1.2269 -0.7887
   88SOPE   C28 8296   3.683   2.442   3.298 -0.6892  0.1757  0.0873
   88SOPE   H8R 8297   3.750   2.526   3.270  0.0194 -0.6913 -0.9215
   88SOPE   H8S 8298   3.579   2.482   3.301 -1.1512 -0.8895 -0.9143
   88SOPE   C29 8299   3.712   2.373   3.426 -0.6985 -0.2155 -0.7685
   88SOPE   H91 8300   3.801   2.309   3.414  1.5669  2.5500  0.0629
   88SOPE  C210 8301   3.634   2.369   3.540 -0.9219 -0.4178  0.3051
   88SOPE  H101 8302   3.670   2.313   3.628 -1.5933  2.4762  2.5606
   88SOPE  C211 8303   3.504   2.438   3.561 -0.0267  0.3556  0.4355
   88SOPE  H11R 8304   3.417   2.379   3.524  1.2999  0.3519 -3.1497
   88SOPE  H11S 8305   3.488   2.525   3.493  0.7406 -2.1041 -3.2309
   88SOPE  C212 8306   3.500   2.481   3.708  0.1611 -0.0351 -0.2035
   88SOPE  H12R 8307   3.417   2.555   3.718  1.1732  1.3651 -1.5576
   88SOPE  H12S 8308   3.592   2.537   3.734 -0.2950  1.5564 -1.7678
   88SOPE  C213 8309   3.473   2.359   3.789  0.3679 -0.1870  0.0647
   88SOPE  H13R 8310   3.563   2.294   3.794 -0.1685 -0.9651 -0.1545
   88SOPE  H13S 8311   3.395   2.290   3.749  1.3945 -0.5893 -1.3604
   88SOPE  C214 8312   3.431   2.404   3.929  0.5643 -0.7499  0.3695
   88SOPE  H14R 8313   3.394   2.307   3.970 -2.4009  0.5121  0.9531
   88SOPE  H14S 8314   3.345   2.474   3.937  0.6080 -0.5165 -0.9564
   88SOPE  C215 8315   3.546   2.456   4.023  0.3155 -0.3298 -0.0623
   88SOPE  H15R 8316   3.575   2.560   3.999 -1.0189  0.2871  0.9181
   88SOPE  H15S 8317   3.641   2.400   4.007  1.0062  0.4700  1.0876
   88SOPE  C216 8318   3.512   2.467   4.170 -0.5589 -0.5360 -0.0190
   88SOPE  H16R 8319   3.472   2.370   4.206 -0.7408  0.0006  1.2785
   88SOPE  H16S 8320   3.448   2.555   4.192 -2.0017 -1.8089  1.0762
   88SOPE  C217 8321   3.649   2.504   4.247  0.3177  0.2219 -0.2422
   88SOPE  H17R 8322   3.627   2.600   4.299  0.2357 -0.7897  1.6792
   88SOPE  H17S 8323   3.730   2.537   4.178 -1.0943  1.8291 -1.2154
   88SOPE  C218 8324   3.704   2.398   4.345 -0.2510 -0.9215 -0.3406
   88SOPE  H18R 8325   3.620   2.348   4.397 -1.2000  1.0468  0.1061
   88SOPE  H18S 8326   3.762   2.444   4.427 -1.1691 -1.4345  0.6232
   88SOPE  H18T 8327   3.763   2.316   4.298 -0.1207 -2.7446  2.7664
   88SOPE   C33 8328   3.482   2.019   2.680 -0.9379 -0.6210 -0.2013
   88SOPE   H3X 8329   3.455   2.125   2.701  0.9159 -0.5343  2.0870
   88SOPE   H3Y 8330   3.589   2.023   2.650 -1.2578  1.3901 -1.2502
   88SOPE   C34 8331   3.472   1.928   2.799 -0.4723  0.4858 -0.0022
   88SOPE   H4X 8332   3.499   1.825   2.768  1.9640  1.5299 -1.7183
   88SOPE   H4Y 8333   3.366   1.931   2.833 -0.1270 -0.8762  1.2733
   88SOPE   C35 8334   3.551   1.981   2.920 -0.3914 -0.2519  0.6448
   88SOPE   H5X 8335   3.506   2.080   2.943  1.7060  1.1107 -0.7929
   88SOPE   H5Y 8336   3.661   1.989   2.910 -0.3365 -2.4799 -1.7073
   88SOPE   C36 8337   3.527   1.891   3.046  0.7751  0.1993 -0.2697
   88SOPE   H6X 8338   3.546   1.782   3.032 -1.6211 -0.2951  0.0246
   88SOPE   H6Y 8339   3.419   1.900   3.070  1.6064  1.1498  4.0127
   88SOPE   C37 8340   3.599   1.953   3.172  0.2602  0.3235  0.5872
   88SOPE   H7X 8341   3.592   2.063   3.162 -1.7936  0.1629 -0.4854
   88SOPE   H7Y 8342   3.708   1.932   3.175  0.2782  0.4569  0.9015
   88SOPE   C38 8343   3.531   1.914   3.300  0.4845  0.4116  0.3719
   88SOPE   H8X 8344   3.500   1.807   3.297 -1.7676  1.0021  0.9857
   88SOPE   H8Y 8345   3.433   1.966   3.307  0.4227  0.7008 -1.9114
   88SOPE   C39 8346   3.621   1.937   3.419  0.6273  0.2737 -0.2660
   88SOPE   H9X 8347   3.659   2.041   3.418 -0.7641  0.8374  1.0339
   88SOPE   H9Y 8348   3.708   1.868   3.415  0.8542  0.2830  2.5182
   88SOPE  C310 8349   3.537   1.924   3.554 -0.3031  0.2057 -0.0943
   88SOPE  H10X 8350   3.508   1.818   3.570  0.8953  0.2277  2.8431
   88SOPE  H10Y 8351   3.447   1.990   3.551  0.6968  1.5731 -1.4082
   88SOPE  C311 8352   3.616   1.971   3.681  0.0288 -0.1221  0.5539
   88SOPE  H11X 8353   3.669   2.068   3.679  1.2777 -0.7775 -1.2568
   88SOPE  H11Y 8354   3.700   1.901   3.699  1.0227  0.9771  0.2450
   88SOPE  C312 8355   3.529   1.952   3.805  0.1906 -0.0761 -0.0980
   88SOPE  H12X 8356   3.472   1.857   3.808  0.4854 -0.2425  2.7236
   88SOPE  H12Y 8357   3.447   2.027   3.805  0.1833 -0.0848 -0.0008
   88SOPE  C313 8358   3.611   1.961   3.931  0.0434  0.4030 -0.1266
   88SOPE  H13X 8359   3.656   2.063   3.924 -2.4131  1.5032 -1.1865
   88SOPE  H13Y 8360   3.689   1.883   3.930 -0.1741  0.1864 -0.7155
   88SOPE  C314 8361   3.533   1.962   4.058 -0.0727  0.0690 -0.8128
   88SOPE  H14X 8362   3.485   1.862   4.067  1.8503 -0.7938  0.7663
   88SOPE  H14Y 8363   3.454   2.038   4.044 -1.1952 -0.5153  1.7990
   88SOPE  C315 8364   3.611   1.983   4.190  0.4741  0.1331 -0.0856
   88SOPE  H15X 8365   3.553   1.937   4.273  0.3778 -1.6619 -1.0984
   88SOPE  H15Y 8366   3.614   2.093   4.207 -2.9763  0.2913  0.2719
   88SOPE  C316 8367   3.748   1.909   4.204 -0.6095  1.1521  0.4655
   88SOPE  H16X 8368   3.823   1.940   4.128  1.1069 -1.1584  1.1100
   88SOPE  H16Y 8369   3.729   1.799   4.208  1.7358  0.6770 -0.0703
   88SOPE  C317 8370   3.814   1.929   4.343 -0.1388 -0.3459 -0.2572
   88SOPE  H17X 8371   3.896   1.855   4.353 -0.2682 -0.6531 -1.3345
   88SOPE  H17Y 8372   3.737   1.922   4.422  0.8816  0.3517  0.8337
   88SOPE  C318 8373   3.885   2.066   4.353  0.1219 -0.0673 -0.6719
   88SOPE  H18X 8374   3.926   2.085   4.252 -0.0815 -0.6376 -0.8679
   88SOPE  H18Y 8375   3.967   2.066   4.428 -0.9253 -0.6691  0.5172
   88SOPE  H18Z 8376   3.810   2.145   4.374  0.1680 -0.0296 -0.6491
   89SAPC     N 8377   4.137   0.863   6.582  0.1232 -0.0101 -0.1570
   89SAPC   C12 8378   4.225   0.859   6.459 -0.2558  0.4325 -0.1062
   89SAPC  H12A 8379   4.203   0.776   6.393  2.7422  0.6468 -1.5437
   89SAPC  H12B 8380   4.323   0.832   6.494 -0.9013  0.1217  1.5415
   89SAPC   C13 8381   4.142   0.718   6.646 -0.1208 -0.7148 -1.2645
   89SAPC  H13A 8382   4.069   0.655   6.596 -2.1449  0.9559 -0.5831
   89SAPC  H13B 8383   4.244   0.685   6.646  0.7918  1.8391 -0.1844
   89SAPC  H13C 8384   4.105   0.722   6.747  1.1198  0.0973 -0.8182
   89SAPC   C14 8385   4.193   0.963   6.678  0.1717  0.0909  0.2521
   89SAPC  H14A 8386   4.207   1.056   6.625  0.7074 -1.2886 -2.1655
   89SAPC  H14B 8387   4.121   0.996   6.752 -1.5885 -1.4637 -0.6796
   89SAPC  H14C 8388   4.281   0.922   6.727  0.1791 -3.1208 -2.1401
   89SAPC   C15 8389   3.996   0.900   6.544 -0.3532 -0.2756  0.3282
   89SAPC  H15A 8390   4.004   0.991   6.487  0.5004 -0.6357 -0.1340
   89SAPC  H15B 8391   3.945   0.821   6.490  0.2076 -1.1950  1.1073
   89SAPC  H15C 8392   3.935   0.923   6.631  0.8414 -1.6885  1.6085
   89SAPC   C11 8393   4.223   0.985   6.362  0.1920 -1.2482 -0.3003
   89SAPC  H11A 8394   4.124   0.976   6.313  0.2621  0.3003 -0.7759
   89SAPC  H11B 8395   4.303   0.967   6.287  1.0891  0.9235  0.0341
   89SAPC     P 8396   4.194   1.238   6.353 -0.3905  0.3176  0.1069
   89SAPC   O13 8397   4.046   1.240   6.368 -0.4541 -0.0084  0.4184
   89SAPC   O14 8398   4.265   1.358   6.403 -0.4047  0.3341  0.2948
   89SAPC   O12 8399   4.249   1.109   6.434  0.3510  0.1218  0.1272
   89SAPC   O11 8400   4.232   1.217   6.204  0.8797  0.1891  0.2371
   89SAPC    C1 8401   4.370   1.247   6.165  0.5739  0.2144  0.4888
   89SAPC    HA 8402   4.417   1.305   6.248 -0.6215 -1.0389  2.1124
   89SAPC    HB 8403   4.422   1.155   6.129 -0.1727  0.4786 -1.3686
   89SAPC    C2 8404   4.363   1.323   6.030 -0.5882 -0.7643  0.1455
   89SAPC    HS 8405   4.471   1.341   6.009  0.5019 -5.6700  0.2904
   89SAPC   O21 8406   4.284   1.441   6.046  0.5634 -0.1294  0.2255
   89SAPC   C21 8407   4.343   1.561   6.092 -0.7299 -0.0341  0.0737
   89SAPC   O22 8408   4.462   1.573   6.122 -0.1230  0.6345  0.0138
   89SAPC   C22 8409   4.245   1.670   6.090  0.2704 -0.3917  0.2740
   89SAPC   H2R 8410   4.143   1.629   6.070  0.1374 -0.2242  0.5894
   89SAPC   H2S 8411   4.237   1.727   6.185 -0.9322 -0.4378  0.2210
   89SAPC    C3 8412   4.302   1.223   5.914 -0.5345 -0.0440 -0.5465
   89SAPC    HX 8413   4.209   1.178   5.955  0.6872 -1.5834  0.6667
   89SAPC    HY 8414   4.370   1.136   5.904 -2.0612 -1.8615  3.1507
   89SAPC   O31 8415   4.276   1.290   5.794 -0.7463 -0.3068 -0.1255
   89SAPC   C31 8416   4.382   1.340   5.726  0.4533  0.5150  0.1009
   89SAPC   O32 8417   4.498   1.316   5.737  0.1696  0.2252 -0.2510
   89SAPC   C32 8418   4.327   1.458   5.649  0.0126 -0.2611  0.2612
   89SAPC   H2X 8419   4.291   1.534   5.721  0.5225 -0.1822  0.4413
   89SAPC   H2Y 8420   4.246   1.412   5.589 -0.1584 -2.0788  1.7787
   89SAPC   C23 8421   4.285   1.765   5.972  0.3996 -0.0383 -0.2636
   89SAPC   H3R 8422   4.305   1.711   5.877  0.3368 -0.5729  0.0231
   89SAPC   H3S 8423   4.383   1.815   5.987  0.7768  0.0733 -2.7187
   89SAPC   C24 8424   4.179   1.861   5.936  1.1400  0.1912 -0.3653
   89SAPC   H4R 8425   4.152   1.918   6.027  0.6248  1.3791 -1.2283
   89SAPC   H4S 8426   4.085   1.803   5.921 -0.1525  1.9836  0.4143
   89SAPC   C25 8427   4.202   1.956   5.821 -0.1368 -0.6030  0.5002
   89SAPC   H5R 8428   4.257   2.044   5.857  1.3762 -0.7993 -1.1689
   89SAPC   C26 8429   4.172   1.955   5.689  0.7351 -0.2781  1.2039
   89SAPC   H6R 8430   4.215   2.038   5.630  0.5215 -1.7717 -1.1856
   89SAPC   C27 8431   4.102   1.851   5.606  0.1466  0.7598  0.0465
   89SAPC   H7R 8432   4.009   1.897   5.567  0.6398  1.2201 -0.6361
   89SAPC   H7S 8433   4.072   1.765   5.668  1.3324  0.9616  0.9277
   89SAPC   C28 8434   4.191   1.808   5.495  0.4694 -0.2780  0.2041
   89SAPC   H8R 8435   4.297   1.835   5.492  0.8000 -1.5086  0.1047
   89SAPC   C29 8436   4.149   1.751   5.377 -0.3530  0.1872 -0.5667
   89SAPC   H9R 8437   4.216   1.703   5.304  0.1378 -0.5577  0.3589
   89SAPC  C210 8438   4.000   1.711   5.358 -0.3971 -0.2271  0.5075
   89SAPC  H10R 8439   3.960   1.756   5.265 -1.5478 -2.6854 -0.2909
   89SAPC  H10S 8440   3.934   1.741   5.442 -1.7558  0.1665 -0.6551
   89SAPC  C211 8441   3.992   1.563   5.330 -0.1876  0.0930 -0.4527
   89SAPC  H11R 8442   3.996   1.500   5.420 -0.2670 -1.8650 -1.7677
   89SAPC  C212 8443   3.969   1.488   5.217  0.1297 -0.3473  0.0396
   89SAPC  H12R 8444   3.949   1.380   5.228 -0.8341 -0.1215  0.6587
   89SAPC  C213 8445   3.951   1.538   5.076  0.2199 -0.2084 -0.2418
   89SAPC  H13R 8446   4.052   1.546   5.031  1.2678  0.4524  2.0884
   89SAPC  H13S 8447   3.910   1.640   5.088 -0.6557 -0.4198 -1.2758
   89SAPC  C214 8448   3.856   1.457   4.992 -0.5090 -0.2427 -0.3070
   89SAPC  H14R 8449   3.768   1.412   5.040  0.4093  0.7833  2.5719
   89SAPC  C215 8450   3.871   1.420   4.863  0.4601 -0.0081 -0.2173
   89SAPC  H15R 8451   3.791   1.371   4.806  0.2956  1.8989 -1.7718
   89SAPC  C216 8452   3.999   1.447   4.782 -0.0295 -0.4199  0.1283
   89SAPC  H16R 8453   4.082   1.379   4.811 -1.0211 -1.2083  1.2134
   89SAPC  H16S 8454   4.042   1.545   4.808  1.0229 -0.3774 -1.5934
   89SAPC  C217 8455   3.965   1.468   4.635 -0.6760 -0.3265 -1.3297
   89SAPC  H17R 8456   3.867   1.522   4.632  0.7657  2.6037  0.0318
   89SAPC  H17S 8457   3.956   1.368   4.588  1.9862 -0.2578 -2.1472
   89SAPC  C218 8458   4.085   1.547   4.573  0.2241  0.1297  0.4320
   89SAPC  H18R 8459   4.175   1.485   4.593 -1.0157 -1.5937  0.9206
   89SAPC  H18S 8460   4.102   1.644   4.624  0.5464  0.8687 -1.0130
   89SAPC  C219 8461   4.064   1.576   4.421  0.1281 -0.0032 -0.2533
   89SAPC  H19R 8462   4.168   1.586   4.384  0.1102  1.0841 -0.0417
   89SAPC  H19S 8463   4.035   1.683   4.412 -0.9578 -0.0604  1.9199
   89SAPC  C220 8464   3.988   1.486   4.339  0.8747 -0.0724  0.2617
   89SAPC  H20R 8465   3.970   1.530   4.238  2.6092  3.1416  1.1946
   89SAPC  H20S 8466   3.890   1.463   4.385  0.5658  0.6365 -0.0332
   89SAPC  H20T 8467   4.042   1.389   4.325  0.4161 -0.7273  2.6427
   89SAPC   C33 8468   4.436   1.520   5.558  0.4320 -0.1956  1.0605
   89SAPC   H3X 8469   4.535   1.529   5.608  1.2364  1.1421 -0.6573
   89SAPC   H3Y 8470   4.412   1.624   5.529  0.8395  0.1083  1.7880
   89SAPC   C34 8471   4.459   1.439   5.428  0.3283 -0.3056 -0.2219
   89SAPC   H4X 8472   4.411   1.341   5.446  0.7428 -0.3804  0.4872
   89SAPC   H4Y 8473   4.570   1.431   5.427  0.3179 -0.5446  0.3837
   89SAPC   C35 8474   4.416   1.512   5.294  0.3137 -0.2748 -0.1638
   89SAPC   H5X 8475   4.452   1.617   5.291 -0.2284  0.1578  3.4285
   89SAPC   H5Y 8476   4.306   1.518   5.279  0.3946  3.6804 -0.0633
   89SAPC   C36 8477   4.474   1.446   5.171 -0.1622  0.1670  0.0431
   89SAPC   H6X 8478   4.433   1.343   5.174  1.7721 -0.6635 -0.3619
   89SAPC   H6Y 8479   4.586   1.445   5.171 -0.1043  2.4158  0.7274
   89SAPC   C37 8480   4.436   1.524   5.043 -0.0669 -0.7701 -0.3740
   89SAPC   H7X 8481   4.486   1.623   5.054  1.3080 -1.5430  0.7468
   89SAPC   H7Y 8482   4.333   1.564   5.039  0.8339  1.7976 -0.2435
   89SAPC   C38 8483   4.491   1.471   4.910 -0.8453  0.1026  0.8555
   89SAPC   H8X 8484   4.418   1.404   4.860 -2.5327  0.5401  2.5986
   89SAPC   H8Y 8485   4.572   1.401   4.938 -0.5334 -0.2805 -0.8846
   89SAPC   C39 8486   4.542   1.587   4.824  0.3702  0.0721  0.0374
   89SAPC   H9X 8487   4.626   1.645   4.867  2.0232 -1.4822 -0.9577
   89SAPC   H9Y 8488   4.448   1.643   4.801  0.6905  0.0064 -1.5417
   89SAPC  C310 8489   4.587   1.517   4.690 -0.0240 -0.2971  0.5189
   89SAPC  H10X 8490   4.504   1.459   4.645 -1.0957  0.1374  1.8546
   89SAPC  H10Y 8491   4.668   1.443   4.711 -0.2045 -0.3546  1.0311
   89SAPC  C311 8492   4.636   1.620   4.590  0.1178  0.1972  0.4029
   89SAPC  H11X 8493   4.729   1.669   4.626 -0.8632  0.3070  2.9621
   89SAPC  H11Y 8494   4.560   1.700   4.580 -1.5042 -1.4724 -1.3562
   89SAPC  C312 8495   4.657   1.563   4.448  0.1400  0.0274  1.2370
   89SAPC  H12X 8496   4.554   1.547   4.411  0.4094  0.1270  0.4207
   89SAPC  H12Y 8497   4.711   1.467   4.466  0.7218  0.3949  1.4742
   89SAPC  C313 8498   4.757   1.646   4.362 -0.0612  0.1978 -0.3253
   89SAPC  H13X 8499   4.861   1.634   4.402  0.0465  0.0130 -0.6590
   89SAPC  H13Y 8500   4.724   1.751   4.374 -2.4636 -0.7198  2.3728
   89SAPC  C314 8501   4.768   1.603   4.209  0.6683  0.3462 -1.0818
   89SAPC  H14X 8502   4.673   1.640   4.166 -0.5756 -1.2816  0.1380
   89SAPC  H14Y 8503   4.790   1.494   4.205  0.4392  0.2415  0.2884
   89SAPC  C315 8504   4.866   1.699   4.146 -0.3389  0.2208 -0.0099
   89SAPC  H15X 8505   4.968   1.690   4.190  1.3776  3.1570 -2.9188
   89SAPC  H15Y 8506   4.834   1.803   4.164  0.7303  0.2632  1.9194
   89SAPC  C316 8507   4.896   1.684   3.994  0.0925  0.1557 -0.3438
   89SAPC  H16X 8508   4.921   1.581   3.960  1.8186  1.0610 -2.0453
   89SAPC  H16Y 8509   4.971   1.750   3.945 -0.6003  0.2535 -1.3051
   89SAPC  C317 8510   4.761   1.709   3.920 -0.5219 -0.1390 -0.1314
   89SAPC  H17X 8511   4.726   1.810   3.951 -0.9749 -0.9175  2.0189
   89SAPC  H17Y 8512   4.678   1.641   3.947 -1.1353  0.7194  0.1825
   89SAPC  C318 8513   4.774   1.693   3.769  0.2151  0.4568 -0.3322
   89SAPC  H18X 8514   4.860   1.751   3.731  0.4888 -0.3038 -0.9073
   89SAPC  H18Y 8515   4.684   1.726   3.714  0.1269 -0.3654 -0.7005
   89SAPC  H18Z 8516   4.807   1.588   3.750  0.9392 -0.1048  3.2953
   90SAPC     N 8517   1.978   2.836   6.751  0.5459 -0.6958 -0.2174
   90SAPC   C12 8518   2.021   2.942   6.642  0.5016  0.1272 -0.4563
   90SAPC  H12A 8519   2.114   2.983   6.676  1.0002 -0.8142 -0.6356
   90SAPC  H12B 8520   1.945   3.019   6.647  0.3112 -0.1158  0.6604
   90SAPC   C13 8521   1.959   2.912   6.878 -0.1545  0.5656 -0.2170
   90SAPC  H13A 8522   2.049   2.957   6.917 -0.1329  0.3654 -0.0358
   90SAPC  H13B 8523   1.889   2.994   6.881 -0.2287  0.5357  3.4902
   90SAPC  H13C 8524   1.936   2.843   6.958  1.8132 -1.2602 -1.1250
   90SAPC   C14 8525   1.839   2.785   6.713 -0.2340 -0.6763 -0.2358
   90SAPC  H14A 8526   1.814   2.721   6.796 -1.6334 -0.0255 -0.1269
   90SAPC  H14B 8527   1.767   2.865   6.717 -1.0153 -1.3857  3.0295
   90SAPC  H14C 8528   1.830   2.731   6.620  0.9871  1.0503 -1.4173
   90SAPC   C15 8529   2.090   2.741   6.773 -0.3517 -0.0170 -0.5956
   90SAPC  H15A 8530   2.170   2.801   6.813 -1.5279  2.2751 -1.5408
   90SAPC  H15B 8531   2.057   2.660   6.837 -0.4136 -0.1417 -0.7849
   90SAPC  H15C 8532   2.115   2.705   6.674 -2.2473 -0.9926 -0.7609
   90SAPC   C11 8533   2.037   2.887   6.502 -0.0586 -0.2844  0.4995
   90SAPC  H11A 8534   2.034   2.968   6.425 -1.8801 -0.5304  0.2799
   90SAPC  H11B 8535   1.949   2.822   6.489  1.3349 -1.8652 -1.9061
   90SAPC     P 8536   2.254   2.823   6.369  0.1769 -0.3903  0.0869
   90SAPC   O13 8537   2.298   2.966   6.369  0.2833 -0.2264  0.2000
   90SAPC   O14 8538   2.362   2.718   6.389 -0.5150 -0.7173 -0.4954
   90SAPC   O12 8539   2.150   2.795   6.485  0.4097 -0.2488  0.3231
   90SAPC   O11 8540   2.174   2.785   6.242 -0.3889 -0.1667  0.3801
   90SAPC    C1 8541   2.085   2.674   6.236  0.9460 -0.8598  1.2052
   90SAPC    HA 8542   2.054   2.634   6.335 -1.8798 -0.1163  0.7050
   90SAPC    HB 8543   2.003   2.694   6.165  1.7069 -1.2385  0.1994
   90SAPC    C2 8544   2.156   2.557   6.168 -0.4508  0.6144  0.0560
   90SAPC    HS 8545   2.225   2.513   6.243  2.3907  0.8117 -2.2218
   90SAPC   O21 8546   2.239   2.605   6.062 -0.5718  0.2552 -0.4123
   90SAPC   C21 8547   2.337   2.521   6.027 -0.1432  1.3158 -0.1759
   90SAPC   O22 8548   2.364   2.420   6.091  0.5023  0.9043  0.3523
   90SAPC   C22 8549   2.404   2.599   5.906 -0.8255  0.1545 -0.2130
   90SAPC   H2R 8550   2.375   2.706   5.904 -1.2300  0.0446 -0.3970
   90SAPC   H2S 8551   2.515   2.587   5.909 -0.6392  1.7062  2.2855
   90SAPC    C3 8552   2.062   2.442   6.119  0.3749 -0.3673  0.2144
   90SAPC    HX 8553   2.029   2.394   6.213  0.5564  1.1987  1.1191
   90SAPC    HY 8554   2.116   2.361   6.065  0.9507 -0.6120  1.1404
   90SAPC   O31 8555   1.949   2.495   6.045 -0.0086 -0.4075 -0.1853
   90SAPC   C31 8556   1.966   2.507   5.916  0.3468 -0.4136  0.0716
   90SAPC   O32 8557   2.055   2.459   5.847 -0.5494 -0.0976  0.2052
   90SAPC   C32 8558   1.866   2.606   5.861 -0.6191  0.1024 -0.3913
   90SAPC   H2X 8559   1.847   2.689   5.932 -0.1490 -1.1747  1.2733
   90SAPC   H2Y 8560   1.767   2.554   5.861 -0.1046 -0.9255 -1.2904
   90SAPC   C23 8561   2.371   2.539   5.762 -0.1732 -1.0990  0.0428
   90SAPC   H3R 8562   2.264   2.516   5.740 -0.6326 -0.8685  1.9115
   90SAPC   H3S 8563   2.435   2.449   5.756  2.5083  0.5794  1.4175
   90SAPC   C24 8564   2.407   2.646   5.656 -0.3778  0.6779 -0.0803
   90SAPC   H4R 8565   2.483   2.707   5.709 -1.5636  0.0037  2.5986
   90SAPC   H4S 8566   2.320   2.715   5.654 -0.4131  0.7064  1.3651
   90SAPC   C25 8567   2.462   2.580   5.531 -0.8585 -0.0334 -0.7227
   90SAPC   H5R 8568   2.569   2.557   5.534 -0.0067  3.3727  0.2250
   90SAPC   C26 8569   2.383   2.548   5.429  0.1367 -0.3755 -0.5268
   90SAPC   H6R 8570   2.439   2.501   5.346  0.7598 -0.1071 -0.2666
   90SAPC   C27 8571   2.244   2.574   5.415 -0.2773 -0.6779  0.4538
   90SAPC   H7R 8572   2.189   2.548   5.508 -2.4377 -2.9839 -1.3404
   90SAPC   H7S 8573   2.196   2.504   5.343 -1.3304 -0.1241  0.5886
   90SAPC   C28 8574   2.209   2.721   5.389 -0.0743 -0.2375 -0.2214
   90SAPC   H8R 8575   2.252   2.788   5.464  1.4062 -2.4334  1.0338
   90SAPC   C29 8576   2.144   2.769   5.277  0.3838  0.4580 -0.2365
   90SAPC   H9R 8577   2.124   2.877   5.271 -1.9634  0.0852 -0.3210
   90SAPC  C210 8578   2.099   2.690   5.153 -0.4062 -0.0196 -0.0920
   90SAPC  H10R 8579   2.005   2.738   5.121  1.0915  3.0345 -0.2638
   90SAPC  H10S 8580   2.087   2.581   5.171  0.7386 -0.4892 -1.8604
   90SAPC  C211 8581   2.208   2.707   5.051 -0.5198  0.4673  0.1476
   90SAPC  H11R 8582   2.312   2.728   5.081 -0.1870  0.6043 -1.0601
   90SAPC  C212 8583   2.195   2.709   4.916  0.3109 -0.2134  0.8485
   90SAPC  H12R 8584   2.276   2.736   4.847 -1.3524 -0.8273 -1.4218
   90SAPC  C213 8585   2.065   2.674   4.842 -0.5363  0.0295  0.1260
   90SAPC  H13R 8586   2.011   2.593   4.895  2.2451 -0.8286  1.9051
   90SAPC  H13S 8587   2.100   2.646   4.740  1.5714  2.2107  0.1477
   90SAPC  C214 8588   1.979   2.796   4.830 -0.3498  0.4259 -0.5635
   90SAPC  H14R 8589   1.971   2.850   4.925 -1.3854 -3.0029  1.4852
   90SAPC  C215 8590   1.915   2.841   4.723  0.0164 -0.1314  0.3296
   90SAPC  H15R 8591   1.852   2.930   4.733 -0.1644 -0.1824 -0.3420
   90SAPC  C216 8592   1.921   2.772   4.588 -0.3452  0.0507 -0.8862
   90SAPC  H16R 8593   1.830   2.802   4.533 -1.9828  0.1137  1.7007
   90SAPC  H16S 8594   1.918   2.663   4.607 -0.5597  0.2933  0.5908
   90SAPC  C217 8595   2.043   2.800   4.504  0.9616 -0.3243 -0.4231
   90SAPC  H17R 8596   2.135   2.769   4.558 -0.3626 -2.0041  1.0030
   90SAPC  H17S 8597   2.045   2.909   4.484 -1.3131 -0.2709 -0.6941
   90SAPC  C218 8598   2.039   2.721   4.369 -0.3378  0.4620  0.2711
   90SAPC  H18R 8599   1.954   2.751   4.305 -0.5542 -0.8788 -0.1111
   90SAPC  H18S 8600   2.026   2.613   4.394 -1.3122  0.5930  0.3665
   90SAPC  C219 8601   2.166   2.733   4.291 -0.7588  0.3973 -0.2694
   90SAPC  H19R 8602   2.164   2.660   4.206 -2.0104  0.7286 -0.5359
   90SAPC  H19S 8603   2.251   2.706   4.358 -0.2735  0.4687 -0.8411
   90SAPC  C220 8604   2.183   2.870   4.232  0.3462  0.3410 -0.1991
   90SAPC  H20R 8605   2.178   2.951   4.308  2.3141 -0.1511  0.5308
   90SAPC  H20S 8606   2.107   2.894   4.155 -0.8084 -2.3646 -0.0176
   90SAPC  H20T 8607   2.274   2.884   4.170  0.2241  0.7035 -0.2989
   90SAPC   C33 8608   1.900   2.655   5.714  0.1768 -0.4220 -0.2015
   90SAPC   H3X 8609   1.878   2.570   5.646  0.4918 -0.7858  0.1466
   90SAPC   H3Y 8610   2.010   2.671   5.710  0.0755  1.1418  1.8185
   90SAPC   C34 8611   1.819   2.782   5.680  0.1078  0.0209 -0.1155
   90SAPC   H4X 8612   1.835   2.860   5.758 -0.8890 -0.8020  0.9416
   90SAPC   H4Y 8613   1.709   2.770   5.683 -0.1434  2.0793  1.3703
   90SAPC   C35 8614   1.865   2.836   5.537  0.2159 -0.2895  0.0542
   90SAPC   H5X 8615   1.883   2.747   5.473  2.6690  0.5061 -0.4766
   90SAPC   H5Y 8616   1.960   2.894   5.542 -1.0548  1.7949  1.4763
   90SAPC   C36 8617   1.768   2.938   5.470  0.3342  0.1860  0.0283
   90SAPC   H6X 8618   1.736   3.013   5.545 -1.4310 -2.0926  1.7312
   90SAPC   H6Y 8619   1.678   2.875   5.451  0.6051 -0.6765  1.4457
   90SAPC   C37 8620   1.831   2.997   5.348  1.0673 -0.1175  0.1376
   90SAPC   H7X 8621   1.886   2.914   5.297  1.3626 -1.2332  2.1651
   90SAPC   H7Y 8622   1.901   3.078   5.377 -1.2290  2.0219  0.0269
   90SAPC   C38 8623   1.731   3.060   5.249 -0.9229  0.4387 -0.3698
   90SAPC   H8X 8624   1.787   3.114   5.170 -0.2387 -0.3667 -0.4377
   90SAPC   H8Y 8625   1.660   3.136   5.289 -1.1904  1.7074 -3.0493
   90SAPC   C39 8626   1.651   2.962   5.165 -0.4301  0.0355 -0.2527
   90SAPC   H9X 8627   1.583   2.900   5.226 -1.5585 -0.7392 -2.1996
   90SAPC   H9Y 8628   1.726   2.888   5.129 -1.2937 -1.3742  0.7402
   90SAPC  C310 8629   1.580   3.018   5.037  0.4410 -0.3628  0.5158
   90SAPC  H10X 8630   1.634   3.107   4.998  1.3035 -1.6381 -1.3397
   90SAPC  H10Y 8631   1.485   3.056   5.079 -0.4887 -2.3384  0.3064
   90SAPC  C311 8632   1.563   2.911   4.925 -0.1524  0.0800  0.7505
   90SAPC  H11X 8633   1.487   2.835   4.953  1.5817 -2.3342 -0.6877
   90SAPC  H11Y 8634   1.649   2.847   4.898 -0.6888 -0.1426 -0.4934
   90SAPC  C312 8635   1.511   2.957   4.787  0.1176 -0.0859 -0.0712
   90SAPC  H12X 8636   1.594   3.007   4.733 -2.1873  2.4118 -1.5984
   90SAPC  H12Y 8637   1.442   3.044   4.796  2.2437  1.8815 -1.5138
   90SAPC  C313 8638   1.469   2.842   4.690  0.4481 -0.2056 -0.7353
   90SAPC  H13X 8639   1.386   2.788   4.740  0.1702  1.3349  0.5619
   90SAPC  H13Y 8640   1.561   2.781   4.691  0.3074 -0.4518 -1.9599
   90SAPC  C314 8641   1.423   2.889   4.552 -0.0333  0.7218  0.1159
   90SAPC  H14X 8642   1.483   2.980   4.530  1.5140 -0.1770  0.5125
   90SAPC  H14Y 8643   1.316   2.918   4.551  0.4358  2.6572 -1.3759
   90SAPC  C315 8644   1.425   2.781   4.448 -0.2155 -0.0432 -0.3472
   90SAPC  H15X 8645   1.373   2.823   4.359 -1.6116 -0.0643  0.4422
   90SAPC  H15Y 8646   1.364   2.692   4.477 -0.0061  0.6315  2.4148
   90SAPC  C316 8647   1.568   2.730   4.417  0.6482  0.1904 -0.1675
   90SAPC  H16X 8648   1.607   2.668   4.501 -0.1533  1.0931  0.9059
   90SAPC  H16Y 8649   1.640   2.815   4.410 -0.2884  0.9278 -1.1409
   90SAPC  C317 8650   1.563   2.658   4.285  0.3024  0.2477  0.0117
   90SAPC  H17X 8651   1.666   2.668   4.246 -0.2948  1.1334 -1.4114
   90SAPC  H17Y 8652   1.516   2.714   4.201 -1.5608 -1.8197 -0.4143
   90SAPC  C318 8653   1.499   2.522   4.305  0.1083 -0.3028  0.4218
   90SAPC  H18X 8654   1.521   2.460   4.216  1.6064  0.2079  0.4006
   90SAPC  H18Y 8655   1.388   2.522   4.307  0.0315 -2.7857 -0.1952
   90SAPC  H18Z 8656   1.547   2.463   4.386 -0.5516 -0.6366  0.5773
   91SAPC     N 8657   0.750   3.516   6.943  0.0051  0.2344 -0.7279
   91SAPC   C12 8658   0.836   3.558   6.825  0.3718 -0.0859  0.4345
   91SAPC  H12A 8659   0.921   3.493   6.810  1.7514  1.9268 -0.9038
   91SAPC  H12B 8660   0.880   3.651   6.857 -0.2241 -0.5201  2.7001
   91SAPC   C13 8661   0.685   3.378   6.917 -0.2975 -0.4268  0.0157
   91SAPC  H13A 8662   0.751   3.293   6.903  1.3543  0.8902 -0.4940
   91SAPC  H13B 8663   0.619   3.351   6.998 -1.9808 -0.0783 -1.1805
   91SAPC  H13C 8664   0.619   3.379   6.831 -2.1140  0.1921  1.3436
   91SAPC   C14 8665   0.834   3.515   7.067  0.5526 -0.5696 -0.0921
   91SAPC  H14A 8666   0.861   3.617   7.091 -1.8938  0.0709  0.2124
   91SAPC  H14B 8667   0.785   3.489   7.159  0.1596 -1.0562 -0.4396
   91SAPC  H14C 8668   0.916   3.445   7.073 -0.5033 -1.7503  1.2733
   91SAPC   C15 8669   0.644   3.612   6.958 -0.6459 -0.6983 -0.6548
   91SAPC  H15A 8670   0.692   3.705   6.983 -0.4761 -0.7729 -0.7075
   91SAPC  H15B 8671   0.593   3.621   6.864 -0.7775  0.5458 -0.4830
   91SAPC  H15C 8672   0.583   3.585   7.043 -1.0468  0.2622 -0.6248
   91SAPC   C11 8673   0.762   3.587   6.690 -0.0318 -0.3572 -0.2868
   91SAPC  H11A 8674   0.826   3.629   6.609 -2.7653 -0.9271 -2.9713
   91SAPC  H11B 8675   0.684   3.662   6.717  0.4336  0.2284 -0.5431
   91SAPC     P 8676   0.781   3.362   6.569 -0.3041 -0.2698  0.2904
   91SAPC   O13 8677   0.925   3.386   6.606  0.4447 -0.0127  0.1246
   91SAPC   O14 8678   0.717   3.229   6.590  0.3307 -0.2543  0.1326
   91SAPC   O12 8679   0.693   3.470   6.646 -0.1218  0.2962 -0.2475
   91SAPC   O11 8680   0.758   3.392   6.415 -0.1883  0.3153 -0.3704
   91SAPC    C1 8681   0.622   3.424   6.370  0.4733  0.3771  0.5537
   91SAPC    HA 8682   0.539   3.364   6.413  0.8755  0.6975  1.7960
   91SAPC    HB 8683   0.595   3.522   6.413 -1.2682  0.9605 -1.6826
   91SAPC    C2 8684   0.596   3.430   6.213  0.5566  0.5212  0.7858
   91SAPC    HS 8685   0.487   3.446   6.201  0.6909  0.1620 -1.4125
   91SAPC   O21 8686   0.643   3.305   6.144  0.1266  0.2099  0.3056
   91SAPC   C21 8687   0.566   3.202   6.153  0.7409  0.4615  0.4954
   91SAPC   O22 8688   0.455   3.191   6.206 -0.3480 -0.4009 -0.0781
   91SAPC   C22 8689   0.632   3.087   6.083  0.4548 -0.4256 -0.3693
   91SAPC   H2R 8690   0.615   3.105   5.975 -0.9770 -0.7293 -0.2166
   91SAPC   H2S 8691   0.740   3.098   6.107  0.0843 -0.0222  1.2580
   91SAPC    C3 8692   0.671   3.554   6.164  0.4730 -0.0687 -0.7830
   91SAPC    HX 8693   0.781   3.550   6.181  0.1697  1.5698  2.1671
   91SAPC    HY 8694   0.644   3.645   6.222 -0.3978 -0.3616 -0.7218
   91SAPC   O31 8695   0.640   3.566   6.025 -0.0194  0.0471  0.2887
   91SAPC   C31 8696   0.519   3.620   5.993 -0.4748 -0.2957  0.1768
   91SAPC   O32 8697   0.436   3.651   6.076  0.2515 -0.0256  0.2976
   91SAPC   C32 8698   0.503   3.592   5.840 -0.2706 -0.1657 -0.0212
   91SAPC   H2X 8699   0.501   3.482   5.827  2.8148 -0.2377 -0.4793
   91SAPC   H2Y 8700   0.591   3.632   5.786  0.4207 -0.1526  1.1061
   91SAPC   C23 8701   0.586   2.947   6.127  0.2762  0.2814 -0.1302
   91SAPC   H3R 8702   0.480   2.948   6.158  0.2684  0.2325 -0.1549
   91SAPC   H3S 8703   0.645   2.905   6.212 -2.5423 -1.5553  1.0465
   91SAPC   C24 8704   0.592   2.848   6.005  0.0556 -0.8224  0.4408
   91SAPC   H4R 8705   0.527   2.890   5.925 -0.6675 -1.2986  0.7766
   91SAPC   H4S 8706   0.551   2.748   6.026 -0.1977 -1.7911 -3.7260
   91SAPC   C25 8707   0.738   2.844   5.958  0.1080  0.1662  0.2093
   91SAPC   H5R 8708   0.801   2.789   6.029  1.1149  2.1291  0.9236
   91SAPC   C26 8709   0.785   2.884   5.837  0.0162 -0.1692 -0.4828
   91SAPC   H6R 8710   0.892   2.869   5.818  0.5460  2.0858  0.3246
   91SAPC   C27 8711   0.706   2.946   5.725  0.3961  0.3599  0.5546
   91SAPC   H7R 8712   0.778   3.002   5.661  0.1128 -0.9360 -0.9519
   91SAPC   H7S 8713   0.619   3.005   5.761 -0.0949 -0.1526  0.2260
   91SAPC   C28 8714   0.644   2.849   5.625 -0.0885  0.7130 -0.6517
   91SAPC   H8R 8715   0.623   2.751   5.670  1.3323 -0.1170 -1.7254
   91SAPC   C29 8716   0.621   2.877   5.494 -0.1541  1.0559 -0.3271
   91SAPC   H9R 8717   0.593   2.788   5.435 -1.8345  2.0577 -1.0853
   91SAPC  C210 8718   0.671   2.983   5.394 -0.0653 -0.8728  0.5148
   91SAPC  H10R 8719   0.713   3.078   5.432 -1.7669  1.2524 -2.4923
   91SAPC  H10S 8720   0.591   3.030   5.332  0.2493  2.5684  2.4586
   91SAPC  C211 8721   0.793   2.924   5.315  0.0511 -0.2886  0.5081
   91SAPC  H11R 8722   0.872   2.879   5.376 -0.5510 -0.5044  1.1469
   91SAPC  C212 8723   0.812   2.928   5.182  0.2817 -0.0894  0.3270
   91SAPC  H12R 8724   0.911   2.902   5.142  1.0317  1.3861  1.1564
   91SAPC  C213 8725   0.725   2.990   5.079  0.0519  0.5233  0.9837
   91SAPC  H13R 8726   0.783   3.018   4.989 -2.2840 -0.9156 -1.0669
   91SAPC  H13S 8727   0.672   3.086   5.099 -2.8953  0.1320 -3.6345
   91SAPC  C214 8728   0.615   2.894   5.050  0.1121 -0.8139  0.0110
   91SAPC  H14R 8729   0.550   2.869   5.136 -2.5133  0.4699 -1.4646
   91SAPC  C215 8730   0.591   2.827   4.933  0.2994 -0.5007  0.6656
   91SAPC  H15R 8731   0.505   2.758   4.933  1.2689 -1.7498  0.5858
   91SAPC  C216 8732   0.651   2.826   4.793 -0.6049 -0.5482  0.0471
   91SAPC  H16R 8733   0.623   2.745   4.723  0.5849 -0.0191 -1.0694
   91SAPC  H16S 8734   0.761   2.817   4.799 -0.4988  0.3704 -0.3479
   91SAPC  C217 8735   0.620   2.962   4.721 -0.2364  0.0077  0.0582
   91SAPC  H17R 8736   0.698   2.988   4.647 -1.4472  1.5314 -0.7272
   91SAPC  H17S 8737   0.634   3.042   4.797  1.4764  1.2653 -1.5019
   91SAPC  C218 8738   0.479   2.963   4.657  0.0487 -0.2993 -0.5544
   91SAPC  H18R 8739   0.411   2.970   4.745  0.4383  2.4821 -0.3865
   91SAPC  H18S 8740   0.471   2.860   4.615  1.2937 -0.3081 -0.8016
   91SAPC  C219 8741   0.469   3.067   4.549  0.4379 -0.9756  0.7448
   91SAPC  H19R 8742   0.366   3.067   4.507  0.9327  0.2767 -0.5337
   91SAPC  H19S 8743   0.535   3.054   4.460 -0.2130 -2.5235  0.4654
   91SAPC  C220 8744   0.493   3.213   4.601 -0.9842 -0.0019  0.4696
   91SAPC  H20R 8745   0.508   3.289   4.521 -1.9774  0.5163  0.7544
   91SAPC  H20S 8746   0.584   3.218   4.666  0.1959 -1.2304 -1.0164
   91SAPC  H20T 8747   0.407   3.243   4.664 -2.8433  0.4390 -2.1333
   91SAPC   C33 8748   0.376   3.646   5.771 -0.2960 -0.0350 -0.3987
   91SAPC   H3X 8749   0.355   3.749   5.807  0.1003 -1.0073  2.9652
   91SAPC   H3Y 8750   0.281   3.593   5.795 -1.0472  2.4344  2.7729
   91SAPC   C34 8751   0.400   3.659   5.621  0.4205 -0.5228 -0.0698
   91SAPC   H4X 8752   0.458   3.566   5.604 -0.4446 -1.2912  1.0174
   91SAPC   H4Y 8753   0.456   3.751   5.594 -1.4205  0.8907  0.6723
   91SAPC   C35 8754   0.273   3.689   5.536 -0.7823 -0.4782 -0.2544
   91SAPC   H5X 8755   0.210   3.745   5.608  0.8287  0.3307  0.5574
   91SAPC   H5Y 8756   0.211   3.597   5.523 -0.8502 -0.0985 -3.6534
   91SAPC   C36 8757   0.297   3.773   5.419  0.7743  0.5554 -0.4248
   91SAPC   H6X 8758   0.393   3.734   5.380  1.3742 -1.0676  2.4359
   91SAPC   H6Y 8759   0.327   3.871   5.463  2.5064  0.2769 -0.9368
   91SAPC   C37 8760   0.190   3.764   5.315 -0.0780 -0.1595 -0.0849
   91SAPC   H7X 8761   0.091   3.792   5.356 -0.7363  0.7987 -2.2076
   91SAPC   H7Y 8762   0.191   3.656   5.286 -0.5137  0.1798 -1.4411
   91SAPC   C38 8763   0.219   3.846   5.188  0.9394  0.0980 -0.8433
   91SAPC   H8X 8764   0.305   3.803   5.132  0.0070 -2.3917 -0.5049
   91SAPC   H8Y 8765   0.243   3.945   5.233  1.9250 -0.2154 -0.6581
   91SAPC   C39 8766   0.095   3.851   5.097  0.3770 -0.0804  0.6758
   91SAPC   H9X 8767   0.012   3.869   5.169  0.7950 -0.3888  1.2419
   91SAPC   H9Y 8768   0.082   3.749   5.055 -0.2012 -0.7888  2.4927
   91SAPC  C310 8769   0.092   3.963   4.993 -0.3674 -0.4842  0.9552
   91SAPC  H10X 8770   0.152   4.045   5.039  0.4106  0.0624 -0.9136
   91SAPC  H10Y 8771  -0.009   4.003   4.973 -0.1366 -0.3006  0.1217
   91SAPC  C311 8772   0.168   3.925   4.866 -0.4642 -0.3532  0.8468
   91SAPC  H11X 8773   0.205   3.820   4.868  2.1159  0.3115 -2.8010
   91SAPC  H11Y 8774   0.253   3.996   4.854 -1.6008  0.6611 -1.8178
   91SAPC  C312 8775   0.087   3.948   4.736  0.4788  0.0304 -0.0110
   91SAPC  H12X 8776   0.075   4.059   4.733  0.9761  0.1761  1.9016
   91SAPC  H12Y 8777  -0.014   3.910   4.760  0.4038  1.0719  1.4314
   91SAPC  C313 8778   0.137   3.905   4.600 -0.1362  0.1608  0.8293
   91SAPC  H13X 8779   0.057   3.909   4.523  0.5832  1.1440  0.1074
   91SAPC  H13Y 8780   0.172   3.800   4.617 -0.3618 -0.4094 -1.7445
   91SAPC  C314 8781   0.255   3.978   4.543 -1.1700  0.5905  0.0476
   91SAPC  H14X 8782   0.278   3.923   4.449 -2.0535  1.3007 -0.5956
   91SAPC  H14Y 8783   0.347   3.962   4.604 -0.2200  1.3444 -1.1650
   91SAPC  C315 8784   0.247   4.129   4.521 -0.1615 -0.2099 -0.7915
   91SAPC  H15X 8785   0.282   4.178   4.614  0.9600 -2.5960  0.1385
   91SAPC  H15Y 8786   0.143   4.153   4.491 -0.2479  0.8096  0.2652
   91SAPC  C316 8787   0.335   4.182   4.415  0.1755 -0.2920  0.4365
   91SAPC  H16X 8788   0.333   4.104   4.337 -4.4021 -0.2688  0.2644
   91SAPC  H16Y 8789   0.444   4.183   4.437  0.3385 -2.6494 -0.0412
   91SAPC  C317 8790   0.282   4.304   4.337 -0.3295 -0.2914 -1.1911
   91SAPC  H17X 8791   0.274   4.382   4.416  0.7736  0.8257 -2.1357
   91SAPC  H17Y 8792   0.179   4.281   4.303  0.1302 -1.4792 -1.8587
   91SAPC  C318 8793   0.365   4.373   4.229  0.7538 -0.3654 -0.6659
   91SAPC  H18X 8794   0.329   4.472   4.193  2.0647 -0.5197 -2.5570
   91SAPC  H18Y 8795   0.385   4.312   4.138  2.2864  1.0168 -1.3152
   91SAPC  H18Z 8796   0.470   4.388   4.263  1.0136 -1.0867 -1.1251
   92SAPC     N 8797   3.335   3.157   6.287 -0.1282  0.3837  0.2546
   92SAPC   C12 8798   3.391   3.037   6.214 -0.1909 -0.3656  0.3426
   92SAPC  H12A 8799   3.313   3.008   6.145 -0.6518 -2.0801  1.5281
   92SAPC  H12B 8800   3.402   2.956   6.284 -1.5850  0.6718  1.8325
   92SAPC   C13 8801   3.310   3.268   6.191  0.7210 -0.1012 -0.3219
   92SAPC  H13A 8802   3.268   3.235   6.097 -4.7912  0.6100  1.5849
   92SAPC  H13B 8803   3.227   3.332   6.216  1.2523  2.9587 -5.0711
   92SAPC  H13C 8804   3.393   3.335   6.175 -0.0663  0.6884 -1.2636
   92SAPC   C14 8805   3.196   3.124   6.341 -0.0711 -0.3734 -0.1931
   92SAPC  H14A 8806   3.155   3.213   6.385  1.1969  0.2645 -0.2675
   92SAPC  H14B 8807   3.134   3.100   6.256  1.1582  1.4998 -1.7076
   92SAPC  H14C 8808   3.204   3.057   6.425 -0.2000  0.1350  0.2299
   92SAPC   C15 8809   3.414   3.203   6.400 -0.1768  0.6213  0.4210
   92SAPC  H15A 8810   3.505   3.239   6.354 -0.5254  0.0695 -0.7382
   92SAPC  H15B 8811   3.365   3.283   6.454 -0.1385  0.2007  1.0879
   92SAPC  H15C 8812   3.451   3.130   6.470  1.0910  0.2488 -0.6030
   92SAPC   C11 8813   3.519   3.058   6.135  0.7123 -0.1582 -0.1710
   92SAPC  H11A 8814   3.509   3.149   6.072 -0.2613 -0.5873 -0.6651
   92SAPC  H11B 8815   3.542   2.975   6.064  1.5536  0.2602 -0.4016
   92SAPC     P 8816   3.717   2.968   6.265  0.0014 -0.0954 -0.3357
   92SAPC   O13 8817   3.802   3.021   6.377  0.1055  0.2782  0.5988
   92SAPC   O14 8818   3.629   2.858   6.304 -0.3190 -0.2125 -0.5916
   92SAPC   O12 8819   3.631   3.090   6.215 -0.2677 -0.0262  0.3967
   92SAPC   O11 8820   3.810   2.923   6.144 -0.8122 -0.2586  0.5144
   92SAPC    C1 8821   3.864   3.014   6.045 -0.3521  0.3940  0.4339
   92SAPC    HA 8822   3.807   3.109   6.041  0.8663  1.1068 -1.7531
   92SAPC    HB 8823   3.973   3.032   6.060  0.2105 -1.0517 -1.5034
   92SAPC    C2 8824   3.836   2.976   5.897 -0.1904  0.4055 -0.1432
   92SAPC    HS 8825   3.732   3.001   5.867 -0.4318 -2.2929 -1.8577
   92SAPC   O21 8826   3.869   2.839   5.877  0.1690 -0.3013  0.1020
   92SAPC   C21 8827   3.768   2.762   5.876  0.1531  0.0039  0.7380
   92SAPC   O22 8828   3.653   2.793   5.900  0.3719  0.6377  0.3352
   92SAPC   C22 8829   3.803   2.623   5.830  0.3516  0.5125  0.4149
   92SAPC   H2R 8830   3.875   2.635   5.746 -4.2705 -0.6619 -4.3233
   92SAPC   H2S 8831   3.847   2.565   5.913  0.5944 -3.4259 -2.1664
   92SAPC    C3 8832   3.929   3.049   5.796  0.3519 -0.1985 -0.0306
   92SAPC    HX 8833   4.035   3.025   5.817 -0.0106 -2.6172 -0.6826
   92SAPC    HY 8834   3.919   3.159   5.804  1.1320 -0.0069 -1.3543
   92SAPC   O31 8835   3.904   3.016   5.653 -0.1405 -0.4780 -0.4488
   92SAPC   C31 8836   3.788   3.051   5.594  0.1004 -0.3582 -0.0556
   92SAPC   O32 8837   3.699   3.111   5.644  0.0273  0.0986 -0.1661
   92SAPC   C32 8838   3.795   3.020   5.444  1.2056  0.1731 -0.6659
   92SAPC   H2X 8839   3.792   2.911   5.423  2.2476  0.2726 -1.3885
   92SAPC   H2Y 8840   3.892   3.063   5.411  0.3809 -0.0234 -3.6600
   92SAPC   C23 8841   3.672   2.542   5.780 -0.0326 -0.3816 -0.4173
   92SAPC   H3R 8842   3.608   2.585   5.700 -1.9359 -0.7429  0.8608
   92SAPC   H3S 8843   3.614   2.553   5.874  2.2143 -0.4730  1.0449
   92SAPC   C24 8844   3.721   2.404   5.748 -0.2235  0.7871  0.1808
   92SAPC   H4R 8845   3.636   2.333   5.758 -0.0148  0.6382  0.9745
   92SAPC   H4S 8846   3.790   2.372   5.828 -1.8748  0.3997  1.5079
   92SAPC   C25 8847   3.795   2.398   5.610 -0.5063 -0.1315 -0.2887
   92SAPC   H5R 8848   3.883   2.463   5.598  1.2201 -2.1047  0.8845
   92SAPC   C26 8849   3.753   2.329   5.501 -0.5362 -0.6419 -0.2226
   92SAPC   H6R 8850   3.811   2.330   5.407 -1.8984 -3.2878 -1.1962
   92SAPC   C27 8851   3.645   2.229   5.501  0.1002  0.5252  0.5214
   92SAPC   H7R 8852   3.560   2.279   5.448 -0.2383  1.5347  1.9677
   92SAPC   H7S 8853   3.619   2.185   5.599  1.4718  2.3920  1.7923
   92SAPC   C28 8854   3.698   2.110   5.422 -0.0325  0.4972 -0.6432
   92SAPC   H8R 8855   3.798   2.075   5.451 -0.7499 -1.1502 -0.0111
   92SAPC   C29 8856   3.638   2.041   5.328  0.2162 -0.4994 -0.5934
   92SAPC   H9R 8857   3.694   1.969   5.267  2.5863  2.8213 -2.6548
   92SAPC  C210 8858   3.503   2.078   5.277 -0.5152  1.1975 -0.4225
   92SAPC  H10R 8859   3.452   2.167   5.317 -0.6856  1.3171 -0.8931
   92SAPC  H10S 8860   3.429   1.997   5.296  0.3831  0.0268 -1.6512
   92SAPC  C211 8861   3.514   2.085   5.126 -0.1153  0.1011 -0.1209
   92SAPC  H11R 8862   3.530   1.988   5.076 -2.0521 -0.2838 -0.0901
   92SAPC  C212 8863   3.528   2.193   5.051  0.2882 -0.4327  0.7106
   92SAPC  H12R 8864   3.535   2.179   4.942 -1.0717 -1.7731  0.7716
   92SAPC  C213 8865   3.527   2.336   5.101 -0.2537 -0.0891 -0.0624
   92SAPC  H13R 8866   3.562   2.403   5.020  0.6336  0.4351  0.7352
   92SAPC  H13S 8867   3.603   2.343   5.182  0.9315 -2.0882 -0.9295
   92SAPC  C214 8868   3.400   2.387   5.148  0.3186 -0.7706 -0.0083
   92SAPC  H14R 8869   3.310   2.333   5.119  0.5578  0.1633 -2.7092
   92SAPC  C215 8870   3.376   2.503   5.212  0.6608  0.1291 -0.0702
   92SAPC  H15R 8871   3.275   2.538   5.236  1.2442  1.0024  1.2823
   92SAPC  C216 8872   3.482   2.607   5.238 -0.8560  0.3554  1.1857
   92SAPC  H16R 8873   3.467   2.713   5.207  0.5618  1.0716  2.7341
   92SAPC  H16S 8874   3.584   2.579   5.205 -1.3027  2.1583 -2.1369
   92SAPC  C217 8875   3.488   2.626   5.391  0.3669 -0.0505  0.2243
   92SAPC  H17R 8876   3.586   2.672   5.415 -0.6322  0.9492  2.7805
   92SAPC  H17S 8877   3.500   2.527   5.439 -0.1201 -0.9009 -1.3253
   92SAPC  C218 8878   3.366   2.696   5.447 -0.4203 -0.0879 -0.3246
   92SAPC  H18R 8879   3.288   2.622   5.474  0.2614 -0.4869  0.5865
   92SAPC  H18S 8880   3.329   2.755   5.360  1.9623  0.3243 -1.1184
   92SAPC  C219 8881   3.398   2.790   5.572 -0.7691 -0.0819  0.0168
   92SAPC  H19R 8882   3.460   2.876   5.540  0.5436 -0.9410  0.1748
   92SAPC  H19S 8883   3.449   2.727   5.648  0.1709  3.4797  2.6237
   92SAPC  C220 8884   3.272   2.839   5.645 -1.0973 -0.3084  0.7499
   92SAPC  H20R 8885   3.210   2.903   5.578  1.2469  1.7075  0.3541
   92SAPC  H20S 8886   3.299   2.893   5.738  1.6964 -0.5167  0.1365
   92SAPC  H20T 8887   3.224   2.747   5.683 -0.4868 -1.0725 -0.2877
   92SAPC   C33 8888   3.683   3.095   5.374  0.6816  0.1615 -0.1368
   92SAPC   H3X 8889   3.679   3.206   5.384 -3.6345  0.1627 -0.0609
   92SAPC   H3Y 8890   3.585   3.063   5.414  0.5398 -2.2808 -2.1582
   92SAPC   C34 8891   3.676   3.054   5.227  0.4316  0.0050  0.5273
   92SAPC   H4X 8892   3.679   2.943   5.222 -0.8181 -0.0687  1.3038
   92SAPC   H4Y 8893   3.757   3.099   5.165 -1.4312  2.2637 -0.3722
   92SAPC   C35 8894   3.548   3.107   5.159  0.0883  0.1198 -0.9588
   92SAPC   H5X 8895   3.540   3.212   5.193 -1.1972 -0.0932 -0.5379
   92SAPC   H5Y 8896   3.462   3.055   5.207 -0.4660  1.3308 -0.6144
   92SAPC   C36 8897   3.569   3.116   5.010 -0.4017  0.2622 -0.2385
   92SAPC   H6X 8898   3.609   3.020   4.970 -1.3709  0.3432 -1.4782
   92SAPC   H6Y 8899   3.644   3.197   4.993 -0.4142  0.8074  2.0639
   92SAPC   C37 8900   3.441   3.134   4.927  0.0934  0.9885 -0.3076
   92SAPC   H7X 8901   3.399   3.233   4.955  1.1259  0.9943  1.3819
   92SAPC   H7Y 8902   3.361   3.060   4.951  0.1629  1.4094  1.3460
   92SAPC   C38 8903   3.466   3.132   4.772  0.4200 -0.4743 -0.3085
   92SAPC   H8X 8904   3.370   3.133   4.716  0.9440 -0.7663 -1.2420
   92SAPC   H8Y 8905   3.519   3.036   4.754  2.4643  0.5779 -0.1885
   92SAPC   C39 8906   3.556   3.246   4.726  0.2976 -1.0092 -0.6217
   92SAPC   H9X 8907   3.657   3.237   4.770  0.2372  1.1019  0.0405
   92SAPC   H9Y 8908   3.514   3.344   4.756 -1.8202 -1.6351 -1.2917
   92SAPC  C310 8909   3.571   3.245   4.575 -0.2020 -0.1911 -0.0768
   92SAPC  H10X 8910   3.471   3.272   4.535  0.0846 -0.7979 -1.2446
   92SAPC  H10Y 8911   3.599   3.143   4.539  2.5444  1.1840 -2.1879
   92SAPC  C311 8912   3.686   3.348   4.532  0.4044 -0.3065  0.0583
   92SAPC  H11X 8913   3.771   3.331   4.602 -0.9034  0.4658  1.8932
   92SAPC  H11Y 8914   3.636   3.438   4.572 -0.1206  0.0699 -1.3960
   92SAPC  C312 8915   3.722   3.337   4.387 -0.8272 -0.1222 -0.5683
   92SAPC  H12X 8916   3.628   3.319   4.329 -1.4996  2.3790 -0.3704
   92SAPC  H12Y 8917   3.793   3.252   4.382 -1.4572 -0.6470 -0.6958
   92SAPC  C313 8918   3.790   3.464   4.338 -0.1116  0.0083  0.0938
   92SAPC  H13X 8919   3.733   3.552   4.377 -2.4466 -1.4876  0.2771
   92SAPC  H13Y 8920   3.782   3.474   4.227  0.6755  3.6927  0.2328
   92SAPC  C314 8921   3.939   3.469   4.369  0.2329 -0.2019 -0.9260
   92SAPC  H14X 8922   3.990   3.387   4.314 -2.6332 -2.1074 -0.9895
   92SAPC  H14Y 8923   3.959   3.453   4.478 -0.8563 -1.7339 -0.9101
   92SAPC  C315 8924   4.004   3.597   4.326 -0.1333  0.2469 -0.7011
   92SAPC  H15X 8925   4.114   3.590   4.339 -0.0641 -1.5546 -1.8667
   92SAPC  H15Y 8926   3.948   3.689   4.352  2.3880  1.4216  0.9733
   92SAPC  C316 8927   4.006   3.619   4.180  0.4356  0.2766 -0.4863
   92SAPC  H16X 8928   3.903   3.626   4.140  0.2995 -1.2794 -0.4817
   92SAPC  H16Y 8929   4.056   3.528   4.139  1.4358 -0.6368  2.5479
   92SAPC  C317 8930   4.080   3.747   4.131  0.4137  0.0042 -0.2017
   92SAPC  H17X 8931   4.183   3.746   4.173  0.4187  1.7158 -0.1096
   92SAPC  H17Y 8932   4.032   3.839   4.169  1.6113  0.4511  0.3062
   92SAPC  C318 8933   4.097   3.745   3.980 -0.0814 -0.3153  0.0846
   92SAPC  H18X 8934   4.146   3.653   3.939 -0.6048  0.7517 -3.1893
   92SAPC  H18Y 8935   4.160   3.830   3.945 -0.9814  0.3917  0.1691
   92SAPC  H18Z 8936   4.000   3.764   3.929  0.2901  0.5673 -0.3165
   93SAPC     N 8937   1.515   4.671   6.951 -0.5893 -0.1234  0.5180
   93SAPC   C12 8938   1.450   4.805   6.929  0.2124 -0.6972  0.0592
   93SAPC  H12A 8939   1.516   4.872   6.877  2.3443 -2.2599  0.6201
   93SAPC  H12B 8940   1.428   4.854   7.023  1.5481  1.0179 -0.4743
   93SAPC   C13 8941   1.663   4.696   6.987  0.1224 -0.7546  0.0229
   93SAPC  H13A 8942   1.725   4.709   6.899 -0.5054 -0.6773 -0.4176
   93SAPC  H13B 8943   1.672   4.778   7.056 -0.1776 -1.2862  0.7039
   93SAPC  H13C 8944   1.704   4.608   7.035 -1.5447 -1.8102 -0.3782
   93SAPC   C14 8945   1.455   4.598   7.063  0.0920  0.6493 -0.3045
   93SAPC  H14A 8946   1.466   4.645   7.160 -0.7379  0.0820  0.0873
   93SAPC  H14B 8947   1.350   4.575   7.054  0.0917  0.6113 -0.2076
   93SAPC  H14C 8948   1.507   4.503   7.064 -1.5655 -0.3453  1.4793
   93SAPC   C15 8949   1.512   4.585   6.826  0.8371  0.2395  0.2953
   93SAPC  H15A 8950   1.549   4.632   6.737  0.7745 -2.2455 -1.1397
   93SAPC  H15B 8951   1.568   4.492   6.828 -0.1717 -0.4340 -0.9695
   93SAPC  H15C 8952   1.408   4.559   6.813  1.0023  0.4010 -1.5477
   93SAPC   C11 8953   1.321   4.819   6.847 -0.9970  0.0968 -0.1729
   93SAPC  H11A 8954   1.342   4.785   6.744 -1.0205  1.4357 -0.6361
   93SAPC  H11B 8955   1.290   4.925   6.842 -0.9527  0.3204  2.5742
   93SAPC     P 8956   1.112   4.676   6.844  0.5719  0.3842  0.0817
   93SAPC   O13 8957   1.154   4.541   6.800  0.2854 -0.3950 -0.2905
   93SAPC   O14 8958   0.993   4.683   6.934  0.2223 -0.0502 -0.4624
   93SAPC   O12 8959   1.229   4.747   6.921 -0.0566 -0.0643  0.8390
   93SAPC   O11 8960   1.089   4.771   6.715 -0.7832 -0.0294  0.3037
   93SAPC    C1 8961   0.965   4.791   6.652 -0.6839 -0.0083  0.0063
   93SAPC    HA 8962   0.880   4.809   6.721  0.4775  1.1161  1.2183
   93SAPC    HB 8963   0.978   4.893   6.611 -0.9904  0.8815  2.0252
   93SAPC    C2 8964   0.922   4.685   6.549  0.0060 -0.3154 -0.1642
   93SAPC    HS 8965   0.900   4.595   6.611 -1.6378  0.4219  0.3830
   93SAPC   O21 8966   1.015   4.687   6.439  0.1422 -0.5125 -0.4025
   93SAPC   C21 8967   1.036   4.566   6.396 -0.0197  0.5541  0.2076
   93SAPC   O22 8968   1.006   4.463   6.457 -0.1087  0.5849 -0.0811
   93SAPC   C22 8969   1.129   4.572   6.270  0.9152 -0.1229  0.0989
   93SAPC   H2R 8970   1.129   4.676   6.230 -1.9978 -0.4729 -1.0852
   93SAPC   H2S 8971   1.235   4.559   6.300  0.9295  1.9453  1.1275
   93SAPC    C3 8972   0.782   4.716   6.485  1.3061  0.4831  0.3582
   93SAPC    HX 8973   0.790   4.812   6.430 -0.3124 -0.1793 -1.1253
   93SAPC    HY 8974   0.717   4.724   6.575  1.4820 -1.1529  0.6781
   93SAPC   O31 8975   0.736   4.609   6.397  0.4418 -0.2636 -0.0579
   93SAPC   C31 8976   0.624   4.656   6.338  0.1288  0.1883  0.3679
   93SAPC   O32 8977   0.576   4.765   6.345 -0.1263 -0.5280 -0.4264
   93SAPC   C32 8978   0.562   4.535   6.262  0.7404 -0.4283  0.0977
   93SAPC   H2X 8979   0.586   4.452   6.332  1.8434  1.9735  2.7512
   93SAPC   H2Y 8980   0.618   4.503   6.171  0.7460  0.8629 -0.3622
   93SAPC   C23 8981   1.093   4.467   6.157 -0.6508  0.2842 -0.0881
   93SAPC   H3R 8982   1.113   4.367   6.201  1.6822  0.0844 -1.4232
   93SAPC   H3S 8983   1.170   4.478   6.078 -0.5829  1.9059  0.1775
   93SAPC   C24 8984   0.953   4.471   6.105  0.2143  0.1910 -0.2364
   93SAPC   H4R 8985   0.942   4.566   6.048  3.6558  2.0673  1.8761
   93SAPC   H4S 8986   0.894   4.469   6.199  2.9553 -0.3256  1.6005
   93SAPC   C25 8987   0.920   4.357   6.018  0.5513 -1.2192 -0.0349
   93SAPC   H5R 8988   0.879   4.271   6.073  1.1757 -0.9720  0.8311
   93SAPC   C26 8989   0.946   4.336   5.884  0.5403  0.4171 -0.2636
   93SAPC   H6R 8990   0.926   4.235   5.844  0.7857 -0.8827  2.6309
   93SAPC   C27 8991   1.024   4.425   5.792  0.6017  0.1443  0.8870
   93SAPC   H7R 8992   1.122   4.382   5.761 -0.5309 -1.4920 -0.6035
   93SAPC   H7S 8993   1.050   4.521   5.843  2.6487 -0.1847  0.5416
   93SAPC   C28 8994   0.951   4.465   5.669  0.4055  0.5288  0.9219
   93SAPC   H8R 8995   0.847   4.429   5.678  0.6138  0.2143  2.3020
   93SAPC   C29 8996   1.006   4.517   5.558 -0.9932 -0.0261  0.2033
   93SAPC   H9R 8997   0.946   4.529   5.466  1.4302 -1.3424 -1.6781
   93SAPC  C210 8998   1.148   4.569   5.549  0.0194 -0.7034  0.2308
   93SAPC  H10R 8999   1.215   4.511   5.616 -0.3321 -0.7311  0.5577
   93SAPC  H10S 9000   1.154   4.677   5.576  0.6115 -0.5014 -0.6519
   93SAPC  C211 9001   1.200   4.566   5.407  0.6450  0.6458  0.0926
   93SAPC  H11R 9002   1.171   4.654   5.348 -1.0719 -1.3286 -2.2254
   93SAPC  C212 9003   1.274   4.468   5.350 -0.5317 -0.6261  0.5720
   93SAPC  H12R 9004   1.293   4.471   5.241 -1.5723  0.9859  0.4054
   93SAPC  C213 9005   1.325   4.348   5.425  0.2132  0.3135 -0.3270
   93SAPC  H13R 9006   1.296   4.256   5.369 -4.2134  1.6639 -0.6244
   93SAPC  H13S 9007   1.273   4.335   5.522  0.5736 -1.3668 -0.3203
   93SAPC  C214 9008   1.473   4.343   5.455 -0.0927 -0.4446 -0.5738
   93SAPC  H14R 9009   1.507   4.440   5.494 -0.9039 -0.0496 -0.8332
   93SAPC  C215 9010   1.565   4.244   5.431  0.1548 -0.5278 -0.4738
   93SAPC  H15R 9011   1.670   4.264   5.458 -0.2634  0.9123  0.1766
   93SAPC  C216 9012   1.547   4.106   5.372  1.2525 -0.1387  0.1131
   93SAPC  H16R 9013   1.625   4.088   5.295 -0.1668 -1.0424 -1.1712
   93SAPC  H16S 9014   1.444   4.100   5.331  0.5515  1.3215  1.5499
   93SAPC  C217 9015   1.564   3.997   5.479 -0.4400 -0.5639  0.2118
   93SAPC  H17R 9016   1.579   3.905   5.419  0.2872 -2.1917  2.7402
   93SAPC  H17S 9017   1.469   3.984   5.534 -0.1626  1.5597  1.2961
   93SAPC  C218 9018   1.683   4.015   5.578  0.2613 -0.3128  1.0235
   93SAPC  H18R 9019   1.656   4.107   5.635  0.3766 -0.0661  0.6833
   93SAPC  H18S 9020   1.781   4.030   5.528 -0.3755 -1.1095 -0.5320
   93SAPC  C219 9021   1.703   3.904   5.688 -0.7068 -1.3941 -0.2005
   93SAPC  H19R 9022   1.697   3.805   5.637 -3.4679 -1.0431 -0.6711
   93SAPC  H19S 9023   1.624   3.915   5.764  0.2284 -0.8730  0.7250
   93SAPC  C220 9024   1.844   3.907   5.760  0.2193 -0.4346  0.0248
   93SAPC  H20R 9025   1.854   3.817   5.824 -3.2650 -0.7857  0.3098
   93SAPC  H20S 9026   1.854   4.000   5.820 -0.4492  0.4799 -1.2314
   93SAPC  H20T 9027   1.925   3.917   5.684  1.0120  0.1987  0.9390
   93SAPC   C33 9028   0.409   4.539   6.237  0.0200 -0.1518  0.2833
   93SAPC   H3X 9029   0.397   4.627   6.170  1.0041 -1.1270 -1.2200
   93SAPC   H3Y 9030   0.360   4.570   6.332 -1.1238  1.0380 -0.6643
   93SAPC   C34 9031   0.350   4.409   6.184  0.4604  0.1388  0.2203
   93SAPC   H4X 9032   0.242   4.430   6.170  0.0313 -1.3121  1.1526
   93SAPC   H4Y 9033   0.369   4.328   6.258 -0.3954  0.1462  0.4584
   93SAPC   C35 9034   0.403   4.362   6.051  0.7064 -0.1422 -0.4059
   93SAPC   H5X 9035   0.336   4.277   6.026  0.4320  0.1269 -0.5996
   93SAPC   H5Y 9036   0.503   4.318   6.069  1.3779  0.8292 -1.5923
   93SAPC   C36 9037   0.426   4.469   5.941  0.0921 -0.0402 -0.0203
   93SAPC   H6X 9038   0.499   4.544   5.978  0.8546 -0.2401 -1.0819
   93SAPC   H6Y 9039   0.331   4.526   5.929  1.2651  1.4422 -3.5860
   93SAPC   C37 9040   0.479   4.410   5.816  0.4959  0.2230  0.3468
   93SAPC   H7X 9041   0.432   4.315   5.783  2.7217 -0.2891 -1.6422
   93SAPC   H7Y 9042   0.580   4.368   5.836 -0.4126 -1.2636  2.1141
   93SAPC   C38 9043   0.476   4.510   5.706  0.0691 -0.3687 -0.1537
   93SAPC   H8X 9044   0.534   4.593   5.753 -0.9320  0.4391 -0.2980
   93SAPC   H8Y 9045   0.369   4.540   5.696 -0.4180 -1.7371  0.7766
   93SAPC   C39 9046   0.540   4.474   5.565  0.6581 -0.3720 -0.2588
   93SAPC   H9X 9047   0.478   4.393   5.523 -1.5149  0.4571  1.1841
   93SAPC   H9Y 9048   0.638   4.425   5.586  0.1640 -1.6270 -0.7731
   93SAPC  C310 9049   0.566   4.589   5.477 -0.5974  0.1795  0.2254
   93SAPC  H10X 9050   0.621   4.678   5.513 -0.1632  0.6345 -1.4848
   93SAPC  H10Y 9051   0.465   4.609   5.435 -2.4527 -2.2692  3.0947
   93SAPC  C311 9052   0.653   4.545   5.352  0.2178 -0.4011 -0.4756
   93SAPC  H11X 9053   0.750   4.507   5.391 -0.3235 -0.9408  0.3768
   93SAPC  H11Y 9054   0.684   4.634   5.293  1.9539 -1.5300 -1.3400
   93SAPC  C312 9055   0.578   4.445   5.262 -0.2192 -0.0981  0.2161
   93SAPC  H12X 9056   0.524   4.369   5.323 -0.5510  1.7587  2.3722
   93SAPC  H12Y 9057   0.658   4.387   5.212  3.1719  1.7996  2.9546
   93SAPC  C313 9058   0.487   4.517   5.163 -0.0597  0.9363  0.3001
   93SAPC  H13X 9059   0.539   4.600   5.111  0.0497 -0.0430 -1.2381
   93SAPC  H13Y 9060   0.400   4.565   5.213 -0.1472 -0.4431  1.5544
   93SAPC  C314 9061   0.440   4.408   5.058  0.4684 -0.6408  0.1769
   93SAPC  H14X 9062   0.368   4.340   5.109  3.7897 -4.0204  0.8214
   93SAPC  H14Y 9063   0.529   4.346   5.036 -0.9757 -2.8189  0.1156
   93SAPC  C315 9064   0.371   4.470   4.935  1.0448 -0.0447  0.1383
   93SAPC  H15X 9065   0.295   4.547   4.963  2.2996  1.5804 -0.7494
   93SAPC  H15Y 9066   0.310   4.387   4.894 -0.0575  0.9299 -0.2357
   93SAPC  C316 9067   0.480   4.501   4.826  0.3082  0.0601 -0.2997
   93SAPC  H16X 9068   0.543   4.409   4.832  2.7237  1.7366  3.7099
   93SAPC  H16Y 9069   0.536   4.586   4.869  1.4698  0.0906 -1.8135
   93SAPC  C317 9070   0.422   4.524   4.684 -0.1521 -0.1618 -0.1531
   93SAPC  H17X 9071   0.365   4.619   4.679 -1.0408 -0.6859 -0.1663
   93SAPC  H17Y 9072   0.357   4.441   4.650  1.1203 -0.6557 -1.4685
   93SAPC  C318 9073   0.534   4.530   4.582 -0.5839 -0.3357  0.9031
   93SAPC  H18X 9074   0.619   4.598   4.603  0.2800 -0.9955 -0.2677
   93SAPC  H18Y 9075   0.492   4.541   4.480 -2.7516 -4.6174  1.1219
   93SAPC  H18Z 9076   0.593   4.435   4.581  0.2370  0.1449 -0.8988
   94SAPC     N 9077   3.956   2.168   6.783  0.8653 -0.5603 -1.0116
   94SAPC   C12 9078   3.864   2.271   6.723 -0.1129 -0.1607  1.0245
   94SAPC  H12A 9079   3.869   2.352   6.794  4.6742  0.8562 -0.1396
   94SAPC  H12B 9080   3.763   2.234   6.726 -0.9441  1.6832 -1.1335
   94SAPC   C13 9081   3.971   2.055   6.685 -0.0539  0.1035  0.6540
   94SAPC  H13A 9082   4.043   1.985   6.725 -1.7389 -2.0634  0.0252
   94SAPC  H13B 9083   3.873   2.016   6.665 -1.1043  1.5756  2.5357
   94SAPC  H13C 9084   4.013   2.097   6.594 -2.3106  0.1080 -0.4500
   94SAPC   C14 9085   4.086   2.222   6.832 -0.3996 -0.1047  0.2312
   94SAPC  H14A 9086   4.081   2.284   6.920  2.6316 -0.2684  0.6435
   94SAPC  H14B 9087   4.154   2.140   6.851  1.4264  1.1417 -0.6738
   94SAPC  H14C 9088   4.134   2.272   6.749  0.3627  1.0461  1.3326
   94SAPC   C15 9089   3.896   2.106   6.907  0.2067  0.7907  0.1771
   94SAPC  H15A 9090   3.962   2.035   6.955 -0.1058 -0.3786 -1.0576
   94SAPC  H15B 9091   3.890   2.187   6.978  0.7116 -0.3437  1.5617
   94SAPC  H15C 9092   3.800   2.056   6.898  0.2447  0.8291 -0.5009
   94SAPC   C11 9093   3.899   2.333   6.578  0.0099 -0.1084 -0.3135
   94SAPC  H11A 9094   3.827   2.414   6.553  0.8334  1.0404  0.8975
   94SAPC  H11B 9095   3.887   2.255   6.499 -1.6951  2.8002 -3.1910
   94SAPC     P 9096   4.058   2.524   6.641 -0.5500  0.2858 -0.0447
   94SAPC   O13 9097   3.958   2.558   6.741 -0.4014  0.3603 -0.4981
   94SAPC   O14 9098   4.197   2.530   6.685 -0.2873  0.8149  0.0119
   94SAPC   O12 9099   4.040   2.379   6.583  0.4385  0.2471  0.1696
   94SAPC   O11 9100   4.057   2.624   6.519 -0.0765 -0.0612 -0.1299
   94SAPC    C1 9101   4.123   2.599   6.400 -0.9520 -0.0970  0.3268
   94SAPC    HA 9102   4.229   2.576   6.423 -1.2717 -0.1531  1.8158
   94SAPC    HB 9103   4.071   2.519   6.343  0.8956 -1.1569  0.0430
   94SAPC    C2 9104   4.122   2.724   6.314 -0.5220  0.3096  0.4536
   94SAPC    HS 9105   4.016   2.747   6.292 -0.8667  0.0647  1.7909
   94SAPC   O21 9106   4.208   2.708   6.197 -0.2423 -0.1695 -0.0387
   94SAPC   C21 9107   4.143   2.651   6.105 -0.2221  0.6395  0.1539
   94SAPC   O22 9108   4.033   2.599   6.113 -0.1822 -0.2779  0.2796
   94SAPC   C22 9109   4.221   2.672   5.972 -0.4978 -0.1645 -0.4478
   94SAPC   H2R 9110   4.208   2.779   5.944 -3.6303 -0.1036  0.8152
   94SAPC   H2S 9111   4.328   2.663   5.999 -0.4462 -0.2619 -0.6873
   94SAPC    C3 9112   4.161   2.857   6.393  0.0082  0.3427  0.4340
   94SAPC    HX 9113   4.263   2.841   6.435 -0.6909 -0.8881  1.7814
   94SAPC    HY 9114   4.092   2.859   6.480 -0.0928 -1.3559  0.4382
   94SAPC   O31 9115   4.155   2.980   6.321 -0.3122 -0.9070 -0.6898
   94SAPC   C31 9116   4.275   3.039   6.288 -0.0178 -0.1261  0.0769
   94SAPC   O32 9117   4.381   2.998   6.334  0.0424  1.0389  0.4625
   94SAPC   C32 9118   4.244   3.164   6.204 -0.3421 -0.0299  0.0915
   94SAPC   H2X 9119   4.261   3.255   6.266  0.5146 -0.4928  0.5475
   94SAPC   H2Y 9120   4.141   3.163   6.161 -0.8087  1.2599  1.1127
   94SAPC   C23 9121   4.170   2.574   5.862 -0.2925  0.2141  0.2444
   94SAPC   H3R 9122   4.207   2.619   5.767 -0.6338 -0.7917 -0.3778
   94SAPC   H3S 9123   4.059   2.571   5.863 -0.3440  1.1192 -1.0390
   94SAPC   C24 9124   4.227   2.428   5.865 -0.1226 -0.0052 -0.2323
   94SAPC   H4R 9125   4.164   2.363   5.801  1.1616 -0.3074 -1.2144
   94SAPC   H4S 9126   4.213   2.391   5.969 -2.1509  0.8784 -0.1435
   94SAPC   C25 9127   4.366   2.416   5.813 -0.2069 -0.1522 -0.1185
   94SAPC   H5R 9128   4.454   2.405   5.877  1.1932 -0.0084 -1.9492
   94SAPC   C26 9129   4.387   2.404   5.678  0.5072  0.7519  0.9944
   94SAPC   H6R 9130   4.488   2.382   5.639 -0.8667 -2.0602 -1.3180
   94SAPC   C27 9131   4.281   2.412   5.573  0.3935 -0.5054  0.4153
   94SAPC   H7R 9132   4.176   2.398   5.606  0.1703 -3.6210 -1.2547
   94SAPC   H7S 9133   4.292   2.321   5.511  2.6947 -0.2616  0.3882
   94SAPC   C28 9134   4.302   2.531   5.477  0.1511  0.2541  0.2611
   94SAPC   H8R 9135   4.390   2.595   5.490  0.4215 -0.1340  0.3565
   94SAPC   C29 9136   4.216   2.548   5.370  0.1870  0.2086  0.1920
   94SAPC   H9R 9137   4.236   2.632   5.302 -0.3262  0.5533  0.4573
   94SAPC  C210 9138   4.090   2.463   5.344 -0.0258 -0.2831 -0.1920
   94SAPC  H10R 9139   4.043   2.419   5.435 -1.1299 -0.2054 -0.6983
   94SAPC  H10S 9140   4.111   2.372   5.284  0.4231 -0.4668  0.2445
   94SAPC  C211 9141   3.989   2.543   5.266 -0.2105 -0.5240 -0.1253
   94SAPC  H11R 9142   3.938   2.617   5.330 -1.2797 -1.2360 -0.1149
   94SAPC  C212 9143   3.935   2.518   5.146  0.9177 -0.4376  0.0998
   94SAPC  H12R 9144   3.877   2.598   5.098  1.1400 -0.1946  0.2386
   94SAPC  C213 9145   3.976   2.415   5.044  0.6923  0.0981  1.1778
   94SAPC  H13R 9146   4.027   2.342   5.111  0.9019 -1.8316 -0.9804
   94SAPC  H13S 9147   4.060   2.446   4.977  1.5684 -1.2304  1.6193
   94SAPC  C214 9148   3.862   2.349   4.962 -0.5934  0.0363 -0.1257
   94SAPC  H14R 9149   3.802   2.279   5.022 -1.7510  0.3302 -0.9087
   94SAPC  C215 9150   3.826   2.366   4.838 -0.3010 -0.5332  0.1658
   94SAPC  H15R 9151   3.738   2.314   4.797 -0.5208 -0.5914  0.7131
   94SAPC  C216 9152   3.879   2.475   4.742 -0.2469 -0.3267 -0.1710
   94SAPC  H16R 9153   3.944   2.550   4.792 -0.0196 -0.2476 -0.5808
   94SAPC  H16S 9154   3.793   2.535   4.705  0.9742  1.4196 -0.2932
   94SAPC  C217 9155   3.984   2.426   4.638 -0.5319 -0.2587 -0.2755
   94SAPC  H17R 9156   4.000   2.507   4.563 -0.4257  1.9939  2.0485
   94SAPC  H17S 9157   3.949   2.328   4.600 -2.6791  0.2427  0.2804
   94SAPC  C218 9158   4.126   2.390   4.692 -0.2379 -0.2468  0.7768
   94SAPC  H18R 9159   4.113   2.358   4.798 -1.0504  0.2107  0.8265
   94SAPC  H18S 9160   4.184   2.484   4.702 -1.0254  0.1707  1.5559
   94SAPC  C219 9161   4.205   2.289   4.605 -0.3366 -0.0266  0.3832
   94SAPC  H19R 9162   4.219   2.333   4.503  0.3447 -0.6008  0.2206
   94SAPC  H19S 9163   4.142   2.198   4.599  1.2137 -1.2961  2.3750
   94SAPC  C220 9164   4.339   2.246   4.657 -0.7771  0.7363 -0.6084
   94SAPC  H20R 9165   4.380   2.166   4.592 -1.8766  0.1184 -0.5550
   94SAPC  H20S 9166   4.319   2.208   4.759  1.0574 -0.0875 -0.5127
   94SAPC  H20T 9167   4.404   2.336   4.653  0.5974 -0.2459 -0.9284
   94SAPC   C33 9168   4.339   3.183   6.075  0.2128 -0.0131  0.1975
   94SAPC   H3X 9169   4.439   3.138   6.092  0.2476  0.3346  0.9706
   94SAPC   H3Y 9170   4.359   3.290   6.053  1.9010 -0.2350  0.5410
   94SAPC   C34 9171   4.279   3.117   5.946  0.3003 -0.3726  0.1597
   94SAPC   H4X 9172   4.184   3.171   5.926  0.0092 -0.7002  0.6342
   94SAPC   H4Y 9173   4.242   3.017   5.976  0.9395  0.3597  3.8515
   94SAPC   C35 9174   4.362   3.113   5.815 -0.6427  0.7174 -0.6332
   94SAPC   H5X 9175   4.452   3.174   5.840  0.2491 -0.7724 -0.0598
   94SAPC   H5Y 9176   4.314   3.150   5.722 -1.4896 -0.3023 -0.6208
   94SAPC   C36 9177   4.397   2.967   5.777 -0.5262  0.1453 -0.0947
   94SAPC   H6X 9178   4.311   2.902   5.806 -0.8080  1.0250  1.1310
   94SAPC   H6Y 9179   4.482   2.940   5.843  0.1657  0.7514 -0.7209
   94SAPC   C37 9180   4.430   2.950   5.624 -0.5933  0.4087 -0.3181
   94SAPC   H7X 9181   4.488   2.855   5.617 -2.3443 -0.7036 -0.2287
   94SAPC   H7Y 9182   4.508   3.028   5.606  1.6154 -0.9047  2.6201
   94SAPC   C38 9183   4.304   2.939   5.538 -0.6583 -0.0511  0.5061
   94SAPC   H8X 9184   4.245   3.029   5.566 -0.5397  0.1022  0.2698
   94SAPC   H8Y 9185   4.246   2.852   5.575  0.6811 -1.0443  0.3537
   94SAPC   C39 9186   4.325   2.934   5.390  0.2833 -0.1989  0.2253
   94SAPC   H9X 9187   4.392   2.847   5.370  0.7751  0.1012  0.5414
   94SAPC   H9Y 9188   4.383   3.024   5.361  2.7578 -2.5385 -2.9478
   94SAPC  C310 9189   4.196   2.938   5.300  0.0692 -0.0266 -0.2509
   94SAPC  H10X 9190   4.147   3.037   5.309  1.0195  0.3777  0.8702
   94SAPC  H10Y 9191   4.119   2.867   5.337 -0.5157 -0.0228 -1.4291
   94SAPC  C311 9192   4.224   2.907   5.150  0.0121 -0.8280  0.6017
   94SAPC  H11X 9193   4.276   2.810   5.139  3.1955  0.6432  1.5479
   94SAPC  H11Y 9194   4.297   2.980   5.108 -0.7902 -1.3545 -1.8685
   94SAPC  C312 9195   4.100   2.905   5.062  0.4194  0.5521 -0.6268
   94SAPC  H12X 9196   4.054   3.005   5.054 -0.7566  0.1906  1.0312
   94SAPC  H12Y 9197   4.023   2.832   5.098 -0.3380  1.3257 -0.6549
   94SAPC  C313 9198   4.136   2.862   4.918 -0.0839  0.3026  0.7459
   94SAPC  H13X 9199   4.209   2.779   4.932 -1.6824 -1.0392  1.4071
   94SAPC  H13Y 9200   4.205   2.937   4.874 -0.7911 -0.8691 -2.7096
   94SAPC  C314 9201   4.020   2.836   4.831 -0.2172  0.5390 -0.7688
   94SAPC  H14X 9202   3.949   2.915   4.861  1.1317  1.3441  0.4423
   94SAPC  H14Y 9203   3.979   2.736   4.856 -3.3188  1.7318 -0.6170
   94SAPC  C315 9204   4.057   2.858   4.686 -0.0461  0.3937  0.3406
   94SAPC  H15X 9205   4.138   2.794   4.645 -0.9507  0.5030 -1.7218
   94SAPC  H15Y 9206   4.089   2.964   4.680 -1.8942  0.9417 -0.7610
   94SAPC  C316 9207   3.932   2.849   4.596  0.2188 -0.0962  0.4445
   94SAPC  H16X 9208   3.859   2.922   4.637 -0.6188 -1.0522  0.7070
   94SAPC  H16Y 9209   3.898   2.743   4.598  1.7142 -0.6626 -1.1498
   94SAPC  C317 9210   3.964   2.887   4.452  0.7805  0.8231 -0.3790
   94SAPC  H17X 9211   4.019   2.798   4.413  0.6073  0.8942 -0.7829
   94SAPC  H17Y 9212   4.032   2.974   4.445  1.8333  0.1621  0.9251
   94SAPC  C318 9213   3.838   2.929   4.377 -0.1058  0.6652 -0.5503
   94SAPC  H18X 9214   3.866   2.962   4.275 -2.2921  0.5671 -1.2286
   94SAPC  H18Y 9215   3.783   3.012   4.427 -0.3484  0.8240 -1.0729
   94SAPC  H18Z 9216   3.776   2.838   4.361  1.8227 -0.3926 -2.6905
   95SAPC     N 9217   6.322   2.425   1.880  0.3249 -0.4265  0.1573
   95SAPC   C12 9218   6.435   2.513   1.912 -0.0816  0.0529 -0.0921
   95SAPC  H12A 9219   6.423   2.602   1.851 -0.3885 -0.7407 -1.2292
   95SAPC  H12B 9220   6.525   2.462   1.880  1.1107  0.6045  2.1769
   95SAPC   C13 9221   6.325   2.387   1.730  0.7653 -0.4034 -0.5689
   95SAPC  H13A 9222   6.249   2.314   1.708  1.2658 -0.8194 -0.9430
   95SAPC  H13B 9223   6.302   2.464   1.658  1.4406 -1.3083 -1.8024
   95SAPC  H13C 9224   6.420   2.341   1.705 -0.2558 -1.9578 -1.7450
   95SAPC   C14 9225   6.331   2.294   1.956 -0.2120 -0.9431 -0.3567
   95SAPC  H14A 9226   6.430   2.252   1.950  0.9753  1.4901  0.6293
   95SAPC  H14B 9227   6.321   2.320   2.060  2.5466  0.8584 -0.4343
   95SAPC  H14C 9228   6.254   2.224   1.927 -0.8833 -0.2333 -0.3349
   95SAPC   C15 9229   6.192   2.490   1.900 -0.3946  0.1966 -0.6563
   95SAPC  H15A 9230   6.174   2.574   1.835 -0.8173 -0.3153 -1.2114
   95SAPC  H15B 9231   6.116   2.419   1.871 -0.9837  0.9660 -1.0366
   95SAPC  H15C 9232   6.180   2.528   2.000  2.5331  0.1356 -0.2005
   95SAPC   C11 9233   6.452   2.565   2.053 -0.2620  0.8759 -0.1404
   95SAPC  H11A 9234   6.453   2.489   2.134  0.8224 -0.4456 -1.3239
   95SAPC  H11B 9235   6.375   2.642   2.071 -0.8971  1.1389 -3.4148
   95SAPC     P 9236   6.588   2.790   2.026 -0.1598  0.2785 -0.2378
   95SAPC   O13 9237   6.722   2.837   2.012 -0.0472 -0.1683 -0.1631
   95SAPC   O14 9238   6.498   2.826   1.914  0.3540  0.1693  0.0879
   95SAPC   O12 9239   6.573   2.631   2.059 -0.7656 -0.0956  0.4662
   95SAPC   O11 9240   6.520   2.848   2.163  0.2219 -0.0256 -0.2975
   95SAPC    C1 9241   6.581   2.810   2.287 -0.0149  0.1999 -0.0890
   95SAPC    HA 9242   6.631   2.711   2.283 -2.5865 -1.3622  2.2022
   95SAPC    HB 9243   6.661   2.882   2.312 -1.0676  0.9432  1.3070
   95SAPC    C2 9244   6.491   2.801   2.405 -0.4026 -0.8701  0.0501
   95SAPC    HS 9245   6.456   2.901   2.438  1.6636 -0.3845  0.9141
   95SAPC   O21 9246   6.572   2.738   2.513  0.7895  0.9878  0.2698
   95SAPC   C21 9247   6.652   2.821   2.580 -0.4130 -0.0608  0.0272
   95SAPC   O22 9248   6.635   2.942   2.594  0.4533  0.1771  0.0214
   95SAPC   C22 9249   6.755   2.741   2.650 -0.0694  0.0248  0.3967
   95SAPC   H2R 9250   6.717   2.637   2.651 -1.3011  0.4508 -0.0201
   95SAPC   H2S 9251   6.853   2.752   2.598  0.5328  0.6341  1.6235
   95SAPC    C3 9252   6.359   2.723   2.378  0.1212 -0.5102  0.1321
   95SAPC    HX 9253   6.386   2.620   2.345  0.8169  0.1086 -1.3247
   95SAPC    HY 9254   6.306   2.761   2.287  0.4899 -3.1229 -1.2778
   95SAPC   O31 9255   6.280   2.743   2.498  0.0655 -0.0659 -0.4289
   95SAPC   C31 9256   6.177   2.660   2.524 -0.4178  0.2892  0.0105
   95SAPC   O32 9257   6.142   2.568   2.453  0.2693 -0.2827 -0.0587
   95SAPC   C32 9258   6.136   2.683   2.665 -0.3363 -0.6623  0.6477
   95SAPC   H2X 9259   6.039   2.730   2.640 -1.0807 -1.7130  1.4831
   95SAPC   H2Y 9260   6.207   2.752   2.716 -2.7301  1.0372  1.8420
   95SAPC   C23 9261   6.784   2.781   2.799  0.4209 -0.2544 -0.2298
   95SAPC   H3R 9262   6.830   2.882   2.790 -0.5396  0.0974 -1.5806
   95SAPC   H3S 9263   6.869   2.718   2.832  1.8018  1.0647 -1.1328
   95SAPC   C24 9264   6.660   2.773   2.885  0.2089  0.1471  0.1754
   95SAPC   H4R 9265   6.630   2.668   2.906 -0.4547  0.5505  1.3135
   95SAPC   H4S 9266   6.581   2.831   2.833  1.4120  0.8265 -0.9454
   95SAPC   C25 9267   6.697   2.833   3.021  0.1702 -0.2858  0.4247
   95SAPC   H5R 9268   6.798   2.801   3.052  0.5078 -0.1612 -0.5072
   95SAPC   C26 9269   6.625   2.922   3.092  0.5106 -0.3143 -0.8879
   95SAPC   H6R 9270   6.661   2.966   3.186  0.8881 -1.4308 -0.4858
   95SAPC   C27 9271   6.487   2.969   3.049 -0.4744 -0.3473 -0.2533
   95SAPC   H7R 9272   6.429   2.969   3.144  0.8591 -2.2899  0.6362
   95SAPC   H7S 9273   6.428   2.898   2.986 -0.5967 -1.6009  1.1998
   95SAPC   C28 9274   6.480   3.098   2.975  0.1926  0.2091  0.2267
   95SAPC   H8R 9275   6.499   3.090   2.866  0.1773  1.1248  0.1431
   95SAPC   C29 9276   6.432   3.213   3.016 -0.3531 -0.5917 -0.2070
   95SAPC   H9R 9277   6.460   3.298   2.953 -0.1969  3.6604  4.9112
   95SAPC  C210 9278   6.380   3.254   3.150 -0.0968 -0.0927 -0.1606
   95SAPC  H10R 9279   6.379   3.162   3.212 -0.1762 -1.9146 -2.7596
   95SAPC  H10S 9280   6.276   3.296   3.153  0.3752  1.1224  0.1527
   95SAPC  C211 9281   6.480   3.351   3.211 -0.3839 -0.0783 -0.4473
   95SAPC  H11R 9282   6.542   3.405   3.137  0.5526 -1.0337 -0.3888
   95SAPC  C212 9283   6.506   3.353   3.345 -0.3310 -0.4236  0.5193
   95SAPC  H12R 9284   6.590   3.414   3.383 -0.7941 -0.1441  1.0975
   95SAPC  C213 9285   6.423   3.272   3.447  0.1223 -0.2788  0.3692
   95SAPC  H13R 9286   6.441   3.164   3.429  1.1905  0.0848 -0.9355
   95SAPC  H13S 9287   6.318   3.305   3.435  0.4295  0.9389  0.9042
   95SAPC  C214 9288   6.462   3.290   3.585 -0.4498 -0.0017 -0.4314
   95SAPC  H14R 9289   6.472   3.394   3.620  2.0954  0.4545 -2.2641
   95SAPC  C215 9290   6.484   3.191   3.676 -0.0667 -0.6644  0.5550
   95SAPC  H15R 9291   6.532   3.224   3.769 -0.1383  1.5908 -0.1410
   95SAPC  C216 9292   6.478   3.046   3.653 -0.1024 -0.8756 -0.1213
   95SAPC  H16R 9293   6.422   3.012   3.563 -1.1874  0.9211 -0.1715
   95SAPC  H16S 9294   6.431   3.003   3.744 -0.5670 -0.9592 -0.3994
   95SAPC  C217 9295   6.629   3.009   3.633  1.0431 -0.4430 -0.1344
   95SAPC  H17R 9296   6.686   3.028   3.726  2.5539  2.3079 -1.5130
   95SAPC  H17S 9297   6.676   3.074   3.557 -1.6620 -0.4987 -2.0211
   95SAPC  C218 9298   6.641   2.861   3.592 -0.3038  0.4365  0.5746
   95SAPC  H18R 9299   6.570   2.805   3.657 -0.6657 -1.0605 -1.0377
   95SAPC  H18S 9300   6.746   2.830   3.612  0.2542  0.4639 -1.9429
   95SAPC  C219 9301   6.615   2.840   3.445  0.1927 -0.1757  1.1441
   95SAPC  H19R 9302   6.676   2.913   3.387  1.6162 -0.6135  2.0483
   95SAPC  H19S 9303   6.508   2.862   3.422  0.7763  0.1349 -1.7413
   95SAPC  C220 9304   6.648   2.698   3.387 -0.7379 -0.5125 -0.2479
   95SAPC  H20R 9305   6.756   2.679   3.403 -1.3257 -4.2635  0.2241
   95SAPC  H20S 9306   6.622   2.701   3.279 -0.3947 -2.5431 -0.4437
   95SAPC  H20T 9307   6.584   2.624   3.440 -1.2139  0.3248  0.3709
   95SAPC   C33 9308   6.127   2.548   2.736  0.2586 -0.0186 -0.3877
   95SAPC   H3X 9309   6.207   2.473   2.717 -0.7904 -1.4266  0.5205
   95SAPC   H3Y 9310   6.028   2.510   2.703 -0.8978 -0.9038  3.5809
   95SAPC   C34 9311   6.108   2.565   2.890  0.4436  0.4810  0.2673
   95SAPC   H4X 9312   6.182   2.642   2.920 -0.1651  1.5836 -0.9467
   95SAPC   H4Y 9313   6.132   2.466   2.934  0.1952  0.5281  0.5092
   95SAPC   C35 9314   5.966   2.603   2.943  0.0922  0.0073  0.0068
   95SAPC   H5X 9315   5.883   2.537   2.911 -0.1734  1.1692 -1.8264
   95SAPC   H5Y 9316   5.940   2.700   2.896 -2.7159 -1.5772 -2.0056
   95SAPC   C36 9317   5.955   2.598   3.096 -0.0309 -0.4725 -0.1305
   95SAPC   H6X 9318   6.039   2.655   3.140 -0.5922 -0.5181  1.0270
   95SAPC   H6Y 9319   5.977   2.495   3.132 -0.4061 -0.9355 -1.1754
   95SAPC   C37 9320   5.827   2.659   3.163 -0.4443 -0.1679  0.5254
   95SAPC   H7X 9321   5.740   2.618   3.107  1.4454 -1.6692 -1.4898
   95SAPC   H7Y 9322   5.833   2.770   3.162 -0.0276 -0.1205  2.7040
   95SAPC   C38 9323   5.811   2.611   3.306 -0.0465 -0.4072  0.6020
   95SAPC   H8X 9324   5.894   2.660   3.362 -0.9266  0.3726  1.2614
   95SAPC   H8Y 9325   5.831   2.502   3.316 -0.1936 -0.2936  2.7239
   95SAPC   C39 9326   5.672   2.637   3.363  0.2257 -0.1163 -0.6678
   95SAPC   H9X 9327   5.594   2.617   3.286 -1.8867  0.3864  1.2392
   95SAPC   H9Y 9328   5.665   2.744   3.393  1.5311  0.3441 -1.8581
   95SAPC  C310 9329   5.652   2.542   3.485 -0.3619  0.5943 -0.0182
   95SAPC  H10X 9330   5.656   2.435   3.453  2.0064  0.7366 -0.4072
   95SAPC  H10Y 9331   5.556   2.562   3.538 -0.8401  1.3551 -1.1359
   95SAPC  C311 9332   5.755   2.563   3.593 -0.0159  0.5494 -0.2422
   95SAPC  H11X 9333   5.748   2.667   3.631  1.2456  1.3393 -2.0490
   95SAPC  H11Y 9334   5.856   2.541   3.554 -0.2142  0.7283 -0.8666
   95SAPC  C312 9335   5.728   2.481   3.719 -0.6692  0.8070 -0.0541
   95SAPC  H12X 9336   5.724   2.374   3.689  1.8050  0.6490  0.0139
   95SAPC  H12Y 9337   5.627   2.500   3.762  0.0265 -1.4303  2.8274
   95SAPC  C313 9338   5.816   2.504   3.842  0.2215  0.6951  1.0034
   95SAPC  H13X 9339   5.811   2.608   3.882 -2.8127  0.1066  2.4894
   95SAPC  H13Y 9340   5.918   2.475   3.810 -0.2904 -2.0467  1.6226
   95SAPC  C314 9341   5.762   2.421   3.957  0.2019  0.3049  0.5538
   95SAPC  H14X 9342   5.715   2.323   3.932 -1.3050  0.6402  1.9638
   95SAPC  H14Y 9343   5.689   2.491   4.002  1.1481  2.3194 -0.8762
   95SAPC  C315 9344   5.862   2.404   4.073  0.4160  0.1533  0.8855
   95SAPC  H15X 9345   5.898   2.503   4.109  1.5883 -0.0129  0.2384
   95SAPC  H15Y 9346   5.953   2.353   4.034 -0.3748  0.2268 -1.1333
   95SAPC  C316 9347   5.804   2.319   4.178 -0.0886  0.3120  0.4716
   95SAPC  H16X 9348   5.890   2.268   4.226  1.1648  1.0739 -0.9158
   95SAPC  H16Y 9349   5.751   2.232   4.133 -0.6070  0.3274  1.0364
   95SAPC  C317 9350   5.715   2.396   4.275 -0.6915 -0.0759  0.0914
   95SAPC  H17X 9351   5.612   2.417   4.238  0.0211  3.7118 -0.1407
   95SAPC  H17Y 9352   5.772   2.491   4.283  1.1200 -0.3985 -5.1914
   95SAPC  C318 9353   5.688   2.319   4.406  0.1548  0.0950  0.3407
   95SAPC  H18X 9354   5.639   2.391   4.474 -1.2278  0.8129 -1.3354
   95SAPC  H18Y 9355   5.780   2.287   4.459 -0.6446 -1.9846  0.5408
   95SAPC  H18Z 9356   5.619   2.235   4.385 -1.8121  2.0610 -1.5601
   96SAPC     N 9357   5.561   6.145   2.096  0.3184  0.6620 -0.1869
   96SAPC   C12 9358   5.469   6.268   2.099 -1.2801  0.1386 -0.7844
   96SAPC  H12A 9359   5.382   6.252   2.161  0.5017 -0.8319  1.6166
   96SAPC  H12B 9360   5.429   6.284   2.000 -1.9130 -2.4494 -0.9940
   96SAPC   C13 9361   5.644   6.141   1.970  0.2855  0.0417  0.1814
   96SAPC  H13A 9362   5.584   6.163   1.883  1.5270  2.3373 -0.1535
   96SAPC  H13B 9363   5.707   6.229   1.968 -0.9470  0.9493 -0.3299
   96SAPC  H13C 9364   5.706   6.054   1.956 -0.9633 -0.8522  0.0636
   96SAPC   C14 9365   5.657   6.151   2.212 -0.3096 -0.1768 -0.1805
   96SAPC  H14A 9366   5.725   6.068   2.211 -1.3034 -1.0622  1.1438
   96SAPC  H14B 9367   5.722   6.237   2.204 -1.0365  0.5578  1.3038
   96SAPC  H14C 9368   5.610   6.142   2.309  0.6695 -1.0469  0.2301
   96SAPC   C15 9369   5.484   6.016   2.115  0.3078 -0.1495 -0.2989
   96SAPC  H15A 9370   5.412   5.995   2.038 -3.6340 -1.0039  3.2386
   96SAPC  H15B 9371   5.538   5.923   2.110  0.4569 -0.1599  1.1360
   96SAPC  H15C 9372   5.438   6.016   2.213 -0.5908  2.6725 -0.6138
   96SAPC   C11 9373   5.546   6.402   2.154 -0.2006  0.5058  0.0508
   96SAPC  H11A 9374   5.556   6.385   2.264 -1.0922  0.6257  0.1613
   96SAPC  H11B 9375   5.477   6.484   2.126  1.0233  1.6686  0.3177
   96SAPC     P 9376   5.750   6.538   2.161 -0.2751  0.4331 -0.0291
   96SAPC   O13 9377   5.895   6.514   2.138  0.2840  0.1527  0.5156
   96SAPC   O14 9378   5.691   6.670   2.118 -0.0610 -0.6162 -0.4465
   96SAPC   O12 9379   5.669   6.421   2.091  0.5123 -0.5618 -0.2891
   96SAPC   O11 9380   5.733   6.518   2.322  0.1112 -0.1609 -0.0089
   96SAPC    C1 9381   5.691   6.635   2.398  0.1394  0.6605 -0.0475
   96SAPC    HA 9382   5.590   6.675   2.374 -0.1461  0.1982  0.3357
   96SAPC    HB 9383   5.679   6.600   2.503 -0.1375  1.5029  0.2032
   96SAPC    C2 9384   5.805   6.743   2.410  0.5267  0.2502 -0.8662
   96SAPC    HS 9385   5.837   6.777   2.309  1.7132  0.0287 -0.5846
   96SAPC   O21 9386   5.915   6.679   2.477 -0.6206  0.0946  0.2552
   96SAPC   C21 9387   6.037   6.736   2.484  0.2489 -0.4532 -0.1079
   96SAPC   O22 9388   6.050   6.853   2.451  0.1569 -0.1415  0.5090
   96SAPC   C22 9389   6.140   6.646   2.541 -0.5103 -0.0931  0.2462
   96SAPC   H2R 9390   6.113   6.538   2.533  0.3020 -0.1622 -2.7389
   96SAPC   H2S 9391   6.236   6.660   2.488 -0.6821 -3.1500 -1.0929
   96SAPC    C3 9392   5.754   6.867   2.489  0.0629 -0.4832 -0.2107
   96SAPC    HX 9393   5.677   6.916   2.427 -1.3578 -0.7189  1.3084
   96SAPC    HY 9394   5.835   6.942   2.506  0.6105 -1.1647  0.2746
   96SAPC   O31 9395   5.702   6.824   2.617 -0.3834  0.0361 -0.5311
   96SAPC   C31 9396   5.572   6.834   2.644 -0.4706  0.4592 -0.1461
   96SAPC   O32 9397   5.489   6.888   2.572  0.1129  0.0170 -0.4691
   96SAPC   C32 9398   5.536   6.751   2.766 -0.6066  0.2688  0.2721
   96SAPC   H2X 9399   5.631   6.720   2.814 -0.3855  1.1530  0.4121
   96SAPC   H2Y 9400   5.471   6.663   2.743 -0.4227 -0.1517  1.3186
   96SAPC   C23 9401   6.155   6.695   2.690  1.0959  0.6135  0.3034
   96SAPC   H3R 9402   6.162   6.805   2.705 -0.8469  0.9564 -1.1079
   96SAPC   H3S 9403   6.237   6.637   2.739 -0.7189 -2.9654 -0.5735
   96SAPC   C24 9404   6.034   6.647   2.766  0.1772  0.1074 -0.3782
   96SAPC   H4R 9405   5.998   6.549   2.728 -1.5438  1.2104 -1.7562
   96SAPC   H4S 9406   5.953   6.712   2.727 -0.5899 -0.9168 -0.5311
   96SAPC   C25 9407   6.060   6.651   2.918  0.2837  0.1871 -0.0531
   96SAPC   H5R 9408   6.156   6.604   2.944  0.0032  0.4389  1.5071
   96SAPC   C26 9409   5.987   6.690   3.023 -0.1530  0.4749 -0.3744
   96SAPC   H6R 9410   6.026   6.674   3.125 -1.7261  1.1029  0.3600
   96SAPC   C27 9411   5.846   6.754   3.015 -0.2995  0.3723 -0.5874
   96SAPC   H7R 9412   5.773   6.671   3.019  2.1162 -1.8704  0.2283
   96SAPC   H7S 9413   5.844   6.808   2.918 -0.7982 -1.5025 -1.6583
   96SAPC   C28 9414   5.810   6.845   3.130 -0.1774 -0.0139  0.1510
   96SAPC   H8R 9415   5.799   6.953   3.114 -1.2478  0.0598  1.2339
   96SAPC   C29 9416   5.789   6.814   3.258 -0.6101  0.6720 -0.1227
   96SAPC   H9R 9417   5.774   6.893   3.333 -0.6710 -1.4719  2.2875
   96SAPC  C210 9418   5.788   6.679   3.322  0.2753  0.4976  0.6952
   96SAPC  H10R 9419   5.849   6.606   3.265 -0.0434 -1.4560  2.6728
   96SAPC  H10S 9420   5.689   6.629   3.329  0.2471  0.0987 -1.8928
   96SAPC  C211 9421   5.849   6.682   3.469 -0.8224 -0.0853  0.2839
   96SAPC  H11R 9422   5.956   6.707   3.470 -0.5880 -1.0753  1.4540
   96SAPC  C212 9423   5.796   6.645   3.586 -0.4101 -0.1310  0.6042
   96SAPC  H12R 9424   5.851   6.658   3.680  1.2829  0.8671 -0.4716
   96SAPC  C213 9425   5.657   6.605   3.614 -0.2536  0.0531  0.4574
   96SAPC  H13R 9426   5.662   6.504   3.660 -0.5074 -0.4027 -0.5038
   96SAPC  H13S 9427   5.597   6.609   3.520  1.6956 -0.2578 -0.8515
   96SAPC  C214 9428   5.594   6.686   3.721  0.7903 -0.2881 -0.7938
   96SAPC  H14R 9429   5.521   6.763   3.691 -0.0349 -0.7686 -0.0954
   96SAPC  C215 9430   5.639   6.689   3.849 -0.5817 -0.2261 -0.0101
   96SAPC  H15R 9431   5.595   6.757   3.923  0.1716 -1.5610  1.7433
   96SAPC  C216 9432   5.737   6.606   3.925  1.2237 -0.0139 -0.0494
   96SAPC  H16R 9433   5.830   6.664   3.946  0.6631  1.2166 -0.8021
   96SAPC  H16S 9434   5.768   6.514   3.870 -2.1435 -1.5954  0.4664
   96SAPC  C217 9435   5.690   6.550   4.060  0.5093 -0.2255 -0.2915
   96SAPC  H17R 9436   5.779   6.511   4.114  0.0251  0.1760  0.8102
   96SAPC  H17S 9437   5.617   6.466   4.054  0.5744 -0.4710  1.6659
   96SAPC  C218 9438   5.627   6.653   4.160  0.2761 -0.6669 -0.5616
   96SAPC  H18R 9439   5.518   6.655   4.136  0.7369  0.0055 -2.8801
   96SAPC  H18S 9440   5.678   6.751   4.159  0.1903 -0.5928  0.9788
   96SAPC  C219 9441   5.630   6.607   4.308 -0.4439 -0.2977  0.9646
   96SAPC  H19R 9442   5.578   6.688   4.363  1.4278  1.5121  0.1823
   96SAPC  H19S 9443   5.734   6.592   4.346  1.7206  0.9863 -3.6940
   96SAPC  C220 9444   5.558   6.470   4.330 -0.6366  0.2164 -0.0653
   96SAPC  H20R 9445   5.457   6.480   4.286 -1.0310 -0.2750  0.7072
   96SAPC  H20S 9446   5.546   6.456   4.440 -0.6811  1.4517  0.1016
   96SAPC  H20T 9447   5.614   6.382   4.293 -0.1841  0.5885 -0.2775
   96SAPC   C33 9448   5.465   6.839   2.867 -0.4620  0.1463 -0.2335
   96SAPC   H3X 9449   5.373   6.871   2.814  0.7970  1.9496 -1.4467
   96SAPC   H3Y 9450   5.525   6.926   2.902  0.5552 -0.8348  0.5295
   96SAPC   C34 9451   5.431   6.757   2.984  0.2925  0.3004 -0.3461
   96SAPC   H4X 9452   5.528   6.727   3.030 -0.0726  1.3259  1.1653
   96SAPC   H4Y 9453   5.384   6.664   2.946  2.5910 -1.5029  0.9667
   96SAPC   C35 9454   5.341   6.828   3.094 -0.7703 -0.4219 -0.3432
   96SAPC   H5X 9455   5.251   6.867   3.042  0.5112  2.4763 -0.5458
   96SAPC   H5Y 9456   5.393   6.920   3.126 -2.2566  0.8329 -1.3535
   96SAPC   C36 9457   5.324   6.730   3.203 -0.3398 -0.2005 -0.6941
   96SAPC   H6X 9458   5.419   6.676   3.224  0.0800  0.5926 -0.5230
   96SAPC   H6Y 9459   5.242   6.661   3.174 -0.9426 -0.3543  1.2280
   96SAPC   C37 9460   5.296   6.794   3.338 -0.3490 -0.3263  0.0266
   96SAPC   H7X 9461   5.211   6.864   3.325 -0.6101 -0.8281 -1.0774
   96SAPC   H7Y 9462   5.383   6.854   3.373 -1.6869  0.1615  2.7711
   96SAPC   C38 9463   5.236   6.700   3.438 -0.1002  0.2344 -1.2903
   96SAPC   H8X 9464   5.309   6.627   3.478 -1.7184 -0.7141  0.0220
   96SAPC   H8Y 9465   5.153   6.641   3.394 -0.4310 -1.6381  1.5788
   96SAPC   C39 9466   5.183   6.768   3.565  0.6621 -0.2590 -0.2377
   96SAPC   H9X 9467   5.084   6.816   3.549  0.9505  0.2796 -0.4191
   96SAPC   H9Y 9468   5.255   6.846   3.597 -0.4067  0.5529  0.2386
   96SAPC  C310 9469   5.153   6.675   3.677  0.5589  0.0135 -0.9778
   96SAPC  H10X 9470   5.246   6.631   3.718  0.6011  1.0988  0.1652
   96SAPC  H10Y 9471   5.086   6.600   3.631  1.6883 -1.3696 -0.4323
   96SAPC  C311 9472   5.079   6.754   3.796  0.2461 -0.3023 -0.1455
   96SAPC  H11X 9473   5.062   6.678   3.876  0.8817  0.7157  0.9912
   96SAPC  H11Y 9474   4.981   6.796   3.766 -0.4131  0.2664  2.5160
   96SAPC  C312 9475   5.173   6.859   3.852 -0.6657 -0.7244 -0.6176
   96SAPC  H12X 9476   5.220   6.936   3.787  0.1637  1.4981  2.3841
   96SAPC  H12Y 9477   5.256   6.797   3.892 -0.0238 -0.0728 -0.9221
   96SAPC  C313 9478   5.098   6.941   3.958  0.1618  0.8701 -0.1144
   96SAPC  H13X 9479   5.046   6.877   4.033  0.4624  0.6557 -0.0906
   96SAPC  H13Y 9480   5.019   6.995   3.901 -1.8809 -1.1280  0.6289
   96SAPC  C314 9481   5.191   7.015   4.063  0.4341 -0.1599  0.4208
   96SAPC  H14X 9482   5.250   6.938   4.118 -0.8574 -0.7445  1.0155
   96SAPC  H14Y 9483   5.122   7.064   4.134 -0.6283  0.3049 -0.8828
   96SAPC  C315 9484   5.279   7.131   4.006 -0.2239  0.1770 -0.0053
   96SAPC  H15X 9485   5.205   7.201   3.961 -0.8703 -2.5312 -3.5273
   96SAPC  H15Y 9486   5.347   7.096   3.926  0.9430 -0.6728  1.3221
   96SAPC  C316 9487   5.357   7.217   4.113  0.2878  0.4019  0.9030
   96SAPC  H16X 9488   5.390   7.313   4.068  3.1589 -0.0081  1.9035
   96SAPC  H16Y 9489   5.442   7.162   4.159 -1.1133 -1.6061  1.2015
   96SAPC  C317 9490   5.263   7.255   4.235  0.2470 -0.2038  0.4482
   96SAPC  H17X 9491   5.317   7.305   4.318 -0.6502  0.4847  0.6338
   96SAPC  H17Y 9492   5.225   7.157   4.271 -2.5754  0.2859 -0.8987
   96SAPC  C318 9493   5.150   7.351   4.203  0.1169  0.5624  0.2570
   96SAPC  H18X 9494   5.095   7.306   4.118 -2.0290  0.6110  1.5546
   96SAPC  H18Y 9495   5.185   7.453   4.180  1.4882  0.2533  0.8677
   96SAPC  H18Z 9496   5.082   7.356   4.291 -0.4368 -1.6508  0.0121
   97SAPC     N 9497   6.473   3.424   1.886  0.3477  1.2591  0.3256
   97SAPC   C12 9498   6.379   3.502   1.973  0.8593  0.3006  0.4193
   97SAPC  H12A 9499   6.381   3.461   2.072 -0.9277 -0.3640  0.2288
   97SAPC  H12B 9500   6.279   3.497   1.931  0.1873  2.3010  1.6901
   97SAPC   C13 9501   6.622   3.433   1.929  0.2207 -0.9023 -0.5682
   97SAPC  H13A 9502   6.672   3.529   1.924 -0.9079 -0.1454  1.5413
   97SAPC  H13B 9503   6.624   3.400   2.031 -0.9870  2.4323  0.6685
   97SAPC  H13C 9504   6.675   3.373   1.857 -1.6578 -1.6502 -1.3687
   97SAPC   C14 9505   6.442   3.279   1.899 -0.1408 -0.1519 -0.0731
   97SAPC  H14A 9506   6.443   3.245   2.001 -3.5421 -1.6266 -0.4137
   97SAPC  H14B 9507   6.348   3.257   1.850 -0.3596 -1.7808  1.0073
   97SAPC  H14C 9508   6.526   3.226   1.855 -0.5939  1.9430 -3.9356
   97SAPC   C15 9509   6.456   3.467   1.739  0.3296 -0.1534 -1.0067
   97SAPC  H15A 9510   6.515   3.412   1.667  1.9501  0.2407 -0.0180
   97SAPC  H15B 9511   6.350   3.453   1.719 -0.1905 -1.1873  1.9146
   97SAPC  H15C 9512   6.466   3.574   1.733 -0.4992  0.3918  3.6969
   97SAPC   C11 9513   6.397   3.656   1.988  0.0378 -0.2882 -0.3546
   97SAPC  H11A 9514   6.311   3.690   2.050  0.2792 -0.8559  0.3102
   97SAPC  H11B 9515   6.383   3.706   1.890  1.1583 -1.2846 -1.0508
   97SAPC     P 9516   6.543   3.655   2.204 -0.1480 -0.1191  0.1821
   97SAPC   O13 9517   6.578   3.510   2.209  0.7462 -0.7029  0.1505
   97SAPC   O14 9518   6.632   3.751   2.264  0.1441 -0.5736  0.5276
   97SAPC   O12 9519   6.527   3.691   2.046 -0.5060  0.3570  0.7507
   97SAPC   O11 9520   6.396   3.666   2.268 -0.2020 -0.0458  0.1172
   97SAPC    C1 9521   6.341   3.784   2.318 -0.5761 -0.0582  0.6152
   97SAPC    HA 9522   6.411   3.870   2.310  2.9161 -2.4887  2.6711
   97SAPC    HB 9523   6.251   3.796   2.254 -0.2257 -2.3168 -0.3745
   97SAPC    C2 9524   6.296   3.793   2.471  0.5452  0.5332 -0.7934
   97SAPC    HS 9525   6.393   3.774   2.521  0.8576 -0.4099 -1.7102
   97SAPC   O21 9526   6.194   3.683   2.483 -0.0548  0.2322 -0.1578
   97SAPC   C21 9527   6.202   3.626   2.602  0.4744  0.1874  0.1466
   97SAPC   O22 9528   6.283   3.658   2.684 -1.0182 -0.0782 -0.3604
   97SAPC   C22 9529   6.081   3.535   2.625  0.6462  0.1780 -0.0296
   97SAPC   H2R 9530   5.987   3.590   2.601  0.2928  0.4706  1.8459
   97SAPC   H2S 9531   6.097   3.453   2.552 -1.3329 -1.2235  1.0029
   97SAPC    C3 9532   6.227   3.930   2.498 -0.4650 -0.0577 -0.9336
   97SAPC    HX 9533   6.150   3.912   2.576 -1.1621  1.1801 -1.2995
   97SAPC    HY 9534   6.173   3.952   2.403 -2.0919 -2.4763 -0.6501
   97SAPC   O31 9535   6.327   4.026   2.539  0.3461 -0.9876  0.1365
   97SAPC   C31 9536   6.268   4.126   2.606  1.3451  0.2008 -0.3077
   97SAPC   O32 9537   6.149   4.127   2.639  0.2655  0.1995 -0.3279
   97SAPC   C32 9538   6.369   4.236   2.627 -0.2671  0.3990 -0.2768
   97SAPC   H2X 9539   6.318   4.335   2.631 -1.1715 -0.0920  0.7864
   97SAPC   H2Y 9540   6.437   4.237   2.540  1.9885  1.8809  1.3658
   97SAPC   C23 9541   6.065   3.482   2.772  0.1802  0.5614  0.5122
   97SAPC   H3R 9542   6.042   3.565   2.842 -0.5923 -0.3309  1.3615
   97SAPC   H3S 9543   6.160   3.428   2.791  0.4210  1.0761  0.7864
   97SAPC   C24 9544   5.945   3.385   2.784 -0.5320 -0.1351 -0.5064
   97SAPC   H4R 9545   5.963   3.299   2.716 -0.0235  0.0778 -0.6428
   97SAPC   H4S 9546   5.846   3.422   2.749 -0.3769 -1.8225 -3.0451
   97SAPC   C25 9547   5.924   3.336   2.927  0.2062  0.2220  0.0601
   97SAPC   H5R 9548   6.021   3.326   2.978  0.2826  0.8658  0.0525
   97SAPC   C26 9549   5.809   3.294   2.985 -0.0147 -0.0899 -0.2500
   97SAPC   H6R 9550   5.812   3.274   3.093 -0.5548  1.0200 -0.0228
   97SAPC   C27 9551   5.664   3.303   2.930  0.5943  0.2739 -0.3341
   97SAPC   H7R 9552   5.621   3.201   2.915  1.4776 -0.8212  3.5837
   97SAPC   H7S 9553   5.654   3.340   2.825  1.7887  2.9347  0.4021
   97SAPC   C28 9554   5.584   3.388   3.023 -0.4985  0.2725 -0.1632
   97SAPC   H8R 9555   5.649   3.463   3.070  0.8019  1.0175 -2.9085
   97SAPC   C29 9556   5.446   3.397   3.027 -0.2087  0.0123  0.0410
   97SAPC   H9R 9557   5.407   3.466   3.103  1.7644  0.7460  0.4478
   97SAPC  C210 9558   5.344   3.321   2.944  0.6014 -0.1389 -0.4428
   97SAPC  H10R 9559   5.310   3.227   2.993  1.2390 -0.7161 -1.0833
   97SAPC  H10S 9560   5.393   3.272   2.858  0.3552 -0.2997 -0.4911
   97SAPC  C211 9561   5.231   3.411   2.899  0.3353  0.3758 -0.0033
   97SAPC  H11R 9562   5.251   3.456   2.801 -1.5517 -0.3549 -0.7718
   97SAPC  C212 9563   5.117   3.429   2.967 -0.0770 -0.2647 -0.1024
   97SAPC  H12R 9564   5.038   3.491   2.924  1.5409  2.0143  0.0109
   97SAPC  C213 9565   5.071   3.359   3.091 -0.6407 -0.6628  0.0035
   97SAPC  H13R 9566   5.115   3.411   3.179  0.7748 -0.1688 -0.9670
   97SAPC  H13S 9567   5.115   3.257   3.091 -1.2961 -0.9557 -0.6590
   97SAPC  C214 9568   4.926   3.351   3.096  0.0114 -0.1093  0.5431
   97SAPC  H14R 9569   4.860   3.394   3.019 -1.5690 -1.8448  0.8444
   97SAPC  C215 9570   4.860   3.267   3.176 -0.3056 -1.1648  1.1947
   97SAPC  H15R 9571   4.751   3.281   3.176 -0.0479  1.0931  0.8245
   97SAPC  C216 9572   4.915   3.189   3.290 -0.2855 -0.3207 -0.1429
   97SAPC  H16R 9573   5.026   3.197   3.301  0.1000  0.3589 -3.4695
   97SAPC  H16S 9574   4.892   3.081   3.281  2.2383 -0.9791  0.3223
   97SAPC  C217 9575   4.854   3.238   3.432 -0.1941  0.1000 -0.1559
   97SAPC  H17R 9576   4.745   3.259   3.432  0.0756  1.7627 -2.0949
   97SAPC  H17S 9577   4.894   3.339   3.451  0.1645  0.1199 -0.9456
   97SAPC  C218 9578   4.895   3.131   3.542 -0.3143 -0.5671  0.0013
   97SAPC  H18R 9579   5.004   3.107   3.535 -0.2695 -0.1182 -1.1067
   97SAPC  H18S 9580   4.843   3.038   3.513  0.7841 -0.5496 -2.2754
   97SAPC  C219 9581   4.871   3.177   3.683  0.2196 -0.0852  0.2478
   97SAPC  H19R 9582   4.773   3.229   3.691  0.4003  0.2498  0.3099
   97SAPC  H19S 9583   4.947   3.253   3.709  2.9296 -3.2701  2.5675
   97SAPC  C220 9584   4.865   3.059   3.776  0.0634 -0.4545 -0.1118
   97SAPC  H20R 9585   4.969   3.036   3.808  0.3791  0.3066 -0.5850
   97SAPC  H20S 9586   4.813   2.979   3.718 -0.0824  1.3737 -2.6793
   97SAPC  H20T 9587   4.801   3.076   3.865 -0.3288  0.5257 -0.5615
   97SAPC   C33 9588   6.452   4.217   2.755 -0.1077 -0.1656  0.2647
   97SAPC   H3X 9589   6.540   4.152   2.737 -1.0512 -1.0900 -1.1637
   97SAPC   H3Y 9590   6.389   4.181   2.839  0.1940 -1.2077  0.0569
   97SAPC   C34 9591   6.511   4.352   2.813 -0.8049  0.3180  0.2290
   97SAPC   H4X 9592   6.436   4.412   2.868  0.5342  1.0526  1.2859
   97SAPC   H4Y 9593   6.527   4.421   2.728  3.2703 -0.6761 -0.0310
   97SAPC   C35 9594   6.634   4.346   2.895 -0.0643  0.0228  0.0972
   97SAPC   H5X 9595   6.667   4.448   2.920 -0.3081  0.1035  0.0882
   97SAPC   H5Y 9596   6.717   4.304   2.834  0.1376 -0.1989  0.5197
   97SAPC   C36 9597   6.627   4.267   3.027 -0.1311 -0.1285  0.0218
   97SAPC   H6X 9598   6.726   4.245   3.071  0.6390  1.2357 -0.9461
   97SAPC   H6Y 9599   6.583   4.169   2.999 -2.0853  0.2381  1.5431
   97SAPC   C37 9600   6.541   4.338   3.140 -0.5279 -0.8004 -0.4148
   97SAPC   H7X 9601   6.431   4.328   3.123 -0.4596  2.1219 -3.4293
   97SAPC   H7Y 9602   6.571   4.444   3.138  0.7753 -0.9139  3.6525
   97SAPC   C38 9603   6.573   4.296   3.284  0.4405 -0.1542  0.4707
   97SAPC   H8X 9604   6.674   4.330   3.318 -0.3025  2.6346  0.0683
   97SAPC   H8Y 9605   6.568   4.185   3.295 -0.2102 -0.1218  0.5134
   97SAPC   C39 9606   6.479   4.354   3.390 -0.5433 -0.4262 -0.2058
   97SAPC   H9X 9607   6.374   4.350   3.355  0.0794  0.5727 -2.3589
   97SAPC   H9Y 9608   6.509   4.458   3.414  1.2914 -0.4026 -2.2577
   97SAPC  C310 9609   6.492   4.271   3.519 -0.1617 -0.1933 -0.2739
   97SAPC  H10X 9610   6.436   4.178   3.495 -0.1530  0.4747 -3.4182
   97SAPC  H10Y 9611   6.439   4.328   3.599 -2.2143 -0.6313 -1.2446
   97SAPC  C311 9612   6.639   4.254   3.561 -0.7853 -0.9293  0.0936
   97SAPC  H11X 9613   6.680   4.356   3.580 -1.5757 -0.3417 -1.1972
   97SAPC  H11Y 9614   6.706   4.206   3.486 -1.2622  1.3325 -1.9316
   97SAPC  C312 9615   6.655   4.175   3.695  0.3914 -0.3422  0.3597
   97SAPC  H12X 9616   6.757   4.182   3.737  0.6920  2.1831 -0.6246
   97SAPC  H12Y 9617   6.634   4.066   3.684  0.4893 -0.3282  0.0078
   97SAPC  C313 9618   6.575   4.230   3.806  0.2541 -0.3190 -0.5984
   97SAPC  H13X 9619   6.465   4.221   3.790  0.0929 -0.6766  0.5589
   97SAPC  H13Y 9620   6.598   4.338   3.818 -1.3953 -0.0843  1.0962
   97SAPC  C314 9621   6.617   4.160   3.941  0.6897  0.1252 -0.7662
   97SAPC  H14X 9622   6.727   4.171   3.955  0.6419  0.1210 -0.3819
   97SAPC  H14Y 9623   6.599   4.051   3.927 -0.2246  0.0196  1.0560
   97SAPC  C315 9624   6.546   4.222   4.061 -0.3035 -0.2746  0.2589
   97SAPC  H15X 9625   6.454   4.161   4.069 -0.8516  0.0140 -2.7286
   97SAPC  H15Y 9626   6.521   4.326   4.032 -2.8612 -0.8927 -0.0262
   97SAPC  C316 9627   6.633   4.217   4.189 -0.0087 -0.6231  0.6354
   97SAPC  H16X 9628   6.722   4.280   4.164 -2.8211  2.6498 -2.1731
   97SAPC  H16Y 9629   6.659   4.114   4.221  1.5906 -0.5038 -0.1880
   97SAPC  C317 9630   6.563   4.279   4.307  0.4382 -0.8350 -0.1529
   97SAPC  H17X 9631   6.502   4.365   4.273  2.5314  0.2561 -1.3959
   97SAPC  H17Y 9632   6.630   4.328   4.382  0.7305 -1.3057 -0.1030
   97SAPC  C318 9633   6.475   4.184   4.386  0.1811  0.4811 -0.8699
   97SAPC  H18X 9634   6.439   4.107   4.314  0.4680  1.2838 -1.9024
   97SAPC  H18Y 9635   6.396   4.241   4.439 -0.7484 -0.8209 -0.7958
   97SAPC  H18Z 9636   6.537   4.139   4.467  0.6616 -0.1953 -1.5972
   98SAPC     N 9637   0.283   0.698   1.572  0.1905  0.6889 -0.4626
   98SAPC   C12 9638   0.326   0.736   1.716 -0.3491 -0.7887 -0.2894
   98SAPC  H12A 9639   0.355   0.840   1.717 -0.5787 -0.6486 -2.6757
   98SAPC  H12B 9640   0.418   0.681   1.728 -0.1395 -0.5786 -0.9370
   98SAPC   C13 9641   0.374   0.762   1.476 -0.2717  0.0931  0.2391
   98SAPC  H13A 9642   0.469   0.773   1.525 -0.4060 -0.0672  0.5415
   98SAPC  H13B 9643   0.372   0.705   1.384  0.6715  1.1030 -0.4210
   98SAPC  H13C 9644   0.344   0.863   1.454 -1.8659 -0.6259 -1.1716
   98SAPC   C14 9645   0.282   0.547   1.542  0.2152 -0.0280  0.2211
   98SAPC  H14A 9646   0.383   0.510   1.530 -0.3286 -1.1904 -1.0335
   98SAPC  H14B 9647   0.231   0.493   1.619 -0.7920  0.2847 -0.2099
   98SAPC  H14C 9648   0.225   0.529   1.452  0.8399 -1.8364  0.1451
   98SAPC   C15 9649   0.139   0.739   1.547  1.1279  0.0706 -0.9180
   98SAPC  H15A 9650   0.074   0.681   1.611  1.2886  0.7381 -0.1429
   98SAPC  H15B 9651   0.130   0.844   1.568  0.9689 -0.1391  0.0834
   98SAPC  H15C 9652   0.124   0.721   1.441  2.3543  1.1134 -1.2924
   98SAPC   C11 9653   0.233   0.684   1.831  0.1056  0.6445 -0.1784
   98SAPC  H11A 9654   0.129   0.723   1.825 -0.5032 -1.0081 -0.8762
   98SAPC  H11B 9655   0.279   0.726   1.923 -2.2643 -0.4172  1.5968
   98SAPC     P 9656   0.354   0.448   1.865  0.0772  0.1415  0.2040
   98SAPC   O13 9657   0.344   0.330   1.778  0.4780 -0.5526 -0.3344
   98SAPC   O14 9658   0.477   0.530   1.858 -0.2602  0.1383 -0.0776
   98SAPC   O12 9659   0.230   0.542   1.836  0.0082 -0.1235 -1.0012
   98SAPC   O11 9660   0.330   0.396   2.013  0.7951 -0.6267 -0.1528
   98SAPC    C1 9661   0.198   0.360   2.068 -0.4356 -0.1554  0.6061
   98SAPC    HA 9662   0.114   0.367   1.996  0.6524 -0.8260 -0.7774
   98SAPC    HB 9663   0.191   0.249   2.074  0.8577 -0.3077 -0.4009
   98SAPC    C2 9664   0.175   0.425   2.201 -0.5096  0.0850  0.2469
   98SAPC    HS 9665   0.120   0.347   2.257 -0.9887 -1.6367 -2.4645
   98SAPC   O21 9666   0.108   0.552   2.190  0.0717  0.5219 -0.1230
   98SAPC   C21 9667  -0.023   0.544   2.159  0.8164 -0.3133 -0.7015
   98SAPC   O22 9668  -0.089   0.443   2.138  0.0223 -0.3119 -0.1270
   98SAPC   C22 9669  -0.081   0.680   2.139  0.2231 -0.4293 -0.6480
   98SAPC   H2R 9670  -0.120   0.681   2.035  1.3496 -0.7775 -1.0861
   98SAPC   H2S 9671  -0.157   0.697   2.218  3.1818 -1.1896  2.6050
   98SAPC    C3 9672   0.308   0.447   2.278  0.6074  0.2833 -0.1495
   98SAPC    HX 9673   0.364   0.524   2.222 -0.4750  0.8315 -0.4932
   98SAPC    HY 9674   0.370   0.355   2.269  2.3018  1.1847  1.6942
   98SAPC   O31 9675   0.291   0.487   2.415  0.1899 -0.0647  0.4198
   98SAPC   C31 9676   0.327   0.399   2.510 -0.6429  0.1589  0.5735
   98SAPC   O32 9677   0.380   0.292   2.485 -0.4169  0.2080  0.0343
   98SAPC   C32 9678   0.295   0.452   2.642 -0.1019  0.5903 -0.0154
   98SAPC   H2X 9679   0.210   0.389   2.679 -0.6901 -0.0190 -2.2406
   98SAPC   H2Y 9680   0.252   0.554   2.645 -2.8824 -0.4792  2.4395
   98SAPC   C23 9681   0.009   0.801   2.149  0.3282 -0.2529 -0.7016
   98SAPC   H3R 9682  -0.046   0.880   2.095 -1.0197 -1.2232 -0.7972
   98SAPC   H3S 9683   0.104   0.797   2.091  1.7490  0.2619  1.4596
   98SAPC   C24 9684   0.057   0.852   2.293  0.6271  0.8992  0.6155
   98SAPC   H4R 9685   0.113   0.947   2.277 -1.3394  2.0691  0.3957
   98SAPC   H4S 9686   0.117   0.777   2.349 -1.5451 -0.7979  0.7890
   98SAPC   C25 9687  -0.058   0.904   2.370  0.2090  0.0585  0.2441
   98SAPC   H5R 9688  -0.131   0.943   2.296  0.7738 -1.0621 -0.9447
   98SAPC   C26 9689  -0.076   0.900   2.503  0.1368 -0.0776 -0.6015
   98SAPC   H6R 9690  -0.172   0.942   2.536  0.0466  1.3010 -2.4846
   98SAPC   C27 9691   0.016   0.832   2.608  0.3973 -0.0480 -0.1733
   98SAPC   H7R 9692   0.122   0.842   2.574  1.4696 -2.2901  2.1509
   98SAPC   H7S 9693  -0.000   0.723   2.617  1.3890 -0.2976 -1.1371
   98SAPC   C28 9694  -0.006   0.898   2.743  0.6079  0.3202 -0.3063
   98SAPC   H8R 9695  -0.015   1.007   2.742 -1.2347  0.1838 -1.3921
   98SAPC   C29 9696   0.018   0.839   2.869 -0.4571 -0.7183 -0.3178
   98SAPC   H9R 9697  -0.015   0.897   2.956 -0.8498 -1.9641  0.3792
   98SAPC  C210 9698   0.070   0.696   2.891  0.2329  0.6102 -0.2062
   98SAPC  H10R 9699   0.137   0.692   2.980  1.4645  1.1272 -1.0856
   98SAPC  H10S 9700   0.128   0.680   2.798 -1.3030 -1.8270 -0.8488
   98SAPC  C211 9701  -0.044   0.597   2.903 -0.0035  0.4993  0.4510
   98SAPC  H11R 9702  -0.063   0.547   2.807 -0.7916  1.5232  0.0530
   98SAPC  C212 9703  -0.101   0.547   3.020  0.0929  0.0500  0.4727
   98SAPC  H12R 9704  -0.177   0.467   3.019  0.9377 -0.7635  0.1972
   98SAPC  C213 9705  -0.073   0.608   3.153  0.5215  0.0024 -0.0784
   98SAPC  H13R 9706  -0.169   0.657   3.177  1.2584  1.0810  0.8008
   98SAPC  H13S 9707  -0.009   0.699   3.140  1.6982 -0.9938 -1.5772
   98SAPC  C214 9708  -0.017   0.514   3.261 -0.6163  0.1628  0.9594
   98SAPC  H14R 9709   0.093   0.504   3.253 -0.2608  3.2023  0.7736
   98SAPC  C215 9710  -0.084   0.452   3.354  0.1774  0.0061  0.4709
   98SAPC  H15R 9711  -0.024   0.397   3.428  0.6844 -0.4566 -0.2737
   98SAPC  C216 9712  -0.230   0.448   3.381  0.1934 -0.5501  0.0267
   98SAPC  H16R 9713  -0.254   0.352   3.430 -0.1001 -0.8076 -0.6023
   98SAPC  H16S 9714  -0.287   0.446   3.285  0.7602 -0.9400 -0.3031
   98SAPC  C217 9715  -0.291   0.564   3.461  0.0977  0.2829 -0.5203
   98SAPC  H17R 9716  -0.395   0.543   3.492  0.3973 -0.2933  0.1420
   98SAPC  H17S 9717  -0.294   0.660   3.405  1.5062  0.7223  0.0987
   98SAPC  C218 9718  -0.225   0.601   3.599 -0.0590  0.2088  0.1675
   98SAPC  H18R 9719  -0.268   0.697   3.637 -2.4800 -0.9700  0.5781
   98SAPC  H18S 9720  -0.117   0.614   3.576  0.3713 -1.2683  1.2702
   98SAPC  C219 9721  -0.261   0.496   3.709 -0.0565  0.0648  0.2744
   98SAPC  H19R 9722  -0.228   0.398   3.669 -0.0809  0.1082  0.1461
   98SAPC  H19S 9723  -0.372   0.501   3.720 -0.0420  0.2945  0.3145
   98SAPC  C220 9724  -0.192   0.521   3.846  0.6884 -0.2116  0.5209
   98SAPC  H20R 9725  -0.236   0.618   3.877 -1.3040  0.2873 -3.3823
   98SAPC  H20S 9726  -0.081   0.525   3.835  0.6133 -0.3793 -0.3649
   98SAPC  H20T 9727  -0.223   0.445   3.921 -1.0371  0.3998  0.4716
   98SAPC   C33 9728   0.409   0.447   2.744 -0.2916 -0.0510  0.5893
   98SAPC   H3X 9729   0.485   0.517   2.704  0.1729 -2.1116 -2.4647
   98SAPC   H3Y 9730   0.463   0.350   2.740  0.6575  0.4900 -0.2819
   98SAPC   C34 9731   0.377   0.482   2.886 -0.0680  0.0758  0.0074
   98SAPC   H4X 9732   0.282   0.429   2.909 -0.6703  1.9208  2.1536
   98SAPC   H4Y 9733   0.361   0.591   2.902  0.1842 -0.0029  0.8516
   98SAPC   C35 9734   0.488   0.441   2.985  0.0960  0.1863 -0.0931
   98SAPC   H5X 9735   0.580   0.491   2.950  0.3789 -0.0825  0.2577
   98SAPC   H5Y 9736   0.506   0.331   2.991 -2.2526 -0.3477 -1.4685
   98SAPC   C36 9737   0.461   0.487   3.136 -0.1883 -0.0723  0.3185
   98SAPC   H6X 9738   0.357   0.458   3.165  0.4463 -0.6120  2.2791
   98SAPC   H6Y 9739   0.478   0.596   3.146  1.0517  0.0091 -2.0023
   98SAPC   C37 9740   0.556   0.419   3.230 -0.4663  0.5196 -0.0301
   98SAPC   H7X 9741   0.660   0.434   3.193 -0.4061 -2.1170 -1.1524
   98SAPC   H7Y 9742   0.533   0.310   3.237 -1.7725  0.5272 -2.8301
   98SAPC   C38 9743   0.546   0.471   3.369 -0.3162  0.0736 -0.5705
   98SAPC   H8X 9744   0.522   0.580   3.364  1.4974  0.8110  3.2534
   98SAPC   H8Y 9745   0.637   0.462   3.431 -0.4980  2.0166  0.0632
   98SAPC   C39 9746   0.430   0.413   3.450  0.0314 -0.5392  0.1051
   98SAPC   H9X 9747   0.445   0.307   3.482 -1.7757 -0.4965  1.2404
   98SAPC   H9Y 9748   0.343   0.398   3.382 -0.2962  2.6249 -0.3091
   98SAPC  C310 9749   0.393   0.498   3.572 -0.2111 -0.4765 -0.7888
   98SAPC  H10X 9750   0.315   0.573   3.548  0.5987  0.5158 -0.3868
   98SAPC  H10Y 9751   0.482   0.558   3.603  0.4653  0.8034 -4.6769
   98SAPC  C311 9752   0.340   0.409   3.683  0.6134  0.6268 -0.7171
   98SAPC  H11X 9753   0.421   0.343   3.721  1.1484  1.5299 -0.2502
   98SAPC  H11Y 9754   0.257   0.352   3.635  1.1582 -0.5990 -0.2564
   98SAPC  C312 9755   0.281   0.492   3.802  0.3980 -0.0096 -0.4804
   98SAPC  H12X 9756   0.204   0.562   3.762 -1.1896 -0.3084  1.8867
   98SAPC  H12Y 9757   0.352   0.566   3.845 -1.1433  0.5761  1.1284
   98SAPC  C313 9758   0.208   0.393   3.899 -0.1543 -0.6476  0.6863
   98SAPC  H13X 9759   0.250   0.290   3.896  0.7931 -0.3882  3.1688
   98SAPC  H13Y 9760   0.105   0.373   3.862  0.7515  0.4282 -2.8620
   98SAPC  C314 9761   0.222   0.428   4.050  0.4280 -0.8066  0.5386
   98SAPC  H14X 9762   0.182   0.531   4.052  1.5410 -0.3574  0.2657
   98SAPC  H14Y 9763   0.329   0.436   4.080  0.7186  2.8720 -1.0430
   98SAPC  C315 9764   0.145   0.320   4.134 -0.4660  0.7309 -0.7166
   98SAPC  H15X 9765   0.206   0.228   4.121 -1.1197  0.3035 -0.8830
   98SAPC  H15Y 9766   0.042   0.292   4.100 -0.3366 -1.2033  0.3343
   98SAPC  C316 9767   0.160   0.339   4.286 -0.0639 -0.4493  0.3700
   98SAPC  H16X 9768   0.095   0.428   4.301  1.7134  0.9467  0.1264
   98SAPC  H16Y 9769   0.267   0.350   4.313 -0.5578  0.3323  2.1696
   98SAPC  C317 9770   0.089   0.221   4.358 -0.3516 -0.2132  0.1492
   98SAPC  H17X 9771   0.149   0.128   4.351 -1.7621 -1.1160 -0.2484
   98SAPC  H17Y 9772  -0.015   0.210   4.320 -1.0732 -0.8419  2.1828
   98SAPC  C318 9773   0.078   0.235   4.507 -0.0251 -0.4164 -0.4335
   98SAPC  H18X 9774   0.118   0.331   4.545  0.3801 -0.7729  0.0527
   98SAPC  H18Y 9775   0.121   0.146   4.557  1.9074  0.6435 -0.1231
   98SAPC  H18Z 9776  -0.027   0.242   4.543 -0.1582  0.5067 -0.9669
   99SAPC     N 9777   5.388   4.475   1.944  0.2713  0.1133 -0.0235
   99SAPC   C12 9778   5.336   4.345   1.998  0.0789  0.5096  0.1134
   99SAPC  H12A 9779   5.353   4.264   1.930  2.2570  0.4338  0.6641
   99SAPC  H12B 9780   5.229   4.353   2.013  0.0057 -1.2840  0.7822
   99SAPC   C13 9781   5.335   4.600   2.023  0.1527  0.8609  0.2296
   99SAPC  H13A 9782   5.392   4.611   2.114 -0.0901  1.5858  0.2977
   99SAPC  H13B 9783   5.348   4.694   1.971 -0.0861  1.9845  2.0899
   99SAPC  H13C 9784   5.231   4.590   2.050 -0.3808  0.2599 -1.8698
   99SAPC   C14 9785   5.539   4.481   1.959 -0.4517  0.7747 -0.2644
   99SAPC  H14A 9786   5.578   4.560   1.896  0.5358  1.3396  0.9936
   99SAPC  H14B 9787   5.566   4.503   2.061  2.1063 -1.3545 -0.3800
   99SAPC  H14C 9788   5.583   4.386   1.932 -1.8036  0.3836 -1.2048
   99SAPC   C15 9789   5.343   4.497   1.799 -0.3246  0.6835  0.4626
   99SAPC  H15A 9790   5.372   4.413   1.736  0.2214  0.8956  0.4225
   99SAPC  H15B 9791   5.237   4.511   1.789 -0.6138 -0.3207  1.9130
   99SAPC  H15C 9792   5.396   4.582   1.760 -0.5909  1.8987  2.6173
   99SAPC   C11 9793   5.389   4.293   2.134  0.3395  0.4203 -0.1780
   99SAPC  H11A 9794   5.491   4.251   2.119  0.3702  0.8129 -1.1700
   99SAPC  H11B 9795   5.319   4.211   2.160 -0.3091  1.6207  2.0437
   99SAPC     P 9796   5.269   4.400   2.342  0.2347 -0.0062 -0.0890
   99SAPC   O13 9797   5.243   4.545   2.366 -0.1491  0.3885  0.0098
   99SAPC   O14 9798   5.149   4.341   2.275  0.3064  0.2212 -0.5269
   99SAPC   O12 9799   5.394   4.397   2.234  0.2352  0.1060  0.1321
   99SAPC   O11 9800   5.314   4.322   2.463  0.7040  0.0320  0.0257
   99SAPC    C1 9801   5.379   4.199   2.452  0.0859  0.9248 -0.1389
   99SAPC    HA 9802   5.322   4.138   2.379 -0.7834 -1.1457  2.1536
   99SAPC    HB 9803   5.482   4.211   2.412 -0.7535  2.8202 -1.9596
   99SAPC    C2 9804   5.389   4.122   2.590 -0.5817  0.3928  0.7710
   99SAPC    HS 9805   5.287   4.107   2.630 -0.2738 -2.2288  0.7503
   99SAPC   O21 9806   5.488   4.179   2.681  0.3845 -0.2864  0.1787
   99SAPC   C21 9807   5.455   4.195   2.801 -0.1567 -0.0807 -0.7342
   99SAPC   O22 9808   5.343   4.183   2.846  0.9146  0.2203 -0.7799
   99SAPC   C22 9809   5.586   4.212   2.879 -0.0636 -0.4408  0.0266
   99SAPC   H2R 9810   5.660   4.134   2.852  1.2141 -0.1298  2.2975
   99SAPC   H2S 9811   5.630   4.307   2.841 -1.4744  0.2734  0.0905
   99SAPC    C3 9812   5.424   3.974   2.566 -0.6455  0.3804  0.3119
   99SAPC    HX 9813   5.514   3.976   2.501 -1.1876  1.2318 -0.4274
   99SAPC    HY 9814   5.353   3.918   2.502 -0.6975 -0.1027  0.7863
   99SAPC   O31 9815   5.450   3.904   2.689 -0.1175 -0.3549 -0.2287
   99SAPC   C31 9816   5.354   3.831   2.733 -0.0054  0.6609 -0.4547
   99SAPC   O32 9817   5.247   3.803   2.676  0.0069  0.0292 -0.2036
   99SAPC   C32 9818   5.384   3.780   2.870 -0.6434 -0.4584 -0.6901
   99SAPC   H2X 9819   5.461   3.845   2.915 -1.4621  1.2551 -1.6803
   99SAPC   H2Y 9820   5.430   3.680   2.856  0.7229  0.0422  0.1276
   99SAPC   C23 9821   5.574   4.235   3.039  0.1078  0.1677 -0.1947
   99SAPC   H3R 9822   5.518   4.329   3.061  0.9994  0.1401  2.5300
   99SAPC   H3S 9823   5.677   4.257   3.073  0.0157  1.2607 -0.5732
   99SAPC   C24 9824   5.539   4.107   3.118  0.1436  1.2907  0.3318
   99SAPC   H4R 9825   5.625   4.039   3.103 -0.1033  1.2022 -0.7283
   99SAPC   H4S 9826   5.445   4.066   3.075 -0.1527 -1.7393  3.4133
   99SAPC   C25 9827   5.517   4.149   3.261 -0.1789 -0.0809  0.0807
   99SAPC   H5R 9828   5.502   4.255   3.287  2.0011  0.4131 -0.4165
   99SAPC   C26 9829   5.529   4.058   3.363  0.1312  0.1081  0.0675
   99SAPC   H6R 9830   5.505   4.075   3.469  2.6040 -2.8167  1.2408
   99SAPC   C27 9831   5.552   3.913   3.349 -0.2468  0.0950 -0.3622
   99SAPC   H7R 9832   5.600   3.892   3.251  0.1681  0.5434 -0.2606
   99SAPC   H7S 9833   5.457   3.856   3.355  0.0952 -0.3930  0.5198
   99SAPC   C28 9834   5.651   3.871   3.459  0.4579 -0.6141  0.5858
   99SAPC   H8R 9835   5.747   3.923   3.471  0.9533 -1.2606 -0.4334
   99SAPC   C29 9836   5.626   3.773   3.549  0.0617 -0.4247 -0.4581
   99SAPC   H9R 9837   5.704   3.742   3.620  2.0319  2.6661 -1.1137
   99SAPC  C210 9838   5.510   3.682   3.538 -0.8542  0.1747 -0.0143
   99SAPC  H10R 9839   5.419   3.746   3.541 -1.2827 -0.3609 -1.0864
   99SAPC  H10S 9840   5.502   3.630   3.636 -1.0146  1.6256  0.7708
   99SAPC  C211 9841   5.487   3.588   3.422  0.5727 -0.3772 -0.6561
   99SAPC  H11R 9842   5.571   3.584   3.350 -0.8399 -1.0699 -2.3229
   99SAPC  C212 9843   5.385   3.500   3.406 -0.2133  0.5817  0.1258
   99SAPC  H12R 9844   5.382   3.435   3.317 -1.6717  2.3421 -1.1951
   99SAPC  C213 9845   5.274   3.485   3.502  0.8862  0.0350  0.4085
   99SAPC  H13R 9846   5.181   3.484   3.441  1.9002  1.1351 -1.2259
   99SAPC  H13S 9847   5.269   3.571   3.572  0.5530 -0.7190  1.3424
   99SAPC  C214 9848   5.286   3.362   3.595 -0.0738 -0.1997 -0.3864
   99SAPC  H14R 9849   5.307   3.266   3.545 -0.7754  0.2160 -1.5091
   99SAPC  C215 9850   5.255   3.360   3.731 -0.2141 -0.0740  0.7537
   99SAPC  H15R 9851   5.269   3.260   3.775  2.0350 -0.1494  0.0343
   99SAPC  C216 9852   5.207   3.467   3.823  0.4008  1.1996 -0.5746
   99SAPC  H16R 9853   5.099   3.483   3.802  0.6478  1.4440 -1.7234
   99SAPC  H16S 9854   5.249   3.564   3.789 -0.4880  1.6849 -0.3330
   99SAPC  C217 9855   5.232   3.436   3.972 -0.1826  0.0919 -0.4390
   99SAPC  H17R 9856   5.341   3.430   3.988  0.2083  0.2631 -2.7387
   99SAPC  H17S 9857   5.180   3.339   3.984  0.2427 -0.0527  0.2754
   99SAPC  C218 9858   5.170   3.530   4.077  0.0572  0.6176  0.0858
   99SAPC  H18R 9859   5.169   3.640   4.059 -1.3858  0.5554 -0.3575
   99SAPC  H18S 9860   5.215   3.517   4.178  0.5531 -1.7079 -0.3793
   99SAPC  C219 9861   5.020   3.494   4.088 -0.7203  0.1534  1.4856
   99SAPC  H19R 9862   5.005   3.386   4.106  1.1452 -0.8651 -2.2004
   99SAPC  H19S 9863   4.976   3.513   3.988  3.1308 -0.9649 -0.6189
   99SAPC  C220 9864   4.947   3.580   4.185  0.5110 -0.2575  0.0174
   99SAPC  H20R 9865   5.002   3.584   4.281  1.5612 -1.2890 -0.5175
   99SAPC  H20S 9866   4.847   3.536   4.205  0.3022  0.3980  0.4364
   99SAPC  H20T 9867   4.934   3.684   4.147 -3.0994 -0.5835  0.0190
   99SAPC   C33 9868   5.255   3.776   2.960  0.1314 -0.1142  0.0463
   99SAPC   H3X 9869   5.185   3.693   2.933 -1.9666  1.0881  1.4997
   99SAPC   H3Y 9870   5.208   3.875   2.945  0.5060  0.0430 -0.1077
   99SAPC   C34 9871   5.268   3.757   3.112 -0.1094  0.6207 -0.1774
   99SAPC   H4X 9872   5.332   3.825   3.172 -2.1210  1.6669  0.8794
   99SAPC   H4Y 9873   5.318   3.658   3.106 -0.8144  0.3298 -1.8103
   99SAPC   C35 9874   5.125   3.743   3.178  0.1302 -0.0456  0.0174
   99SAPC   H5X 9875   5.146   3.697   3.278  2.7329 -0.5444 -0.6754
   99SAPC   H5Y 9876   5.058   3.682   3.115 -0.5892  1.7999 -1.0596
   99SAPC   C36 9877   5.063   3.883   3.186 -0.1858 -0.1493  0.0716
   99SAPC   H6X 9878   4.959   3.867   3.221  0.5827 -3.1456  1.2864
   99SAPC   H6Y 9879   5.054   3.913   3.080 -0.8575  0.8201  0.3816
   99SAPC   C37 9880   5.144   3.983   3.277  0.5804  0.0873  0.4244
   99SAPC   H7X 9881   5.085   4.077   3.269 -2.3176 -1.6754 -0.4929
   99SAPC   H7Y 9882   5.244   3.994   3.229  0.1684  0.3529 -0.3952
   99SAPC   C38 9883   5.160   3.932   3.417  0.0818 -0.3833 -0.3897
   99SAPC   H8X 9884   5.231   3.997   3.473 -1.2214  0.7060  0.0452
   99SAPC   H8Y 9885   5.215   3.835   3.414 -0.7125 -0.9323  1.6210
   99SAPC   C39 9886   5.032   3.919   3.505  0.7585  0.1598 -0.6574
   99SAPC   H9X 9887   4.947   3.898   3.437 -1.2515  0.1814  1.7485
   99SAPC   H9Y 9888   5.009   4.022   3.539 -0.8368 -0.1775 -0.6422
   99SAPC  C310 9889   5.024   3.803   3.612 -0.3534  0.4385  0.1703
   99SAPC  H10X 9890   5.018   3.705   3.561  1.4263 -0.2400  1.1888
   99SAPC  H10Y 9891   4.931   3.814   3.672  1.4980  2.1977  2.9014
   99SAPC  C311 9892   5.143   3.794   3.704  0.1747 -0.7912  0.3326
   99SAPC  H11X 9893   5.238   3.771   3.652  0.2575  1.8039 -0.8556
   99SAPC  H11Y 9894   5.130   3.718   3.784 -1.2652  2.3271  3.3403
   99SAPC  C312 9895   5.172   3.924   3.786 -0.1465 -0.0737 -0.4514
   99SAPC  H12X 9896   5.081   3.970   3.830  0.1155  0.6405 -0.6425
   99SAPC  H12Y 9897   5.211   4.004   3.718  1.8915  0.4886  1.2740
   99SAPC  C313 9898   5.284   3.918   3.898 -0.5127  0.3908 -0.8653
   99SAPC  H13X 9899   5.250   3.857   3.984  4.5673 -0.3427  0.9526
   99SAPC  H13Y 9900   5.293   4.024   3.929 -0.5276  0.6034 -1.5633
   99SAPC  C314 9901   5.422   3.862   3.847 -0.3011 -0.1278  0.8538
   99SAPC  H14X 9902   5.463   3.933   3.772  3.6947  0.3543  3.1986
   99SAPC  H14Y 9903   5.393   3.764   3.804 -1.1449  0.6191 -0.3558
   99SAPC  C315 9904   5.528   3.849   3.950 -0.6339  0.2041  0.6139
   99SAPC  H15X 9905   5.551   3.939   4.010  0.0168  1.2275 -1.1068
   99SAPC  H15Y 9906   5.621   3.835   3.891 -0.4421  0.5554  0.8344
   99SAPC  C316 9907   5.492   3.737   4.047  0.0910  0.2038  0.0199
   99SAPC  H16X 9908   5.458   3.643   3.999  1.9517 -0.3590 -0.2819
   99SAPC  H16Y 9909   5.406   3.785   4.099  1.5002  1.6023  1.1848
   99SAPC  C317 9910   5.605   3.706   4.139  0.2893 -0.6721  0.2428
   99SAPC  H17X 9911   5.692   3.685   4.073 -1.5241  0.8986 -2.8720
   99SAPC  H17Y 9912   5.573   3.616   4.197  0.0169 -1.0640 -0.5023
   99SAPC  C318 9913   5.635   3.812   4.246  0.8212  0.8254  0.0738
   99SAPC  H18X 9914   5.682   3.899   4.195 -0.4473  1.8518  0.5763
   99SAPC  H18Y 9915   5.704   3.779   4.327  1.4284  3.1269  0.5765
   99SAPC  H18Z 9916   5.542   3.841   4.300  1.0757 -1.4422  1.9005
  100SAPC     N 9917   2.696   1.575   1.591  0.5108  0.2274 -0.0179
  100SAPC   C12 9918   2.721   1.577   1.741 -0.1513 -0.2395  0.6800
  100SAPC  H12A 9919   2.629   1.600   1.792 -0.2986 -0.7372  0.6385
  100SAPC  H12B 9920   2.783   1.664   1.757 -0.7314  0.2183  0.4789
  100SAPC   C13 9921   2.601   1.679   1.552  0.0620 -0.0942  0.5666
  100SAPC  H13A 9922   2.582   1.681   1.445 -2.3842 -2.3047  0.8396
  100SAPC  H13B 9923   2.508   1.675   1.607  1.4593  1.6040  3.2132
  100SAPC  H13C 9924   2.635   1.778   1.578  0.4883 -0.1294  0.1540
  100SAPC   C14 9925   2.819   1.596   1.515 -0.1580 -0.1239  0.2386
  100SAPC  H14A 9926   2.899   1.531   1.550  1.7825  1.5829 -0.8094
  100SAPC  H14B 9927   2.809   1.569   1.411 -0.2996 -1.4388  0.5740
  100SAPC  H14C 9928   2.852   1.699   1.517 -0.6159  0.0390 -0.5087
  100SAPC   C15 9929   2.643   1.437   1.542  0.4336  0.3914 -0.3159
  100SAPC  H15A 9930   2.559   1.400   1.598  1.0533 -2.3418 -1.0450
  100SAPC  H15B 9931   2.629   1.435   1.435 -0.4043 -1.2627 -0.2086
  100SAPC  H15C 9932   2.723   1.371   1.571  0.0478 -0.5133 -1.2569
  100SAPC   C11 9933   2.779   1.457   1.797 -0.5595  0.3395  0.0451
  100SAPC  H11A 9934   2.724   1.369   1.757 -2.3467  1.6392 -0.4653
  100SAPC  H11B 9935   2.751   1.454   1.905 -0.0267 -0.6460  0.1739
  100SAPC     P 9936   3.022   1.523   1.861  0.3078  0.0952 -0.0614
  100SAPC   O13 9937   3.146   1.449   1.870 -0.2678  0.1562  0.0412
  100SAPC   O14 9938   3.026   1.667   1.814  0.3242 -0.0692  0.3433
  100SAPC   O12 9939   2.918   1.441   1.774 -0.0569 -0.2029  0.2120
  100SAPC   O11 9940   2.964   1.519   2.002 -0.2220 -0.5053  0.1695
  100SAPC    C1 9941   2.930   1.398   2.065 -0.4158  0.9119  0.0779
  100SAPC    HA 9942   2.819   1.393   2.070 -0.4526 -1.0422 -1.3542
  100SAPC    HB 9943   2.952   1.313   1.997 -1.6997  1.0385 -0.5301
  100SAPC    C2 9944   2.989   1.380   2.206 -0.9266 -0.4809 -0.7188
  100SAPC    HS 9945   2.977   1.279   2.251 -0.1230 -0.1274  0.3389
  100SAPC   O21 9946   2.924   1.490   2.276 -0.2185  0.0868 -0.4940
  100SAPC   C21 9947   2.811   1.458   2.327 -0.3516  0.5227  0.3270
  100SAPC   O22 9948   2.763   1.345   2.329  0.7919 -0.4618 -0.3026
  100SAPC   C22 9949   2.736   1.574   2.392  0.2156  0.2649 -0.3131
  100SAPC   H2R 9950   2.721   1.654   2.316 -1.5726 -1.0570 -1.4185
  100SAPC   H2S 9951   2.635   1.530   2.403  0.7760 -1.1478 -0.5623
  100SAPC    C3 9952   3.141   1.408   2.193 -0.3252  0.4707  0.7058
  100SAPC    HX 9953   3.171   1.498   2.136  1.7182 -1.6935 -1.8933
  100SAPC    HY 9954   3.183   1.328   2.130 -2.1219  0.9246 -1.1791
  100SAPC   O31 9955   3.198   1.409   2.322 -0.6570  0.2374  0.0661
  100SAPC   C31 9956   3.199   1.527   2.385 -0.1707 -0.0598 -0.5968
  100SAPC   O32 9957   3.163   1.633   2.343 -0.5069 -0.5430  0.6861
  100SAPC   C32 9958   3.272   1.517   2.521 -0.7058 -0.6031  0.3830
  100SAPC   H2X 9959   3.379   1.547   2.520 -1.0602  0.7795  0.9680
  100SAPC   H2Y 9960   3.257   1.412   2.553  0.4164 -0.5010  1.3037
  100SAPC   C23 9961   2.791   1.639   2.519 -0.4979 -0.0966  0.4991
  100SAPC   H3R 9962   2.890   1.688   2.512 -0.9291  1.5446  3.8049
  100SAPC   H3S 9963   2.809   1.563   2.599  0.6761 -1.0078 -0.5891
  100SAPC   C24 9964   2.700   1.742   2.587  0.5753 -0.9077  0.1539
  100SAPC   H4R 9965   2.682   1.825   2.515 -0.5169 -1.2450  0.0157
  100SAPC   H4S 9966   2.749   1.789   2.675  0.8976 -1.5407  0.3176
  100SAPC   C25 9967   2.567   1.698   2.626 -0.4423  1.0091  0.2919
  100SAPC   H5R 9968   2.495   1.682   2.544  1.2256 -1.8844 -0.7659
  100SAPC   C26 9969   2.509   1.679   2.746 -0.4160  0.0542 -0.5238
  100SAPC   H6R 9970   2.401   1.657   2.744 -0.2953 -0.6664  0.1711
  100SAPC   C27 9971   2.570   1.670   2.882  0.4285  0.2851  0.6022
  100SAPC   H7R 9972   2.680   1.676   2.866  0.3318  1.5979  0.3118
  100SAPC   H7S 9973   2.530   1.572   2.916  0.4254  0.1527  0.2242
  100SAPC   C28 9974   2.538   1.765   2.997 -0.4355 -0.3756  0.0011
  100SAPC   H8R 9975   2.447   1.732   3.049  0.0118 -1.2642  0.2318
  100SAPC   C29 9976   2.600   1.879   3.038 -0.1775  0.5390  0.4955
  100SAPC   H9R 9977   2.555   1.932   3.123 -2.5393  0.4580 -0.6218
  100SAPC  C210 9978   2.722   1.949   2.982  0.3548  0.1443  1.0431
  100SAPC  H10R 9979   2.796   1.871   2.954 -0.2146 -0.6323  1.6662
  100SAPC  H10S 9980   2.767   2.007   3.066 -0.9677  1.4356  0.8983
  100SAPC  C211 9981   2.717   2.042   2.858  0.4284 -0.3269 -0.2109
  100SAPC  H11R 9982   2.620   2.029   2.809 -0.6532 -0.4650  1.8517
  100SAPC  C212 9983   2.809   2.137   2.828 -0.1058  0.3632  0.7622
  100SAPC  H12R 9984   2.795   2.200   2.739  0.6718 -0.9891 -0.3504
  100SAPC  C213 9985   2.938   2.163   2.904 -0.4020 -0.2647  0.2764
  100SAPC  H13R 9986   2.960   2.078   2.972  0.5625 -0.6128 -0.4555
  100SAPC  H13S 9987   2.915   2.259   2.957 -0.1850 -0.3377  0.5097
  100SAPC  C214 9988   3.067   2.174   2.825 -0.8855 -0.0469  0.4650
  100SAPC  H14R 9989   3.064   2.154   2.717  1.3285  0.8042  0.1783
  100SAPC  C215 9990   3.186   2.193   2.887  0.8058  0.1328 -0.2840
  100SAPC  H15R 9991   3.277   2.203   2.827  2.1134  1.3525  1.7737
  100SAPC  C216 9992   3.201   2.201   3.042  0.3942 -0.5051 -1.0659
  100SAPC  H16R 9993   3.307   2.179   3.067  1.1475  2.1833 -1.5480
  100SAPC  H16S 9994   3.137   2.124   3.089 -0.2490  1.2977  1.2114
  100SAPC  C217 9995   3.168   2.329   3.113  0.1234 -0.9880 -0.4478
  100SAPC  H17R 9996   3.058   2.342   3.105  0.1877 -0.4827 -0.5561
  100SAPC  H17S 9997   3.219   2.417   3.068 -0.6901 -0.5798 -0.5845
  100SAPC  C218 9998   3.196   2.333   3.262 -0.0417  0.1330 -0.3819
  100SAPC  H18R 9999   3.306   2.328   3.274 -0.1673 -0.7715  0.5812
  100SAPC  H18S10000   3.156   2.246   3.320  1.0997 -1.2375 -1.5628
  100SAPC  C21910001   3.153   2.464   3.338 -0.6079 -0.0267 -0.0071
  100SAPC  H19R10002   3.175   2.462   3.447 -0.0306  0.4488 -0.1113
  100SAPC  H19S10003   3.045   2.488   3.327 -0.6091 -0.6067 -1.4868
  100SAPC  C22010004   3.235   2.587   3.297 -0.0689  0.2123 -0.0217
  100SAPC  H20R10005   3.230   2.618   3.190 -1.9969  0.7211  0.1846
  100SAPC  H20S10006   3.343   2.562   3.310  0.3424  1.3389 -1.0164
  100SAPC  H20T10007   3.216   2.677   3.359  0.5950  1.5888 -1.7365
  100SAPC   C3310008   3.189   1.604   2.624  0.3587 -0.1683 -0.3084
  100SAPC   H3X10009   3.085   1.566   2.621 -0.1946  1.3284 -1.6521
  100SAPC   H3Y10010   3.180   1.707   2.582 -1.8837 -0.3295 -0.3063
  100SAPC   C3410011   3.241   1.628   2.764  0.4156 -0.4628 -0.0345
  100SAPC   H4X10012   3.341   1.676   2.761  0.7619 -0.9186  2.4507
  100SAPC   H4Y10013   3.249   1.532   2.819  1.9080  0.2692  1.0934
  100SAPC   C3510014   3.140   1.710   2.852  0.7379  0.1703  0.2634
  100SAPC   H5X10015   3.038   1.666   2.844  1.4434 -1.5966  0.4974
  100SAPC   H5Y10016   3.143   1.811   2.805 -1.3728 -0.3375 -1.0815
  100SAPC   C3610017   3.177   1.714   3.003 -0.7322  0.3656  1.2005
  100SAPC   H6X10018   3.284   1.743   2.991 -0.6684  0.4560  1.9294
  100SAPC   H6Y10019   3.171   1.613   3.048 -1.3893  0.3524  1.0983
  100SAPC   C3710020   3.104   1.814   3.094 -0.7464  0.3070  0.1939
  100SAPC   H7X10021   2.994   1.797   3.093 -0.4933 -1.4813 -0.3399
  100SAPC   H7Y10022   3.116   1.912   3.044 -0.3658  2.0957  3.5066
  100SAPC   C3810023   3.147   1.803   3.237 -0.0741 -0.9343 -0.2482
  100SAPC   H8X10024   3.258   1.808   3.238 -0.1215  0.7012 -0.7416
  100SAPC   H8Y10025   3.120   1.702   3.274  0.2316 -0.3752  1.5937
  100SAPC   C3910026   3.090   1.905   3.340  0.2776 -0.7760  0.0149
  100SAPC   H9X10027   2.980   1.892   3.342 -0.0358  1.3571 -0.4449
  100SAPC   H9Y10028   3.114   2.009   3.308 -1.4296  0.0818  1.3112
  100SAPC  C31010029   3.148   1.886   3.482 -0.6392 -0.1013 -0.0734
  100SAPC  H10X10030   3.251   1.927   3.475 -0.4739 -0.6264 -0.7338
  100SAPC  H10Y10031   3.148   1.778   3.506  0.6730 -0.3189 -0.9799
  100SAPC  C31110032   3.067   1.963   3.588  0.0788  0.3574 -0.0369
  100SAPC  H11X10033   2.959   1.936   3.588 -0.4944  2.4064 -0.9983
  100SAPC  H11Y10034   3.079   2.073   3.583  1.1394  0.3460  1.5571
  100SAPC  C31210035   3.117   1.930   3.730 -0.9086 -0.5747  0.3925
  100SAPC  H12X10036   3.226   1.951   3.732 -1.5430  3.4720  0.4451
  100SAPC  H12Y10037   3.092   1.823   3.744 -3.7620 -0.7060 -3.8636
  100SAPC  C31310038   3.063   2.024   3.838  0.1566 -0.5185  0.0926
  100SAPC  H13X10039   2.954   2.004   3.842 -0.6894  2.9087 -1.7528
  100SAPC  H13Y10040   3.062   2.131   3.809  1.1010 -0.9046 -1.5030
  100SAPC  C31410041   3.135   1.995   3.971 -0.1596 -0.1423  0.2503
  100SAPC  H14X10042   3.237   2.038   3.971 -0.5821  0.8865  0.3882
  100SAPC  H14Y10043   3.146   1.886   3.990  1.3238  0.1767  1.3749
  100SAPC  C31510044   3.079   2.069   4.092  0.1659  0.2554  0.3347
  100SAPC  H15X10045   2.984   2.017   4.119  1.3246 -2.3844 -0.3142
  100SAPC  H15Y10046   3.051   2.172   4.062 -1.4566 -0.3839 -0.4420
  100SAPC  C31610047   3.186   2.078   4.197 -0.3841 -0.5820 -0.5215
  100SAPC  H16X10048   3.264   2.151   4.167  1.1258 -1.2794  1.5206
  100SAPC  H16Y10049   3.228   1.976   4.210 -0.4086 -0.5176  0.1049
  100SAPC  C31710050   3.135   2.122   4.335 -0.0613  0.2836 -0.7183
  100SAPC  H17X10051   3.054   2.059   4.380  0.1449  1.1839  0.9987
  100SAPC  H17Y10052   3.091   2.223   4.321 -0.5181  0.0221 -1.2404
  100SAPC  C31810053   3.245   2.130   4.441 -0.0909  0.1464  0.3744
  100SAPC  H18X10054   3.215   2.171   4.539  1.5619 -0.3344  1.1225
  100SAPC  H18Y10055   3.338   2.171   4.396  0.2491 -0.0127  0.9328
  100SAPC  H18Z10056   3.277   2.025   4.460  3.4732  0.8964 -0.6304
  101OSM      N10057   3.025   0.699   6.903  0.0975  0.8816 -0.1598
  101OSM    C1510058   3.089   0.841   6.896  0.0229  0.5597 -0.5860
  101OSM   H15A10059   3.197   0.837   6.898 -0.0153 -0.7129 -0.0681
  101OSM   H15B10060   3.054   0.904   6.976  0.3974  1.4149 -1.0767
  101OSM   H15C10061   3.064   0.891   6.804  0.2810  0.8169 -0.5162
  101OSM    C1410062   3.098   0.615   7.001 -0.5456  0.3569 -0.4881
  101OSM   H14A10063   3.205   0.619   6.987 -0.6411  1.0903 -1.0450
  101OSM   H14B10064   3.068   0.511   6.996  0.1602  0.0471  0.9421
  101OSM   H14C10065   3.091   0.652   7.102  0.1209  1.8852 -0.9771
  101OSM    C1310066   2.885   0.712   6.932  0.3751 -0.2686 -0.2850
  101OSM   H13A10067   2.843   0.788   6.867  0.6323  0.1380  0.0189
  101OSM   H13B10068   2.873   0.746   7.034  0.8588 -0.0046 -0.3129
  101OSM   H13C10069   2.829   0.622   6.913  1.5842 -1.1583  0.2976
  101OSM    C1210070   3.046   0.636   6.766 -0.0379  0.1677  0.0327
  101OSM   H12A10071   3.030   0.714   6.693 -0.6252  2.0816  2.0944
  101OSM   H12B10072   2.973   0.557   6.754  0.0197 -0.0145  0.8587
  101OSM    C1110073   3.186   0.582   6.739  0.9098 -0.5099  0.1385
  101OSM   H11A10074   3.215   0.495   6.802  0.0722 -0.7572  0.1969
  101OSM   H11B10075   3.251   0.671   6.756  0.2032 -0.1196  0.9114
  101OSM      P10076   3.296   0.449   6.539  0.0388 -0.0641 -0.2875
  101OSM    O1310077   3.433   0.503   6.534  0.1860 -0.1725 -0.5097
  101OSM    O1410078   3.260   0.316   6.599 -0.1948  0.2141 -0.0143
  101OSM    O1110079   3.244   0.456   6.388  0.3349  0.0839 -0.0953
  101OSM    O1210080   3.193   0.546   6.604  0.2611 -0.5640  0.2661
  101OSM    C1S10081   3.109   0.414   6.348 -0.3925  0.0316  0.5500
  101OSM    H1S10082   3.034   0.480   6.398  0.2291  1.7686 -0.7446
  101OSM    H1T10083   3.078   0.314   6.385 -1.5113 -0.5294 -1.7649
  101OSM     NF10084   2.937   0.398   6.162 -0.3418  0.4477 -0.1550
  101OSM    HNF10085   2.889   0.310   6.165 -2.8254  1.7175  0.3021
  101OSM    C2S10086   3.076   0.407   6.195  0.2255 -0.0971 -0.2249
  101OSM    H2S10087   3.119   0.495   6.142  1.7161  0.8725  2.4131
  101OSM    C3S10088   3.158   0.286   6.139 -0.0993  0.3159  0.0802
  101OSM    H3S10089   3.123   0.195   6.192 -1.2236 -0.3040 -1.6678
  101OSM     O310090   3.298   0.306   6.169 -0.9291  0.7522  0.1824
  101OSM    HO310091   3.304   0.385   6.223  3.7367  1.3054 -0.7129
  101OSM    C4S10092   3.139   0.264   5.992  0.1702  0.1297  0.2232
  101OSM    H4S10093   3.096   0.349   5.936  1.1301  2.2769  2.5559
  101OSM    C5S10094   3.165   0.150   5.928  0.4859 -0.0792  0.4843
  101OSM    H5S10095   3.193   0.070   5.998  0.2596  0.8369  1.6733
  101OSM    C6S10096   3.139   0.122   5.784  0.6685  0.2797  0.2188
  101OSM    H6S10097   3.099   0.018   5.781  2.8456 -0.5869 -0.5507
  101OSM    H6T10098   3.242   0.123   5.742  1.9166  1.9268  2.9861
  101OSM    C7S10099   3.027   0.198   5.701 -0.5404 -0.0819 -0.2559
  101OSM    H7S10100   3.058   0.303   5.683  3.0565 -0.7175  1.2879
  101OSM    H7T10101   2.931   0.184   5.754 -0.3262  0.1511  0.1977
  101OSM    C8S10102   3.005   0.132   5.567 -0.5301 -0.7459  0.2200
  101OSM    H8S10103   2.907   0.165   5.527 -0.3050  1.4241  1.3016
  101OSM    H8T10104   3.005   0.022   5.583 -0.6625 -0.9015 -0.8127
  101OSM    C9S10105   3.113   0.171   5.461 -0.0327  1.0223  0.2786
  101OSM    H9S10106   3.208   0.120   5.488  0.6078  0.5686 -2.5273
  101OSM    H9T10107   3.125   0.281   5.457 -4.0359  1.5675 -0.8487
  101OSM   C10S10108   3.079   0.127   5.316  0.3627 -0.1627 -0.3722
  101OSM   H10S10109   2.997   0.192   5.279 -0.7750 -1.4036 -0.0861
  101OSM   H10T10110   3.053   0.019   5.320  0.2289 -0.1238 -0.1986
  101OSM   C11S10111   3.193   0.150   5.219  0.7724  0.8736 -0.5706
  101OSM   H11S10112   3.275   0.089   5.264 -1.4094  0.3482  3.0847
  101OSM   H11T10113   3.213   0.259   5.225  0.1257  0.9415  0.5711
  101OSM   C12S10114   3.158   0.110   5.077  0.2542 -0.2396  0.2559
  101OSM   H12S10115   3.081   0.183   5.043 -1.5575 -1.7627  0.9387
  101OSM   H12T10116   3.115   0.009   5.093  1.0623 -0.5356  0.6330
  101OSM   C13S10117   3.275   0.112   4.984 -0.2506  0.0360  0.0484
  101OSM   H13S10118   3.348   0.038   5.024  0.1783 -1.0659 -2.6306
  101OSM   H13T10119   3.315   0.216   4.992 -0.5700  0.1607  0.0621
  101OSM   C14S10120   3.239   0.079   4.844  0.1017  0.1058  1.2106
  101OSM   H14S10121   3.181  -0.014   4.831  0.1109  0.2628  0.0031
  101OSM   H14T10122   3.334   0.061   4.790 -1.1353 -0.7475 -0.7659
  101OSM   C15S10123   3.164   0.185   4.762  0.6103  0.3967 -0.6198
  101OSM   H15S10124   3.228   0.274   4.744 -0.5121  0.6795 -3.7911
  101OSM   H15T10125   3.082   0.227   4.824  2.4629  0.3490  2.0629
  101OSM   C16S10126   3.119   0.145   4.620  0.1076 -0.0972 -1.1531
  101OSM   H16S10127   3.040   0.215   4.585  0.1992 -0.2329 -1.6378
  101OSM   H16T10128   3.087   0.039   4.619 -2.5945  0.5952  1.3055
  101OSM   C17S10129   3.240   0.167   4.528  0.0326 -0.2818 -0.1792
  101OSM   H17S10130   3.328   0.122   4.578  0.5786  2.9648  2.0382
  101OSM   H17T10131   3.244   0.278   4.523 -1.0529 -0.1499  1.4012
  101OSM   C18S10132   3.215   0.122   4.383  0.4486 -0.4734  0.1054
  101OSM   H18S10133   3.120   0.169   4.348  0.7009 -0.3993 -0.4754
  101OSM   H18T10134   3.208   0.013   4.362  1.1080 -0.2443 -1.4060
  101OSM   H18U10135   3.299   0.169   4.329 -1.0344  1.2419 -0.8155
  101OSM    C1F10136   2.860   0.499   6.156 -0.9621 -0.2900  0.1056
  101OSM     OF10137   2.900   0.621   6.168 -0.1375 -0.1036  1.3314
  101OSM    C2F10138   2.713   0.462   6.134 -0.4080 -0.1511  0.5626
  101OSM    H2F10139   2.677   0.394   6.214 -0.7611 -0.4763  0.1293
  101OSM    H2G10140   2.712   0.401   6.041 -0.7647  0.5315  0.1067
  101OSM    C3F10141   2.604   0.583   6.118  0.2312  0.8799 -0.0478
  101OSM    H3F10142   2.612   0.661   6.197 -0.1960  1.7273 -0.8168
  101OSM    H3G10143   2.503   0.539   6.131  1.1967 -1.2575  0.6729
  101OSM    C4F10144   2.618   0.652   5.984 -0.7260  0.3693  1.0346
  101OSM    H4F10145   2.618   0.583   5.897  1.5721  0.3517  0.9898
  101OSM    H4G10146   2.715   0.707   5.978  0.8222 -2.3194 -0.6565
  101OSM    C5F10147   2.502   0.749   5.947 -0.5365 -1.0609 -0.0597
  101OSM    H5F10148   2.507   0.827   6.026  0.5186 -1.9629  0.8099
  101OSM    H5G10149   2.409   0.688   5.953 -1.4123  0.3248  1.3175
  101OSM    C6F10150   2.506   0.825   5.808  0.7515  0.5506 -0.3998
  101OSM    H6F10151   2.407   0.874   5.792  0.1367 -1.1063 -2.1662
  101OSM    H6G10152   2.512   0.743   5.733  1.9947  1.0485 -0.8657
  101OSM    C7F10153   2.628   0.916   5.783 -0.8558 -0.0421 -0.3267
  101OSM    H7F10154   2.723   0.858   5.786  1.0587  2.7071 -2.1939
  101OSM    H7G10155   2.628   1.007   5.846 -0.8671 -0.1778 -0.1295
  101OSM    C8F10156   2.620   0.984   5.646  0.2780  0.2495  0.1556
  101OSM    H8F10157   2.650   0.908   5.570 -1.3796  0.3356 -0.6492
  101OSM    H8G10158   2.694   1.066   5.633 -1.3145  1.5164 -1.5901
  101OSM    C9F10159   2.482   1.039   5.609 -0.2840 -0.4138  0.4069
  101OSM    H9F10160   2.418   1.069   5.693 -1.2613  1.8360 -1.0441
  101OSM   C10F10161   2.421   1.043   5.493 -0.6172  0.0880  0.5275
  101OSM   H10F10162   2.318   1.081   5.484 -0.2493  0.7215 -1.6288
  101OSM   C11F10163   2.479   1.011   5.362 -0.0206  0.6204  0.0641
  101OSM   H11F10164   2.529   0.912   5.362  0.6761  0.9363  1.6653
  101OSM   H11G10165   2.535   1.096   5.317  0.3848 -0.5163 -1.6691
  101OSM   C12F10166   2.369   0.987   5.248  0.7224 -0.7708 -0.1328
  101OSM   H12F10167   2.324   1.086   5.223 -1.7403 -1.3414  1.7515
  101OSM   H12G10168   2.275   0.939   5.281 -0.7683  1.4830 -0.8806
  101OSM   C13F10169   2.426   0.912   5.127  0.7086  0.4976  0.7706
  101OSM   H13F10170   2.398   0.805   5.126  0.9237  0.4422 -0.2151
  101OSM   H13G10171   2.535   0.933   5.127  0.5589  1.6040 -1.6960
  101OSM   C14F10172   2.371   0.983   4.995 -0.2706 -0.5516  0.7628
  101OSM   H14F10173   2.427   1.079   4.994  0.1249 -0.7600  1.8427
  101OSM   H14G10174   2.262   0.997   5.013 -0.4621 -2.1807  0.9913
  101OSM   C15F10175   2.394   0.916   4.862  0.0181 -0.0133  0.2464
  101OSM   H15F10176   2.364   0.809   4.860 -0.0637 -0.0390 -2.9534
  101OSM   H15G10177   2.503   0.929   4.843  0.1961 -0.8241  0.6675
  101OSM   C16F10178   2.330   0.984   4.733 -0.3655  0.1028  0.4426
  101OSM   H16F10179   2.355   1.092   4.731  2.8787 -0.4894  2.2200
  101OSM   H16G10180   2.220   0.981   4.752 -0.8163  1.4481 -1.6140
  101OSM   C17F10181   2.360   0.915   4.603  0.1953 -0.2537  0.1172
  101OSM   H17F10182   2.470   0.918   4.593  0.0169  0.0952 -2.4458
  101OSM   H17G10183   2.334   0.980   4.517  2.5019 -0.1303 -0.5522
  101OSM   C18F10184   2.315   0.762   4.582 -0.0619  0.1376  0.7048
  101OSM   H18F10185   2.207   0.742   4.598  0.0075  0.0286  1.0600
  101OSM   H18G10186   2.370   0.703   4.659  0.5371 -0.4811 -0.1823
  101OSM   H18H10187   2.343   0.738   4.477  0.8922  1.1348  0.7109
  102OSM      N10188   4.753   0.447   6.638  0.3183 -0.3124  0.4704
  102OSM    C1510189   4.812   0.331   6.698 -0.1533  0.0479 -0.0231
  102OSM   H15A10190   4.800   0.325   6.805  0.3160 -0.9525 -0.0118
  102OSM   H15B10191   4.919   0.326   6.686  0.0659 -1.6437  1.9995
  102OSM   H15C10192   4.796   0.239   6.643  0.4261 -0.5455  0.7794
  102OSM    C1410193   4.613   0.416   6.584  0.0821 -0.0767 -0.0028
  102OSM   H14A10194   4.620   0.343   6.505  0.4844 -0.1158  0.0674
  102OSM   H14B10195   4.554   0.502   6.554 -0.7913 -0.7503 -0.2837
  102OSM   H14C10196   4.553   0.361   6.656 -0.5713 -3.4406 -2.8344
  102OSM    C1310197   4.740   0.559   6.737 -0.2996  0.5120  0.8336
  102OSM   H13A10198   4.697   0.639   6.678  1.3932 -0.7895 -2.4113
  102OSM   H13B10199   4.831   0.593   6.784 -0.5556  1.5506  0.6115
  102OSM   H13C10200   4.668   0.541   6.816  1.9651  0.0997  2.9182
  102OSM    C1210201   4.847   0.499   6.524  0.1060 -0.6177  0.1701
  102OSM   H12A10202   4.885   0.420   6.461 -0.2951  0.0119 -0.9032
  102OSM   H12B10203   4.938   0.548   6.554 -0.5111  1.1196 -0.6333
  102OSM    C1110204   4.787   0.600   6.422  0.1487  0.8457  0.4526
  102OSM   H11A10205   4.719   0.543   6.356  0.6621 -0.3461  0.9304
  102OSM   H11B10206   4.878   0.629   6.365  0.3721  0.2949  0.5228
  102OSM      P10207   4.608   0.775   6.434  0.3453 -0.3713  0.0859
  102OSM    O1310208   4.493   0.717   6.504  0.1613  0.2361  0.0303
  102OSM    O1410209   4.620   0.923   6.445  0.0455  0.2685  0.1107
  102OSM    O1110210   4.606   0.741   6.280  0.0831  0.1762 -0.2948
  102OSM    O1210211   4.730   0.712   6.489 -1.2633  0.7724 -0.5607
  102OSM    C1S10212   4.607   0.831   6.169 -0.1864  0.2328  0.2124
  102OSM    H1S10213   4.666   0.920   6.200  0.2036 -0.1900  0.7029
  102OSM    H1T10214   4.503   0.867   6.153  0.5069  2.2918  0.0170
  102OSM     NF10215   4.710   0.865   5.925 -0.3867  1.0222  0.0222
  102OSM    HNF10216   4.646   0.864   5.849  0.1059 -2.6831 -0.5417
  102OSM    C2S10217   4.671   0.771   6.032  0.1240  0.4120 -0.3527
  102OSM    H2S10218   4.770   0.733   6.065 -0.6769 -1.9611 -0.4349
  102OSM    C3S10219   4.578   0.647   5.986 -0.8732 -0.5679  0.0407
  102OSM    H3S10220   4.473   0.684   5.984 -0.1908  1.4751 -0.7398
  102OSM     O310221   4.572   0.546   6.083  0.1754 -0.1121 -0.2043
  102OSM    HO310222   4.576   0.593   6.167  0.3248 -2.0818  0.9512
  102OSM    C4S10223   4.621   0.596   5.851  0.1475 -0.1611 -0.8645
  102OSM    H4S10224   4.578   0.649   5.765  3.1596  0.3714 -2.1598
  102OSM    C5S10225   4.705   0.494   5.823  0.3409 -0.5555  0.0321
  102OSM    H5S10226   4.737   0.435   5.911  3.2133  2.9566  1.5915
  102OSM    C6S10227   4.732   0.451   5.682 -0.3413  0.3298 -0.0622
  102OSM    H6S10228   4.699   0.346   5.667  1.0208  0.0544 -1.3026
  102OSM    H6T10229   4.843   0.453   5.673 -0.1754 -2.0518  0.7953
  102OSM    C7S10230   4.684   0.548   5.580 -0.3540 -0.3074  0.6379
  102OSM    H7S10231   4.697   0.651   5.620  0.8329  0.4734 -1.5957
  102OSM    H7T10232   4.577   0.539   5.553  0.0065 -1.9135 -0.4100
  102OSM    C8S10233   4.761   0.526   5.443 -0.8669 -1.2866  0.4109
  102OSM    H8S10234   4.755   0.418   5.418 -0.5461 -1.2402  0.1301
  102OSM    H8T10235   4.870   0.546   5.452 -0.9080 -1.0213  0.3404
  102OSM    C9S10236   4.686   0.605   5.327  0.4790 -0.4347  0.4647
  102OSM    H9S10237   4.735   0.703   5.311  0.3120 -0.4391 -0.1174
  102OSM    H9T10238   4.581   0.630   5.354 -0.2453 -1.0025 -1.5859
  102OSM   C10S10239   4.693   0.520   5.205  0.0225 -0.4429  0.2679
  102OSM   H10S10240   4.661   0.418   5.233 -0.7402 -0.1380  0.5301
  102OSM   H10T10241   4.798   0.522   5.170  0.7602  1.9819  2.2990
  102OSM   C11S10242   4.615   0.574   5.087 -0.6794 -0.3203 -0.1794
  102OSM   H11S10243   4.598   0.681   5.111 -3.8430 -0.9005  0.6748
  102OSM   H11T10244   4.516   0.523   5.086 -0.8542  0.0238 -0.9906
  102OSM   C12S10245   4.690   0.560   4.955 -0.5161  0.0369  0.9278
  102OSM   H12S10246   4.728   0.456   4.942 -1.7029 -0.2553 -0.5259
  102OSM   H12T10247   4.777   0.627   4.972  0.2280 -0.9193  1.0122
  102OSM   C13S10248   4.607   0.605   4.838  0.0531 -0.5155  0.0500
  102OSM   H13S10249   4.659   0.593   4.740 -1.3476 -1.6188 -0.5968
  102OSM   H13T10250   4.581   0.712   4.848  1.4733 -0.2213  0.9825
  102OSM   C14S10251   4.482   0.517   4.810  0.3196 -0.1219 -0.2666
  102OSM   H14S10252   4.414   0.512   4.898  0.5404  0.3332 -0.0608
  102OSM   H14T10253   4.508   0.416   4.774  1.0651  0.5241 -1.5934
  102OSM   C15S10254   4.392   0.579   4.690 -0.1841 -0.0070 -0.3402
  102OSM   H15S10255   4.399   0.690   4.699 -2.7482  0.1918 -0.0687
  102OSM   H15T10256   4.289   0.537   4.697 -0.6366  0.9089 -1.2265
  102OSM   C16S10257   4.444   0.528   4.552 -0.2677 -0.3066 -0.2237
  102OSM   H16S10258   4.440   0.418   4.539 -3.6002 -0.4367  0.9987
  102OSM   H16T10259   4.552   0.557   4.551 -0.3797  0.1183 -1.5655
  102OSM   C17S10260   4.374   0.598   4.431 -0.1315  0.0291  0.6748
  102OSM   H17S10261   4.386   0.707   4.446 -1.8573  0.2548  0.5833
  102OSM   H17T10262   4.270   0.563   4.417 -0.4807  1.6110 -1.0909
  102OSM   C18S10263   4.448   0.571   4.294 -0.1450 -0.1268  0.7041
  102OSM   H18S10264   4.541   0.631   4.285 -0.3129 -0.1472 -2.1933
  102OSM   H18T10265   4.376   0.594   4.212  0.5127  0.2943  0.2343
  102OSM   H18U10266   4.475   0.463   4.302 -3.3119 -0.9517  1.8193
  102OSM    C1F10267   4.800   0.953   5.944 -0.8078 -0.3369  0.3707
  102OSM     OF10268   4.878   0.946   6.041 -0.0102 -0.2843 -0.4300
  102OSM    C2F10269   4.818   1.055   5.837  0.8402  0.2082  0.0129
  102OSM    H2F10270   4.917   1.104   5.856  0.7287 -0.0939  1.5717
  102OSM    H2G10271   4.742   1.135   5.848 -1.2430 -1.1363 -3.2593
  102OSM    C3F10272   4.795   1.001   5.694  0.2011  0.5041  0.1764
  102OSM    H3F10273   4.695   0.956   5.681  0.4069 -0.0925  0.5839
  102OSM    H3G10274   4.860   0.912   5.678 -2.6840 -1.6084 -0.6571
  102OSM    C4F10275   4.820   1.100   5.583 -0.1176 -0.1333  0.0566
  102OSM    H4F10276   4.922   1.145   5.586 -0.2445  0.0778  1.3756
  102OSM    H4G10277   4.742   1.178   5.592 -1.1241 -0.9121 -1.4458
  102OSM    C5F10278   4.795   1.032   5.445 -0.3264  0.4791  0.1638
  102OSM    H5F10279   4.754   0.930   5.462  0.7211  0.2974  1.7739
  102OSM    H5G10280   4.895   1.011   5.401 -0.6751  1.2979 -1.0686
  102OSM    C6F10281   4.733   1.134   5.347  0.6881  0.4997  0.3868
  102OSM    H6F10282   4.784   1.232   5.358  3.0491 -0.6823  0.7411
  102OSM    H6G10283   4.628   1.151   5.379  0.9844  0.1833  1.5982
  102OSM    C7F10284   4.745   1.071   5.203 -0.6346 -0.6037 -0.2843
  102OSM    H7F10285   4.686   0.977   5.206 -2.2962  0.1049 -4.2714
  102OSM    H7G10286   4.851   1.041   5.194 -0.1133  1.2825 -0.9833
  102OSM    C8F10287   4.706   1.176   5.101  0.1498  0.2599 -0.3336
  102OSM    H8F10288   4.767   1.266   5.123 -0.9267  0.6263  1.3319
  102OSM    H8G10289   4.602   1.216   5.108 -0.0765 -0.5862  2.7061
  102OSM    C9F10290   4.762   1.132   4.970 -0.2402  1.1078  0.5656
  102OSM    H9F10291   4.871   1.116   4.964 -0.4273 -0.8977  1.7431
  102OSM   C10F10292   4.700   1.079   4.862  0.1733  0.9524 -0.3143
  102OSM   H10F10293   4.763   1.036   4.782  0.8058  1.0597  0.1196
  102OSM   C11F10294   4.546   1.066   4.851  0.0826  0.0735  0.5821
  102OSM   H11F10295   4.493   1.091   4.945 -1.4763  0.7423 -0.4356
  102OSM   H11G10296   4.513   0.967   4.813 -1.1151  0.1571  1.3766
  102OSM   C12F10297   4.486   1.168   4.744 -0.2825 -0.8753 -0.1916
  102OSM   H12F10298   4.516   1.144   4.639  0.5940  0.5978 -0.3014
  102OSM   H12G10299   4.545   1.260   4.764 -1.7269  0.3273 -1.2380
  102OSM   C13F10300   4.335   1.177   4.765  0.0702  0.2203 -0.0792
  102OSM   H13F10301   4.308   1.240   4.853  0.6644  0.2350  0.0966
  102OSM   H13G10302   4.315   1.069   4.778  4.9598 -1.2681 -2.5369
  102OSM   C14F10303   4.260   1.229   4.648  0.3445 -0.2899  0.3486
  102OSM   H14F10304   4.302   1.322   4.606  0.2108 -1.5389 -2.8330
  102OSM   H14G10305   4.152   1.238   4.668 -0.0602 -1.0481 -1.2701
  102OSM   C15F10306   4.256   1.133   4.537  0.6738  0.3732  0.8139
  102OSM   H15F10307   4.355   1.101   4.500  0.1422 -0.8313  0.3865
  102OSM   H15G10308   4.204   1.184   4.453 -1.9255 -1.8530  0.9124
  102OSM   C16F10309   4.166   1.004   4.556  0.0058  0.8898  0.6578
  102OSM   H16F10310   4.057   1.017   4.577 -0.2214  0.9065 -0.4767
  102OSM   H16G10311   4.209   0.953   4.644  0.8831  1.2482  0.4414
  102OSM   C17F10312   4.184   0.925   4.434  0.3157  0.6021 -0.0265
  102OSM   H17F10313   4.206   0.821   4.467  0.9426  0.6456 -0.2994
  102OSM   H17G10314   4.255   0.965   4.358  0.6769  1.3456  0.6958
  102OSM   C18F10315   4.049   0.897   4.372  0.5499  0.9713  0.4056
  102OSM   H18F10316   4.008   0.994   4.338  1.6012  1.3888  0.3052
  102OSM   H18G10317   3.982   0.846   4.445  1.1366  0.4175  0.5747
  102OSM   H18H10318   4.048   0.831   4.282 -1.2328 -1.2234  1.9170
  103OSM      N10319   1.216   1.796   6.488  0.2090 -0.6068  0.8150
  103OSM    C1510320   1.108   1.773   6.381 -0.3280  0.2623  0.2065
  103OSM   H15A10321   1.091   1.673   6.345 -2.1407  1.2508 -1.9235
  103OSM   H15B10322   1.144   1.830   6.296 -1.4560 -0.3418 -0.7116
  103OSM   H15C10323   1.009   1.800   6.413 -0.7934 -1.2262  0.0769
  103OSM    C1410324   1.180   1.713   6.612 -0.5946 -0.6083  0.3860
  103OSM   H14A10325   1.100   1.754   6.671 -0.8717  0.9731 -0.9928
  103OSM   H14B10326   1.269   1.697   6.671 -1.2336 -0.0688  1.5185
  103OSM   H14C10327   1.156   1.612   6.583 -1.7696 -0.8319  2.0411
  103OSM    C1310328   1.346   1.754   6.429  0.2295 -0.3867  0.3939
  103OSM   H13A10329   1.355   1.801   6.332  0.0498 -0.3950  0.3725
  103OSM   H13B10330   1.347   1.646   6.417 -0.1388 -0.2246 -1.3422
  103OSM   H13C10331   1.426   1.798   6.485 -1.0491  0.1101  1.8988
  103OSM    C1210332   1.229   1.940   6.534  0.2421  0.5148 -0.1641
  103OSM   H12A10333   1.146   1.968   6.597  0.2424  0.3480 -0.0912
  103OSM   H12B10334   1.224   2.008   6.450  0.3534 -0.4948 -1.0024
  103OSM    C1110335   1.349   1.969   6.625  0.4275  0.1829 -0.2387
  103OSM   H11A10336   1.442   1.984   6.565  0.7795  0.7586  0.4282
  103OSM   H11B10337   1.370   1.886   6.696  2.9207 -0.0114 -1.0899
  103OSM      P10338   1.379   2.228   6.659  0.3681  0.3891  0.5691
  103OSM    O1310339   1.274   2.326   6.648 -0.0708 -0.3340 -0.2279
  103OSM    O1410340   1.489   2.262   6.754 -0.4136 -0.1876  0.7141
  103OSM    O1110341   1.438   2.196   6.517 -0.7055 -1.1928 -0.0016
  103OSM    O1210342   1.308   2.091   6.690 -0.5775 -0.2711  0.0217
  103OSM    C1S10343   1.462   2.317   6.429  0.0995 -0.3019 -0.2424
  103OSM    H1S10344   1.479   2.408   6.490 -1.3714 -1.0690  1.4130
  103OSM    H1T10345   1.373   2.342   6.368  2.0814  0.7658 -2.8476
  103OSM     NF10346   1.587   2.407   6.245 -0.2485 -0.0653 -0.1729
  103OSM    HNF10347   1.521   2.419   6.172 -1.3556 -0.2709  0.7568
  103OSM    C2S10348   1.568   2.286   6.324 -0.5038 -0.4314 -0.2456
  103OSM    H2S10349   1.661   2.267   6.382 -2.2777 -0.6926  2.7159
  103OSM    C3S10350   1.536   2.161   6.241  0.0907  0.3463  0.0833
  103OSM    H3S10351   1.444   2.189   6.185  1.3434  2.0448 -1.2214
  103OSM     O310352   1.514   2.044   6.316 -0.2850  0.2261 -0.0512
  103OSM    HO310353   1.472   2.070   6.398 -0.8804 -0.2837 -0.1777
  103OSM    C4S10354   1.653   2.130   6.145 -0.5479 -0.1548 -0.4495
  103OSM    H4S10355   1.747   2.138   6.202 -1.4253  0.6240  0.9581
  103OSM    C5S10356   1.661   2.094   6.016 -0.2715 -0.8397 -0.3044
  103OSM    H5S10357   1.567   2.069   5.964 -1.0953  0.5127  0.4705
  103OSM    C6S10358   1.787   2.074   5.938 -0.3108  0.6112  0.6895
  103OSM    H6S10359   1.793   1.964   5.929 -0.1731  0.7327 -0.9191
  103OSM    H6T10360   1.882   2.107   5.986  0.8280 -3.7601  1.9097
  103OSM    C7S10361   1.784   2.140   5.798 -0.0198 -0.0991 -0.4941
  103OSM    H7S10362   1.790   2.250   5.811  0.4042 -0.0119 -1.4011
  103OSM    H7T10363   1.685   2.114   5.754  0.1568  0.5486 -1.2838
  103OSM    C8S10364   1.902   2.104   5.713  0.0054 -0.8892  0.1354
  103OSM    H8S10365   1.900   1.994   5.698 -0.9080 -0.7498 -0.7847
  103OSM    H8T10366   1.994   2.127   5.772 -0.6222 -0.5624  1.0148
  103OSM    C9S10367   1.906   2.193   5.587  0.4721  0.5163  0.8045
  103OSM    H9S10368   2.004   2.173   5.538  0.4939 -1.4479  1.5561
  103OSM    H9T10369   1.909   2.297   5.625  0.9524  0.7367  0.1727
  103OSM   C10S10370   1.771   2.188   5.503  0.3152 -0.1539 -0.5453
  103OSM   H10S10371   1.702   2.248   5.566  1.3215  1.3128 -0.7625
  103OSM   H10T10372   1.734   2.084   5.495 -1.2240  0.4602 -2.0112
  103OSM   C11S10373   1.771   2.257   5.362  0.4840  0.0802 -0.1709
  103OSM   H11S10374   1.664   2.240   5.336  0.8681 -0.7198 -1.2938
  103OSM   H11T10375   1.839   2.202   5.293  1.1486 -0.5409  0.9658
  103OSM   C12S10376   1.812   2.399   5.370 -0.0423 -0.3262 -0.0465
  103OSM   H12S10377   1.923   2.407   5.366 -0.0214 -0.3454  0.4201
  103OSM   H12T10378   1.794   2.441   5.471 -1.0726  3.1330 -1.5244
  103OSM   C13S10379   1.759   2.481   5.258  0.0490 -0.2667 -0.6516
  103OSM   H13S10380   1.786   2.589   5.260  1.3496 -0.5870  1.0701
  103OSM   H13T10381   1.648   2.480   5.267  0.1329  0.3411  0.6581
  103OSM   C14S10382   1.806   2.421   5.124 -0.5496 -0.9976  0.9547
  103OSM   H14S10383   1.806   2.310   5.117  0.3170 -0.9532 -0.1602
  103OSM   H14T10384   1.905   2.468   5.104 -1.2789  0.1753 -0.0614
  103OSM   C15S10385   1.717   2.463   5.008 -0.4317 -0.1945  0.5909
  103OSM   H15S10386   1.726   2.574   5.011 -1.3699 -0.1259  1.9575
  103OSM   H15T10387   1.615   2.427   5.033  0.1765 -1.7094  1.0260
  103OSM   C16S10388   1.761   2.407   4.868  0.6737 -0.1247  0.3371
  103OSM   H16S10389   1.725   2.302   4.862 -0.1317  0.1383  0.5149
  103OSM   H16T10390   1.871   2.418   4.852  0.4022 -0.5566 -2.3148
  103OSM   C17S10391   1.700   2.492   4.757  0.0611 -0.0654 -0.1207
  103OSM   H17S10392   1.719   2.600   4.772 -3.1646  0.5555  0.1589
  103OSM   H17T10393   1.592   2.473   4.768  0.1493 -0.4403  0.1188
  103OSM   C18S10394   1.739   2.431   4.624 -0.1443 -0.0177  0.2774
  103OSM   H18S10395   1.668   2.464   4.546 -0.4432 -0.0793  0.5231
  103OSM   H18T10396   1.731   2.321   4.614  1.0840  0.0993 -3.9853
  103OSM   H18U10397   1.845   2.454   4.597  0.0936 -1.2347  0.1381
  103OSM    C1F10398   1.665   2.508   6.277  0.1555  0.1942  0.1839
  103OSM     OF10399   1.723   2.502   6.384  0.3385 -0.7755 -0.9823
  103OSM    C2F10400   1.678   2.613   6.174  0.1035 -0.0337 -1.1921
  103OSM    H2F10401   1.582   2.617   6.118  0.6782  1.2225 -2.1468
  103OSM    H2G10402   1.761   2.589   6.104  0.5704 -1.1662 -0.2771
  103OSM    C3F10403   1.693   2.756   6.232  0.3728 -0.2038  0.4350
  103OSM    H3F10404   1.786   2.758   6.293 -0.1931 -0.0305  1.3139
  103OSM    H3G10405   1.606   2.787   6.294 -0.9481 -1.4013 -0.7681
  103OSM    C4F10406   1.704   2.883   6.139 -0.4707 -1.1128  0.1923
  103OSM    H4F10407   1.791   2.893   6.069  0.2934 -0.6328  1.1860
  103OSM    H4G10408   1.730   2.959   6.215 -1.4697 -0.4674 -0.0981
  103OSM    C5F10409   1.571   2.917   6.073 -0.2030  0.1367  0.6230
  103OSM    H5F10410   1.490   2.928   6.148 -1.0588 -0.3554 -0.2001
  103OSM    H5G10411   1.542   2.844   5.994 -0.1374  0.6610  0.1068
  103OSM    C6F10412   1.569   3.058   6.005 -0.8543  0.6651 -0.2116
  103OSM    H6F10413   1.657   3.047   5.939  0.0207  0.4721  0.9479
  103OSM    H6G10414   1.613   3.128   6.079 -0.8192 -0.8810  1.2897
  103OSM    C7F10415   1.435   3.099   5.951  0.2969  0.3846  0.2273
  103OSM    H7F10416   1.425   3.208   5.935  2.1849  0.7636  1.3395
  103OSM    H7G10417   1.355   3.072   6.024 -0.2002  1.2613  0.0177
  103OSM    C8F10418   1.405   3.031   5.815 -0.1077 -0.2735  0.8068
  103OSM    H8F10419   1.295   3.038   5.797  0.2481  0.4448 -1.2526
  103OSM    H8G10420   1.432   2.923   5.810  1.2180  0.0207  1.2169
  103OSM    C9F10421   1.485   3.108   5.711 -0.4057 -0.0118 -0.0201
  103OSM    H9F10422   1.563   3.176   5.749  0.7122 -0.2760 -1.7467
  103OSM   C10F10423   1.466   3.098   5.576  0.6174 -0.2924  0.6286
  103OSM   H10F10424   1.529   3.154   5.506  0.1935 -0.3385  0.2097
  103OSM   C11F10425   1.365   3.007   5.505 -0.3009 -0.2069 -0.2523
  103OSM   H11F10426   1.373   2.906   5.550  1.6520 -0.6278 -1.4281
  103OSM   H11G10427   1.401   2.993   5.401  0.2685  1.0590 -0.2466
  103OSM   C12F10428   1.223   3.068   5.512  0.5063  0.1827 -0.1911
  103OSM   H12F10429   1.185   3.070   5.616 -0.3665  1.4051 -0.5154
  103OSM   H12G10430   1.156   2.990   5.468  1.5763  0.4806 -2.5178
  103OSM   C13F10431   1.208   3.210   5.450  0.4698 -0.6311  0.4445
  103OSM   H13F10432   1.277   3.288   5.487  2.8881 -2.5238  0.2048
  103OSM   H13G10433   1.108   3.250   5.477 -0.0311 -1.2572 -0.4194
  103OSM   C14F10434   1.215   3.233   5.295 -0.3809 -0.2794 -0.0958
  103OSM   H14F10435   1.316   3.234   5.250 -0.4723  1.4601 -0.3184
  103OSM   H14G10436   1.175   3.332   5.268  0.6798  0.6932  1.7047
  103OSM   C15F10437   1.109   3.146   5.222 -0.5172  0.1336 -0.9073
  103OSM   H15F10438   1.017   3.146   5.285 -0.8931 -0.6827 -1.4337
  103OSM   H15G10439   1.148   3.043   5.207  0.5953  0.5285 -0.8615
  103OSM   C16F10440   1.063   3.201   5.082 -0.3944  0.0940 -0.9440
  103OSM   H16F10441   1.055   3.310   5.101  0.1070 -0.2074  1.2164
  103OSM   H16G10442   0.958   3.163   5.074  0.2483 -3.5406  3.5831
  103OSM   C17F10443   1.152   3.166   4.965  0.1554  0.4988 -0.2115
  103OSM   H17F10444   1.186   3.061   4.979 -2.9670 -0.6655 -0.5812
  103OSM   H17G10445   1.246   3.220   4.987  0.6826  0.8588 -3.0605
  103OSM   C18F10446   1.091   3.185   4.827 -0.1262 -0.5566  0.7030
  103OSM   H18F10447   1.011   3.108   4.814  1.5616 -2.6106  1.8614
  103OSM   H18G10448   1.165   3.170   4.746 -1.2134 -0.5100 -0.3292
  103OSM   H18H10449   1.048   3.287   4.826 -0.4922 -0.7091  0.0841
  104OSM      N10450   0.451   0.538   6.643 -0.7337 -0.1668  0.3348
  104OSM    C1510451   0.392   0.474   6.758 -0.1313 -0.1507 -0.2634
  104OSM   H15A10452   0.434   0.374   6.767 -1.0280 -0.6573 -1.4742
  104OSM   H15B10453   0.286   0.459   6.743 -0.2991 -1.0027  1.4737
  104OSM   H15C10454   0.402   0.531   6.849  1.7086 -0.5209 -0.1979
  104OSM    C1410455   0.384   0.667   6.616 -0.0131  0.3118 -0.1565
  104OSM   H14A10456   0.433   0.709   6.529 -0.7588  0.6326 -0.4258
  104OSM   H14B10457   0.399   0.734   6.699  4.1748 -1.5884  0.9058
  104OSM   H14C10458   0.280   0.647   6.594 -0.3993  1.2107  0.8110
  104OSM    C1310459   0.588   0.573   6.685  0.1774  0.3108  0.0486
  104OSM   H13A10460   0.633   0.639   6.613  0.8704 -0.4654 -0.2445
  104OSM   H13B10461   0.647   0.483   6.680 -0.7022 -0.3968  1.5254
  104OSM   H13C10462   0.585   0.614   6.785 -1.5815 -1.8716  0.9891
  104OSM    C1210463   0.453   0.446   6.520 -1.2322 -0.3449  0.0890
  104OSM   H12A10464   0.452   0.342   6.550 -2.3284  0.1708  1.9586
  104OSM   H12B10465   0.544   0.464   6.464 -0.4640 -3.0689  0.2707
  104OSM    C1110466   0.333   0.473   6.434  0.4273 -0.0591  0.0314
  104OSM   H11A10467   0.341   0.409   6.343 -0.3499  2.0262 -1.5933
  104OSM   H11B10468   0.337   0.573   6.386  0.4609 -0.9090 -1.8440
  104OSM      P10469   0.121   0.334   6.506  0.2092  0.2218  0.0875
  104OSM    O1310470   0.185   0.230   6.583  0.3435  0.2464 -0.3110
  104OSM    O1410471  -0.017   0.365   6.557 -0.3297  0.0998  0.5620
  104OSM    O1110472   0.114   0.292   6.360  0.3127  0.4274 -0.0628
  104OSM    O1210473   0.211   0.457   6.509  0.4154 -0.7459 -0.3904
  104OSM    C1S10474   0.005   0.202   6.319  0.6103 -0.9671 -0.2079
  104OSM    H1S10475  -0.089   0.262   6.319  0.2066 -1.5762  0.2749
  104OSM    H1T10476  -0.003   0.112   6.384 -0.0584 -1.1787 -0.5698
  104OSM     NF10477  -0.092   0.101   6.112 -0.1768 -0.1116  0.5265
  104OSM    HNF10478  -0.086   0.001   6.111 -1.6977 -0.2375  1.3033
  104OSM    C2S10479   0.026   0.162   6.168  0.0221 -0.6923 -0.3056
  104OSM    H2S10480   0.047   0.258   6.116 -1.7835  0.5874  1.1954
  104OSM    C3S10481   0.159   0.081   6.150  0.5182 -0.2434 -0.0150
  104OSM    H3S10482   0.144  -0.019   6.196 -1.3418 -1.1125 -2.2436
  104OSM     O310483   0.274   0.129   6.219 -0.0416  0.3773  0.1857
  104OSM    HO310484   0.235   0.195   6.276 -0.8133 -0.6169  0.8542
  104OSM    C4S10485   0.189   0.059   6.010  0.4818  0.0701 -0.2631
  104OSM    H4S10486   0.212   0.150   5.952 -0.8134  0.1306 -0.7272
  104OSM    C5S10487   0.162  -0.064   5.951  0.3949 -0.3378 -0.3189
  104OSM    H5S10488   0.129  -0.149   6.013  1.2660 -1.4248 -1.3149
  104OSM    C6S10489   0.186  -0.090   5.798 -0.0159  0.3273  0.4337
  104OSM    H6S10490   0.097  -0.086   5.731  0.5012  0.4427 -0.2562
  104OSM    H6T10491   0.223  -0.194   5.787  1.2514  0.6320  1.5346
  104OSM    C7S10492   0.281   0.001   5.719 -0.5372  0.1696  0.6221
  104OSM    H7S10493   0.239   0.102   5.736 -0.9884 -0.2726  2.3196
  104OSM    H7T10494   0.268  -0.018   5.611  2.0918 -2.9566  0.6991
  104OSM    C8S10495   0.432  -0.002   5.756 -0.4540  0.3000 -0.4141
  104OSM    H8S10496   0.471  -0.098   5.716 -0.3652  0.1152  0.1009
  104OSM    H8T10497   0.445  -0.004   5.867  2.2993 -0.5364 -0.6883
  104OSM    C9S10498   0.510   0.117   5.690  0.5698 -0.4158 -0.2467
  104OSM    H9S10499   0.620   0.106   5.695  0.5006 -1.1770 -0.2913
  104OSM    H9T10500   0.478   0.201   5.755 -1.5006  0.2569 -2.0067
  104OSM   C10S10501   0.467   0.157   5.549 -0.4684  0.3908  0.0152
  104OSM   H10S10502   0.522   0.251   5.531 -0.2316  0.5161  1.3310
  104OSM   H10T10503   0.359   0.182   5.540  0.1172  3.0860 -0.1975
  104OSM   C11S10504   0.522   0.060   5.436 -0.3195 -0.0923 -0.0662
  104OSM   H11S10505   0.494  -0.044   5.463  1.0906 -0.2036  1.0818
  104OSM   H11T10506   0.633   0.061   5.435 -0.2052  0.6315  3.0093
  104OSM   C12S10507   0.454   0.102   5.303 -0.0820  0.0643  0.0261
  104OSM   H12S10508   0.455   0.213   5.300 -2.0554  0.1065 -0.6829
  104OSM   H12T10509   0.346   0.075   5.304 -0.0208 -0.2014 -0.2222
  104OSM   C13S10510   0.520   0.033   5.183  0.2284 -0.8317  0.0032
  104OSM   H13S10511   0.629   0.055   5.189 -0.1043  1.7662 -1.6261
  104OSM   H13T10512   0.481   0.080   5.090  0.3675 -2.0567 -0.7039
  104OSM   C14S10513   0.504  -0.118   5.171 -0.3184 -0.2377  0.1916
  104OSM   H14S10514   0.551  -0.158   5.263 -1.6215  2.8631  2.3354
  104OSM   H14T10515   0.557  -0.150   5.078 -3.4349 -0.0881 -1.7886
  104OSM   C15S10516   0.361  -0.161   5.156  0.1872  0.4849 -0.3656
  104OSM   H15S10517   0.317  -0.137   5.255 -0.0030 -2.1467  0.2494
  104OSM   H15T10518   0.349  -0.270   5.140  0.6878  0.2836  0.5864
  104OSM   C16S10519   0.277  -0.103   5.038 -0.2150  0.3511 -0.8548
  104OSM   H16S10520   0.278   0.007   5.051 -0.0771  0.3696 -1.0193
  104OSM   H16T10521   0.174  -0.142   5.047  0.1988 -0.7767 -0.8143
  104OSM   C17S10522   0.340  -0.142   4.901 -0.4875 -0.0265  0.0989
  104OSM   H17S10523   0.364  -0.251   4.901  2.1178  0.4182  2.7549
  104OSM   H17T10524   0.438  -0.090   4.901 -1.1007  1.2889  2.6449
  104OSM   C18S10525   0.253  -0.106   4.782  0.3316 -0.2399 -0.2848
  104OSM   H18S10526   0.242   0.005   4.782 -1.8691 -0.4048  0.7872
  104OSM   H18T10527   0.152  -0.153   4.792 -0.3767  1.1205 -0.7501
  104OSM   H18U10528   0.307  -0.150   4.696  2.2425  1.7180 -0.1597
  104OSM    C1F10529  -0.209   0.171   6.091 -0.9316 -0.2482  0.1711
  104OSM     OF10530  -0.202   0.293   6.080  0.6233  0.2110 -0.0787
  104OSM    C2F10531  -0.341   0.097   6.090  0.2381 -0.9920 -0.2834
  104OSM    H2F10532  -0.405   0.129   6.175 -0.6011  0.5112 -1.4232
  104OSM    H2G10533  -0.324  -0.013   6.093 -1.5766 -1.2927  0.9534
  104OSM    C3F10534  -0.422   0.129   5.962  1.2129 -0.3913 -0.2303
  104OSM    H3F10535  -0.469   0.230   5.960 -0.4315 -1.1262  0.0622
  104OSM    H3G10536  -0.504   0.057   5.982  1.5009 -1.3841 -2.3185
  104OSM    C4F10537  -0.354   0.105   5.825  0.4098 -0.5600  0.4249
  104OSM    H4F10538  -0.315   0.001   5.825 -0.6348 -0.9962 -1.3246
  104OSM    H4G10539  -0.278   0.184   5.808 -0.9256  0.5945 -0.3760
  104OSM    C5F10540  -0.464   0.109   5.711 -0.0918 -0.2190 -0.7605
  104OSM    H5F10541  -0.525   0.201   5.719 -0.7792 -0.7181 -0.0897
  104OSM    H5G10542  -0.527   0.020   5.734  0.8171 -0.2484  1.9350
  104OSM    C6F10543  -0.412   0.081   5.567  0.7691 -0.0125 -0.5289
  104OSM    H6F10544  -0.349  -0.010   5.562  3.4312  1.6187  0.9856
  104OSM    H6G10545  -0.340   0.164   5.549  0.1080  0.5211 -0.7436
  104OSM    C7F10546  -0.529   0.084   5.466  0.5518 -0.5940 -0.4118
  104OSM    H7F10547  -0.582   0.176   5.496  0.9890 -0.5736  0.3279
  104OSM    H7G10548  -0.599  -0.001   5.484 -0.7079  0.6147  0.6327
  104OSM    C8F10549  -0.499   0.092   5.316  0.3261  0.0182 -0.0594
  104OSM    H8F10550  -0.440   0.185   5.302 -3.0571  2.0947 -1.9253
  104OSM    H8G10551  -0.598   0.109   5.269  0.2854 -0.8205 -0.2924
  104OSM    C9F10552  -0.430  -0.030   5.272 -0.2563 -0.0344 -0.2210
  104OSM    H9F10553  -0.333  -0.038   5.323  0.4372  0.3430 -1.4267
  104OSM   C10F10554  -0.453  -0.106   5.167 -0.5400 -0.1892  0.6911
  104OSM   H10F10555  -0.381  -0.187   5.146  1.2724  1.6814 -0.7895
  104OSM   C11F10556  -0.576  -0.101   5.078  0.4850  0.1911  0.0156
  104OSM   H11F10557  -0.659  -0.052   5.134 -0.4024  0.4590 -1.4702
  104OSM   H11G10558  -0.609  -0.204   5.052 -0.8995  0.3817  0.8870
  104OSM   C12F10559  -0.551  -0.035   4.951  0.5835  0.0170 -0.4941
  104OSM   H12F10560  -0.501  -0.093   4.871 -0.1580  1.1739 -1.8568
  104OSM   H12G10561  -0.493   0.059   4.967  1.0291 -0.5232  1.2452
  104OSM   C13F10562  -0.687   0.031   4.895 -0.3034 -0.1290  0.0157
  104OSM   H13F10563  -0.737   0.090   4.975 -0.0996 -0.4566  0.3880
  104OSM   H13G10564  -0.747  -0.056   4.860  1.2331 -1.1414 -0.1860
  104OSM   C14F10565  -0.659   0.125   4.776  0.4555 -0.4300 -0.1254
  104OSM   H14F10566  -0.594   0.070   4.704 -0.0058 -0.9393 -0.1539
  104OSM   H14G10567  -0.607   0.212   4.822 -1.1679  0.2558  0.4564
  104OSM   C15F10568  -0.783   0.164   4.692  0.0630 -0.6230 -0.1938
  104OSM   H15F10569  -0.770   0.250   4.623  0.0024  0.9384  1.6851
  104OSM   H15G10570  -0.849   0.208   4.769  0.6556 -1.8420  1.0595
  104OSM   C16F10571  -0.851   0.044   4.623  0.0560  0.2251 -0.6161
  104OSM   H16F10572  -0.898  -0.031   4.690 -0.2657  2.1339  1.3708
  104OSM   H16G10573  -0.775  -0.005   4.557 -0.0787 -1.4412  0.3961
  104OSM   C17F10574  -0.973   0.100   4.547 -0.0668 -0.1025  0.5152
  104OSM   H17F10575  -0.944   0.184   4.479 -1.7221  1.3456  1.5202
  104OSM   H17G10576  -1.036   0.150   4.623  1.4654  0.2904  1.5671
  104OSM   C18F10577  -1.064   0.001   4.476 -0.2809 -1.2489  0.2727
  104OSM   H18F10578  -1.152   0.049   4.428  1.6632  0.9223 -1.3441
  104OSM   H18G10579  -1.105  -0.061   4.559  2.2911  0.3231  2.9170
  104OSM   H18H10580  -1.009  -0.054   4.398  1.8472  1.1993 -0.0794
  105OSM      N10581   6.679   0.634   6.264 -0.5761 -0.2615 -0.8961
  105OSM    C1510582   6.641   0.735   6.366 -0.0589  0.4235 -0.5099
  105OSM   H15A10583   6.660   0.699   6.467 -0.5673 -0.8432 -0.8433
  105OSM   H15B10584   6.538   0.765   6.356 -0.0636  1.2344  1.4598
  105OSM   H15C10585   6.713   0.813   6.347  0.9415 -0.5340 -0.7322
  105OSM    C1410586   6.696   0.717   6.141  0.2639 -0.5292  0.0244
  105OSM   H14A10587   6.754   0.667   6.066 -2.1984  0.2647 -2.5712
  105OSM   H14B10588   6.743   0.810   6.171 -1.9132 -0.0253  2.2692
  105OSM   H14C10589   6.601   0.748   6.100  0.1259 -0.0437  0.6815
  105OSM    C1310590   6.821   0.575   6.297  0.4500 -0.0781 -1.1275
  105OSM   H13A10591   6.901   0.647   6.297  0.6244 -0.2224  0.8436
  105OSM   H13B10592   6.838   0.492   6.229 -2.3997 -0.0439 -2.0132
  105OSM   H13C10593   6.816   0.537   6.398  0.3256 -0.5229 -1.2988
  105OSM    C1210594   6.568   0.528   6.253  0.3392 -0.2562  0.1280
  105OSM   H12A10595   6.566   0.473   6.160 -0.0858  0.8124 -0.5197
  105OSM   H12B10596   6.475   0.583   6.252 -0.7029 -1.9508  0.3379
  105OSM    C1110597   6.535   0.425   6.365  0.3097 -0.1295  0.9305
  105OSM   H11A10598   6.625   0.360   6.371  1.2961  1.1635  0.6567
  105OSM   H11B10599   6.459   0.356   6.323 -1.6183  2.4117 -0.0404
  105OSM      P10600   6.365   0.446   6.568  0.1144 -0.1114 -0.6450
  105OSM    O1310601   6.408   0.345   6.671  0.3623 -0.9060  0.6227
  105OSM    O1410602   6.287   0.566   6.611 -0.3620 -0.2151 -0.6707
  105OSM    O1110603   6.288   0.366   6.456  0.0593 -0.4005  0.3532
  105OSM    O1210604   6.494   0.485   6.491 -0.1285 -0.1736  0.2990
  105OSM    C1S10605   6.197   0.446   6.369  0.2139  0.3021  0.5488
  105OSM    H1S10606   6.236   0.549   6.359 -1.3138  1.1096  2.1520
  105OSM    H1T10607   6.092   0.456   6.404 -0.1765  0.5750 -0.6838
  105OSM     NF10608   6.137   0.441   6.128  0.3476  0.8292  0.2486
  105OSM    HNF10609   6.039   0.446   6.111  0.6747  0.6867 -2.0708
  105OSM    C2S10610   6.184   0.368   6.236  0.5210  0.4517  0.1443
  105OSM    H2S10611   6.283   0.326   6.208  0.4577  0.9792 -0.9571
  105OSM    C3S10612   6.106   0.239   6.246  0.7313  1.0780  0.0059
  105OSM    H3S10613   6.000   0.264   6.270  0.4812 -0.1730  0.2585
  105OSM     O310614   6.137   0.161   6.355  0.1574  0.4035  0.0290
  105OSM    HO310615   6.191   0.220   6.408  0.2045  0.1073  0.3126
  105OSM    C4S10616   6.124   0.147   6.126 -0.1343 -0.6672  0.3163
  105OSM    H4S10617   6.213   0.082   6.135  0.5043  0.2101  0.4551
  105OSM    C5S10618   6.027   0.142   6.032  0.1298 -0.2233 -0.2537
  105OSM    H5S10619   5.941   0.208   6.052 -0.3308 -0.8639 -0.0959
  105OSM    C6S10620   6.014   0.056   5.906 -0.0029 -0.9119  0.1397
  105OSM    H6S10621   5.910   0.020   5.890  0.2544 -1.9286  0.6462
  105OSM    H6T10622   6.079  -0.034   5.900 -0.0172 -0.8577 -1.2611
  105OSM    C7S10623   6.056   0.124   5.775  0.0135 -0.7797 -0.5001
  105OSM    H7S10624   6.038   0.043   5.702  0.2271 -1.7681  0.5265
  105OSM    H7T10625   6.160   0.163   5.786 -0.7813  1.0946  0.8812
  105OSM    C8S10626   5.967   0.241   5.728  0.2191 -0.5473 -0.0452
  105OSM    H8S10627   6.000   0.330   5.786  0.3191  0.3028 -1.3696
  105OSM    H8T10628   5.860   0.225   5.754 -0.0808  0.1946 -0.7656
  105OSM    C9S10629   5.969   0.275   5.574  0.3225  0.0425  0.0690
  105OSM    H9S10630   6.064   0.330   5.555 -0.6440  1.9966  0.6308
  105OSM    H9T10631   5.884   0.338   5.541 -0.3251 -0.1930  1.2446
  105OSM   C10S10632   5.950   0.158   5.481 -0.2732 -0.0772 -0.0164
  105OSM   H10S10633   5.843   0.133   5.497 -0.3713  0.5471  0.3332
  105OSM   H10T10634   6.018   0.072   5.498 -0.9599 -0.4726  0.7486
  105OSM   C11S10635   5.955   0.196   5.335 -0.0530 -0.4360 -0.2981
  105OSM   H11S10636   6.050   0.249   5.313 -0.3421  0.4936  0.6020
  105OSM   H11T10637   5.878   0.275   5.315 -0.5885 -0.7240  0.5914
  105OSM   C12S10638   5.929   0.085   5.235 -0.5516  0.3182 -0.3095
  105OSM   H12S10639   5.851   0.013   5.267 -0.5460  0.5213  0.1678
  105OSM   H12T10640   6.028   0.038   5.217  0.1357  1.5520  0.1106
  105OSM   C13S10641   5.887   0.152   5.106 -0.0112  0.8051 -0.4897
  105OSM   H13S10642   5.964   0.228   5.082 -0.8510  2.3442  1.4647
  105OSM   H13T10643   5.792   0.206   5.129  1.1431  1.9848  1.7776
  105OSM   C14S10644   5.860   0.058   4.990 -0.3076 -0.5436  0.2245
  105OSM   H14S10645   5.955   0.017   4.950 -1.0933 -0.4776 -1.8583
  105OSM   H14T10646   5.812   0.120   4.912  1.2450  1.0519  0.4639
  105OSM   C15S10647   5.763  -0.054   5.020  0.7524  0.2011  0.1901
  105OSM   H15S10648   5.668  -0.005   5.050 -1.2015 -1.4477 -2.7694
  105OSM   H15T10649   5.798  -0.130   5.093 -2.0543 -3.6358 -2.0549
  105OSM   C16S10650   5.733  -0.142   4.897 -0.1991 -0.5761  0.0667
  105OSM   H16S10651   5.821  -0.191   4.852 -0.7477 -1.5172 -0.0108
  105OSM   H16T10652   5.708  -0.067   4.819  1.0415  2.7573  2.6501
  105OSM   C17S10653   5.618  -0.249   4.907  0.0099  0.1181 -0.0417
  105OSM   H17S10654   5.530  -0.191   4.942 -0.1733 -0.1487 -0.0530
  105OSM   H17T10655   5.650  -0.322   4.985  0.6460 -0.0547 -0.4524
  105OSM   C18S10656   5.588  -0.327   4.777  0.2328  0.2257  1.6147
  105OSM   H18S10657   5.484  -0.366   4.783  0.5129 -1.0242 -0.5001
  105OSM   H18T10658   5.661  -0.410   4.766 -0.4332 -0.0909 -1.2583
  105OSM   H18U10659   5.598  -0.264   4.686 -1.6659 -1.1517  0.3745
  105OSM    C1F10660   6.218   0.514   6.054 -0.3281  0.5337 -0.8070
  105OSM     OF10661   6.340   0.517   6.079  0.5788  0.8680 -0.4234
  105OSM    C2F10662   6.155   0.597   5.944  0.3153 -0.2717 -0.0609
  105OSM    H2F10663   6.076   0.660   5.990 -0.7347  2.1551 -4.5352
  105OSM    H2G10664   6.103   0.529   5.873 -0.5707  2.1296 -1.8650
  105OSM    C3F10665   6.273   0.672   5.873  0.3196  0.3146  0.6897
  105OSM    H3F10666   6.343   0.593   5.838 -0.3201 -1.1084  2.4522
  105OSM    H3G10667   6.336   0.733   5.941  0.2265  0.9779  0.1830
  105OSM    C4F10668   6.227   0.760   5.762 -0.4297 -0.2646  0.0827
  105OSM    H4F10669   6.293   0.848   5.742  0.3771 -0.9114 -0.1462
  105OSM    H4G10670   6.125   0.795   5.790 -1.4001 -1.5006 -1.7674
  105OSM    C5F10671   6.204   0.675   5.632 -0.4985  0.1598 -0.3104
  105OSM    H5F10672   6.152   0.723   5.547  0.6537 -2.1468 -2.4436
  105OSM    H5G10673   6.145   0.586   5.664  1.4549 -0.4032  2.0340
  105OSM    C6F10674   6.320   0.621   5.554 -0.0050 -0.0725  0.3830
  105OSM    H6F10675   6.385   0.560   5.621  0.8998 -0.9167 -1.1838
  105OSM    H6G10676   6.373   0.708   5.510 -1.6807  0.9412  0.2839
  105OSM    C7F10677   6.282   0.531   5.437 -0.3061  0.1215  0.6607
  105OSM    H7F10678   6.186   0.479   5.458 -1.4865  0.6415 -2.8276
  105OSM    H7G10679   6.361   0.453   5.439  0.9791  1.3823  2.6047
  105OSM    C8F10680   6.262   0.608   5.303  0.1660  0.1339  0.0752
  105OSM    H8F10681   6.347   0.679   5.299 -1.9512  2.7877 -1.8998
  105OSM    H8G10682   6.159   0.647   5.320  0.1519 -0.6828  2.3256
  105OSM    C9F10683   6.257   0.512   5.189 -0.1234  0.5449  0.0524
  105OSM    H9F10684   6.243   0.412   5.232  0.6013  0.1537 -0.5929
  105OSM   C10F10685   6.260   0.536   5.056  0.0535 -0.0460  0.2437
  105OSM   H10F10686   6.272   0.453   4.985 -0.5724  1.3389 -1.5534
  105OSM   C11F10687   6.272   0.676   4.989 -0.6320  0.5432 -0.2230
  105OSM   H11F10688   6.305   0.757   5.058  1.5186  0.2923 -0.8756
  105OSM   H11G10689   6.167   0.698   4.960 -1.9645  0.9522  4.1640
  105OSM   C12F10690   6.361   0.709   4.865  0.1752 -0.1738  1.1102
  105OSM   H12F10691   6.471   0.696   4.879  0.2290 -0.1024  0.7723
  105OSM   H12G10692   6.354   0.816   4.834  0.3073  0.1923  2.2880
  105OSM   C13F10693   6.325   0.618   4.739 -0.1332 -0.2330 -0.4256
  105OSM   H13F10694   6.227   0.643   4.693 -0.4715 -1.6262 -0.4872
  105OSM   H13G10695   6.316   0.514   4.776  1.7167 -0.6751 -1.1415
  105OSM   C14F10696   6.422   0.649   4.622 -0.0392 -0.2763  1.4795
  105OSM   H14F10697   6.518   0.665   4.675  0.5758 -1.2314  0.6848
  105OSM   H14G10698   6.399   0.751   4.583  1.6484 -0.2353  0.4921
  105OSM   C15F10699   6.420   0.554   4.507  0.3253 -0.4346 -0.0834
  105OSM   H15F10700   6.316   0.553   4.468  0.3956  0.0610 -0.2901
  105OSM   H15G10701   6.450   0.451   4.535  0.1892 -0.3422  0.4058
  105OSM   C16F10702   6.517   0.595   4.394  0.1610  0.7909 -0.4326
  105OSM   H16F10703   6.617   0.605   4.440  0.2894  0.1516 -0.5533
  105OSM   H16G10704   6.480   0.692   4.354  0.7969  0.9772 -0.5789
  105OSM   C17F10705   6.533   0.500   4.275 -0.1616 -0.1155 -0.0290
  105OSM   H17F10706   6.563   0.556   4.185 -0.0609  0.6199  0.4574
  105OSM   H17G10707   6.439   0.444   4.258  0.7690 -2.0672  0.8672
  105OSM   C18F10708   6.654   0.406   4.291  0.4191 -0.8123 -0.2210
  105OSM   H18F10709   6.747   0.462   4.314  1.6070 -1.6981 -2.5410
  105OSM   H18G10710   6.676   0.340   4.204  0.0477 -1.1098 -0.0921
  105OSM   H18H10711   6.636   0.340   4.378  1.9205 -0.6746  0.2246
  106OSM      N10712   5.174   6.221   6.716  0.6804  0.7109 -0.8346
  106OSM    C1510713   5.249   6.214   6.847 -0.0612 -0.0973  0.2136
  106OSM   H15A10714   5.240   6.313   6.890  1.0506  0.2911 -0.3987
  106OSM   H15B10715   5.354   6.195   6.829 -0.0933  0.2417 -0.3565
  106OSM   H15C10716   5.215   6.132   6.908 -1.3586  1.4288  1.6710
  106OSM    C1410717   5.202   6.093   6.651  0.4584 -0.2823  0.3054
  106OSM   H14A10718   5.147   6.094   6.558 -1.4172  2.0422  1.3347
  106OSM   H14B10719   5.155   6.003   6.688 -0.3964  0.0378 -0.0004
  106OSM   H14C10720   5.307   6.075   6.634  1.4729  2.6171  2.5774
  106OSM    C1310721   5.025   6.239   6.745 -0.5801  0.2219 -0.1822
  106OSM   H13A10722   4.974   6.240   6.650  1.5624  0.5937 -1.4056
  106OSM   H13B10723   5.003   6.336   6.787  0.4283  0.4113 -0.0480
  106OSM   H13C10724   4.989   6.156   6.803  1.3469  0.5627  1.6034
  106OSM    C1210725   5.215   6.337   6.629  0.2517  0.8533  0.7047
  106OSM   H12A10726   5.319   6.336   6.600 -0.0412  0.2469 -0.3949
  106OSM   H12B10727   5.194   6.427   6.684 -3.3392 -0.2810  1.5005
  106OSM    C1110728   5.134   6.355   6.496  0.3317  1.3154 -0.0073
  106OSM   H11A10729   5.112   6.257   6.450  0.5544  1.4737 -0.4668
  106OSM   H11B10730   5.187   6.414   6.418  0.5272  0.6937 -0.3469
  106OSM      P10731   4.970   6.556   6.485  0.5804 -0.1996 -0.3614
  106OSM    O1310732   4.901   6.631   6.595 -0.5807 -0.6302  0.4034
  106OSM    O1410733   5.091   6.618   6.424 -0.1564 -0.1196  0.1686
  106OSM    O1110734   4.855   6.530   6.380  0.3849  0.4277  0.1822
  106OSM    O1210735   5.012   6.417   6.526 -0.5678  0.0240 -0.3373
  106OSM    C1S10736   4.886   6.562   6.244  0.2209 -0.5166 -0.6983
  106OSM    H1S10737   4.950   6.485   6.196 -0.1811 -0.3431 -1.5191
  106OSM    H1T10738   4.933   6.661   6.228  1.3465 -1.4636 -3.9731
  106OSM     NF10739   4.753   6.580   6.035 -0.6763 -0.6331  0.2123
  106OSM    HNF10740   4.755   6.670   5.992  0.5716 -0.0192  1.5057
  106OSM    C2S10741   4.743   6.581   6.176  0.8544 -0.0066 -0.0861
  106OSM    H2S10742   4.672   6.501   6.207 -2.1249  2.2634 -0.5800
  106OSM    C3S10743   4.678   6.706   6.237 -0.0354 -0.3435  0.7755
  106OSM    H3S10744   4.752   6.789   6.243  0.9843 -1.0707 -0.9352
  106OSM     O310745   4.635   6.691   6.372  0.3152  0.2695 -0.1711
  106OSM    HO310746   4.668   6.608   6.405 -2.2207 -0.9097 -0.3255
  106OSM    C4S10747   4.552   6.747   6.164  0.1981  0.8713  0.1529
  106OSM    H4S10748   4.459   6.690   6.174 -0.4426  1.1707 -2.9323
  106OSM    C5S10749   4.547   6.852   6.080 -0.0911  0.4798  0.1419
  106OSM    H5S10750   4.637   6.914   6.067  0.2318 -0.2503 -1.3429
  106OSM    C6S10751   4.427   6.907   6.003 -0.1646 -0.4820  0.0657
  106OSM    H6S10752   4.432   7.010   6.044  2.3618 -1.1762  1.7199
  106OSM    H6T10753   4.328   6.869   6.037 -0.6882 -0.5032 -1.3774
  106OSM    C7S10754   4.435   6.885   5.850 -0.0661 -0.3152 -0.2714
  106OSM    H7S10755   4.355   6.955   5.818  0.5494 -0.7373 -3.0175
  106OSM    H7T10756   4.418   6.781   5.815  1.9671 -0.9623  0.4968
  106OSM    C8S10757   4.565   6.921   5.768  0.3271 -0.5028  0.8480
  106OSM    H8S10758   4.631   6.835   5.794 -2.2940 -2.7169  0.6472
  106OSM    H8T10759   4.597   7.017   5.816 -1.0035 -0.6248  2.0401
  106OSM    C9S10760   4.540   6.931   5.616 -0.8152  0.3448 -0.8869
  106OSM    H9S10761   4.640   6.956   5.576  1.3854 -2.4304  2.3655
  106OSM    H9T10762   4.472   7.010   5.576  1.5822  2.6964 -0.5685
  106OSM   C10S10763   4.526   6.792   5.549 -0.1282 -0.4151 -0.1239
  106OSM   H10S10764   4.426   6.752   5.575 -1.1160  1.2745 -1.1616
  106OSM   H10T10765   4.600   6.729   5.602  0.1233  0.2028  0.2835
  106OSM   C11S10766   4.544   6.808   5.396  0.4690  0.4439 -1.1205
  106OSM   H11S10767   4.626   6.881   5.380  0.5132  1.0215  1.4141
  106OSM   H11T10768   4.450   6.851   5.353 -0.5137  0.1379  0.6418
  106OSM   C12S10769   4.570   6.675   5.324 -0.1519 -0.5964 -0.5390
  106OSM   H12S10770   4.477   6.618   5.301  0.1820 -1.5327  0.3434
  106OSM   H12T10771   4.631   6.603   5.382 -0.6898  0.0646  0.8888
  106OSM   C13S10772   4.649   6.713   5.196  0.4387  1.0093 -0.4533
  106OSM   H13S10773   4.721   6.791   5.228 -0.2390  1.2515  0.5443
  106OSM   H13T10774   4.575   6.752   5.123 -0.8323 -2.0676 -0.9827
  106OSM   C14S10775   4.710   6.597   5.124  0.6439  0.0282 -0.1335
  106OSM   H14S10776   4.670   6.501   5.163  1.6564 -0.0508  0.7628
  106OSM   H14T10777   4.820   6.596   5.142  0.6223 -1.1293 -0.0158
  106OSM   C15S10778   4.699   6.587   4.973 -0.2390  0.0938  0.4671
  106OSM   H15S10779   4.774   6.656   4.928 -1.1623  1.1437  0.4957
  106OSM   H15T10780   4.604   6.620   4.926 -0.6223 -0.6183  0.7358
  106OSM   C16S10781   4.710   6.442   4.928  0.5401  0.4647 -0.4108
  106OSM   H16S10782   4.637   6.372   4.975 -1.0774  1.5031 -1.2630
  106OSM   H16T10783   4.809   6.399   4.952  0.6952  0.4522 -1.0390
  106OSM   C17S10784   4.678   6.430   4.784 -0.7828  0.1202  0.0791
  106OSM   H17S10785   4.721   6.520   4.735 -0.7469  0.4069  0.6317
  106OSM   H17T10786   4.569   6.437   4.764 -0.7101  0.0980 -0.3463
  106OSM   C18S10787   4.741   6.306   4.715  0.4125 -0.0924  0.4045
  106OSM   H18S10788   4.849   6.296   4.737  1.1338  1.8312 -1.8613
  106OSM   H18T10789   4.724   6.304   4.605 -0.0369 -0.6465  0.4782
  106OSM   H18U10790   4.686   6.219   4.755 -0.7515  0.5172  0.1774
  106OSM    C1F10791   4.790   6.475   5.967 -0.3668  0.3989  0.1590
  106OSM     OF10792   4.770   6.362   6.011 -0.1666  0.2547  0.0753
  106OSM    C2F10793   4.850   6.506   5.836  0.1475  0.1596  0.1270
  106OSM    H2F10794   4.961   6.502   5.836  0.1298 -1.0917 -1.2091
  106OSM    H2G10795   4.822   6.611   5.814 -2.9610 -0.7789 -0.8638
  106OSM    C3F10796   4.797   6.422   5.718 -0.8783 -0.9102  0.1373
  106OSM    H3F10797   4.689   6.405   5.696 -0.6383 -1.1499 -0.9005
  106OSM    H3G10798   4.834   6.318   5.735  1.7848 -0.2816 -1.3140
  106OSM    C4F10799   4.854   6.470   5.584 -0.1228 -0.2601 -0.4309
  106OSM    H4F10800   4.961   6.439   5.583  0.3453  0.7925  2.9940
  106OSM    H4G10801   4.835   6.578   5.566  1.2021 -0.4992 -4.0127
  106OSM    C5F10802   4.792   6.391   5.471  0.6326  0.0456  1.0289
  106OSM    H5F10803   4.818   6.440   5.375 -0.1653 -0.3045  0.6214
  106OSM    H5G10804   4.681   6.394   5.479  0.5010  0.2202 -0.6475
  106OSM    C6F10805   4.830   6.239   5.458 -0.1440  0.5289 -0.7580
  106OSM    H6F10806   4.796   6.194   5.554 -1.4695  1.5176 -0.7528
  106OSM    H6G10807   4.940   6.227   5.441  0.2801  1.6220  0.9632
  106OSM    C7F10808   4.758   6.171   5.349 -0.7201 -0.6084  0.2788
  106OSM    H7F10809   4.655   6.212   5.344 -1.4727 -2.4099  0.5500
  106OSM    H7G10810   4.746   6.065   5.380 -0.2584 -0.1942  1.9822
  106OSM    C8F10811   4.830   6.185   5.215 -0.4293  0.2248 -0.3287
  106OSM    H8F10812   4.939   6.173   5.231 -0.3163 -1.4224 -1.9724
  106OSM    H8G10813   4.809   6.288   5.179 -0.2392  0.0307 -1.0084
  106OSM    C9F10814   4.779   6.085   5.116  0.5456 -0.1814  0.1530
  106OSM    H9F10815   4.671   6.065   5.123  0.7299 -0.9688  0.8216
  106OSM   C10F10816   4.842   6.019   5.020 -0.6471  0.5844  0.5897
  106OSM   H10F10817   4.796   5.942   4.957  0.3501  1.6626 -1.5342
  106OSM   C11F10818   4.989   6.024   5.000 -0.6644  0.4363  0.3603
  106OSM   H11F10819   5.045   6.087   5.072  0.9042  0.3916 -0.7703
  106OSM   H11G10820   5.025   6.048   4.898  1.3946 -1.9377  0.4201
  106OSM   C12F10821   5.054   5.888   5.029 -1.2388  0.4347  0.1287
  106OSM   H12F10822   5.158   5.898   4.990 -0.6598  1.0084  1.7194
  106OSM   H12G10823   5.015   5.807   4.964  0.4818 -0.4951  0.1841
  106OSM   C13F10824   5.069   5.844   5.171 -0.8145  0.0166  0.0129
  106OSM   H13F10825   5.062   5.941   5.225 -1.3719  0.1989 -0.3747
  106OSM   H13G10826   5.173   5.809   5.187 -1.1786 -1.2081 -0.2103
  106OSM   C14F10827   4.959   5.757   5.222  0.4407  0.8556  0.3905
  106OSM   H14F10828   4.977   5.659   5.171  0.9582  0.5313  1.1778
  106OSM   H14G10829   4.860   5.792   5.186 -0.2764 -0.1879  1.2656
  106OSM   C15F10830   4.968   5.738   5.369 -0.3088 -0.4866 -0.2756
  106OSM   H15F10831   5.077   5.722   5.386 -0.1613  2.3453  2.1887
  106OSM   H15G10832   4.920   5.642   5.398  2.8735 -2.2481 -0.3304
  106OSM   C16F10833   4.906   5.840   5.459  0.1023 -0.2969 -0.3135
  106OSM   H16F10834   4.798   5.858   5.440  0.4950  0.8847 -1.5955
  106OSM   H16G10835   4.949   5.943   5.457  0.5541 -0.3212  2.7799
  106OSM   C17F10836   4.930   5.798   5.609  0.4387 -0.4397  0.6388
  106OSM   H17F10837   5.036   5.767   5.621  0.5363 -0.4206 -0.1204
  106OSM   H17G10838   4.853   5.725   5.639 -0.6434 -0.6437 -2.2831
  106OSM   C18F10839   4.905   5.920   5.707 -0.3063  0.4113 -0.0421
  106OSM   H18F10840   4.806   5.968   5.692 -1.0565 -0.8509  0.6333
  106OSM   H18G10841   4.984   5.996   5.694  1.5002 -1.2233  0.8651
  106OSM   H18H10842   4.911   5.874   5.808  1.4673 -1.6369 -1.0042
  107OSM      N10843   4.095   4.433   6.492 -0.4338  0.1384  0.0802
  107OSM    C1510844   4.132   4.413   6.352  0.4908 -0.2465  0.1358
  107OSM   H15A10845   4.084   4.469   6.273  1.2225 -0.7682 -0.7005
  107OSM   H15B10846   4.122   4.308   6.328  0.6948 -0.3768  0.6213
  107OSM   H15C10847   4.236   4.441   6.342  0.6616  0.1160  2.4045
  107OSM    C1410848   4.122   4.574   6.523 -0.7396 -0.1516  0.4139
  107OSM   H14A10849   4.062   4.643   6.466  1.4716  0.6002 -1.1175
  107OSM   H14B10850   4.228   4.586   6.512 -0.2844 -1.2221  2.9913
  107OSM   H14C10851   4.108   4.588   6.629  0.8048 -1.8562  0.8961
  107OSM    C1310852   3.945   4.409   6.499 -0.2240 -0.0717 -0.5304
  107OSM   H13A10853   3.923   4.303   6.493 -2.6612  0.2179  1.3750
  107OSM   H13B10854   3.884   4.460   6.426 -0.2555 -1.1599 -1.3064
  107OSM   H13C10855   3.916   4.434   6.600  0.0393 -2.6522  0.2575
  107OSM    C1210856   4.171   4.341   6.588 -0.7028 -0.2558 -0.6028
  107OSM   H12A10857   4.126   4.358   6.684 -1.1884 -1.0206 -0.6878
  107OSM   H12B10858   4.276   4.364   6.577 -0.5799 -1.3460 -1.9942
  107OSM    C1110859   4.172   4.196   6.557 -0.4173 -0.0623 -0.2944
  107OSM   H11A10860   4.274   4.167   6.588  0.5816  2.6445 -0.7732
  107OSM   H11B10861   4.153   4.161   6.453 -1.5594 -0.0441 -0.1042
  107OSM      P10862   3.941   4.080   6.630  0.1973  0.2871 -0.1385
  107OSM    O1310863   3.949   3.941   6.675  0.8728  0.7543 -0.1712
  107OSM    O1410864   3.848   4.176   6.693  0.4284  0.6739  0.9977
  107OSM    O1110865   3.916   4.078   6.474  0.0770 -0.1801  0.3748
  107OSM    O1210866   4.085   4.131   6.647 -0.6717 -0.2373  0.7184
  107OSM    C1S10867   3.809   4.006   6.412 -0.4574 -0.0929 -0.1399
  107OSM    H1S10868   3.723   3.993   6.482 -1.6306  0.6490 -1.3965
  107OSM    H1T10869   3.838   3.905   6.377 -0.3796 -0.2756  0.4481
  107OSM     NF10870   3.611   4.031   6.256 -0.1847 -0.1153 -0.0595
  107OSM    HNF10871   3.610   3.965   6.181  2.8066 -0.7842  0.3595
  107OSM    C2S10872   3.749   4.082   6.295  0.1041 -0.8252  0.1319
  107OSM    H2S10873   3.739   4.188   6.326 -0.0434 -1.0824  0.9859
  107OSM    C3S10874   3.864   4.083   6.183  0.0284 -0.1340  0.0398
  107OSM    H3S10875   3.891   3.975   6.178  1.4708  0.1984  0.2068
  107OSM     O310876   3.982   4.155   6.228 -0.2016 -0.1817  0.1721
  107OSM    HO310877   3.983   4.163   6.324  2.3128 -0.5210  0.2401
  107OSM    C4S10878   3.813   4.131   6.056 -0.3708  0.0049  0.5428
  107OSM    H4S10879   3.803   4.062   5.972 -1.2152  1.9861 -1.0824
  107OSM    C5S10880   3.776   4.258   6.036  0.4641 -0.1836  0.3548
  107OSM    H5S10881   3.790   4.326   6.122  1.4061  0.4766 -0.3003
  107OSM    C6S10882   3.707   4.314   5.908  0.0853  0.0489 -0.0907
  107OSM    H6S10883   3.767   4.402   5.877 -2.9198  1.9721 -0.8278
  107OSM    H6T10884   3.613   4.369   5.929 -0.0524 -0.4149  0.5536
  107OSM    C7S10885   3.690   4.213   5.793 -0.4049  0.1859  0.1385
  107OSM    H7S10886   3.607   4.143   5.818  0.3667 -1.1320 -0.8292
  107OSM    H7T10887   3.776   4.144   5.782 -0.7793 -0.2217 -0.3168
  107OSM    C8S10888   3.651   4.281   5.663  0.0152  0.1282  0.1997
  107OSM    H8S10889   3.727   4.356   5.635  2.0767 -2.4247 -1.4091
  107OSM    H8T10890   3.551   4.328   5.680  0.7016  0.8663  2.7433
  107OSM    C9S10891   3.639   4.188   5.546  0.3714  0.3914  0.0470
  107OSM    H9S10892   3.583   4.095   5.572 -0.1571  0.5400 -0.5199
  107OSM    H9T10893   3.742   4.156   5.520  0.7634  0.4792  1.4401
  107OSM   C10S10894   3.575   4.252   5.424 -0.0037  0.1758  0.4145
  107OSM   H10S10895   3.637   4.337   5.390 -1.4075  1.6284  1.3709
  107OSM   H10T10896   3.469   4.274   5.449 -0.6171 -1.8289 -0.1707
  107OSM   C11S10897   3.555   4.145   5.309  0.0960 -0.4211 -0.6717
  107OSM   H11S10898   3.483   4.067   5.342 -0.6291  0.9759  1.1986
  107OSM   H11T10899   3.649   4.087   5.297  1.1697  1.5950 -3.1641
  107OSM   C12S10900   3.509   4.206   5.179  0.3688 -0.2937 -0.9501
  107OSM   H12S10901   3.587   4.270   5.133  1.3249 -0.9189 -0.2154
  107OSM   H12T10902   3.415   4.263   5.193  0.8252 -0.2374  2.6869
  107OSM   C13S10903   3.484   4.097   5.071  0.2660  0.2729  0.5470
  107OSM   H13S10904   3.401   4.032   5.104 -1.4832  0.9923 -2.0714
  107OSM   H13T10905   3.579   4.040   5.078  0.9260  1.5042  2.5170
  107OSM   C14S10906   3.452   4.152   4.933  0.4547  0.0558  0.3712
  107OSM   H14S10907   3.548   4.193   4.896 -0.6377  0.8995 -1.6704
  107OSM   H14T10908   3.379   4.234   4.951 -1.6425 -2.0121  1.9446
  107OSM   C15S10909   3.406   4.044   4.825  0.0799 -0.3430 -0.2041
  107OSM   H15S10910   3.325   3.983   4.869 -1.2627  2.3003  1.1982
  107OSM   H15T10911   3.495   3.978   4.820  1.0630  0.9010  0.2676
  107OSM   C16S10912   3.355   4.103   4.691 -0.1895 -0.0241  0.7364
  107OSM   H16S10913   3.439   4.149   4.635 -0.9599  1.8486  1.0444
  107OSM   H16T10914   3.278   4.181   4.712  0.6272  0.2930  2.7743
  107OSM   C17S10915   3.298   3.999   4.595 -0.7004 -0.0597  0.3225
  107OSM   H17S10916   3.212   3.947   4.642  0.4436 -2.7313 -0.3427
  107OSM   H17T10917   3.375   3.923   4.567 -0.9342  0.1993 -1.1138
  107OSM   C18S10918   3.246   4.072   4.473 -0.5048  0.7568 -0.4032
  107OSM   H18S10919   3.193   4.165   4.503  1.6945  1.2902  2.2863
  107OSM   H18T10920   3.176   4.013   4.411  0.1356  1.9231 -2.3392
  107OSM   H18U10921   3.330   4.095   4.404  0.0230 -0.3726 -0.1693
  107OSM    C1F10922   3.505   4.052   6.328 -0.4481 -0.3920  0.1028
  107OSM     OF10923   3.497   4.135   6.423  0.1346 -0.7159  0.1234
  107OSM    C2F10924   3.395   3.958   6.291 -0.0450 -0.4402 -0.2512
  107OSM    H2F10925   3.389   3.897   6.383 -2.0590 -0.3385 -0.2679
  107OSM    H2G10926   3.417   3.894   6.203  1.0936 -0.2543 -0.1203
  107OSM    C3F10927   3.260   4.026   6.280  0.0401  0.1614  0.0759
  107OSM    H3F10928   3.224   4.069   6.376 -1.8057 -1.5476  0.2163
  107OSM    H3G10929   3.192   3.940   6.262  1.6303 -0.6548 -2.7076
  107OSM    C4F10930   3.236   4.126   6.153  0.6927 -0.1750 -0.1816
  107OSM    H4F10931   3.304   4.211   6.175  0.1887 -0.2567  1.9373
  107OSM    H4G10932   3.134   4.169   6.166  0.2504 -1.7439  2.2742
  107OSM    C5F10933   3.252   4.051   6.014  0.1981  0.6992 -0.4514
  107OSM    H5F10934   3.171   3.977   6.001 -0.6826  1.5183  0.1666
  107OSM    H5G10935   3.346   3.995   6.030 -0.2670  0.0142 -0.0679
  107OSM    C6F10936   3.254   4.151   5.894 -0.3680  0.6121  0.6230
  107OSM    H6F10937   3.341   4.219   5.903 -1.0000  1.5726 -0.2191
  107OSM    H6G10938   3.172   4.220   5.923 -0.8088 -0.3945  1.8829
  107OSM    C7F10939   3.229   4.090   5.758 -0.3548  0.4317  0.4469
  107OSM    H7F10940   3.127   4.045   5.763 -0.6928  0.7258 -2.2680
  107OSM    H7G10941   3.304   4.011   5.735 -1.3596 -1.0369  1.9608
  107OSM    C8F10942   3.248   4.183   5.637  0.0838  0.6019  0.0301
  107OSM    H8F10943   3.225   4.125   5.546 -0.4613 -2.5934  2.0432
  107OSM    H8G10944   3.357   4.206   5.633  0.4507 -1.1280 -1.4611
  107OSM    C9F10945   3.158   4.305   5.646 -0.5165 -0.5100  0.3711
  107OSM    H9F10946   3.173   4.359   5.740  0.5969  0.6947 -0.4689
  107OSM   C10F10947   3.093   4.367   5.538 -0.0406  0.2867 -0.1563
  107OSM   H10F10948   3.048   4.467   5.553 -1.6538 -0.3800 -0.3060
  107OSM   C11F10949   3.070   4.311   5.394  0.2519 -0.4661  0.1633
  107OSM   H11F10950   2.977   4.250   5.388  1.9559 -3.6313  2.7881
  107OSM   H11G10951   3.159   4.252   5.363  1.5131  1.8475 -0.8829
  107OSM   C12F10952   3.058   4.428   5.290  0.1277 -0.0389 -0.7284
  107OSM   H12F10953   3.144   4.498   5.286 -0.1816  0.3311 -0.9673
  107OSM   H12G10954   2.968   4.485   5.324  1.4630  2.5854 -1.3404
  107OSM   C13F10955   3.012   4.379   5.152 -0.4819  0.5837  0.1652
  107OSM   H13F10956   2.916   4.324   5.149  0.9857 -2.1301 -0.9967
  107OSM   H13G10957   3.083   4.302   5.114  0.1670  1.0609  0.3710
  107OSM   C14F10958   3.005   4.498   5.050  0.2491  0.4900 -0.3352
  107OSM   H14F10959   3.111   4.527   5.034  0.4011 -0.7944 -1.9547
  107OSM   H14G10960   2.950   4.583   5.095 -2.0971 -0.0797 -1.9652
  107OSM   C15F10961   2.940   4.470   4.915 -0.8316  0.6836 -0.0386
  107OSM   H15F10962   2.835   4.436   4.933  0.2754 -1.4655  3.3608
  107OSM   H15G10963   2.991   4.389   4.859  0.6027  0.2722  1.7702
  107OSM   C16F10964   2.933   4.587   4.809  0.6716 -0.2672 -0.8613
  107OSM   H16F10965   2.877   4.540   4.726 -1.8270  0.7417  0.1546
  107OSM   H16G10966   3.036   4.627   4.795  0.9006 -0.0342  1.1657
  107OSM   C17F10967   2.852   4.708   4.861 -0.4076 -0.1721 -0.2189
  107OSM   H17F10968   2.900   4.747   4.954 -0.8729 -0.5268  0.1746
  107OSM   H17G10969   2.757   4.660   4.893 -0.1478 -1.1133 -0.8451
  107OSM   C18F10970   2.820   4.814   4.762 -0.2368 -0.0649 -0.1453
  107OSM   H18F10971   2.781   4.912   4.795 -0.7021  0.0687 -1.0409
  107OSM   H18G10972   2.736   4.776   4.700 -0.6910 -0.7689  0.8765
  107OSM   H18H10973   2.906   4.836   4.695 -1.6975  0.2298 -2.0262
  108OSM      N10974   5.439   4.240   6.876  0.4411  0.0099 -0.2555
  108OSM    C1510975   5.461   4.121   6.965  0.1647 -0.9769 -0.4498
  108OSM   H15A10976   5.522   4.142   7.052 -1.7200  1.3428  0.3998
  108OSM   H15B10977   5.498   4.044   6.900 -0.1107 -1.2776 -0.2562
  108OSM   H15C10978   5.370   4.079   7.005 -1.4805  1.6823 -1.1773
  108OSM    C1410979   5.372   4.187   6.751 -0.2744 -0.3157  0.3194
  108OSM   H14A10980   5.340   4.260   6.678  0.2363 -1.5938 -1.2679
  108OSM   H14B10981   5.289   4.118   6.764 -0.3264 -0.9017 -2.3519
  108OSM   H14C10982   5.439   4.119   6.700 -0.3377 -0.6583  0.6892
  108OSM    C1310983   5.362   4.350   6.944 -0.0607  0.0120  0.0826
  108OSM   H13A10984   5.407   4.395   7.032  1.0528 -2.5802  0.9388
  108OSM   H13B10985   5.262   4.315   6.965  0.0998 -1.5169 -1.4752
  108OSM   H13C10986   5.346   4.436   6.880 -1.1827  0.0804  0.4316
  108OSM    C1210987   5.570   4.307   6.831 -0.1642 -0.6522 -0.4266
  108OSM   H12A10988   5.554   4.387   6.759 -0.3490  0.2037  0.5389
  108OSM   H12B10989   5.616   4.231   6.770  0.1102 -0.5918 -0.2933
  108OSM    C1110990   5.684   4.355   6.924  0.5390 -0.1151 -0.4461
  108OSM   H11A10991   5.742   4.265   6.954  0.6666  0.4265  1.0406
  108OSM   H11B10992   5.645   4.403   7.016  1.8359  3.1050 -1.4628
  108OSM      P10993   5.882   4.520   6.895  0.3292 -0.1274  0.6095
  108OSM    O1310994   5.823   4.648   6.951 -0.0969 -0.5278  0.2463
  108OSM    O1410995   5.968   4.437   6.972  0.2576 -0.2296 -0.2686
  108OSM    O1110996   5.943   4.549   6.757  0.0024  0.4203  0.2555
  108OSM    O1210997   5.772   4.430   6.843  0.0688  0.3420 -0.3778
  108OSM    C1S10998   6.012   4.445   6.691  1.1165 -0.2570  0.9160
  108OSM    H1S10999   5.949   4.354   6.698  0.0860  0.4551  1.0796
  108OSM    H1T11000   6.106   4.410   6.739 -0.7769 -3.6729  2.5085
  108OSM     NF11001   6.088   4.369   6.485  0.2182 -0.0156  0.0263
  108OSM    HNF11002   6.186   4.358   6.495  0.2543  0.5841  0.3703
  108OSM    C2S11003   6.030   4.488   6.542  0.7743 -0.1700 -0.3386
  108OSM    H2S11004   5.927   4.508   6.506 -0.4522 -1.4519  2.1982
  108OSM    C3S11005   6.115   4.618   6.530  0.6543 -0.4357  0.1060
  108OSM    H3S11006   6.216   4.596   6.571  0.7626 -2.0861 -0.9662
  108OSM     O311007   6.065   4.720   6.607  0.0851 -0.2980 -0.2175
  108OSM    HO311008   6.018   4.666   6.672  1.0641 -1.5921 -0.5536
  108OSM    C4S11009   6.138   4.659   6.384  1.0761 -0.5587 -0.1396
  108OSM    H4S11010   6.220   4.597   6.346  0.1645 -0.7580 -1.8584
  108OSM    C5S11011   6.077   4.742   6.302  0.2688 -0.3147 -0.6771
  108OSM    H5S11012   5.985   4.786   6.343  0.0695 -0.8778 -0.5091
  108OSM    C6S11013   6.107   4.766   6.161 -0.0987  0.3825  1.1339
  108OSM    H6S11014   6.128   4.873   6.139  1.1646 -0.3691 -1.8906
  108OSM    H6T11015   6.021   4.721   6.106  1.1743 -0.6130 -0.1176
  108OSM    C7S11016   6.235   4.688   6.102 -0.0211 -0.3960 -0.2785
  108OSM    H7S11017   6.231   4.582   6.134  0.4805 -1.1787 -2.5945
  108OSM    H7T11018   6.315   4.731   6.166 -1.6803  0.1081  1.5576
  108OSM    C8S11019   6.262   4.705   5.948 -0.4000 -0.8097  0.0680
  108OSM    H8S11020   6.173   4.676   5.889  0.0150  0.1830 -1.0778
  108OSM    H8T11021   6.345   4.643   5.907  0.6584  2.3029 -2.9417
  108OSM    C9S11022   6.300   4.847   5.897  0.2207 -0.2279 -0.1051
  108OSM    H9S11023   6.372   4.887   5.970 -0.4600  0.9244 -0.0501
  108OSM    H9T11024   6.221   4.923   5.911  1.2677  0.5594  1.8103
  108OSM   C10S11025   6.361   4.852   5.758 -0.2892  1.0609 -0.0092
  108OSM   H10S11026   6.295   4.794   5.691 -1.1135  0.8619  0.9513
  108OSM   H10T11027   6.466   4.814   5.759 -0.0827  1.5978  1.3459
  108OSM   C11S11028   6.374   4.983   5.693 -0.8368 -0.3163  0.1385
  108OSM   H11S11029   6.460   5.039   5.737 -1.4352  0.0945  0.7893
  108OSM   H11T11030   6.285   5.048   5.705 -0.6476  0.0965 -0.6131
  108OSM   C12S11031   6.392   4.963   5.538  0.3945  0.0777 -0.4166
  108OSM   H12S11032   6.302   4.908   5.503  0.6826 -1.3919  1.0495
  108OSM   H12T11033   6.472   4.886   5.539  0.1626 -0.2151  2.2597
  108OSM   C13S11034   6.432   5.091   5.452 -0.2142  0.7040 -0.2166
  108OSM   H13S11035   6.515   5.149   5.497  0.2422 -1.6981  2.3415
  108OSM   H13T11036   6.350   5.160   5.424 -0.3695 -0.3900 -2.8052
  108OSM   C14S11037   6.483   5.046   5.312 -0.1521  0.4942 -0.2511
  108OSM   H14S11038   6.406   4.974   5.277 -1.0147  0.2796  1.9184
  108OSM   H14T11039   6.583   4.997   5.321  0.3769  1.2894 -1.5369
  108OSM   C15S11040   6.504   5.150   5.209  0.1859  0.4156  0.2431
  108OSM   H15S11041   6.584   5.214   5.252  2.8514  0.3096 -3.9833
  108OSM   H15T11042   6.409   5.206   5.196  0.5366  1.2329  1.0335
  108OSM   C16S11043   6.561   5.090   5.081 -0.3209  0.6041  0.2364
  108OSM   H16S11044   6.640   5.015   5.102 -1.1480  0.0678  1.5960
  108OSM   H16T11045   6.616   5.174   5.035 -1.1219  0.8350 -0.3223
  108OSM   C17S11046   6.458   5.037   4.974  0.0042 -0.1818 -0.0143
  108OSM   H17S11047   6.390   4.960   5.016  0.5594  0.1763  1.6301
  108OSM   H17T11048   6.528   4.999   4.896 -1.9812 -2.0236 -1.0125
  108OSM   C18S11049   6.368   5.147   4.907  0.3060 -0.0024  0.1502
  108OSM   H18S11050   6.311   5.110   4.820  0.3136  1.0610 -0.3260
  108OSM   H18T11051   6.429   5.237   4.881 -1.2701  1.4327  1.1608
  108OSM   H18U11052   6.301   5.179   4.990  0.1082  2.1688 -0.7598
  108OSM    C1F11053   6.023   4.269   6.429  0.0564  0.0928 -0.9698
  108OSM     OF11054   5.905   4.282   6.419  0.1065  0.0677  0.6786
  108OSM    C2F11055   6.099   4.147   6.389  0.0945 -0.0827 -0.2717
  108OSM    H2F11056   6.026   4.082   6.337  1.6117 -0.7901 -1.5785
  108OSM    H2G11057   6.140   4.093   6.478 -0.5815  0.9690  0.7101
  108OSM    C3F11058   6.210   4.170   6.279 -0.4979 -0.1954  0.0691
  108OSM    H3F11059   6.244   4.065   6.269 -0.8689 -0.5399  2.0168
  108OSM    H3G11060   6.294   4.231   6.318 -0.3991 -0.8628  0.9289
  108OSM    C4F11061   6.166   4.218   6.145  0.6034  0.7018 -0.2470
  108OSM    H4F11062   6.130   4.321   6.163 -1.8182 -0.3994  1.8845
  108OSM    H4G11063   6.073   4.163   6.119  1.9224 -0.6656 -2.5070
  108OSM    C5F11064   6.267   4.203   6.029  0.3062  0.6216 -0.0728
  108OSM    H5F11065   6.282   4.096   6.001 -0.4694 -0.6659  3.7847
  108OSM    H5G11066   6.368   4.236   6.061  0.0579 -0.2423  1.7672
  108OSM    C6F11067   6.237   4.284   5.908  0.4641 -0.1826 -0.0472
  108OSM    H6F11068   6.316   4.274   5.831  0.8263  1.3543  0.0957
  108OSM    H6G11069   6.264   4.386   5.939 -0.4044  0.3845 -1.0729
  108OSM    C7F11070   6.100   4.288   5.846  0.3225 -0.5573  0.0876
  108OSM    H7F11071   6.025   4.300   5.926  0.6735  1.9426  0.1300
  108OSM    H7G11072   6.079   4.190   5.797 -2.3320  0.5830 -1.2218
  108OSM    C8F11073   6.082   4.407   5.743  0.3427 -0.2748 -0.0603
  108OSM    H8F11074   6.134   4.494   5.789  0.8019 -0.4481 -0.2448
  108OSM    H8G11075   5.974   4.429   5.727  0.0383 -1.0308  0.8344
  108OSM    C9F11076   6.138   4.381   5.606 -0.6240  0.7454 -0.2393
  108OSM    H9F11077   6.247   4.375   5.610 -0.6156  0.0117  5.3612
  108OSM   C10F11078   6.065   4.360   5.492 -1.5584 -0.2662 -0.9018
  108OSM   H10F11079   6.127   4.362   5.402 -0.1013  1.8802  0.0575
  108OSM   C11F11080   5.912   4.361   5.468  0.0701 -0.6790  0.2983
  108OSM   H11F11081   5.874   4.461   5.498 -1.2532 -0.7756 -0.9602
  108OSM   H11G11082   5.882   4.288   5.546  3.8169 -0.3280  2.2946
  108OSM   C12F11083   5.869   4.321   5.332  0.1780  0.2744  0.1886
  108OSM   H12F11084   5.760   4.297   5.329  0.1980  0.2361 -0.2171
  108OSM   H12G11085   5.921   4.226   5.305  0.3042  0.3913  0.0243
  108OSM   C13F11086   5.905   4.418   5.221 -0.1653  0.1338  0.0871
  108OSM   H13F11087   5.999   4.465   5.255 -0.5197  0.6782  0.3230
  108OSM   H13G11088   5.831   4.500   5.212 -1.2143 -0.9425 -1.7630
  108OSM   C14F11089   5.940   4.351   5.091 -0.7312 -0.0369 -0.1442
  108OSM   H14F11090   5.869   4.267   5.073  1.5093 -2.0258 -0.1993
  108OSM   H14G11091   6.035   4.297   5.110  0.1780  1.1489 -1.1925
  108OSM   C15F11092   5.936   4.447   4.970 -0.8285  0.2037 -0.5210
  108OSM   H15F11093   6.016   4.523   4.976  2.3096 -2.8868 -0.2853
  108OSM   H15G11094   5.834   4.490   4.958 -1.4944 -0.9788  0.5135
  108OSM   C16F11095   5.961   4.362   4.844  0.2392  0.5208 -0.0438
  108OSM   H16F11096   5.881   4.285   4.846 -0.8552  1.6135 -0.3925
  108OSM   H16G11097   6.055   4.305   4.861 -1.1437 -1.5688  1.0941
  108OSM   C17F11098   5.974   4.439   4.713 -0.2028 -0.0804 -0.4023
  108OSM   H17F11099   6.046   4.523   4.724  0.7044 -0.8461 -0.4755
  108OSM   H17G11100   5.873   4.485   4.699 -0.6865 -0.8049  0.5510
  108OSM   C18F11101   6.000   4.350   4.588  0.0796 -0.4301 -0.1677
  108OSM   H18F11102   6.009   4.431   4.513 -0.2934  0.2271  0.4754
  108OSM   H18G11103   5.915   4.282   4.572 -1.1670  0.9449  0.3947
  108OSM   H18H11104   6.094   4.294   4.611 -0.2318 -0.3224  1.5519
  109OSM      N11105   3.700   0.181   6.630  0.3419  0.1221 -0.2639
  109OSM    C1511106   3.683   0.324   6.652  0.6126  0.2509 -0.1641
  109OSM   H15A11107   3.783   0.366   6.642  1.1437 -1.3544 -2.6982
  109OSM   H15B11108   3.661   0.339   6.756  1.3308 -2.3809  0.4328
  109OSM   H15C11109   3.615   0.377   6.587  1.5892  2.1086  0.2400
  109OSM    C1411110   3.804   0.128   6.723 -0.9151 -0.4333  0.4096
  109OSM   H14A11111   3.821   0.022   6.724  4.3213  0.0111 -2.4298
  109OSM   H14B11112   3.784   0.154   6.826 -2.4897 -0.5008  0.1357
  109OSM   H14C11113   3.904   0.168   6.714 -1.3742  1.1158  1.7447
  109OSM    C1311114   3.571   0.126   6.675  0.2643  0.6004  0.1491
  109OSM   H13A11115   3.558   0.020   6.655  0.1406  0.3923  1.2303
  109OSM   H13B11116   3.491   0.186   6.634  0.7760  1.1342 -0.0716
  109OSM   H13C11117   3.573   0.135   6.783  2.0973 -0.3356  0.2248
  109OSM    C1211118   3.728   0.152   6.490  0.0514  0.3070  0.5022
  109OSM   H12A11119   3.807   0.219   6.458  2.1079 -1.0693  2.3822
  109OSM   H12B11120   3.640   0.167   6.430 -0.4173 -1.5445  0.6629
  109OSM    C1111121   3.776   0.004   6.453 -0.9296 -0.4869  0.4351
  109OSM   H11A11122   3.874  -0.020   6.499 -0.1156 -2.1043 -1.9359
  109OSM   H11B11123   3.801   0.003   6.344 -3.1027  0.1616 -0.1178
  109OSM      P11124   3.682  -0.210   6.571  0.1923  0.3488 -0.3158
  109OSM    O1311125   3.770  -0.179   6.685 -0.1780 -0.5080 -0.7862
  109OSM    O1411126   3.555  -0.276   6.601  0.5873 -0.0091  0.0710
  109OSM    O1111127   3.764  -0.311   6.475 -0.6562 -0.0825  0.3717
  109OSM    O1211128   3.667  -0.087   6.481 -0.6130 -0.1339 -0.8526
  109OSM    C1S11129   3.709  -0.388   6.367 -0.0964 -0.2446 -0.4774
  109OSM    H1S11130   3.599  -0.374   6.358 -0.1566  0.6144  1.1988
  109OSM    H1T11131   3.734  -0.496   6.374  0.3163 -0.1286 -0.1231
  109OSM     NF11132   3.709  -0.395   6.119 -0.1419 -0.0772  0.1208
  109OSM    HNF11133   3.764  -0.457   6.064 -2.6676 -1.0624 -1.4612
  109OSM    C2S11134   3.770  -0.331   6.234 -0.1762 -0.4148 -0.0694
  109OSM    H2S11135   3.738  -0.225   6.231 -0.4921 -0.4382  1.5022
  109OSM    C3S11136   3.925  -0.330   6.243 -0.8656  0.4933 -0.2101
  109OSM    H3S11137   3.957  -0.435   6.259 -0.3690 -0.1291 -4.2402
  109OSM     O311138   3.986  -0.258   6.351  0.7138 -0.1572  0.2467
  109OSM    HO311139   3.923  -0.270   6.422  1.6102  2.1782  1.5698
  109OSM    C4S11140   3.979  -0.285   6.110 -0.7068 -0.8181  0.3736
  109OSM    H4S11141   3.991  -0.366   6.036  1.9137  0.5828 -0.8732
  109OSM    C5S11142   3.993  -0.154   6.073  0.0632 -1.1327 -0.4274
  109OSM    H5S11143   3.979  -0.075   6.149 -2.0219 -0.5373 -1.3737
  109OSM    C6S11144   4.038  -0.104   5.939 -0.1684  0.1476  0.6883
  109OSM    H6S11145   4.128  -0.043   5.963 -1.0564  1.9542 -0.3854
  109OSM    H6T11146   3.966  -0.029   5.899 -0.1629 -0.7275 -1.0558
  109OSM    C7S11147   4.057  -0.202   5.818 -0.4229  0.5900 -0.5982
  109OSM    H7S11148   3.963  -0.258   5.799 -1.0764  0.9878  1.2472
  109OSM    H7T11149   4.137  -0.277   5.839 -0.3256  1.5319  3.1250
  109OSM    C8S11150   4.098  -0.121   5.693 -0.2464  0.0942 -0.1327
  109OSM    H8S11151   4.196  -0.071   5.710 -0.0959  0.2556 -1.3486
  109OSM    H8T11152   4.018  -0.057   5.651  1.2678  0.4247 -2.8032
  109OSM    C9S11153   4.123  -0.219   5.572 -0.0546  0.3239  0.1156
  109OSM    H9S11154   4.045  -0.298   5.571 -0.1887  0.4311  0.8489
  109OSM    H9T11155   4.222  -0.267   5.583 -0.3200  0.1113  2.0165
  109OSM   C10S11156   4.128  -0.146   5.437 -0.5510 -0.3620  0.2861
  109OSM   H10S11157   4.202  -0.063   5.443  1.4782 -1.9317 -1.5614
  109OSM   H10T11158   4.036  -0.091   5.410 -0.4681  1.2219  2.8187
  109OSM   C11S11159   4.184  -0.220   5.319  0.8058  0.2654 -0.7608
  109OSM   H11S11160   4.126  -0.311   5.293 -0.5164  0.7224  0.4731
  109OSM   H11T11161   4.283  -0.261   5.350 -0.3034 -0.1435  2.6599
  109OSM   C12S11162   4.193  -0.136   5.188  0.0639  0.6981 -0.2957
  109OSM   H12S11163   4.258  -0.046   5.199  2.1047 -0.6502 -0.7094
  109OSM   H12T11164   4.098  -0.107   5.140  0.4036  1.3565 -0.5770
  109OSM   C13S11165   4.263  -0.213   5.070 -0.6112  0.7462 -0.6359
  109OSM   H13S11166   4.236  -0.320   5.058  0.8121  0.3146 -0.1519
  109OSM   H13T11167   4.368  -0.218   5.106 -1.1158  1.3313  1.0320
  109OSM   C14S11168   4.238  -0.146   4.940  0.0679 -0.1636  0.6792
  109OSM   H14S11169   4.298  -0.052   4.945 -0.6437  0.2721  1.3116
  109OSM   H14T11170   4.130  -0.133   4.919  0.6268  0.1050 -2.5318
  109OSM   C15S11171   4.286  -0.239   4.825 -0.2256 -0.3686 -0.3982
  109OSM   H15S11172   4.221  -0.329   4.838 -0.0581 -0.3763  0.4376
  109OSM   H15T11173   4.393  -0.266   4.830  0.3598  1.9091  0.9686
  109OSM   C16S11174   4.254  -0.185   4.683 -0.1650  0.0379  0.4616
  109OSM   H16S11175   4.276  -0.076   4.682  0.8423 -0.1479  0.7660
  109OSM   H16T11176   4.145  -0.195   4.665 -0.2073  0.4061  0.5067
  109OSM   C17S11177   4.340  -0.251   4.572 -0.0866  0.3178  0.2418
  109OSM   H17S11178   4.438  -0.287   4.612 -0.9210  0.1731  2.2639
  109OSM   H17T11179   4.366  -0.177   4.494  0.7508 -0.9912 -0.7676
  109OSM   C18S11180   4.263  -0.364   4.498 -0.1906  0.3127 -0.1335
  109OSM   H18S11181   4.179  -0.334   4.431  0.3049 -0.8543 -1.3165
  109OSM   H18T11182   4.225  -0.436   4.573  0.1037 -0.3448 -0.6082
  109OSM   H18U11183   4.336  -0.422   4.438 -0.6910  0.4121 -0.8569
  109OSM    C1F11184   3.578  -0.400   6.098  1.0689 -0.0472  0.1067
  109OSM     OF11185   3.495  -0.325   6.148  0.1175 -0.3513 -0.1894
  109OSM    C2F11186   3.531  -0.505   6.000 -0.4967 -0.4877 -0.1935
  109OSM    H2F11187   3.549  -0.609   6.033 -0.2648 -0.5614 -0.5506
  109OSM    H2G11188   3.592  -0.488   5.909  1.1809 -0.0265  0.9739
  109OSM    C3F11189   3.388  -0.500   5.952 -0.0628  0.1473 -0.3592
  109OSM    H3F11190   3.343  -0.404   5.918 -0.5226  0.0771  0.0326
  109OSM    H3G11191   3.318  -0.517   6.037  0.5610  1.7196  0.5120
  109OSM    C4F11192   3.368  -0.607   5.842 -0.1641 -0.5234 -0.6756
  109OSM    H4F11193   3.260  -0.634   5.839  0.3067 -3.3415  2.1757
  109OSM    H4G11194   3.433  -0.697   5.844  1.9768  0.8734 -2.4297
  109OSM    C5F11195   3.378  -0.540   5.702 -0.0669  0.0178 -0.3694
  109OSM    H5F11196   3.481  -0.497   5.695 -0.8155  1.7880 -1.3873
  109OSM    H5G11197   3.311  -0.452   5.717  1.1146  0.5614  2.2013
  109OSM    C6F11198   3.333  -0.633   5.598 -0.2438 -0.8749  0.1106
  109OSM    H6F11199   3.227  -0.662   5.612 -1.2696  2.3864 -0.0073
  109OSM    H6G11200   3.406  -0.717   5.599  0.4749 -0.2773 -1.1523
  109OSM    C7F11201   3.322  -0.554   5.469  0.3149 -0.3171 -0.1860
  109OSM    H7F11202   3.423  -0.522   5.438 -0.2168  0.3507 -1.3073
  109OSM    H7G11203   3.272  -0.457   5.493 -3.6419 -2.3746  0.8667
  109OSM    C8F11204   3.252  -0.627   5.352  0.4743 -1.0082  0.4404
  109OSM    H8F11205   3.251  -0.549   5.274 -1.0674  0.3305  1.7340
  109OSM    H8G11206   3.154  -0.641   5.403  1.6562  0.0970  3.2502
  109OSM    C9F11207   3.318  -0.755   5.317 -0.3361 -1.1432  0.6996
  109OSM    H9F11208   3.342  -0.818   5.404  0.3881 -1.5395  0.2197
  109OSM   C10F11209   3.362  -0.795   5.198 -0.4240 -0.0402 -0.0876
  109OSM   H10F11210   3.415  -0.890   5.182  1.0074  0.7242 -0.0132
  109OSM   C11F11211   3.365  -0.710   5.072  0.2211  0.1441  0.1798
  109OSM   H11F11212   3.441  -0.628   5.075 -1.7459  2.5502 -4.6454
  109OSM   H11G11213   3.266  -0.661   5.063  0.8892  1.6127  0.4583
  109OSM   C12F11214   3.417  -0.802   4.959  1.1189  0.3127 -0.5496
  109OSM   H12F11215   3.335  -0.873   4.934  2.2576 -1.4730  0.6037
  109OSM   H12G11216   3.506  -0.852   5.001  0.3622 -1.0519 -0.5010
  109OSM   C13F11217   3.452  -0.732   4.828 -0.2357 -0.0332 -0.5436
  109OSM   H13F11218   3.539  -0.667   4.851  0.0465 -0.7405  0.4808
  109OSM   H13G11219   3.360  -0.675   4.801  0.5923  0.9685 -1.3046
  109OSM   C14F11220   3.493  -0.830   4.714  0.4109 -0.4111  0.7555
  109OSM   H14F11221   3.577  -0.896   4.747 -0.0291 -0.0743  2.6258
  109OSM   H14G11222   3.534  -0.766   4.633  0.7184 -0.0570  1.1880
  109OSM   C15F11223   3.369  -0.908   4.660  0.3270 -0.3051 -0.5089
  109OSM   H15F11224   3.281  -0.840   4.659 -0.1424 -0.8162  1.4316
  109OSM   H15G11225   3.347  -0.994   4.727 -2.0576  1.8322  1.6701
  109OSM   C16F11226   3.402  -0.967   4.524 -0.1262 -0.5566  0.0388
  109OSM   H16F11227   3.484  -1.039   4.546  1.2139  0.5283 -1.1978
  109OSM   H16G11228   3.440  -0.895   4.449 -0.5787 -0.1854  0.1646
  109OSM   C17F11229   3.287  -1.029   4.440  0.3522 -0.0385 -0.0485
  109OSM   H17F11230   3.246  -1.113   4.501  2.4585  0.3093  1.9729
  109OSM   H17G11231   3.329  -1.061   4.343 -2.0718  0.0545 -1.2142
  109OSM   C18F11232   3.170  -0.929   4.398 -0.0037  0.2778  0.1240
  109OSM   H18F11233   3.208  -0.853   4.326  2.3263 -0.2974  0.6626
  109OSM   H18G11234   3.132  -0.885   4.493  1.7201 -0.9842  1.4479
  109OSM   H18H11235   3.090  -0.988   4.348  0.5322  1.1161 -1.8210
  110OSM      N11236   5.050   5.277   6.556  0.1697 -0.0090  0.3899
  110OSM    C1511237   4.915   5.216   6.546  0.2745  0.5743  0.2503
  110OSM   H15A11238   4.889   5.188   6.445  0.6964 -1.5298  0.6862
  110OSM   H15B11239   4.833   5.283   6.566  0.4830  1.0409 -0.4179
  110OSM   H15C11240   4.901   5.130   6.610  0.6957  0.9932  0.9216
  110OSM    C1411241   5.065   5.370   6.438  0.1323 -0.0161  0.4468
  110OSM   H14A11242   5.155   5.429   6.449 -0.1457  0.1238  2.5004
  110OSM   H14B11243   4.981   5.436   6.421  0.5115  0.5663  0.7923
  110OSM   H14C11244   5.081   5.320   6.344  0.1980 -0.5378  0.7258
  110OSM    C1311245   5.048   5.353   6.684 -0.5784  0.1261 -0.2250
  110OSM   H13A11246   5.064   5.286   6.768  2.2198 -1.3137 -1.7914
  110OSM   H13B11247   4.968   5.425   6.686 -0.1219  0.6625 -0.9730
  110OSM   H13C11248   5.135   5.414   6.699 -0.5327 -0.4507  2.5837
  110OSM    C1211249   5.159   5.170   6.554 -1.1708 -0.1990 -0.4729
  110OSM   H12A11250   5.254   5.221   6.567 -1.2675 -0.2731  0.6397
  110OSM   H12B11251   5.154   5.121   6.458 -0.9329  1.3094 -1.2853
  110OSM    C1111252   5.163   5.060   6.665  0.1394 -0.1259  0.1583
  110OSM   H11A11253   5.184   5.130   6.749  2.1734  0.1808 -0.5428
  110OSM   H11B11254   5.254   4.997   6.665 -1.3296 -2.3586 -0.9385
  110OSM      P11255   5.019   4.857   6.586  0.3507 -0.2454  0.0686
  110OSM    O1311256   5.056   4.743   6.665 -0.1212 -0.0974 -0.4737
  110OSM    O1411257   4.890   4.858   6.517 -0.1771 -0.3261 -0.2598
  110OSM    O1111258   5.126   4.874   6.477  0.7025 -0.0264  0.2795
  110OSM    O1211259   5.039   4.983   6.674  0.4418 -0.5711 -0.0690
  110OSM    C1S11260   5.186   4.753   6.416 -0.0092 -0.2682 -0.0321
  110OSM    H1S11261   5.117   4.668   6.398 -0.6728  0.1252  0.6207
  110OSM    H1T11262   5.259   4.714   6.491  0.0624  1.3989  0.8057
  110OSM     NF11263   5.317   4.656   6.236 -0.3095 -0.0140 -0.5924
  110OSM    HNF11264   5.417   4.656   6.236 -0.3006  1.1176 -0.4864
  110OSM    C2S11265   5.252   4.777   6.284 -0.5118  0.8008  0.8086
  110OSM    H2S11266   5.175   4.796   6.206  0.9920  0.7130 -0.7591
  110OSM    C3S11267   5.341   4.908   6.290  0.4500  0.0726  0.1847
  110OSM    H3S11268   5.394   4.905   6.387  0.4253  0.5076  0.2143
  110OSM     O311269   5.261   5.022   6.305 -0.2568 -0.2628 -0.9539
  110OSM    HO311270   5.186   4.988   6.354 -1.4803  1.7918 -1.3005
  110OSM    C4S11271   5.436   4.921   6.179 -0.2569  0.7325 -0.5256
  110OSM    H4S11272   5.529   4.871   6.210 -1.8541 -1.6105  0.7824
  110OSM    C5S11273   5.417   4.969   6.057  0.2472 -0.2015 -0.2177
  110OSM    H5S11274   5.315   4.992   6.023 -0.8095 -1.9761  1.5021
  110OSM    C6S11275   5.513   4.956   5.950 -0.6560  0.2465  0.5287
  110OSM    H6S11276   5.612   4.914   5.977 -0.4204 -1.4311 -2.5275
  110OSM    H6T11277   5.542   5.058   5.915  1.1297 -1.2135 -2.6461
  110OSM    C7S11278   5.453   4.871   5.842 -0.1398 -0.2335 -0.3929
  110OSM    H7S11279   5.357   4.915   5.807 -0.6080 -2.7927 -2.5863
  110OSM    H7T11280   5.438   4.770   5.885 -1.3280  0.3057  0.5299
  110OSM    C8S11281   5.541   4.855   5.714 -0.1742  0.8925 -0.1308
  110OSM    H8S11282   5.605   4.764   5.714 -0.6608  0.5310  0.7706
  110OSM    H8T11283   5.596   4.951   5.702 -1.6540  1.5149 -2.7016
  110OSM    C9S11284   5.469   4.841   5.578 -0.6024  0.3708  0.2450
  110OSM    H9S11285   5.393   4.922   5.572  1.1300  1.9834 -0.7586
  110OSM    H9T11286   5.410   4.746   5.581  0.8317 -0.5353  1.3230
  110OSM   C10S11287   5.570   4.838   5.458  0.6812  0.1473  0.1898
  110OSM   H10S11288   5.634   4.749   5.475 -1.8204 -1.9584 -0.7366
  110OSM   H10T11289   5.626   4.934   5.460  0.8497  0.0366  1.6905
  110OSM   C11S11290   5.491   4.825   5.323  0.0550  0.2889  0.6495
  110OSM   H11S11291   5.424   4.913   5.322 -1.1854 -0.5367  3.0487
  110OSM   H11T11292   5.423   4.737   5.323 -0.7359  0.8845  1.3601
  110OSM   C12S11293   5.587   4.813   5.204  0.2745 -0.6820 -0.1074
  110OSM   H12S11294   5.670   4.741   5.221  1.1719  0.0851 -1.1687
  110OSM   H12T11295   5.638   4.911   5.199 -0.5731 -0.0468  2.2097
  110OSM   C13S11296   5.504   4.787   5.083  0.3077 -0.2986  0.1002
  110OSM   H13S11297   5.422   4.862   5.077 -0.3685 -1.1155 -1.2194
  110OSM   H13T11298   5.460   4.685   5.083  3.3966 -1.7893 -2.1259
  110OSM   C14S11299   5.574   4.800   4.948  0.0005  0.7322  0.0829
  110OSM   H14S11300   5.644   4.715   4.935 -0.3264  0.3213  0.9761
  110OSM   H14T11301   5.625   4.899   4.937 -1.1837  1.4451  0.7873
  110OSM   C15S11302   5.487   4.803   4.819  0.4569  0.5356  0.0138
  110OSM   H15S11303   5.546   4.803   4.725  0.4102 -0.6201 -0.0276
  110OSM   H15T11304   5.420   4.891   4.827  1.4340  1.1955  1.1548
  110OSM   C16S11305   5.384   4.692   4.805 -0.3447  0.1596  0.6879
  110OSM   H16S11306   5.334   4.704   4.707  0.6140  0.0539  0.1733
  110OSM   H16T11307   5.307   4.703   4.884 -1.6044 -0.3733 -0.4268
  110OSM   C17S11308   5.445   4.555   4.794 -0.4626 -0.2704 -0.0067
  110OSM   H17S11309   5.369   4.483   4.831  0.7323 -3.0324 -2.5704
  110OSM   H17T11310   5.533   4.556   4.862  0.3830  1.8759 -1.0393
  110OSM   C18S11311   5.498   4.497   4.652 -0.5201  0.2448  0.2938
  110OSM   H18S11312   5.426   4.416   4.629 -0.3405 -0.7593  2.8637
  110OSM   H18T11313   5.600   4.456   4.668  0.4246  2.8820  1.4838
  110OSM   H18U11314   5.508   4.569   4.569 -1.2681 -1.3115 -1.1949
  110OSM    C1F11315   5.252   4.552   6.196  0.6355  0.0406 -0.2687
  110OSM     OF11316   5.126   4.558   6.181 -0.1695 -0.3009  0.6198
  110OSM    C2F11317   5.330   4.423   6.165  0.3893  0.7991  0.3163
  110OSM    H2F11318   5.347   4.370   6.262  1.2940  1.0555  0.2987
  110OSM    H2G11319   5.429   4.461   6.132  0.5847  0.9392  1.0451
  110OSM    C3F11320   5.272   4.328   6.055  0.1672 -0.4962  0.2247
  110OSM    H3F11321   5.296   4.362   5.952 -1.0945 -1.2381 -0.3346
  110OSM    H3G11322   5.162   4.322   6.050 -0.0068  1.1013  1.3546
  110OSM    C4F11323   5.324   4.184   6.045 -0.2208 -0.6126  0.9434
  110OSM    H4F11324   5.334   4.133   6.143  0.1473 -0.0626  1.1997
  110OSM    H4G11325   5.432   4.203   6.023 -0.5383  0.3065  0.1225
  110OSM    C5F11326   5.242   4.104   5.952 -0.5660  0.6924  0.1005
  110OSM    H5F11327   5.264   4.140   5.849 -1.5091 -0.3773 -0.5023
  110OSM    H5G11328   5.132   4.105   5.970 -0.3276  1.6179  1.6451
  110OSM    C6F11329   5.277   3.949   5.962  0.3968  0.4598  0.3153
  110OSM    H6F11330   5.252   3.895   6.056  1.4155  1.1134  0.9675
  110OSM    H6G11331   5.387   3.941   5.950  0.2406  0.1326 -1.1147
  110OSM    C7F11332   5.213   3.864   5.853 -0.2687 -0.1379  0.1816
  110OSM    H7F11333   5.268   3.888   5.759  0.4218  0.3176  0.6926
  110OSM    H7G11334   5.104   3.883   5.845 -0.5767 -2.4368 -2.2678
  110OSM    C8F11335   5.244   3.715   5.881 -0.3521 -0.0042  0.2009
  110OSM    H8F11336   5.333   3.709   5.947  0.2849 -0.1623 -0.6587
  110OSM    H8G11337   5.285   3.677   5.785  1.6578  1.3575  0.4563
  110OSM    C9F11338   5.120   3.633   5.924 -0.6691  0.3053  0.1080
  110OSM    H9F11339   5.114   3.600   6.029 -1.4639 -2.5553 -0.7604
  110OSM   C10F11340   5.044   3.572   5.840 -0.5003  0.1804 -0.1342
  110OSM   H10F11341   4.976   3.491   5.872 -0.2727 -1.9824 -4.4608
  110OSM   C11F11342   5.059   3.591   5.690  0.0942 -0.7293 -0.7148
  110OSM   H11F11343   5.136   3.523   5.646 -0.6140 -2.2010  0.2536
  110OSM   H11G11344   5.102   3.691   5.669  2.4074 -1.4278  0.3562
  110OSM   C12F11345   4.927   3.574   5.615  0.4431  0.1127  0.5635
  110OSM   H12F11346   4.861   3.661   5.636  0.8296  1.0878 -1.9553
  110OSM   H12G11347   4.880   3.479   5.648 -0.3708 -0.0436 -0.9718
  110OSM   C13F11348   4.947   3.556   5.465 -0.1781  0.0150 -0.5254
  110OSM   H13F11349   5.008   3.468   5.434 -2.7193 -1.9290 -0.2806
  110OSM   H13G11350   4.991   3.644   5.413 -0.6708  0.9539  0.6108
  110OSM   C14F11351   4.810   3.542   5.398  0.1364 -0.0570  0.6520
  110OSM   H14F11352   4.749   3.610   5.461  0.8359 -1.2041  2.6365
  110OSM   H14G11353   4.761   3.443   5.408  0.5520 -0.2991  0.3320
  110OSM   C15F11354   4.812   3.595   5.255 -0.6719  0.0191  0.0845
  110OSM   H15F11355   4.858   3.693   5.230 -0.3484  0.2464  1.5000
  110OSM   H15G11356   4.712   3.611   5.211 -1.5397 -2.3773  1.0311
  110OSM   C16F11357   4.876   3.483   5.174  0.8742 -0.1419  0.5663
  110OSM   H16F11358   4.860   3.383   5.219  0.9456 -0.6858 -0.5682
  110OSM   H16G11359   4.985   3.500   5.157  0.5519  1.1359 -0.3881
  110OSM   C17F11360   4.810   3.461   5.035 -0.1234  0.4712 -0.0202
  110OSM   H17F11361   4.841   3.551   4.978  1.4141  1.1586  1.8045
  110OSM   H17G11362   4.700   3.472   5.044  0.0307  1.5780  0.7447
  110OSM   C18F11363   4.861   3.334   4.960 -0.0521  0.0246 -0.4969
  110OSM   H18F11364   4.812   3.344   4.860 -1.8577 -1.9245  0.1073
  110OSM   H18G11365   4.829   3.238   5.008  1.2302  0.0980  0.5537
  110OSM   H18H11366   4.971   3.334   4.944 -0.1361 -1.9953 -1.3690
  111OSM      N11367   0.050   1.228   6.522  0.1934 -0.1644  0.5081
  111OSM    C1511368   0.087   1.237   6.666 -0.4368  0.0928  0.6779
  111OSM   H15A11369   0.004   1.236   6.735  0.2150  0.4803  1.4957
  111OSM   H15B11370   0.120   1.338   6.686 -2.3992  1.7830 -3.4906
  111OSM   H15C11371   0.170   1.171   6.687 -0.4140 -0.3828 -0.8210
  111OSM    C1411372   0.184   1.206   6.451 -0.2122 -0.2022  0.0040
  111OSM   H14A11373   0.251   1.288   6.472  1.6882 -1.4087 -1.1215
  111OSM   H14B11374   0.178   1.210   6.343  0.4052  0.0819 -0.0235
  111OSM   H14C11375   0.238   1.122   6.493 -0.4144  0.2443  1.1948
  111OSM    C1311376  -0.052   1.114   6.494 -0.0508  0.2282 -0.0038
  111OSM   H13A11377  -0.151   1.121   6.536  0.2205 -0.8842  0.8371
  111OSM   H13B11378  -0.008   1.019   6.521 -0.0287 -0.1184 -1.2038
  111OSM   H13C11379  -0.060   1.119   6.386  0.7777 -0.5551 -0.1113
  111OSM    C1211380  -0.002   1.364   6.480 -0.1548 -0.5343 -0.3842
  111OSM   H12A11381   0.054   1.446   6.524  0.4559 -0.1990 -1.7533
  111OSM   H12B11382  -0.102   1.376   6.519 -0.3833 -1.3257 -0.7017
  111OSM    C1111383  -0.002   1.413   6.335  0.2970  0.3626  0.2471
  111OSM   H11A11384   0.101   1.410   6.293  0.2175 -3.8211 -0.0790
  111OSM   H11B11385  -0.042   1.517   6.338  0.2863  0.4264 -1.3725
  111OSM      P11386  -0.232   1.380   6.216 -0.0491 -0.1493  0.1543
  111OSM    O1311387  -0.324   1.268   6.182  0.0426  0.4864 -0.3566
  111OSM    O1411388  -0.282   1.478   6.314  0.1346 -0.0135 -0.8251
  111OSM    O1111389  -0.197   1.451   6.077 -0.1604 -0.2499  0.1440
  111OSM    O1211390  -0.090   1.326   6.270  0.1682  0.2507  0.6111
  111OSM    C1S11391  -0.085   1.530   6.048  0.2020  0.6245 -0.0744
  111OSM    H1S11392   0.008   1.473   6.071 -0.2943 -0.5600 -0.9067
  111OSM    H1T11393  -0.094   1.623   6.109 -2.3835  0.1029  0.4586
  111OSM     NF11394   0.061   1.593   5.854  0.1356  0.6061 -0.0661
  111OSM    HNF11395   0.076   1.691   5.840  0.6029  0.6661  0.7846
  111OSM    C2S11396  -0.077   1.561   5.898 -0.6012  0.0826 -0.2080
  111OSM    H2S11397  -0.099   1.468   5.841  3.4387 -2.1766  1.4771
  111OSM    C3S11398  -0.186   1.673   5.869 -0.7146  0.2110 -0.3314
  111OSM    H3S11399  -0.156   1.765   5.923  0.0466 -0.5325  0.5464
  111OSM     O311400  -0.317   1.645   5.904 -0.2840  0.2438 -0.1665
  111OSM    HO311401  -0.330   1.559   5.943 -0.4406 -1.6602 -3.9533
  111OSM    C4S11402  -0.173   1.710   5.721 -0.5890  0.0900 -0.4760
  111OSM    H4S11403  -0.102   1.791   5.699 -0.3486  0.4756  1.5124
  111OSM    C5S11404  -0.228   1.646   5.616  0.2183 -0.7949  0.6489
  111OSM    H5S11405  -0.302   1.567   5.636 -0.4677  0.0855  1.7334
  111OSM    C6S11406  -0.203   1.689   5.473 -0.1364  0.2326  0.8333
  111OSM    H6S11407  -0.149   1.786   5.469 -0.4165  0.3812 -2.9352
  111OSM    H6T11408  -0.301   1.695   5.421 -0.3070 -1.5871  0.8887
  111OSM    C7S11409  -0.115   1.576   5.394  0.0415 -0.7751 -0.2976
  111OSM    H7S11410  -0.158   1.478   5.423 -1.6081  0.0590  0.2567
  111OSM    H7T11411  -0.014   1.568   5.440  0.5096  0.5635 -1.0547
  111OSM    C8S11412  -0.132   1.583   5.239  0.8060 -0.1708 -0.0831
  111OSM    H8S11413  -0.242   1.581   5.222  0.7202 -2.2332  0.4062
  111OSM    H8T11414  -0.105   1.483   5.199  2.4636  0.1250  0.2271
  111OSM    C9S11415  -0.074   1.698   5.160 -0.6818  0.4865 -0.8437
  111OSM    H9S11416   0.035   1.681   5.150 -0.5808  1.3019 -1.2197
  111OSM    H9T11417  -0.102   1.790   5.216  1.2150 -0.8649  2.6565
  111OSM   C10S11418  -0.129   1.715   5.022  0.1901  0.3031 -0.2042
  111OSM   H10S11419  -0.239   1.722   5.039  0.3757 -1.5484  2.4374
  111OSM   H10T11420  -0.125   1.622   4.961 -2.0669  0.2355 -0.3457
  111OSM   C11S11421  -0.094   1.833   4.929 -0.2279  0.4171 -0.2512
  111OSM   H11S11422   0.016   1.828   4.914  0.3310  1.1593  2.8746
  111OSM   H11T11423  -0.113   1.933   4.974  2.2109  0.5541  0.6385
  111OSM   C12S11424  -0.150   1.832   4.786 -0.1785  0.3954 -0.4412
  111OSM   H12S11425  -0.152   1.933   4.741  1.3027  1.0943  0.9209
  111OSM   H12T11426  -0.255   1.796   4.793 -1.1387  3.2489  2.0489
  111OSM   C13S11427  -0.077   1.734   4.689 -0.0671 -0.0008 -0.3300
  111OSM   H13S11428  -0.055   1.632   4.724  0.4435 -0.3890 -1.7116
  111OSM   H13T11429   0.024   1.777   4.671  0.0764  0.7467  1.9933
  111OSM   C14S11430  -0.149   1.723   4.548 -0.1994 -0.1927 -0.0466
  111OSM   H14S11431  -0.152   1.827   4.508  1.5745  0.6956  1.9253
  111OSM   H14T11432  -0.257   1.702   4.566 -0.4362  1.5642  0.7814
  111OSM   C15S11433  -0.072   1.631   4.448 -0.3699 -0.3503  0.2014
  111OSM   H15S11434  -0.063   1.526   4.484  0.0621 -0.9980 -1.6677
  111OSM   H15T11435   0.030   1.675   4.445 -0.9079  1.2192  2.3813
  111OSM   C16S11436  -0.130   1.633   4.308  0.4208 -0.2629  0.0247
  111OSM   H16S11437  -0.123   1.731   4.256  0.2832 -0.2678 -0.0053
  111OSM   H16T11438  -0.240   1.628   4.320  0.5862 -0.8736  1.5403
  111OSM   C17S11439  -0.087   1.523   4.218 -0.0098 -0.0717 -0.3402
  111OSM   H17S11440  -0.116   1.421   4.253  2.2907 -0.1197  1.6265
  111OSM   H17T11441   0.022   1.521   4.201  0.0311  0.8073 -0.1741
  111OSM   C18S11442  -0.147   1.555   4.079  1.0475 -0.2615  0.9207
  111OSM   H18S11443  -0.258   1.559   4.072  1.0959 -0.8900 -0.9899
  111OSM   H18T11444  -0.120   1.468   4.015  0.1303 -1.1791  1.7505
  111OSM   H18U11445  -0.099   1.647   4.039 -0.4336  0.1234 -0.0387
  111OSM    C1F11446   0.156   1.501   5.863 -0.0256 -0.0774 -0.0355
  111OSM     OF11447   0.128   1.388   5.900 -0.5345 -0.1538  0.5335
  111OSM    C2F11448   0.300   1.550   5.839  0.4255  0.5884  0.2303
  111OSM    H2F11449   0.371   1.524   5.920  0.7549  0.9183  0.0527
  111OSM    H2G11450   0.312   1.659   5.818  1.0680  0.2085 -1.5566
  111OSM    C3F11451   0.345   1.474   5.714 -0.6078  0.6633  0.4228
  111OSM    H3F11452   0.331   1.366   5.737 -0.6843  0.6344  0.2446
  111OSM    H3G11453   0.453   1.484   5.691 -0.2039  0.1055  1.9797
  111OSM    C4F11454   0.267   1.507   5.588 -0.0194 -0.1413 -0.0880
  111OSM    H4F11455   0.270   1.616   5.567 -1.3724 -0.1699 -0.5115
  111OSM    H4G11456   0.159   1.483   5.600  0.5752 -2.7403  0.6279
  111OSM    C5F11457   0.306   1.422   5.459  0.1822  0.3189  0.1821
  111OSM    H5F11458   0.273   1.318   5.480  0.3844 -0.3175 -2.2836
  111OSM    H5G11459   0.417   1.423   5.449  0.1023  2.0163 -1.0638
  111OSM    C6F11460   0.231   1.476   5.335  0.3507  0.3179 -0.1067
  111OSM    H6F11461   0.207   1.585   5.342 -0.1664  0.1656  0.7931
  111OSM    H6G11462   0.138   1.415   5.336 -0.7468  1.8311  2.4776
  111OSM    C7F11463   0.321   1.464   5.214  0.6630 -0.0222  0.6177
  111OSM    H7F11464   0.365   1.363   5.198 -0.6095 -0.4208 -0.5988
  111OSM    H7G11465   0.419   1.514   5.225  0.9805 -0.3996 -0.4194
  111OSM    C8F11466   0.253   1.509   5.078 -0.1878  0.9350  0.3326
  111OSM    H8F11467   0.328   1.505   4.996 -0.4614 -0.1500  0.1136
  111OSM    H8G11468   0.218   1.615   5.077 -3.3739  0.1626 -3.9319
  111OSM    C9F11469   0.140   1.424   5.024  0.2423 -0.4080  0.1770
  111OSM    H9F11470   0.058   1.416   5.097 -0.9409  0.5136 -1.0041
  111OSM   C10F11471   0.120   1.368   4.905 -0.3953  0.7953  0.6272
  111OSM   H10F11472   0.023   1.326   4.874 -0.7233  2.0233 -0.0695
  111OSM   C11F11473   0.201   1.375   4.774 -0.2084  1.3927  0.4836
  111OSM   H11F11474   0.306   1.403   4.799  0.8747 -1.0911 -0.8247
  111OSM   H11G11475   0.158   1.450   4.704 -0.6985  0.7145  0.0459
  111OSM   C12F11476   0.204   1.237   4.700 -0.6339  0.1019  0.1574
  111OSM   H12F11477   0.116   1.215   4.636  0.1333  1.2102 -1.3406
  111OSM   H12G11478   0.210   1.142   4.758  2.4718  0.2768  0.2852
  111OSM   C13F11479   0.319   1.227   4.598 -0.3698  0.7263  0.3749
  111OSM   H13F11480   0.331   1.116   4.591 -0.7496  0.6462  0.9729
  111OSM   H13G11481   0.411   1.272   4.640  1.2816 -1.9444 -0.1316
  111OSM   C14F11482   0.274   1.291   4.467 -0.2995  0.0657 -0.3193
  111OSM   H14F11483   0.255   1.398   4.486  0.3481  0.3589 -1.2562
  111OSM   H14G11484   0.188   1.226   4.439 -1.8901  1.4894  1.0476
  111OSM   C15F11485   0.372   1.273   4.348 -0.0286  0.1149 -0.5252
  111OSM   H15F11486   0.399   1.166   4.336  0.9559  0.4625 -1.5287
  111OSM   H15G11487   0.464   1.334   4.362 -1.3525  1.7455  1.6431
  111OSM   C16F11488   0.317   1.340   4.221  0.2884 -0.3277  0.2783
  111OSM   H16F11489   0.405   1.375   4.163  0.4603  0.1236  0.7912
  111OSM   H16G11490   0.264   1.433   4.251  0.3293 -1.1396  3.2214
  111OSM   C17F11491   0.220   1.246   4.145 -0.3531 -0.3754 -0.4497
  111OSM   H17F11492   0.133   1.240   4.214  0.1884 -0.8651  0.2013
  111OSM   H17G11493   0.267   1.146   4.138  0.7709  0.0415  0.6948
  111OSM   C18F11494   0.167   1.296   4.007  0.4503  0.4344 -0.6611
  111OSM   H18F11495   0.126   1.399   4.015  1.7376  1.0136 -1.2711
  111OSM   H18G11496   0.099   1.227   3.954  0.5689 -0.2588  0.0574
  111OSM   H18H11497   0.256   1.312   3.942  1.2101  2.7673  0.8057
  112OSM      N11498   4.559   6.341   6.878 -0.8874  0.0272 -0.0192
  112OSM    C1511499   4.457   6.287   6.966  0.7148  0.1641  0.0917
  112OSM   H15A11500   4.457   6.334   7.063  0.2355 -0.8784  0.6160
  112OSM   H15B11501   4.455   6.180   6.985  1.2605 -0.0212 -0.8309
  112OSM   H15C11502   4.358   6.315   6.932  1.0811  1.0499 -0.2814
  112OSM    C1411503   4.574   6.492   6.900  0.0021  0.4448  0.1510
  112OSM   H14A11504   4.489   6.544   6.857 -0.8557 -0.7141  0.4108
  112OSM   H14B11505   4.659   6.524   6.842 -0.4674 -0.8994 -1.3833
  112OSM   H14C11506   4.565   6.516   7.004  1.3969  1.5513  0.0484
  112OSM    C1311507   4.687   6.280   6.923 -0.4718 -0.2910 -0.0256
  112OSM   H13A11508   4.719   6.315   7.019 -0.3856 -2.4909  0.8172
  112OSM   H13B11509   4.754   6.312   6.845 -0.1804  0.2873  0.4579
  112OSM   H13C11510   4.692   6.173   6.940  1.4646 -0.2344 -0.0819
  112OSM    C1211511   4.526   6.301   6.737  0.0186 -0.1451  0.0022
  112OSM   H12A11512   4.438   6.355   6.706  0.1906  0.9486  1.3010
  112OSM   H12B11513   4.487   6.201   6.732  2.2291 -1.0482 -0.5296
  112OSM    C1111514   4.632   6.310   6.631  0.0196  0.2157  0.4454
  112OSM   H11A11515   4.678   6.412   6.627 -0.6917  0.5154 -0.3677
  112OSM   H11B11516   4.580   6.285   6.536  0.9373  0.2541 -0.0798
  112OSM      P11517   4.716   6.049   6.638 -0.0137 -0.4048  0.0614
  112OSM    O1311518   4.829   5.969   6.692  0.0422  0.1481 -0.8891
  112OSM    O1411519   4.586   6.012   6.700 -1.0142 -0.3005  0.4416
  112OSM    O1111520   4.707   6.035   6.480  0.0775  0.1776  0.0612
  112OSM    O1211521   4.735   6.212   6.656  0.0517  0.4185  0.3635
  112OSM    C1S11522   4.797   6.110   6.399 -0.5394 -0.9144  0.0995
  112OSM    H1S11523   4.905   6.088   6.413 -0.3599 -0.2135 -0.1654
  112OSM    H1T11524   4.772   6.216   6.418  0.2919 -0.8182  0.7131
  112OSM     NF11525   4.886   6.150   6.171  0.5694  0.2652 -0.5967
  112OSM    HNF11526   4.854   6.234   6.126  0.0509  1.0846  1.2192
  112OSM    C2S11527   4.785   6.077   6.246 -0.1733 -0.1069 -1.0044
  112OSM    H2S11528   4.814   5.970   6.238  1.3292  0.1893 -0.0253
  112OSM    C3S11529   4.641   6.092   6.197  0.1036  0.0128 -0.6299
  112OSM    H3S11530   4.626   6.202   6.189  1.0687  0.1471 -0.7184
  112OSM     O311531   4.532   6.037   6.281 -0.6454 -0.0912  0.8008
  112OSM    HO311532   4.590   6.013   6.354  1.0078  1.6542  0.1707
  112OSM    C4S11533   4.619   6.044   6.053 -0.3588  0.6765 -0.8511
  112OSM    H4S11534   4.598   6.128   5.986  1.3418 -0.6063 -3.1559
  112OSM    C5S11535   4.598   5.913   6.015  0.5360  0.7294 -0.2201
  112OSM    H5S11536   4.613   5.830   6.086  1.6580 -0.7564 -2.1119
  112OSM    C6S11537   4.559   5.876   5.873  0.2605  1.1127  0.2102
  112OSM    H6S11538   4.482   5.796   5.881  0.3376  1.1338  1.2500
  112OSM    H6T11539   4.644   5.840   5.811  0.2728  2.1788 -0.4168
  112OSM    C7S11540   4.503   5.991   5.790 -0.4720  0.2856  0.1786
  112OSM    H7S11541   4.583   6.067   5.771  0.4134 -0.7208 -0.2298
  112OSM    H7T11542   4.426   6.037   5.855  0.0852  0.6587  0.5866
  112OSM    C8S11543   4.434   5.948   5.653  0.5503 -0.0122 -0.3476
  112OSM    H8S11544   4.385   6.031   5.598 -1.9395 -0.9794  0.2642
  112OSM    H8T11545   4.344   5.893   5.688  0.5897  1.8378  3.0955
  112OSM    C9S11546   4.519   5.872   5.562  0.4246  0.9557  0.6693
  112OSM    H9S11547   4.544   5.773   5.606 -4.3189 -0.5511  0.4553
  112OSM    H9T11548   4.616   5.923   5.541  1.7427 -1.1058  1.3744
  112OSM   C10S11549   4.439   5.841   5.438 -0.6538  0.6364 -0.3318
  112OSM   H10S11550   4.405   5.940   5.402  0.5069  1.5427  0.9508
  112OSM   H10T11551   4.348   5.783   5.464  0.5360 -1.8835 -1.3807
  112OSM   C11S11552   4.525   5.768   5.330 -0.5452  0.3918 -0.6933
  112OSM   H11S11553   4.542   5.662   5.360  0.8789  0.9716  0.6946
  112OSM   H11T11554   4.626   5.815   5.334  0.1262 -1.0603  0.3435
  112OSM   C12S11555   4.462   5.778   5.187 -0.7523  0.6385 -0.3501
  112OSM   H12S11556   4.457   5.886   5.164  0.8683  0.9495  0.5788
  112OSM   H12T11557   4.363   5.728   5.195  0.4225 -2.3082 -2.4803
  112OSM   C13S11558   4.550   5.696   5.082  0.3040 -0.2640  1.0333
  112OSM   H13S11559   4.585   5.600   5.125  1.8115 -0.5205 -0.6130
  112OSM   H13T11560   4.641   5.755   5.056 -1.5035  2.1908 -0.1282
  112OSM   C14S11561   4.468   5.670   4.951 -0.4475 -0.4081 -0.1208
  112OSM   H14S11562   4.432   5.764   4.904  2.5783  0.8831 -0.1417
  112OSM   H14T11563   4.379   5.610   4.980  0.0316 -0.4752  1.2739
  112OSM   C15S11564   4.549   5.595   4.845  0.5258 -0.0194  0.3354
  112OSM   H15S11565   4.650   5.636   4.864  1.6599 -0.6859 -3.4681
  112OSM   H15T11566   4.523   5.621   4.740  1.0854  0.9545  0.4325
  112OSM   C16S11567   4.539   5.448   4.856 -0.1590  0.2451 -0.3411
  112OSM   H16S11568   4.551   5.416   4.962 -1.1309 -0.5389 -0.4524
  112OSM   H16T11569   4.617   5.386   4.807  1.8017  0.9876  1.6701
  112OSM   C17S11570   4.410   5.398   4.797 -0.2901 -0.1957 -0.3073
  112OSM   H17S11571   4.405   5.431   4.691  1.2286  1.6102  0.1298
  112OSM   H17T11572   4.331   5.441   4.862 -0.4139 -1.0490  0.1236
  112OSM   C18S11573   4.413   5.252   4.808  0.6223  1.4261  0.0319
  112OSM   H18S11574   4.441   5.217   4.910 -1.3986 -0.2707  0.0807
  112OSM   H18T11575   4.488   5.194   4.751  0.3867  0.0462  1.0711
  112OSM   H18U11576   4.320   5.198   4.780  1.3342 -0.1085  0.5497
  112OSM    C1F11577   5.022   6.131   6.166 -0.2319  0.1111 -0.3170
  112OSM     OF11578   5.067   6.035   6.227 -0.1857  0.2951  0.1696
  112OSM    C2F11579   5.108   6.217   6.083  0.6280  0.7919  0.0574
  112OSM    H2F11580   5.118   6.313   6.137  1.8708 -0.2146  1.7215
  112OSM    H2G11581   5.049   6.234   5.991 -0.1276 -1.5470  0.0283
  112OSM    C3F11582   5.240   6.151   6.038 -0.0071  0.0684 -0.2148
  112OSM    H3F11583   5.229   6.053   5.987  0.0448 -0.5126  0.8657
  112OSM    H3G11584   5.291   6.124   6.133 -0.4844  1.7869  0.5729
  112OSM    C4F11585   5.336   6.242   5.966  0.0047  0.3592 -0.1063
  112OSM    H4F11586   5.433   6.195   5.939 -0.5267 -0.3614 -0.7953
  112OSM    H4G11587   5.366   6.335   6.020  0.2653  1.0266 -1.3649
  112OSM    C5F11588   5.279   6.291   5.824 -0.6391  0.5544 -0.2167
  112OSM    H5F11589   5.359   6.347   5.770 -0.8102  1.9849  0.9724
  112OSM    H5G11590   5.197   6.364   5.839  1.1128  2.4124  0.8973
  112OSM    C6F11591   5.224   6.175   5.742 -0.3934  0.0011 -0.1750
  112OSM    H6F11592   5.153   6.116   5.805 -1.3518  0.0448 -1.1960
  112OSM    H6G11593   5.304   6.103   5.711 -0.7086 -0.7407  0.6609
  112OSM    C7F11594   5.155   6.213   5.610 -0.2628 -0.1203 -0.8241
  112OSM    H7F11595   5.064   6.269   5.637 -0.1657 -0.0580 -0.6248
  112OSM    H7G11596   5.127   6.116   5.564 -0.2503 -0.3203 -0.4160
  112OSM    C8F11597   5.260   6.278   5.515  0.0272 -0.6480  0.1251
  112OSM    H8F11598   5.336   6.200   5.496  1.4819  0.9596 -1.0150
  112OSM    H8G11599   5.314   6.368   5.551  1.6767 -1.3643 -0.4842
  112OSM    C9F11600   5.206   6.331   5.381  0.1274  0.0581 -0.1471
  112OSM    H9F11601   5.130   6.409   5.395 -0.3674 -0.2150 -1.1688
  112OSM   C10F11602   5.239   6.290   5.255  0.6022  0.1230  0.0633
  112OSM   H10F11603   5.177   6.335   5.175  0.7529 -2.0047 -1.3183
  112OSM   C11F11604   5.321   6.169   5.218 -0.3165  0.1750  0.2798
  112OSM   H11F11605   5.278   6.120   5.128  1.5849 -0.5677 -0.2792
  112OSM   H11G11606   5.331   6.085   5.290 -0.3547  0.3605  0.5017
  112OSM   C12F11607   5.466   6.217   5.182  0.0798  0.3908  0.9315
  112OSM   H12F11608   5.534   6.131   5.168  0.2411  0.6879 -0.2090
  112OSM   H12G11609   5.511   6.272   5.267  0.1641  1.7460  0.0351
  112OSM   C13F11610   5.468   6.311   5.059  0.3432  0.0053 -0.0967
  112OSM   H13F11611   5.542   6.392   5.074 -1.0403  1.5130 -1.0325
  112OSM   H13G11612   5.385   6.385   5.063  0.3403  0.1364 -1.8902
  112OSM   C14F11613   5.457   6.242   4.932  0.7276  0.2586  0.4597
  112OSM   H14F11614   5.447   6.315   4.849 -1.9544 -1.2317 -0.6444
  112OSM   H14G11615   5.369   6.174   4.925  0.7096  0.3496 -0.2196
  112OSM   C15F11616   5.591   6.160   4.900  0.3991 -0.0708  0.3315
  112OSM   H15F11617   5.571   6.058   4.939 -0.3027  0.2007  0.6899
  112OSM   H15G11618   5.684   6.211   4.933  0.1193 -0.0981  1.1893
  112OSM   C16F11619   5.598   6.131   4.751 -0.1198 -0.2062  0.5584
  112OSM   H16F11620   5.685   6.064   4.729 -0.4495 -0.4273 -0.1028
  112OSM   H16G11621   5.628   6.225   4.701 -0.5225 -0.3852 -0.0366
  112OSM   C17F11622   5.477   6.075   4.674 -0.3202 -0.2793 -0.5747
  112OSM   H17F11623   5.391   6.144   4.663  0.8946  1.4702  0.4285
  112OSM   H17G11624   5.433   5.988   4.727 -1.0633  2.4249  3.7442
  112OSM   C18F11625   5.525   6.025   4.533 -0.4134  0.0948  0.1308
  112OSM   H18F11626   5.618   5.966   4.547 -0.2441  0.4826  0.6820
  112OSM   H18G11627   5.551   6.110   4.466  1.1997 -0.2967  0.2128
  112OSM   H18H11628   5.452   5.950   4.497 -0.0257  0.0034 -0.4797
  113OSM      N11629   1.542   6.138   6.707 -1.0327 -0.1233 -0.2520
  113OSM    C1511630   1.575   6.076   6.834  0.9789  0.6910  0.1346
  113OSM   H15A11631   1.481   6.065   6.886  1.3178 -0.6297  0.5092
  113OSM   H15B11632   1.634   6.134   6.903  2.5051 -0.4596 -0.1706
  113OSM   H15C11633   1.617   5.977   6.826  0.1163  0.2237  1.0963
  113OSM    C1411634   1.532   6.289   6.726  0.4395  0.0803  0.0624
  113OSM   H14A11635   1.631   6.328   6.745  0.6241 -0.6594  0.6618
  113OSM   H14B11636   1.461   6.305   6.805  0.7366 -1.5342  0.6911
  113OSM   H14C11637   1.496   6.334   6.634  1.1183 -1.1794 -0.8457
  113OSM    C1311638   1.666   6.123   6.614  0.2644  1.6975  0.3666
  113OSM   H13A11639   1.750   6.176   6.658 -0.2696  0.9309  2.4316
  113OSM   H13B11640   1.650   6.161   6.514 -0.5997 -1.0336 -0.6002
  113OSM   H13C11641   1.690   6.020   6.597 -2.8069  1.0517 -0.6397
  113OSM    C1211642   1.414   6.097   6.634  0.0173 -0.7326 -0.5170
  113OSM   H12A11643   1.400   6.159   6.546 -0.9619  1.0396  0.8253
  113OSM   H12B11644   1.341   6.121   6.709  0.9354 -2.6364  1.0660
  113OSM    C1111645   1.401   5.952   6.597  0.2197  0.5058 -0.0476
  113OSM   H11A11646   1.494   5.926   6.542  1.1690  1.8209  0.8645
  113OSM   H11B11647   1.312   5.947   6.530  0.5418  0.3635 -0.4686
  113OSM      P11648   1.257   5.780   6.733 -0.2328  0.1109 -0.6213
  113OSM    O1311649   1.293   5.664   6.814  0.0292  0.0006 -0.1166
  113OSM    O1411650   1.134   5.849   6.766  0.3630 -0.1849 -0.3696
  113OSM    O1111651   1.247   5.721   6.585  0.1788 -0.8744 -0.1757
  113OSM    O1211652   1.387   5.872   6.720  0.5796  0.7628 -0.1228
  113OSM    C1S11653   1.353   5.634   6.546  0.4783 -0.3659  0.2826
  113OSM    H1S11654   1.381   5.567   6.630  1.5092  0.6855  0.8272
  113OSM    H1T11655   1.442   5.701   6.538  0.3879 -0.1815  0.7836
  113OSM     NF11656   1.419   5.479   6.371 -0.1287 -0.2237 -0.8158
  113OSM    HNF11657   1.477   5.507   6.294  1.5550 -1.2368  0.0084
  113OSM    C2S11658   1.314   5.576   6.411  0.1994  0.5430  0.0396
  113OSM    H2S11659   1.221   5.516   6.418  0.2514  0.6400  2.1392
  113OSM    C3S11660   1.291   5.693   6.312 -0.2977  0.5337  0.7532
  113OSM    H3S11661   1.381   5.758   6.317 -1.3234  2.0707  0.0285
  113OSM     O311662   1.187   5.779   6.346  1.2373  0.1852  0.0301
  113OSM    HO311663   1.175   5.775   6.442 -0.0111  3.2848  0.1195
  113OSM    C4S11664   1.269   5.637   6.171  0.1007  0.2809  0.2964
  113OSM    H4S11665   1.365   5.635   6.119  0.9434 -3.3685  1.6602
  113OSM    C5S11666   1.156   5.588   6.121 -1.0470 -0.0575 -0.3283
  113OSM    H5S11667   1.065   5.613   6.176 -0.1056 -0.2664  1.3789
  113OSM    C6S11668   1.140   5.546   5.978 -0.0111 -0.3922  0.3388
  113OSM    H6S11669   1.042   5.572   5.932  1.4039  0.5927 -2.3151
  113OSM    H6T11670   1.133   5.435   5.979  4.1262 -0.7737  0.8523
  113OSM    C7S11671   1.252   5.571   5.874  0.7232  0.4250  0.2942
  113OSM    H7S11672   1.349   5.531   5.911  0.7084 -0.6001 -0.7141
  113OSM    H7T11673   1.257   5.682   5.869  0.3833  0.4853  1.0991
  113OSM    C8S11674   1.229   5.490   5.743 -0.1250  0.1304  0.7081
  113OSM    H8S11675   1.124   5.512   5.714  0.4472  2.7005  0.4071
  113OSM    H8T11676   1.249   5.382   5.762  1.1212  0.3552  0.7596
  113OSM    C9S11677   1.324   5.530   5.625  0.4812 -0.1732  0.3956
  113OSM    H9S11678   1.432   5.542   5.648  0.0263  2.8507  1.3038
  113OSM    H9T11679   1.292   5.630   5.589  3.1737  0.3403 -0.8826
  113OSM   C10S11680   1.309   5.445   5.499 -0.1800  0.0740  0.2966
  113OSM   H10S11681   1.202   5.427   5.473  0.3192 -2.0378 -0.5335
  113OSM   H10T11682   1.353   5.343   5.509 -0.7135 -0.1235  0.7357
  113OSM   C11S11683   1.363   5.526   5.372 -0.6894  0.4938 -0.4191
  113OSM   H11S11684   1.474   5.533   5.383 -0.7443 -0.6942  1.0844
  113OSM   H11T11685   1.325   5.630   5.381 -0.1328  1.0082 -3.2104
  113OSM   C12S11686   1.343   5.462   5.231 -0.1126  0.2806  0.5708
  113OSM   H12S11687   1.370   5.355   5.222 -0.4631  0.3220 -1.3299
  113OSM   H12T11688   1.416   5.518   5.168 -1.3176  1.9221  0.5541
  113OSM   C13S11689   1.209   5.505   5.170  0.1999  0.4201  0.2601
  113OSM   H13S11690   1.240   5.530   5.066  1.7949  1.4807  0.9477
  113OSM   H13T11691   1.177   5.598   5.221  1.9271  0.7629  0.7956
  113OSM   C14S11692   1.108   5.394   5.177 -0.0948 -0.5117  0.3065
  113OSM   H14S11693   1.059   5.399   5.276  0.7987 -1.4261  0.8252
  113OSM   H14T11694   1.171   5.302   5.170 -0.4828 -0.6593 -2.0858
  113OSM   C15S11695   1.005   5.384   5.066 -0.1957  0.0071  0.3120
  113OSM   H15S11696   1.049   5.395   4.964 -1.1441  0.7423 -0.0466
  113OSM   H15T11697   0.945   5.476   5.086  0.2034 -0.0827  2.0604
  113OSM   C16S11698   0.906   5.266   5.083 -0.0174  0.3378 -0.3722
  113OSM   H16S11699   0.914   5.242   5.191  0.7619 -0.8007 -0.6769
  113OSM   H16T11700   0.954   5.180   5.032 -0.2873 -0.6116  0.9320
  113OSM   C17S11701   0.769   5.300   5.023 -0.2710  0.3083 -0.1714
  113OSM   H17S11702   0.731   5.395   5.066 -2.0391 -0.0655 -0.8455
  113OSM   H17T11703   0.703   5.213   5.042  0.1316 -0.1811 -0.9296
  113OSM   C18S11704   0.760   5.325   4.871 -0.3590  0.4442  0.5271
  113OSM   H18S11705   0.797   5.235   4.818  1.0243  0.6971  1.0397
  113OSM   H18T11706   0.825   5.409   4.842  2.4485 -1.4025  1.1098
  113OSM   H18U11707   0.655   5.337   4.835 -0.4485 -1.5828 -0.0204
  113OSM    C1F11708   1.435   5.369   6.446  0.5530  0.3406 -0.8185
  113OSM     OF11709   1.352   5.327   6.527 -0.2389 -0.1794  0.2919
  113OSM    C2F11710   1.572   5.298   6.437  0.8226  0.2490 -0.6105
  113OSM    H2F11711   1.606   5.269   6.539 -2.0131 -1.2948  0.0187
  113OSM    H2G11712   1.642   5.366   6.385 -0.2221  0.0622 -2.3386
  113OSM    C3F11713   1.540   5.168   6.353 -0.4974 -0.7715  0.3071
  113OSM    H3F11714   1.452   5.106   6.380 -2.0008  0.0724 -2.3532
  113OSM    H3G11715   1.634   5.111   6.372  1.1533  1.1608 -1.5549
  113OSM    C4F11716   1.523   5.201   6.202  0.5419 -0.1020  0.3097
  113OSM    H4F11717   1.599   5.279   6.176 -0.0707  0.6542  0.7645
  113OSM    H4G11718   1.421   5.241   6.185 -0.0872 -2.0748 -0.9909
  113OSM    C5F11719   1.546   5.081   6.113 -0.0004 -0.3571  0.4414
  113OSM    H5F11720   1.486   4.996   6.152 -0.1840 -0.5144 -0.1694
  113OSM    H5G11721   1.650   5.043   6.103  0.6203  1.0251  1.3615
  113OSM    C6F11722   1.502   5.105   5.964  0.0366 -0.1038  0.1993
  113OSM    H6F11723   1.529   5.019   5.899  1.5606  1.2288 -1.0189
  113OSM    H6G11724   1.564   5.183   5.917 -0.7688  0.0213 -0.6860
  113OSM    C7F11725   1.356   5.142   5.952 -1.1636  0.8703 -0.5278
  113OSM    H7F11726   1.329   5.244   5.987 -0.8304  1.0097 -0.6754
  113OSM    H7G11727   1.297   5.065   6.007 -0.8687  0.4113 -0.8455
  113OSM    C8F11728   1.310   5.141   5.810 -0.4963 -0.0821  0.4527
  113OSM    H8F11729   1.390   5.186   5.747  0.5842 -0.3568  1.5731
  113OSM    H8G11730   1.221   5.201   5.784 -0.1103  0.7343  0.9888
  113OSM    C9F11731   1.298   5.005   5.766 -0.0016 -0.3160  0.2107
  113OSM    H9F11732   1.328   4.921   5.830  3.0970 -1.1725 -2.1201
  113OSM   C10F11733   1.249   4.967   5.643 -0.4977  0.3760  0.4979
  113OSM   H10F11734   1.239   4.860   5.619  0.3699  0.4266 -0.1522
  113OSM   C11F11735   1.196   5.062   5.535 -0.5120  0.6514  1.1608
  113OSM   H11F11736   1.205   5.166   5.573  0.4242  0.9365  0.2009
  113OSM   H11G11737   1.088   5.046   5.518 -0.9936  2.2113  2.4766
  113OSM   C12F11738   1.269   5.062   5.401  0.5459  0.8656  0.0718
  113OSM   H12F11739   1.373   5.099   5.400  1.0107 -0.2851 -2.1301
  113OSM   H12G11740   1.219   5.116   5.317  1.2006  0.3638 -0.6538
  113OSM   C13F11741   1.284   4.921   5.346  0.1220 -0.3667  0.0918
  113OSM   H13F11742   1.186   4.871   5.328  0.6508 -1.1897 -0.5786
  113OSM   H13G11743   1.342   4.860   5.420 -1.1918 -0.6576  0.9131
  113OSM   C14F11744   1.362   4.914   5.217 -0.1283 -0.2614  0.7706
  113OSM   H14F11745   1.347   4.815   5.169  1.1520  0.2304 -0.7277
  113OSM   H14G11746   1.470   4.928   5.236  0.5464  0.3256 -2.7362
  113OSM   C15F11747   1.335   5.032   5.119  0.0420  0.6575  0.2667
  113OSM   H15F11748   1.377   5.127   5.158  2.6025 -0.3294  0.0837
  113OSM   H15G11749   1.224   5.043   5.118  0.1745  2.4028  1.1318
  113OSM   C16F11750   1.399   5.017   4.977  0.8826  0.3298 -0.6460
  113OSM   H16F11751   1.368   4.917   4.940 -3.8168  0.6648  1.7546
  113OSM   H16G11752   1.510   5.025   4.975  0.7768  2.7881 -2.9201
  113OSM   C17F11753   1.356   5.136   4.884  0.6381  0.4851  0.5445
  113OSM   H17F11754   1.409   5.155   4.788 -1.7242 -0.8650 -1.1266
  113OSM   H17G11755   1.366   5.224   4.950 -1.1351 -0.0132  1.5441
  113OSM   C18F11756   1.211   5.126   4.828  0.2120  0.0342 -0.6482
  113OSM   H18F11757   1.136   5.147   4.908  2.4546  1.5277  1.2188
  113OSM   H18G11758   1.189   5.026   4.785 -0.8375 -1.0937  2.2236
  113OSM   H18H11759   1.182   5.207   4.758  0.3136  0.0717 -0.6466
  114OSM      N11760   6.282   4.546   7.098 -0.4502 -0.6284  0.5304
  114OSM    C1511761   6.219   4.431   7.175  0.5558 -0.7814  0.3523
  114OSM   H15A11762   6.124   4.421   7.124  0.6571 -1.6860  0.3322
  114OSM   H15B11763   6.195   4.462   7.275 -1.5835  0.1051 -0.3686
  114OSM   H15C11764   6.279   4.341   7.178  1.3467 -0.5239 -3.1015
  114OSM    C1411765   6.189   4.668   7.103 -0.1940 -0.4934 -0.7254
  114OSM   H14A11766   6.182   4.700   7.206  1.9083  0.7941 -0.9061
  114OSM   H14B11767   6.091   4.650   7.062  0.1083 -0.2614 -1.5809
  114OSM   H14C11768   6.234   4.759   7.064  1.7942 -0.0668  2.2276
  114OSM    C1311769   6.414   4.575   7.164  0.1690 -0.1662 -0.3328
  114OSM   H13A11770   6.406   4.636   7.253  3.6213  0.1428 -0.0945
  114OSM   H13B11771   6.478   4.631   7.096 -0.3936  0.7509 -0.1283
  114OSM   H13C11772   6.468   4.484   7.182  1.0300 -0.3052 -3.1557
  114OSM    C1211773   6.299   4.497   6.963  0.4134  0.3929  0.6566
  114OSM   H12A11774   6.206   4.450   6.935  1.7814 -0.4136 -3.2493
  114OSM   H12B11775   6.375   4.420   6.959  0.7972  0.7915 -0.0099
  114OSM    C1111776   6.337   4.597   6.859  0.4293 -0.0266 -0.2493
  114OSM   H11A11777   6.256   4.661   6.817  2.0046  1.5955 -0.9593
  114OSM   H11B11778   6.364   4.529   6.775  0.2928 -1.9291  1.1797
  114OSM      P11779   6.462   4.834   6.873 -0.6247 -0.4859  0.2084
  114OSM    O1311780   6.358   4.899   6.951 -0.6333  0.4281  0.3043
  114OSM    O1411781   6.603   4.882   6.896  0.2573  0.9083 -0.0379
  114OSM    O1111782   6.436   4.865   6.713  0.1470  0.2325 -0.1405
  114OSM    O1211783   6.453   4.677   6.880  0.4648  0.0297 -0.0232
  114OSM    C1S11784   6.516   4.809   6.609 -0.5296 -1.5084  0.2941
  114OSM    H1S11785   6.520   4.699   6.627  0.4724 -1.9657 -2.3756
  114OSM    H1T11786   6.616   4.857   6.606 -0.9294 -0.7278 -1.0283
  114OSM     NF11787   6.529   4.758   6.366  0.3665 -0.6085 -0.5219
  114OSM    HNF11788   6.582   4.803   6.295  0.6812  1.2799  0.8419
  114OSM    C2S11789   6.463   4.846   6.466  0.6965 -0.0480 -0.3784
  114OSM    H2S11790   6.359   4.812   6.482  0.8347  0.0770  0.8972
  114OSM    C3S11791   6.469   4.998   6.452 -0.4353 -0.0380 -0.1693
  114OSM    H3S11792   6.574   5.032   6.447  0.4844 -2.2013  2.1852
  114OSM     O311793   6.426   5.071   6.567 -0.2976 -0.2486 -0.2673
  114OSM    HO311794   6.407   5.001   6.630  1.1759  0.2586  0.8094
  114OSM    C4S11795   6.411   5.046   6.322  0.1124  0.7048 -0.5210
  114OSM    H4S11796   6.493   5.071   6.253 -0.8072 -0.8207 -2.3006
  114OSM    C5S11797   6.287   5.082   6.293  0.1712  0.1543 -0.0522
  114OSM    H5S11798   6.206   5.078   6.368 -0.9136 -2.4064 -1.2188
  114OSM    C6S11799   6.230   5.149   6.177 -0.3862  0.1051  0.5373
  114OSM    H6S11800   6.167   5.237   6.202  1.7066  0.9915  3.0767
  114OSM    H6T11801   6.154   5.085   6.127  0.9202 -1.7033  0.7464
  114OSM    C7S11802   6.318   5.204   6.068  0.1213 -0.5984  0.0340
  114OSM    H7S11803   6.368   5.117   6.022 -0.2413 -0.6782 -0.2110
  114OSM    H7T11804   6.395   5.268   6.118 -1.5578  0.9235  0.7840
  114OSM    C8S11805   6.239   5.279   5.956 -0.2984 -0.3334  0.0148
  114OSM    H8S11806   6.190   5.365   6.006 -0.5738 -1.1803  1.2407
  114OSM    H8T11807   6.159   5.212   5.918  0.1294 -1.0021  0.2725
  114OSM    C9S11808   6.330   5.330   5.854  0.4788 -0.4086  0.5492
  114OSM    H9S11809   6.372   5.243   5.799  0.6764  0.4966 -0.8034
  114OSM    H9T11810   6.410   5.385   5.908  0.2013 -0.6281  1.1863
  114OSM   C10S11811   6.277   5.432   5.752 -0.1734  0.1812  0.8981
  114OSM   H10S11812   6.252   5.530   5.797  0.8577  1.1971 -0.6408
  114OSM   H10T11813   6.179   5.390   5.721  0.8532 -1.0914 -0.7922
  114OSM   C11S11814   6.369   5.452   5.628  0.3464 -0.3933  0.6999
  114OSM   H11S11815   6.373   5.349   5.585  0.5187  0.2274 -0.8330
  114OSM   H11T11816   6.467   5.499   5.647 -0.0314  0.6339  0.1745
  114OSM   C12S11817   6.301   5.529   5.517  0.6011  0.1416  0.9675
  114OSM   H12S11818   6.313   5.639   5.534 -0.4218 -0.0968  3.7449
  114OSM   H12T11819   6.193   5.504   5.522  0.6194  0.0991  1.1408
  114OSM   C13S11820   6.348   5.502   5.375  0.3390 -0.4246 -0.5596
  114OSM   H13S11821   6.316   5.405   5.330 -0.7259 -1.2905  1.9242
  114OSM   H13T11822   6.459   5.499   5.376  0.4294  1.5237 -0.7792
  114OSM   C14S11823   6.311   5.613   5.271  0.1228  0.3026 -0.1091
  114OSM   H14S11824   6.346   5.712   5.307 -3.2471  1.2111  1.0388
  114OSM   H14T11825   6.200   5.613   5.274  0.0551 -2.6224  2.4406
  114OSM   C15S11826   6.368   5.571   5.135 -1.0120  0.4043 -0.5059
  114OSM   H15S11827   6.326   5.474   5.101 -2.0732  0.7124 -0.0936
  114OSM   H15T11828   6.478   5.559   5.150 -0.9929  2.3769  1.3628
  114OSM   C16S11829   6.337   5.673   5.018  0.2704 -0.8042  0.2256
  114OSM   H16S11830   6.229   5.665   4.995  0.1653  3.9359 -2.3707
  114OSM   H16T11831   6.402   5.638   4.935  0.3561 -2.7282  1.0657
  114OSM   C17S11832   6.379   5.821   5.042  0.7030  0.1188 -1.1075
  114OSM   H17S11833   6.325   5.856   5.132 -0.9561 -2.9587 -0.7802
  114OSM   H17T11834   6.330   5.868   4.954  1.4193  0.1718 -1.4840
  114OSM   C18S11835   6.530   5.857   5.041  0.4177  0.2344 -0.0819
  114OSM   H18S11836   6.564   5.841   5.145  0.4045  1.7648  0.1911
  114OSM   H18T11837   6.542   5.965   5.019  2.5086  0.7029  2.8006
  114OSM   H18U11838   6.596   5.797   4.975  0.5158  0.7182 -0.4274
  114OSM    C1F11839   6.531   4.627   6.362 -0.1747  0.7226  0.4244
  114OSM     OF11840   6.443   4.554   6.402 -0.0251 -0.2271  1.0978
  114OSM    C2F11841   6.666   4.568   6.310  0.6273  0.0244 -0.2368
  114OSM    H2F11842   6.689   4.481   6.375  2.3900 -2.7703 -4.2056
  114OSM    H2G11843   6.739   4.651   6.323 -1.4961  1.8991  0.3125
  114OSM    C3F11844   6.658   4.519   6.163  0.9847  0.6010  0.6725
  114OSM    H3F11845   6.758   4.473   6.143  0.2190 -0.6856 -0.4139
  114OSM    H3G11846   6.639   4.605   6.096 -2.3071  0.5843  1.4167
  114OSM    C4F11847   6.572   4.404   6.121 -0.3962  0.2508  0.1923
  114OSM    H4F11848   6.470   4.445   6.114  0.4132  2.1356 -1.7824
  114OSM    H4G11849   6.584   4.323   6.196 -0.8186 -0.8111 -0.8410
  114OSM    C5F11850   6.611   4.341   5.979  0.2467 -0.6635 -0.8292
  114OSM    H5F11851   6.563   4.241   5.976  1.8153 -1.4364 -2.6327
  114OSM    H5G11852   6.721   4.326   5.975  0.2117 -0.7879 -1.2568
  114OSM    C6F11853   6.571   4.424   5.859  0.0314 -0.5626  0.1584
  114OSM    H6F11854   6.605   4.530   5.867  0.6356 -0.6272 -1.1808
  114OSM    H6G11855   6.461   4.414   5.850  0.0843 -2.8364  1.3741
  114OSM    C7F11856   6.631   4.383   5.730  0.5547  0.6516 -0.5387
  114OSM    H7F11857   6.582   4.294   5.686  0.4338 -0.0235  0.9062
  114OSM    H7G11858   6.732   4.344   5.752 -0.7424 -1.1705  2.9892
  114OSM    C8F11859   6.632   4.483   5.620 -0.1637  0.3236  0.6128
  114OSM    H8F11860   6.664   4.433   5.526 -1.9257  0.7760 -0.2873
  114OSM    H8G11861   6.691   4.572   5.650 -1.5522  0.8155  2.0471
  114OSM    C9F11862   6.496   4.542   5.586 -0.0806  0.3304 -0.5400
  114OSM    H9F11863   6.428   4.534   5.672 -1.3744 -1.3425 -1.6503
  114OSM   C10F11864   6.444   4.580   5.466 -0.0269 -0.1708  0.4628
  114OSM   H10F11865   6.337   4.600   5.450 -0.1992 -1.9175 -0.9314
  114OSM   C11F11866   6.524   4.592   5.336  0.1628  0.2561 -0.3526
  114OSM   H11F11867   6.631   4.561   5.339  0.2086  0.2769 -1.5263
  114OSM   H11G11868   6.527   4.703   5.329  0.4583  0.1917 -1.3931
  114OSM   C12F11869   6.465   4.542   5.205  0.0438 -0.2881  0.1968
  114OSM   H12F11870   6.354   4.550   5.201  0.1195  1.1343  0.5444
  114OSM   H12G11871   6.485   4.433   5.210 -1.1354 -0.7088 -2.2298
  114OSM   C13F11872   6.520   4.610   5.082 -0.6375  0.1543 -0.5411
  114OSM   H13F11873   6.620   4.571   5.053 -0.8191 -0.4533 -0.3678
  114OSM   H13G11874   6.522   4.717   5.111 -0.1849 -0.5798  2.5576
  114OSM   C14F11875   6.420   4.594   4.969 -0.6081 -0.7342  0.4421
  114OSM   H14F11876   6.324   4.644   4.992 -0.2950  0.5660 -0.8776
  114OSM   H14G11877   6.408   4.485   4.954 -2.0814 -0.4284 -0.8812
  114OSM   C15F11878   6.484   4.662   4.845  0.0730  0.9535  0.0659
  114OSM   H15F11879   6.578   4.605   4.826  0.0184  0.2753  1.6824
  114OSM   H15G11880   6.506   4.766   4.877  1.7872  0.7141 -0.2427
  114OSM   C16F11881   6.388   4.653   4.719 -0.8579 -0.8724 -0.3492
  114OSM   H16F11882   6.287   4.694   4.740 -1.8522 -0.2619 -5.1419
  114OSM   H16G11883   6.364   4.551   4.682 -0.0582 -1.4315  0.6320
  114OSM   C17F11884   6.428   4.741   4.603  0.4651 -0.0388 -0.6636
  114OSM   H17F11885   6.333   4.770   4.552 -0.4968 -2.4528 -0.4018
  114OSM   H17G11886   6.490   4.689   4.527 -0.9689  1.9019 -3.3340
  114OSM   C18F11887   6.499   4.869   4.649 -0.8448 -0.2214  0.0420
  114OSM   H18F11888   6.434   4.933   4.712  0.7406  0.5003  1.0029
  114OSM   H18G11889   6.512   4.923   4.554  0.4762 -2.0540 -0.8914
  114OSM   H18H11890   6.601   4.841   4.685 -1.3955 -1.2281  0.8829
  115OSM      N11891   1.134   0.851   6.547 -0.0047  0.6421  0.4263
  115OSM    C1511892   1.196   0.753   6.636 -0.4224 -0.0747  0.2147
  115OSM   H15A11893   1.236   0.814   6.716 -1.2048  0.5233  0.1646
  115OSM   H15B11894   1.279   0.700   6.592 -1.1660 -0.6944 -0.4588
  115OSM   H15C11895   1.127   0.690   6.689 -0.1691  0.2162  0.9165
  115OSM    C1411896   1.028   0.922   6.631 -0.0967  0.6521 -0.5930
  115OSM   H14A11897   1.077   0.969   6.715 -0.7729  1.8987 -0.8683
  115OSM   H14B11898   0.960   0.843   6.659 -0.7597  1.1010 -0.9161
  115OSM   H14C11899   0.965   0.987   6.572 -1.0565  0.6526  0.3930
  115OSM    C1311900   1.246   0.948   6.506  0.5311 -0.5882  1.0062
  115OSM   H13A11901   1.283   1.002   6.592  1.7725  0.5315 -0.1883
  115OSM   H13B11902   1.214   1.021   6.433  3.3283 -0.4226 -0.1579
  115OSM   H13C11903   1.324   0.890   6.461 -0.3709 -1.2652  0.2818
  115OSM    C1211904   1.059   0.777   6.433  0.3094 -0.0649 -0.9330
  115OSM   H12A11905   0.992   0.710   6.486  1.6649 -0.8105 -0.1138
  115OSM   H12B11906   1.129   0.718   6.376  1.0528 -1.8426  1.6508
  115OSM    C1111907   0.966   0.868   6.337 -0.1604 -0.1184 -0.5845
  115OSM   H11A11908   0.945   0.818   6.240  1.3130 -0.2193 -0.8779
  115OSM   H11B11909   1.022   0.962   6.316  2.0183 -1.0085  0.8274
  115OSM      P11910   0.736   0.792   6.412  0.2449  0.0590  0.3997
  115OSM    O1311911   0.800   0.661   6.447  0.1258 -0.0409  0.1397
  115OSM    O1411912   0.617   0.843   6.492  0.1851 -0.1368  0.2816
  115OSM    O1111913   0.705   0.793   6.257  0.4402  0.2939 -0.0887
  115OSM    O1211914   0.844   0.902   6.411 -0.1650  0.7067  0.4760
  115OSM    C1S11915   0.675   0.911   6.181  0.2607 -0.1408 -0.0840
  115OSM    H1S11916   0.761   0.923   6.111  0.3234  2.3880  0.3253
  115OSM    H1T11917   0.668   1.005   6.240  0.9894 -1.1076  1.5961
  115OSM     NF11918   0.546   1.012   5.987  0.5880  0.4799 -0.5232
  115OSM    HNF11919   0.489   1.094   5.996 -1.9451 -1.1374 -0.6837
  115OSM    C2S11920   0.543   0.907   6.094 -0.0680  0.0452 -0.2199
  115OSM    H2S11921   0.549   0.806   6.048  0.5274  0.6883 -1.6174
  115OSM    C3S11922   0.415   0.898   6.181 -0.1198 -0.0079  0.1778
  115OSM    H3S11923   0.394   0.997   6.228 -2.1768  0.1400 -0.9561
  115OSM     O311924   0.409   0.803   6.292 -0.0851 -0.5653 -0.3292
  115OSM    HO311925   0.494   0.760   6.302 -0.0569 -1.2408 -2.7623
  115OSM    C4S11926   0.299   0.889   6.085 -0.4940  0.9204  0.7286
  115OSM    H4S11927   0.254   0.983   6.050 -0.0599  0.4849 -1.1112
  115OSM    C5S11928   0.256   0.773   6.035  0.2312  0.7362 -0.3694
  115OSM    H5S11929   0.305   0.680   6.066  0.5463  0.2533 -2.2006
  115OSM    C6S11930   0.147   0.749   5.931  0.5450 -0.8794 -0.3079
  115OSM    H6S11931   0.054   0.800   5.966  1.1903  0.6889 -0.8016
  115OSM    H6T11932   0.127   0.640   5.927  2.2646 -1.2699  0.7041
  115OSM    C7S11933   0.175   0.802   5.787  0.5231  0.6503  0.2461
  115OSM    H7S11934   0.089   0.770   5.724  1.0939 -0.5707  0.0634
  115OSM    H7T11935   0.260   0.746   5.742  0.8723  1.3637 -0.0023
  115OSM    C8S11936   0.193   0.952   5.766 -1.4451 -0.3951  0.2316
  115OSM    H8S11937   0.285   0.988   5.816 -2.3059 -0.1018  1.6533
  115OSM    H8T11938   0.101   1.001   5.805 -2.8819 -0.3060 -2.9447
  115OSM    C9S11939   0.182   0.992   5.617 -0.5214  0.3413 -0.6015
  115OSM    H9S11940   0.190   1.102   5.611  0.0526  0.2712 -1.3049
  115OSM    H9T11941   0.084   0.961   5.576 -0.6696 -1.5062  0.9882
  115OSM   C10S11942   0.293   0.925   5.522 -0.4313 -0.2368  0.3223
  115OSM   H10S11943   0.271   0.817   5.510 -3.0298  0.2461  0.2701
  115OSM   H10T11944   0.391   0.929   5.574 -0.1851 -0.5208 -0.1126
  115OSM   C11S11945   0.307   0.994   5.385 -0.0547 -0.2197 -0.5486
  115OSM   H11S11946   0.415   0.997   5.361  0.6158  2.0360  2.2432
  115OSM   H11T11947   0.277   1.101   5.397 -0.6173 -0.0495 -2.8894
  115OSM   C12S11948   0.218   0.927   5.281  0.1576  0.2211 -0.0202
  115OSM   H12S11949   0.113   0.932   5.318  0.5403 -0.7483  1.2611
  115OSM   H12T11950   0.238   0.819   5.262 -2.1242 -0.5373  1.4274
  115OSM   C13S11951   0.236   0.998   5.142  0.3418 -0.4001 -0.1111
  115OSM   H13S11952   0.341   0.972   5.117  0.7504  0.1919  0.9363
  115OSM   H13T11953   0.228   1.107   5.163  0.7135 -0.0316 -1.7325
  115OSM   C14S11954   0.161   0.949   5.015  0.0831 -1.0831 -1.0852
  115OSM   H14S11955   0.215   1.006   4.937  1.4455 -0.4297  0.2762
  115OSM   H14T11956   0.059   0.990   5.026  1.1668  1.7460 -0.6178
  115OSM   C15S11957   0.191   0.802   4.986 -0.3184  0.8687 -1.2179
  115OSM   H15S11958   0.161   0.739   5.072  0.9651  1.0104 -0.6431
  115OSM   H15T11959   0.301   0.786   4.983 -0.6031 -1.3709 -1.2525
  115OSM   C16S11960   0.137   0.744   4.852  0.2549 -0.3563  0.1100
  115OSM   H16S11961   0.192   0.648   4.838 -0.7629 -0.7880 -1.1903
  115OSM   H16T11962   0.173   0.807   4.768 -2.2148  0.2937 -0.5233
  115OSM   C17S11963  -0.013   0.729   4.851  0.2011  0.0108 -0.2116
  115OSM   H17S11964  -0.057   0.831   4.860 -1.1603 -0.4823 -1.0016
  115OSM   H17T11965  -0.042   0.659   4.931  0.2744  0.5264  0.2737
  115OSM   C18S11966  -0.053   0.668   4.717  0.1131 -0.0466  0.9845
  115OSM   H18S11967  -0.046   0.557   4.709 -0.0692 -0.0748  1.2019
  115OSM   H18T11968   0.000   0.706   4.627  1.7676 -2.1486  0.9858
  115OSM   H18U11969  -0.163   0.681   4.706  0.0752  1.8045  2.8144
  115OSM    C1F11970   0.617   1.005   5.879 -0.0190  0.1044  0.4608
  115OSM     OF11971   0.684   0.905   5.851  0.5465 -0.7019  0.5075
  115OSM    C2F11972   0.608   1.123   5.791 -0.1410 -0.6424  0.2928
  115OSM    H2F11973   0.633   1.214   5.849  1.8337  0.0218 -1.4621
  115OSM    H2G11974   0.505   1.150   5.758  0.1617  2.2049  1.3686
  115OSM    C3F11975   0.697   1.114   5.662 -0.4564  1.1073 -0.3981
  115OSM    H3F11976   0.671   1.020   5.608 -1.4318  0.6929  0.7365
  115OSM    H3G11977   0.805   1.102   5.685 -0.6295  0.6142  0.1816
  115OSM    C4F11978   0.676   1.234   5.566  0.5923 -0.5592 -0.1974
  115OSM    H4F11979   0.701   1.337   5.599 -1.3088  0.1626 -0.8356
  115OSM    H4G11980   0.566   1.230   5.549  0.8451 -0.6813 -2.0289
  115OSM    C5F11981   0.744   1.215   5.426  0.0497  0.8966  0.2986
  115OSM    H5F11982   0.850   1.186   5.441  0.1401  1.9101  1.8663
  115OSM    H5G11983   0.752   1.318   5.387 -2.1847  0.9326 -0.2080
  115OSM    C6F11984   0.674   1.118   5.332  0.1783 -0.3811 -0.3128
  115OSM    H6F11985   0.569   1.150   5.317 -0.3317 -1.7175  0.2865
  115OSM    H6G11986   0.651   1.033   5.400 -3.6647 -0.3387 -1.3400
  115OSM    C7F11987   0.756   1.080   5.206  0.4878  0.4687  0.3122
  115OSM    H7F11988   0.835   1.008   5.235  1.0100  0.1688 -1.7062
  115OSM    H7G11989   0.824   1.159   5.167  1.9083  0.1479  2.0214
  115OSM    C8F11990   0.669   1.013   5.097  0.1101  0.0296 -0.0417
  115OSM    H8F11991   0.607   0.933   5.141 -2.8733  2.1921 -0.0602
  115OSM    H8G11992   0.739   0.969   5.022  1.3689  0.3642  0.8925
  115OSM    C9F11993   0.570   1.106   5.031 -0.0132  0.5818  0.5266
  115OSM    H9F11994   0.504   1.151   5.108 -0.5243 -1.7326  1.5388
  115OSM   C10F11995   0.551   1.143   4.902 -0.2117 -0.1773  0.1250
  115OSM   H10F11996   0.465   1.208   4.880 -0.5585 -1.1954 -1.8007
  115OSM   C11F11997   0.606   1.091   4.776 -0.5196 -0.0746  1.0439
  115OSM   H11F11998   0.547   1.127   4.689 -0.1926 -1.0230  0.3985
  115OSM   H11G11999   0.588   0.981   4.779 -0.8340 -0.0084  1.5090
  115OSM   C12F12000   0.758   1.118   4.759  0.4961  0.9980  0.3626
  115OSM   H12F12001   0.810   1.048   4.828 -1.0922 -0.9237 -0.2640
  115OSM   H12G12002   0.781   1.225   4.773  0.1208  1.2475 -0.7784
  115OSM   C13F12003   0.817   1.089   4.624  0.0362  0.3052 -0.4031
  115OSM   H13F12004   0.801   0.986   4.587 -1.4434  1.2251 -2.5393
  115OSM   H13G12005   0.924   1.115   4.642  0.0961 -0.6050  0.6546
  115OSM   C14F12006   0.762   1.180   4.520 -0.7740  0.2087 -0.0613
  115OSM   H14F12007   0.754   1.285   4.554  0.3506  0.5950 -0.9546
  115OSM   H14G12008   0.662   1.142   4.489 -0.5698  0.0683 -0.5646
  115OSM   C15F12009   0.853   1.182   4.391 -0.9908  0.4041 -0.1716
  115OSM   H15F12010   0.868   1.073   4.378 -0.9056  0.1473  1.7518
  115OSM   H15G12011   0.947   1.231   4.423  0.0675 -1.8630  0.4071
  115OSM   C16F12012   0.783   1.258   4.275  0.0443 -0.3141 -1.0153
  115OSM   H16F12013   0.762   1.361   4.312 -1.6245 -1.1673  0.5403
  115OSM   H16G12014   0.689   1.203   4.256 -0.5025 -0.2590  1.2650
  115OSM   C17F12015   0.867   1.266   4.144  0.1036  0.0627 -0.2849
  115OSM   H17F12016   0.806   1.311   4.063 -1.1256  1.3628  1.3059
  115OSM   H17G12017   0.904   1.165   4.115  0.0646 -0.4579  1.3576
  115OSM   C18F12018   0.993   1.349   4.164  0.1744 -0.1871  0.5620
  115OSM   H18F12019   0.980   1.456   4.192 -0.1571  0.1343 -0.7458
  115OSM   H18G12020   1.041   1.363   4.064 -1.1443  3.6677  0.3070
  115OSM   H18H12021   1.060   1.306   4.242  0.8804  0.8022  0.5257
  116OSM      N12022   3.207   4.028   6.932  0.0794  0.3165  0.2225
  116OSM    C1512023   3.128   3.939   7.015  0.8848  0.1883 -0.4882
  116OSM   H15A12024   3.077   3.998   7.089  0.9986 -0.9571  0.5350
  116OSM   H15B12025   3.194   3.868   7.063  0.4727 -0.4216 -0.7976
  116OSM   H15C12026   3.053   3.886   6.958  2.9081 -1.5649 -1.6631
  116OSM    C1412027   3.302   4.096   7.029 -0.6400 -0.0774  0.4819
  116OSM   H14A12028   3.370   4.024   7.072  1.1231 -0.6503 -2.9489
  116OSM   H14B12029   3.263   4.164   7.104 -4.1595 -0.8148 -0.5205
  116OSM   H14C12030   3.362   4.168   6.975 -2.2105 -1.5059 -3.5208
  116OSM    C1312031   3.294   3.938   6.842 -0.2364  0.0827  0.0355
  116OSM   H13A12032   3.336   3.994   6.760 -1.8555 -1.2717 -1.8361
  116OSM   H13B12033   3.231   3.864   6.795 -1.6635  0.8593  0.6450
  116OSM   H13C12034   3.364   3.883   6.903 -1.3083 -0.7868  0.5308
  116OSM    C1212035   3.132   4.137   6.861  0.4668  0.6131  0.9725
  116OSM   H12A12036   3.207   4.204   6.822  1.1988 -0.7384 -0.0324
  116OSM   H12B12037   3.063   4.184   6.929 -0.6038  1.9927 -0.9780
  116OSM    C1112038   3.047   4.083   6.738 -0.3474 -0.0858 -0.3334
  116OSM   H11A12039   3.112   4.012   6.682  2.3305  0.5156  1.7792
  116OSM   H11B12040   3.011   4.171   6.680 -0.6119 -0.1702 -0.2978
  116OSM      P12041   2.803   4.076   6.847  0.6706  0.0357  0.0281
  116OSM    O1312042   2.693   3.968   6.858 -0.4734 -0.1930 -0.0558
  116OSM    O1412043   2.845   4.149   6.972 -0.4444  0.0673  0.1457
  116OSM    O1112044   2.755   4.185   6.745 -0.1620 -0.0810 -0.4933
  116OSM    O1212045   2.936   4.009   6.795  0.3667 -0.3034  0.0970
  116OSM    C1S12046   2.749   4.145   6.605  0.5799 -0.0425 -0.0761
  116OSM    H1S12047   2.709   4.041   6.598  0.6146 -0.0474 -0.2007
  116OSM    H1T12048   2.852   4.144   6.563  1.1770  0.1547  1.3193
  116OSM     NF12049   2.662   4.194   6.382 -0.8852 -0.1651  0.0567
  116OSM    HNF12050   2.715   4.247   6.315 -1.9663  0.2642 -0.4845
  116OSM    C2S12051   2.659   4.239   6.523  0.2065 -0.1365  0.0857
  116OSM    H2S12052   2.554   4.221   6.557 -0.4010 -0.5735 -1.9085
  116OSM    C3S12053   2.687   4.394   6.541  0.2197 -0.2561  0.3385
  116OSM    H3S12054   2.782   4.425   6.492 -1.3982  0.2651 -2.6926
  116OSM     O312055   2.700   4.433   6.679  0.3978  0.1261  0.3816
  116OSM    HO312056   2.700   4.346   6.718  2.3445 -0.1936 -0.2181
  116OSM    C4S12057   2.575   4.476   6.475 -0.3291  0.0066 -0.2486
  116OSM    H4S12058   2.597   4.477   6.367  2.6752 -1.2863  0.2358
  116OSM    C5S12059   2.460   4.527   6.527 -0.3163 -0.3654 -0.2036
  116OSM    H5S12060   2.433   4.497   6.629  1.2889  1.4905  0.8292
  116OSM    C6S12061   2.344   4.587   6.450  0.1329  0.1717 -0.0917
  116OSM    H6S12062   2.343   4.697   6.466  1.7950 -0.1109  2.5082
  116OSM    H6T12063   2.245   4.546   6.482  0.3804  0.3972  0.9937
  116OSM    C7S12064   2.353   4.551   6.299 -0.4104 -0.0783  0.3511
  116OSM    H7S12065   2.348   4.440   6.288 -0.4804 -0.0405  0.0129
  116OSM    H7T12066   2.449   4.582   6.253 -0.1532  0.2592  1.0975
  116OSM    C8S12067   2.241   4.604   6.207 -0.6364  0.9090 -0.0539
  116OSM    H8S12068   2.237   4.714   6.221 -0.1175  1.0425 -0.8869
  116OSM    H8T12069   2.141   4.570   6.243 -0.9964 -0.0538 -1.8058
  116OSM    C9S12070   2.251   4.558   6.055 -0.2915  0.0203 -0.1255
  116OSM    H9S12071   2.246   4.447   6.060 -0.7917  0.0321 -0.3454
  116OSM    H9T12072   2.352   4.590   6.020  0.4775 -1.5302  0.5768
  116OSM   C10S12073   2.144   4.610   5.958  0.1873 -0.3733 -0.0364
  116OSM   H10S12074   2.160   4.720   5.949  0.0480 -0.2679  0.9058
  116OSM   H10T12075   2.049   4.605   6.014  1.3902  1.7641  2.4619
  116OSM   C11S12076   2.127   4.552   5.816 -0.8018  0.6921 -0.6358
  116OSM   H11S12077   2.104   4.444   5.819 -1.5898  0.8213 -1.6371
  116OSM   H11T12078   2.218   4.574   5.757 -1.1844 -0.8821 -1.8814
  116OSM   C12S12079   2.021   4.626   5.734 -0.4898  0.2046 -0.0948
  116OSM   H12S12080   2.075   4.722   5.727  0.5834  0.0252  3.5037
  116OSM   H12T12081   1.920   4.648   5.776 -0.9509  0.6925 -1.4119
  116OSM   C13S12082   1.996   4.566   5.592  0.3610 -0.0187  0.3805
  116OSM   H13S12083   1.950   4.465   5.589  0.0240  0.1453 -0.0577
  116OSM   H13T12084   2.094   4.549   5.543  0.0917 -1.4416  0.3028
  116OSM   C14S12085   1.921   4.664   5.495 -0.0883 -0.2975 -0.4190
  116OSM   H14S12086   1.975   4.761   5.497 -0.3066 -0.1565 -1.0880
  116OSM   H14T12087   1.819   4.684   5.536  0.4962 -1.2810  1.6786
  116OSM   C15S12088   1.909   4.610   5.356 -0.1035  0.6519  0.5362
  116OSM   H15S12089   1.850   4.516   5.367 -1.5328  0.8653 -3.4181
  116OSM   H15T12090   2.011   4.602   5.313 -0.3794 -0.6959  0.0567
  116OSM   C16S12091   1.830   4.702   5.262 -0.5196 -0.1662  0.1842
  116OSM   H16S12092   1.878   4.802   5.272  1.1317 -0.3912 -3.7134
  116OSM   H16T12093   1.723   4.701   5.291 -0.7785 -0.5446 -0.7529
  116OSM   C17S12094   1.843   4.646   5.120 -0.1090  1.1818  0.0864
  116OSM   H17S12095   1.812   4.539   5.120 -1.5413  1.2951 -5.2125
  116OSM   H17T12096   1.953   4.647   5.101 -0.0142  1.5898  0.6346
  116OSM   C18S12097   1.752   4.703   5.017  0.6139 -0.4326  0.0294
  116OSM   H18S12098   1.762   4.814   5.014 -0.2588 -0.2499  2.0606
  116OSM   H18T12099   1.644   4.693   5.042  0.9736 -0.7258  1.5967
  116OSM   H18U12100   1.772   4.665   4.915 -2.1463  0.5396 -0.9373
  116OSM    C1F12101   2.631   4.071   6.336  0.0664  0.3687  0.3370
  116OSM     OF12102   2.605   3.979   6.415  0.1421  0.6126  0.9628
  116OSM    C2F12103   2.644   4.055   6.187  0.3364 -0.2004  0.2625
  116OSM    H2F12104   2.715   4.125   6.139  0.2754  0.4163  1.0443
  116OSM    H2G12105   2.539   4.061   6.150  0.3710 -0.3473  0.1402
  116OSM    C3F12106   2.699   3.915   6.136 -0.1078 -0.3086 -0.6111
  116OSM    H3F12107   2.639   3.837   6.187  1.6257 -2.6239 -1.8749
  116OSM    H3G12108   2.802   3.905   6.179 -0.8887  0.3503  1.5636
  116OSM    C4F12109   2.702   3.874   5.991 -0.3652  0.0798  0.0412
  116OSM    H4F12110   2.721   3.764   5.997  2.3218  0.5159  0.9084
  116OSM    H4G12111   2.795   3.914   5.944  0.5131 -1.0258  0.7671
  116OSM    C5F12112   2.578   3.911   5.908  0.2857  0.7369  0.0179
  116OSM    H5F12113   2.559   4.020   5.911  0.7730  0.8625 -1.1076
  116OSM    H5G12114   2.492   3.866   5.962 -0.0887 -1.0857 -1.9604
  116OSM    C6F12115   2.594   3.863   5.762 -0.1550 -0.9459 -0.6757
  116OSM    H6F12116   2.587   3.752   5.764  1.0390 -1.0336  0.7290
  116OSM    H6G12117   2.684   3.911   5.720  0.4631  0.1983  1.7612
  116OSM    C7F12118   2.473   3.897   5.674  0.1217  0.4627 -0.7280
  116OSM    H7F12119   2.470   4.006   5.653 -0.3291  0.1666 -2.4066
  116OSM    H7G12120   2.374   3.864   5.712 -0.4499 -0.2712 -2.6993
  116OSM    C8F12121   2.487   3.818   5.542 -0.5316 -1.0239  0.3005
  116OSM    H8F12122   2.389   3.818   5.490 -1.1585  2.1396  1.2471
  116OSM    H8G12123   2.511   3.713   5.566 -1.3602 -1.1085  0.7915
  116OSM    C9F12124   2.590   3.882   5.454  0.1201 -0.1509 -0.2916
  116OSM    H9F12125   2.684   3.903   5.507 -0.2715 -0.3041  0.4793
  116OSM   C10F12126   2.565   3.945   5.337 -0.5334  0.5861  0.1242
  116OSM   H10F12127   2.646   3.996   5.282 -1.5190 -0.1340 -2.1016
  116OSM   C11F12128   2.434   3.946   5.259  0.0091  0.6193  0.2151
  116OSM   H11F12129   2.430   4.030   5.185  2.9350 -0.8566 -1.7823
  116OSM   H11G12130   2.349   3.958   5.330 -1.9703  0.7985 -2.0547
  116OSM   C12F12131   2.414   3.809   5.192 -0.4685 -0.3119  1.3021
  116OSM   H12F12132   2.436   3.728   5.265  2.4777  0.9251  1.9510
  116OSM   H12G12133   2.490   3.804   5.111 -1.1257  0.5635  0.6134
  116OSM   C13F12134   2.282   3.803   5.131  0.8472  0.1797  0.6771
  116OSM   H13F12135   2.277   3.883   5.054  0.6156 -0.9301 -0.4787
  116OSM   H13G12136   2.214   3.835   5.213 -0.0543  0.2764 -0.0923
  116OSM   C14F12137   2.233   3.673   5.070 -0.1143 -0.5392  0.3665
  116OSM   H14F12138   2.126   3.674   5.039 -0.5592 -1.4190  1.8277
  116OSM   H14G12139   2.249   3.591   5.143  1.9219  0.2117  0.8250
  116OSM   C15F12140   2.319   3.649   4.943 -0.0127 -0.2937 -0.1817
  116OSM   H15F12141   2.426   3.631   4.965  0.7913  1.2022 -2.4866
  116OSM   H15G12142   2.318   3.743   4.884  2.5876 -0.4743 -0.6512
  116OSM   C16F12143   2.266   3.531   4.869  0.2645  0.6938  0.1894
  116OSM   H16F12144   2.251   3.448   4.940 -0.1174  2.9506  2.8933
  116OSM   H16G12145   2.344   3.505   4.793 -0.4877 -1.9663  0.2551
  116OSM   C17F12146   2.136   3.567   4.789  0.4971  0.2009  0.4818
  116OSM   H17F12147   2.143   3.668   4.743 -2.4643  0.8285  1.1550
  116OSM   H17G12148   2.049   3.564   4.858  0.0987  1.5698  0.0778
  116OSM   C18F12149   2.110   3.465   4.679  0.7415  0.0132  0.0460
  116OSM   H18F12150   2.107   3.358   4.707  0.0463  0.5594  2.3102
  116OSM   H18G12151   2.196   3.474   4.609 -0.3601  0.6459 -1.2665
  116OSM   H18H12152   2.016   3.489   4.626  1.1433  1.5195 -0.0448
  117OSM      N12153   0.009   1.991   6.611  0.4620  0.6103  0.4887
  117OSM    C1512154   0.095   2.111   6.648  1.5832  0.6562 -0.5080
  117OSM   H15A12155   0.143   2.091   6.742 -0.7434 -2.0618  0.2293
  117OSM   H15B12156   0.017   2.184   6.664  0.6052 -0.4670 -0.0445
  117OSM   H15C12157   0.166   2.145   6.575  1.7555 -0.8516 -1.0760
  117OSM    C1412158   0.096   1.869   6.583 -0.2404  0.1427 -0.1474
  117OSM   H14A12159   0.164   1.875   6.500 -0.5932  1.3000 -0.3742
  117OSM   H14B12160   0.034   1.788   6.547 -1.4187  1.0113 -0.1579
  117OSM   H14C12161   0.152   1.835   6.668 -0.3016  0.6837  0.1193
  117OSM    C1312162  -0.086   1.960   6.718  0.7973 -0.5200 -0.7128
  117OSM   H13A12163  -0.174   1.910   6.678 -0.2008 -0.3022  1.0973
  117OSM   H13B12164  -0.128   2.043   6.772 -0.2745 -2.1488  1.1157
  117OSM   H13C12165  -0.045   1.900   6.798 -0.5322 -1.0383 -0.3866
  117OSM    C1212166  -0.064   2.027   6.482 -1.0325 -0.2399 -0.2010
  117OSM   H12A12167   0.013   2.050   6.409  0.2932 -0.9432  0.9370
  117OSM   H12B12168  -0.119   2.119   6.499  0.6231  0.7054  0.2816
  117OSM    C1112169  -0.144   1.916   6.421  0.4628 -0.4543 -0.6900
  117OSM   H11A12170  -0.083   1.827   6.393  1.3266  0.0368 -0.4148
  117OSM   H11B12171  -0.171   1.946   6.317  0.2885 -0.2934 -0.5994
  117OSM      P12172  -0.393   1.954   6.519 -0.1447 -0.1198  0.1629
  117OSM    O1312173  -0.473   1.880   6.625 -0.1956 -0.9620 -0.3115
  117OSM    O1412174  -0.365   2.098   6.547  0.5841  0.1787 -0.3795
  117OSM    O1112175  -0.458   1.940   6.382 -0.0428  0.0262  0.3444
  117OSM    O1212176  -0.251   1.878   6.501  0.1998 -0.4124 -0.1873
  117OSM    C1S12177  -0.472   1.813   6.315  0.4553  0.0463 -0.4817
  117OSM    H1S12178  -0.554   1.758   6.366 -2.2711  2.3234 -2.0454
  117OSM    H1T12179  -0.377   1.757   6.304 -0.2732 -0.8845 -2.8567
  117OSM     NF12180  -0.543   1.704   6.089  0.0667 -0.5997  0.0620
  117OSM    HNF12181  -0.479   1.677   6.018 -0.0357  0.7048 -0.5689
  117OSM    C2S12182  -0.505   1.833   6.160  0.4168  0.6877  0.4063
  117OSM    H2S12183  -0.591   1.901   6.140  0.5876  0.6289 -0.6059
  117OSM    C3S12184  -0.380   1.913   6.094 -0.1235 -0.6660  0.1627
  117OSM    H3S12185  -0.284   1.860   6.109 -0.2552 -0.3219  2.7313
  117OSM     O312186  -0.334   2.041   6.153 -0.0977  0.2118 -0.0853
  117OSM    HO312187  -0.379   2.054   6.237  2.4965 -0.0691  1.4712
  117OSM    C4S12188  -0.412   1.948   5.947  0.0349  0.0237  0.4467
  117OSM    H4S12189  -0.402   1.862   5.879  0.9373 -0.2110  0.8537
  117OSM    C5S12190  -0.457   2.065   5.889 -0.2877  0.9240 -0.1201
  117OSM    H5S12191  -0.474   2.156   5.949 -1.1634 -0.8398  2.4718
  117OSM    C6S12192  -0.495   2.078   5.743  0.1021  0.1389 -0.5173
  117OSM    H6S12193  -0.440   2.007   5.678  1.2655  1.7757 -1.4031
  117OSM    H6T12194  -0.454   2.175   5.706  1.5195 -0.8075 -1.5130
  117OSM    C7S12195  -0.645   2.062   5.718  0.7320 -0.8386  0.2096
  117OSM    H7S12196  -0.662   2.108   5.618  1.4243  0.9512  0.8763
  117OSM    H7T12197  -0.707   2.118   5.791  1.1879 -1.1323  0.8377
  117OSM    C8S12198  -0.697   1.921   5.729  0.5052 -0.4176 -0.0544
  117OSM    H8S12199  -0.695   1.885   5.834  2.9344 -0.1958  0.0246
  117OSM    H8T12200  -0.643   1.847   5.666 -0.1270 -0.0005 -1.1118
  117OSM    C9S12201  -0.853   1.906   5.708  0.0878  0.2405  0.0861
  117OSM    H9S12202  -0.907   1.988   5.761 -0.0243  0.3766 -0.2326
  117OSM    H9T12203  -0.881   1.809   5.753  2.3355  0.3165  1.8355
  117OSM   C10S12204  -0.891   1.901   5.558  0.3862  0.0942 -1.0966
  117OSM   H10S12205  -0.844   1.815   5.506  0.4071  0.7709 -2.2347
  117OSM   H10T12206  -0.866   2.000   5.512 -1.3437  0.9683 -0.2372
  117OSM   C11S12207  -1.044   1.873   5.548 -0.6240  0.1427  0.3709
  117OSM   H11S12208  -1.094   1.951   5.609  0.5953  2.9106 -1.8960
  117OSM   H11T12209  -1.063   1.772   5.589  0.3078 -0.0266  0.4160
  117OSM   C12S12210  -1.095   1.880   5.403 -0.1800  0.2397 -0.1325
  117OSM   H12S12211  -1.204   1.861   5.399 -0.4169  1.5024 -0.1331
  117OSM   H12T12212  -1.039   1.799   5.352 -0.7963 -1.4358  1.7317
  117OSM   C13S12213  -1.072   2.015   5.332 -0.0853  0.2312  0.1709
  117OSM   H13S12214  -0.963   2.032   5.327 -0.3838  1.9386 -2.5404
  117OSM   H13T12215  -1.102   2.100   5.397 -1.4167 -0.5985  0.6972
  117OSM   C14S12216  -1.102   2.039   5.182  0.1314 -0.0177  0.0690
  117OSM   H14S12217  -1.090   2.147   5.157 -0.8411  0.0238 -0.2762
  117OSM   H14T12218  -1.199   1.992   5.154  0.4105 -0.0180 -0.9294
  117OSM   C15S12219  -1.004   1.962   5.095 -0.0440  0.6237  0.0166
  117OSM   H15S12220  -1.029   1.858   5.124  0.5590  0.0557 -1.4154
  117OSM   H15T12221  -0.895   1.987   5.098  0.2037 -0.0456 -2.0178
  117OSM   C16S12222  -1.036   1.976   4.945  0.3386  0.7723 -0.3457
  117OSM   H16S12223  -1.014   2.078   4.909  0.0715  0.7862 -0.4656
  117OSM   H16T12224  -1.143   1.953   4.925 -0.4422  3.5495  0.3171
  117OSM   C17S12225  -0.933   1.890   4.868 -0.0222  0.7227 -0.2482
  117OSM   H17S12226  -0.948   1.782   4.889  0.3444  0.9375  1.1762
  117OSM   H17T12227  -0.832   1.916   4.907 -0.7911  1.3452  1.4406
  117OSM   C18S12228  -0.950   1.904   4.722 -0.8354 -0.9153 -0.1417
  117OSM   H18S12229  -1.058   1.894   4.699 -1.2168  0.4714  0.9132
  117OSM   H18T12230  -0.884   1.829   4.674  3.0578  0.8437  1.9653
  117OSM   H18U12231  -0.912   2.003   4.687 -2.1216 -0.0502  0.8352
  117OSM    C1F12232  -0.656   1.647   6.126 -0.5927  0.1026  0.5844
  117OSM     OF12233  -0.729   1.702   6.201 -0.5096 -0.1808 -0.1607
  117OSM    C2F12234  -0.679   1.502   6.070 -0.6644  0.4631 -0.1855
  117OSM    H2F12235  -0.745   1.445   6.139 -1.3758  0.6403 -0.7105
  117OSM    H2G12236  -0.582   1.449   6.073 -0.6166  0.5567 -0.0434
  117OSM    C3F12237  -0.747   1.494   5.934  0.4835  0.4261  0.0645
  117OSM    H3F12238  -0.848   1.538   5.942 -0.7697 -2.3993  1.0855
  117OSM    H3G12239  -0.768   1.386   5.915  1.5704  0.1205  0.5229
  117OSM    C4F12240  -0.677   1.548   5.817 -0.0559 -0.5570 -0.3495
  117OSM    H4F12241  -0.573   1.509   5.821  0.8076  1.6491  0.4606
  117OSM    H4G12242  -0.656   1.657   5.807 -1.8470 -0.3130 -1.9308
  117OSM    C5F12243  -0.729   1.505   5.681  0.7954 -0.2019  0.4543
  117OSM    H5F12244  -0.838   1.522   5.671  0.2117 -2.9979  1.2597
  117OSM    H5G12245  -0.714   1.396   5.699 -3.4667 -0.7205  1.9419
  117OSM    C6F12246  -0.643   1.560   5.565 -0.6725  0.5179  0.3472
  117OSM    H6F12247  -0.536   1.564   5.593 -0.5544 -0.0476 -0.0097
  117OSM    H6G12248  -0.676   1.664   5.546 -2.4740 -0.2295 -0.9167
  117OSM    C7F12249  -0.674   1.492   5.437 -0.1192  0.4125  0.8050
  117OSM    H7F12250  -0.782   1.485   5.411 -0.0839  2.6826 -0.1704
  117OSM    H7G12251  -0.636   1.388   5.433  0.5716  0.5889  2.1648
  117OSM    C8F12252  -0.607   1.564   5.319 -1.0598  0.7544  0.0110
  117OSM    H8F12253  -0.580   1.495   5.236 -0.9656 -0.1479  0.7815
  117OSM    H8G12254  -0.518   1.614   5.364 -0.0079 -3.0230  2.6332
  117OSM    C9F12255  -0.686   1.666   5.248  0.0103 -0.3291  0.2764
  117OSM    H9F12256  -0.761   1.715   5.312  1.6772  2.1007  0.4930
  117OSM   C10F12257  -0.661   1.706   5.121  0.5249  0.0781 -0.1775
  117OSM   H10F12258  -0.732   1.784   5.090 -0.1894  0.4197  2.0852
  117OSM   C11F12259  -0.561   1.658   5.022 -0.2802 -0.2071  0.6043
  117OSM   H11F12260  -0.509   1.567   5.058  0.6010  0.4445  1.0323
  117OSM   H11G12261  -0.482   1.736   5.012 -0.3845 -0.1782 -0.0355
  117OSM   C12F12262  -0.623   1.620   4.889 -0.3605  0.6274  0.1872
  117OSM   H12F12263  -0.678   1.707   4.846 -2.3489 -0.5352  0.2696
  117OSM   H12G12264  -0.711   1.554   4.906  1.2066 -1.3417  0.9300
  117OSM   C13F12265  -0.536   1.562   4.774  0.1850  0.0097  0.8366
  117OSM   H13F12266  -0.498   1.463   4.807 -0.0908  0.2514  1.9210
  117OSM   H13G12267  -0.446   1.622   4.750  0.7245 -1.1410 -0.1263
  117OSM   C14F12268  -0.632   1.546   4.656  0.0065 -0.4210 -0.1556
  117OSM   H14F12269  -0.676   1.642   4.622 -0.8459 -0.3951  0.9806
  117OSM   H14G12270  -0.722   1.494   4.694 -1.1734 -0.3743 -2.6854
  117OSM   C15F12271  -0.573   1.465   4.551 -0.4059  1.0045 -0.3886
  117OSM   H15F12272  -0.590   1.359   4.579 -1.7878  2.1162  3.6746
  117OSM   H15G12273  -0.464   1.480   4.538  0.1648 -0.5238  2.0375
  117OSM   C16F12274  -0.640   1.508   4.417  0.1281  0.0373 -0.0069
  117OSM   H16F12275  -0.616   1.616   4.407  1.0680 -0.1182  0.4517
  117OSM   H16G12276  -0.749   1.505   4.438  0.0023  1.4883 -0.3801
  117OSM   C17F12277  -0.606   1.416   4.304  0.2201  0.3617  0.2677
  117OSM   H17F12278  -0.639   1.310   4.311  1.2362 -0.0334 -0.6430
  117OSM   H17G12279  -0.496   1.401   4.308  0.0516 -1.4702 -0.7533
  117OSM   C18F12280  -0.654   1.471   4.173 -0.7005  0.0964 -0.5450
  117OSM   H18F12281  -0.763   1.454   4.158 -0.5377  1.2598 -3.8150
  117OSM   H18G12282  -0.614   1.413   4.087 -3.4049  0.6010 -2.2989
  117OSM   H18H12283  -0.631   1.579   4.165 -0.6887  0.1519  0.1856
  118OSM      N12284   0.549   6.222   6.439  0.5176 -0.1642 -0.1641
  118OSM    C1512285   0.424   6.199   6.518  0.1693 -0.4286  0.2863
  118OSM   H15A12286   0.339   6.255   6.480  0.2960 -0.9135 -0.7415
  118OSM   H15B12287   0.435   6.239   6.618  1.3850 -1.9285  0.7932
  118OSM   H15C12288   0.396   6.095   6.514 -1.2447 -0.0345 -1.7534
  118OSM    C1412289   0.660   6.145   6.495 -0.5005  0.2086 -0.1019
  118OSM   H14A12290   0.750   6.169   6.441  0.0873 -1.4093  0.1121
  118OSM   H14B12291   0.649   6.039   6.476 -2.1700  0.4998 -0.9261
  118OSM   H14C12292   0.680   6.153   6.601  2.7767  1.0248 -0.6775
  118OSM    C1312293   0.520   6.177   6.301 -0.1147 -0.2042 -0.1675
  118OSM   H13A12294   0.499   6.071   6.294  0.0366 -0.3501  1.3002
  118OSM   H13B12295   0.606   6.198   6.239  0.6141  0.1711  0.9505
  118OSM   H13C12296   0.433   6.224   6.257  0.6850 -0.5056 -2.1815
  118OSM    C1212297   0.572   6.376   6.435 -0.1723  0.1035  0.5840
  118OSM   H12A12298   0.495   6.413   6.369 -0.1727 -0.2253  0.3956
  118OSM   H12B12299   0.664   6.389   6.379 -1.1916  1.6268 -0.8225
  118OSM    C1112300   0.592   6.456   6.567 -0.1729  0.2694 -0.3081
  118OSM   H11A12301   0.497   6.446   6.623  0.1339 -1.9062 -0.0801
  118OSM   H11B12302   0.604   6.563   6.539 -0.1823  1.2740  3.0509
  118OSM      P12303   0.844   6.531   6.643  0.4710 -0.0005  0.0882
  118OSM    O1312304   0.800   6.666   6.690 -0.5478  0.5379  0.5476
  118OSM    O1412305   0.953   6.465   6.710  0.2213 -0.2278 -0.6669
  118OSM    O1112306   0.876   6.549   6.490 -0.0975  0.5595 -0.8506
  118OSM    O1212307   0.715   6.430   6.634 -0.5602 -0.0018 -0.1159
  118OSM    C1S12308   0.927   6.432   6.420 -0.1894  0.3106  0.2883
  118OSM    H1S12309   0.850   6.352   6.416 -1.6166  1.6707 -2.8083
  118OSM    H1T12310   1.024   6.395   6.461 -0.7345 -0.6197  0.7664
  118OSM     NF12311   0.976   6.377   6.176 -0.1304  0.0992 -0.1021
  118OSM    HNF12312   1.068   6.368   6.138 -1.0127 -0.6220 -2.2252
  118OSM    C2S12313   0.942   6.480   6.268 -0.1443 -0.0170 -0.7532
  118OSM    H2S12314   0.848   6.535   6.248 -1.4292 -1.2455  1.5732
  118OSM    C3S12315   1.053   6.597   6.260  1.0456 -0.2153  0.3141
  118OSM    H3S12316   1.148   6.539   6.273  2.1766  1.5787  0.3941
  118OSM     O312317   1.047   6.704   6.357  0.0914  0.2852 -0.3087
  118OSM    HO312318   0.975   6.675   6.413  1.1525 -3.4678 -0.6127
  118OSM    C4S12319   1.058   6.656   6.121 -1.1565 -0.0671 -0.1664
  118OSM    H4S12320   1.120   6.592   6.057  1.1116  1.6640  0.1599
  118OSM    C5S12321   0.994   6.762   6.064 -0.1850  0.7238  0.0819
  118OSM    H5S12322   0.925   6.824   6.124 -1.2717  0.0036 -0.4022
  118OSM    C6S12323   1.018   6.798   5.923 -0.1479 -0.2309 -0.2166
  118OSM    H6S12324   1.032   6.711   5.856  1.3386  0.5572 -0.9665
  118OSM    H6T12325   1.112   6.854   5.905  0.0109 -0.5672 -0.4403
  118OSM    C7S12326   0.899   6.873   5.863  0.2334  0.0317  0.0282
  118OSM    H7S12327   0.875   6.966   5.920  1.2107  0.3176 -0.0189
  118OSM    H7T12328   0.808   6.809   5.862  0.3602 -0.1654  0.5031
  118OSM    C8S12329   0.932   6.924   5.720  0.0311  0.6592  0.4639
  118OSM    H8S12330   1.034   6.968   5.726  0.4355 -0.2701  0.6896
  118OSM    H8T12331   0.858   7.001   5.691  0.8044  0.3662 -2.6343
  118OSM    C9S12332   0.924   6.822   5.606  0.4072  0.1502 -0.4468
  118OSM    H9S12333   0.830   6.763   5.611 -0.5484  1.6204 -0.2428
  118OSM    H9T12334   1.002   6.744   5.616  0.6318  0.5967  1.8857
  118OSM   C10S12335   0.937   6.881   5.466 -0.2259 -0.7303 -0.2687
  118OSM   H10S12336   1.035   6.933   5.459 -0.8924  0.5713 -0.1670
  118OSM   H10T12337   0.859   6.959   5.454  1.0530  0.6239 -0.0110
  118OSM   C11S12338   0.933   6.777   5.347  0.3016 -0.1543 -0.7263
  118OSM   H11S12339   0.834   6.727   5.343  1.3415 -2.2556 -2.1900
  118OSM   H11T12340   1.017   6.706   5.360  0.0317 -0.1426  1.6640
  118OSM   C12S12341   0.953   6.849   5.209  0.9297  0.5960 -0.5413
  118OSM   H12S12342   1.051   6.900   5.217  1.2744 -0.3165  2.7004
  118OSM   H12T12343   0.881   6.934   5.207  1.3778  0.9956 -3.5289
  118OSM   C13S12344   0.930   6.755   5.095 -0.6111 -0.3645  0.6764
  118OSM   H13S12345   0.825   6.717   5.090 -0.6664 -0.0734 -0.5295
  118OSM   H13T12346   0.997   6.668   5.115 -1.1669 -0.6603  1.3103
  118OSM   C14S12347   0.974   6.817   4.963  0.6290  0.0375  0.0898
  118OSM   H14S12348   1.082   6.842   4.970  0.4768  1.2521 -1.3755
  118OSM   H14T12349   0.926   6.913   4.937  0.1187 -0.6217 -1.5682
  118OSM   C15S12350   0.946   6.714   4.843 -0.0126 -0.6242 -0.3488
  118OSM   H15S12351   0.982   6.618   4.887 -0.8884  0.5557  3.3469
  118OSM   H15T12352   1.015   6.738   4.760 -0.6632  1.4450 -0.3571
  118OSM   C16S12353   0.797   6.712   4.801 -0.3824  0.4778 -0.4785
  118OSM   H16S12354   0.774   6.812   4.759 -0.0685  1.2109  1.0067
  118OSM   H16T12355   0.735   6.716   4.894  0.4860  0.9664  0.0956
  118OSM   C17S12356   0.753   6.592   4.710  0.2438  0.0226  0.1479
  118OSM   H17S12357   0.795   6.501   4.758 -0.5804 -1.9162 -2.5676
  118OSM   H17T12358   0.810   6.602   4.615 -0.0071 -1.1792 -0.1531
  118OSM   C18S12359   0.601   6.602   4.684  0.8180  0.5359 -0.0203
  118OSM   H18S12360   0.547   6.605   4.781  2.4939  1.0515  0.9390
  118OSM   H18T12361   0.569   6.516   4.623 -2.1582  0.8403  0.9510
  118OSM   H18U12362   0.580   6.699   4.634  1.5023  0.6739 -0.0453
  118OSM    C1F12363   0.888   6.285   6.150  0.8591 -0.4718  0.0483
  118OSM     OF12364   0.774   6.291   6.201 -0.4289  0.1991  0.1903
  118OSM    C2F12365   0.936   6.168   6.066  0.2683  0.4172 -0.7814
  118OSM    H2F12366   0.988   6.102   6.139 -1.4323 -0.3252 -0.2105
  118OSM    H2G12367   0.993   6.213   5.981  0.4479  2.3575  0.3019
  118OSM    C3F12368   0.810   6.090   6.022 -1.2878  0.0594 -0.0238
  118OSM    H3F12369   0.735   6.152   5.969 -0.7917  0.5715 -0.1351
  118OSM    H3G12370   0.765   6.044   6.113  0.5579  0.5759  1.2031
  118OSM    C4F12371   0.843   5.964   5.936 -0.2665  0.2366 -0.0755
  118OSM    H4F12372   0.745   5.926   5.901  0.8799 -1.1732 -1.9915
  118OSM    H4G12373   0.892   5.886   5.999  0.5582  0.7488 -0.0632
  118OSM    C5F12374   0.922   5.990   5.805  0.5209 -0.0485  0.9308
  118OSM    H5F12375   1.023   6.019   5.841  1.0697  1.7556 -1.7222
  118OSM    H5G12376   0.887   6.082   5.753  1.2853 -0.0319  0.4243
  118OSM    C6F12377   0.925   5.871   5.706  0.1581  0.1388 -0.1457
  118OSM    H6F12378   0.819   5.845   5.685  0.4207 -0.0998 -1.2664
  118OSM    H6G12379   0.959   5.785   5.766 -0.0329  0.1478 -0.0220
  118OSM    C7F12380   1.029   5.893   5.594 -0.2957  0.2662 -0.1294
  118OSM    H7F12381   1.125   5.899   5.648 -0.1918  0.6464 -0.3526
  118OSM    H7G12382   1.012   5.995   5.554 -0.8251  0.6646  1.0537
  118OSM    C8F12383   1.053   5.780   5.491 -0.9558 -0.3227 -0.6436
  118OSM    H8F12384   1.050   5.684   5.546 -0.8786  0.1814  0.2504
  118OSM    H8G12385   1.152   5.800   5.444 -0.0124 -1.0341  0.9605
  118OSM    C9F12386   0.937   5.796   5.407  0.3955  0.0180 -1.5027
  118OSM    H9F12387   0.849   5.750   5.455  0.1526  0.2803 -1.6921
  118OSM   C10F12388   0.927   5.843   5.283 -0.7384  0.1384  0.5220
  118OSM   H10F12389   0.834   5.835   5.225  0.1931 -2.5447 -0.7248
  118OSM   C11F12390   1.042   5.900   5.195 -0.3452  0.3877  0.2685
  118OSM   H11F12391   1.139   5.871   5.240 -1.3971 -0.7496  1.9247
  118OSM   H11G12392   1.032   6.009   5.180 -1.3249  0.6088  2.2504
  118OSM   C12F12393   1.016   5.843   5.057 -0.2534  0.3149  0.3314
  118OSM   H12F12394   0.927   5.894   5.014 -1.6816 -0.8555  1.8146
  118OSM   H12G12395   1.002   5.733   5.055 -0.1770  0.2825 -1.9864
  118OSM   C13F12396   1.127   5.868   4.949 -0.2431  0.0430  0.1933
  118OSM   H13F12397   1.223   5.821   4.978 -0.6276 -0.9374 -0.0752
  118OSM   H13G12398   1.147   5.977   4.945  0.3199 -0.0689 -0.0812
  118OSM   C14F12399   1.081   5.814   4.814 -0.1657  0.8996  0.2295
  118OSM   H14F12400   1.087   5.895   4.739  1.8930  0.8315  0.2546
  118OSM   H14G12401   0.976   5.779   4.826  0.3672 -1.9268 -2.1080
  118OSM   C15F12402   1.177   5.695   4.773  0.1517  0.8627 -0.1970
  118OSM   H15F12403   1.179   5.629   4.863 -0.0032  1.4265  0.2220
  118OSM   H15G12404   1.276   5.738   4.746  0.5690 -0.4501 -0.8557
  118OSM   C16F12405   1.138   5.610   4.650 -0.0070  0.6186  0.1140
  118OSM   H16F12406   1.219   5.536   4.633 -0.7986  0.0322 -1.3011
  118OSM   H16G12407   1.125   5.682   4.566  1.6686  2.0848  1.0546
  118OSM   C17F12408   1.000   5.533   4.654  0.3704 -0.4114 -0.1946
  118OSM   H17F12409   0.921   5.604   4.688 -0.3669 -0.4083 -1.8219
  118OSM   H17G12410   1.017   5.456   4.732 -0.0328  0.0554  0.3687
  118OSM   C18F12411   0.955   5.469   4.529 -0.2937  0.3015  0.8724
  118OSM   H18F12412   0.932   5.545   4.451 -0.3706 -0.2854  0.3067
  118OSM   H18G12413   0.857   5.417   4.534  0.4479 -1.2325  0.2125
  118OSM   H18H12414   1.027   5.396   4.484 -1.1359  0.2105 -0.3860
  119OSM      N12415   3.793   6.373   6.776 -0.0658 -0.4994  0.4444
  119OSM    C1512416   3.702   6.326   6.660 -0.3981 -0.5117 -0.0367
  119OSM   H15A12417   3.617   6.267   6.690  0.2430 -1.5341 -0.2138
  119OSM   H15B12418   3.761   6.282   6.582 -0.2372  0.1974 -0.3291
  119OSM   H15C12419   3.657   6.410   6.608  2.2180  0.9349 -0.1332
  119OSM    C1412420   3.713   6.461   6.867  0.5901  0.1348 -0.1079
  119OSM   H14A12421   3.775   6.505   6.943 -0.6965 -0.8186  1.5581
  119OSM   H14B12422   3.625   6.410   6.904  1.0411 -1.2441 -0.8420
  119OSM   H14C12423   3.664   6.536   6.805  2.1306 -0.2091 -1.8337
  119OSM    C1312424   3.834   6.251   6.848  0.3041 -0.0012 -0.2365
  119OSM   H13A12425   3.920   6.270   6.910  1.2291  0.5777 -1.6633
  119OSM   H13B12426   3.863   6.184   6.769  2.3720  1.3364 -0.6727
  119OSM   H13C12427   3.754   6.203   6.904 -1.4062 -1.6321 -3.7741
  119OSM    C1212428   3.911   6.456   6.732 -0.2275 -0.6890 -0.6242
  119OSM   H12A12429   3.973   6.453   6.821 -1.6624  0.8057  0.4790
  119OSM   H12B12430   3.877   6.557   6.714  1.1566 -0.4353 -2.0641
  119OSM    C1112431   3.995   6.410   6.609  0.1846 -0.0270  0.2411
  119OSM   H11A12432   4.077   6.483   6.590 -1.2898  1.2863 -1.4333
  119OSM   H11B12433   3.929   6.405   6.520  0.5714  0.1486 -0.0566
  119OSM      P12434   4.166   6.240   6.719  0.2073 -0.2257 -0.0413
  119OSM    O1312435   4.198   6.347   6.817 -0.0660 -0.3106 -0.3532
  119OSM    O1412436   4.139   6.103   6.772 -0.3519 -0.5426  0.6360
  119OSM    O1112437   4.280   6.238   6.615  0.5695 -0.3413  0.1628
  119OSM    O1212438   4.043   6.280   6.635  0.4931 -0.7291  0.6817
  119OSM    C1S12439   4.282   6.149   6.506  0.5304 -0.1563 -0.1229
  119OSM    H1S12440   4.195   6.080   6.509  1.3052 -1.1920 -0.5496
  119OSM    H1T12441   4.380   6.096   6.500  0.7363  0.3516 -1.7152
  119OSM     NF12442   4.259   6.140   6.257  0.2104 -0.1476 -0.1561
  119OSM    HNF12443   4.350   6.138   6.216  0.0823 -1.4660 -0.4431
  119OSM    C2S12444   4.255   6.227   6.375 -0.1764 -0.3456  0.4351
  119OSM    H2S12445   4.150   6.262   6.389  0.3641  1.2552  0.6518
  119OSM    C3S12446   4.358   6.349   6.364  0.2379  0.5065  0.2471
  119OSM    H3S12447   4.464   6.322   6.380  1.5685  4.4671 -0.6234
  119OSM     O312448   4.345   6.445   6.465 -0.0133 -0.0524 -0.4109
  119OSM    HO312449   4.330   6.393   6.544  1.5313  0.5264  0.2879
  119OSM    C4S12450   4.349   6.420   6.235  1.0382  0.1852 -0.4703
  119OSM    H4S12451   4.258   6.481   6.228  0.0362 -0.6869  2.9919
  119OSM    C5S12452   4.433   6.413   6.135 -0.0023 -0.0741  0.1998
  119OSM    H5S12453   4.524   6.352   6.145  0.9341  0.9620 -1.5317
  119OSM    C6S12454   4.408   6.475   6.000 -0.3930  0.1270  0.4238
  119OSM    H6S12455   4.479   6.555   5.970 -2.1848  1.0043 -1.7089
  119OSM    H6T12456   4.303   6.509   5.985 -0.4836 -0.9569 -1.7432
  119OSM    C7S12457   4.424   6.357   5.894 -0.1373  0.2441 -0.0582
  119OSM    H7S12458   4.367   6.267   5.926 -1.0604  1.4561  1.9273
  119OSM    H7T12459   4.531   6.327   5.888  0.6882  3.1406 -1.8027
  119OSM    C8S12460   4.364   6.406   5.755 -0.1406  0.7118  0.2785
  119OSM    H8S12461   4.391   6.512   5.737  0.7191  0.9351  2.5506
  119OSM    H8T12462   4.254   6.388   5.754 -0.0924  0.3432 -1.6692
  119OSM    C9S12463   4.411   6.314   5.643 -0.0304 -0.4993  0.0341
  119OSM    H9S12464   4.341   6.228   5.653 -0.2094 -0.3129  0.4298
  119OSM    H9T12465   4.514   6.274   5.654 -0.0712 -0.3003  1.2314
  119OSM   C10S12466   4.377   6.383   5.500 -0.7020  0.2082 -0.5334
  119OSM   H10S12467   4.457   6.458   5.480 -0.1025 -0.0799  0.6715
  119OSM   H10T12468   4.279   6.436   5.503 -0.5758  0.4964 -1.3121
  119OSM   C11S12469   4.373   6.272   5.390  0.3218  0.1938 -0.6489
  119OSM   H11S12470   4.285   6.204   5.399 -0.7115  1.7863  3.2317
  119OSM   H11T12471   4.460   6.207   5.412 -1.3111 -1.8420  0.1928
  119OSM   C12S12472   4.378   6.336   5.253  0.2544 -0.1451  0.6110
  119OSM   H12S12473   4.470   6.399   5.251  0.2931 -0.2037  0.5335
  119OSM   H12T12474   4.289   6.402   5.245  2.0025  2.1924 -1.0829
  119OSM   C13S12475   4.391   6.232   5.135 -0.6638 -0.0584 -0.4904
  119OSM   H13S12476   4.349   6.131   5.155 -1.9495  0.3137 -1.1743
  119OSM   H13T12477   4.500   6.228   5.113 -0.5429  0.5295 -0.0216
  119OSM   C14S12478   4.317   6.262   5.005 -0.1412  0.3152 -0.7127
  119OSM   H14S12479   4.350   6.366   4.985  0.2258  0.7605  1.9025
  119OSM   H14T12480   4.207   6.266   5.019 -0.2670 -2.5564 -0.2646
  119OSM   C15S12481   4.360   6.167   4.892 -0.1777  0.2338 -0.1022
  119OSM   H15S12482   4.298   6.075   4.899 -2.2276  1.5634  0.0547
  119OSM   H15T12483   4.464   6.131   4.906 -0.4882 -0.2246  1.1900
  119OSM   C16S12484   4.337   6.217   4.751 -0.0078  0.7787  0.8234
  119OSM   H16S12485   4.389   6.315   4.737  1.6586 -0.1454  0.2721
  119OSM   H16T12486   4.227   6.215   4.738  0.1069  2.2335 -0.7639
  119OSM   C17S12487   4.401   6.126   4.643 -0.3559  0.6913 -0.5696
  119OSM   H17S12488   4.508   6.124   4.673 -0.3269  2.8157 -0.3845
  119OSM   H17T12489   4.392   6.180   4.546 -1.3386  2.6562  0.5666
  119OSM   C18S12490   4.335   5.984   4.620 -0.3741 -0.3296  0.3146
  119OSM   H18S12491   4.338   5.915   4.708 -0.9556  0.6356  1.1102
  119OSM   H18T12492   4.401   5.940   4.543  0.0787  2.8867 -1.2704
  119OSM   H18U12493   4.232   5.991   4.579  0.0400  1.8190 -0.4930
  119OSM    C1F12494   4.188   6.031   6.251  0.6901  0.6075  0.2470
  119OSM     OF12495   4.086   6.027   6.323 -0.1133  0.4801 -0.2721
  119OSM    C2F12496   4.237   5.917   6.162  0.0708 -0.0724  0.8373
  119OSM    H2F12497   4.321   5.867   6.215  1.1395  0.2226 -0.5226
  119OSM    H2G12498   4.284   5.966   6.075  0.8556 -1.7935  0.2416
  119OSM    C3F12499   4.124   5.822   6.132  0.1297 -1.2383  0.1292
  119OSM    H3F12500   4.034   5.869   6.087  1.4519  0.0728 -1.2797
  119OSM    H3G12501   4.099   5.774   6.229  0.0177 -1.0553  0.1900
  119OSM    C4F12502   4.165   5.717   6.041  0.4144 -0.0152  0.9025
  119OSM    H4F12503   4.272   5.686   6.035  0.6104  0.9455 -1.9144
  119OSM    H4G12504   4.144   5.756   5.939  1.2033 -0.9896  0.3399
  119OSM    C5F12505   4.079   5.587   6.057  0.7481 -0.4167 -0.0587
  119OSM    H5F12506   3.972   5.620   6.063  1.1840  1.1196 -0.2964
  119OSM    H5G12507   4.089   5.549   6.161 -0.7791  1.0661  0.6947
  119OSM    C6F12508   4.103   5.483   5.950 -0.2702  0.1034  0.1583
  119OSM    H6F12509   4.025   5.410   5.982  0.3746  0.0876  1.7662
  119OSM    H6G12510   4.204   5.439   5.962  0.3159  1.6526  1.1116
  119OSM    C7F12511   4.063   5.528   5.806  0.1538  0.5512 -0.1655
  119OSM    H7F12512   4.147   5.590   5.768 -1.2012  4.3075  2.3550
  119OSM    H7G12513   3.973   5.592   5.809  1.2073  2.0693  0.3394
  119OSM    C8F12514   4.049   5.401   5.719  0.0374 -0.3645 -0.2931
  119OSM    H8F12515   3.976   5.427   5.639  2.3725  1.0611 -2.1089
  119OSM    H8G12516   3.995   5.333   5.788 -2.4313  2.7509  1.0915
  119OSM    C9F12517   4.176   5.331   5.675 -0.0864  0.2382  0.4942
  119OSM    H9F12518   4.225   5.271   5.753  1.1122 -0.5490 -0.8263
  119OSM   C10F12519   4.203   5.306   5.539 -0.0623  0.1720 -0.6084
  119OSM   H10F12520   4.297   5.255   5.513  0.4037  0.4096  0.5592
  119OSM   C11F12521   4.129   5.365   5.425 -0.3515  0.2251  0.8319
  119OSM   H11F12522   4.083   5.464   5.449 -0.1346  0.2004  1.3691
  119OSM   H11G12523   4.045   5.294   5.407 -0.2406  0.1046  0.7896
  119OSM   C12F12524   4.201   5.364   5.286  0.2864  0.2218 -0.2923
  119OSM   H12F12525   4.288   5.433   5.286  0.5024 -0.0399 -1.1339
  119OSM   H12G12526   4.128   5.411   5.217 -0.9852 -1.6500 -0.2885
  119OSM   C13F12527   4.252   5.226   5.243  0.0844 -0.3637 -0.8528
  119OSM   H13F12528   4.210   5.142   5.302  1.5120 -2.3673 -2.5485
  119OSM   H13G12529   4.363   5.222   5.250  0.2272  2.1746 -0.8294
  119OSM   C14F12530   4.235   5.200   5.097 -0.1414 -0.1874 -0.5307
  119OSM   H14F12531   4.302   5.117   5.064 -0.3721 -0.6578  0.1885
  119OSM   H14G12532   4.264   5.296   5.049 -3.2446  0.5493 -1.1537
  119OSM   C15F12533   4.083   5.172   5.062  0.3493  0.2578  0.0754
  119OSM   H15F12534   4.015   5.254   5.094  1.2182  0.3193  1.9051
  119OSM   H15G12535   4.047   5.091   5.128 -3.6181  0.6947 -1.2762
  119OSM   C16F12536   4.054   5.133   4.913  0.6088  0.1369 -0.0599
  119OSM   H16F12537   4.081   5.212   4.839  1.4965  0.7667  0.9061
  119OSM   H16G12538   3.943   5.129   4.913  0.6063 -0.1956  1.3152
  119OSM   C17F12539   4.111   4.996   4.873  0.4727 -0.0587  0.4050
  119OSM   H17F12540   4.163   4.957   4.963 -1.1370  0.2743  1.5192
  119OSM   H17G12541   4.189   5.010   4.796  0.6558  0.1670  0.6257
  119OSM   C18F12542   3.988   4.913   4.820 -0.0492 -0.7891 -0.7162
  119OSM   H18F12543   3.909   4.893   4.896  1.4656 -0.7542  0.9073
  119OSM   H18G12544   4.031   4.820   4.776 -0.3501 -0.8354 -0.9227
  119OSM   H18H12545   3.944   4.970   4.736  0.0144 -1.7103 -1.3925
  120OSM      N12546   5.368   2.701   7.096 -0.3965  0.6913  0.9471
  120OSM    C1512547   5.444   2.831   7.099  0.3905 -0.2759 -0.1001
  120OSM   H15A12548   5.397   2.911   7.044 -0.7083 -2.1377 -2.0466
  120OSM   H15B12549   5.537   2.814   7.046  0.6805  0.1539  0.2687
  120OSM   H15C12550   5.449   2.870   7.199 -1.1219  1.2934 -0.5913
  120OSM    C1412551   5.461   2.594   7.156 -0.2396 -0.3020  0.4703
  120OSM   H14A12552   5.545   2.581   7.089  0.4281 -2.6992  1.6341
  120OSM   H14B12553   5.413   2.497   7.150  2.7314 -1.8583 -0.0289
  120OSM   H14C12554   5.484   2.615   7.260 -0.1120  0.0875  0.3650
  120OSM    C1312555   5.247   2.718   7.189  0.1806  0.0916  0.7186
  120OSM   H13A12556   5.207   2.818   7.184 -0.9549 -0.3487  0.8111
  120OSM   H13B12557   5.283   2.697   7.288  0.5984  2.4977  1.1344
  120OSM   H13C12558   5.171   2.648   7.157 -0.7723  0.4466  2.1465
  120OSM    C1212559   5.331   2.656   6.953  0.1875 -0.4484  0.0490
  120OSM   H12A12560   5.248   2.708   6.908  0.6606 -1.1213 -1.6691
  120OSM   H12B12561   5.294   2.555   6.963 -0.9864 -0.0438  0.0193
  120OSM    C1112562   5.441   2.665   6.842  0.7011  0.1810  0.3769
  120OSM   H11A12563   5.483   2.768   6.844  0.2494  0.3553  1.4660
  120OSM   H11B12564   5.396   2.636   6.744  1.9460 -0.3562 -0.0600
  120OSM      P12565   5.690   2.592   6.836 -0.4209  0.0134  0.1112
  120OSM    O1312566   5.723   2.726   6.887 -0.7055  0.4217  0.1484
  120OSM    O1412567   5.774   2.480   6.885  1.3338  0.0383  0.3538
  120OSM    O1112568   5.694   2.596   6.684 -0.1175  0.1683  0.5180
  120OSM    O1212569   5.539   2.560   6.871 -0.0928 -0.3351  0.0756
  120OSM    C1S12570   5.668   2.479   6.598 -0.4149 -0.1390 -1.1896
  120OSM    H1S12571   5.557   2.487   6.589 -0.6112 -0.6371  0.5226
  120OSM    H1T12572   5.711   2.390   6.648  0.2595  0.5001 -0.6123
  120OSM     NF12573   5.678   2.409   6.358  0.4089  0.0262  0.5299
  120OSM    HNF12574   5.711   2.315   6.347 -2.6960 -1.0418 -0.7303
  120OSM    C2S12575   5.740   2.482   6.458 -0.3748 -0.1064 -0.0293
  120OSM    H2S12576   5.735   2.583   6.412  0.5588 -0.4522 -0.9270
  120OSM    C3S12577   5.889   2.444   6.469  0.8556  0.3537 -0.4422
  120OSM    H3S12578   5.890   2.336   6.494  0.7511  0.0337 -1.7407
  120OSM     O312579   5.956   2.511   6.578 -0.4302 -0.1102 -0.3368
  120OSM    HO312580   5.894   2.569   6.624  1.3891  2.1716 -0.5703
  120OSM    C4S12581   5.964   2.456   6.338 -0.4590 -0.1623  0.0941
  120OSM    H4S12582   5.979   2.367   6.275 -1.3759 -1.2070  1.3014
  120OSM    C5S12583   6.030   2.562   6.300 -0.6033 -1.0601  0.0009
  120OSM    H5S12584   6.040   2.655   6.358 -1.8815 -0.7596 -0.2396
  120OSM    C6S12585   6.109   2.561   6.170  0.0728  0.5994  0.2107
  120OSM    H6S12586   6.073   2.642   6.103 -1.6625  0.9959  1.5485
  120OSM    H6T12587   6.090   2.467   6.114 -0.2691 -0.0298  1.3437
  120OSM    C7S12588   6.253   2.576   6.193  0.2333  0.5996  0.6257
  120OSM    H7S12589   6.303   2.483   6.228 -0.2689  0.1315  0.1256
  120OSM    H7T12590   6.271   2.659   6.264 -2.5125  2.0021 -0.1707
  120OSM    C8S12591   6.330   2.626   6.071 -0.2869 -0.0320  0.5584
  120OSM    H8S12592   6.427   2.670   6.100  1.2664 -0.6479 -3.2257
  120OSM    H8T12593   6.281   2.713   6.023 -0.9014  0.7735  2.5201
  120OSM    C9S12594   6.345   2.523   5.956 -0.9493 -0.0613 -0.3502
  120OSM    H9S12595   6.316   2.421   5.989 -0.0432 -1.2989 -3.0815
  120OSM    H9T12596   6.453   2.504   5.937 -1.8014 -2.9145 -3.2501
  120OSM   C10S12597   6.296   2.575   5.822  0.2969  0.4424  0.1325
  120OSM   H10S12598   6.339   2.673   5.793 -2.4706  1.8205  0.3273
  120OSM   H10T12599   6.186   2.592   5.819 -0.0709 -1.4449 -4.1358
  120OSM   C11S12600   6.316   2.470   5.718 -0.6102  0.1961  0.1340
  120OSM   H11S12601   6.247   2.386   5.742 -3.7983  2.5623 -0.1392
  120OSM   H11T12602   6.422   2.438   5.725 -0.0359  2.0036  0.0450
  120OSM   C12S12603   6.286   2.516   5.576 -0.7208 -0.2240 -0.7412
  120OSM   H12S12604   6.358   2.590   5.536 -0.0307 -2.1987 -3.4037
  120OSM   H12T12605   6.187   2.565   5.579 -0.0800  1.3193 -2.6250
  120OSM   C13S12606   6.253   2.403   5.468  0.4167  0.0035 -0.3077
  120OSM   H13S12607   6.188   2.329   5.520 -0.0487 -0.0660 -0.9856
  120OSM   H13T12608   6.338   2.334   5.448 -0.4070 -1.9962  2.4869
  120OSM   C14S12609   6.182   2.456   5.349  0.2560 -0.1731  0.3478
  120OSM   H14S12610   6.244   2.531   5.295 -1.5216 -0.5508 -2.4129
  120OSM   H14T12611   6.094   2.516   5.379 -0.2583 -0.1479 -1.1101
  120OSM   C15S12612   6.154   2.350   5.240  0.3839  0.2919  0.4867
  120OSM   H15S12613   6.049   2.313   5.246 -0.3852  1.7152 -2.3582
  120OSM   H15T12614   6.230   2.269   5.245 -1.5167 -1.7064 -0.7377
  120OSM   C16S12615   6.153   2.406   5.094 -0.2306  0.5515  0.3156
  120OSM   H16S12616   6.251   2.445   5.058 -0.4311  0.0535 -0.8156
  120OSM   H16T12617   6.088   2.496   5.090 -1.6896 -0.5109 -1.1375
  120OSM   C17S12618   6.104   2.309   4.985  0.6388  0.1064  0.6637
  120OSM   H17S12619   5.999   2.300   5.020  0.5281  2.5183  1.1137
  120OSM   H17T12620   6.137   2.204   4.998 -0.3145 -0.5848 -1.8461
  120OSM   C18S12621   6.132   2.365   4.841 -0.1756 -1.0014  0.1839
  120OSM   H18S12622   6.088   2.465   4.824  0.4942 -0.5697  0.9091
  120OSM   H18T12623   6.095   2.299   4.760  1.3002  0.2615 -1.6115
  120OSM   H18U12624   6.239   2.381   4.816 -0.2763  1.9521  1.2781
  120OSM    C1F12625   5.559   2.447   6.318 -0.0988  0.2778  0.2240
  120OSM     OF12626   5.510   2.552   6.350 -0.0914  0.2503  0.1343
  120OSM    C2F12627   5.475   2.347   6.230  0.1685  0.4438 -0.1719
  120OSM    H2F12628   5.372   2.340   6.269  0.6667 -1.3666  0.9221
  120OSM    H2G12629   5.525   2.250   6.249  1.4696  1.0348 -0.3827
  120OSM    C3F12630   5.490   2.386   6.085 -0.1877  0.0339 -0.1253
  120OSM    H3F12631   5.597   2.380   6.054  0.1329  4.1161 -0.3341
  120OSM    H3G12632   5.463   2.492   6.066 -1.9690 -0.6859 -1.8635
  120OSM    C4F12633   5.397   2.308   5.996 -0.3959 -0.6140  0.8812
  120OSM    H4F12634   5.420   2.345   5.894 -0.7873 -1.2775  0.5475
  120OSM    H4G12635   5.288   2.322   6.014 -0.8181 -3.1313  0.6882
  120OSM    C5F12636   5.426   2.160   6.009  0.4006 -0.1754 -0.0178
  120OSM    H5F12637   5.370   2.122   6.098 -0.3219  1.9700  0.4969
  120OSM    H5G12638   5.535   2.141   6.022  0.2174 -2.0088 -0.8460
  120OSM    C6F12639   5.373   2.070   5.896 -0.0091 -0.5297 -0.0349
  120OSM    H6F12640   5.265   2.086   5.876 -0.0590 -0.2037  0.4803
  120OSM    H6G12641   5.383   1.966   5.933  0.6694 -0.4097  0.1319
  120OSM    C7F12642   5.460   2.079   5.774  0.4579  0.1506  0.6845
  120OSM    H7F12643   5.548   2.014   5.793  0.7481  0.8460  1.8640
  120OSM    H7G12644   5.497   2.181   5.747 -2.9126  1.6176  1.1520
  120OSM    C8F12645   5.388   2.048   5.648 -0.3423  0.0207  0.0999
  120OSM    H8F12646   5.439   2.096   5.562  3.4196 -0.4195  1.8958
  120OSM    H8G12647   5.289   2.098   5.651 -1.6274 -2.4308  1.1227
  120OSM    C9F12648   5.360   1.902   5.621  0.1972 -0.0655  0.0725
  120OSM    H9F12649   5.384   1.833   5.704 -1.6555  0.1596  0.8572
  120OSM   C10F12650   5.300   1.854   5.509  0.3722 -0.5176  0.1175
  120OSM   H10F12651   5.294   1.744   5.509 -2.6092 -0.5053  3.3404
  120OSM   C11F12652   5.267   1.934   5.381 -0.0757 -0.2562 -0.0628
  120OSM   H11F12653   5.284   2.042   5.403  0.1862 -0.6137  1.6757
  120OSM   H11G12654   5.159   1.918   5.360  0.2826 -1.3425 -1.1801
  120OSM   C12F12655   5.356   1.901   5.255  0.9588 -0.8493  0.1422
  120OSM   H12F12656   5.346   1.793   5.230 -1.4154 -0.3811 -1.1831
  120OSM   H12G12657   5.465   1.923   5.266  0.6960  1.2769 -0.9959
  120OSM   C13F12658   5.316   1.964   5.128 -0.4732  0.1935 -0.4258
  120OSM   H13F12659   5.294   2.073   5.133 -0.4868  0.1355  0.9625
  120OSM   H13G12660   5.226   1.917   5.084 -0.8871  0.1755  0.4273
  120OSM   C14F12661   5.424   1.944   5.014 -0.9133  0.2021 -0.6241
  120OSM   H14F12662   5.495   1.871   5.059  0.1299  0.7570 -1.3138
  120OSM   H14G12663   5.489   2.032   4.992  1.6184 -1.1621  0.8426
  120OSM   C15F12664   5.380   1.884   4.882  0.0687 -0.5405  0.8676
  120OSM   H15F12665   5.318   1.793   4.898  0.1574 -0.7335  0.1737
  120OSM   H15G12666   5.469   1.834   4.837 -0.3783  0.2751 -1.0208
  120OSM   C16F12667   5.315   1.978   4.784 -0.0269  0.0176 -0.6337
  120OSM   H16F12668   5.377   2.064   4.751  1.2855 -0.2469  1.0463
  120OSM   H16G12669   5.230   2.017   4.844  0.5865  0.6052 -0.1470
  120OSM   C17F12670   5.259   1.908   4.657  0.0058 -0.3580 -0.0979
  120OSM   H17F12671   5.192   1.823   4.681 -0.7573  0.6052  1.2822
  120OSM   H17G12672   5.346   1.860   4.606 -0.1594  0.1587 -0.8742
  120OSM   C18F12673   5.194   2.001   4.562  0.4816  0.3465 -0.0790
  120OSM   H18F12674   5.252   2.086   4.519  0.1617  0.3282 -0.5602
  120OSM   H18G12675   5.099   2.043   4.602  0.9894 -0.7193  2.4755
  120OSM   H18H12676   5.152   1.959   4.468 -0.5151  0.8853  0.1010
  121OSM      N12677   6.481   6.739   6.846  0.2332  0.2732 -0.3959
  121OSM    C1512678   6.602   6.810   6.890 -0.7765 -0.4678  0.0721
  121OSM   H15A12679   6.605   6.913   6.856 -0.7352 -0.4413  0.1558
  121OSM   H15B12680   6.692   6.759   6.858 -0.8274 -1.0357  0.8094
  121OSM   H15C12681   6.603   6.814   6.998 -2.8501  0.7091  0.1012
  121OSM    C1412682   6.495   6.599   6.891 -0.1428  0.0924 -0.4678
  121OSM   H14A12683   6.403   6.542   6.898  0.6376 -1.0924  0.5497
  121OSM   H14B12684   6.543   6.602   6.988 -0.5508  1.7583 -0.2906
  121OSM   H14C12685   6.541   6.543   6.811  1.1159 -0.0984  0.3645
  121OSM    C1312686   6.366   6.797   6.915  0.8418 -0.1732  0.1393
  121OSM   H13A12687   6.352   6.754   7.012 -0.6280  1.6241  0.7961
  121OSM   H13B12688   6.276   6.769   6.861  0.8573  0.6161 -0.3154
  121OSM   H13C12689   6.372   6.905   6.915  3.0474 -0.2556 -0.4197
  121OSM    C1212690   6.479   6.742   6.696  0.2984 -0.2185  0.6151
  121OSM   H12A12691   6.455   6.842   6.663 -0.3694 -0.3868  0.5720
  121OSM   H12B12692   6.403   6.688   6.642 -0.0235  1.3137 -0.5280
  121OSM    C1112693   6.612   6.707   6.621 -0.6276  0.0347  0.6298
  121OSM   H11A12694   6.689   6.776   6.661  0.8556 -1.8080  1.0240
  121OSM   H11B12695   6.603   6.735   6.514 -1.1934 -0.6039  0.5023
  121OSM      P12696   6.774   6.509   6.663 -0.2272  0.0188 -0.0710
  121OSM    O1312697   6.827   6.590   6.779  0.5127 -0.3530  0.1034
  121OSM    O1412698   6.774   6.361   6.659  0.0888 -0.6916 -0.4851
  121OSM    O1112699   6.871   6.559   6.537 -0.2636  0.7321 -0.3309
  121OSM    O1212700   6.629   6.567   6.624  0.3324  0.4437 -0.1182
  121OSM    C1S12701   6.841   6.521   6.406 -0.4538 -0.0849  0.8313
  121OSM    H1S12702   6.754   6.576   6.365 -0.1377  0.3902  0.7888
  121OSM    H1T12703   6.825   6.411   6.401  1.1972 -0.3467  0.7198
  121OSM     NF12704   6.901   6.528   6.170  0.6359 -0.2687  0.5038
  121OSM    HNF12705   6.947   6.454   6.121  2.0975  1.4810 -0.8830
  121OSM    C2S12706   6.958   6.548   6.306  0.6718 -0.1474  0.0696
  121OSM    H2S12707   6.980   6.656   6.323 -3.1746  0.2855  4.2099
  121OSM    C3S12708   7.082   6.460   6.334  0.4295  0.5307  0.0945
  121OSM    H3S12709   7.048   6.361   6.297 -0.7003  0.9613 -0.0509
  121OSM     O312710   7.115   6.426   6.473 -0.5542  0.3501  0.6102
  121OSM    HO312711   7.038   6.447   6.526  0.0359 -0.0949  1.6853
  121OSM    C4S12712   7.207   6.504   6.252  0.0644  0.7595  0.7344
  121OSM    H4S12713   7.218   6.457   6.154 -1.5890  2.9151 -0.5971
  121OSM    C5S12714   7.292   6.604   6.289 -0.3181  0.0193 -0.0704
  121OSM    H5S12715   7.264   6.663   6.378 -0.6770  3.2338 -2.1253
  121OSM    C6S12716   7.416   6.640   6.203 -0.7437  0.1985  0.0163
  121OSM    H6S12717   7.507   6.644   6.267 -0.2617 -0.1461 -0.6407
  121OSM    H6T12718   7.388   6.740   6.164 -1.0246  0.9863  2.1162
  121OSM    C7S12719   7.441   6.551   6.078 -0.6481 -0.0684  0.0287
  121OSM    H7S12720   7.349   6.550   6.016 -1.7808 -0.4758  1.6487
  121OSM    H7T12721   7.467   6.450   6.116  0.0508 -0.5078 -1.5386
  121OSM    C8S12722   7.564   6.591   5.994 -0.1549 -0.5588  0.5100
  121OSM    H8S12723   7.657   6.577   6.052 -0.2696 -1.5844  0.4686
  121OSM    H8T12724   7.573   6.697   5.961  2.1789 -0.5824  0.9549
  121OSM    C9S12725   7.578   6.487   5.873  0.5568 -0.2237 -0.0137
  121OSM    H9S12726   7.510   6.535   5.799 -0.7658 -1.2332  0.5156
  121OSM    H9T12727   7.555   6.384   5.908  2.6185  0.0865  2.5405
  121OSM   C10S12728   7.723   6.479   5.810  0.3991 -0.2054 -0.7655
  121OSM   H10S12729   7.796   6.441   5.885  1.9112  0.4251 -1.8800
  121OSM   H10T12730   7.759   6.583   5.800 -0.7767  0.3777  0.6299
  121OSM   C11S12731   7.728   6.395   5.688  0.1533  0.4684  0.1699
  121OSM   H11S12732   7.684   6.452   5.604 -1.9676  1.0504  1.5956
  121OSM   H11T12733   7.661   6.306   5.698 -0.0493  0.6722  0.6170
  121OSM   C12S12734   7.872   6.353   5.654  0.6384 -0.0567 -0.0487
  121OSM   H12S12735   7.904   6.283   5.734  0.8251  1.3953  1.1906
  121OSM   H12T12736   7.941   6.440   5.661 -0.6206  0.9559  0.1237
  121OSM   C13S12737   7.889   6.284   5.518  0.6303  0.0826 -0.9359
  121OSM   H13S12738   7.804   6.214   5.509 -1.4527  1.4748  4.1982
  121OSM   H13T12739   7.989   6.236   5.528  0.4237  0.0852  1.8697
  121OSM   C14S12740   7.892   6.381   5.399 -0.8812  0.5739  0.3588
  121OSM   H14S12741   7.964   6.462   5.427 -2.5506  2.0039  0.6830
  121OSM   H14T12742   7.798   6.437   5.381 -0.8347  1.3773  2.3495
  121OSM   C15S12743   7.935   6.303   5.274  0.6287 -0.5676 -0.4680
  121OSM   H15S12744   7.860   6.222   5.262  0.4777 -1.0400  2.7807
  121OSM   H15T12745   8.033   6.255   5.292  0.9470  0.3410  0.2679
  121OSM   C16S12746   7.956   6.403   5.159  0.9004 -0.0224  0.3243
  121OSM   H16S12747   8.021   6.488   5.189 -1.6384  2.4472 -0.6424
  121OSM   H16T12748   7.865   6.460   5.128  1.6817  1.5725  0.8749
  121OSM   C17S12749   8.013   6.354   5.022 -0.3005 -0.4184  0.0299
  121OSM   H17S12750   8.112   6.304   5.033 -1.1793 -2.3106 -0.2620
  121OSM   H17T12751   8.022   6.442   4.956  0.3708  0.4664  1.2673
  121OSM   C18S12752   7.921   6.247   4.949 -0.0560 -0.4779 -0.6747
  121OSM   H18S12753   7.822   6.294   4.930 -1.3230 -1.3107  2.9990
  121OSM   H18T12754   7.905   6.155   5.009 -0.0135  0.4440  0.8210
  121OSM   H18U12755   7.975   6.215   4.858 -1.8811 -1.2956 -1.5150
  121OSM    C1F12756   6.802   6.595   6.106 -0.1329 -0.3617  0.0798
  121OSM     OF12757   6.758   6.704   6.147 -0.6384 -0.1049  0.0474
  121OSM    C2F12758   6.748   6.538   5.984  0.2033  1.0007  0.0968
  121OSM    H2F12759   6.706   6.439   6.012  1.1928  0.7874  0.8827
  121OSM    H2G12760   6.827   6.524   5.907 -1.9120 -0.1067 -2.0131
  121OSM    C3F12761   6.640   6.630   5.928 -0.8321  0.5697 -0.5460
  121OSM    H3F12762   6.698   6.721   5.904 -2.0400  1.8828  1.2316
  121OSM    H3G12763   6.565   6.649   6.008 -1.6136 -0.1420 -1.0856
  121OSM    C4F12764   6.566   6.583   5.808 -0.1045 -0.1125  0.6435
  121OSM    H4F12765   6.474   6.639   5.780 -0.0953 -0.4418 -0.0909
  121OSM    H4G12766   6.538   6.476   5.814  1.7001 -0.6810 -0.3153
  121OSM    C5F12767   6.657   6.604   5.683 -0.1205  0.1183 -0.8202
  121OSM    H5F12768   6.761   6.564   5.692  0.0026  0.2711 -1.5392
  121OSM    H5G12769   6.672   6.713   5.669  3.1162 -0.0181  0.5960
  121OSM    C6F12770   6.608   6.553   5.545  0.3127  0.1068 -0.1619
  121OSM    H6F12771   6.499   6.575   5.539 -0.4032 -2.0127  2.8881
  121OSM    H6G12772   6.620   6.443   5.540  0.9852  0.2095 -0.8637
  121OSM    C7F12773   6.686   6.615   5.429 -0.0195  0.7413  0.0719
  121OSM    H7F12774   6.690   6.725   5.443  2.5123  1.0313 -2.1080
  121OSM    H7G12775   6.639   6.589   5.331 -0.8582 -4.2350  1.4916
  121OSM    C8F12776   6.832   6.555   5.432  0.9046  0.4027 -0.5845
  121OSM    H8F12777   6.819   6.445   5.428 -0.4292  0.5102  0.1940
  121OSM    H8G12778   6.875   6.593   5.527  0.0166  0.9090 -0.3775
  121OSM    C9F12779   6.921   6.613   5.324  0.1172 -0.0735  0.1201
  121OSM    H9F12780   6.980   6.704   5.344  0.4042 -0.0297 -0.8512
  121OSM   C10F12781   6.950   6.549   5.214  0.2713 -0.2849  0.0888
  121OSM   H10F12782   7.023   6.584   5.140  2.2750 -2.1072  1.0837
  121OSM   C11F12783   6.882   6.425   5.167  0.7951 -0.8783  0.4301
  121OSM   H11F12784   6.794   6.394   5.228  1.3462  1.0286  2.2932
  121OSM   H11G12785   6.960   6.346   5.165  3.8543  1.9388 -0.7784
  121OSM   C12F12786   6.823   6.428   5.016 -0.4065  0.5893 -0.2376
  121OSM   H12F12787   6.740   6.502   5.013  0.2065  1.2864 -2.9777
  121OSM   H12G12788   6.784   6.329   4.983 -1.5335  1.2386 -0.9171
  121OSM   C13F12789   6.922   6.462   4.904  0.3268  0.6289 -0.8317
  121OSM   H13F12790   7.000   6.387   4.881  1.8731  2.1399 -0.7489
  121OSM   H13G12791   6.983   6.550   4.934 -0.5450  0.8870  0.2846
  121OSM   C14F12792   6.853   6.492   4.770  0.4318  0.4401 -0.0727
  121OSM   H14F12793   6.817   6.597   4.767  1.0748  0.6385 -1.2132
  121OSM   H14G12794   6.766   6.426   4.752 -1.2646  2.2621  1.0254
  121OSM   C15F12795   6.951   6.496   4.651 -0.2329 -0.1123 -0.3389
  121OSM   H15F12796   7.006   6.400   4.661  0.2369  0.1164 -0.7170
  121OSM   H15G12797   7.034   6.567   4.673 -0.4387 -0.1936  0.7433
  121OSM   C16F12798   6.900   6.498   4.507 -0.0981 -1.0736 -0.3966
  121OSM   H16F12799   6.831   6.412   4.494  0.1714 -1.4440  0.5672
  121OSM   H16G12800   6.988   6.483   4.441  1.9738 -0.1888  2.0156
  121OSM   C17F12801   6.815   6.615   4.469  0.8320 -0.5120 -0.2303
  121OSM   H17F12802   6.730   6.608   4.540  1.8657  1.8764  1.3732
  121OSM   H17G12803   6.783   6.604   4.364  1.1721  0.3139 -0.4234
  121OSM   C18F12804   6.875   6.752   4.467  0.4662 -0.3679  0.3061
  121OSM   H18F12805   6.814   6.835   4.425  2.6656  1.0885 -0.1652
  121OSM   H18G12806   6.967   6.749   4.404 -0.5234 -1.3075 -1.1508
  121OSM   H18H12807   6.908   6.785   4.568  1.9734  0.6239 -0.4829
  122OSM      N12808   5.280   1.291   6.630 -0.1052  0.5589 -0.6380
  122OSM    C1512809   5.416   1.237   6.677 -0.2194 -0.6600  0.2204
  122OSM   H15A12810   5.482   1.317   6.706  1.0938 -1.0828 -1.4381
  122OSM   H15B12811   5.470   1.192   6.595  1.5842  0.8571  0.5168
  122OSM   H15C12812   5.404   1.159   6.751  1.2360 -1.6264 -0.5052
  122OSM    C1412813   5.191   1.182   6.588  0.2145  0.2490 -0.1481
  122OSM   H14A12814   5.181   1.098   6.655  0.0146  0.1067 -0.3543
  122OSM   H14B12815   5.228   1.140   6.496  2.1274  1.0736  0.1950
  122OSM   H14C12816   5.091   1.220   6.571 -0.5062 -1.3121  0.4267
  122OSM    C1312817   5.221   1.359   6.753  0.1431 -0.0229 -1.0191
  122OSM   H13A12818   5.228   1.297   6.841 -0.7375 -0.7746 -1.4552
  122OSM   H13B12819   5.119   1.393   6.740  0.3501  1.4380  0.8112
  122OSM   H13C12820   5.272   1.450   6.779 -0.3862 -0.0581  0.2216
  122OSM    C1212821   5.291   1.395   6.529  0.0909 -0.5024 -0.4430
  122OSM   H12A12822   5.355   1.473   6.568  0.2319  0.1344 -1.8886
  122OSM   H12B12823   5.198   1.448   6.522  0.2214 -0.0803  0.7563
  122OSM    C1112824   5.333   1.358   6.389 -0.5747  0.1915 -0.0579
  122OSM   H11A12825   5.347   1.456   6.338 -0.1330  0.7422  1.1048
  122OSM   H11B12826   5.247   1.313   6.335 -1.5139  1.4625  0.3152
  122OSM      P12827   5.453   1.142   6.295 -0.2120  0.0567 -0.0933
  122OSM    O1312828   5.590   1.075   6.316  0.7077 -0.3189  0.6757
  122OSM    O1412829   5.333   1.060   6.329  0.1671  0.0841 -0.0257
  122OSM    O1112830   5.453   1.188   6.152 -0.1254  0.3575  0.4436
  122OSM    O1212831   5.452   1.274   6.380  0.2036 -0.0718 -0.1693
  122OSM    C1S12832   5.499   1.305   6.100 -0.7239  0.2065 -1.2113
  122OSM    H1S12833   5.509   1.373   6.187  0.1075 -3.1678  1.5523
  122OSM    H1T12834   5.423   1.344   6.028 -2.1872  0.4737  0.4021
  122OSM     NF12835   5.684   1.440   5.994  0.3282 -0.6876  0.9940
  122OSM    HNF12836   5.669   1.462   5.898  2.8307  1.0560  0.8986
  122OSM    C2S12837   5.641   1.300   6.037  0.1520 -0.4895 -0.3185
  122OSM    H2S12838   5.716   1.272   6.114  0.2555  0.0580 -0.2117
  122OSM    C3S12839   5.641   1.187   5.933 -0.2420 -0.1206  0.3237
  122OSM    H3S12840   5.554   1.213   5.869 -0.6906  2.2381  1.7490
  122OSM     O312841   5.605   1.058   5.981 -0.3258  0.0937  0.0769
  122OSM    HO312842   5.540   1.089   6.044  0.2245 -0.3352  0.8592
  122OSM    C4S12843   5.771   1.185   5.852  0.3724  0.1088 -0.1792
  122OSM    H4S12844   5.754   1.232   5.754 -3.7657 -0.5029  0.0393
  122OSM    C5S12845   5.886   1.130   5.898  0.2587  0.2426  0.0539
  122OSM    H5S12846   5.883   1.096   6.003  0.2957 -0.0359 -0.0338
  122OSM    C6S12847   6.008   1.112   5.807  0.1002  0.0696 -0.7618
  122OSM    H6S12848   6.056   1.012   5.816  1.2064  0.5018 -1.6175
  122OSM    H6T12849   6.092   1.182   5.826  1.0890 -1.4143  0.6751
  122OSM    C7S12850   5.969   1.118   5.654 -0.3127  0.1679 -0.3289
  122OSM    H7S12851   5.943   1.218   5.612  0.3241  0.2969 -0.4258
  122OSM    H7T12852   5.888   1.046   5.631  0.2035 -0.8474  0.9125
  122OSM    C8S12853   6.090   1.070   5.569 -0.0563 -0.3510 -0.3789
  122OSM    H8S12854   6.118   0.968   5.600 -0.5706 -0.2929  0.3008
  122OSM    H8T12855   6.173   1.140   5.593 -0.5884  1.8399 -4.0472
  122OSM    C9S12856   6.058   1.071   5.426  0.5089 -0.5886 -0.1033
  122OSM    H9S12857   6.009   1.165   5.393 -1.4796 -1.0700  1.3337
  122OSM    H9T12858   5.985   0.988   5.414 -0.7101  0.3647  0.6539
  122OSM   C10S12859   6.179   1.046   5.336 -0.3462  0.2571  0.0730
  122OSM   H10S12860   6.213   0.941   5.343  0.3973  0.2012 -2.8599
  122OSM   H10T12861   6.265   1.110   5.366  1.0834 -1.4339 -0.2708
  122OSM   C11S12862   6.160   1.092   5.187  0.8036 -0.4707 -0.0819
  122OSM   H11S12863   6.254   1.079   5.131  0.1153 -2.1842 -0.8966
  122OSM   H11T12864   6.132   1.200   5.187  1.9581 -0.1096 -2.5042
  122OSM   C12S12865   6.049   1.024   5.105  0.4886  0.6735  0.0458
  122OSM   H12S12866   5.953   1.047   5.156 -0.6814  1.8003 -2.4686
  122OSM   H12T12867   6.059   0.914   5.113  0.5000  0.8020  2.5154
  122OSM   C13S12868   6.039   1.079   4.965 -0.3908  0.3521  0.1420
  122OSM   H13S12869   6.067   1.186   4.958  0.1381  0.2459  0.5682
  122OSM   H13T12870   5.935   1.090   4.929  0.2452  0.9443 -1.5969
  122OSM   C14S12871   6.130   0.996   4.861 -0.3181 -0.6061 -0.2044
  122OSM   H14S12872   6.096   0.891   4.866 -0.6639 -0.4343  1.4611
  122OSM   H14T12873   6.238   1.010   4.883 -0.4635  1.8646 -0.7674
  122OSM   C15S12874   6.106   1.050   4.717 -1.1151  0.0511 -0.3301
  122OSM   H15S12875   6.123   1.160   4.714  0.2285 -0.1187  0.2229
  122OSM   H15T12876   5.999   1.039   4.691 -0.3825  0.2451 -3.8247
  122OSM   C16S12877   6.199   0.986   4.616 -0.4440  0.2386 -0.2831
  122OSM   H16S12878   6.176   0.878   4.608  0.5834  0.0510 -0.9187
  122OSM   H16T12879   6.307   1.004   4.635 -0.3156  1.5439 -1.9818
  122OSM   C17S12880   6.170   1.045   4.476  0.0771 -0.3338  0.5719
  122OSM   H17S12881   6.220   1.143   4.462 -1.3172  0.3231  0.0594
  122OSM   H17T12882   6.061   1.065   4.467  0.6206  2.5406 -0.7398
  122OSM   C18S12883   6.223   0.957   4.363  0.0749  0.8435 -0.2257
  122OSM   H18S12884   6.193   0.992   4.262 -0.5527  0.2843 -0.2430
  122OSM   H18T12885   6.189   0.851   4.366  1.7314  0.3145  1.8433
  122OSM   H18U12886   6.333   0.939   4.367 -0.2743 -1.7615 -0.1151
  122OSM    C1F12887   5.711   1.540   6.077 -0.8030  0.2470  0.2787
  122OSM     OF12888   5.736   1.518   6.191 -0.3499  0.1053 -0.1113
  122OSM    C2F12889   5.695   1.678   6.025  0.0938 -0.0761  0.1066
  122OSM    H2F12890   5.600   1.719   6.066  0.0419 -1.4485  1.4492
  122OSM    H2G12891   5.701   1.671   5.915  1.3444 -0.3978  0.1799
  122OSM    C3F12892   5.791   1.798   6.071  0.8563  0.2763 -0.0007
  122OSM    H3F12893   5.899   1.772   6.074  0.5350 -1.4006 -1.0445
  122OSM    H3G12894   5.746   1.820   6.170  0.4009 -2.4986  0.5092
  122OSM    C4F12895   5.770   1.920   5.973  0.8493  0.3436 -0.2029
  122OSM    H4F12896   5.660   1.934   5.973  0.9474  1.2290 -1.2572
  122OSM    H4G12897   5.799   1.903   5.867  1.6343  1.1686 -0.1374
  122OSM    C5F12898   5.836   2.046   6.018  0.7178 -0.2478  0.0172
  122OSM    H5F12899   5.939   2.016   6.044  0.4423 -2.0896 -0.8056
  122OSM    H5G12900   5.783   2.080   6.109 -1.5612 -0.9316 -0.9744
  122OSM    C6F12901   5.827   2.164   5.918  0.4397 -0.0091 -0.4863
  122OSM    H6F12902   5.721   2.198   5.916  0.8532  1.2713 -2.2303
  122OSM    H6G12903   5.847   2.143   5.811 -0.3222  0.9105 -0.8187
  122OSM    C7F12904   5.904   2.281   5.965 -0.3193 -0.8604 -0.3530
  122OSM    H7F12905   6.013   2.258   5.958 -0.1933  0.2350 -3.7036
  122OSM    H7G12906   5.876   2.304   6.070  0.8768  0.7547 -0.3369
  122OSM    C8F12907   5.892   2.411   5.877 -0.6227 -0.4521  0.7303
  122OSM    H8F12908   5.958   2.489   5.922  0.4521 -1.7439  1.4745
  122OSM    H8G12909   5.785   2.439   5.886 -0.4375  0.2178  0.9160
  122OSM    C9F12910   5.924   2.409   5.729  0.4639  0.5113 -0.7344
  122OSM    H9F12911   6.024   2.450   5.708  0.3153  2.0658  1.2675
  122OSM   C10F12912   5.846   2.366   5.627 -0.0685 -0.3131 -0.1897
  122OSM   H10F12913   5.895   2.388   5.531  0.4255  2.7016  0.6308
  122OSM   C11F12914   5.703   2.311   5.626 -0.0302  0.3377  0.0506
  122OSM   H11F12915   5.658   2.317   5.728  0.0882  1.3371  0.0494
  122OSM   H11G12916   5.716   2.204   5.598 -0.4526  0.4390 -0.5525
  122OSM   C12F12917   5.610   2.381   5.526  0.1031  0.2699 -0.0406
  122OSM   H12F12918   5.617   2.491   5.537 -2.3900  0.4766  0.0706
  122OSM   H12G12919   5.507   2.360   5.561  0.0040 -1.2366 -1.1147
  122OSM   C13F12920   5.625   2.334   5.376  0.3255 -0.1439 -0.6315
  122OSM   H13F12921   5.622   2.223   5.384  2.7939 -0.1974  0.4027
  122OSM   H13G12922   5.726   2.363   5.340  1.0256 -2.1738 -0.4410
  122OSM   C14F12923   5.518   2.397   5.290  0.1324 -0.4407  0.3682
  122OSM   H14F12924   5.529   2.507   5.291  0.7189 -0.4663 -1.3142
  122OSM   H14G12925   5.418   2.386   5.339  0.6075 -3.0375  0.8996
  122OSM   C15F12926   5.523   2.349   5.146  1.2495 -0.3665 -0.5075
  122OSM   H15F12927   5.416   2.340   5.120  0.9191 -0.6767  0.8937
  122OSM   H15G12928   5.562   2.246   5.133 -1.2660 -1.2322 -1.8352
  122OSM   C16F12929   5.595   2.439   5.051 -1.0966 -0.1582  0.3920
  122OSM   H16F12930   5.702   2.426   5.077 -0.8865 -3.1648 -1.5354
  122OSM   H16G12931   5.567   2.544   5.073 -2.1235 -0.1529 -0.8066
  122OSM   C17F12932   5.587   2.404   4.905 -0.0086 -0.0404 -0.2068
  122OSM   H17F12933   5.673   2.454   4.855 -0.6371 -0.4772 -1.7943
  122OSM   H17G12934   5.502   2.452   4.852 -0.0802 -0.2451 -0.2784
  122OSM   C18F12935   5.591   2.261   4.870 -0.0839  0.3724  0.6468
  122OSM   H18F12936   5.594   2.256   4.759  0.5565 -1.0399  0.7029
  122OSM   H18G12937   5.497   2.211   4.899 -0.1800 -0.3670 -0.8461
  122OSM   H18H12938   5.682   2.205   4.903  0.9068  0.0608 -2.3330
  123OSM      N12939   4.538   0.258   2.134 -0.3410 -0.0674 -0.0183
  123OSM    C1512940   4.488   0.329   2.015 -0.4848  0.3890  0.6516
  123OSM   H15A12941   4.544   0.410   1.970 -0.5475 -0.6157 -1.3546
  123OSM   H15B12942   4.391   0.369   2.043 -0.3634  0.9995  0.2049
  123OSM   H15C12943   4.478   0.264   1.929 -0.5841  1.4912 -0.1890
  123OSM    C1412944   4.521   0.339   2.258  0.1528 -0.5196  0.7799
  123OSM   H14A12945   4.557   0.437   2.234  4.0658 -2.0003 -0.2198
  123OSM   H14B12946   4.572   0.299   2.344  0.7500 -0.5777  0.4046
  123OSM   H14C12947   4.414   0.341   2.275  0.1343 -2.3009  1.1002
  123OSM    C1312948   4.460   0.136   2.146 -0.4006  0.2974  0.4676
  123OSM   H13A12949   4.480   0.080   2.056  0.9932 -0.3515  1.1391
  123OSM   H13B12950   4.353   0.151   2.146 -0.8799 -2.3940 -1.5786
  123OSM   H13C12951   4.493   0.071   2.226  0.9886  1.2624  0.7046
  123OSM    C1212952   4.682   0.228   2.132  0.1203  0.4839 -0.2093
  123OSM   H12A12953   4.730   0.155   2.196 -0.6884  0.3298  0.2394
  123OSM   H12B12954   4.733   0.321   2.150 -0.6395  1.0082 -0.7197
  123OSM    C1112955   4.726   0.174   1.999 -0.2144 -0.2737  0.8544
  123OSM   H11A12956   4.837   0.170   1.995 -0.2375 -0.2086 -0.2886
  123OSM   H11B12957   4.703   0.238   1.912  0.1785 -0.4194  0.6386
  123OSM      P12958   4.736  -0.079   2.038  0.2654 -0.3180  0.1939
  123OSM    O1312959   4.640  -0.188   2.021  0.5921 -0.0594 -0.0513
  123OSM    O1412960   4.874  -0.103   1.993 -0.6425 -0.3668  0.0061
  123OSM    O1112961   4.726  -0.044   2.200 -0.5306 -0.2930  0.4700
  123OSM    O1212962   4.676   0.047   1.959  0.1173 -0.2402 -0.7288
  123OSM    C1S12963   4.806  -0.137   2.267 -0.3482  0.7967 -0.7128
  123OSM    H1S12964   4.912  -0.104   2.272  0.9198 -2.8873 -0.6154
  123OSM    H1T12965   4.808  -0.242   2.231  0.9058 -0.0046  1.4779
  123OSM     NF12966   4.893  -0.210   2.489  0.5578 -0.4973  0.0868
  123OSM    HNF12967   4.889  -0.310   2.488  1.8737 -0.5922  1.0126
  123OSM    C2S12968   4.783  -0.143   2.424  0.3854  0.4410  0.0212
  123OSM    H2S12969   4.779  -0.039   2.462 -2.0410  0.0262  1.1023
  123OSM    C3S12970   4.648  -0.204   2.454  0.4761  0.3850  0.6812
  123OSM    H3S12971   4.658  -0.314   2.452  0.7721  0.4196 -0.6671
  123OSM     O312972   4.547  -0.172   2.354  0.3730  0.3162  0.2172
  123OSM    HO312973   4.610  -0.146   2.285  3.7796 -2.2915  2.0196
  123OSM    C4S12974   4.602  -0.157   2.593  0.1955  0.1466 -1.0054
  123OSM    H4S12975   4.631  -0.218   2.681 -0.0318  1.2473 -0.1507
  123OSM    C5S12976   4.538  -0.039   2.615 -0.1355 -0.7259 -0.1338
  123OSM    H5S12977   4.516   0.030   2.532  0.1561 -0.1498  0.2569
  123OSM    C6S12978   4.504   0.014   2.754  0.3557 -0.5828 -0.1918
  123OSM    H6S12979   4.421   0.087   2.746  0.7368 -0.2797 -1.8354
  123OSM    H6T12980   4.586   0.083   2.785 -1.8741  0.6817  3.4579
  123OSM    C7S12981   4.481  -0.087   2.860 -0.3446 -0.4123  0.5146
  123OSM    H7S12982   4.582  -0.127   2.885 -0.2239 -0.4240  0.0219
  123OSM    H7T12983   4.410  -0.164   2.825  1.3952 -1.4856 -0.8340
  123OSM    C8S12984   4.422  -0.027   2.992  0.0112 -0.5606  0.6271
  123OSM    H8S12985   4.333   0.035   2.968  1.7854  1.3169 -1.6578
  123OSM    H8T12986   4.498   0.043   3.034  0.1356 -0.1781 -0.2117
  123OSM    C9S12987   4.375  -0.125   3.094 -0.0252  0.0584 -0.2016
  123OSM    H9S12988   4.472  -0.178   3.111  0.5017  1.0957  0.1115
  123OSM    H9T12989   4.296  -0.193   3.057  2.1893 -4.3546  2.2948
  123OSM   C10S12990   4.338  -0.053   3.223  0.1417  0.1813  0.1942
  123OSM   H10S12991   4.254   0.018   3.203  0.4604  0.7787  0.9192
  123OSM   H10T12992   4.417   0.012   3.267  0.5189  0.3925 -0.7528
  123OSM   C11S12993   4.299  -0.153   3.328  0.2050 -0.1356  0.1976
  123OSM   H11S12994   4.383  -0.207   3.377  1.8334 -0.5079 -2.7676
  123OSM   H11T12995   4.239  -0.237   3.285 -0.2305 -0.5167  1.5188
  123OSM   C12S12996   4.212  -0.097   3.443 -0.1029  0.1333  0.3043
  123OSM   H12S12997   4.133  -0.037   3.392 -0.5676  1.4340  2.3961
  123OSM   H12T12998   4.272  -0.023   3.501 -1.1793  0.0790  1.5506
  123OSM   C13S12999   4.160  -0.209   3.536  0.6534 -0.1970  0.9694
  123OSM   H13S13000   4.244  -0.277   3.560  0.2564 -1.0435  0.0499
  123OSM   H13T13001   4.082  -0.269   3.485  0.6163  1.6025 -1.2459
  123OSM   C14S13002   4.107  -0.153   3.673 -0.2673  0.4108 -0.0500
  123OSM   H14S13003   4.179  -0.074   3.706  0.5546  0.1143 -1.0922
  123OSM   H14T13004   4.115  -0.230   3.752  0.5272  0.8696  0.3366
  123OSM   C15S13005   3.959  -0.128   3.667 -0.0659 -1.0566 -0.5105
  123OSM   H15S13006   3.919  -0.228   3.640 -0.3778 -0.7257 -1.3469
  123OSM   H15T13007   3.937  -0.059   3.582 -2.3725 -0.2430  0.6657
  123OSM   C16S13008   3.898  -0.083   3.800  0.1516 -0.0813  0.0686
  123OSM   H16S13009   3.938   0.009   3.847 -2.0184  0.6173  0.6501
  123OSM   H16T13010   3.917  -0.168   3.870  2.4098  0.5031  0.2377
  123OSM   C17S13011   3.743  -0.069   3.781 -0.2408  0.2795  0.0775
  123OSM   H17S13012   3.699  -0.171   3.777  2.3341 -0.8984 -1.3084
  123OSM   H17T13013   3.730  -0.017   3.684  0.4854  2.1977  0.9748
  123OSM   C18S13014   3.674   0.021   3.892 -0.5504  0.3335 -0.1504
  123OSM   H18S13015   3.566   0.022   3.869 -0.8343 -0.7023  1.0125
  123OSM   H18T13016   3.722   0.120   3.906  2.4828 -1.3008  2.7410
  123OSM   H18U13017   3.689  -0.016   3.996  1.6486  1.6932  0.0821
  123OSM    C1F13018   5.014  -0.160   2.508  0.6228 -0.1919  0.0113
  123OSM     OF13019   5.043  -0.039   2.512 -0.6830  0.3167 -0.4663
  123OSM    C2F13020   5.123  -0.259   2.525  0.2689 -0.8068 -0.5320
  123OSM    H2F13021   5.208  -0.227   2.461  0.8683  0.5366  0.8688
  123OSM    H2G13022   5.093  -0.361   2.493  0.0508  0.0341 -3.2538
  123OSM    C3F13023   5.159  -0.265   2.672 -0.6850 -0.1677  0.4344
  123OSM    H3F13024   5.175  -0.161   2.708 -1.8076  0.8316 -1.7691
  123OSM    H3G13025   5.258  -0.315   2.681 -0.1100  0.8332 -0.2211
  123OSM    C4F13026   5.047  -0.332   2.759 -0.2399  0.0727  0.2670
  123OSM    H4F13027   5.010  -0.429   2.720  0.8622 -0.0354 -0.5539
  123OSM    H4G13028   4.961  -0.262   2.765 -0.2483 -0.0383  2.0278
  123OSM    C5F13029   5.109  -0.357   2.904  0.4121 -0.1626 -0.3797
  123OSM    H5F13030   5.130  -0.257   2.948  1.7759 -1.3156  1.7759
  123OSM    H5G13031   5.208  -0.398   2.878  0.1434 -2.2207  1.4966
  123OSM    C6F13032   5.038  -0.453   2.998 -0.0036  0.0329  0.4565
  123OSM    H6F13033   4.934  -0.419   3.015  0.2752  0.3293  1.6468
  123OSM    H6G13034   5.090  -0.442   3.096 -1.1009  1.3284  0.9075
  123OSM    C7F13035   5.035  -0.598   2.953 -0.0042 -1.0625 -0.2171
  123OSM    H7F13036   5.131  -0.629   2.906  0.3657  0.5393 -0.5829
  123OSM    H7G13037   4.962  -0.615   2.872  0.0996 -1.3897 -0.2431
  123OSM    C8F13038   5.010  -0.686   3.067 -0.0458 -0.5236  0.0404
  123OSM    H8F13039   5.092  -0.670   3.140  0.1641 -1.0740 -0.0706
  123OSM    H8G13040   5.030  -0.788   3.026 -3.0875 -1.7606  1.3461
  123OSM    C9F13041   4.875  -0.695   3.131 -0.9583 -0.2720 -0.8377
  123OSM    H9F13042   4.801  -0.719   3.053 -1.1343 -0.9694 -0.4626
  123OSM   C10F13043   4.842  -0.682   3.258  0.2013  0.7340 -0.2442
  123OSM   H10F13044   4.734  -0.700   3.276  0.4172  0.8325  1.3148
  123OSM   C11F13045   4.918  -0.665   3.385 -0.0487  0.0223 -0.3818
  123OSM   H11F13046   5.005  -0.598   3.372  2.0607 -2.0050  2.1536
  123OSM   H11G13047   4.958  -0.764   3.415 -0.5920  0.2833  1.2981
  123OSM   C12F13048   4.836  -0.611   3.505  0.3566 -0.2356 -0.5806
  123OSM   H12F13049   4.756  -0.683   3.534  1.0862 -0.0806  2.1593
  123OSM   H12G13050   4.784  -0.515   3.487  0.9865  0.6075  1.6792
  123OSM   C13F13051   4.919  -0.609   3.638  0.2579  0.4398  0.4453
  123OSM   H13F13052   4.987  -0.522   3.621 -0.0219  0.8000  1.1554
  123OSM   H13G13053   4.972  -0.705   3.652 -2.1718 -0.9982  0.1812
  123OSM   C14F13054   4.831  -0.587   3.758 -0.6526 -0.2730 -0.4563
  123OSM   H14F13055   4.783  -0.678   3.800  0.1114 -0.7105 -0.5104
  123OSM   H14G13056   4.751  -0.515   3.731 -2.2400 -1.4468  0.9338
  123OSM   C15F13057   4.909  -0.523   3.871 -0.2904  0.0738  0.0629
  123OSM   H15F13058   4.977  -0.442   3.835 -2.4047  0.4993 -3.4766
  123OSM   H15G13059   4.961  -0.597   3.935 -1.2819  1.4403  2.5864
  123OSM   C16F13060   4.817  -0.459   3.972 -0.0095  0.5994 -0.3936
  123OSM   H16F13061   4.766  -0.368   3.933  1.8796  1.5797 -0.7114
  123OSM   H16G13062   4.876  -0.426   4.061 -1.6375  0.7237  0.6876
  123OSM   C17F13063   4.719  -0.557   4.033  1.3174  0.0841  0.4586
  123OSM   H17F13064   4.757  -0.656   4.066 -1.3432 -0.5817  1.8105
  123OSM   H17G13065   4.640  -0.571   3.956  0.7726 -0.7504  1.1529
  123OSM   C18F13066   4.641  -0.493   4.143 -0.0256 -0.0336  0.1948
  123OSM   H18F13067   4.562  -0.569   4.165 -2.4119  0.9680 -3.9547
  123OSM   H18G13068   4.596  -0.401   4.099 -0.0552  0.2880  0.8839
  123OSM   H18H13069   4.708  -0.468   4.228  1.6071  0.1026 -1.0867
  124OSM      N13070   5.337   0.209   1.845 -0.3174 -0.4195  0.3929
  124OSM    C1513071   5.462   0.183   1.916 -0.8911  0.8593 -0.4642
  124OSM   H15A13072   5.461   0.105   1.991 -0.7002  0.2955 -1.0341
  124OSM   H15B13073   5.479   0.270   1.977  0.7882  1.1625 -1.3103
  124OSM   H15C13074   5.545   0.162   1.851  0.3428  2.3955  0.5479
  124OSM    C1413075   5.351   0.335   1.769 -0.3803 -0.7001  0.2297
  124OSM   H14A13076   5.429   0.336   1.694  1.3399 -1.3636  1.9373
  124OSM   H14B13077   5.379   0.406   1.845 -1.6075 -0.6013  0.6082
  124OSM   H14C13078   5.256   0.371   1.734  0.1139  1.8352  1.2127
  124OSM    C1313079   5.309   0.104   1.746  0.8405 -0.3735 -0.1341
  124OSM   H13A13080   5.287   0.013   1.802  0.7057 -0.8387 -0.9289
  124OSM   H13B13081   5.386   0.084   1.673  0.0578  0.7082 -1.2901
  124OSM   H13C13082   5.220   0.121   1.687  1.2454  0.4532 -0.5225
  124OSM    C1213083   5.218   0.226   1.938 -0.4954 -0.0552 -0.5192
  124OSM   H12A13084   5.199   0.135   1.993  0.2322  0.2520  0.2657
  124OSM   H12B13085   5.138   0.241   1.867  0.9204  1.0977 -1.9559
  124OSM    C1113086   5.218   0.338   2.052 -0.4824 -0.0060 -0.0601
  124OSM   H11A13087   5.300   0.321   2.126 -0.8193  3.5390  1.3274
  124OSM   H11B13088   5.122   0.312   2.102  1.0848 -0.9406  2.7568
  124OSM      P13089   5.151   0.600   2.058  0.4686 -0.2762  0.1711
  124OSM    O1313090   5.216   0.716   1.996 -0.5455 -0.3403 -0.2223
  124OSM    O1413091   5.006   0.579   2.037 -0.1883 -0.0551  0.0582
  124OSM    O1113092   5.189   0.605   2.215  0.1045 -0.8151  0.3053
  124OSM    O1213093   5.218   0.471   1.993  0.2778 -0.2436 -0.2785
  124OSM    C1S13094   5.124   0.519   2.312 -0.0541 -1.0241 -0.3162
  124OSM    H1S13095   5.201   0.445   2.343 -0.9588 -1.3756  1.2536
  124OSM    H1T13096   5.044   0.458   2.265 -0.0560 -0.2167 -1.4061
  124OSM     NF13097   5.042   0.506   2.549 -0.4710  0.0482 -0.5875
  124OSM    HNF13098   4.946   0.516   2.572  0.2260  1.8382  2.0192
  124OSM    C2S13099   5.096   0.590   2.447 -0.2406 -0.7438  0.1112
  124OSM    H2S13100   5.191   0.632   2.486 -1.4844  1.9693  0.4552
  124OSM    C3S13101   5.003   0.715   2.435 -0.3012 -0.3755  1.0505
  124OSM    H3S13102   4.904   0.677   2.401  0.5353 -1.6829 -0.0052
  124OSM     O313103   5.027   0.796   2.317  0.0408 -0.0115 -0.1512
  124OSM    HO313104   5.083   0.742   2.260  0.6570  1.2292 -0.7478
  124OSM    C4S13105   4.989   0.792   2.559  0.4783 -0.2484  0.0992
  124OSM    H4S13106   4.909   0.759   2.626 -0.7820  1.9629 -0.2037
  124OSM    C5S13107   5.051   0.904   2.594  0.1506 -0.0208  0.1335
  124OSM    H5S13108   5.108   0.952   2.513  1.9437 -4.4417 -1.4997
  124OSM    C6S13109   5.027   0.984   2.717 -0.3666 -0.1858 -0.3017
  124OSM    H6S13110   4.965   1.067   2.678  0.5700  0.1695 -1.0605
  124OSM    H6T13111   5.126   1.015   2.757 -0.8083 -1.5870  2.0897
  124OSM    C7S13112   4.944   0.913   2.828  0.1514  0.3387  0.1920
  124OSM    H7S13113   4.996   0.825   2.872  0.7509  1.7449  2.4398
  124OSM    H7T13114   4.843   0.882   2.795  1.1805 -2.6258 -0.5122
  124OSM    C8S13115   4.936   1.011   2.942 -0.3524 -0.1175 -0.0260
  124OSM    H8S13116   4.881   1.098   2.899  0.3535  0.1615 -0.3964
  124OSM    H8T13117   5.035   1.048   2.976 -1.5121  0.8468  2.5580
  124OSM    C9S13118   4.864   0.942   3.061 -0.0546 -1.1171 -0.1257
  124OSM    H9S13119   4.928   0.853   3.079  3.6502  1.1304 -0.9889
  124OSM    H9T13120   4.757   0.919   3.040 -0.6217  0.1373  1.1878
  124OSM   C10S13121   4.859   1.033   3.181 -0.0426 -0.1816  0.2184
  124OSM   H10S13122   4.832   1.131   3.136 -0.1376 -1.7234 -3.4140
  124OSM   H10T13123   4.960   1.054   3.222 -0.1348 -2.0373  1.5313
  124OSM   C11S13124   4.780   0.987   3.305 -0.0260  0.2621  0.0317
  124OSM   H11S13125   4.675   0.960   3.281 -0.1036 -1.5692  2.1245
  124OSM   H11T13126   4.778   1.075   3.373 -0.9931  2.8110 -3.0494
  124OSM   C12S13127   4.850   0.861   3.375  0.0884 -0.0884 -0.0270
  124OSM   H12S13128   4.962   0.863   3.374  0.2430 -1.4395  3.0874
  124OSM   H12T13129   4.825   0.766   3.324 -4.5078 -1.0962  3.5135
  124OSM   C13S13130   4.805   0.854   3.521 -0.7987  0.2712 -0.1102
  124OSM   H13S13131   4.701   0.891   3.529 -0.8029  0.3507 -0.5222
  124OSM   H13T13132   4.869   0.925   3.578 -2.3057 -0.5255  2.7499
  124OSM   C14S13133   4.821   0.717   3.582  0.3167  0.1649 -0.0467
  124OSM   H14S13134   4.930   0.694   3.591 -0.0891 -1.1080  2.9584
  124OSM   H14T13135   4.752   0.635   3.551 -0.2162  0.3314  0.6720
  124OSM   C15S13136   4.785   0.725   3.736  0.2620 -0.4791  0.5584
  124OSM   H15S13137   4.851   0.796   3.789 -2.7887  1.9007  1.4339
  124OSM   H15T13138   4.794   0.623   3.780 -0.8524 -1.0604 -0.4853
  124OSM   C16S13139   4.645   0.775   3.776  0.2487 -1.1176 -0.6654
  124OSM   H16S13140   4.572   0.718   3.714 -0.9283 -0.7818  0.3609
  124OSM   H16T13141   4.626   0.876   3.732 -0.4305 -0.7801  0.3634
  124OSM   C17S13142   4.616   0.776   3.922  0.7573 -0.1388 -0.2859
  124OSM   H17S13143   4.634   0.675   3.966 -1.3829 -1.1256 -1.4910
  124OSM   H17T13144   4.506   0.778   3.933  0.7050 -0.1784 -0.7648
  124OSM   C18S13145   4.679   0.904   3.997 -0.2634  0.8363 -0.2355
  124OSM   H18S13146   4.774   0.880   4.051 -0.6421  1.2066  0.6119
  124OSM   H18T13147   4.605   0.933   4.075 -0.2601  1.9731 -0.6434
  124OSM   H18U13148   4.697   0.989   3.929  0.8708 -0.9534 -2.3220
  124OSM    C1F13149   5.116   0.412   2.602 -0.3414 -0.3478 -0.7243
  124OSM     OF13150   5.242   0.402   2.591 -0.0784 -0.6220  0.0836
  124OSM    C2F13151   5.042   0.308   2.688 -0.1122 -0.0952 -0.2552
  124OSM    H2F13152   4.989   0.236   2.623  0.1106 -0.0294 -0.5125
  124OSM    H2G13153   4.971   0.363   2.753 -1.1919  1.8013 -2.8445
  124OSM    C3F13154   5.142   0.223   2.770 -0.0224 -0.3854 -0.6062
  124OSM    H3F13155   5.206   0.291   2.829 -1.3487  0.0685  0.3803
  124OSM    H3G13156   5.204   0.175   2.692 -0.7367  0.7809 -1.9401
  124OSM    C4F13157   5.076   0.122   2.867  0.8168 -0.6432  0.3378
  124OSM    H4F13158   5.140   0.033   2.887  0.0649 -0.8664  1.8636
  124OSM    H4G13159   4.989   0.070   2.820  1.1752  0.1659 -1.2954
  124OSM    C5F13160   5.048   0.197   2.997  0.4038 -0.4190  0.0469
  124OSM    H5F13161   4.977   0.279   2.974 -1.6174 -2.6294 -2.3163
  124OSM    H5G13162   5.142   0.237   3.040 -0.2363  0.6010  0.5373
  124OSM    C6F13163   4.979   0.112   3.105  0.2719 -0.1933  0.0074
  124OSM    H6F13164   4.947   0.176   3.190 -0.1153 -1.7490  1.0802
  124OSM    H6G13165   5.049   0.051   3.167  0.6896  2.6176  2.5549
  124OSM    C7F13166   4.856   0.037   3.070 -0.0019  0.1237 -0.0875
  124OSM    H7F13167   4.884  -0.035   2.990  0.5630  0.0292  0.1908
  124OSM    H7G13168   4.799   0.112   3.011  0.5077 -0.0999 -0.8800
  124OSM    C8F13169   4.777  -0.037   3.185 -0.0382 -0.6809  0.0057
  124OSM    H8F13170   4.673  -0.025   3.150  0.3298  1.3671 -0.5133
  124OSM    H8G13171   4.778   0.029   3.274 -0.6681  0.6075 -0.9072
  124OSM    C9F13172   4.820  -0.178   3.201  0.0561  0.4158  0.0487
  124OSM    H9F13173   4.883  -0.231   3.128  0.5016  1.0211 -0.0092
  124OSM   C10F13174   4.805  -0.252   3.315 -1.5481 -0.7044 -0.6001
  124OSM   H10F13175   4.828  -0.359   3.326 -1.2914 -0.4627  1.7715
  124OSM   C11F13176   4.723  -0.210   3.432 -0.3106  0.1501 -0.0083
  124OSM   H11F13177   4.647  -0.289   3.446 -0.7999  0.5922 -0.1045
  124OSM   H11G13178   4.668  -0.114   3.416  1.2133  0.6095 -3.4503
  124OSM   C12F13179   4.798  -0.193   3.565 -0.5218  0.7319 -1.1321
  124OSM   H12F13180   4.871  -0.116   3.535 -0.5855  1.8748  1.3616
  124OSM   H12G13181   4.849  -0.289   3.589 -2.4291  0.0094  0.3475
  124OSM   C13F13182   4.709  -0.141   3.681 -0.1492  0.4454  0.1375
  124OSM   H13F13183   4.676  -0.040   3.648 -1.7337 -0.6991 -1.9855
  124OSM   H13G13184   4.754  -0.121   3.781  1.3997 -0.3977 -0.3612
  124OSM   C14F13185   4.589  -0.229   3.708  0.0204  0.6484  0.0004
  124OSM   H14F13186   4.622  -0.331   3.738 -0.7010  0.9176  1.8358
  124OSM   H14G13187   4.516  -0.248   3.627  1.5605  1.5188 -1.6851
  124OSM   C15F13188   4.504  -0.196   3.836  0.1420 -0.6897  0.2874
  124OSM   H15F13189   4.448  -0.103   3.810  1.4392 -0.2437 -1.0577
  124OSM   H15G13190   4.583  -0.177   3.912 -0.0594 -2.2647  0.9175
  124OSM   C16F13191   4.410  -0.304   3.872 -0.1889 -0.1957 -0.9700
  124OSM   H16F13192   4.465  -0.400   3.881  1.2332  0.7008  0.3015
  124OSM   H16G13193   4.326  -0.319   3.801 -1.6515  1.8416  0.2504
  124OSM   C17F13194   4.342  -0.277   4.008 -0.8496  0.1800  0.4449
  124OSM   H17F13195   4.305  -0.173   3.999  0.5980  0.5266 -3.2652
  124OSM   H17G13196   4.419  -0.279   4.087  0.0029 -0.5796 -0.3842
  124OSM   C18F13197   4.232  -0.375   4.047 -0.1364  0.4967 -0.0269
  124OSM   H18F13198   4.165  -0.384   3.959  1.1853  1.7512 -1.2286
  124OSM   H18G13199   4.162  -0.339   4.125 -1.3467 -0.7818 -0.4770
  124OSM   H18H13200   4.272  -0.476   4.071 -1.7950 -0.3088 -0.5281
  125OSM      N13201   0.711   4.794   2.305 -0.1622 -0.0851  0.3412
  125OSM    C1513202   0.787   4.741   2.423 -0.4385  0.1194  0.4669
  125OSM   H15A13203   0.861   4.810   2.459  0.0099  0.2043 -0.5853
  125OSM   H15B13204   0.850   4.658   2.396  0.8038  1.5532 -1.2299
  125OSM   H15C13205   0.721   4.703   2.500 -0.8044  0.5099  0.3549
  125OSM    C1413206   0.664   4.686   2.218  0.4667  0.0947  0.5356
  125OSM   H14A13207   0.626   4.605   2.280 -2.7077  1.3838  0.4939
  125OSM   H14B13208   0.742   4.643   2.158  0.0599 -0.4214  0.3618
  125OSM   H14C13209   0.588   4.733   2.158 -0.7913 -0.2370  1.8069
  125OSM    C1313210   0.595   4.860   2.362  0.3898  0.0813 -0.3020
  125OSM   H13A13211   0.523   4.897   2.290  0.0187 -3.3583 -1.8716
  125OSM   H13B13212   0.626   4.947   2.420  0.1541 -0.9842  1.4955
  125OSM   H13C13213   0.550   4.789   2.430 -1.1038  1.5820  0.3701
  125OSM    C1213214   0.800   4.884   2.222 -0.4994 -0.5141  0.0155
  125OSM   H12A13215   0.729   4.916   2.147 -1.3313 -2.3433 -0.0198
  125OSM   H12B13216   0.879   4.834   2.169 -0.0367 -1.7444  1.7794
  125OSM    C1113217   0.862   5.022   2.281  0.0986  0.0010  0.0065
  125OSM   H11A13218   0.911   5.081   2.200 -0.7229  4.4509  2.4256
  125OSM   H11B13219   0.946   4.987   2.345 -0.1079  0.8101  0.7307
  125OSM      P13220   0.793   5.234   2.418  0.0445 -0.2043 -0.2533
  125OSM    O1313221   0.928   5.225   2.478 -0.1425 -0.4376  0.6726
  125OSM    O1413222   0.757   5.345   2.326  0.2445 -0.6221 -0.6037
  125OSM    O1113223   0.687   5.227   2.538 -0.1714 -0.1152  0.3268
  125OSM    O1213224   0.765   5.099   2.345  0.2191  0.5188 -0.0746
  125OSM    C1S13225   0.689   5.119   2.634  0.4032  0.0582  0.0635
  125OSM    H1S13226   0.767   5.140   2.709 -1.6336 -1.7091  2.8744
  125OSM    H1T13227   0.705   5.018   2.592 -0.1527  0.1308 -0.3469
  125OSM     NF13228   0.568   5.032   2.846  0.0617  0.6482 -1.1066
  125OSM    HNF13229   0.525   4.942   2.848 -0.7028  1.0030  0.5084
  125OSM    C2S13230   0.556   5.117   2.728 -0.0248 -0.3729 -0.2741
  125OSM    H2S13231   0.551   5.222   2.764  1.3236  0.2680 -1.8505
  125OSM    C3S13232   0.426   5.094   2.644  0.4692  0.4548  0.2714
  125OSM    H3S13233   0.432   4.991   2.602  0.8270 -0.3434  2.1625
  125OSM     O313234   0.410   5.180   2.524 -0.5083  0.3268  0.4296
  125OSM    HO313235   0.482   5.244   2.533 -0.4675  0.4393 -0.5870
  125OSM    C4S13236   0.302   5.082   2.728 -0.1037  0.3662 -0.2505
  125OSM    H4S13237   0.275   4.975   2.730 -1.9016  0.7699 -0.5849
  125OSM    C5S13238   0.235   5.180   2.801 -0.4976  0.2916  0.6476
  125OSM    H5S13239   0.287   5.277   2.807 -0.9447  0.5619  0.2447
  125OSM    C6S13240   0.129   5.169   2.895 -0.2793 -0.8146  0.2285
  125OSM    H6S13241   0.073   5.074   2.880 -1.1382 -0.1335 -1.1187
  125OSM    H6T13242   0.071   5.263   2.897  1.6297  0.4117  1.0920
  125OSM    C7S13243   0.183   5.156   3.040  0.0619 -0.5582 -0.0993
  125OSM    H7S13244   0.245   5.247   3.058 -1.6760  0.5707  0.4215
  125OSM    H7T13245   0.247   5.065   3.033  0.7803  0.0450 -1.9565
  125OSM    C8S13246   0.075   5.148   3.149 -0.4808 -0.3736 -0.2104
  125OSM    H8S13247   0.021   5.052   3.149  1.0952 -1.3235  1.2322
  125OSM    H8T13248  -0.004   5.227   3.155  0.3348  0.4311  0.3389
  125OSM    C9S13249   0.145   5.150   3.287 -0.5994  0.3090  0.6594
  125OSM    H9S13250   0.203   5.244   3.297 -1.8425  1.0043  1.7336
  125OSM    H9T13251   0.217   5.067   3.301 -0.7820  0.1614  0.7345
  125OSM   C10S13252   0.049   5.154   3.403 -0.5839  0.1495 -0.1775
  125OSM   H10S13253  -0.025   5.073   3.385  0.4201 -1.5217  2.4979
  125OSM   H10T13254  -0.003   5.251   3.420 -1.3650 -0.4881  1.2314
  125OSM   C11S13255   0.127   5.118   3.531  0.0833 -0.5044 -0.7241
  125OSM   H11S13256   0.210   5.190   3.550 -1.2780  0.5657  1.6795
  125OSM   H11T13257   0.163   5.013   3.532  1.0815 -0.1782 -0.8890
  125OSM   C12S13258   0.030   5.116   3.649 -0.0520 -0.9625  0.2117
  125OSM   H12S13259  -0.048   5.037   3.639  0.1424 -1.1786  0.4076
  125OSM   H12T13260  -0.021   5.215   3.653  0.3352 -0.8048  2.3918
  125OSM   C13S13261   0.109   5.107   3.779 -0.3254 -0.6554 -0.1442
  125OSM   H13S13262   0.188   5.184   3.765 -1.7794  1.2124  1.3563
  125OSM   H13T13263   0.167   5.012   3.785 -1.2497 -1.2018  0.2772
  125OSM   C14S13264   0.016   5.140   3.898 -0.4408  0.4104 -0.3823
  125OSM   H14S13265  -0.051   5.227   3.882 -1.6856 -0.7129 -1.5564
  125OSM   H14T13266   0.070   5.146   3.995  0.4792 -0.5400 -0.8152
  125OSM   C15S13267  -0.082   5.026   3.935 -0.1031 -0.1256 -0.4011
  125OSM   H15S13268  -0.032   4.933   3.968 -0.9341 -0.7343 -0.8184
  125OSM   H15T13269  -0.144   4.999   3.847  0.8490 -2.1248 -0.5060
  125OSM   C16S13270  -0.179   5.076   4.046  0.3418 -0.2231 -0.1998
  125OSM   H16S13271  -0.231   4.985   4.082  0.6929 -0.4283 -0.2022
  125OSM   H16T13272  -0.250   5.156   4.015  0.5860  0.4361  0.8539
  125OSM   C17S13273  -0.115   5.123   4.175 -0.0915  0.1555  0.3034
  125OSM   H17S13274  -0.057   5.213   4.144 -0.1617 -0.2315 -1.0158
  125OSM   H17T13275  -0.038   5.050   4.208  0.5562 -0.1633 -1.7811
  125OSM   C18S13276  -0.217   5.146   4.288 -0.0044 -0.5234 -0.0570
  125OSM   H18S13277  -0.297   5.212   4.251  0.4311 -2.0560 -4.2673
  125OSM   H18T13278  -0.162   5.201   4.367 -0.2172 -0.2582 -0.0960
  125OSM   H18U13279  -0.258   5.052   4.332 -2.4092  0.9347  1.0025
  125OSM    C1F13280   0.661   5.064   2.944  0.9294 -0.3815  0.2753
  125OSM     OF13281   0.721   5.168   2.933  0.2986  0.2944  0.6197
  125OSM    C2F13282   0.671   4.965   3.061 -0.1762 -0.4432  0.4746
  125OSM    H2F13283   0.741   4.889   3.021 -0.7692 -1.0768  0.6303
  125OSM    H2G13284   0.572   4.917   3.075 -0.4682 -0.2175 -0.6808
  125OSM    C3F13285   0.722   5.046   3.180  0.4034 -0.2207 -1.0428
  125OSM    H3F13286   0.645   5.120   3.211  1.6798 -0.2415  2.6842
  125OSM    H3G13287   0.809   5.109   3.152  0.1235  0.6133 -0.1120
  125OSM    C4F13288   0.759   4.957   3.297 -0.1795  0.0244 -0.3735
  125OSM    H4F13289   0.807   5.030   3.366  0.6673 -1.3999  0.5961
  125OSM    H4G13290   0.827   4.874   3.268 -0.2212 -0.1585  0.0387
  125OSM    C5F13291   0.653   4.894   3.382 -0.3240 -0.7203  0.1687
  125OSM    H5F13292   0.692   4.813   3.448  1.3134  0.8300  1.1713
  125OSM    H5G13293   0.575   4.851   3.315 -1.3896  0.5486  0.5570
  125OSM    C6F13294   0.578   5.000   3.473  1.0464  0.2584 -0.1192
  125OSM    H6F13295   0.562   5.092   3.414  1.0653  0.0425 -0.4663
  125OSM    H6G13296   0.639   5.020   3.563  1.4173  0.5224 -0.4287
  125OSM    C7F13297   0.438   4.946   3.524  0.8086  0.1125  0.0873
  125OSM    H7F13298   0.389   4.918   3.428  0.6803  2.8951 -0.7668
  125OSM    H7G13299   0.385   5.033   3.569  0.4618 -0.3204  0.5149
  125OSM    C8F13300   0.428   4.821   3.614 -0.4342  0.1790  0.6997
  125OSM    H8F13301   0.455   4.739   3.544  3.5686  0.7054  1.3587
  125OSM    H8G13302   0.321   4.817   3.644 -0.2821  2.0905  1.6296
  125OSM    C9F13303   0.512   4.830   3.742  0.6485  0.4996 -0.2752
  125OSM    H9F13304   0.619   4.836   3.718  0.2848  1.5311 -1.7926
  125OSM   C10F13305   0.477   4.818   3.871  1.0638  0.4292  0.0060
  125OSM   H10F13306   0.545   4.844   3.954  0.7166  1.0040  0.1173
  125OSM   C11F13307   0.338   4.815   3.924  0.2596 -0.6434 -0.1334
  125OSM   H11F13308   0.324   4.723   3.985 -0.1616 -1.7081 -1.7814
  125OSM   H11G13309   0.262   4.807   3.844  0.3092  2.0011 -0.5260
  125OSM   C12F13310   0.315   4.940   4.008  0.4044  0.1225 -0.1790
  125OSM   H12F13311   0.208   4.949   4.036  0.4552  0.0452  0.0390
  125OSM   H12G13312   0.319   5.029   3.941  3.7205  0.7135  0.6213
  125OSM   C13F13313   0.393   4.947   4.137 -0.3071  0.8423  0.8372
  125OSM   H13F13314   0.492   4.988   4.107 -0.5107 -0.4476 -1.8915
  125OSM   H13G13315   0.424   4.848   4.175 -0.5003  0.0314 -1.0000
  125OSM   C14F13316   0.330   5.038   4.243 -0.2107 -0.2440  0.1138
  125OSM   H14F13317   0.376   5.008   4.340 -3.0579  0.7790  1.9119
  125OSM   H14G13318   0.224   5.012   4.259  0.0701 -1.0736  0.6846
  125OSM   C15F13319   0.333   5.185   4.213  0.3256  0.2300  0.4279
  125OSM   H15F13320   0.275   5.200   4.120  1.9943 -3.5933 -1.4701
  125OSM   H15G13321   0.433   5.228   4.189  1.7692 -2.9009  0.1838
  125OSM   C16F13322   0.265   5.258   4.324 -0.2686  0.0778  0.0132
  125OSM   H16F13323   0.160   5.222   4.330 -0.0558 -0.6819 -0.7272
  125OSM   H16G13324   0.257   5.367   4.302 -1.0595  0.3114  1.2878
  125OSM   C17F13325   0.334   5.253   4.460  0.2189  1.0285 -0.0837
  125OSM   H17F13326   0.439   5.288   4.453  0.7641 -0.5073  0.0382
  125OSM   H17G13327   0.350   5.152   4.504  2.1716  1.2924 -0.0698
  125OSM   C18F13328   0.256   5.334   4.566  0.5801 -0.3135 -0.1932
  125OSM   H18F13329   0.292   5.321   4.670 -1.8131 -0.6097  0.6683
  125OSM   H18G13330   0.151   5.299   4.578  0.8847 -1.0475  0.4007
  125OSM   H18H13331   0.269   5.444   4.560 -1.4954 -0.0780 -0.9587
  126OSM      N13332   6.048   3.945   1.926 -0.4647 -0.4879 -0.2002
  126OSM    C1513333   6.197   3.946   1.941  0.6105  0.3102 -0.3941
  126OSM   H15A13334   6.250   3.955   1.848 -0.0735  0.7359 -0.7454
  126OSM   H15B13335   6.224   3.859   2.001  0.5451  0.6978  0.2075
  126OSM   H15C13336   6.227   4.023   2.010  0.5798 -0.7822  0.8998
  126OSM    C1413337   6.010   4.070   1.849  1.1047  0.7805 -0.4034
  126OSM   H14A13338   6.031   4.156   1.911 -0.5118 -0.5690  2.1805
  126OSM   H14B13339   5.909   4.075   1.811  1.6520  2.4134 -1.7756
  126OSM   H14C13340   6.081   4.079   1.768  1.1664 -1.2418 -0.6241
  126OSM    C1313341   6.015   3.826   1.840 -0.3612  0.2066 -0.6415
  126OSM   H13A13342   6.031   3.736   1.897  1.1456 -0.1907 -1.6479
  126OSM   H13B13343   6.066   3.815   1.746  1.3087  0.1501  0.2471
  126OSM   H13C13344   5.910   3.823   1.814  0.4512 -2.1392 -4.5303
  126OSM    C1213345   5.981   3.926   2.057  0.1866  0.1401  0.5686
  126OSM   H12A13346   6.002   3.825   2.089 -2.7857 -0.3675  1.2537
  126OSM   H12B13347   5.877   3.948   2.037 -0.2369 -0.2778  2.1407
  126OSM    C1113348   6.002   4.013   2.179  0.5732  0.0074  0.2554
  126OSM   H11A13349   6.110   4.015   2.202  0.4225  0.7936  0.9466
  126OSM   H11B13350   5.947   3.954   2.256 -0.7010 -0.4618 -0.9714
  126OSM      P13351   5.809   4.189   2.169  0.2176  0.0690  0.2353
  126OSM    O1313352   5.801   4.335   2.140  0.1260  1.0044 -0.2285
  126OSM    O1413353   5.730   4.102   2.079  0.2538  0.0422 -0.2416
  126OSM    O1113354   5.769   4.149   2.313  0.3489 -0.0106 -0.3976
  126OSM    O1213355   5.959   4.146   2.164 -0.3588 -0.1541 -0.1708
  126OSM    C1S13356   5.827   4.225   2.420  0.4499 -0.2606  0.1881
  126OSM    H1S13357   5.774   4.322   2.429  0.8328  0.1057 -1.2590
  126OSM    H1T13358   5.935   4.239   2.400 -0.2231  0.9334 -3.2613
  126OSM     NF13359   5.900   4.222   2.660 -0.2690 -0.1348 -0.3900
  126OSM    HNF13360   5.990   4.190   2.690 -0.8652  0.0452  1.7671
  126OSM    C2S13361   5.826   4.147   2.559 -0.2771 -0.4184  0.4532
  126OSM    H2S13362   5.722   4.154   2.599 -0.4525  3.5954 -0.2801
  126OSM    C3S13363   5.868   3.993   2.543 -0.2810  0.1124  0.2627
  126OSM    H3S13364   5.969   3.995   2.497 -0.3991  0.3236  0.0101
  126OSM     O313365   5.787   3.920   2.455  0.6286  0.5212  0.8103
  126OSM    HO313366   5.744   3.982   2.396 -1.3341 -1.3796  0.1144
  126OSM    C4S13367   5.872   3.919   2.672  0.0711  0.0802  0.1764
  126OSM    H4S13368   5.969   3.922   2.723 -1.0836  0.6275  2.4364
  126OSM    C5S13369   5.768   3.868   2.746  0.2041  0.3189 -0.2474
  126OSM    H5S13370   5.668   3.882   2.702  0.1425  1.0918  0.1238
  126OSM    C6S13371   5.772   3.820   2.885 -0.1023 -0.0061  0.0340
  126OSM    H6S13372   5.751   3.711   2.886  0.2237 -0.0818  1.5844
  126OSM    H6T13373   5.687   3.867   2.940 -0.6649 -2.1898  1.1314
  126OSM    C7S13374   5.900   3.842   2.969 -0.0876 -0.3178 -0.6331
  126OSM    H7S13375   5.918   3.951   2.952  2.2806 -0.0334  2.8019
  126OSM    H7T13376   5.987   3.790   2.924  0.8062 -1.7784  2.5435
  126OSM    C8S13377   5.876   3.805   3.112 -1.0126 -0.0501 -0.4947
  126OSM    H8S13378   5.778   3.843   3.147 -1.5427  0.1536 -2.1113
  126OSM    H8T13379   5.958   3.861   3.162 -0.0055 -0.7186 -1.3562
  126OSM    C9S13380   5.897   3.656   3.147 -0.2538 -0.0164 -0.4313
  126OSM    H9S13381   5.994   3.606   3.125 -0.7703 -1.6087  0.7102
  126OSM    H9T13382   5.820   3.596   3.095  0.5133 -0.5388 -0.9931
  126OSM   C10S13383   5.875   3.636   3.301 -0.3759  0.2722 -0.4335
  126OSM   H10S13384   5.777   3.680   3.331 -0.2397 -0.0374  0.4679
  126OSM   H10T13385   5.950   3.698   3.354  0.3647 -0.8354 -0.1607
  126OSM   C11S13386   5.892   3.491   3.330  1.5352  0.6181 -0.5737
  126OSM   H11S13387   5.995   3.452   3.313  1.3618  0.6126 -1.6891
  126OSM   H11T13388   5.824   3.451   3.252  1.1014  2.0898 -0.9864
  126OSM   C12S13389   5.831   3.438   3.468  0.4832 -0.3322 -0.0343
  126OSM   H12S13390   5.822   3.328   3.457 -0.8238 -0.1174 -1.6338
  126OSM   H12T13391   5.733   3.490   3.481  1.0209  0.2587  1.9894
  126OSM   C13S13392   5.930   3.461   3.579 -0.4587  0.0728 -0.4373
  126OSM   H13S13393   5.920   3.567   3.614  1.8777  0.7014 -1.5277
  126OSM   H13T13394   6.034   3.451   3.542 -1.0192 -0.9387 -1.8166
  126OSM   C14S13395   5.900   3.362   3.699 -0.3833 -0.0292  0.2733
  126OSM   H14S13396   5.915   3.260   3.657  0.1150 -0.7355  2.0584
  126OSM   H14T13397   5.793   3.386   3.718 -0.7415 -0.7291 -0.8082
  126OSM   C15S13398   5.980   3.390   3.833 -0.6084 -0.4153  0.7344
  126OSM   H15S13399   5.940   3.315   3.905 -2.0540 -1.0332 -0.6352
  126OSM   H15T13400   5.942   3.487   3.871  0.1754  0.1778  0.0096
  126OSM   C16S13401   6.134   3.383   3.823  0.0265 -0.2311  0.1522
  126OSM   H16S13402   6.167   3.432   3.729  0.4863  0.0570  0.4578
  126OSM   H16T13403   6.168   3.277   3.816 -2.0124 -1.1172  2.4693
  126OSM   C17S13404   6.205   3.456   3.940  0.2619 -0.1134  0.3852
  126OSM   H17S13405   6.170   3.395   4.026 -1.4289 -3.1887 -2.2644
  126OSM   H17T13406   6.164   3.559   3.949 -1.8316 -0.7409 -1.0746
  126OSM   C18S13407   6.353   3.456   3.923  0.7753 -0.0580  0.4848
  126OSM   H18S13408   6.395   3.506   4.013  1.3351  3.2388 -1.4214
  126OSM   H18T13409   6.378   3.516   3.833  1.5096 -0.2418  0.5542
  126OSM   H18U13410   6.403   3.356   3.920  0.9172  0.0096  0.5605
  126OSM    C1F13411   5.869   4.350   2.692  0.2886  0.0872  0.2955
  126OSM     OF13412   5.772   4.397   2.648  0.0900  0.2215 -0.3555
  126OSM    C2F13413   5.970   4.425   2.772 -0.5762 -0.4273  0.2523
  126OSM    H2F13414   5.959   4.534   2.758  1.5467  0.1048  2.1316
  126OSM    H2G13415   6.071   4.409   2.728 -0.6114  0.0381  0.0017
  126OSM    C3F13416   5.971   4.385   2.923  0.5128 -0.0786 -0.2625
  126OSM    H3F13417   5.873   4.401   2.973 -0.9325 -2.0774 -2.2680
  126OSM    H3G13418   6.051   4.440   2.977  0.6439 -1.4707  1.0239
  126OSM    C4F13419   6.022   4.243   2.933 -0.4980  0.0861 -0.5570
  126OSM    H4F13420   6.100   4.222   2.857 -0.0239  0.8785 -0.3031
  126OSM    H4G13421   5.935   4.175   2.917 -2.7330  2.4438  0.6580
  126OSM    C5F13422   6.076   4.219   3.072 -0.2131 -0.1262  0.1986
  126OSM    H5F13423   6.152   4.296   3.095 -0.0930  0.2209 -1.2417
  126OSM    H5G13424   6.137   4.126   3.063 -0.8724 -0.5118 -0.5054
  126OSM    C6F13425   5.973   4.215   3.181  0.0878 -0.4410 -0.1364
  126OSM    H6F13426   5.967   4.109   3.216  1.1375 -0.0719  1.2557
  126OSM    H6G13427   5.874   4.239   3.135 -0.3916  0.2453  1.1977
  126OSM    C7F13428   5.995   4.299   3.308  0.5862 -0.2660  1.1211
  126OSM    H7F13429   6.046   4.391   3.272  1.6080 -1.4831 -0.7151
  126OSM    H7G13430   6.068   4.250   3.376  2.7719 -0.9124 -1.4985
  126OSM    C8F13431   5.855   4.325   3.372 -1.1081  0.6162  0.4116
  126OSM    H8F13432   5.835   4.241   3.441  2.8136 -2.2683 -1.5522
  126OSM    H8G13433   5.770   4.324   3.300 -0.3445  1.9774 -0.5653
  126OSM    C9F13434   5.838   4.437   3.474 -0.4794  0.4587  0.0367
  126OSM    H9F13435   5.750   4.499   3.450 -0.9772 -0.0661  0.4743
  126OSM   C10F13436   5.910   4.468   3.590  0.4588  0.1958  0.0589
  126OSM   H10F13437   5.884   4.557   3.650 -1.5139 -0.6025  0.4611
  126OSM   C11F13438   6.031   4.392   3.639 -0.5874  0.1773  0.0120
  126OSM   H11F13439   6.118   4.445   3.593 -1.1900 -0.4702 -1.9646
  126OSM   H11G13440   6.049   4.292   3.595  1.3282  0.4633  0.0319
  126OSM   C12F13441   6.044   4.392   3.789  0.2796  0.0322  0.1060
  126OSM   H12F13442   5.952   4.344   3.831  0.2680  0.2956  0.3844
  126OSM   H12G13443   6.056   4.497   3.823 -1.2548  0.8968 -1.7838
  126OSM   C13F13444   6.173   4.316   3.843 -0.3128 -0.3187  0.4109
  126OSM   H13F13445   6.268   4.365   3.811  0.8185 -0.6238  3.0248
  126OSM   H13G13446   6.158   4.218   3.794 -1.3884  0.1795 -0.2966
  126OSM   C14F13447   6.166   4.305   3.996 -0.1414  0.3765  0.3000
  126OSM   H14F13448   6.221   4.211   4.021  2.2257  1.8530  1.0061
  126OSM   H14G13449   6.058   4.286   4.014 -0.2888  0.6567 -0.2709
  126OSM   C15F13450   6.214   4.422   4.078  0.4803 -0.5990 -0.0464
  126OSM   H15F13451   6.151   4.508   4.046 -0.7066  0.2612  4.0474
  126OSM   H15G13452   6.320   4.443   4.052  0.4990 -2.1846 -1.4632
  126OSM   C16F13453   6.195   4.380   4.228  0.1208  0.5883  0.1297
  126OSM   H16F13454   6.239   4.278   4.235  0.3596  0.7627  1.2683
  126OSM   H16G13455   6.086   4.369   4.245  0.1940  0.4941  0.5383
  126OSM   C17F13456   6.256   4.481   4.325  0.4331  0.0751  0.1563
  126OSM   H17F13457   6.360   4.512   4.298  0.7983 -1.4415 -0.2574
  126OSM   H17G13458   6.268   4.439   4.427 -0.9262 -0.3110  0.1675
  126OSM   C18F13459   6.183   4.619   4.325  0.7231  0.1447 -0.4098
  126OSM   H18F13460   6.238   4.687   4.394  2.0624 -0.3868 -0.9230
  126OSM   H18G13461   6.082   4.607   4.368 -0.3795  4.9561 -1.0840
  126OSM   H18H13462   6.186   4.654   4.220  2.3067  2.4204  0.3225
  127OSM      N13463   4.930   6.429   1.911 -0.1443  0.5942  0.1302
  127OSM    C1513464   4.946   6.534   1.807 -0.7092  0.0038 -0.8709
  127OSM   H15A13465   5.045   6.531   1.763 -0.3072 -2.8755 -0.0088
  127OSM   H15B13466   4.930   6.630   1.854 -0.4968  0.1346 -1.0628
  127OSM   H15C13467   4.867   6.529   1.734 -0.6212 -0.1694 -0.9561
  127OSM    C1413468   4.782   6.418   1.937 -1.0754  0.1495  0.0752
  127OSM   H14A13469   4.733   6.370   1.853  0.2170  0.4044 -0.8668
  127OSM   H14B13470   4.736   6.514   1.949 -0.6672  0.1510  1.8043
  127OSM   H14C13471   4.778   6.352   2.023  1.2768  0.7553  0.7116
  127OSM    C1313472   4.981   6.294   1.866 -0.4058  0.2173 -0.8621
  127OSM   H13A13473   4.923   6.270   1.778 -1.4067 -0.6436 -0.0019
  127OSM   H13B13474   4.952   6.219   1.937  2.7166  0.2013  0.5358
  127OSM   H13C13475   5.089   6.296   1.855 -0.0764  0.6173  1.7789
  127OSM    C1213476   5.001   6.481   2.032  0.5752 -0.6321 -0.3255
  127OSM   H12A13477   4.997   6.588   2.042 -1.7125 -0.7673  0.8140
  127OSM   H12B13478   5.108   6.468   2.023  0.6172 -1.0215  0.5976
  127OSM    C1113479   4.954   6.425   2.166 -0.0213 -0.3487 -0.2857
  127OSM   H11A13480   4.854   6.456   2.203  0.5751 -0.3293  1.4352
  127OSM   H11B13481   5.021   6.475   2.240  1.2084  0.0533 -1.6145
  127OSM      P13482   5.069   6.184   2.234 -0.1325  0.1371 -0.4758
  127OSM    O1313483   5.058   6.044   2.178  0.4894  0.2587  0.1576
  127OSM    O1413484   5.202   6.245   2.226 -0.4528 -0.6584 -0.7144
  127OSM    O1113485   5.012   6.182   2.383  0.0852 -0.4300 -0.6138
  127OSM    O1213486   4.964   6.280   2.169 -0.2723  0.1279 -0.3044
  127OSM    C1S13487   4.924   6.075   2.417  0.1455 -0.2129 -0.2472
  127OSM    H1S13488   4.975   5.977   2.432  0.0488 -0.2759 -0.3348
  127OSM    H1T13489   4.847   6.059   2.339 -0.5578  0.6521  0.2484
  127OSM     NF13490   4.790   6.017   2.630 -0.0255  0.2965 -0.3429
  127OSM    HNF13491   4.691   6.026   2.628  0.0333  1.3435  0.5945
  127OSM    C2S13492   4.856   6.120   2.556 -0.4766 -0.4051  0.0949
  127OSM    H2S13493   4.943   6.164   2.609 -0.8679  0.8080 -0.2429
  127OSM    C3S13494   4.765   6.244   2.527 -0.0704  0.1718 -0.2561
  127OSM    H3S13495   4.687   6.224   2.450  0.8605 -1.0121 -0.9304
  127OSM     O313496   4.832   6.359   2.466  0.4531 -0.0730 -0.0922
  127OSM    HO313497   4.917   6.320   2.442  0.9538  0.5543  0.6152
  127OSM    C4S13498   4.692   6.287   2.645  0.6608 -0.4561 -0.2141
  127OSM    H4S13499   4.746   6.296   2.740  2.6996 -1.6142 -1.2076
  127OSM    C5S13500   4.558   6.310   2.649  0.5749  0.5640 -0.3614
  127OSM    H5S13501   4.499   6.294   2.557  0.9465 -2.1255 -0.2015
  127OSM    C6S13502   4.484   6.337   2.777  0.0515 -0.5404 -0.3505
  127OSM    H6S13503   4.447   6.237   2.809 -0.6479 -1.1143 -2.7064
  127OSM    H6T13504   4.397   6.404   2.764  1.2784  1.2763  0.4218
  127OSM    C7S13505   4.540   6.392   2.911  0.3981  0.2068  0.1573
  127OSM    H7S13506   4.571   6.498   2.900 -1.3510  0.9833  2.0915
  127OSM    H7T13507   4.625   6.329   2.946  0.1665  0.4844  1.2452
  127OSM    C8S13508   4.425   6.404   3.021 -0.7944 -0.1145  0.8917
  127OSM    H8S13509   4.352   6.320   3.015 -0.3700 -0.4972 -4.8968
  127OSM    H8T13510   4.366   6.495   2.997 -0.5162  0.0791  0.9504
  127OSM    C9S13511   4.475   6.402   3.162  0.9036 -0.3522 -0.4555
  127OSM    H9S13512   4.494   6.501   3.208 -1.5870  0.0646 -0.1653
  127OSM    H9T13513   4.565   6.337   3.167  1.8630  1.0555  1.3381
  127OSM   C10S13514   4.366   6.334   3.258 -0.1152  0.1309 -0.3754
  127OSM   H10S13515   4.352   6.227   3.230  0.1252  1.1157 -5.1393
  127OSM   H10T13516   4.271   6.391   3.265  0.2676  0.7530 -0.2394
  127OSM   C11S13517   4.418   6.337   3.403  0.0162 -0.4399 -0.4153
  127OSM   H11S13518   4.391   6.437   3.444 -0.8062 -1.5671  2.0044
  127OSM   H11T13519   4.528   6.324   3.397 -0.1149 -1.5823 -0.5408
  127OSM   C12S13520   4.354   6.236   3.493 -0.1605 -0.1374  0.0722
  127OSM   H12S13521   4.371   6.129   3.468  0.0298 -0.8032  2.7040
  127OSM   H12T13522   4.243   6.243   3.495 -0.1830 -0.6291  0.8055
  127OSM   C13S13523   4.405   6.261   3.640 -0.3306  0.5622 -0.2632
  127OSM   H13S13524   4.362   6.361   3.660  0.4771  0.8547  0.0464
  127OSM   H13T13525   4.516   6.268   3.643 -0.3724  0.9437  0.6258
  127OSM   C14S13526   4.350   6.156   3.729  0.6207 -0.7134 -0.5192
  127OSM   H14S13527   4.359   6.055   3.683 -0.9333 -1.8099  1.4140
  127OSM   H14T13528   4.243   6.175   3.752  1.3042  1.8192  0.9769
  127OSM   C15S13529   4.414   6.160   3.871 -0.4364  0.6342  0.0380
  127OSM   H15S13530   4.422   6.265   3.907  2.3912  0.1693  1.0375
  127OSM   H15T13531   4.513   6.112   3.853 -0.7192  0.9037 -2.5557
  127OSM   C16S13532   4.332   6.083   3.973  0.1027  0.0112  0.2574
  127OSM   H16S13533   4.341   5.975   3.949 -0.4378 -0.5920  2.5196
  127OSM   H16T13534   4.223   6.104   3.980 -0.2174 -1.0490 -1.0896
  127OSM   C17S13535   4.393   6.107   4.109 -0.7142 -0.0485 -0.0174
  127OSM   H17S13536   4.385   6.217   4.125 -0.0318  0.1123 -0.7152
  127OSM   H17T13537   4.498   6.074   4.096 -1.4266 -2.0160 -1.2334
  127OSM   C18S13538   4.342   6.028   4.227 -0.1491 -0.0778 -0.2059
  127OSM   H18S13539   4.330   5.920   4.204 -1.5284  0.0781 -0.2809
  127OSM   H18T13540   4.243   6.062   4.264  0.0033  0.1509 -0.0023
  127OSM   H18U13541   4.409   6.038   4.315 -2.3633  1.9770  1.3721
  127OSM    C1F13542   4.846   5.912   2.678  0.8010 -0.2684 -0.0306
  127OSM     OF13543   4.964   5.879   2.660 -0.0992  0.3901 -0.2636
  127OSM    C2F13544   4.761   5.823   2.768  0.7464  0.5027 -0.0037
  127OSM    H2F13545   4.822   5.760   2.835 -0.2103  0.5884  0.9687
  127OSM    H2G13546   4.707   5.752   2.701 -1.0017  2.4821 -0.8143
  127OSM    C3F13547   4.660   5.912   2.854 -0.3421  0.7546  0.0607
  127OSM    H3F13548   4.582   5.957   2.790  0.3823  1.5792 -0.2644
  127OSM    H3G13549   4.724   5.998   2.883 -0.6011  0.7880  0.5388
  127OSM    C4F13550   4.608   5.829   2.970  0.4188 -0.2707 -0.2039
  127OSM    H4F13551   4.692   5.774   3.018  0.8752 -0.4696 -1.2086
  127OSM    H4G13552   4.525   5.767   2.932 -1.2038  2.0928 -0.7700
  127OSM    C5F13553   4.562   5.916   3.089  0.0075 -0.0187 -0.1770
  127OSM    H5F13554   4.484   5.990   3.060  1.2321  0.6068 -2.0965
  127OSM    H5G13555   4.654   5.966   3.125  0.0491 -2.8324  4.3917
  127OSM    C6F13556   4.510   5.828   3.199 -0.6744 -0.4851 -0.1310
  127OSM    H6F13557   4.582   5.747   3.224 -1.8156 -1.8220 -1.0445
  127OSM    H6G13558   4.417   5.776   3.169 -0.7229 -0.2578 -0.3828
  127OSM    C7F13559   4.480   5.899   3.332  0.7253 -0.0631  0.3037
  127OSM    H7F13560   4.385   5.955   3.315  0.6521 -0.7117 -1.7003
  127OSM    H7G13561   4.553   5.978   3.359  0.8268 -0.1535  0.2928
  127OSM    C8F13562   4.457   5.796   3.444 -0.2084 -0.8644  1.1821
  127OSM    H8F13563   4.473   5.853   3.538 -0.7848 -1.9551  1.9600
  127OSM    H8G13564   4.539   5.721   3.445 -0.0632 -0.7853 -0.7565
  127OSM    C9F13565   4.320   5.734   3.439  0.2513  0.0542 -0.3857
  127OSM    H9F13566   4.299   5.679   3.346  0.2561 -0.3947 -0.1221
  127OSM   C10F13567   4.217   5.745   3.526  0.0292 -0.5357 -0.0306
  127OSM   H10F13568   4.130   5.686   3.495 -2.9424  2.6983  1.3992
  127OSM   C11F13569   4.212   5.825   3.648  0.4218  0.8267  0.1728
  127OSM   H11F13570   4.170   5.926   3.627 -0.6086  1.1050  3.1217
  127OSM   H11G13571   4.309   5.830   3.701  0.4975  1.2397  0.0073
  127OSM   C12F13572   4.118   5.749   3.739  0.4490  0.1774  0.4961
  127OSM   H12F13573   4.167   5.653   3.764  0.9164  0.5624  1.0840
  127OSM   H12G13574   4.022   5.718   3.692  0.5678  0.5177  0.0183
  127OSM   C13F13575   4.094   5.825   3.868 -0.1406  0.1575  0.6174
  127OSM   H13F13576   4.062   5.929   3.842  0.2210  0.0053 -0.4632
  127OSM   H13G13577   4.179   5.820   3.938  2.3069  1.3022 -2.0713
  127OSM   C14F13578   3.971   5.758   3.929  1.0783 -0.2527 -0.1430
  127OSM   H14F13579   4.000   5.652   3.947 -1.3593 -0.9896 -0.1260
  127OSM   H14G13580   3.881   5.766   3.863  0.3200  2.8632  1.0730
  127OSM   C15F13581   3.917   5.835   4.058 -0.7197 -0.3389  0.9608
  127OSM   H15F13582   3.864   5.926   4.024 -1.9912 -1.4225 -0.1009
  127OSM   H15G13583   4.002   5.865   4.122 -0.2563  2.5689 -0.8266
  127OSM   C16F13584   3.828   5.737   4.140 -0.8072  0.0244  0.5825
  127OSM   H16F13585   3.881   5.640   4.150 -1.4876 -0.3944  0.2350
  127OSM   H16G13586   3.747   5.718   4.065 -0.4383  1.5761 -0.2547
  127OSM   C17F13587   3.773   5.789   4.270 -0.5217  0.2581  0.4595
  127OSM   H17F13588   3.858   5.831   4.327 -0.3076 -2.9612  2.7929
  127OSM   H17G13589   3.732   5.704   4.330  0.4821 -1.1107 -0.7280
  127OSM   C18F13590   3.668   5.901   4.260 -0.4612  0.7160 -0.1327
  127OSM   H18F13591   3.646   5.946   4.359  0.5789 -0.3255  0.5845
  127OSM   H18G13592   3.577   5.855   4.215  1.2894 -2.7786 -0.4066
  127OSM   H18H13593   3.719   5.973   4.192 -1.4543  0.8305 -0.7784
  128OSM      N13594   6.057   4.900   2.346 -0.0722 -0.1538 -0.3428
  128OSM    C1513595   5.956   4.815   2.287 -0.3517  0.0938 -0.2804
  128OSM   H15A13596   5.885   4.791   2.365  0.7244 -2.9283 -0.0907
  128OSM   H15B13597   6.000   4.719   2.264  1.8911  0.6322  1.3330
  128OSM   H15C13598   5.894   4.864   2.214 -2.0133 -2.3577 -0.6247
  128OSM    C1413599   6.114   4.846   2.476  0.0338 -0.1938 -1.0924
  128OSM   H14A13600   6.188   4.917   2.509 -1.8221  2.0925 -1.5586
  128OSM   H14B13601   6.161   4.750   2.463  0.6284 -0.0021 -0.4424
  128OSM   H14C13602   6.042   4.836   2.555 -1.1277 -0.8080 -2.1972
  128OSM    C1313603   6.160   4.925   2.241  0.0472  0.5786 -0.2643
  128OSM   H13A13604   6.115   4.948   2.146  0.1186 -0.2944 -0.5145
  128OSM   H13B13605   6.201   4.829   2.213  0.4629  0.5902  0.2914
  128OSM   H13C13606   6.244   4.983   2.276  2.0105 -1.8005 -0.7867
  128OSM    C1213607   5.995   5.037   2.377  0.5273  0.5256  0.5012
  128OSM   H12A13608   6.072   5.100   2.418  0.0479  1.1105  0.5136
  128OSM   H12B13609   5.921   5.017   2.453 -0.4193 -0.8343 -0.7289
  128OSM    C1113610   5.937   5.132   2.258  0.2443  0.3803  0.2805
  128OSM   H11A13611   6.025   5.169   2.201  0.2902 -0.6937 -0.3689
  128OSM   H11B13612   5.902   5.227   2.305  1.9843  0.5905  1.2280
  128OSM      P13613   5.697   5.131   2.154 -0.0530  0.0011  0.0037
  128OSM    O1313614   5.731   5.242   2.060  1.0156  0.3113  0.2885
  128OSM    O1413615   5.600   5.032   2.110 -0.4233  0.0555  0.0335
  128OSM    O1113616   5.656   5.183   2.304  0.5114  0.0979  0.4250
  128OSM    O1213617   5.836   5.066   2.184 -0.1058 -0.4519  0.2525
  128OSM    C1S13618   5.645   5.074   2.399 -0.0337 -0.7265 -0.3883
  128OSM    H1S13619   5.741   5.022   2.416 -0.0960  0.0814  3.0895
  128OSM    H1T13620   5.558   5.009   2.375 -0.4357  0.3255 -1.9305
  128OSM     NF13621   5.642   5.046   2.657  0.4950  0.3707  0.2445
  128OSM    HNF13622   5.563   5.033   2.718  1.1330 -0.2104  0.9598
  128OSM    C2S13623   5.621   5.136   2.544 -0.2955  0.0371 -0.5318
  128OSM    H2S13624   5.700   5.211   2.563 -0.9209  0.2095  1.6270
  128OSM    C3S13625   5.489   5.216   2.538 -0.0546  0.4661  0.4370
  128OSM    H3S13626   5.412   5.143   2.505 -1.9226  0.9012  3.4371
  128OSM     O313627   5.489   5.320   2.440 -0.2063  0.0421  0.2279
  128OSM    HO313628   5.544   5.284   2.370 -1.1149 -0.5420 -0.2051
  128OSM    C4S13629   5.455   5.269   2.673  0.1599  0.1385  0.1970
  128OSM    H4S13630   5.358   5.233   2.709  0.1223  0.0415  0.0003
  128OSM    C5S13631   5.516   5.382   2.725 -0.1937 -0.0129 -0.7005
  128OSM    H5S13632   5.602   5.427   2.675  1.6028 -1.1555  1.1695
  128OSM    C6S13633   5.468   5.452   2.850 -0.0992  0.1359 -0.5233
  128OSM    H6S13634   5.357   5.461   2.852 -0.2203 -0.6260 -2.3213
  128OSM    H6T13635   5.514   5.553   2.854  0.6793 -0.2408  1.2412
  128OSM    C7S13636   5.516   5.390   2.981  0.1548  0.4932  0.5367
  128OSM    H7S13637   5.500   5.455   3.070 -1.7597  2.0261 -0.8303
  128OSM    H7T13638   5.627   5.389   2.975  0.1510  0.8340  0.3711
  128OSM    C8S13639   5.456   5.252   3.009 -0.0270  0.8579 -0.0903
  128OSM    H8S13640   5.459   5.170   2.933 -0.5555 -0.1930  0.9802
  128OSM    H8T13641   5.346   5.270   3.019  0.1100  1.1959  0.9420
  128OSM    C9S13642   5.494   5.193   3.147 -0.4134 -1.0817 -0.0985
  128OSM    H9S13643   5.591   5.140   3.137 -1.7893 -3.2954 -3.3309
  128OSM    H9T13644   5.423   5.111   3.171 -0.0482 -1.2838  0.3213
  128OSM   C10S13645   5.495   5.302   3.258  0.7490  0.1308 -0.2823
  128OSM   H10S13646   5.409   5.371   3.248  1.2518  1.0909  1.6098
  128OSM   H10T13647   5.584   5.366   3.240 -0.1101  0.7964 -2.4466
  128OSM   C11S13648   5.528   5.241   3.394 -0.4165 -0.0053 -0.0738
  128OSM   H11S13649   5.637   5.226   3.379 -0.2118  0.0657  1.2636
  128OSM   H11T13650   5.485   5.139   3.408 -0.2264 -0.3033 -1.5156
  128OSM   C12S13651   5.504   5.331   3.515 -0.4887  0.1454 -0.3514
  128OSM   H12S13652   5.396   5.354   3.527 -0.8974 -1.5875 -0.5151
  128OSM   H12T13653   5.553   5.429   3.498 -1.3546  0.6229 -0.1580
  128OSM   C13S13654   5.537   5.264   3.652  0.8258 -0.2132  0.4252
  128OSM   H13S13655   5.643   5.234   3.637  0.1530 -2.1807 -0.9344
  128OSM   H13T13656   5.489   5.164   3.644  2.2305 -0.8644 -0.3404
  128OSM   C14S13657   5.527   5.346   3.785 -0.3286 -0.3358  0.1676
  128OSM   H14S13658   5.434   5.404   3.768  0.5639  1.4782  1.1287
  128OSM   H14T13659   5.615   5.411   3.802  1.3189 -2.8156  1.8406
  128OSM   C15S13660   5.507   5.251   3.905  0.5079 -0.6655  0.1712
  128OSM   H15S13661   5.598   5.195   3.935  0.9200 -1.3852 -2.1759
  128OSM   H15T13662   5.443   5.170   3.862  0.1550 -0.1006 -0.3721
  128OSM   C16S13663   5.440   5.327   4.023  0.1411 -0.1149  0.3828
  128OSM   H16S13664   5.358   5.397   3.995  1.6564  2.3106  1.6357
  128OSM   H16T13665   5.514   5.403   4.055  0.6800  0.3097 -1.7178
  128OSM   C17S13666   5.394   5.227   4.124 -0.4443 -0.5052 -0.1622
  128OSM   H17S13667   5.306   5.165   4.096 -0.9700  1.0890 -2.3240
  128OSM   H17T13668   5.356   5.287   4.210  2.0355 -0.6836  1.1422
  128OSM   C18S13669   5.502   5.119   4.163  0.2030 -0.4086 -0.0579
  128OSM   H18S13670   5.516   5.047   4.080  1.0668 -0.1741 -0.1198
  128OSM   H18T13671   5.470   5.066   4.256  1.6446 -0.0577  0.6691
  128OSM   H18U13672   5.600   5.170   4.174 -0.4786  0.9171  0.1846
  128OSM    C1F13673   5.764   5.006   2.699 -0.2005 -0.8674  1.2920
  128OSM     OF13674   5.859   5.043   2.630  0.0362 -0.5165 -0.0987
  128OSM    C2F13675   5.779   4.928   2.816 -0.2905  0.0521  0.0639
  128OSM    H2F13676   5.708   4.953   2.898 -0.0960 -3.2052  1.3681
  128OSM    H2G13677   5.873   4.949   2.871 -0.1909  0.5284 -0.2796
  128OSM    C3F13678   5.772   4.784   2.770  0.1892 -0.3757 -0.8745
  128OSM    H3F13679   5.861   4.749   2.712  0.4553 -1.1296 -0.0340
  128OSM    H3G13680   5.681   4.758   2.712 -0.5382 -0.8345  0.4531
  128OSM    C4F13681   5.765   4.704   2.894  0.0792  0.4196  0.1516
  128OSM    H4F13682   5.844   4.732   2.967 -2.2283  2.3208  2.1399
  128OSM    H4G13683   5.777   4.597   2.866  1.1862  0.8028 -0.8715
  128OSM    C5F13684   5.619   4.702   2.945 -0.3309  0.1278 -0.2392
  128OSM    H5F13685   5.555   4.666   2.862 -0.3682  1.1458 -0.6568
  128OSM    H5G13686   5.582   4.799   2.982 -1.4127 -0.3154 -0.1340
  128OSM    C6F13687   5.596   4.587   3.046  0.5375 -0.1188 -0.5754
  128OSM    H6F13688   5.638   4.496   2.999 -2.1955 -1.4467 -0.6361
  128OSM    H6G13689   5.487   4.569   3.062  0.5388 -0.2081 -0.6659
  128OSM    C7F13690   5.660   4.608   3.188 -0.4135 -0.1730 -0.4540
  128OSM    H7F13691   5.769   4.589   3.178  0.0149  1.3540  0.9210
  128OSM    H7G13692   5.621   4.532   3.260  0.5525 -0.8396 -0.6055
  128OSM    C8F13693   5.653   4.747   3.252 -0.5338 -0.1675 -0.2216
  128OSM    H8F13694   5.711   4.821   3.192  1.4521 -1.5767 -0.1367
  128OSM    H8G13695   5.723   4.742   3.338  1.1635 -1.2916 -1.5696
  128OSM    C9F13696   5.516   4.795   3.295  0.2352 -0.0278  0.3922
  128OSM    H9F13697   5.439   4.800   3.217 -2.6384 -1.6003  2.8986
  128OSM   C10F13698   5.478   4.821   3.424 -0.3828  0.0386 -0.0068
  128OSM   H10F13699   5.371   4.843   3.439  0.3201  2.8048  1.5786
  128OSM   C11F13700   5.557   4.820   3.555 -0.6222 -0.0284  0.2247
  128OSM   H11F13701   5.626   4.903   3.582  0.9152 -1.5891  1.3874
  128OSM   H11G13702   5.628   4.737   3.577 -0.8725  0.2748  2.4305
  128OSM   C12F13703   5.461   4.833   3.677  0.7747 -0.0334  0.8596
  128OSM   H12F13704   5.381   4.757   3.661 -2.4410  2.8137  2.2929
  128OSM   H12G13705   5.397   4.923   3.672  1.1485  0.1584 -1.8296
  128OSM   C13F13706   5.515   4.799   3.817 -0.0112  0.0177  0.4241
  128OSM   H13F13707   5.443   4.803   3.902 -0.4484  1.9379  0.0200
  128OSM   H13G13708   5.583   4.886   3.828 -0.2037  0.6849 -2.7137
  128OSM   C14F13709   5.587   4.665   3.834  0.9928 -0.6476  0.9036
  128OSM   H14F13710   5.611   4.667   3.942 -1.6023  1.9423  1.5892
  128OSM   H14G13711   5.669   4.672   3.760 -0.6145 -0.9346 -0.9966
  128OSM   C15F13712   5.506   4.549   3.788 -0.4236  0.7169 -0.2895
  128OSM   H15F13713   5.500   4.560   3.677 -0.0801 -0.0697 -0.3920
  128OSM   H15G13714   5.404   4.545   3.832 -0.1212 -4.2353  0.5669
  128OSM   C16F13715   5.581   4.424   3.824  0.2675  0.2103 -0.2872
  128OSM   H16F13716   5.578   4.410   3.935  0.0724 -0.5557 -0.3812
  128OSM   H16G13717   5.688   4.419   3.797  0.7450 -1.1970  1.5795
  128OSM   C17F13718   5.520   4.300   3.759 -0.4316 -0.1252  0.6749
  128OSM   H17F13719   5.502   4.335   3.656  1.5490  1.1486  0.7220
  128OSM   H17G13720   5.420   4.282   3.805 -0.2845  0.2547  1.1530
  128OSM   C18F13721   5.607   4.172   3.774  0.0969 -0.3378  0.0514
  128OSM   H18F13722   5.576   4.092   3.704 -0.1529 -1.2570  1.1834
  128OSM   H18G13723   5.607   4.120   3.872 -2.9676 -4.3612 -1.8027
  128OSM   H18H13724   5.713   4.201   3.758  0.0544 -0.6237 -0.7857
  129OSM      N13725   0.786   4.214   2.207 -0.3434 -0.5763  0.2078
  129OSM    C1513726   0.736   4.259   2.074 -0.0154 -0.1828 -0.5749
  129OSM   H15A13727   0.628   4.252   2.072 -0.2435  1.4648  1.9243
  129OSM   H15B13728   0.786   4.198   2.000  1.1189 -0.0298  0.0445
  129OSM   H15C13729   0.763   4.362   2.055 -0.0191  0.2193  1.4267
  129OSM    C1413730   0.752   4.070   2.225 -1.4358  0.3459 -0.1222
  129OSM   H14A13731   0.800   4.030   2.313 -1.2743  1.7753  0.4724
  129OSM   H14B13732   0.777   4.008   2.141  0.2937 -0.9480  1.2717
  129OSM   H14C13733   0.647   4.048   2.233 -1.3649 -0.3676 -0.9851
  129OSM    C1313734   0.942   4.224   2.204  0.5053  0.3117 -0.0205
  129OSM   H13A13735   0.974   4.323   2.176 -0.3327  0.3425 -0.9202
  129OSM   H13B13736   0.988   4.153   2.138  1.5753 -0.4623  1.4817
  129OSM   H13C13737   0.980   4.191   2.300 -2.3423 -0.5453  0.9164
  129OSM    C1213738   0.746   4.310   2.319  1.1846 -0.3355 -0.3887
  129OSM   H12A13739   0.773   4.413   2.299  1.3866 -0.2113  0.4961
  129OSM   H12B13740   0.800   4.283   2.408 -0.8633 -2.8980  0.2116
  129OSM    C1113741   0.591   4.319   2.344 -0.8057 -0.1864  0.6322
  129OSM   H11A13742   0.548   4.244   2.414  0.4578 -1.8945 -0.3499
  129OSM   H11B13743   0.549   4.296   2.244 -1.1109 -2.4988  1.2294
  129OSM      P13744   0.417   4.495   2.439 -0.2177 -0.0434  0.0059
  129OSM    O1313745   0.418   4.628   2.498  0.4929  0.1456 -0.1921
  129OSM    O1413746   0.321   4.493   2.328 -0.2826 -0.4514 -0.0890
  129OSM    O1113747   0.383   4.391   2.540  0.3247 -0.0949 -0.6468
  129OSM    O1213748   0.562   4.452   2.380  0.6471  0.1110  0.2367
  129OSM    C1S13749   0.458   4.345   2.657  0.5433 -0.5464 -0.1661
  129OSM    H1S13750   0.529   4.421   2.695  0.9235 -1.4678  1.0430
  129OSM    H1T13751   0.516   4.259   2.618  0.5457 -0.2230 -0.8776
  129OSM     NF13752   0.448   4.304   2.901 -0.0073 -0.0717  0.7592
  129OSM    HNF13753   0.466   4.218   2.948  1.3075  0.2979  0.9588
  129OSM    C2S13754   0.370   4.292   2.773  0.8189  0.4766  0.6657
  129OSM    H2S13755   0.280   4.355   2.793  0.1513 -0.6734  1.3734
  129OSM    C3S13756   0.310   4.148   2.752 -0.0360 -0.1388 -0.3505
  129OSM    H3S13757   0.389   4.070   2.767  2.6054  2.6455  1.4174
  129OSM     O313758   0.260   4.125   2.622 -0.6586  0.1978 -0.2367
  129OSM    HO313759   0.286   4.206   2.576 -1.1288  1.5705  1.8049
  129OSM    C4S13760   0.204   4.126   2.861  0.4768  0.1582  0.3276
  129OSM    H4S13761   0.109   4.179   2.842 -1.3184 -3.0713 -0.3297
  129OSM    C5S13762   0.212   4.044   2.968  0.1351  0.5235 -0.2561
  129OSM    H5S13763   0.294   3.972   2.980 -1.4027 -1.1550  0.6024
  129OSM    C6S13764   0.104   4.027   3.068  0.0878 -0.2465  0.0298
  129OSM    H6S13765   0.085   3.924   3.105  0.1319 -1.4093 -2.9358
  129OSM    H6T13766   0.013   4.068   3.018  0.6052  1.1536  0.1807
  129OSM    C7S13767   0.136   4.107   3.196 -0.0287  0.2256 -0.3349
  129OSM    H7S13768   0.130   4.216   3.176 -3.2042 -0.0015 -1.0785
  129OSM    H7T13769   0.238   4.089   3.235 -0.5041 -0.3458  0.6806
  129OSM    C8S13770   0.030   4.065   3.306  0.2264  0.0021 -0.4412
  129OSM    H8S13771   0.019   3.954   3.303 -2.3279  0.2125 -1.8491
  129OSM    H8T13772  -0.069   4.108   3.282  0.5000  0.5462 -0.6143
  129OSM    C9S13773   0.064   4.116   3.450  0.4873  0.3363  0.6345
  129OSM    H9S13774  -0.015   4.085   3.522 -0.0908  0.9576  0.2740
  129OSM    H9T13775   0.068   4.226   3.436  0.4509  0.4358  1.3987
  129OSM   C10S13776   0.201   4.070   3.504  0.1073 -0.0382  0.2522
  129OSM   H10S13777   0.216   4.131   3.596  1.0941  0.4267 -0.2019
  129OSM   H10T13778   0.273   4.097   3.424 -0.9666 -1.6149 -1.3213
  129OSM   C11S13779   0.201   3.925   3.547 -0.5211  0.2275  0.6797
  129OSM   H11S13780   0.172   3.856   3.464 -2.8845 -0.3013  1.8544
  129OSM   H11T13781   0.130   3.900   3.628 -1.1053  1.1361  0.4651
  129OSM   C12S13782   0.340   3.878   3.594 -0.4933  0.5917 -0.3629
  129OSM   H12S13783   0.349   3.933   3.690 -0.0805  0.1380 -0.1368
  129OSM   H12T13784   0.418   3.906   3.520  2.8043  1.2445  3.0478
  129OSM   C13S13785   0.342   3.722   3.610 -0.1870 -0.1452  0.1516
  129OSM   H13S13786   0.330   3.675   3.511  0.8080 -0.8350  0.3418
  129OSM   H13T13787   0.254   3.698   3.674  1.6306 -0.8219  2.5855
  129OSM   C14S13788   0.470   3.682   3.694  0.4216 -0.4928  0.2827
  129OSM   H14S13789   0.485   3.748   3.782  0.8010 -0.8174  0.4630
  129OSM   H14T13790   0.552   3.679   3.620  1.6830  1.7117  1.5000
  129OSM   C15S13791   0.444   3.534   3.749 -1.2447 -1.0823 -0.1435
  129OSM   H15S13792   0.363   3.536   3.826  0.1856 -2.5108  1.4729
  129OSM   H15T13793   0.535   3.491   3.794  1.0799  0.1975 -3.2652
  129OSM   C16S13794   0.390   3.426   3.656 -0.5253 -0.3060  0.1284
  129OSM   H16S13795   0.292   3.461   3.618  0.0121  0.1358 -0.8903
  129OSM   H16T13796   0.377   3.334   3.717  0.3627 -0.9127 -0.5510
  129OSM   C17S13797   0.487   3.390   3.543 -0.1371  1.1522  0.4859
  129OSM   H17S13798   0.583   3.365   3.594 -0.2812 -0.3806  0.0431
  129OSM   H17T13799   0.509   3.481   3.482  0.1326  1.2980  0.7953
  129OSM   C18S13800   0.443   3.264   3.459  0.1550 -0.3221 -0.1631
  129OSM   H18S13801   0.449   3.181   3.532 -1.1271 -0.8177 -0.6055
  129OSM   H18T13802   0.499   3.249   3.365 -0.3040  0.5313 -0.5861
  129OSM   H18U13803   0.338   3.281   3.426  0.1521  2.2943  0.8874
  129OSM    C1F13804   0.468   4.413   2.964  0.6004  0.0608 -0.1191
  129OSM     OF13805   0.431   4.518   2.921 -0.0858  0.0049 -0.5430
  129OSM    C2F13806   0.529   4.401   3.096 -0.1333  0.7069  0.0580
  129OSM    H2F13807   0.636   4.424   3.081  0.4240 -1.7334  0.0507
  129OSM    H2G13808   0.516   4.300   3.140  1.3173  0.9700  1.1918
  129OSM    C3F13809   0.468   4.499   3.200  0.1420 -0.5518 -0.3405
  129OSM    H3F13810   0.359   4.476   3.199  0.3800 -1.8720  0.7465
  129OSM    H3G13811   0.489   4.598   3.155 -0.3944  0.0743  0.7419
  129OSM    C4F13812   0.511   4.488   3.345  0.3567  0.1801 -0.2557
  129OSM    H4F13813   0.469   4.578   3.395 -0.1111  0.1646 -0.6152
  129OSM    H4G13814   0.620   4.504   3.363  0.3279  0.4281 -0.2976
  129OSM    C5F13815   0.473   4.369   3.423  0.0186  0.0147 -0.4105
  129OSM    H5F13816   0.486   4.274   3.367 -1.9983 -0.9567  0.6463
  129OSM    H5G13817   0.363   4.374   3.438  0.2658 -0.4788  1.9905
  129OSM    C6F13818   0.542   4.343   3.558  0.1799 -0.1305 -0.0203
  129OSM    H6F13819   0.531   4.440   3.611 -1.0294 -1.0801  1.5405
  129OSM    H6G13820   0.649   4.324   3.537  0.0716 -0.6604 -0.0925
  129OSM    C7F13821   0.479   4.231   3.645  0.0122  0.4669  0.0312
  129OSM    H7F13822   0.469   4.135   3.590  0.7790  0.9547 -1.0064
  129OSM    H7G13823   0.374   4.264   3.657 -0.7740 -1.0054 -2.1314
  129OSM    C8F13824   0.555   4.193   3.772 -0.0239 -0.2678 -0.4871
  129OSM    H8F13825   0.650   4.141   3.749  0.1124 -0.5362  0.5910
  129OSM    H8G13826   0.491   4.113   3.813 -1.1666 -0.0759 -1.8256
  129OSM    C9F13827   0.576   4.305   3.871  0.5335  0.1887 -0.8251
  129OSM    H9F13828   0.548   4.404   3.833  2.1675  0.4807 -1.3659
  129OSM   C10F13829   0.649   4.295   3.985  0.5245  0.2358  0.0022
  129OSM   H10F13830   0.656   4.385   4.048  1.8081  1.0969 -1.2784
  129OSM   C11F13831   0.719   4.174   4.045 -0.5042  0.2017  0.0219
  129OSM   H11F13832   0.829   4.186   4.041 -0.5528  0.3473 -1.4174
  129OSM   H11G13833   0.690   4.085   3.985 -1.7781  0.7902 -0.2912
  129OSM   C12F13834   0.669   4.135   4.190 -0.0214  0.0621  0.5749
  129OSM   H12F13835   0.559   4.125   4.186  0.0661 -0.9835  0.5485
  129OSM   H12G13836   0.687   4.222   4.256  1.6522  0.1463  0.0589
  129OSM   C13F13837   0.728   4.010   4.246 -0.1033 -0.1224 -0.5384
  129OSM   H13F13838   0.837   4.020   4.266 -0.0559 -0.9837 -0.3179
  129OSM   H13G13839   0.724   3.931   4.167 -1.9701 -0.5503 -0.0637
  129OSM   C14F13840   0.656   3.960   4.370  0.5182  0.1173 -0.4497
  129OSM   H14F13841   0.547   3.951   4.348  0.1920 -0.4528  1.2797
  129OSM   H14G13842   0.661   4.025   4.460  1.8336 -1.9000  0.9929
  129OSM   C15F13843   0.702   3.830   4.422 -0.5019  0.7917 -0.0497
  129OSM   H15F13844   0.805   3.842   4.462 -0.0526 -0.2246 -0.8698
  129OSM   H15G13845   0.703   3.759   4.337  0.8537  0.1555  0.4590
  129OSM   C16F13846   0.611   3.764   4.531  0.2934 -0.4089  0.1760
  129OSM   H16F13847   0.555   3.848   4.578  1.6547  1.9034 -2.0603
  129OSM   H16G13848   0.663   3.696   4.601 -1.7865 -2.0612  0.2128
  129OSM   C17F13849   0.495   3.677   4.467 -0.9863 -0.0752 -0.1627
  129OSM   H17F13850   0.545   3.601   4.403 -0.1055 -0.1080  0.5556
  129OSM   H17G13851   0.425   3.734   4.402  0.7300  1.1716 -0.9900
  129OSM   C18F13852   0.413   3.605   4.579  0.2871 -0.1545 -0.0549
  129OSM   H18F13853   0.356   3.681   4.636  0.2392 -1.2441  1.4019
  129OSM   H18G13854   0.487   3.554   4.645  1.0808 -0.3609 -1.0699
  129OSM   H18H13855   0.339   3.542   4.525 -1.3160  2.5401 -1.1847
  130OSM      N13856   5.096   3.046   1.872 -0.6130 -0.1000 -0.8820
  130OSM    C1513857   4.973   3.026   1.794  0.6169  0.5287  0.3000
  130OSM   H15A13858   4.913   2.945   1.831  1.2698 -0.2457 -0.2910
  130OSM   H15B13859   4.985   3.013   1.687 -0.0978 -0.1637  0.3007
  130OSM   H15C13860   4.916   3.118   1.789  1.2896  0.9203 -0.5697
  130OSM    C1413861   5.182   3.159   1.824 -0.0422  0.3914 -0.2024
  130OSM   H14A13862   5.287   3.156   1.847 -0.1203  1.3409  0.3089
  130OSM   H14B13863   5.131   3.250   1.853 -0.3601 -0.5463  2.4799
  130OSM   H14C13864   5.193   3.158   1.716  0.2171 -0.6340 -0.1828
  130OSM    C1313865   5.062   3.089   2.018  0.1393 -0.2127 -0.4717
  130OSM   H13A13866   5.008   3.183   2.018  0.4579  0.0744  2.7260
  130OSM   H13B13867   5.156   3.100   2.070  0.3354 -1.3826 -0.5610
  130OSM   H13C13868   5.001   3.015   2.068  0.6725 -0.4114 -0.1187
  130OSM    C1213869   5.165   2.914   1.869  0.2453 -0.2588 -0.7914
  130OSM   H12A13870   5.202   2.886   1.772 -1.6326 -2.9483 -0.8318
  130OSM   H12B13871   5.088   2.839   1.880  0.1773 -0.2967 -1.4721
  130OSM    C1113872   5.286   2.892   1.970 -0.1164 -0.6902  0.4829
  130OSM   H11A13873   5.355   2.978   1.954  0.0717 -1.0657 -0.8488
  130OSM   H11B13874   5.340   2.806   1.927 -0.3464 -0.4950 -0.2033
  130OSM      P13875   5.195   2.713   2.137 -0.3450 -0.0395 -0.0357
  130OSM    O1313876   5.084   2.673   2.049 -0.0058 -0.7649 -0.1275
  130OSM    O1413877   5.312   2.625   2.133 -0.5180 -0.1668 -0.2384
  130OSM    O1113878   5.146   2.726   2.281  0.3289  0.5711  0.3696
  130OSM    O1213879   5.245   2.871   2.104 -0.3169  0.0060 -0.7334
  130OSM    C1S13880   5.151   2.844   2.362 -0.7165  0.4282 -0.1991
  130OSM    H1S13881   5.047   2.882   2.366 -1.0474 -0.4615  0.0376
  130OSM    H1T13882   5.218   2.925   2.328 -2.4551  1.9533 -0.1671
  130OSM     NF13883   5.167   2.931   2.595 -1.1713 -0.2985  0.0065
  130OSM    HNF13884   5.252   2.974   2.625 -0.3778  0.1683 -2.6457
  130OSM    C2S13885   5.184   2.810   2.514  0.6509  0.0622 -0.0082
  130OSM    H2S13886   5.108   2.737   2.548  2.6945 -1.2685  2.0445
  130OSM    C3S13887   5.327   2.741   2.525  0.4696  0.6272  0.2190
  130OSM    H3S13888   5.404   2.808   2.481  1.4309 -0.1951  0.5906
  130OSM     O313889   5.325   2.627   2.445 -0.2780  0.6052 -0.5817
  130OSM    HO313890   5.255   2.647   2.382 -0.7678  2.2669  0.4151
  130OSM    C4S13891   5.370   2.684   2.657  0.3157  0.2368 -0.5257
  130OSM    H4S13892   5.307   2.606   2.703 -0.4049  0.8129 -0.5203
  130OSM    C5S13893   5.468   2.736   2.734  0.2737 -0.2601 -1.1523
  130OSM    H5S13894   5.526   2.826   2.707  1.2565 -0.0592  1.3462
  130OSM    C6S13895   5.504   2.673   2.870 -0.6125 -0.1559 -0.1477
  130OSM    H6S13896   5.615   2.665   2.868 -0.6496 -1.2142 -3.6348
  130OSM    H6T13897   5.470   2.569   2.890  1.3408 -0.4108  2.4752
  130OSM    C7S13898   5.473   2.758   2.996 -0.0430  0.3537 -1.0602
  130OSM    H7S13899   5.536   2.710   3.074  2.4999 -0.7011 -3.5773
  130OSM    H7T13900   5.365   2.750   3.018 -0.1367  3.1973 -0.0679
  130OSM    C8S13901   5.504   2.909   2.987 -0.7402 -0.4469 -0.2977
  130OSM    H8S13902   5.446   2.943   2.899 -0.2315 -1.1281 -0.9039
  130OSM    H8T13903   5.614   2.917   2.981 -0.6897 -0.9468 -0.1465
  130OSM    C9S13904   5.460   2.984   3.108  0.7267 -0.4552  0.5328
  130OSM    H9S13905   5.364   2.935   3.136 -1.1201  1.2194 -2.2984
  130OSM    H9T13906   5.430   3.089   3.085  1.8529  0.3541  2.5367
  130OSM   C10S13907   5.557   2.998   3.219 -0.3372  0.2985  0.1151
  130OSM   H10S13908   5.650   3.046   3.184 -0.9532  3.6734  2.5561
  130OSM   H10T13909   5.556   2.890   3.247 -1.3915 -0.3378 -2.1703
  130OSM   C11S13910   5.497   3.054   3.346  0.1745 -0.2210 -0.6403
  130OSM   H11S13911   5.396   3.010   3.355  0.3945 -0.6437 -0.1605
  130OSM   H11T13912   5.487   3.164   3.331  1.3014 -0.2998 -2.2606
  130OSM   C12S13913   5.580   3.019   3.467 -0.2614 -0.8711 -0.1468
  130OSM   H12S13914   5.685   3.046   3.444 -0.6016 -0.9614 -1.9645
  130OSM   H12T13915   5.570   2.909   3.486  0.3625 -0.5890  2.2234
  130OSM   C13S13916   5.518   3.090   3.591  0.1940 -1.0387 -0.4452
  130OSM   H13S13917   5.410   3.082   3.618  0.4357 -1.2693  0.4901
  130OSM   H13T13918   5.542   3.197   3.574 -1.0463 -0.1835  2.5199
  130OSM   C14S13919   5.602   3.054   3.709 -0.6032 -0.2016  0.3603
  130OSM   H14S13920   5.591   3.140   3.780  0.5757  0.0672  0.2394
  130OSM   H14T13921   5.703   3.053   3.663 -1.6797  1.2168 -2.2569
  130OSM   C15S13922   5.571   2.930   3.795 -0.1271 -0.1158 -0.5764
  130OSM   H15S13923   5.569   2.834   3.739 -2.5682 -2.9627  3.7486
  130OSM   H15T13924   5.468   2.951   3.832 -0.3474 -1.6859 -0.2068
  130OSM   C16S13925   5.659   2.918   3.918 -0.2437 -0.0698  0.1245
  130OSM   H16S13926   5.692   3.021   3.946  0.7147  0.3467 -2.2991
  130OSM   H16T13927   5.753   2.868   3.887  0.6568  1.6644 -0.0622
  130OSM   C17S13928   5.586   2.843   4.034 -0.5063  0.1102 -0.6695
  130OSM   H17S13929   5.547   2.744   4.002 -0.9380 -1.2406  3.3864
  130OSM   H17T13930   5.497   2.907   4.052  1.0143  2.3381 -0.6954
  130OSM   C18S13931   5.656   2.823   4.166  0.6806  0.6500  0.2034
  130OSM   H18S13932   5.751   2.765   4.158  1.0020  0.7780  2.2959
  130OSM   H18T13933   5.595   2.763   4.236 -0.5047  0.7048 -0.7579
  130OSM   H18U13934   5.673   2.923   4.212  0.5315 -0.3467  2.6046
  130OSM    C1F13935   5.058   2.998   2.629 -0.9335  0.7477 -0.0099
  130OSM     OF13936   4.953   2.983   2.561  0.3832  0.0541 -0.6358
  130OSM    C2F13937   5.069   3.102   2.734 -0.2861  0.0218 -0.0638
  130OSM    H2F13938   5.009   3.189   2.699 -0.6373 -0.1950 -0.0019
  130OSM    H2G13939   5.170   3.148   2.734 -0.2003 -0.1480 -0.8978
  130OSM    C3F13940   5.027   3.048   2.866  0.5707 -0.0031  0.4889
  130OSM    H3F13941   4.919   3.023   2.862  0.9114 -1.7369  1.1160
  130OSM    H3G13942   5.041   3.127   2.943  1.4677 -0.5607  0.9232
  130OSM    C4F13943   5.099   2.930   2.914  0.4617  0.1045  0.0289
  130OSM    H4F13944   5.206   2.956   2.921  1.2420 -2.2255 -1.8599
  130OSM    H4G13945   5.088   2.845   2.844  0.0437 -0.5527  0.8590
  130OSM    C5F13946   5.049   2.884   3.050 -0.7613 -0.3005 -0.0413
  130OSM    H5F13947   4.942   2.914   3.050 -0.6393  0.1519  0.5963
  130OSM    H5G13948   5.089   2.943   3.135 -1.2504  0.5758 -0.4089
  130OSM    C6F13949   5.067   2.733   3.069 -0.4117 -0.0291 -0.3582
  130OSM    H6F13950   5.177   2.717   3.073 -0.4406 -0.5909 -1.4214
  130OSM    H6G13951   5.023   2.674   2.986  0.2410 -0.3107 -0.5108
  130OSM    C7F13952   5.007   2.685   3.208  0.4781 -0.8066 -0.3907
  130OSM    H7F13953   5.017   2.576   3.227 -1.0993 -0.8764  0.2492
  130OSM    H7G13954   4.898   2.708   3.213  0.4037 -1.1892 -0.2579
  130OSM    C8F13955   5.067   2.760   3.329 -0.0763  0.6376 -0.1784
  130OSM    H8F13956   5.003   2.716   3.408 -0.7813  0.7203 -0.6892
  130OSM    H8G13957   5.046   2.869   3.320  1.2413  0.9794  0.7444
  130OSM    C9F13958   5.215   2.745   3.353 -0.3351  0.1808 -0.1260
  130OSM    H9F13959   5.277   2.696   3.277  1.7306  0.0747  1.5221
  130OSM   C10F13960   5.280   2.779   3.469 -0.1836  0.3340  0.0993
  130OSM   H10F13961   5.388   2.768   3.486 -0.7269 -2.1683  2.8605
  130OSM   C11F13962   5.216   2.818   3.593  0.7254 -0.3617 -0.3117
  130OSM   H11F13963   5.114   2.860   3.576  2.2019  2.8170 -2.2078
  130OSM   H11G13964   5.271   2.903   3.640  1.3843 -1.6497  1.3376
  130OSM   C12F13965   5.207   2.701   3.694 -0.6473  0.1599  0.3869
  130OSM   H12F13966   5.291   2.631   3.674 -0.6779  0.8889 -2.8058
  130OSM   H12G13967   5.107   2.653   3.685 -1.1994  1.3165  0.1402
  130OSM   C13F13968   5.213   2.765   3.832 -0.6220 -0.0778 -0.8214
  130OSM   H13F13969   5.133   2.841   3.839 -1.4318 -0.8385 -1.5287
  130OSM   H13G13970   5.310   2.818   3.844 -0.6695 -0.0554 -0.5105
  130OSM   C14F13971   5.201   2.657   3.946  0.1687 -0.5325  0.1783
  130OSM   H14F13972   5.293   2.595   3.954 -0.1811 -1.2256 -0.9498
  130OSM   H14G13973   5.115   2.591   3.921 -2.1970  2.3356  0.2581
  130OSM   C15F13974   5.188   2.708   4.089  0.1818  0.3448 -0.6695
  130OSM   H15F13975   5.080   2.718   4.114  0.4414  2.1495 -0.1184
  130OSM   H15G13976   5.228   2.812   4.090  1.6643 -0.2115 -0.7286
  130OSM   C16F13977   5.267   2.629   4.186 -0.0258 -0.0249  0.4873
  130OSM   H16F13978   5.366   2.601   4.144 -0.3553  0.6926 -0.8232
  130OSM   H16G13979   5.221   2.535   4.222 -0.3861 -0.3049 -0.6460
  130OSM   C17F13980   5.300   2.710   4.311  0.2539  0.1798 -0.1420
  130OSM   H17F13981   5.200   2.725   4.356  0.6605 -0.9393  1.2001
  130OSM   H17G13982   5.342   2.808   4.280  1.5225  0.7313  3.0388
  130OSM   C18F13983   5.396   2.640   4.411  0.4588  0.2174 -0.1138
  130OSM   H18F13984   5.340   2.556   4.458  1.1916 -0.0027  0.3906
  130OSM   H18G13985   5.422   2.711   4.492 -0.9101  0.9695 -0.2965
  130OSM   H18H13986   5.489   2.600   4.365 -0.0539  1.3101 -2.2029
  131OSM      N13987   3.411   5.616   1.970 -0.1743 -1.0713  0.1915
  131OSM    C1513988   3.347   5.482   1.952 -0.6218 -0.2157  0.7471
  131OSM   H15A13989   3.285   5.451   2.035 -1.6171 -2.8371 -0.8246
  131OSM   H15B13990   3.424   5.408   1.933  0.4298  1.3371 -1.4245
  131OSM   H15C13991   3.290   5.491   1.860  1.9704 -0.4688 -1.0025
  131OSM    C1413992   3.473   5.661   1.841  0.3097 -0.0330 -0.0995
  131OSM   H14A13993   3.401   5.715   1.781  1.3312  1.8600  0.2982
  131OSM   H14B13994   3.534   5.588   1.790  2.0125  1.8842 -0.9922
  131OSM   H14C13995   3.558   5.729   1.848 -1.3103  1.9946  0.9300
  131OSM    C1313996   3.293   5.710   1.988 -0.8620 -0.7433 -0.0257
  131OSM   H13A13997   3.217   5.664   2.048  0.1273 -1.5985  0.6125
  131OSM   H13B13998   3.247   5.723   1.892 -1.3438 -1.9170  0.0304
  131OSM   H13C13999   3.317   5.811   2.020  2.7325 -1.0615 -1.2573
  131OSM    C1214000   3.516   5.610   2.077  0.2027  0.1150 -0.2051
  131OSM   H12A14001   3.468   5.568   2.164 -0.0338  1.3795  0.2956
  131OSM   H12B14002   3.539   5.710   2.111 -0.3236  0.1855 -0.0411
  131OSM    C1114003   3.640   5.517   2.050  0.0199  0.7189  0.1135
  131OSM   H11A14004   3.705   5.530   2.138  1.0999  0.3309 -0.6079
  131OSM   H11B14005   3.699   5.550   1.962 -1.0761 -1.7519 -1.6975
  131OSM      P14006   3.606   5.262   2.133  0.1357  0.4344  0.2214
  131OSM    O1314007   3.521   5.151   2.090 -0.0422  0.0438  0.1820
  131OSM    O1414008   3.747   5.238   2.161 -0.1107 -0.3468 -0.2836
  131OSM    O1114009   3.531   5.322   2.262  0.2811  0.4666 -0.1506
  131OSM    O1214010   3.606   5.378   2.030  0.7506  0.5374  0.1063
  131OSM    C1S14011   3.492   5.227   2.360 -0.2995 -0.1565 -0.1374
  131OSM    H1S14012   3.584   5.170   2.386  0.2976  1.4479  1.5041
  131OSM    H1T14013   3.416   5.152   2.330 -1.2179  0.8993 -0.5189
  131OSM     NF14014   3.432   5.211   2.596  0.1338 -0.2075 -0.0462
  131OSM    HNF14015   3.343   5.169   2.578 -0.6267  0.4004  1.9721
  131OSM    C2S14016   3.458   5.306   2.491  0.3963 -0.1069  0.1766
  131OSM    H2S14017   3.545   5.369   2.517 -0.4322  0.7481  0.9670
  131OSM    C3S14018   3.350   5.411   2.460  0.9702  0.1733 -0.0776
  131OSM    H3S14019   3.257   5.363   2.423  1.2356 -0.1361 -0.3508
  131OSM     O314020   3.385   5.513   2.361 -0.6321  0.5752  0.1280
  131OSM    HO314021   3.447   5.469   2.303  0.7923  0.3352  1.7437
  131OSM    C4S14022   3.310   5.489   2.584 -0.1464 -0.8430  0.4510
  131OSM    H4S14023   3.210   5.468   2.624 -0.5247  2.1192  1.2888
  131OSM    C5S14024   3.378   5.588   2.647 -0.2133 -0.3199  0.0396
  131OSM    H5S14025   3.469   5.618   2.593 -0.6362  0.7792 -0.0714
  131OSM    C6S14026   3.333   5.672   2.755  0.0220  0.1654  0.5907
  131OSM    H6S14027   3.236   5.640   2.798  0.6010 -0.6060  1.3738
  131OSM    H6T14028   3.329   5.769   2.702  1.7989 -0.3108 -0.5047
  131OSM    C7S14029   3.437   5.672   2.863  0.2211 -0.2844  0.2680
  131OSM    H7S14030   3.531   5.710   2.818  0.1394  0.9908  1.1310
  131OSM    H7T14031   3.457   5.567   2.894 -1.3784 -0.7498 -0.1478
  131OSM    C8S14032   3.387   5.767   2.980 -0.2235  0.2274  0.4467
  131OSM    H8S14033   3.289   5.746   3.027  0.1567  1.4504  1.8532
  131OSM    H8T14034   3.387   5.868   2.935  0.8073  0.3970  0.7988
  131OSM    C9S14035   3.504   5.760   3.092 -0.1612 -0.3309  0.0512
  131OSM    H9S14036   3.537   5.866   3.093 -1.7959  0.2095 -0.3147
  131OSM    H9T14037   3.583   5.693   3.053 -1.1077 -0.8670 -1.0050
  131OSM   C10S14038   3.467   5.712   3.226 -0.0999  0.5150 -0.0185
  131OSM   H10S14039   3.554   5.710   3.294 -0.2925  1.0933  0.2460
  131OSM   H10T14040   3.457   5.602   3.213  0.3238  0.4217  0.4097
  131OSM   C11S14041   3.342   5.771   3.294  0.0671 -0.0046 -0.9837
  131OSM   H11S14042   3.313   5.712   3.383 -1.0012 -0.6509 -1.7307
  131OSM   H11T14043   3.257   5.758   3.224  0.3060 -2.0222 -0.9528
  131OSM   C12S14044   3.361   5.915   3.342  0.6585 -0.4245 -0.2303
  131OSM   H12S14045   3.398   5.979   3.259  0.0414  0.3607  0.0714
  131OSM   H12T14046   3.439   5.926   3.420 -0.7990  2.1634  1.0070
  131OSM   C13S14047   3.235   5.985   3.399 -0.2583 -0.1799 -0.4689
  131OSM   H13S14048   3.245   6.096   3.403 -0.6584 -0.1401 -0.5562
  131OSM   H13T14049   3.216   5.942   3.500  0.5537  0.7556  0.1092
  131OSM   C14S14050   3.108   5.945   3.326  0.6888 -0.3798 -0.3667
  131OSM   H14S14051   3.075   5.843   3.357 -0.5897 -0.6593 -2.4188
  131OSM   H14T14052   3.115   5.938   3.216 -0.6023 -0.5123 -0.4654
  131OSM   C15S14053   2.988   6.042   3.359 -0.2355  0.0021  0.6129
  131OSM   H15S14054   3.018   6.146   3.334  0.5623 -0.4826 -0.5748
  131OSM   H15T14055   2.972   6.040   3.469 -0.2906  0.4937  0.6179
  131OSM   C16S14056   2.854   6.003   3.298 -0.7195 -0.2970 -0.1543
  131OSM   H16S14057   2.829   5.906   3.347  0.8559 -0.7879 -0.2824
  131OSM   H16T14058   2.849   5.997   3.187 -0.9205  1.2548 -0.2477
  131OSM   C17S14059   2.743   6.093   3.339  0.5575  1.1048 -0.1670
  131OSM   H17S14060   2.723   6.079   3.447 -1.1487  0.3791 -0.5391
  131OSM   H17T14061   2.649   6.056   3.291  1.6694 -0.8577 -0.9475
  131OSM   C18S14062   2.768   6.237   3.294  0.1659  0.2548  0.0073
  131OSM   H18S14063   2.700   6.320   3.323 -0.3164  0.0535 -0.5251
  131OSM   H18T14064   2.787   6.247   3.184  2.9792 -0.6451  0.3265
  131OSM   H18U14065   2.859   6.282   3.340 -0.8934 -0.0788  2.5684
  131OSM    C1F14066   3.518   5.144   2.676  0.0697 -0.3004  0.1453
  131OSM     OF14067   3.635   5.181   2.682  0.4822 -0.7464 -0.0259
  131OSM    C2F14068   3.461   5.027   2.754  0.0669 -0.9479 -0.0987
  131OSM    H2F14069   3.504   4.930   2.721 -0.3094 -0.5628 -1.8191
  131OSM    H2G14070   3.350   5.030   2.747  0.1445  0.3564 -1.1258
  131OSM    C3F14071   3.493   5.046   2.900 -0.0058  0.2640  0.9213
  131OSM    H3F14072   3.601   5.062   2.916  0.1891 -1.4682  1.5212
  131OSM    H3G14073   3.466   4.949   2.945  1.1260 -0.0348  0.9763
  131OSM    C4F14074   3.418   5.151   2.974  0.7939 -0.3956  0.1507
  131OSM    H4F14075   3.328   5.190   2.923  1.7557  0.2833 -1.0640
  131OSM    H4G14076   3.480   5.242   2.958 -0.5482  0.3285 -1.0891
  131OSM    C5F14077   3.412   5.118   3.128 -0.7280 -0.0362  0.0569
  131OSM    H5F14078   3.498   5.056   3.162 -0.0635  1.7908  1.9226
  131OSM    H5G14079   3.319   5.059   3.142 -1.6544  1.4078  0.2115
  131OSM    C6F14080   3.418   5.246   3.219  0.7574  1.1734 -0.3610
  131OSM    H6F14081   3.329   5.308   3.195  0.9681  1.0757 -1.4499
  131OSM    H6G14082   3.504   5.310   3.193  1.3823  1.9450  3.0982
  131OSM    C7F14083   3.413   5.212   3.371 -0.5561  0.2942 -0.3951
  131OSM    H7F14084   3.441   5.108   3.398 -0.3660  0.1853 -0.9940
  131OSM    H7G14085   3.306   5.229   3.392 -1.1373 -1.3076 -1.8558
  131OSM    C8F14086   3.500   5.314   3.445  0.6508 -0.1076 -0.3456
  131OSM    H8F14087   3.508   5.412   3.392  2.0102 -0.2663 -0.4856
  131OSM    H8G14088   3.602   5.270   3.441  0.5347 -0.5822  1.3465
  131OSM    C9F14089   3.455   5.340   3.593 -0.4406 -0.3861  0.3492
  131OSM    H9F14090   3.412   5.248   3.636  0.0754 -1.5245 -1.4327
  131OSM   C10F14091   3.447   5.457   3.662  0.7606 -0.3083  0.1110
  131OSM   H10F14092   3.417   5.458   3.768  1.4523 -0.7286  0.3227
  131OSM   C11F14093   3.498   5.594   3.614  0.3808  0.0282  0.4278
  131OSM   H11F14094   3.420   5.643   3.552  2.1532 -0.8240 -2.6893
  131OSM   H11G14095   3.577   5.573   3.538 -0.4736  0.0883 -0.4954
  131OSM   C12F14096   3.558   5.687   3.726 -0.2188 -0.6152  0.3416
  131OSM   H12F14097   3.582   5.781   3.671  2.4377 -1.0856  0.5521
  131OSM   H12G14098   3.654   5.647   3.764  0.8667  1.8287  0.4182
  131OSM   C13F14099   3.463   5.731   3.842 -0.5644  0.0373 -0.6074
  131OSM   H13F14100   3.533   5.785   3.910 -0.3608 -0.8812 -0.0717
  131OSM   H13G14101   3.431   5.637   3.891 -0.9648  1.5667  2.3152
  131OSM   C14F14102   3.355   5.824   3.794  0.4310 -0.3127  0.1861
  131OSM   H14F14103   3.316   5.774   3.702 -0.2055  2.1128 -0.9540
  131OSM   H14G14104   3.402   5.921   3.766 -1.4656  1.0871  1.6044
  131OSM   C15F14105   3.241   5.863   3.885  0.1801  0.5326  0.3407
  131OSM   H15F14106   3.185   5.769   3.902  1.4855  0.1234  2.9450
  131OSM   H15G14107   3.170   5.929   3.831 -0.8794 -1.6240 -1.0587
  131OSM   C16F14108   3.295   5.918   4.020  0.2316  0.7064 -0.1520
  131OSM   H16F14109   3.358   5.840   4.067 -1.4870 -1.4758 -1.2831
  131OSM   H16G14110   3.200   5.936   4.076 -0.4382 -0.8160 -0.7415
  131OSM   C17F14111   3.359   6.057   4.004  1.0781  0.1645  0.4660
  131OSM   H17F14112   3.306   6.103   3.918 -0.2131 -1.8205  0.1105
  131OSM   H17G14113   3.466   6.047   3.978  0.9880 -3.2523  0.8381
  131OSM   C18F14114   3.344   6.159   4.116  0.3168  0.2529  0.6110
  131OSM   H18F14115   3.237   6.182   4.136 -0.6542 -1.9851 -1.5016
  131OSM   H18G14116   3.386   6.253   4.073  3.1445 -1.1242  0.1173
  131OSM   H18H14117   3.403   6.126   4.204 -0.9749 -0.6556  1.1611
  132OSM      N14118   3.195   6.733   2.327 -0.2737 -0.1212 -0.5445
  132OSM    C1514119   3.284   6.613   2.323 -0.1588  0.0602 -0.7244
  132OSM   H15A14120   3.284   6.569   2.224  1.3103  0.9987 -1.1757
  132OSM   H15B14121   3.248   6.541   2.395 -1.1494  2.7037  1.5938
  132OSM   H15C14122   3.388   6.630   2.350 -0.6998  0.2627  1.3407
  132OSM    C1414123   3.231   6.809   2.453  0.7204  0.3615 -0.0665
  132OSM   H14A14124   3.229   6.747   2.541 -2.0430 -0.6952 -0.7863
  132OSM   H14B14125   3.162   6.889   2.477  0.9084  0.3052  0.6922
  132OSM   H14C14126   3.326   6.862   2.455  0.3986  0.9518 -0.1563
  132OSM    C1314127   3.234   6.828   2.212  0.1825  0.7401  0.8302
  132OSM   H13A14128   3.230   6.769   2.121 -1.9873  1.7937  0.1524
  132OSM   H13B14129   3.335   6.864   2.220  0.6623  0.4468 -2.5633
  132OSM   H13C14130   3.163   6.908   2.194  0.5983  0.9729  0.1902
  132OSM    C1214131   3.045   6.692   2.332 -0.0434  0.9712 -0.1769
  132OSM   H12A14132   3.029   6.629   2.246 -0.8373  1.3414 -0.3091
  132OSM   H12B14133   2.975   6.772   2.315 -1.2052 -0.2435 -1.3701
  132OSM    C1114134   2.994   6.625   2.467 -0.0997  0.1542  0.3781
  132OSM   H11A14135   2.883   6.629   2.465 -0.0849  0.7705 -1.9458
  132OSM   H11B14136   3.018   6.676   2.563 -4.3316  0.2811  1.5449
  132OSM      P14137   2.953   6.397   2.371 -0.2487 -0.1041 -0.2603
  132OSM    O1314138   2.898   6.470   2.256  0.2962  0.2774  0.4540
  132OSM    O1414139   3.041   6.280   2.347 -0.4629 -0.3640  0.5864
  132OSM    O1114140   2.836   6.350   2.460  0.6499  0.2931  0.5155
  132OSM    O1214141   3.039   6.493   2.471 -0.8214 -0.4144  0.0537
  132OSM    C1S14142   2.865   6.285   2.588 -0.2963 -0.3584  0.2606
  132OSM    H1S14143   2.961   6.229   2.583  0.3632  0.8767 -1.6573
  132OSM    H1T14144   2.782   6.217   2.616 -0.1170  0.9766  5.0225
  132OSM     NF14145   2.907   6.294   2.819 -0.0090 -0.5661  0.0299
  132OSM    HNF14146   2.828   6.253   2.865 -1.2045  2.0410  0.4856
  132OSM    C2S14147   2.867   6.379   2.706  0.5947 -0.1326  0.7129
  132OSM    H2S14148   2.944   6.459   2.700  1.6690 -1.2316 -1.3070
  132OSM    C3S14149   2.729   6.452   2.709  0.2077 -0.2268 -0.6813
  132OSM    H3S14150   2.658   6.371   2.685 -0.8654  0.3989  0.2512
  132OSM     O314151   2.702   6.552   2.610  0.2082  0.3416 -0.0827
  132OSM    HO314152   2.722   6.520   2.521  0.1381 -1.5673  0.5404
  132OSM    C4S14153   2.703   6.506   2.849 -0.6385  0.1269  0.2332
  132OSM    H4S14154   2.663   6.427   2.914  0.2833 -1.6428 -1.2629
  132OSM    C5S14155   2.725   6.633   2.892 -0.0637  0.0626  0.4751
  132OSM    H5S14156   2.762   6.708   2.820  0.6793 -0.0696  0.7166
  132OSM    C6S14157   2.681   6.676   3.028  0.8405 -0.0295 -0.4980
  132OSM    H6S14158   2.573   6.704   3.029  0.5835 -0.9696  1.0448
  132OSM    H6T14159   2.725   6.775   3.053  2.4051 -0.1666 -2.4458
  132OSM    C7S14160   2.694   6.574   3.150  0.3535 -0.3584 -0.3117
  132OSM    H7S14161   2.797   6.533   3.141  0.4642 -0.0894 -0.2580
  132OSM    H7T14162   2.625   6.488   3.132 -1.0512  0.4798  0.8211
  132OSM    C8S14163   2.679   6.635   3.292 -0.4025 -0.1163  0.4468
  132OSM    H8S14164   2.728   6.734   3.298  1.1269 -0.8643  0.8375
  132OSM    H8T14165   2.736   6.576   3.367 -0.4950  1.6000  1.9119
  132OSM    C9S14166   2.531   6.636   3.335 -0.3468  0.3813 -0.2057
  132OSM    H9S14167   2.485   6.536   3.346 -2.5404  1.1618 -1.5624
  132OSM    H9T14168   2.471   6.686   3.256 -0.5425  1.3134  0.5197
  132OSM   C10S14169   2.511   6.731   3.454 -0.5411  0.0706  0.7555
  132OSM   H10S14170   2.403   6.755   3.464 -0.7304 -0.7742  0.8288
  132OSM   H10T14171   2.571   6.822   3.435 -0.0648 -0.4625 -0.3645
  132OSM   C11S14172   2.551   6.682   3.591  0.0299  0.5925  0.7156
  132OSM   H11S14173   2.659   6.661   3.572 -0.3252 -0.7291  0.0609
  132OSM   H11T14174   2.507   6.584   3.617  1.0227  0.8297  3.6586
  132OSM   C12S14175   2.521   6.774   3.706 -0.1155 -0.4563  0.1649
  132OSM   H12S14176   2.433   6.841   3.694  1.8197  2.1608 -0.6280
  132OSM   H12T14177   2.603   6.850   3.709 -0.3076 -0.1596 -1.3930
  132OSM   C13S14178   2.546   6.695   3.834  0.0444  0.0618  0.1597
  132OSM   H13S14179   2.622   6.615   3.820  0.1610  0.1752  0.1423
  132OSM   H13T14180   2.453   6.641   3.862  0.2110 -0.7550 -0.7882
  132OSM   C14S14181   2.585   6.781   3.962 -0.3079 -0.2937  0.3110
  132OSM   H14S14182   2.657   6.856   3.924 -0.5825  0.7989  1.8661
  132OSM   H14T14183   2.641   6.723   4.039  0.9646  0.4104 -0.0607
  132OSM   C15S14184   2.471   6.854   4.033 -0.1957 -0.3884 -0.5626
  132OSM   H15S14185   2.391   6.788   4.074  0.3192  0.4131  1.9260
  132OSM   H15T14186   2.426   6.931   3.967 -0.4415  1.1090  1.2597
  132OSM   C16S14187   2.512   6.927   4.162  0.3137  0.2575  0.8289
  132OSM   H16S14188   2.515   6.846   4.238  1.0879 -1.2456 -0.7509
  132OSM   H16T14189   2.441   7.006   4.197  0.2909  0.5140  0.2145
  132OSM   C17S14190   2.648   6.997   4.171 -1.3400 -0.1416 -0.2054
  132OSM   H17S14191   2.731   6.925   4.154 -1.3109 -0.4798  1.2387
  132OSM   H17T14192   2.647   7.031   4.276  1.2298 -0.0616 -0.1431
  132OSM   C18S14193   2.665   7.127   4.084 -0.4086  0.1500  0.5561
  132OSM   H18S14194   2.584   7.201   4.098 -0.8440 -0.2651  0.2508
  132OSM   H18T14195   2.655   7.104   3.975 -1.2706  1.5116  0.3265
  132OSM   H18U14196   2.772   7.155   4.094 -0.2706  0.8242 -1.9715
  132OSM    C1F14197   3.029   6.255   2.834  0.4491  0.1025 -0.5197
  132OSM     OF14198   3.119   6.300   2.769 -0.2587  0.4799 -0.2785
  132OSM    C2F14199   3.049   6.147   2.935 -0.1784 -0.7911 -0.1476
  132OSM    H2F14200   3.018   6.053   2.886 -0.5641 -1.3377  1.1171
  132OSM    H2G14201   2.992   6.168   3.028  1.8205 -2.1911  1.4940
  132OSM    C3F14202   3.202   6.133   2.982 -0.2584  0.3302  0.2941
  132OSM    H3F14203   3.257   6.119   2.887  0.4158  1.4871  0.5024
  132OSM    H3G14204   3.198   6.039   3.041 -0.0093  0.7208  0.9504
  132OSM    C4F14205   3.260   6.261   3.052 -0.5658 -0.2637 -0.9998
  132OSM    H4F14206   3.264   6.340   2.974 -0.2331  0.9563  0.2150
  132OSM    H4G14207   3.364   6.235   3.078 -0.5241 -1.1234 -1.9626
  132OSM    C5F14208   3.185   6.316   3.176 -0.1409  0.0297  0.4933
  132OSM    H5F14209   3.186   6.236   3.254  2.2703  0.1168  0.6092
  132OSM    H5G14210   3.080   6.352   3.164  0.0872  0.7698  0.6885
  132OSM    C6F14211   3.269   6.425   3.229 -0.0042 -0.5372 -0.2206
  132OSM    H6F14212   3.254   6.515   3.165  0.8568  0.3745  0.8255
  132OSM    H6G14213   3.378   6.406   3.222  0.2497  0.4144  0.8350
  132OSM    C7F14214   3.218   6.474   3.369  0.6003 -0.4959  0.0818
  132OSM    H7F14215   3.108   6.474   3.353  0.6556  0.9464 -0.4597
  132OSM    H7G14216   3.243   6.582   3.378  0.6832 -0.5120  0.0423
  132OSM    C8F14217   3.267   6.400   3.493 -0.5230 -0.0360  0.0247
  132OSM    H8F14218   3.284   6.294   3.464 -0.2175 -0.3715  1.3474
  132OSM    H8G14219   3.189   6.409   3.572 -0.7001 -0.0022 -0.1548
  132OSM    C9F14220   3.401   6.452   3.520 -0.3621 -0.3622  0.1645
  132OSM    H9F14221   3.455   6.484   3.430 -0.1852 -0.8617  0.0930
  132OSM   C10F14222   3.459   6.475   3.642  0.1294 -0.4215 -0.3141
  132OSM   H10F14223   3.559   6.522   3.648 -0.4875  0.8784  0.0829
  132OSM   C11F14224   3.405   6.444   3.781 -0.0274  0.6803  0.0334
  132OSM   H11F14225   3.456   6.358   3.827  0.6363  0.7153 -0.6207
  132OSM   H11G14226   3.300   6.407   3.775  0.6058 -1.5291  1.5321
  132OSM   C12F14227   3.414   6.567   3.873 -0.7266 -0.2846  0.2662
  132OSM   H12F14228   3.357   6.650   3.825  0.2920  0.8092  0.8960
  132OSM   H12G14229   3.520   6.598   3.878 -1.2859  1.5617  2.1427
  132OSM   C13F14230   3.353   6.558   4.019  0.4911  0.5982  0.0041
  132OSM   H13F14231   3.381   6.644   4.083 -1.8324  0.9783  0.5790
  132OSM   H13G14232   3.392   6.462   4.060 -1.0111 -0.8763 -1.8162
  132OSM   C14F14233   3.200   6.546   4.018 -0.3354 -0.2775 -0.1323
  132OSM   H14F14234   3.155   6.457   3.969  0.3762 -1.2707  0.9559
  132OSM   H14G14235   3.158   6.633   3.963  1.0970  0.7980  0.4113
  132OSM   C15F14236   3.136   6.578   4.152 -0.5801  0.2346  0.3312
  132OSM   H15F14237   3.193   6.667   4.186  0.5780  0.6298 -2.3879
  132OSM   H15G14238   3.154   6.508   4.236 -0.1586 -0.0261  0.0281
  132OSM   C16F14239   2.987   6.618   4.132 -0.8888 -0.1791 -0.1618
  132OSM   H16F14240   2.938   6.538   4.074 -0.1521  0.8107 -2.2385
  132OSM   H16G14241   2.983   6.706   4.065 -0.3906 -1.2081 -1.5987
  132OSM   C17F14242   2.909   6.653   4.256  0.4828  0.5527 -0.8448
  132OSM   H17F14243   2.914   6.562   4.320  2.8519  0.6096 -0.8872
  132OSM   H17G14244   2.802   6.673   4.233  0.5571  1.8043 -0.2138
  132OSM   C18F14245   2.956   6.777   4.345 -0.5274  0.6991  0.2621
  132OSM   H18F14246   2.902   6.766   4.442 -0.6267  1.6397  0.3159
  132OSM   H18G14247   2.932   6.873   4.297  0.3680  0.6863 -0.2365
  132OSM   H18H14248   3.064   6.767   4.369 -0.5280 -1.5714 -0.4489
  133OSM      N14249   0.810   1.654   1.492 -0.0858  0.6472  0.1399
  133OSM    C1514250   0.746   1.752   1.584 -0.2516  0.3909 -0.3183
  133OSM   H15A14251   0.746   1.849   1.538  1.1080  0.8771  0.6159
  133OSM   H15B14252   0.812   1.753   1.670  0.9913 -0.7016 -1.2147
  133OSM   H15C14253   0.651   1.712   1.616 -0.2959 -1.5317 -2.5585
  133OSM    C1414254   0.741   1.660   1.355 -0.1994 -0.6041  0.1177
  133OSM   H14A14255   0.761   1.752   1.301  0.5332 -0.5510  0.4662
  133OSM   H14B14256   0.635   1.641   1.357 -0.1964 -0.5962  1.6631
  133OSM   H14C14257   0.787   1.575   1.307 -0.0814 -0.8566  0.6758
  133OSM    C1314258   0.953   1.691   1.462 -0.0686 -0.6324  0.4438
  133OSM   H13A14259   0.963   1.793   1.427  0.4905 -0.4509  1.0876
  133OSM   H13B14260   0.991   1.633   1.379  2.0629 -0.8525  1.4976
  133OSM   H13C14261   1.018   1.667   1.545  0.7204 -1.0614 -0.2885
  133OSM    C1214262   0.805   1.510   1.547  0.3607  0.0725  0.4573
  133OSM   H12A14263   0.874   1.447   1.492 -1.4047 -0.6800 -1.0066
  133OSM   H12B14264   0.704   1.472   1.539  0.4772 -0.2593  0.5281
  133OSM    C1114265   0.854   1.494   1.691  0.1713  0.2149 -0.2441
  133OSM   H11A14266   0.812   1.392   1.706 -1.5018  0.9508  0.3529
  133OSM   H11B14267   0.793   1.555   1.762 -0.2973 -1.6095  0.9879
  133OSM      P14268   1.088   1.382   1.677 -0.0283 -0.4719  0.2225
  133OSM    O1314269   1.068   1.334   1.537  0.2057 -0.2501  0.1628
  133OSM    O1414270   1.223   1.413   1.714  0.2899 -0.2068 -0.0318
  133OSM    O1114271   1.034   1.277   1.777  0.3011 -0.0750  0.1526
  133OSM    O1214272   0.996   1.504   1.708  0.6759  0.4681  0.3133
  133OSM    C1S14273   1.097   1.255   1.901  0.0009  0.0574 -0.2961
  133OSM    H1S14274   1.167   1.336   1.929  2.5614 -1.7558 -1.0516
  133OSM    H1T14275   1.146   1.155   1.899 -1.7208 -0.8255 -1.3289
  133OSM     NF14276   1.055   1.265   2.150  0.1780 -0.2051  0.1477
  133OSM    HNF14277   1.066   1.186   2.210 -2.1707  0.5024  1.6525
  133OSM    C2S14278   0.989   1.250   2.019  0.5540 -0.3954  0.2918
  133OSM    H2S14279   0.936   1.343   1.990  2.1173  0.0091 -1.4496
  133OSM    C3S14280   0.895   1.130   1.995  0.2610 -0.0371  0.2081
  133OSM    H3S14281   0.956   1.038   2.004 -0.2945 -0.6700 -1.9176
  133OSM     O314282   0.835   1.123   1.868 -0.5701  0.2180 -0.2654
  133OSM    HO314283   0.876   1.198   1.824  0.3186  0.1113  0.3610
  133OSM    C4S14284   0.787   1.144   2.100 -0.0651 -0.1562  0.4720
  133OSM    H4S14285   0.809   1.081   2.188 -0.0282 -1.0766 -0.1853
  133OSM    C5S14286   0.680   1.223   2.092 -0.1920  0.6624  0.2449
  133OSM    H5S14287   0.649   1.278   2.002 -1.7683  0.6746  0.7667
  133OSM    C6S14288   0.584   1.230   2.208  0.9191  0.0323 -0.0033
  133OSM    H6S14289   0.516   1.142   2.212  0.6595  0.2449  0.3116
  133OSM    H6T14290   0.511   1.311   2.188  0.7907 -0.2489 -0.6741
  133OSM    C7S14291   0.642   1.246   2.349  0.6335  0.8664 -0.2500
  133OSM    H7S14292   0.707   1.336   2.347  0.8032  0.7623  0.3675
  133OSM    H7T14293   0.693   1.154   2.385 -0.9867  0.2650  0.6162
  133OSM    C8S14294   0.535   1.273   2.456 -0.4201 -0.0362  0.0309
  133OSM    H8S14295   0.468   1.185   2.467  1.8707 -1.7466  1.0435
  133OSM    H8T14296   0.480   1.369   2.438 -0.9221  0.0586  1.8290
  133OSM    C9S14297   0.585   1.285   2.596 -1.1650 -1.2965  0.0596
  133OSM    H9S14298   0.637   1.383   2.590 -2.9519 -0.3842 -1.9660
  133OSM    H9T14299   0.668   1.212   2.611 -0.7978 -0.9387 -0.2144
  133OSM   C10S14300   0.467   1.293   2.692  0.0895  0.4003  0.5507
  133OSM   H10S14301   0.425   1.190   2.698 -1.0549  0.8194 -0.0494
  133OSM   H10T14302   0.396   1.371   2.658  0.5992  0.7344  0.2257
  133OSM   C11S14303   0.510   1.336   2.828 -0.7236 -0.3421 -0.4021
  133OSM   H11S14304   0.543   1.441   2.840  1.9614 -1.2342  0.6457
  133OSM   H11T14305   0.602   1.276   2.844 -1.2625 -1.9973 -2.9147
  133OSM   C12S14306   0.405   1.319   2.936  0.4413  0.8262 -0.3340
  133OSM   H12S14307   0.355   1.220   2.935 -0.0610  1.0313  1.1792
  133OSM   H12T14308   0.316   1.382   2.915 -1.0532 -1.4542 -1.2624
  133OSM   C13S14309   0.466   1.344   3.078 -0.0427  0.4948  0.3034
  133OSM   H13S14310   0.518   1.442   3.074  1.8932 -0.4657  0.6999
  133OSM   H13T14311   0.552   1.280   3.107  0.4988  2.0922  2.5292
  133OSM   C14S14312   0.368   1.349   3.195 -0.0889  0.5573 -0.2996
  133OSM   H14S14313   0.332   1.247   3.221 -0.1014  0.7231  0.3369
  133OSM   H14T14314   0.278   1.412   3.176 -2.6575 -1.7177  3.1406
  133OSM   C15S14315   0.434   1.394   3.321 -0.4345  0.5438 -0.3388
  133OSM   H15S14316   0.495   1.486   3.313  2.5122 -1.2099  0.3962
  133OSM   H15T14317   0.510   1.319   3.354 -0.2466  0.9841  0.2487
  133OSM   C16S14318   0.330   1.418   3.433 -0.1849 -0.2886 -0.1244
  133OSM   H16S14319   0.282   1.515   3.410 -0.2703 -0.0650  0.9363
  133OSM   H16T14320   0.377   1.449   3.530 -3.7971  1.6053  1.2146
  133OSM   C17S14321   0.225   1.310   3.465  0.2877  0.0772 -0.0814
  133OSM   H17S14322   0.281   1.217   3.486  0.3246 -0.0632 -0.7780
  133OSM   H17T14323   0.169   1.301   3.370  2.5001  0.6822 -1.5197
  133OSM   C18S14324   0.125   1.353   3.576  0.4232 -0.8007 -0.5572
  133OSM   H18S14325   0.043   1.278   3.572  0.0033 -0.4033  0.3062
  133OSM   H18T14326   0.082   1.454   3.558  0.6427 -0.5658  0.2087
  133OSM   H18U14327   0.169   1.340   3.677  0.0386 -2.4235 -0.5734
  133OSM    C1F14328   1.102   1.387   2.184  0.4412 -0.1373 -0.3348
  133OSM     OF14329   1.071   1.482   2.118  0.4190 -0.4544  0.3128
  133OSM    C2F14330   1.180   1.392   2.313 -0.2975 -0.2260  0.6273
  133OSM    H2F14331   1.277   1.343   2.291  0.9993  2.3574  0.0980
  133OSM    H2G14332   1.125   1.340   2.394 -0.5043  0.1385  0.7253
  133OSM    C3F14333   1.230   1.537   2.349  0.0860 -0.1903 -0.5112
  133OSM    H3F14334   1.131   1.587   2.359 -1.2453 -2.5963 -0.8648
  133OSM    H3G14335   1.290   1.585   2.269  0.3704 -2.5226 -1.7916
  133OSM    C4F14336   1.323   1.557   2.474  0.0586  0.1265  0.5452
  133OSM    H4F14337   1.334   1.667   2.482  0.0996  0.3127 -1.5253
  133OSM    H4G14338   1.422   1.515   2.446 -0.6762 -0.0447 -2.1383
  133OSM    C5F14339   1.264   1.501   2.607  0.1089 -1.1959  0.3182
  133OSM    H5F14340   1.252   1.390   2.606 -0.9172 -1.0956  0.5409
  133OSM    H5G14341   1.162   1.537   2.631  0.0063 -2.5640  2.1717
  133OSM    C6F14342   1.355   1.528   2.729 -0.3656  0.6618 -0.0582
  133OSM    H6F14343   1.374   1.637   2.742 -1.4097  0.8677 -0.1421
  133OSM    H6G14344   1.452   1.485   2.697  0.0760  1.0770  0.7029
  133OSM    C7F14345   1.313   1.450   2.861 -0.6805 -0.1550  0.3089
  133OSM    H7F14346   1.384   1.471   2.944  0.1121 -0.5593 -0.2521
  133OSM    H7G14347   1.322   1.342   2.840  0.0187  0.0062 -0.2819
  133OSM    C8F14348   1.179   1.506   2.915 -0.8481  0.2164 -0.2367
  133OSM    H8F14349   1.160   1.459   3.014 -1.2472  0.2005 -0.3170
  133OSM    H8G14350   1.102   1.478   2.840 -1.8957  2.1043  0.0682
  133OSM    C9F14351   1.178   1.660   2.933  0.4856 -0.3794  0.3252
  133OSM    H9F14352   1.200   1.722   2.845  3.2302  2.0559  2.5527
  133OSM   C10F14353   1.152   1.736   3.042 -0.7864  0.4426 -0.4128
  133OSM   H10F14354   1.151   1.845   3.026 -0.4888  0.3061 -1.4613
  133OSM   C11F14355   1.128   1.694   3.185 -0.0413 -0.0055  0.8808
  133OSM   H11F14356   1.145   1.584   3.190 -0.6774 -0.2379 -1.1166
  133OSM   H11G14357   1.026   1.715   3.225 -1.0933 -3.1263  0.1262
  133OSM   C12F14358   1.238   1.754   3.283 -0.3089 -0.3772 -0.1315
  133OSM   H12F14359   1.253   1.864   3.277 -3.0168  0.0131 -0.7643
  133OSM   H12G14360   1.333   1.706   3.248 -0.2841 -0.7332  0.4200
  133OSM   C13F14361   1.218   1.721   3.430 -0.6187  0.0076 -0.2289
  133OSM   H13F14362   1.314   1.693   3.479 -1.3211  0.1475  1.2549
  133OSM   H13G14363   1.168   1.622   3.423 -2.1788  0.7615 -0.1871
  133OSM   C14F14364   1.140   1.821   3.509 -0.4614 -0.5685 -0.2805
  133OSM   H14F14365   1.037   1.823   3.468 -0.0046 -2.2344 -1.6317
  133OSM   H14G14366   1.195   1.917   3.508 -0.7989 -0.3635  0.3874
  133OSM   C15F14367   1.120   1.783   3.654 -0.5913  0.1046 -0.1832
  133OSM   H15F14368   1.052   1.695   3.661  0.0181 -0.4909 -1.5412
  133OSM   H15G14369   1.079   1.866   3.715  1.3815  2.1164 -1.4446
  133OSM   C16F14370   1.255   1.745   3.729 -0.5309 -0.7481  0.2019
  133OSM   H16F14371   1.327   1.829   3.725 -1.5325  0.1008 -0.7264
  133OSM   H16G14372   1.305   1.655   3.686  0.2689 -0.2576  0.0770
  133OSM   C17F14373   1.218   1.717   3.875  0.2510  0.7309 -0.5403
  133OSM   H17F14374   1.133   1.781   3.907 -2.4041 -2.8093  0.0753
  133OSM   H17G14375   1.310   1.730   3.936 -0.2943 -1.4038  0.8427
  133OSM   C18F14376   1.156   1.571   3.901  0.0127  0.1226  0.0689
  133OSM   H18F14377   1.067   1.543   3.841  0.2570 -1.6656  0.4934
  133OSM   H18G14378   1.137   1.568   4.010  1.8484  0.6364  0.4426
  133OSM   H18H14379   1.233   1.494   3.878  2.0803  2.5946 -1.9252
  134OSM      N14380   2.578   4.255   2.357  0.7999  0.1091  0.4529
  134OSM    C1514381   2.585   4.288   2.212 -0.1150  0.0363  0.2986
  134OSM   H15A14382   2.490   4.314   2.166  1.4613  1.2468 -2.5444
  134OSM   H15B14383   2.623   4.204   2.156  1.2899  1.3901 -0.8745
  134OSM   H15C14384   2.658   4.364   2.188 -0.2171 -0.1710 -0.7088
  134OSM    C1414385   2.717   4.216   2.395 -0.0798  0.3367 -0.9792
  134OSM   H14A14386   2.739   4.119   2.354  0.3949 -0.1309  0.3332
  134OSM   H14B14387   2.732   4.223   2.501  0.5732 -0.9257 -0.9731
  134OSM   H14C14388   2.782   4.292   2.352 -0.0922  0.9170  0.0108
  134OSM    C1314389   2.546   4.378   2.436 -0.9234  0.1518 -0.2484
  134OSM   H13A14390   2.625   4.450   2.419 -0.3379  0.0135  1.6838
  134OSM   H13B14391   2.546   4.349   2.540  0.9411 -1.3741 -0.5980
  134OSM   H13C14392   2.448   4.418   2.418 -1.3989 -0.5517  0.6912
  134OSM    C1214393   2.472   4.148   2.372  0.7272 -0.0601  0.4842
  134OSM   H12A14394   2.496   4.059   2.316  0.8527 -1.0921  2.1236
  134OSM   H12B14395   2.383   4.181   2.322  1.3476 -1.6257 -1.8087
  134OSM    C1114396   2.424   4.109   2.509  0.4149  0.2785 -0.5363
  134OSM   H11A14397   2.515   4.107   2.574  0.5854 -1.2055 -0.7916
  134OSM   H11B14398   2.389   4.004   2.508  1.6543 -0.1582  0.0815
  134OSM      P14399   2.173   4.163   2.502  0.0984 -0.3217  0.0578
  134OSM    O1314400   2.185   4.165   2.355  0.1666  0.0380 -0.1546
  134OSM    O1414401   2.118   4.045   2.572 -0.1908  0.3194  0.1710
  134OSM    O1114402   2.095   4.293   2.550  0.2928  0.0330 -0.2050
  134OSM    O1214403   2.315   4.193   2.556  0.2806  0.5316  0.0766
  134OSM    C1S14404   2.079   4.310   2.696  0.1136 -0.1676  0.1751
  134OSM    H1S14405   2.161   4.255   2.747  0.3759  0.5297  0.5187
  134OSM    H1T14406   1.979   4.274   2.729  0.3896 -0.5884  0.5612
  134OSM     NF14407   2.055   4.487   2.870  0.6443  0.2052 -0.2340
  134OSM    HNF14408   1.971   4.540   2.885  0.1621  0.3192 -2.7901
  134OSM    C2S14409   2.079   4.465   2.729  0.0386 -0.3227  0.2021
  134OSM    H2S14410   2.182   4.499   2.709  0.3054 -1.2699 -0.1210
  134OSM    C3S14411   1.990   4.541   2.629  0.2806  0.3828 -0.4077
  134OSM    H3S14412   1.885   4.505   2.639  0.6745 -0.6851  0.0095
  134OSM     O314413   2.024   4.535   2.491  0.1017  0.3467  0.3612
  134OSM    HO314414   2.080   4.457   2.486 -1.1779 -0.5732 -0.2068
  134OSM    C4S14415   1.997   4.682   2.667  0.5147  0.4805 -0.2394
  134OSM    H4S14416   2.100   4.713   2.687  0.7236  0.4193 -1.1724
  134OSM    C5S14417   1.900   4.766   2.692  0.9094 -0.0317  0.5111
  134OSM    H5S14418   1.797   4.736   2.670  0.7412  1.1108 -0.3352
  134OSM    C6S14419   1.928   4.911   2.733  0.4261 -0.1644  0.5299
  134OSM    H6S14420   1.882   4.977   2.657  0.8264  0.1894  0.5951
  134OSM    H6T14421   2.034   4.922   2.703  0.3672 -3.2552 -1.3135
  134OSM    C7S14422   1.896   4.961   2.870  0.2653 -0.2968 -0.4051
  134OSM    H7S14423   1.787   4.978   2.884  0.7023  1.6305  1.1341
  134OSM    H7T14424   1.944   5.058   2.890 -1.5937  0.5746  0.0581
  134OSM    C8S14425   1.939   4.869   2.988 -0.4231  0.3562 -0.5092
  134OSM    H8S14426   2.047   4.853   2.967 -0.7147 -2.8906 -0.0399
  134OSM    H8T14427   1.909   4.763   2.978  1.0614 -0.1459  0.1478
  134OSM    C9S14428   1.907   4.930   3.125 -1.0118 -0.0643  1.0369
  134OSM    H9S14429   1.799   4.918   3.149 -1.1565 -1.1201 -0.0412
  134OSM    H9T14430   1.938   5.036   3.120 -0.8794 -0.1457 -3.2088
  134OSM   C10S14431   1.982   4.863   3.237  0.3437 -0.1592  0.1434
  134OSM   H10S14432   2.091   4.867   3.215  0.4686 -0.2392  0.7225
  134OSM   H10T14433   1.952   4.756   3.241 -3.1056  0.6600 -0.8098
  134OSM   C11S14434   1.951   4.922   3.374 -1.8688  0.1256  0.0308
  134OSM   H11S14435   1.841   4.933   3.391 -1.8732  0.2840 -0.1000
  134OSM   H11T14436   1.979   5.029   3.365 -1.3072  0.0060  0.3617
  134OSM   C12S14437   2.026   4.855   3.490 -0.6118  0.2199  0.3176
  134OSM   H12S14438   2.132   4.849   3.458 -1.1758 -1.7427 -1.3858
  134OSM   H12T14439   1.982   4.753   3.501 -0.2087  0.2103  2.1989
  134OSM   C13S14440   2.003   4.928   3.621  0.0375 -0.0313  0.2881
  134OSM   H13S14441   1.912   4.885   3.667 -0.6188 -0.6251 -1.4950
  134OSM   H13T14442   1.990   5.038   3.608  0.7483  0.0880  0.5466
  134OSM   C14S14443   2.110   4.899   3.730  0.5782  0.1689  0.4330
  134OSM   H14S14444   2.211   4.927   3.695  0.7586 -0.7310  0.2127
  134OSM   H14T14445   2.102   4.789   3.741  0.8155 -0.0137 -1.0494
  134OSM   C15S14446   2.080   4.966   3.872  0.2723  0.1135 -0.2770
  134OSM   H15S14447   1.969   4.961   3.875  0.2271 -0.0132 -1.6718
  134OSM   H15T14448   2.124   5.068   3.867  1.1445 -0.2839 -1.0091
  134OSM   C16S14449   2.138   4.904   4.007  0.8095  0.1759  0.2130
  134OSM   H16S14450   2.247   4.892   3.988  0.4393 -1.3035 -1.1560
  134OSM   H16T14451   2.087   4.808   4.027 -1.7350  0.7137 -2.8365
  134OSM   C17S14452   2.119   4.994   4.132 -0.1187  0.4769  0.4758
  134OSM   H17S14453   2.010   5.016   4.128 -0.2120 -0.0927 -0.5514
  134OSM   H17T14454   2.173   5.089   4.110  0.9948 -0.3442 -0.5042
  134OSM   C18S14455   2.152   4.935   4.269  0.2396 -0.2154 -0.1921
  134OSM   H18S14456   2.080   4.851   4.285 -1.2305  0.7357 -1.4597
  134OSM   H18T14457   2.132   5.001   4.357  1.1676 -1.7111  1.2034
  134OSM   H18U14458   2.260   4.912   4.266  1.2552  3.8945 -0.5441
  134OSM    C1F14459   2.133   4.438   2.963 -0.2098 -0.1030  0.1695
  134OSM     OF14460   2.244   4.389   2.930  0.3550 -0.8303  0.2164
  134OSM    C2F14461   2.080   4.435   3.102 -0.3819 -0.1491 -0.2902
  134OSM    H2F14462   2.040   4.335   3.132  0.5584 -0.6795 -0.7785
  134OSM    H2G14463   2.001   4.512   3.115 -1.8252 -1.8921  2.3130
  134OSM    C3F14464   2.186   4.482   3.210 -0.7925 -0.4425  0.3535
  134OSM    H3F14465   2.230   4.572   3.162  0.4361 -0.5741  1.1993
  134OSM    H3G14466   2.264   4.404   3.220 -2.1998 -2.2938 -2.0297
  134OSM    C4F14467   2.121   4.512   3.348  0.7952 -0.0356  0.2151
  134OSM    H4F14468   2.074   4.427   3.402 -0.6469  1.0405  0.7093
  134OSM    H4G14469   2.046   4.590   3.322  0.8821  0.1363  0.4759
  134OSM    C5F14470   2.219   4.578   3.448  0.2208  0.6374  0.2558
  134OSM    H5F14471   2.160   4.624   3.530  0.2235 -0.4982  0.9197
  134OSM    H5G14472   2.280   4.651   3.392  1.9492 -1.9219 -1.4224
  134OSM    C6F14473   2.317   4.488   3.519 -0.6387  0.0480  0.7987
  134OSM    H6F14474   2.378   4.434   3.443  1.3058  1.4022  1.3308
  134OSM    H6G14475   2.267   4.413   3.584  2.1284 -0.7178  2.1767
  134OSM    C7F14476   2.415   4.561   3.612  0.4604 -0.7574 -0.0331
  134OSM    H7F14477   2.443   4.651   3.553 -2.0591  0.0142 -0.1345
  134OSM    H7G14478   2.501   4.492   3.630  1.1997 -0.4669 -2.1012
  134OSM    C8F14479   2.354   4.603   3.751 -0.0726 -0.0340 -0.3475
  134OSM    H8F14480   2.273   4.677   3.740 -0.2596 -0.0744  0.7029
  134OSM    H8G14481   2.437   4.650   3.809  2.4070 -1.0576 -2.8065
  134OSM    C9F14482   2.301   4.494   3.832  0.0112  0.1256  0.2224
  134OSM    H9F14483   2.193   4.482   3.847  0.3517  0.1442  3.3772
  134OSM   C10F14484   2.371   4.418   3.919  0.3440 -0.2608  0.2607
  134OSM   H10F14485   2.328   4.346   3.990 -0.1235 -0.6129 -0.3642
  134OSM   C11F14486   2.516   4.418   3.929 -0.3059  0.0320  0.0849
  134OSM   H11F14487   2.574   4.479   3.855 -0.9852  1.3804  0.6322
  134OSM   H11G14488   2.563   4.318   3.919  1.8159  0.7753  1.8767
  134OSM   C12F14489   2.571   4.475   4.066 -0.2863 -0.1542 -0.1019
  134OSM   H12F14490   2.667   4.423   4.089  0.3946  1.0486 -0.1629
  134OSM   H12G14491   2.497   4.450   4.145 -1.7705 -1.7998 -1.9346
  134OSM   C13F14492   2.607   4.623   4.069 -0.1215  1.1376  0.1166
  134OSM   H13F14493   2.518   4.669   4.021 -0.6677  1.0568  1.0095
  134OSM   H13G14494   2.694   4.633   4.001 -1.3355  0.1568 -1.6506
  134OSM   C14F14495   2.638   4.679   4.211 -0.0088 -0.1039  0.2060
  134OSM   H14F14496   2.742   4.656   4.244  0.6215  0.8802 -1.0198
  134OSM   H14G14497   2.577   4.618   4.281 -1.0146 -0.3840 -0.8847
  134OSM   C15F14498   2.610   4.829   4.217 -0.1329  0.2976  0.3574
  134OSM   H15F14499   2.503   4.856   4.205  0.1440  1.4376  0.3249
  134OSM   H15G14500   2.667   4.877   4.134  0.5026  0.7350  1.0279
  134OSM   C16F14501   2.648   4.896   4.357  0.6710  0.3113  0.1669
  134OSM   H16F14502   2.755   4.877   4.379  1.0564 -0.5955 -2.2196
  134OSM   H16G14503   2.596   4.843   4.439  0.2374 -0.2648 -0.4676
  134OSM   C17F14504   2.611   5.045   4.369 -0.4050  0.2065 -0.1645
  134OSM   H17F14505   2.505   5.070   4.349 -0.6509  0.0710  0.9264
  134OSM   H17G14506   2.663   5.104   4.291  1.5567  1.8119  2.1983
  134OSM   C18F14507   2.644   5.101   4.508  0.4517 -0.3100 -0.7530
  134OSM   H18F14508   2.599   5.201   4.493  1.2082 -0.1903 -2.4451
  134OSM   H18G14509   2.753   5.116   4.526  0.4991  1.3905 -2.1333
  134OSM   H18H14510   2.595   5.057   4.597  2.5269 -0.4766  0.3710
  135OSM      N14511   1.994   0.434   1.652 -0.5359  0.0053  0.2662
  135OSM    C1514512   1.882   0.334   1.670  0.4986  0.2910  0.4074
  135OSM   H15A14513   1.928   0.248   1.716 -1.2394 -0.3538  1.0011
  135OSM   H15B14514   1.859   0.300   1.571 -0.6989  1.8027  0.1291
  135OSM   H15C14515   1.789   0.370   1.712  0.4018  1.5732 -0.8077
  135OSM    C1414516   2.101   0.375   1.565  0.5272  0.9944 -0.7822
  135OSM   H14A14517   2.056   0.318   1.484  0.9591 -0.7593  0.1728
  135OSM   H14B14518   2.164   0.304   1.616 -0.0835 -0.2628 -1.7112
  135OSM   H14C14519   2.153   0.461   1.526  0.4408  0.9397 -1.0257
  135OSM    C1314520   1.935   0.557   1.579  0.0919  0.4101 -0.0189
  135OSM   H13A14521   1.863   0.605   1.644  0.9903  0.7004  0.7823
  135OSM   H13B14522   1.884   0.524   1.490 -1.2873  2.4262 -0.0492
  135OSM   H13C14523   2.012   0.626   1.550  0.1241  0.1523 -0.5579
  135OSM    C1214524   2.062   0.477   1.784 -0.0664 -0.2040  0.8515
  135OSM   H12A14525   1.989   0.543   1.828 -2.0369 -1.4655 -0.3723
  135OSM   H12B14526   2.143   0.544   1.757  0.1730  0.1254  2.3095
  135OSM    C1114527   2.104   0.367   1.882  0.2382 -0.1403 -0.4916
  135OSM   H11A14528   2.017   0.302   1.904  1.1034 -1.1730 -0.0759
  135OSM   H11B14529   2.130   0.410   1.981  1.6766 -2.3721  0.1597
  135OSM      P14530   2.355   0.285   1.867 -0.1803  0.0483 -0.0115
  135OSM    O1314531   2.419   0.167   1.812 -0.6409  0.1909 -0.2131
  135OSM    O1414532   2.420   0.415   1.823 -0.0072  0.2846 -0.3791
  135OSM    O1114533   2.354   0.274   2.025  0.3243 -0.0283 -0.0037
  135OSM    O1214534   2.206   0.288   1.825 -0.5029  0.0788  0.4192
  135OSM    C1S14535   2.300   0.149   2.078 -0.0674 -0.2121  0.2774
  135OSM    H1S14536   2.358   0.062   2.042 -1.6837 -0.9107 -0.7754
  135OSM    H1T14537   2.196   0.137   2.040 -0.4429 -0.9891  1.4785
  135OSM     NF14538   2.222   0.012   2.280 -0.5458  0.5220  0.6063
  135OSM    HNF14539   2.124   0.002   2.290 -0.6905 -0.0988 -1.0964
  135OSM    C2S14540   2.276   0.137   2.238  0.0661  0.3624 -0.1185
  135OSM    H2S14541   2.377   0.156   2.281 -0.5421  0.4481  1.3446
  135OSM    C3S14542   2.187   0.253   2.297  0.7065  0.1443 -0.1736
  135OSM    H3S14543   2.083   0.239   2.260  0.1284 -0.4743  1.5784
  135OSM     O314544   2.232   0.378   2.252  0.1190 -0.0129  0.1552
  135OSM    HO314545   2.271   0.350   2.169  1.6332  1.6372  0.2405
  135OSM    C4S14546   2.185   0.246   2.444 -0.4314  0.5757 -0.2009
  135OSM    H4S14547   2.277   0.283   2.492  0.9697 -1.5680 -1.0521
  135OSM    C5S14548   2.086   0.200   2.518  0.0624  0.0569  0.4325
  135OSM    H5S14549   1.992   0.165   2.473  0.6735  0.5965 -1.3680
  135OSM    C6S14550   2.094   0.186   2.664 -0.1803 -0.0583 -0.4533
  135OSM    H6S14551   2.193   0.192   2.714 -0.6381 -0.2392  0.5031
  135OSM    H6T14552   2.051   0.086   2.689 -0.8723 -0.0771 -1.6471
  135OSM    C7S14553   2.011   0.290   2.736 -0.4911  0.1750  0.1833
  135OSM    H7S14554   1.909   0.304   2.693 -0.2499 -1.4142 -0.9964
  135OSM    H7T14555   2.056   0.390   2.727 -0.8720  0.4512  1.2000
  135OSM    C8S14556   1.989   0.261   2.883 -0.0930 -0.6101  0.0129
  135OSM    H8S14557   2.084   0.232   2.934  0.0893 -0.0829 -0.0271
  135OSM    H8T14558   1.917   0.176   2.885 -1.7376  0.6305 -1.9549
  135OSM    C9S14559   1.939   0.372   2.979 -0.0670 -0.4742 -0.1213
  135OSM    H9S14560   1.833   0.398   2.960 -0.4137 -1.4505  0.3956
  135OSM    H9T14561   2.010   0.457   2.971 -1.2702  0.7621  1.4414
  135OSM   C10S14562   1.947   0.338   3.128  0.6345  0.2224  1.0243
  135OSM   H10S14563   2.050   0.297   3.142  0.9240  0.2220 -0.8466
  135OSM   H10T14564   1.873   0.256   3.141 -1.8029  1.4951 -3.0730
  135OSM   C11S14565   1.941   0.458   3.232 -0.0808  0.6283  0.3704
  135OSM   H11S14566   1.865   0.532   3.201  0.5921  2.1127  2.1230
  135OSM   H11T14567   2.043   0.503   3.231 -0.0219  0.5046  0.6632
  135OSM   C12S14568   1.925   0.416   3.376  0.9665  0.0481 -0.6050
  135OSM   H12S14569   2.023   0.383   3.417  1.2187  1.9130  0.3824
  135OSM   H12T14570   1.845   0.342   3.397  1.2731  0.1196  0.9203
  135OSM   C13S14571   1.903   0.540   3.463  0.0641 -0.4698  0.3276
  135OSM   H13S14572   1.813   0.584   3.415  0.5348 -0.5319 -0.6283
  135OSM   H13T14573   1.982   0.618   3.452  0.7344 -1.3422 -1.2949
  135OSM   C14S14574   1.881   0.500   3.605  0.2244  0.3317 -0.1268
  135OSM   H14S14575   1.976   0.464   3.649  0.3426  2.5513  1.5691
  135OSM   H14T14576   1.813   0.412   3.605  1.1552 -0.4088 -0.6078
  135OSM   C15S14577   1.814   0.606   3.700  0.7513  0.7559 -0.0053
  135OSM   H15S14578   1.767   0.684   3.635  1.8686  0.9059 -0.6644
  135OSM   H15T14579   1.887   0.668   3.757 -1.5674  2.4918  1.2351
  135OSM   C16S14580   1.704   0.557   3.801 -0.4741  0.0545 -0.1421
  135OSM   H16S14581   1.634   0.490   3.746 -2.3414  0.9804  0.9994
  135OSM   H16T14582   1.645   0.648   3.823 -0.5409  0.3155 -1.3650
  135OSM   C17S14583   1.761   0.479   3.915 -0.6912  0.4400 -0.3398
  135OSM   H17S14584   1.837   0.546   3.961  0.6458 -1.1687 -0.0964
  135OSM   H17T14585   1.821   0.395   3.873 -1.8323 -0.2074 -0.7099
  135OSM   C18S14586   1.649   0.433   4.014  0.1877 -0.2755 -0.4797
  135OSM   H18S14587   1.620   0.509   4.090 -2.3049 -2.8565  1.3344
  135OSM   H18T14588   1.681   0.345   4.073  0.5557  0.2842  0.1674
  135OSM   H18U14589   1.557   0.404   3.958 -0.8618  3.1546 -0.7778
  135OSM    C1F14590   2.293  -0.098   2.282  0.1194  0.5144 -0.7097
  135OSM     OF14591   2.412  -0.109   2.246  0.3368 -0.2535 -0.2411
  135OSM    C2F14592   2.227  -0.219   2.328 -0.3357  0.3795 -0.7815
  135OSM    H2F14593   2.302  -0.300   2.317  0.1922  0.6392  0.7519
  135OSM    H2G14594   2.144  -0.259   2.266 -0.5286 -0.8922  0.2605
  135OSM    C3F14595   2.185  -0.216   2.479  0.2235 -0.0221 -0.6369
  135OSM    H3F14596   2.156  -0.318   2.511 -1.0712 -0.5407 -3.2002
  135OSM    H3G14597   2.090  -0.163   2.499 -1.0166 -1.6143 -2.0630
  135OSM    C4F14598   2.296  -0.158   2.566 -0.0506 -0.4215 -0.1582
  135OSM    H4F14599   2.311  -0.049   2.552  1.5850 -0.8198 -1.9444
  135OSM    H4G14600   2.392  -0.215   2.563 -0.5777 -1.3398 -3.0081
  135OSM    C5F14601   2.278  -0.170   2.718 -0.2766 -0.8349 -0.1151
  135OSM    H5F14602   2.185  -0.118   2.751 -0.5049 -2.4497  2.0290
  135OSM    H5G14603   2.366  -0.130   2.774 -1.1740  0.6381  0.2949
  135OSM    C6F14604   2.257  -0.310   2.777  0.1334 -0.3933 -1.1697
  135OSM    H6F14605   2.350  -0.361   2.743  0.2601 -0.5035 -0.6697
  135OSM    H6G14606   2.173  -0.368   2.734  0.6763 -0.6101 -1.9731
  135OSM    C7F14607   2.251  -0.304   2.930 -0.0300 -0.5253  0.0222
  135OSM    H7F14608   2.144  -0.287   2.954 -0.7219 -1.9749 -1.8165
  135OSM    H7G14609   2.310  -0.226   2.982  3.0987 -2.5249 -0.2580
  135OSM    C8F14610   2.303  -0.428   3.002  0.0925 -0.0177  0.0976
  135OSM    H8F14611   2.335  -0.391   3.102 -0.1048 -2.4872  1.1407
  135OSM    H8G14612   2.394  -0.472   2.957 -1.2011 -0.4419 -2.2422
  135OSM    C9F14613   2.190  -0.525   3.035  0.2385 -0.3689 -0.1785
  135OSM    H9F14614   2.099  -0.492   2.983  0.1474 -0.0218  0.1985
  135OSM   C10F14615   2.203  -0.655   3.068  0.3526 -0.7974 -0.0952
  135OSM   H10F14616   2.106  -0.702   3.090 -0.8634  1.7691  0.5044
  135OSM   C11F14617   2.324  -0.723   3.121  0.3038  0.1877  0.0343
  135OSM   H11F14618   2.417  -0.661   3.117  0.5794 -0.2332 -0.2092
  135OSM   H11G14619   2.347  -0.808   3.054 -0.3448  2.0481 -2.7268
  135OSM   C12F14620   2.316  -0.776   3.268  0.2229  0.0082  0.5513
  135OSM   H12F14621   2.399  -0.850   3.275 -0.3974 -1.3016 -3.3148
  135OSM   H12G14622   2.227  -0.841   3.279 -0.5978  1.0425  0.1824
  135OSM   C13F14623   2.317  -0.663   3.371 -0.0698 -0.1069 -1.0856
  135OSM   H13F14624   2.212  -0.626   3.366 -1.2085 -3.1605 -2.1851
  135OSM   H13G14625   2.395  -0.590   3.341  0.2813 -0.1614 -0.3144
  135OSM   C14F14626   2.342  -0.722   3.509  0.0106 -0.1794  0.1671
  135OSM   H14F14627   2.438  -0.778   3.516  1.3176  1.7506 -1.2703
  135OSM   H14G14628   2.257  -0.791   3.528  1.5172 -1.5441  2.4666
  135OSM   C15F14629   2.326  -0.619   3.618 -0.0480  0.4863  0.1540
  135OSM   H15F14630   2.220  -0.592   3.636 -0.1147  0.1202  0.3108
  135OSM   H15G14631   2.378  -0.525   3.591 -0.2186  0.2564 -1.0380
  135OSM   C16F14632   2.379  -0.660   3.761  0.4092 -0.4177  0.6931
  135OSM   H16F14633   2.484  -0.694   3.757  0.4551 -0.3759  1.4635
  135OSM   H16G14634   2.307  -0.739   3.793  0.6367 -1.2110 -0.6636
  135OSM   C17F14635   2.380  -0.544   3.864  0.4589  0.1194  0.2347
  135OSM   H17F14636   2.274  -0.513   3.864  0.3404  0.0687  3.4214
  135OSM   H17G14637   2.449  -0.463   3.833  1.3306  0.4003  2.6784
  135OSM   C18F14638   2.410  -0.595   4.004 -0.1458  0.1336  0.8466
  135OSM   H18F14639   2.352  -0.675   4.054  1.8005 -0.2850  2.5352
  135OSM   H18G14640   2.393  -0.520   4.084 -1.6512  0.6238  0.1233
  135OSM   H18H14641   2.517  -0.623   4.012 -0.6224 -1.5825  1.5585
  136OSM      N14642   5.103   2.049   1.673  0.1089 -0.5449 -0.5117
  136OSM    C1514643   4.964   2.000   1.664 -0.5884 -0.0337 -0.1683
  136OSM   H15A14644   4.912   2.050   1.744  2.4184  1.2353  1.1616
  136OSM   H15B14645   4.967   1.897   1.695  0.8835  0.2041  0.5785
  136OSM   H15C14646   4.928   2.007   1.562  2.1250  0.9878 -1.1614
  136OSM    C1414647   5.194   1.956   1.593  0.4135  0.0053 -0.7448
  136OSM   H14A14648   5.297   1.987   1.600  0.4538 -0.5659  3.0858
  136OSM   H14B14649   5.170   1.960   1.487 -0.9844 -0.9511 -0.4972
  136OSM   H14C14650   5.175   1.852   1.615 -1.0023  0.3386 -0.2829
  136OSM    C1314651   5.113   2.183   1.602 -0.1226 -0.0320  0.5637
  136OSM   H13A14652   5.048   2.257   1.648 -0.9983 -0.5707  0.2180
  136OSM   H13B14653   5.079   2.162   1.502 -0.9903 -0.4641  0.9362
  136OSM   H13C14654   5.214   2.220   1.613 -0.6930  1.8424 -0.0808
  136OSM    C1214655   5.157   2.043   1.813 -0.2779 -0.8016  0.7272
  136OSM   H12A14656   5.263   2.063   1.812 -0.2627 -0.7434 -1.0349
  136OSM   H12B14657   5.135   1.948   1.858 -1.0765  0.1011  2.3105
  136OSM    C1114658   5.101   2.139   1.922 -0.3866 -0.4667  0.5554
  136OSM   H11A14659   5.128   2.242   1.890  4.0709 -1.7490 -0.5651
  136OSM   H11B14660   5.158   2.120   2.016  0.9064 -1.8662 -0.4566
  136OSM      P14661   4.902   1.997   2.027  0.0920 -0.1965  0.3695
  136OSM    O1314662   4.757   2.002   2.050 -0.7594 -0.0648 -0.1580
  136OSM    O1414663   4.957   1.878   1.964  0.3020 -0.2609  0.3976
  136OSM    O1114664   4.963   1.999   2.172  0.0817 -0.1777  0.2355
  136OSM    O1214665   4.959   2.127   1.945 -0.2694 -0.6745  0.3016
  136OSM    C1S14666   4.955   2.131   2.231  0.3832 -0.1049 -0.0691
  136OSM    H1S14667   4.853   2.172   2.217  0.4709 -0.5003 -2.3822
  136OSM    H1T14668   5.025   2.208   2.193 -0.6651  1.0660  0.2968
  136OSM     NF14669   4.994   2.250   2.438  0.0773 -0.4708 -0.1915
  136OSM    HNF14670   5.080   2.297   2.458 -0.2035  1.1895 -2.4370
  136OSM    C2S14671   4.991   2.121   2.384  0.3829  0.3099  0.1224
  136OSM    H2S14672   4.903   2.068   2.426 -0.1044  1.8129  1.0554
  136OSM    C3S14673   5.122   2.033   2.406  0.1216  0.3916  0.4637
  136OSM    H3S14674   5.201   2.081   2.345  1.6541  0.2200  2.2304
  136OSM     O314675   5.102   1.893   2.361 -0.3748 -0.8550  0.0765
  136OSM    HO314676   5.030   1.908   2.300  0.5965 -1.0635 -1.1499
  136OSM    C4S14677   5.172   2.034   2.553  0.1093  0.5320 -0.0953
  136OSM    H4S14678   5.247   2.113   2.565 -1.0728  1.5258  1.0471
  136OSM    C5S14679   5.133   1.954   2.660 -0.8784 -0.1357  0.1395
  136OSM    H5S14680   5.062   1.871   2.649  0.1892 -0.8772 -1.7027
  136OSM    C6S14681   5.210   1.976   2.786 -0.2566 -0.1737 -0.3446
  136OSM    H6S14682   5.135   2.006   2.863  0.1290  0.0663 -0.0586
  136OSM    H6T14683   5.285   2.056   2.768  1.4207 -1.3470  1.0541
  136OSM    C7S14684   5.288   1.848   2.834 -0.3092  0.2805  0.6014
  136OSM    H7S14685   5.374   1.826   2.767  1.3431  0.0502  2.6753
  136OSM    H7T14686   5.231   1.753   2.840 -1.3428  0.8914  0.6183
  136OSM    C8S14687   5.343   1.854   2.974  0.3106  0.2326 -1.3450
  136OSM    H8S14688   5.424   1.929   2.985  0.2318  0.1942 -0.4722
  136OSM    H8T14689   5.386   1.752   2.989  0.7070  0.6209  0.3740
  136OSM    C9S14690   5.230   1.863   3.082 -0.8207 -0.7301  0.2103
  136OSM    H9S14691   5.148   1.794   3.054 -1.3649 -1.4863  3.3436
  136OSM    H9T14692   5.194   1.968   3.077 -1.3068 -0.9413 -2.9345
  136OSM   C10S14693   5.286   1.830   3.220  0.5235 -0.4984 -0.2627
  136OSM   H10S14694   5.342   1.920   3.254 -0.2999  0.2088 -0.7364
  136OSM   H10T14695   5.348   1.738   3.214 -1.2401 -1.7375 -0.0191
  136OSM   C11S14696   5.176   1.803   3.326 -1.0946  0.1851 -0.0635
  136OSM   H11S14697   5.118   1.716   3.288 -0.4067 -1.2807  2.0301
  136OSM   H11T14698   5.103   1.886   3.331 -1.5936 -0.3000  3.2977
  136OSM   C12S14699   5.220   1.784   3.469 -0.3847  0.0812  0.8244
  136OSM   H12S14700   5.226   1.877   3.529 -2.0195  0.1813  0.8843
  136OSM   H12T14701   5.326   1.749   3.474 -0.3485  0.2235  1.0986
  136OSM   C13S14702   5.130   1.681   3.545  0.9116  0.3977  0.4457
  136OSM   H13S14703   5.146   1.585   3.493  0.5544  1.2979 -1.3910
  136OSM   H13T14704   5.028   1.713   3.514 -0.9901 -2.1114  3.4793
  136OSM   C14S14705   5.145   1.682   3.700  0.0637 -0.3579  0.4095
  136OSM   H14S14706   5.076   1.604   3.737 -1.1152  0.9072  0.9390
  136OSM   H14T14707   5.102   1.779   3.730  0.1332 -0.5896  1.2873
  136OSM   C15S14708   5.287   1.671   3.752  0.3432 -0.9447 -0.7078
  136OSM   H15S14709   5.343   1.754   3.704 -0.8852 -0.4483 -1.3310
  136OSM   H15T14710   5.346   1.580   3.727  1.7675 -0.8080  1.8355
  136OSM   C16S14711   5.296   1.691   3.907  0.1335  0.0655  0.8193
  136OSM   H16S14712   5.231   1.617   3.958 -1.4775  0.9302  0.1237
  136OSM   H16T14713   5.261   1.789   3.946 -0.6343 -0.3442  1.1868
  136OSM   C17S14714   5.442   1.676   3.958  0.1093 -0.0792  0.6753
  136OSM   H17S14715   5.496   1.769   3.928  0.3735 -0.8552 -1.4564
  136OSM   H17T14716   5.495   1.603   3.893 -0.8963  0.0903 -0.3742
  136OSM   C18S14717   5.444   1.647   4.100  0.2674  0.0039  0.0719
  136OSM   H18S14718   5.398   1.728   4.159 -1.5069  0.2748 -1.5993
  136OSM   H18T14719   5.552   1.631   4.123  0.9709  1.8172 -1.7394
  136OSM   H18U14720   5.387   1.555   4.126 -2.3048  0.8600 -2.1500
  136OSM    C1F14721   4.882   2.326   2.450  0.8613  0.8021  0.8573
  136OSM     OF14722   4.772   2.278   2.415 -0.3477 -0.4410  0.2643
  136OSM    C2F14723   4.889   2.456   2.522  0.2514 -0.0550  0.6821
  136OSM    H2F14724   4.785   2.490   2.543  0.6119  1.0594  0.7217
  136OSM    H2G14725   4.934   2.538   2.463 -2.7626  1.8295  0.7554
  136OSM    C3F14726   4.972   2.451   2.653 -0.3307  0.0222  0.0749
  136OSM    H3F14727   4.964   2.552   2.697 -0.4601 -0.2885  0.7711
  136OSM    H3G14728   5.081   2.446   2.636 -0.3328  1.4762 -0.4341
  136OSM    C4F14729   4.915   2.360   2.765 -1.2126 -0.0239  0.6150
  136OSM    H4F14730   4.924   2.253   2.735  1.9905  0.1349  0.5955
  136OSM    H4G14731   4.809   2.391   2.759 -1.0455  0.7665  1.5658
  136OSM    C5F14732   4.969   2.396   2.895 -1.1738  0.8283 -0.4519
  136OSM    H5F14733   4.901   2.357   2.973  1.7575 -2.0372  0.8819
  136OSM    H5G14734   4.976   2.504   2.922  2.7935  0.4533  0.5670
  136OSM    C6F14735   5.106   2.337   2.917  0.6727 -0.0569  0.0206
  136OSM    H6F14736   5.163   2.302   2.828  0.9678 -0.0533  0.2074
  136OSM    H6G14737   5.076   2.258   2.988  0.6020 -1.1219 -1.1575
  136OSM    C7F14738   5.196   2.427   3.008 -0.3639 -0.0214 -0.5742
  136OSM    H7F14739   5.140   2.468   3.095  0.5304  0.9357 -0.4223
  136OSM    H7G14740   5.230   2.501   2.933  0.1004 -1.0772 -1.4357
  136OSM    C8F14741   5.305   2.342   3.070  0.6560  0.6935  0.3304
  136OSM    H8F14742   5.374   2.302   2.993 -0.2042 -0.9540  0.3478
  136OSM    H8G14743   5.246   2.254   3.107 -0.5746  1.8883  1.3151
  136OSM    C9F14744   5.376   2.430   3.172  0.6359  0.4165  0.5512
  136OSM    H9F14745   5.458   2.491   3.132  0.8886  0.1990  0.7344
  136OSM   C10F14746   5.352   2.426   3.308  0.6144 -0.0080 -0.1982
  136OSM   H10F14747   5.412   2.493   3.372  1.0012 -0.1482 -0.4106
  136OSM   C11F14748   5.251   2.334   3.374 -0.3507  0.5287 -0.0542
  136OSM   H11F14749   5.265   2.225   3.360  0.4894  1.0042 -4.3289
  136OSM   H11G14750   5.154   2.355   3.324  0.1649  0.1367 -1.2450
  136OSM   C12F14751   5.243   2.369   3.525 -0.3051 -0.7820 -0.5243
  136OSM   H12F14752   5.146   2.330   3.564  0.1098  0.0374  1.4429
  136OSM   H12G14753   5.238   2.479   3.542  0.6892 -0.8985  0.5968
  136OSM   C13F14754   5.349   2.309   3.628 -0.9091 -0.2798 -0.1222
  136OSM   H13F14755   5.447   2.360   3.623 -1.5966  1.1358  0.3985
  136OSM   H13G14756   5.364   2.201   3.603 -1.2550 -0.4654  0.4447
  136OSM   C14F14757   5.298   2.310   3.773  0.0917 -0.2787  0.1421
  136OSM   H14F14758   5.201   2.258   3.780 -0.2450  0.1453 -1.0939
  136OSM   H14G14759   5.275   2.413   3.808  1.3618  0.3093 -0.6651
  136OSM   C15F14760   5.405   2.253   3.870 -0.2680 -0.3560 -0.3481
  136OSM   H15F14761   5.487   2.327   3.877  0.1485 -0.8348 -0.0411
  136OSM   H15G14762   5.439   2.152   3.840 -1.2085 -0.9883  0.6249
  136OSM   C16F14763   5.358   2.235   4.016 -0.2466  0.2533 -0.0010
  136OSM   H16F14764   5.335   2.331   4.067 -0.9736 -0.4632  1.0677
  136OSM   H16G14765   5.446   2.190   4.066 -0.9906  1.0070  2.0998
  136OSM   C17F14766   5.258   2.121   4.041 -0.1552 -0.1245  0.0715
  136OSM   H17F14767   5.298   2.033   3.988  1.3136 -1.3011  2.8997
  136OSM   H17G14768   5.156   2.153   4.014 -0.4911  0.4869  1.9217
  136OSM   C18F14769   5.240   2.092   4.189 -0.7962 -0.2063  0.2398
  136OSM   H18F14770   5.156   2.027   4.221 -3.2721  2.9028  0.5154
  136OSM   H18G14771   5.229   2.192   4.236 -0.2189  0.0256 -0.1055
  136OSM   H18H14772   5.335   2.055   4.233 -2.1224 -2.6157  1.2690
  137OSM      N14773   2.725   0.773   1.616  0.0566  0.1223 -0.0896
  137OSM    C1514774   2.836   0.706   1.543  0.1612 -0.0314  0.9911
  137OSM   H15A14775   2.844   0.600   1.562  1.0042 -0.3118 -0.7018
  137OSM   H15B14776   2.932   0.747   1.568  0.9006 -1.7835  1.2005
  137OSM   H15C14777   2.834   0.714   1.435  4.0744  1.7051  0.8952
  137OSM    C1414778   2.596   0.687   1.596  0.1157  0.0162  0.4911
  137OSM   H14A14779   2.512   0.749   1.624 -0.3489  0.3838 -1.5028
  137OSM   H14B14780   2.607   0.597   1.654  2.5116 -0.6080 -0.7986
  137OSM   H14C14781   2.588   0.658   1.492 -0.1178  0.8778  0.2612
  137OSM    C1314782   2.747   0.772   1.762 -0.1865 -0.6075 -0.8387
  137OSM   H13A14783   2.760   0.670   1.796 -1.2493 -0.2932  0.5989
  137OSM   H13B14784   2.666   0.812   1.822  0.5540 -1.1543  0.5660
  137OSM   H13C14785   2.840   0.813   1.798 -0.7879 -0.5227  0.6963
  137OSM    C1214786   2.687   0.909   1.559  0.3031  0.5248  0.8470
  137OSM   H12A14787   2.627   0.891   1.471  0.7934  0.7963  0.4502
  137OSM   H12B14788   2.774   0.966   1.529  0.0102 -0.1735 -1.5659
  137OSM    C1114789   2.597   1.008   1.646 -0.1076 -0.1663 -0.4151
  137OSM   H11A14790   2.578   1.096   1.582  1.0710 -0.1897 -0.8031
  137OSM   H11B14791   2.646   1.064   1.729  0.0636 -2.3110  1.0205
  137OSM      P14792   2.407   0.969   1.829  0.2315 -0.1411 -0.0810
  137OSM    O1314793   2.322   1.092   1.815 -0.3290  0.9317  0.4627
  137OSM    O1414794   2.344   0.847   1.888 -0.3421  0.3565 -0.4464
  137OSM    O1114795   2.532   0.999   1.927 -0.4116 -0.2039  0.4733
  137OSM    O1214796   2.476   0.946   1.692 -0.1558 -0.4675  0.0435
  137OSM    C1S14797   2.543   1.130   1.993  0.4741  0.1749 -0.4912
  137OSM    H1S14798   2.457   1.197   1.975 -0.7833 -0.7368  1.6966
  137OSM    H1T14799   2.636   1.180   1.960  1.6940 -2.6514 -1.6955
  137OSM     NF14800   2.519   1.232   2.220 -0.0442  0.0399 -0.6456
  137OSM    HNF14801   2.594   1.286   2.257 -0.2374  0.3902 -0.7592
  137OSM    C2S14802   2.543   1.103   2.145  0.4584 -0.4465  0.2456
  137OSM    H2S14803   2.463   1.030   2.168  1.3183 -2.1587 -1.8221
  137OSM    C3S14804   2.688   1.036   2.177  0.0164  0.2862  0.7031
  137OSM    H3S14805   2.764   1.106   2.136 -1.6293  1.2663 -0.8224
  137OSM     O314806   2.720   0.921   2.096 -0.2505 -0.0447 -0.5765
  137OSM    HO314807   2.655   0.919   2.026  0.2959 -2.4395 -1.1055
  137OSM    C4S14808   2.714   1.013   2.319 -0.2967 -0.0720 -0.6259
  137OSM    H4S14809   2.749   1.102   2.373 -1.8523  0.9849 -1.2656
  137OSM    C5S14810   2.672   0.906   2.393  0.0691  0.4391 -0.4607
  137OSM    H5S14811   2.622   0.829   2.335  1.5353 -1.5963  0.8326
  137OSM    C6S14812   2.700   0.883   2.538  0.4941 -0.0584 -0.4443
  137OSM    H6S14813   2.793   0.937   2.566  1.0406 -0.1109 -2.0721
  137OSM    H6T14814   2.713   0.775   2.558 -0.1208 -0.1729 -0.6292
  137OSM    C7S14815   2.586   0.949   2.621  0.4845  0.3221 -0.2393
  137OSM    H7S14816   2.487   0.905   2.599 -0.2675  2.3208 -1.1187
  137OSM    H7T14817   2.580   1.057   2.598 -0.2712 -0.0425 -1.8932
  137OSM    C8S14818   2.625   0.939   2.768  0.3811  0.0671 -0.1778
  137OSM    H8S14819   2.718   0.995   2.791  0.4648 -0.5600  1.1429
  137OSM    H8T14820   2.643   0.834   2.800  0.3350  0.3087  0.6700
  137OSM    C9S14821   2.519   1.010   2.856  0.3288 -0.3503 -0.0429
  137OSM    H9S14822   2.418   0.963   2.850 -0.6325  1.4445  1.1573
  137OSM    H9T14823   2.499   1.115   2.828 -1.3212 -0.3848  0.8540
  137OSM   C10S14824   2.548   0.994   3.008 -0.1820  0.0180  0.1167
  137OSM   H10S14825   2.647   1.020   3.051 -0.3743 -0.2776  0.7531
  137OSM   H10T14826   2.528   0.888   3.033 -1.9463  0.5224  1.0556
  137OSM   C11S14827   2.438   1.065   3.092 -0.4215 -0.3951 -0.6156
  137OSM   H11S14828   2.337   1.032   3.059 -1.5759  2.2744  0.0400
  137OSM   H11T14829   2.448   1.172   3.063 -1.7217 -0.5659 -1.7981
  137OSM   C12S14830   2.447   1.046   3.244 -0.4385 -0.2350  0.3443
  137OSM   H12S14831   2.545   1.065   3.293 -0.3772  0.2098  0.0591
  137OSM   H12T14832   2.430   0.937   3.254  0.5937 -0.4182  0.1679
  137OSM   C13S14833   2.351   1.117   3.341 -0.4827 -0.0541  1.0532
  137OSM   H13S14834   2.252   1.114   3.291  0.0683 -0.3801 -0.0360
  137OSM   H13T14835   2.374   1.226   3.340 -1.7101  0.2173 -0.1476
  137OSM   C14S14836   2.348   1.047   3.482 -0.2925 -0.3666  0.6304
  137OSM   H14S14837   2.302   0.948   3.462 -1.2696  0.2509 -0.3053
  137OSM   H14T14838   2.278   1.108   3.543 -2.3576 -2.9974  1.0505
  137OSM   C15S14839   2.491   1.042   3.549  1.0754  0.6512  0.0532
  137OSM   H15S14840   2.553   0.965   3.497 -0.5682 -1.9651  1.7237
  137OSM   H15T14841   2.482   0.994   3.649  1.7194 -0.6175 -0.4688
  137OSM   C16S14842   2.557   1.177   3.587 -0.1930 -0.2218 -0.0268
  137OSM   H16S14843   2.484   1.243   3.637  2.7212  1.7644  1.8929
  137OSM   H16T14844   2.592   1.207   3.486  1.3841 -0.9958  0.2584
  137OSM   C17S14845   2.675   1.159   3.680 -0.2385  0.0090  0.0408
  137OSM   H17S14846   2.730   1.255   3.676  0.6466 -0.5275 -1.6708
  137OSM   H17T14847   2.749   1.089   3.636 -0.3088  0.7227 -1.2576
  137OSM   C18S14848   2.624   1.116   3.821 -0.4066  0.2337  0.2870
  137OSM   H18S14849   2.637   1.006   3.833  0.7747  0.4114  0.8154
  137OSM   H18T14850   2.523   1.159   3.835 -0.1060  0.7893  0.7684
  137OSM   H18U14851   2.689   1.165   3.897 -0.6278  1.4944 -0.3163
  137OSM    C1F14852   2.394   1.274   2.235  0.1384  0.6727  0.2337
  137OSM     OF14853   2.303   1.234   2.157 -0.1704  0.5919  0.6138
  137OSM    C2F14854   2.373   1.370   2.354 -0.0657 -0.1514 -0.4362
  137OSM    H2F14855   2.443   1.456   2.351  0.4667 -0.6061 -1.6073
  137OSM    H2G14856   2.413   1.317   2.443 -3.3090 -1.5042  0.3380
  137OSM    C3F14857   2.229   1.414   2.378 -0.1482 -0.9758 -0.1686
  137OSM    H3F14858   2.169   1.321   2.372  1.6604 -2.1884 -0.3193
  137OSM    H3G14859   2.195   1.487   2.301  0.7685  0.7577  1.0019
  137OSM    C4F14860   2.197   1.476   2.519 -0.1620  0.1584 -0.3069
  137OSM    H4F14861   2.091   1.506   2.512 -0.7240 -1.5624  0.4489
  137OSM    H4G14862   2.260   1.567   2.518  2.7897 -1.7250  0.4789
  137OSM    C5F14863   2.226   1.389   2.642 -0.1845 -0.0283 -0.6625
  137OSM    H5F14864   2.335   1.384   2.662 -0.0472 -2.1460 -1.6818
  137OSM    H5G14865   2.203   1.281   2.627  2.6187 -0.7980 -0.1483
  137OSM    C6F14866   2.148   1.419   2.769  0.0911 -0.4192 -0.7511
  137OSM    H6F14867   2.041   1.393   2.757 -0.1415 -0.0793  0.4486
  137OSM    H6G14868   2.144   1.530   2.780 -2.2891 -0.6688  1.8356
  137OSM    C7F14869   2.196   1.356   2.899 -0.1530  0.1355  0.1480
  137OSM    H7F14870   2.301   1.382   2.925  0.3266 -0.9252 -0.6621
  137OSM    H7G14871   2.195   1.245   2.890 -1.1915  0.2076 -0.7717
  137OSM    C8F14872   2.111   1.390   3.024  0.1950  0.3296  0.5040
  137OSM    H8F14873   2.134   1.318   3.105 -0.6381 -3.3777 -2.2732
  137OSM    H8G14874   2.006   1.365   2.998  0.4566 -0.8821  0.5856
  137OSM    C9F14875   2.129   1.533   3.067  0.2340  0.5949 -1.0007
  137OSM    H9F14876   2.058   1.607   3.028  0.6102  1.0146 -0.8982
  137OSM   C10F14877   2.228   1.571   3.149 -0.2584  0.3565  0.1575
  137OSM   H10F14878   2.248   1.676   3.177  2.8268  0.0344 -0.4648
  137OSM   C11F14879   2.327   1.477   3.206 -0.4250 -1.3600 -0.8947
  137OSM   H11F14880   2.415   1.483   3.138  0.3861  0.8088  0.2694
  137OSM   H11G14881   2.303   1.369   3.195 -0.1293 -1.5119 -0.1107
  137OSM   C12F14882   2.368   1.507   3.350  0.0531 -0.0495 -0.1681
  137OSM   H12F14883   2.412   1.609   3.347 -1.9877  0.8517 -1.6131
  137OSM   H12G14884   2.435   1.422   3.374 -2.1166 -1.7465  0.2648
  137OSM   C13F14885   2.253   1.500   3.448 -0.7394  0.5027  0.1939
  137OSM   H13F14886   2.191   1.412   3.423 -1.8179  1.6288 -1.2760
  137OSM   H13G14887   2.185   1.586   3.433 -1.4500 -0.3669 -1.9296
  137OSM   C14F14888   2.305   1.497   3.590 -0.0732  0.2008  0.7493
  137OSM   H14F14889   2.350   1.595   3.617 -2.6861  1.2752  1.6463
  137OSM   H14G14890   2.383   1.419   3.599  0.0615  0.3214  0.6164
  137OSM   C15F14891   2.191   1.465   3.696 -0.8528 -0.3930 -0.5233
  137OSM   H15F14892   2.153   1.362   3.677 -2.4925  0.0027  0.4363
  137OSM   H15G14893   2.102   1.531   3.703 -2.0370 -2.0450  1.0853
  137OSM   C16F14894   2.252   1.439   3.835 -0.7419 -0.3220  0.1955
  137OSM   H16F14895   2.323   1.359   3.806  2.2833  2.6501 -1.2835
  137OSM   H16G14896   2.169   1.413   3.905 -0.4547  0.5208  0.8702
  137OSM   C17F14897   2.345   1.547   3.892 -0.3218  0.0067  0.0926
  137OSM   H17F14898   2.305   1.651   3.899  0.2110  0.4176 -2.2544
  137OSM   H17G14899   2.423   1.565   3.815  0.3290  0.5996  0.8709
  137OSM   C18F14900   2.422   1.501   4.013  0.5586  0.4885  0.7735
  137OSM   H18F14901   2.503   1.570   4.043  0.8487  1.1737 -1.4335
  137OSM   H18G14902   2.463   1.398   4.007  1.3156  0.8535 -0.6760
  137OSM   H18H14903   2.353   1.504   4.100  0.4143  1.1384  0.6427
  138OSM      N14904   2.444   5.750   1.992 -0.1157  0.5063  0.2260
  138OSM    C1514905   2.384   5.615   1.960 -0.0893  0.3479 -0.3991
  138OSM   H15A14906   2.276   5.619   1.966 -0.0626  0.3869  0.1563
  138OSM   H15B14907   2.396   5.542   2.039  2.3339  1.0691 -0.0196
  138OSM   H15C14908   2.412   5.584   1.861 -0.3898 -0.3949 -0.2569
  138OSM    C1414909   2.598   5.720   1.991 -0.3249 -0.0700  0.6596
  138OSM   H14A14910   2.618   5.636   2.055 -2.5601 -1.6783 -0.6224
  138OSM   H14B14911   2.652   5.810   2.018 -1.3248  0.2682  1.6224
  138OSM   H14C14912   2.625   5.696   1.889 -0.5371  1.7967  0.1164
  138OSM    C1314913   2.418   5.847   1.886  0.1126 -0.6695 -0.1540
  138OSM   H13A14914   2.314   5.872   1.897  0.3423  2.3628 -3.2571
  138OSM   H13B14915   2.442   5.811   1.787  0.8553 -2.3153  0.5815
  138OSM   H13C14916   2.474   5.940   1.895  1.2854 -1.2416 -1.1524
  138OSM    C1214917   2.400   5.795   2.125 -0.2493 -0.9150 -0.0104
  138OSM   H12A14918   2.458   5.885   2.142 -1.7743 -0.1469  1.4768
  138OSM   H12B14919   2.444   5.731   2.200  1.1554  0.0621  0.0403
  138OSM    C1114920   2.256   5.807   2.155  0.4030  0.5991 -0.1828
  138OSM   H11A14921   2.208   5.856   2.067  1.4539 -0.9380 -1.6880
  138OSM   H11B14922   2.233   5.870   2.243  0.8837  0.7492 -0.1608
  138OSM      P14923   2.231   5.576   2.284  0.0856 -0.5419 -0.6900
  138OSM    O1314924   2.160   5.447   2.249 -0.4059 -1.0817  0.5329
  138OSM    O1414925   2.379   5.571   2.293  0.7790  0.1693  0.0537
  138OSM    O1114926   2.171   5.652   2.413 -0.8084  0.5629  0.4278
  138OSM    O1214927   2.197   5.678   2.167 -0.1807  0.0428 -0.0228
  138OSM    C1S14928   2.030   5.641   2.419 -0.3446  0.1584 -0.8034
  138OSM    H1S14929   1.989   5.540   2.395 -1.4620 -0.0188  1.5423
  138OSM    H1T14930   1.982   5.714   2.351 -1.0337  2.0650  1.5784
  138OSM     NF14931   1.859   5.584   2.598  0.3414 -0.6237 -0.3069
  138OSM    HNF14932   1.780   5.643   2.615  0.3469 -0.7506  0.1873
  138OSM    C2S14933   1.982   5.653   2.568 -0.3424 -0.1782 -0.1848
  138OSM    H2S14934   2.052   5.602   2.637  1.4417 -1.7290 -2.9456
  138OSM    C3S14935   1.989   5.801   2.600 -0.2673 -0.3616  0.8934
  138OSM    H3S14936   1.906   5.854   2.547  1.1945  0.3757 -0.7712
  138OSM     O314937   2.109   5.865   2.553  0.0472  0.1906 -0.0942
  138OSM    HO314938   2.139   5.791   2.500  0.7306 -0.0142  0.5585
  138OSM    C4S14939   1.972   5.821   2.750 -0.2872  0.0034 -0.0564
  138OSM    H4S14940   1.867   5.801   2.773 -1.0098  4.0430  0.9082
  138OSM    C5S14941   2.057   5.858   2.848 -0.4674 -1.0379 -0.6787
  138OSM    H5S14942   2.157   5.899   2.826  0.0679 -0.9393  1.7102
  138OSM    C6S14943   2.034   5.866   2.995 -0.6830 -1.0323 -0.1525
  138OSM    H6S14944   1.942   5.926   3.009 -0.4201 -0.8218  0.7175
  138OSM    H6T14945   2.112   5.927   3.046 -0.4228 -0.3250 -1.3430
  138OSM    C7S14946   2.038   5.724   3.062 -0.0351 -0.2465 -0.4720
  138OSM    H7S14947   2.146   5.695   3.066 -0.3033 -1.3570 -0.9118
  138OSM    H7T14948   1.991   5.646   2.999 -1.1327 -0.7215  0.8948
  138OSM    C8S14949   1.977   5.704   3.193 -0.4901 -0.2669 -0.5857
  138OSM    H8S14950   2.003   5.603   3.231 -0.6497  0.5240  1.8050
  138OSM    H8T14951   1.869   5.717   3.175 -0.6403 -0.7124 -0.0451
  138OSM    C9S14952   2.027   5.790   3.300 -0.1101  0.0727 -0.0169
  138OSM    H9S14953   1.971   5.885   3.284 -2.5606 -1.4588 -1.0661
  138OSM    H9T14954   2.133   5.818   3.278 -0.0044 -0.8056 -0.7074
  138OSM   C10S14955   2.000   5.749   3.450 -0.0488 -0.1371 -0.3689
  138OSM   H10S14956   2.051   5.652   3.467  1.4887  0.9008  1.3970
  138OSM   H10T14957   1.890   5.740   3.463 -0.1617  1.6506  0.2897
  138OSM   C11S14958   2.071   5.843   3.545  0.5462  0.2916  0.1917
  138OSM   H11S14959   2.020   5.942   3.541 -0.9749 -0.4672  0.0052
  138OSM   H11T14960   2.175   5.861   3.510  0.7867  3.1129  1.9830
  138OSM   C12S14961   2.071   5.795   3.690 -1.1244  0.2575  0.1271
  138OSM   H12S14962   2.144   5.710   3.688 -1.2639  0.0637  1.6665
  138OSM   H12T14963   1.975   5.757   3.731 -1.9785  3.1661  1.0693
  138OSM   C13S14964   2.130   5.901   3.788  0.1652 -0.2121  0.1710
  138OSM   H13S14965   2.072   5.995   3.798 -0.9844 -0.6712 -1.8072
  138OSM   H13T14966   2.231   5.928   3.750 -0.0924  0.3635 -0.1079
  138OSM   C14S14967   2.147   5.834   3.926  0.9488 -0.2055  0.5551
  138OSM   H14S14968   2.192   5.733   3.926  2.2493  0.3405  1.6685
  138OSM   H14T14969   2.046   5.819   3.971  0.6926 -1.4852 -0.4008
  138OSM   C15S14970   2.233   5.920   4.009 -0.5378 -0.6721 -0.3564
  138OSM   H15S14971   2.163   5.998   4.045 -0.7564 -0.6930 -0.7299
  138OSM   H15T14972   2.308   5.975   3.949 -0.1049  1.4699  1.9592
  138OSM   C16S14973   2.297   5.848   4.127  0.3459 -0.9863  0.2228
  138OSM   H16S14974   2.378   5.778   4.097  0.1816 -1.9950  1.9771
  138OSM   H16T14975   2.210   5.803   4.180 -0.9994  0.7704 -0.3994
  138OSM   C17S14976   2.363   5.940   4.230 -0.0522 -0.4124 -0.1286
  138OSM   H17S14977   2.453   5.981   4.179  0.9260 -0.3961  1.5143
  138OSM   H17T14978   2.400   5.867   4.306  0.0811  1.1098  1.3516
  138OSM   C18S14979   2.279   6.047   4.292  0.0789 -0.2565  0.6551
  138OSM   H18S14980   2.344   6.113   4.353  1.4624 -0.9785  0.0301
  138OSM   H18T14981   2.205   6.008   4.364  0.7621 -0.7458  1.1023
  138OSM   H18U14982   2.232   6.118   4.221  1.0291 -0.4252 -0.1812
  138OSM    C1F14983   1.847   5.447   2.607  0.0834 -0.5559 -0.4080
  138OSM     OF14984   1.935   5.369   2.558 -0.6577 -0.2085  0.0079
  138OSM    C2F14985   1.724   5.392   2.678 -0.1491  0.0584  0.3562
  138OSM    H2F14986   1.678   5.318   2.610  0.4019  1.4189 -1.6071
  138OSM    H2G14987   1.650   5.475   2.685 -0.1399 -0.0156  1.5252
  138OSM    C3F14988   1.768   5.318   2.812  0.2349 -0.0609 -0.5273
  138OSM    H3F14989   1.837   5.385   2.868  0.6464  0.1955 -1.3272
  138OSM    H3G14990   1.827   5.228   2.788  1.3087  0.3818  0.3724
  138OSM    C4F14991   1.640   5.302   2.905 -0.8599  0.6131  0.1251
  138OSM    H4F14992   1.591   5.206   2.880 -3.0133  1.6602  0.1038
  138OSM    H4G14993   1.568   5.386   2.896 -0.7203  0.6442 -0.7665
  138OSM    C5F14994   1.663   5.286   3.060 -0.4480  0.5631  0.6435
  138OSM    H5F14995   1.714   5.188   3.065 -0.1985  0.3907 -2.7551
  138OSM    H5G14996   1.564   5.267   3.107 -1.2319  1.3166 -0.6247
  138OSM    C6F14997   1.746   5.392   3.127 -0.7132 -0.3160  0.4286
  138OSM    H6F14998   1.710   5.495   3.103  0.1351 -0.1475 -0.1680
  138OSM    H6G14999   1.849   5.379   3.087  0.7826  0.0754  3.7901
  138OSM    C7F15000   1.755   5.384   3.282 -0.2099  0.0547 -0.0494
  138OSM    H7F15001   1.660   5.422   3.323  0.7606  1.8094  0.7003
  138OSM    H7G15002   1.826   5.467   3.304  0.7830  0.3882 -3.7265
  138OSM    C8F15003   1.803   5.262   3.351 -0.3509  0.0318 -0.0704
  138OSM    H8F15004   1.876   5.282   3.432 -0.6906  1.2026 -0.0341
  138OSM    H8G15005   1.859   5.198   3.279 -0.1321  1.8372 -1.5770
  138OSM    C9F15006   1.683   5.180   3.396  0.1708  0.9758 -0.4132
  138OSM    H9F15007   1.628   5.122   3.320  0.8206  1.1552 -1.0297
  138OSM   C10F15008   1.638   5.170   3.527 -0.2167  0.0444  0.7816
  138OSM   H10F15009   1.555   5.098   3.532  0.3365 -1.0290 -2.6375
  138OSM   C11F15010   1.687   5.246   3.645 -0.6459 -0.1750  0.6014
  138OSM   H11F15011   1.616   5.331   3.656 -1.2871 -0.4530 -1.0737
  138OSM   H11G15012   1.790   5.281   3.622 -0.9413  0.7265  0.5994
  138OSM   C12F15013   1.687   5.158   3.760 -0.4905  0.2135 -0.9774
  138OSM   H12F15014   1.719   5.221   3.846 -0.3653 -0.5665 -0.4463
  138OSM   H12G15015   1.762   5.076   3.757  1.1605  1.6776 -3.0982
  138OSM   C13F15016   1.550   5.097   3.791 -0.2980  0.5637 -0.7607
  138OSM   H13F15017   1.547   4.990   3.761 -0.9293  0.1339  0.7821
  138OSM   H13G15018   1.473   5.157   3.738  0.2939  0.0026 -2.3117
  138OSM   C14F15019   1.520   5.088   3.944  0.1408  0.5246  0.2979
  138OSM   H14F15020   1.588   5.014   3.989 -1.5377 -2.6372 -1.9835
  138OSM   H14G15021   1.422   5.041   3.966  1.6501 -1.9179  2.3017
  138OSM   C15F15022   1.502   5.223   4.015  0.3079  0.4130  0.0368
  138OSM   H15F15023   1.435   5.288   3.956  0.3717  0.1034 -0.3815
  138OSM   H15G15024   1.602   5.268   4.033 -0.1569  0.8038  1.8291
  138OSM   C16F15025   1.439   5.213   4.158  0.1889  0.3749  0.0852
  138OSM   H16F15026   1.493   5.124   4.198  0.5439 -0.0276 -1.2264
  138OSM   H16G15027   1.333   5.180   4.162 -0.7868  3.1076 -0.9379
  138OSM   C17F15028   1.451   5.341   4.236 -0.4987 -0.0321 -0.3233
  138OSM   H17F15029   1.432   5.433   4.176 -1.5345  2.0188  2.8576
  138OSM   H17G15030   1.557   5.358   4.265 -0.3950  1.0128 -1.2408
  138OSM   C18F15031   1.370   5.349   4.365 -0.2244 -0.0571 -0.7770
  138OSM   H18F15032   1.260   5.348   4.348 -0.7641 -1.3906  2.1130
  138OSM   H18G15033   1.405   5.447   4.405 -0.2801 -1.2174  2.4743
  138OSM   H18H15034   1.384   5.267   4.439  1.6111  1.8032  1.0985
  139OSM      N15035   4.708   5.471   2.085  0.0883  0.9124  0.3179
  139OSM    C1515036   4.641   5.605   2.109 -0.3686  0.2745 -0.0123
  139OSM   H15A15037   4.533   5.595   2.108 -0.2150 -1.9667 -0.8957
  139OSM   H15B15038   4.662   5.673   2.028 -1.1833 -1.7316 -2.0231
  139OSM   H15C15039   4.664   5.643   2.207  1.3457 -0.6959 -0.0047
  139OSM    C1415040   4.714   5.441   1.938  0.5916 -0.0417  0.3914
  139OSM   H14A15041   4.751   5.340   1.928 -0.6456 -0.5097  0.4147
  139OSM   H14B15042   4.790   5.499   1.886  1.1560 -1.4831 -0.4488
  139OSM   H14C15043   4.627   5.456   1.876  1.4136 -0.3808 -0.8966
  139OSM    C1315044   4.841   5.477   2.130 -0.0659 -1.0731 -0.3634
  139OSM   H13A15045   4.892   5.570   2.107  0.5369 -1.1931  0.4290
  139OSM   H13B15046   4.895   5.391   2.095  1.3576 -1.3602  2.2667
  139OSM   H13C15047   4.853   5.473   2.237  3.2900 -1.0237 -0.6174
  139OSM    C1215048   4.624   5.362   2.151 -0.3244  0.9082  0.0300
  139OSM   H12A15049   4.687   5.274   2.153 -1.7436 -0.1520 -0.6780
  139OSM   H12B15050   4.549   5.328   2.082 -0.5307  1.7255 -0.1688
  139OSM    C1115051   4.570   5.406   2.284 -0.3756 -0.4218 -0.1771
  139OSM   H11A15052   4.549   5.306   2.329  3.0760 -1.1552  0.0523
  139OSM   H11B15053   4.478   5.468   2.280 -0.9373 -1.1870  0.5209
  139OSM      P15054   4.650   5.540   2.503  0.0125  0.2624  0.5279
  139OSM    O1315055   4.752   5.494   2.602  0.0788 -0.1453 -0.1283
  139OSM    O1415056   4.634   5.685   2.468  0.2761 -0.6350  1.1942
  139OSM    O1115057   4.506   5.498   2.563 -0.5739 -0.3021  0.4980
  139OSM    O1215058   4.673   5.458   2.372 -0.2746  0.2105 -0.6725
  139OSM    C1S15059   4.481   5.359   2.595  0.5125 -0.4402  0.0565
  139OSM    H1S15060   4.574   5.299   2.585 -0.7925 -2.2184 -2.7702
  139OSM    H1T15061   4.404   5.320   2.525  1.4010 -1.1643 -0.5395
  139OSM     NF15062   4.411   5.193   2.784 -0.1210 -0.1706  0.5866
  139OSM    HNF15063   4.318   5.155   2.785  0.0962 -0.8171 -0.9225
  139OSM    C2S15064   4.430   5.335   2.743 -0.4178 -0.4251  0.1859
  139OSM    H2S15065   4.520   5.377   2.793 -0.8308 -0.1437  0.7055
  139OSM    C3S15066   4.320   5.430   2.786  0.0554  0.0760 -0.6021
  139OSM    H3S15067   4.234   5.405   2.719 -0.0118 -0.3307 -0.3688
  139OSM     O315068   4.350   5.570   2.751  0.7614 -0.0104  0.1568
  139OSM    HO315069   4.425   5.561   2.692 -0.2053  0.2391 -1.1447
  139OSM    C4S15070   4.267   5.415   2.928 -0.1302  0.0686  0.0921
  139OSM    H4S15071   4.201   5.327   2.933 -0.9532  0.7278  1.1505
  139OSM    C5S15072   4.315   5.464   3.049 -0.3350 -1.1503  0.2349
  139OSM    H5S15073   4.408   5.522   3.056 -1.1481  0.2222  0.1699
  139OSM    C6S15074   4.267   5.434   3.186 -0.3540 -0.5187  0.3385
  139OSM    H6S15075   4.201   5.344   3.189 -0.5098 -0.4320 -0.4701
  139OSM    H6T15076   4.192   5.509   3.220 -0.2408  0.2924 -1.1222
  139OSM    C7S15077   4.377   5.420   3.292 -0.6268  0.3454  0.0891
  139OSM    H7S15078   4.447   5.506   3.296  1.3026 -1.1961  1.9798
  139OSM    H7T15079   4.445   5.336   3.267 -0.4462  0.5475 -0.1025
  139OSM    C8S15080   4.319   5.387   3.434 -0.4754 -0.3929  0.5818
  139OSM    H8S15081   4.264   5.291   3.432 -3.2817  1.0547  1.3854
  139OSM    H8T15082   4.249   5.472   3.456 -0.3817 -0.6805  2.1201
  139OSM    C9S15083   4.427   5.382   3.538  0.5961  0.2182  0.3665
  139OSM    H9S15084   4.484   5.477   3.539  2.3810 -0.8178  0.9108
  139OSM    H9T15085   4.495   5.295   3.524 -0.6800 -0.7603  0.0481
  139OSM   C10S15086   4.364   5.366   3.678  0.4297  0.3406  0.6913
  139OSM   H10S15087   4.332   5.260   3.688  1.4846  0.0095  0.6647
  139OSM   H10T15088   4.275   5.433   3.678  1.6097  2.0593 -1.6781
  139OSM   C11S15089   4.457   5.429   3.777 -0.6613 -0.0029  0.6748
  139OSM   H11S15090   4.493   5.530   3.750  0.4071 -0.6463 -0.4108
  139OSM   H11T15091   4.550   5.367   3.779 -0.8738 -0.3267  2.2489
  139OSM   C12S15092   4.403   5.423   3.914 -0.9201  0.0681  0.0666
  139OSM   H12S15093   4.372   5.319   3.938  1.1679 -0.3388  1.3223
  139OSM   H12T15094   4.309   5.481   3.903 -0.1714  1.2496 -0.2857
  139OSM   C13S15095   4.501   5.488   4.014  0.2550 -0.4324  0.7131
  139OSM   H13S15096   4.516   5.595   3.988 -0.6772 -0.3738  0.3797
  139OSM   H13T15097   4.596   5.438   3.986 -0.2775 -0.8403 -0.4090
  139OSM   C14S15098   4.462   5.472   4.158  0.9510  0.4186 -0.1785
  139OSM   H14S15099   4.552   5.503   4.215  0.5441  0.2118  0.5920
  139OSM   H14T15100   4.443   5.368   4.194 -1.3206  0.9008  0.1905
  139OSM   C15S15101   4.343   5.558   4.206  0.0615  0.1643  0.3629
  139OSM   H15S15102   4.259   5.511   4.151  0.2601  1.0181 -0.7006
  139OSM   H15T15103   4.344   5.657   4.157  0.3331 -0.9323 -1.9750
  139OSM   C16S15104   4.333   5.562   4.364 -0.3583  0.7090  0.2434
  139OSM   H16S15105   4.432   5.593   4.402  0.4074 -1.8106  0.4726
  139OSM   H16T15106   4.334   5.458   4.404  3.2055  1.2070  1.8438
  139OSM   C17S15107   4.216   5.651   4.415 -0.0949  0.2363 -0.2283
  139OSM   H17S15108   4.116   5.612   4.389  0.3310 -1.7328  0.8610
  139OSM   H17T15109   4.241   5.755   4.385 -0.9586  0.8609  1.0936
  139OSM   C18S15110   4.226   5.658   4.570 -0.3030  0.7303  0.6395
  139OSM   H18S15111   4.193   5.752   4.619  0.8846  2.6419 -1.9597
  139OSM   H18T15112   4.336   5.658   4.587 -0.3399 -1.5553  1.1020
  139OSM   H18U15113   4.184   5.563   4.608  1.2253 -1.0573 -1.8672
  139OSM    C1F15114   4.512   5.112   2.790 -0.3564  0.4453  0.1485
  139OSM     OF15115   4.620   5.161   2.812  0.5697  0.0373  0.1138
  139OSM    C2F15116   4.486   4.965   2.779  0.0453 -0.0553  0.2933
  139OSM    H2F15117   4.481   4.944   2.670 -0.8986 -0.4381  0.3999
  139OSM    H2G15118   4.383   4.933   2.806  0.5773 -1.5649  0.6526
  139OSM    C3F15119   4.597   4.876   2.835 -0.3389 -0.5894 -0.0588
  139OSM    H3F15120   4.704   4.897   2.812  0.1199  0.5169  2.6651
  139OSM    H3G15121   4.583   4.770   2.804 -0.1944  0.3190 -3.6671
  139OSM    C4F15122   4.596   4.881   2.990 -0.0349  0.7950 -0.5042
  139OSM    H4F15123   4.499   4.843   3.028  1.5006 -1.2844  1.7253
  139OSM    H4G15124   4.620   4.985   3.020  0.9712  0.9577 -1.7794
  139OSM    C5F15125   4.690   4.774   3.051  0.2297 -0.6551  0.0625
  139OSM    H5F15126   4.794   4.800   3.021  0.0562  2.0576  1.5153
  139OSM    H5G15127   4.660   4.670   3.028 -0.6310 -0.5605  0.7067
  139OSM    C6F15128   4.682   4.772   3.200 -0.0332  0.8208  0.3461
  139OSM    H6F15129   4.576   4.790   3.229 -0.0158  4.1670 -1.1445
  139OSM    H6G15130   4.734   4.864   3.235  1.1846  0.4640 -0.4737
  139OSM    C7F15131   4.752   4.655   3.261 -0.1431 -0.0360  0.2336
  139OSM    H7F15132   4.859   4.663   3.233  0.3326  1.7239  2.2375
  139OSM    H7G15133   4.710   4.560   3.221  3.2959 -0.7904 -1.9944
  139OSM    C8F15134   4.743   4.648   3.413 -0.4012 -0.2117 -0.3838
  139OSM    H8F15135   4.774   4.747   3.453 -1.9430  1.1618 -2.3700
  139OSM    H8G15136   4.818   4.574   3.450  1.9864  0.2033 -3.8493
  139OSM    C9F15137   4.607   4.617   3.473  0.0573  0.4310  0.1208
  139OSM    H9F15138   4.555   4.573   3.386  2.1421  0.0358 -0.9953
  139OSM   C10F15139   4.544   4.658   3.585 -0.3309 -0.3931 -0.6697
  139OSM   H10F15140   4.443   4.620   3.606 -0.4712  0.5439  0.4299
  139OSM   C11F15141   4.618   4.722   3.704 -0.4591 -0.3972 -0.2326
  139OSM   H11F15142   4.558   4.809   3.740  0.1232 -0.4210  0.8117
  139OSM   H11G15143   4.718   4.762   3.676 -1.5183  1.3929 -1.6659
  139OSM   C12F15144   4.655   4.617   3.806  0.0659 -0.0520 -0.3301
  139OSM   H12F15145   4.710   4.669   3.888  0.3256 -0.8165 -0.0090
  139OSM   H12G15146   4.724   4.536   3.775  0.8672  1.8594 -4.1390
  139OSM   C13F15147   4.520   4.553   3.867 -0.6096  0.4691  0.3300
  139OSM   H13F15148   4.544   4.476   3.944 -1.3197 -0.3013 -0.1944
  139OSM   H13G15149   4.484   4.498   3.777  2.6882 -0.9062 -0.3093
  139OSM   C14F15150   4.413   4.651   3.928  0.0572 -0.8118 -0.7062
  139OSM   H14F15151   4.328   4.590   3.967 -1.1102  0.8738 -0.5031
  139OSM   H14G15152   4.375   4.705   3.839 -0.4804 -0.3981 -0.2296
  139OSM   C15F15153   4.459   4.755   4.025 -0.3878  0.0266 -0.0319
  139OSM   H15F15154   4.530   4.832   3.988  0.3732 -0.6504 -0.0210
  139OSM   H15G15155   4.515   4.691   4.096  0.4459 -0.4712 -1.1013
  139OSM   C16F15156   4.343   4.827   4.101 -0.0584  0.4887  0.6187
  139OSM   H16F15157   4.292   4.753   4.167  0.5978  1.0650  1.8071
  139OSM   H16G15158   4.265   4.859   4.028  0.7408 -1.3999 -1.1761
  139OSM   C17F15159   4.387   4.948   4.183  0.8488  0.8939 -0.0444
  139OSM   H17F15160   4.285   4.975   4.218  0.0068  0.8162 -2.2876
  139OSM   H17G15161   4.435   5.024   4.118  3.1503  0.7011  1.3383
  139OSM   C18F15162   4.475   4.913   4.303 -0.6562 -0.2972  0.7436
  139OSM   H18F15163   4.526   5.005   4.339  1.1052 -1.0895  0.3715
  139OSM   H18G15164   4.555   4.841   4.274 -0.0373 -0.4328  2.6535
  139OSM   H18H15165   4.414   4.883   4.390 -0.5988  2.1918  1.7113
  140OSM      N15166   1.881   5.750   1.879 -0.2841  0.1590  0.1644
  140OSM    C1515167   2.022   5.725   1.903 -0.2801  0.4484  0.2148
  140OSM   H15A15168   2.079   5.791   1.839 -1.9853  1.2241 -0.5673
  140OSM   H15B15169   2.052   5.625   1.876  1.1639  1.2154 -1.2049
  140OSM   H15C15170   2.062   5.759   1.997 -0.0035  1.7459 -0.3411
  140OSM    C1415171   1.834   5.879   1.933 -0.2888  0.3925 -0.1907
  140OSM   H14A15172   1.893   5.912   2.017 -1.8827 -0.5902  1.4062
  140OSM   H14B15173   1.728   5.879   1.953 -0.4950 -2.2387 -0.9176
  140OSM   H14C15174   1.844   5.949   1.852  0.8415  0.4355 -0.0315
  140OSM    C1315175   1.854   5.761   1.734 -0.2742  1.1005 -0.8693
  140OSM   H13A15176   1.877   5.674   1.675 -0.4932  1.5133 -1.5782
  140OSM   H13B15177   1.897   5.851   1.692  1.8972  0.6354  0.2348
  140OSM   H13C15178   1.748   5.775   1.715 -0.6203 -0.2710 -0.0919
  140OSM    C1215179   1.797   5.632   1.931 -0.5150 -0.2646  0.3577
  140OSM   H12A15180   1.834   5.543   1.882  2.5637  2.2593 -2.3461
  140OSM   H12B15181   1.695   5.646   1.899 -1.0278 -0.1244  1.9464
  140OSM    C1115182   1.798   5.607   2.086  0.5738 -0.3051  0.2955
  140OSM   H11A15183   1.904   5.590   2.118  1.6798  0.2865 -2.7419
  140OSM   H11B15184   1.742   5.512   2.087 -2.0446  1.1565  1.1851
  140OSM      P15185   1.579   5.716   2.170  0.5551 -0.1617  0.0997
  140OSM    O1315186   1.530   5.761   2.038 -0.0268 -0.4067  0.1967
  140OSM    O1415187   1.541   5.581   2.213 -0.2351  0.2528  0.5508
  140OSM    O1115188   1.558   5.825   2.280  0.2474  0.0909 -0.1358
  140OSM    O1215189   1.739   5.715   2.163 -0.2282  0.0735 -0.1761
  140OSM    C1S15190   1.524   5.794   2.413 -0.4523 -0.2537 -0.2165
  140OSM    H1S15191   1.574   5.701   2.449 -1.5448 -0.7167  0.1316
  140OSM    H1T15192   1.414   5.779   2.414 -1.2789  4.3643  1.5157
  140OSM     NF15193   1.464   5.865   2.638  0.3297 -0.0150  0.5454
  140OSM    HNF15194   1.372   5.892   2.667  0.1987 -0.0932  0.2007
  140OSM    C2S15195   1.519   5.915   2.511 -0.6164  0.6119  0.5428
  140OSM    H2S15196   1.623   5.943   2.538 -0.5103 -0.5297  1.3902
  140OSM    C3S15197   1.448   6.046   2.461 -0.0088 -0.0325 -0.8825
  140OSM    H3S15198   1.337   6.034   2.463 -0.0852  0.5522 -1.3151
  140OSM     O315199   1.483   6.069   2.326 -0.0102  0.2113  0.3102
  140OSM    HO315200   1.510   5.985   2.288  1.2274  1.7531 -2.5692
  140OSM    C4S15201   1.488   6.161   2.547 -0.1340 -0.4247 -0.1615
  140OSM    H4S15202   1.578   6.211   2.508 -2.2606  2.7060 -1.4326
  140OSM    C5S15203   1.404   6.235   2.625  0.3293 -0.0063  0.4553
  140OSM    H5S15204   1.297   6.209   2.623  0.7068 -1.7070 -1.0146
  140OSM    C6S15205   1.443   6.360   2.697  0.0429 -0.1875 -0.1485
  140OSM    H6S15206   1.403   6.443   2.634  0.6478  0.5869  0.4762
  140OSM    H6T15207   1.553   6.369   2.707  0.0534 -0.6465  0.1577
  140OSM    C7S15208   1.375   6.361   2.838 -0.3947  0.0294 -0.6017
  140OSM    H7S15209   1.387   6.271   2.902  0.0954  1.5873  1.6045
  140OSM    H7T15210   1.267   6.385   2.825  0.0105  1.7498 -1.1765
  140OSM    C8S15211   1.438   6.471   2.933 -0.0553  0.5721  0.9601
  140OSM    H8S15212   1.438   6.568   2.878 -0.5085  0.3596  0.5788
  140OSM    H8T15213   1.544   6.447   2.957  0.3429 -0.0708 -1.2260
  140OSM    C9S15214   1.356   6.503   3.065 -0.1817  0.9359  0.2290
  140OSM    H9S15215   1.366   6.428   3.146 -2.7303 -0.5548 -0.7357
  140OSM    H9T15216   1.247   6.510   3.046 -0.5298 -2.6995  0.2696
  140OSM   C10S15217   1.421   6.622   3.137  0.2940 -0.5243  0.6872
  140OSM   H10S15218   1.426   6.702   3.060  0.9230 -0.7687  0.4687
  140OSM   H10T15219   1.526   6.593   3.158  0.3621 -2.0543 -1.4458
  140OSM   C11S15220   1.351   6.672   3.264 -0.4817 -0.4722 -0.1308
  140OSM   H11S15221   1.245   6.698   3.244  0.2343  1.2873 -2.0354
  140OSM   H11T15222   1.409   6.759   3.303  1.7245 -1.5561 -0.8053
  140OSM   C12S15223   1.345   6.572   3.382  0.5183  0.0721 -0.5021
  140OSM   H12S15224   1.446   6.539   3.414  1.2835  0.2192 -2.6011
  140OSM   H12T15225   1.283   6.486   3.348  0.4173  1.3018 -3.8818
  140OSM   C13S15226   1.279   6.648   3.505 -0.1333  0.3674  0.5842
  140OSM   H13S15227   1.169   6.655   3.491  0.1046  0.8575 -1.4429
  140OSM   H13T15228   1.299   6.758   3.504  2.7623 -0.0068 -2.4694
  140OSM   C14S15229   1.315   6.599   3.649 -0.1258 -0.0119 -0.0654
  140OSM   H14S15230   1.410   6.641   3.688 -1.2982  0.4139  2.5370
  140OSM   H14T15231   1.324   6.488   3.642  1.7063  0.1827 -1.7587
  140OSM   C15S15232   1.214   6.644   3.753  0.0653  0.1292  0.1212
  140OSM   H15S15233   1.248   6.613   3.854 -0.1526 -2.5126 -0.5296
  140OSM   H15T15234   1.117   6.591   3.739 -0.6182  1.6612 -1.2545
  140OSM   C16S15235   1.194   6.795   3.760  0.7624  0.1440  0.3339
  140OSM   H16S15236   1.149   6.823   3.662 -0.8048 -0.7338  0.7699
  140OSM   H16T15237   1.292   6.848   3.754  0.4688  0.5352 -1.8461
  140OSM   C17S15238   1.100   6.841   3.876  0.0565  1.3037 -0.1544
  140OSM   H17S15239   1.002   6.790   3.868  0.3532  0.8148 -0.7596
  140OSM   H17T15240   1.063   6.946   3.872 -0.3694  1.2176  1.1457
  140OSM   C18S15241   1.146   6.825   4.021 -0.1705 -0.3589 -0.0268
  140OSM   H18S15242   1.167   6.720   4.048  0.0367 -0.4140 -0.3871
  140OSM   H18T15243   1.072   6.872   4.089  0.7603 -0.6518  1.2113
  140OSM   H18U15244   1.242   6.881   4.030  0.6428 -1.6208 -0.5530
  140OSM    C1F15245   1.528   5.778   2.713 -0.3400 -0.4749  0.1102
  140OSM     OF15246   1.644   5.742   2.684 -0.4464  0.5904 -0.0182
  140OSM    C2F15247   1.465   5.731   2.836 -0.8609 -0.0316 -0.0691
  140OSM    H2F15248   1.451   5.621   2.835  0.5452 -0.3011  2.2287
  140OSM    H2G15249   1.364   5.777   2.832 -0.9295 -0.2512 -1.1654
  140OSM    C3F15250   1.545   5.772   2.964 -0.1151 -0.3152  0.1424
  140OSM    H3F15251   1.550   5.883   2.974  1.6318 -0.3211 -0.4239
  140OSM    H3G15252   1.645   5.726   2.965 -0.2343 -0.5762  0.1682
  140OSM    C4F15253   1.483   5.715   3.094 -0.8460 -0.0565  0.3465
  140OSM    H4F15254   1.484   5.606   3.069  0.9753  0.3166 -1.4041
  140OSM    H4G15255   1.384   5.759   3.121 -1.3848 -0.3262 -1.0999
  140OSM    C5F15256   1.562   5.739   3.225 -0.5002  0.4179  0.6593
  140OSM    H5F15257   1.597   5.844   3.230 -0.1963  0.6056 -3.0288
  140OSM    H5G15258   1.653   5.676   3.229 -1.1324 -0.5605  0.1373
  140OSM    C6F15259   1.484   5.708   3.350 -0.0122  0.1374 -0.6533
  140OSM    H6F15260   1.441   5.606   3.360  0.6217  0.0903  2.7162
  140OSM    H6G15261   1.399   5.779   3.351  3.1339  4.2375 -0.5825
  140OSM    C7F15262   1.568   5.736   3.478  0.0744 -0.7006  0.7443
  140OSM    H7F15263   1.676   5.711   3.469 -0.0039 -0.5709 -0.8344
  140OSM    H7G15264   1.536   5.658   3.550 -4.3165 -1.4316 -1.6320
  140OSM    C8F15265   1.552   5.880   3.529  0.1796 -0.3425  0.1787
  140OSM    H8F15266   1.594   5.949   3.454 -0.9158  1.9770  1.5953
  140OSM    H8G15267   1.626   5.884   3.612 -0.3663 -0.6092  0.6974
  140OSM    C9F15268   1.426   5.948   3.573  0.5215  0.1381  0.8018
  140OSM    H9F15269   1.351   5.962   3.494  0.6165  2.3157  1.0359
  140OSM   C10F15270   1.386   5.982   3.696  0.2051  0.2148  0.3194
  140OSM   H10F15271   1.286   6.028   3.703 -1.5302 -3.1178 -0.0081
  140OSM   C11F15272   1.454   5.972   3.832 -0.3994 -0.4789 -0.4469
  140OSM   H11F15273   1.562   5.959   3.810 -0.5686  0.1979 -1.7487
  140OSM   H11G15274   1.419   5.885   3.891 -0.5963  0.7222  1.3242
  140OSM   C12F15275   1.439   6.091   3.934 -0.3344  0.2293  0.3862
  140OSM   H12F15276   1.502   6.083   4.025  1.7944  2.1152 -0.8294
  140OSM   H12G15277   1.334   6.114   3.964 -0.8520 -1.2324 -0.2188
  140OSM   C13F15278   1.487   6.230   3.884 -0.2680  0.0789 -0.2565
  140OSM   H13F15279   1.440   6.241   3.784  2.0379  2.6050 -1.1900
  140OSM   H13G15280   1.597   6.226   3.869 -0.0535 -1.6986  1.3390
  140OSM   C14F15281   1.462   6.348   3.985  0.2539 -0.0765 -0.0126
  140OSM   H14F15282   1.486   6.339   4.093  2.2665  1.7607 -0.2209
  140OSM   H14G15283   1.357   6.379   3.971  0.7702  1.2400 -1.3177
  140OSM   C15F15284   1.536   6.467   3.925 -0.0350 -0.2897  0.2925
  140OSM   H15F15285   1.509   6.489   3.820  1.1394  3.1596  0.5774
  140OSM   H15G15286   1.644   6.441   3.915  0.0524  0.3286 -0.4399
  140OSM   C16F15287   1.524   6.590   4.008  0.1478  0.2314  0.0507
  140OSM   H16F15288   1.581   6.586   4.104 -0.8956 -0.6616  0.6591
  140OSM   H16G15289   1.420   6.609   4.042  0.9733  2.8274  1.4498
  140OSM   C17F15290   1.556   6.723   3.930  0.2795 -0.0620  0.2048
  140OSM   H17F15291   1.497   6.731   3.836 -1.4165 -0.8808  1.1502
  140OSM   H17G15292   1.663   6.720   3.901  0.6376 -1.5749  1.5158
  140OSM   C18F15293   1.540   6.857   4.004 -0.5825  0.1970 -0.1571
  140OSM   H18F15294   1.594   6.847   4.101 -2.4836 -0.5312  0.8770
  140OSM   H18G15295   1.435   6.883   4.031 -0.6188 -1.0350  0.9694
  140OSM   H18H15296   1.597   6.936   3.950  1.7714 -2.5819 -2.0934
  141OSM      N15297   2.077   2.514   1.496 -0.1140  0.7955  0.7544
  141OSM    C1515298   2.006   2.593   1.395  0.2139 -0.1453  0.3736
  141OSM   H15A15299   1.900   2.573   1.392  0.4094 -1.0852 -0.9809
  141OSM   H15B15300   2.036   2.574   1.293  0.7505  0.0930  0.4842
  141OSM   H15C15301   2.009   2.698   1.419  0.8293 -0.0044 -0.2752
  141OSM    C1415302   2.034   2.561   1.628  0.0547 -0.1262  0.2351
  141OSM   H14A15303   1.926   2.561   1.625 -0.0741  1.5006  2.4878
  141OSM   H14B15304   2.061   2.662   1.652 -0.0152 -0.3391  1.2302
  141OSM   H14C15305   2.060   2.486   1.701  1.7796  1.1310  0.9713
  141OSM    C1315306   2.031   2.380   1.472 -0.2469  1.0430 -0.0217
  141OSM   H13A15307   2.093   2.312   1.528 -0.6573  0.6587 -0.0288
  141OSM   H13B15308   2.030   2.347   1.370 -0.1426 -0.6203  0.4886
  141OSM   H13C15309   1.930   2.376   1.511 -1.0525  3.1627 -1.7237
  141OSM    C1215310   2.222   2.525   1.475 -0.6550  0.8089 -0.4206
  141OSM   H12A15311   2.243   2.630   1.456  1.5178  0.1271 -2.2425
  141OSM   H12B15312   2.242   2.478   1.380 -3.2799 -1.1724 -0.0988
  141OSM    C1115313   2.308   2.456   1.589 -0.5488  0.1901  0.2651
  141OSM   H11A15314   2.284   2.508   1.685  1.1591 -0.2458  0.9778
  141OSM   H11B15315   2.414   2.470   1.559 -0.1154 -0.3887  1.4382
  141OSM      P15316   2.255   2.257   1.742 -0.1299 -0.3059 -0.6109
  141OSM    O1315317   2.132   2.312   1.804  0.0262  0.3308  0.1261
  141OSM    O1415318   2.277   2.113   1.726  0.0384 -0.4335  0.1216
  141OSM    O1115319   2.379   2.306   1.821 -0.1237  1.1598 -0.1131
  141OSM    O1215320   2.279   2.315   1.602 -0.6929  0.0821  0.6596
  141OSM    C1S15321   2.396   2.414   1.906  0.4566 -0.7037 -0.3714
  141OSM    H1S15322   2.327   2.499   1.890 -0.9199 -2.1454 -2.4658
  141OSM    H1T15323   2.494   2.460   1.883  0.6398 -0.7443  0.2994
  141OSM     NF15324   2.436   2.501   2.130  0.2356  0.3744  0.0261
  141OSM    HNF15325   2.531   2.512   2.159  0.3143  0.5267 -0.2878
  141OSM    C2S15326   2.410   2.378   2.051 -0.9491 -0.1465  0.1198
  141OSM    H2S15327   2.313   2.353   2.099 -1.3709  0.3335 -0.4621
  141OSM    C3S15328   2.516   2.262   2.068  0.5172  0.2100 -0.0985
  141OSM    H3S15329   2.610   2.310   2.032  0.4354  0.5224  0.0990
  141OSM     O315330   2.497   2.147   1.988 -0.7818 -0.1946  0.3260
  141OSM    HO315331   2.438   2.167   1.916  0.6792 -2.6459 -1.7266
  141OSM    C4S15332   2.543   2.231   2.216 -0.2532  0.3574  0.3688
  141OSM    H4S15333   2.610   2.300   2.269 -1.4541  1.5564  0.3843
  141OSM    C5S15334   2.468   2.141   2.291 -0.8922  0.4503 -0.0378
  141OSM    H5S15335   2.385   2.092   2.237  0.0166  0.8533 -1.8900
  141OSM    C6S15336   2.490   2.111   2.438 -0.1799 -0.2426 -0.4846
  141OSM    H6S15337   2.514   2.003   2.448 -1.1711 -0.6247 -1.9746
  141OSM    H6T15338   2.393   2.110   2.491  0.6976 -0.6023  1.1748
  141OSM    C7S15339   2.598   2.191   2.516 -0.0339 -0.2080  0.1425
  141OSM    H7S15340   2.690   2.193   2.453 -0.8951  0.8874 -1.1294
  141OSM    H7T15341   2.602   2.145   2.617 -2.6882  0.0201  0.3976
  141OSM    C8S15342   2.577   2.343   2.532 -0.4747  0.0051  0.3006
  141OSM    H8S15343   2.555   2.390   2.434  0.3645  1.1816  0.6488
  141OSM    H8T15344   2.673   2.387   2.567 -2.1899  3.4624  1.1402
  141OSM    C9S15345   2.466   2.391   2.627  0.5267 -0.5317 -0.1874
  141OSM    H9S15346   2.368   2.340   2.618 -0.2675  0.4320  2.1867
  141OSM    H9T15347   2.454   2.501   2.620 -1.4755 -0.6128  1.1760
  141OSM   C10S15348   2.519   2.365   2.771  0.3439  0.3580  0.0362
  141OSM   H10S15349   2.630   2.373   2.772  0.2378  2.3046  0.0217
  141OSM   H10T15350   2.499   2.259   2.797  1.4099  0.4287  1.2237
  141OSM   C11S15351   2.450   2.448   2.881  0.5579  0.3821  0.1885
  141OSM   H11S15352   2.342   2.466   2.860  1.0093  1.3878 -1.4603
  141OSM   H11T15353   2.508   2.543   2.884  1.0439  0.0726  0.6862
  141OSM   C12S15354   2.447   2.387   3.024  0.7157  0.2574 -1.0335
  141OSM   H12S15355   2.416   2.280   3.030  0.1148  0.4968  1.9422
  141OSM   H12T15356   2.389   2.447   3.097  2.6666 -1.5552  2.2872
  141OSM   C13S15357   2.585   2.394   3.088  0.7027  0.4627 -0.0876
  141OSM   H13S15358   2.602   2.501   3.111 -0.6478  0.0870  3.0997
  141OSM   H13T15359   2.663   2.356   3.018 -0.2473  2.6085 -2.4997
  141OSM   C14S15360   2.592   2.296   3.206  0.2017 -0.4367 -0.5087
  141OSM   H14S15361   2.573   2.193   3.170 -1.0845 -1.1409  1.9541
  141OSM   H14T15362   2.510   2.323   3.276  1.5408  0.0996  0.9133
  141OSM   C15S15363   2.723   2.292   3.286  0.1660  0.4013  0.0366
  141OSM   H15S15364   2.739   2.394   3.327 -0.8481  1.6119 -2.3917
  141OSM   H15T15365   2.811   2.275   3.221 -0.5913  1.0924 -1.2107
  141OSM   C16S15366   2.719   2.189   3.405  0.0465  0.8447  0.3220
  141OSM   H16S15367   2.703   2.094   3.349 -3.3665  0.6686  1.3936
  141OSM   H16T15368   2.626   2.205   3.462  0.7832 -0.0461  1.8430
  141OSM   C17S15369   2.842   2.192   3.492  0.4649 -1.0875 -0.1038
  141OSM   H17S15370   2.935   2.186   3.432  1.2185  2.1589  0.5739
  141OSM   H17T15371   2.846   2.105   3.562  1.4128 -0.9711 -0.0027
  141OSM   C18S15372   2.852   2.314   3.588  0.1062 -0.6059 -0.1975
  141OSM   H18S15373   2.778   2.318   3.671  1.1045 -2.1313  0.8074
  141OSM   H18T15374   2.848   2.407   3.526  2.1718 -1.5374 -1.8358
  141OSM   H18U15375   2.957   2.313   3.624  0.5593 -5.0006 -1.0759
  141OSM    C1F15376   2.346   2.598   2.155  0.4722  0.4563 -0.0524
  141OSM     OF15377   2.232   2.593   2.108  0.3182 -0.3859 -0.4558
  141OSM    C2F15378   2.406   2.717   2.239 -0.3946 -0.1819 -0.3519
  141OSM    H2F15379   2.511   2.744   2.213 -0.7420  1.3500 -0.3012
  141OSM    H2G15380   2.398   2.677   2.342 -1.8278 -0.8414 -0.6971
  141OSM    C3F15381   2.317   2.852   2.231 -0.3562  0.9395 -0.3883
  141OSM    H3F15382   2.209   2.826   2.240 -0.0413  0.2211  1.8574
  141OSM    H3G15383   2.346   2.896   2.134  3.3416  0.6321  0.4226
  141OSM    C4F15384   2.349   2.966   2.335  0.3190  0.8054  0.1910
  141OSM    H4F15385   2.286   3.056   2.313  0.8055  0.7761 -1.4555
  141OSM    H4G15386   2.454   3.002   2.342 -0.1637  2.2099  0.6630
  141OSM    C5F15387   2.306   2.923   2.473 -0.4018  0.0465 -0.4947
  141OSM    H5F15388   2.358   2.828   2.496  1.1023  1.1137  0.7726
  141OSM    H5G15389   2.197   2.901   2.475  0.1541 -3.1692 -0.5752
  141OSM    C6F15390   2.347   3.016   2.592  0.6123 -0.0655 -0.0074
  141OSM    H6F15391   2.315   3.120   2.568  2.0229  0.2301 -0.7106
  141OSM    H6G15392   2.458   3.020   2.604  0.6398 -1.5872  0.4208
  141OSM    C7F15393   2.276   2.962   2.718  0.8088  0.0230 -0.5493
  141OSM    H7F15394   2.307   2.856   2.730 -0.2763 -0.2451 -0.0254
  141OSM    H7G15395   2.170   2.949   2.688  0.7730  0.9650 -0.8784
  141OSM    C8F15396   2.315   3.038   2.847 -0.1141 -0.2883 -0.1161
  141OSM    H8F15397   2.238   3.031   2.927 -0.3678  0.4540 -0.2820
  141OSM    H8G15398   2.295   3.147   2.838 -0.0383 -0.2440  0.2305
  141OSM    C9F15399   2.462   3.008   2.887  0.9594  0.4778  0.0887
  141OSM    H9F15400   2.527   3.070   2.823  0.5173 -0.5212 -1.3884
  141OSM   C10F15401   2.498   2.925   2.987 -0.1637  0.1958  0.3179
  141OSM   H10F15402   2.604   2.897   3.002 -0.1964 -0.4359 -0.5108
  141OSM   C11F15403   2.398   2.843   3.064 -0.3745  0.0019 -0.1305
  141OSM   H11F15404   2.375   2.752   3.004 -0.2546  1.3922 -2.4445
  141OSM   H11G15405   2.303   2.896   3.083 -1.5598 -2.1073  0.1488
  141OSM   C12F15406   2.462   2.789   3.196  0.5076  0.7803 -0.4332
  141OSM   H12F15407   2.490   2.873   3.262 -0.6326  0.7657  0.0902
  141OSM   H12G15408   2.556   2.736   3.169 -1.4320 -2.1747 -1.9247
  141OSM   C13F15409   2.378   2.684   3.277  0.5040 -0.6833  0.8412
  141OSM   H13F15410   2.313   2.620   3.213 -1.0078  0.4978  1.1673
  141OSM   H13G15411   2.311   2.741   3.344  0.2186  0.4339 -0.3539
  141OSM   C14F15412   2.462   2.605   3.376  0.1386 -0.1653 -0.5808
  141OSM   H14F15413   2.517   2.676   3.441 -0.1154 -1.3954  1.0661
  141OSM   H14G15414   2.531   2.541   3.316 -1.1324 -1.1199 -1.0638
  141OSM   C15F15415   2.384   2.515   3.472 -0.0878  0.4935  0.0130
  141OSM   H15F15416   2.326   2.441   3.413 -0.0035  0.6606 -0.2832
  141OSM   H15G15417   2.308   2.575   3.526  0.9853  1.9908 -0.0810
  141OSM   C16F15418   2.482   2.453   3.570 -0.2259 -0.9860  0.1538
  141OSM   H16F15419   2.533   2.525   3.637  0.5113 -1.0832 -0.2835
  141OSM   H16G15420   2.561   2.392   3.520 -0.7368 -1.7885  0.2966
  141OSM   C17F15421   2.400   2.358   3.649  0.4521  0.3098 -0.0490
  141OSM   H17F15422   2.347   2.293   3.577 -1.8810  1.8554  0.1564
  141OSM   H17G15423   2.319   2.416   3.698  2.1875  2.0884  0.9071
  141OSM   C18F15424   2.472   2.283   3.758 -0.7050  0.3996 -0.4344
  141OSM   H18F15425   2.567   2.231   3.732 -0.0009  0.3352  2.0430
  141OSM   H18G15426   2.410   2.210   3.815 -0.2167 -0.1299 -0.5641
  141OSM   H18H15427   2.507   2.351   3.839  2.8942  1.3508 -2.5301
  142OSM      N15428   4.979   5.163   2.582 -0.1788  0.6746  0.3735
  142OSM    C1515429   4.860   5.104   2.644 -0.1680 -0.1709  0.2745
  142OSM   H15A15430   4.822   5.022   2.586 -0.9792  0.0269  0.5033
  142OSM   H15B15431   4.775   5.171   2.656 -0.1351 -0.5967  4.5899
  142OSM   H15C15432   4.884   5.064   2.742  1.2175 -1.3432 -0.5121
  142OSM    C1415433   4.941   5.219   2.447 -0.2104  0.1221  0.5383
  142OSM   H14A15434   5.018   5.285   2.409  0.3682 -0.7823  0.1203
  142OSM   H14B15435   4.849   5.275   2.450 -0.3849  0.0440 -1.5945
  142OSM   H14C15436   4.928   5.136   2.380 -0.8706  0.1079  0.6804
  142OSM    C1315437   5.030   5.269   2.670  0.7692 -0.4204 -1.1440
  142OSM   H13A15438   4.949   5.340   2.680  0.7769 -0.3667 -1.4653
  142OSM   H13B15439   5.123   5.312   2.636  1.7913 -1.4034  0.3169
  142OSM   H13C15440   5.040   5.233   2.772  1.8054 -1.0275 -1.4497
  142OSM    C1215441   5.093   5.064   2.562  1.3549 -0.8414  0.1598
  142OSM   H12A15442   5.145   5.046   2.654 -0.1859  0.5553  1.3717
  142OSM   H12B15443   5.166   5.127   2.513  0.5633 -1.2294 -1.6185
  142OSM    C1115444   5.064   4.931   2.490 -0.1295 -0.1425 -0.0809
  142OSM   H11A15445   5.163   4.883   2.473 -0.1558  0.2661 -1.5555
  142OSM   H11B15446   5.012   4.951   2.394 -2.7553 -0.6402  1.1458
  142OSM      P15447   4.857   4.768   2.511 -0.1741 -0.0130 -0.2534
  142OSM    O1315448   4.743   4.857   2.486 -0.1597  0.0288 -0.2534
  142OSM    O1415449   4.903   4.691   2.390  0.3577  0.3935 -0.8924
  142OSM    O1115450   4.816   4.673   2.630  0.0194  0.2050  0.2667
  142OSM    O1215451   4.985   4.848   2.566 -0.3086  0.0435  0.1234
  142OSM    C1S15452   4.908   4.592   2.698 -0.5913  0.4431  1.0447
  142OSM    H1S15453   4.991   4.656   2.735 -0.9701  1.5668  0.0007
  142OSM    H1T15454   4.950   4.506   2.642  0.9449  2.0937 -0.5004
  142OSM     NF15455   4.954   4.470   2.909 -0.1831 -0.7734 -0.1178
  142OSM    HNF15456   4.957   4.370   2.918 -3.9726 -1.0725 -0.4548
  142OSM    C2S15457   4.846   4.526   2.825 -0.7295  0.5780  0.1276
  142OSM    H2S15458   4.800   4.606   2.888 -1.1130  0.0422  0.5450
  142OSM    C3S15459   4.733   4.419   2.782 -1.1104 -0.0895  0.0674
  142OSM    H3S15460   4.790   4.344   2.724 -0.4282 -0.1970  0.8544
  142OSM     O315461   4.633   4.477   2.709  0.1836 -0.5920 -0.5386
  142OSM    HO315462   4.656   4.570   2.704 -2.1172  0.1110  0.5893
  142OSM    C4S15463   4.676   4.345   2.897 -0.0240  0.4578 -0.1841
  142OSM    H4S15464   4.705   4.239   2.904 -2.3215 -0.2473 -0.2983
  142OSM    C5S15465   4.591   4.399   2.987  0.9674 -0.8175 -0.6329
  142OSM    H5S15466   4.546   4.495   2.962  1.3372 -0.4934 -0.0779
  142OSM    C6S15467   4.540   4.334   3.116  0.1220 -0.2059  0.4593
  142OSM    H6S15468   4.454   4.273   3.079  1.9643 -1.1226 -2.6643
  142OSM    H6T15469   4.505   4.403   3.195 -0.5313 -0.8452  0.7446
  142OSM    C7S15470   4.641   4.239   3.189 -0.8826  0.4114 -0.3727
  142OSM    H7S15471   4.724   4.306   3.221 -2.5587  1.4027  2.1681
  142OSM    H7T15472   4.677   4.161   3.117 -1.4913  2.4168 -3.0215
  142OSM    C8S15473   4.581   4.169   3.307  0.4136  0.0167  0.2227
  142OSM    H8S15474   4.475   4.142   3.289  1.1421 -2.5174 -0.6337
  142OSM    H8T15475   4.589   4.236   3.395  2.8724 -1.2943  1.1000
  142OSM    C9S15476   4.660   4.042   3.346 -0.1181 -0.3395  0.7447
  142OSM    H9S15477   4.764   4.077   3.333 -0.4498  1.3812  2.2224
  142OSM    H9T15478   4.634   3.965   3.270 -3.4627  1.9781 -0.7292
  142OSM   C10S15479   4.635   3.986   3.486 -0.1345  0.4753  0.2911
  142OSM   H10S15480   4.683   3.886   3.479 -0.3099  0.4625 -1.0229
  142OSM   H10T15481   4.524   3.985   3.492 -0.1891  0.7820 -0.5449
  142OSM   C11S15482   4.703   4.067   3.601  0.0889  0.1024  0.0801
  142OSM   H11S15483   4.659   4.168   3.610 -0.1222  0.0092  0.0956
  142OSM   H11T15484   4.812   4.082   3.582  0.5863 -0.9132  1.8618
  142OSM   C12S15485   4.680   3.998   3.736 -0.0830 -1.0639 -0.4230
  142OSM   H12S15486   4.719   3.897   3.763  0.4011 -0.5526  0.9062
  142OSM   H12T15487   4.571   3.987   3.751 -0.0446 -0.9380 -0.0274
  142OSM   C13S15488   4.747   4.084   3.848 -0.6168 -0.4623  0.4541
  142OSM   H13S15489   4.693   4.178   3.873 -1.1341 -0.8018  0.6297
  142OSM   H13T15490   4.851   4.110   3.818 -0.1158 -0.6299  1.9622
  142OSM   C14S15491   4.748   4.011   3.984 -0.4384  0.0377 -0.1955
  142OSM   H14S15492   4.789   3.912   3.954 -1.4912  0.5260 -3.6665
  142OSM   H14T15493   4.645   4.014   4.027 -0.5839 -1.1080 -0.4308
  142OSM   C15S15494   4.844   4.078   4.081 -0.3716 -0.4829 -0.3306
  142OSM   H15S15495   4.820   4.187   4.079 -1.0725 -0.5793  1.5053
  142OSM   H15T15496   4.949   4.063   4.046  0.0978 -0.9832  1.2357
  142OSM   C16S15497   4.822   4.021   4.220 -0.7187  0.2331  0.0946
  142OSM   H16S15498   4.898   4.053   4.295 -0.9410 -1.3350  1.0219
  142OSM   H16T15499   4.826   3.914   4.192  0.2307  0.2121  0.2770
  142OSM   C17S15500   4.688   4.062   4.286  1.3821  0.2244  0.5759
  142OSM   H17S15501   4.611   3.987   4.259  2.7140 -0.8919 -0.3186
  142OSM   H17T15502   4.645   4.158   4.251 -1.1253 -1.2702 -0.7716
  142OSM   C18S15503   4.698   4.072   4.438  0.1226  0.4389  0.3227
  142OSM   H18S15504   4.752   3.980   4.468 -0.6120  0.9152  3.4986
  142OSM   H18T15505   4.602   4.078   4.493  0.5347  0.8185  1.0226
  142OSM   H18U15506   4.759   4.162   4.464 -0.0678  0.5364  0.4347
  142OSM    C1F15507   5.044   4.549   2.972 -0.7258  0.7016  0.4561
  142OSM     OF15508   5.038   4.669   2.971 -0.3695 -0.3655  0.1618
  142OSM    C2F15509   5.159   4.471   3.035  0.3093 -0.2524  0.6361
  142OSM    H2F15510   5.243   4.498   2.967  0.0062  1.0667  0.7766
  142OSM    H2G15511   5.124   4.366   3.030  0.1575 -0.1479 -1.4504
  142OSM    C3F15512   5.177   4.514   3.185 -0.1328 -0.5464 -0.0335
  142OSM    H3F15513   5.080   4.504   3.239 -0.3980  1.2636 -0.0985
  142OSM    H3G15514   5.202   4.622   3.192 -0.5986 -0.5164  1.3855
  142OSM    C4F15515   5.279   4.425   3.259 -0.0970  0.5582 -0.5356
  142OSM    H4F15516   5.368   4.415   3.194  0.0794  1.1634 -0.3949
  142OSM    H4G15517   5.228   4.327   3.268 -0.0529  0.5340 -0.5532
  142OSM    C5F15518   5.314   4.468   3.396 -0.0984 -0.1825 -0.4319
  142OSM    H5F15519   5.364   4.566   3.398  0.4221 -0.4535  0.3026
  142OSM    H5G15520   5.401   4.405   3.423  1.5414  2.9603  2.4199
  142OSM    C6F15521   5.219   4.467   3.523  0.6738  0.0839 -0.0554
  142OSM    H6F15522   5.144   4.549   3.522  0.5875  0.0326  1.0991
  142OSM    H6G15523   5.283   4.482   3.612  1.2736  0.3202 -0.5147
  142OSM    C7F15524   5.140   4.328   3.527  0.4154 -0.2834  0.6515
  142OSM    H7F15525   5.217   4.249   3.514  1.0872  0.5914 -1.0126
  142OSM    H7G15526   5.080   4.330   3.434  0.7301 -0.6945  0.4349
  142OSM    C8F15527   5.052   4.299   3.649  0.8654 -0.0545  0.3076
  142OSM    H8F15528   5.113   4.248   3.727  1.3002  1.7185  1.1767
  142OSM    H8G15529   4.981   4.223   3.610 -0.1676  1.3705 -0.7071
  142OSM    C9F15530   4.970   4.421   3.703 -0.0790  0.8507 -0.1159
  142OSM    H9F15531   4.874   4.439   3.653  0.2956  1.0038 -0.7906
  142OSM   C10F15532   5.006   4.493   3.812 -0.8962 -0.5636  0.6128
  142OSM   H10F15533   4.945   4.580   3.841 -1.0491 -1.7476  4.4484
  142OSM   C11F15534   5.128   4.490   3.903 -0.2574 -0.5826  0.2842
  142OSM   H11F15535   5.157   4.590   3.942  2.1955 -0.4422 -1.6229
  142OSM   H11G15536   5.219   4.460   3.846 -0.0689  0.2932  0.1184
  142OSM   C12F15537   5.110   4.397   4.021  0.3402  0.7994  0.2388
  142OSM   H12F15538   5.086   4.294   3.989 -0.1079 -0.4644  4.0453
  142OSM   H12G15539   5.023   4.433   4.080  0.2664  1.4890 -0.2739
  142OSM   C13F15540   5.235   4.381   4.107 -0.8609  0.3239  0.2418
  142OSM   H13F15541   5.271   4.484   4.132 -1.6047  1.1313 -1.8286
  142OSM   H13G15542   5.307   4.331   4.040  1.3092  0.9418  1.9688
  142OSM   C14F15543   5.224   4.301   4.239 -0.4266  0.3839 -0.5711
  142OSM   H14F15544   5.133   4.334   4.293 -0.5833 -1.2356  0.2280
  142OSM   H14G15545   5.318   4.307   4.298  0.3224 -1.3793 -1.5138
  142OSM   C15F15546   5.213   4.159   4.209  0.0988 -0.4813  0.2191
  142OSM   H15F15547   5.293   4.124   4.140  0.6414  1.6045 -0.2747
  142OSM   H15G15548   5.122   4.132   4.153 -0.8661  1.0336  0.9897
  142OSM   C16F15549   5.215   4.079   4.347  0.3201 -0.6324 -0.1638
  142OSM   H16F15550   5.112   4.075   4.389  0.8531  0.6832  1.3557
  142OSM   H16G15551   5.282   4.133   4.417  0.2756 -0.8516  0.0486
  142OSM   C17F15552   5.268   3.934   4.324  0.3576 -0.7002  0.0840
  142OSM   H17F15553   5.291   3.898   4.426  0.9035 -0.5786  0.0078
  142OSM   H17G15554   5.349   3.936   4.248 -1.2119 -0.4408 -1.6638
  142OSM   C18F15555   5.152   3.850   4.273 -0.1640 -0.0400 -0.0220
  142OSM   H18F15556   5.188   3.745   4.281  2.2780  0.7576  0.3751
  142OSM   H18G15557   5.114   3.885   4.175  0.3233  1.3987  0.2848
  142OSM   H18H15558   5.067   3.848   4.345  0.1032 -2.5652  0.3084
  143OSM      N15559   4.875   1.013   1.919 -0.4018 -0.0082 -0.1143
  143OSM    C1515560   4.910   0.908   2.027  0.7689  0.0961  0.8999
  143OSM   H15A15561   4.969   0.957   2.103  0.5566  0.2066  0.9944
  143OSM   H15B15562   4.964   0.827   1.981  2.7464  2.4888 -1.3382
  143OSM   H15C15563   4.823   0.867   2.076 -0.3144 -1.2186 -1.9448
  143OSM    C1415564   4.824   1.135   1.983  0.0960  0.0072 -0.2009
  143OSM   H14A15565   4.895   1.192   2.042  0.1714  1.4459 -1.5850
  143OSM   H14B15566   4.730   1.124   2.033  0.2546 -1.7192 -0.2405
  143OSM   H14C15567   4.800   1.201   1.900  2.9860 -2.0915 -2.9488
  143OSM    C1315568   5.011   1.034   1.851  0.4256  0.3034 -0.5926
  143OSM   H13A15569   5.038   0.943   1.798 -1.1205  0.2811 -1.3967
  143OSM   H13B15570   5.082   1.075   1.921  0.2534 -1.1634  0.5051
  143OSM   H13C15571   4.992   1.107   1.774 -0.5400  1.7776  0.9811
  143OSM    C1215572   4.774   0.973   1.810  0.0437  0.0348  0.1848
  143OSM   H12A15573   4.824   0.903   1.745  2.4761  1.3810  0.5048
  143OSM   H12B15574   4.751   1.058   1.748 -1.2219 -1.0111 -0.8562
  143OSM    C1115575   4.635   0.924   1.859 -0.0958  0.1388  0.6183
  143OSM   H11A15576   4.573   0.899   1.771  0.7493 -0.8483  0.2913
  143OSM   H11B15577   4.594   1.003   1.926  2.1606  0.2023  2.0432
  143OSM      P15578   4.544   0.750   2.028 -0.1215  0.4403 -0.2492
  143OSM    O1315579   4.417   0.728   1.955 -0.5049 -0.5405 -0.1964
  143OSM    O1415580   4.597   0.635   2.100 -0.1785 -0.0355  0.6101
  143OSM    O1115581   4.534   0.879   2.119 -0.1644 -0.0372  0.2859
  143OSM    O1215582   4.653   0.796   1.931 -0.3541  0.2305  0.5266
  143OSM    C1S15583   4.407   0.917   2.187 -0.3380 -0.3453  0.4645
  143OSM    H1S15584   4.335   0.834   2.201 -1.1768  0.2120 -0.4263
  143OSM    H1T15585   4.351   0.992   2.126 -0.8121 -0.8907  0.2292
  143OSM     NF15586   4.317   1.029   2.394 -0.3162  1.1310 -0.5798
  143OSM    HNF15587   4.296   1.125   2.379  0.1470  1.8305  2.5825
  143OSM    C2S15588   4.439   0.988   2.324  0.7086 -0.5323 -0.0116
  143OSM    H2S15589   4.488   0.918   2.395  0.1493 -0.1921  0.7292
  143OSM    C3S15590   4.539   1.102   2.306 -0.3180 -0.7425  0.1455
  143OSM    H3S15591   4.498   1.179   2.237  0.4456  0.1314  0.6512
  143OSM     O315592   4.665   1.076   2.245 -0.1074 -0.4500 -0.2345
  143OSM    HO315593   4.652   0.991   2.201 -0.4612  0.5595 -2.1858
  143OSM    C4S15594   4.554   1.190   2.431  0.0332  0.4262 -0.6638
  143OSM    H4S15595   4.485   1.275   2.446 -0.1761 -0.1323  2.0981
  143OSM    C5S15596   4.631   1.155   2.536 -0.1184  0.6492  0.3147
  143OSM    H5S15597   4.699   1.069   2.523 -1.5313 -0.4432 -0.0102
  143OSM    C6S15598   4.639   1.218   2.676  0.0051  0.1857 -0.2646
  143OSM    H6S15599   4.579   1.311   2.678 -0.5086 -0.0695  3.2609
  143OSM    H6T15600   4.741   1.229   2.721 -0.8498  1.1280  1.5547
  143OSM    C7S15601   4.567   1.122   2.782  0.8809 -0.0354  0.1600
  143OSM    H7S15602   4.615   1.022   2.788 -0.2965 -0.5613  1.2789
  143OSM    H7T15603   4.459   1.120   2.756  1.1857  2.3391 -1.5202
  143OSM    C8S15604   4.572   1.177   2.921  0.0754 -0.1380  0.5532
  143OSM    H8S15605   4.542   1.284   2.914  1.9489  0.4177  0.3504
  143OSM    H8T15606   4.677   1.173   2.958  0.5494  0.4460 -0.6705
  143OSM    C9S15607   4.487   1.117   3.029 -0.1235 -0.8220 -0.1389
  143OSM    H9S15608   4.498   1.006   3.032  0.0441 -0.9038 -2.3618
  143OSM    H9T15609   4.385   1.128   2.988 -0.7640 -1.8781  1.0807
  143OSM   C10S15610   4.512   1.182   3.168  0.3011 -0.3786  0.5753
  143OSM   H10S15611   4.473   1.285   3.159  2.1645  0.2499 -0.9273
  143OSM   H10T15612   4.623   1.183   3.179  0.6046 -1.4992 -1.6652
  143OSM   C11S15613   4.437   1.104   3.280  0.0886  0.2095 -0.0024
  143OSM   H11S15614   4.470   0.998   3.274 -0.8579 -0.0342 -1.2012
  143OSM   H11T15615   4.329   1.104   3.254 -0.2051 -0.0650  1.1370
  143OSM   C12S15616   4.463   1.153   3.420 -0.1920 -0.1232  0.0043
  143OSM   H12S15617   4.405   1.244   3.445  0.5484 -0.2802  2.5938
  143OSM   H12T15618   4.573   1.161   3.433 -0.0240 -0.9670 -0.7739
  143OSM   C13S15619   4.421   1.048   3.526 -0.1377  0.3078 -0.1542
  143OSM   H13S15620   4.469   1.074   3.623  0.0124 -1.4177  0.2597
  143OSM   H13T15621   4.453   0.946   3.496  0.2618  0.4341 -0.1649
  143OSM   C14S15622   4.271   1.054   3.572 -0.5842 -0.1130  0.1027
  143OSM   H14S15623   4.205   1.076   3.486 -0.0108  1.8403  0.1221
  143OSM   H14T15624   4.250   1.144   3.634 -2.6898  0.9329 -2.0109
  143OSM   C15S15625   4.243   0.933   3.668  0.1325 -0.3112 -0.1771
  143OSM   H15S15626   4.279   0.948   3.772  1.5573  0.4415 -0.7515
  143OSM   H15T15627   4.307   0.847   3.638  0.3457 -0.1700 -0.1328
  143OSM   C16S15628   4.098   0.886   3.665 -0.2438 -0.5066 -0.2914
  143OSM   H16S15629   4.096   0.777   3.684 -0.6886 -0.3284  0.7579
  143OSM   H16T15630   4.057   0.883   3.562  0.9611 -3.3391 -0.7719
  143OSM   C17S15631   4.011   0.962   3.761  0.2579  0.8739 -0.0343
  143OSM   H17S15632   3.994   1.062   3.715 -0.5064  0.4606 -0.6745
  143OSM   H17T15633   4.045   0.964   3.866 -2.4980 -1.0361  0.9936
  143OSM   C18S15634   3.876   0.888   3.780  0.0888  0.1826  0.5421
  143OSM   H18S15635   3.805   0.942   3.846 -1.6556 -3.6176  2.1051
  143OSM   H18T15636   3.876   0.780   3.808 -1.9993 -0.0863 -0.3261
  143OSM   H18U15637   3.823   0.895   3.683 -0.2364  0.8909  0.7675
  143OSM    C1F15638   4.222   0.954   2.438 -0.2282 -0.1110  0.9223
  143OSM     OF15639   4.222   0.834   2.437 -0.5325 -0.0119 -0.2912
  143OSM    C2F15640   4.101   1.036   2.473  0.0253  0.5665 -0.3393
  143OSM    H2F15641   4.011   0.971   2.464  0.3494 -0.7136  3.6124
  143OSM    H2G15642   4.098   1.117   2.397 -0.4442  1.0339  0.1636
  143OSM    C3F15643   4.106   1.089   2.622 -0.0361  0.8218 -0.4832
  143OSM    H3F15644   4.190   1.162   2.628 -0.2154  0.9262  1.6688
  143OSM    H3G15645   4.123   0.997   2.683 -1.8230  2.0033  1.9799
  143OSM    C4F15646   3.989   1.154   2.669  0.0376 -0.6246 -0.5386
  143OSM    H4F15647   3.907   1.080   2.672 -0.8613  0.3047 -1.4069
  143OSM    H4G15648   3.954   1.237   2.604  0.7294  0.5793  0.5757
  143OSM    C5F15649   3.994   1.205   2.822 -0.3312  0.4903  0.3270
  143OSM    H5F15650   3.933   1.298   2.832 -2.0837 -0.6315  0.6270
  143OSM    H5G15651   4.101   1.231   2.835  0.4608 -2.2522 -0.0571
  143OSM    C6F15652   3.949   1.091   2.913  0.1909 -0.1886  0.8383
  143OSM    H6F15653   4.004   0.998   2.887 -3.1608 -1.7109 -1.6783
  143OSM    H6G15654   3.839   1.082   2.899  0.1384  0.9103  0.4410
  143OSM    C7F15655   3.968   1.140   3.058 -0.2568 -0.3184  0.1631
  143OSM    H7F15656   3.923   1.242   3.062 -0.7440 -0.5612  1.2340
  143OSM    H7G15657   4.077   1.144   3.079  0.1312 -2.9093 -0.9895
  143OSM    C8F15658   3.895   1.056   3.162 -0.2035  0.2932 -0.3225
  143OSM    H8F15659   3.933   0.953   3.151 -0.8467 -0.0815  0.7587
  143OSM    H8G15660   3.790   1.065   3.125  0.1534  0.7820 -1.2348
  143OSM    C9F15661   3.895   1.094   3.308 -1.0888 -0.6308 -0.6175
  143OSM    H9F15662   3.993   1.106   3.358 -1.1117 -1.6354 -0.3045
  143OSM   C10F15663   3.787   1.103   3.390  0.7980  0.5419 -0.1921
  143OSM   H10F15664   3.815   1.137   3.490 -0.8989  2.2311 -0.2389
  143OSM   C11F15665   3.637   1.088   3.353  0.3927  0.1421 -0.5932
  143OSM   H11F15666   3.614   1.051   3.251 -0.8934  0.2762 -0.3705
  143OSM   H11G15667   3.587   1.185   3.376  0.5100  0.2028 -0.5955
  143OSM   C12F15668   3.564   0.988   3.453  0.0657 -0.1637  0.1744
  143OSM   H12F15669   3.612   0.996   3.553 -0.5309  2.6353  0.3328
  143OSM   H12G15670   3.580   0.893   3.397 -1.6603 -0.4662  0.1473
  143OSM   C13F15671   3.405   1.009   3.469 -1.1748  0.6066  0.3272
  143OSM   H13F15672   3.372   1.031   3.365  0.1275  0.2810 -0.1764
  143OSM   H13G15673   3.388   1.101   3.528 -2.2251  1.6726 -1.5295
  143OSM   C14F15674   3.336   0.895   3.548 -0.9958 -0.6632  0.3898
  143OSM   H14F15675   3.408   0.836   3.609 -0.0463  1.1260  1.0692
  143OSM   H14G15676   3.282   0.839   3.469 -1.4114  1.0973 -0.6209
  143OSM   C15F15677   3.234   0.966   3.628 -0.7676  0.2430  0.0281
  143OSM   H15F15678   3.186   1.044   3.565  0.0223  0.9523  0.2825
  143OSM   H15G15679   3.281   1.027   3.708 -1.2727  2.3938 -1.2258
  143OSM   C16F15680   3.107   0.877   3.662 -1.1090 -0.3352  0.1692
  143OSM   H16F15681   3.142   0.802   3.736 -0.9395  1.6773  2.2366
  143OSM   H16G15682   3.068   0.822   3.573  1.6626  1.1310 -2.1144
  143OSM   C17F15683   2.992   0.949   3.726 -0.4163  0.3083 -0.5637
  143OSM   H17F15684   2.919   0.868   3.744  0.2792 -0.0702  0.6331
  143OSM   H17G15685   2.944   1.017   3.651  0.8685 -0.9717 -2.6319
  143OSM   C18F15686   3.020   1.012   3.859  1.0515 -0.0736 -0.3618
  143OSM   H18F15687   3.097   1.092   3.858 -1.2849  2.3237 -0.7800
  143OSM   H18G15688   3.052   0.936   3.933  1.1845  1.0575  0.7758
  143OSM   H18H15689   2.923   1.050   3.898  1.3720 -0.4843  0.8790
  144OSM      N15690   3.262   4.123   1.829  0.6188 -0.2599 -0.0682
  144OSM    C1515691   3.200   4.250   1.862  0.7390 -0.1823 -0.4103
  144OSM   H15A15692   3.244   4.313   1.938 -2.3284  0.4238  1.0032
  144OSM   H15B15693   3.103   4.228   1.903  1.1008 -0.8558  0.1222
  144OSM   H15C15694   3.184   4.306   1.772 -1.4029  0.1707  0.1397
  144OSM    C1415695   3.182   4.059   1.724  0.2418  0.1978 -0.0418
  144OSM   H14A15696   3.240   3.982   1.676  1.8538  0.1889  1.7944
  144OSM   H14B15697   3.163   4.130   1.645  1.8663 -0.8461 -1.4299
  144OSM   H14C15698   3.088   4.029   1.768 -0.3623  0.6159 -1.0294
  144OSM    C1315699   3.391   4.165   1.764 -0.0578 -0.7830 -0.5946
  144OSM   H13A15700   3.370   4.239   1.688 -1.6307 -0.3846  0.1698
  144OSM   H13B15701   3.440   4.088   1.707 -0.3348 -0.0976 -1.7752
  144OSM   H13C15702   3.461   4.206   1.835  0.5620  0.6955 -2.0070
  144OSM    C1215703   3.291   4.035   1.949  0.1703  0.6332  0.7814
  144OSM   H12A15704   3.345   3.952   1.906  0.8756  2.1668 -1.4405
  144OSM   H12B15705   3.203   3.982   1.983 -0.5775 -1.2673 -3.5075
  144OSM    C1115706   3.361   4.088   2.072 -0.1743 -0.7162  0.2088
  144OSM   H11A15707   3.344   4.008   2.147 -0.3792 -2.7363 -1.8828
  144OSM   H11B15708   3.316   4.182   2.112  2.2617 -0.0156  1.4942
  144OSM      P15709   3.602   3.987   2.066  0.5237 -0.0018 -0.0066
  144OSM    O1315710   3.574   3.901   1.950 -0.0219  0.0731  0.7427
  144OSM    O1415711   3.740   4.038   2.079  0.4383 -0.2932  0.0704
  144OSM    O1115712   3.554   3.912   2.200 -0.7487  0.6083  0.6854
  144OSM    O1215713   3.503   4.109   2.049 -0.4460  0.0865 -0.0101
  144OSM    C1S15714   3.607   3.928   2.330 -0.2680 -0.0324  0.2661
  144OSM    H1S15715   3.622   4.037   2.346  2.3444 -0.1083 -1.0549
  144OSM    H1T15716   3.708   3.883   2.338  0.5264  1.1943 -1.9674
  144OSM     NF15717   3.555   3.900   2.569  0.5282 -0.1578  0.0015
  144OSM    HNF15718   3.596   3.824   2.618 -0.1821  0.2207  1.2199
  144OSM    C2S15719   3.507   3.881   2.437  0.1538  0.5622 -0.0534
  144OSM    H2S15720   3.408   3.928   2.419  0.0935  1.2060  1.7901
  144OSM    C3S15721   3.482   3.724   2.411  0.9104 -0.3106 -0.1981
  144OSM    H3S15722   3.574   3.668   2.439  1.8546  1.1607 -0.2766
  144OSM     O315723   3.443   3.686   2.278 -0.3885  0.1066 -0.8238
  144OSM    HO315724   3.468   3.763   2.227 -0.9312  1.2465  0.5617
  144OSM    C4S15725   3.363   3.667   2.488  0.4205 -0.6350 -0.0881
  144OSM    H4S15726   3.266   3.710   2.457  1.2046  0.7655 -0.6766
  144OSM    C5S15727   3.372   3.576   2.579 -0.4783 -0.1013 -0.5003
  144OSM    H5S15728   3.472   3.532   2.589 -0.0714  1.4342  4.1678
  144OSM    C6S15729   3.264   3.515   2.661 -0.4882  0.2625  1.2357
  144OSM    H6S15730   3.295   3.419   2.706  0.0635 -0.0743  0.1644
  144OSM    H6T15731   3.173   3.503   2.598 -3.2452  1.8140  4.5620
  144OSM    C7S15732   3.191   3.599   2.771 -0.0490 -0.5905 -0.1852
  144OSM    H7S15733   3.113   3.670   2.737  1.3778  1.0302 -0.2330
  144OSM    H7T15734   3.267   3.651   2.833 -1.5112  0.3412  0.8709
  144OSM    C8S15735   3.107   3.508   2.865 -0.0613  0.9102  0.2821
  144OSM    H8S15736   3.180   3.440   2.913  0.6791 -0.0729 -2.0998
  144OSM    H8T15737   3.041   3.447   2.800  0.7186  0.7121 -0.3415
  144OSM    C9S15738   3.031   3.580   2.970  0.8108 -0.4306  0.3532
  144OSM    H9S15739   2.938   3.522   2.987  1.5740 -1.6463  0.4526
  144OSM    H9T15740   2.996   3.677   2.928 -0.6643 -1.3491 -0.6546
  144OSM   C10S15741   3.116   3.607   3.092  0.4957 -0.2767 -0.4387
  144OSM   H10S15742   3.209   3.659   3.061  0.1712  2.0139  2.0968
  144OSM   H10T15743   3.143   3.514   3.147  0.1269 -0.7805 -1.0990
  144OSM   C11S15744   3.049   3.695   3.197 -0.4626  0.7805 -0.2733
  144OSM   H11S15745   2.943   3.666   3.207 -0.5027  1.1254  0.3254
  144OSM   H11T15746   3.037   3.799   3.162  0.7329  0.8245 -0.6234
  144OSM   C12S15747   3.116   3.707   3.334  0.2760  0.2740  0.2511
  144OSM   H12S15748   3.212   3.762   3.325  0.4492 -0.3520 -2.6846
  144OSM   H12T15749   3.144   3.606   3.370 -0.8806 -0.2656 -0.2889
  144OSM   C13S15750   3.027   3.782   3.437 -0.3314  0.1999  0.2012
  144OSM   H13S15751   2.940   3.719   3.466  0.5257 -0.3125  1.7814
  144OSM   H13T15752   2.987   3.875   3.393 -0.7899 -0.0203  0.1427
  144OSM   C14S15753   3.112   3.805   3.565 -0.2623  0.1400 -0.1282
  144OSM   H14S15754   3.168   3.712   3.589 -1.8370 -1.2779 -1.5622
  144OSM   H14T15755   3.040   3.836   3.643 -2.7144  1.2450 -2.6228
  144OSM   C15S15756   3.221   3.914   3.547 -0.5722  0.3373  0.4493
  144OSM   H15S15757   3.188   3.989   3.472 -1.5009 -1.0593 -0.5801
  144OSM   H15T15758   3.311   3.868   3.500 -0.5311 -0.7807  1.5818
  144OSM   C16S15759   3.280   3.972   3.677  0.1953  0.2107  0.7003
  144OSM   H16S15760   3.213   4.054   3.710 -0.6965  0.0433 -0.5994
  144OSM   H16T15761   3.377   4.017   3.646  0.2557  0.0109  0.5915
  144OSM   C17S15762   3.310   3.860   3.773  0.1063  0.1412  0.4974
  144OSM   H17S15763   3.377   3.793   3.715  0.5799 -0.2698  1.4987
  144OSM   H17T15764   3.218   3.801   3.795  0.5150 -0.7545 -0.1487
  144OSM   C18S15765   3.381   3.903   3.895  0.2163 -1.0489 -0.5088
  144OSM   H18S15766   3.462   3.971   3.858 -0.7322  0.6541  0.3983
  144OSM   H18T15767   3.413   3.816   3.955 -1.9758 -1.9658 -0.6032
  144OSM   H18U15768   3.312   3.959   3.961 -1.6074 -1.6023 -1.8514
  144OSM    C1F15769   3.570   4.021   2.620  0.2787  0.1810  0.0303
  144OSM     OF15770   3.498   4.115   2.592 -0.2582  0.1998 -0.2665
  144OSM    C2F15771   3.686   4.031   2.718 -0.1944  0.7983  0.8058
  144OSM    H2F15772   3.780   3.990   2.677 -0.6845  0.3759  0.0845
  144OSM    H2G15773   3.654   3.975   2.808 -2.2853 -0.1503 -0.4505
  144OSM    C3F15774   3.729   4.171   2.765  0.0012  0.5989  0.6237
  144OSM    H3F15775   3.642   4.224   2.809  0.6744  1.3584  1.0832
  144OSM    H3G15776   3.765   4.244   2.690  1.1572 -0.3245  0.2469
  144OSM    C4F15777   3.845   4.167   2.865  1.0317  0.0818 -0.3221
  144OSM    H4F15778   3.942   4.155   2.811  1.6992  0.5757  0.7213
  144OSM    H4G15779   3.828   4.071   2.919  0.0258  0.4967  0.1133
  144OSM    C5F15780   3.862   4.290   2.961 -0.7632  0.4483  0.0578
  144OSM    H5F15781   3.881   4.382   2.901 -0.7863 -0.5206 -1.4858
  144OSM    H5G15782   3.957   4.270   3.016 -0.0430  2.1553 -0.5091
  144OSM    C6F15783   3.746   4.296   3.058  0.2486  0.3524 -0.9540
  144OSM    H6F15784   3.653   4.300   2.997 -0.3813  0.8384  0.0088
  144OSM    H6G15785   3.747   4.389   3.119 -0.6919 -0.7677  0.8398
  144OSM    C7F15786   3.736   4.176   3.157 -0.1349  0.2218  0.0720
  144OSM    H7F15787   3.746   4.077   3.110  0.4132 -0.1385  0.9201
  144OSM    H7G15788   3.635   4.170   3.204  0.2252 -1.2122  0.6981
  144OSM    C8F15789   3.827   4.189   3.279 -0.2327  0.0171 -0.7580
  144OSM    H8F15790   3.925   4.193   3.227  0.1872  0.3443  0.0412
  144OSM    H8G15791   3.817   4.104   3.350 -0.7290  0.4372 -0.3208
  144OSM    C9F15792   3.796   4.315   3.361  0.4618  0.2268 -0.0324
  144OSM    H9F15793   3.692   4.346   3.376  0.9961  1.3871  1.5810
  144OSM   C10F15794   3.895   4.406   3.394 -0.5386  0.5727 -0.4231
  144OSM   H10F15795   3.852   4.495   3.443  0.7055  2.3145 -2.3008
  144OSM   C11F15796   4.044   4.411   3.354 -0.1438  0.3881 -0.8967
  144OSM   H11F15797   4.086   4.315   3.318  2.4161  1.2181 -0.3153
  144OSM   H11G15798   4.104   4.445   3.441 -0.8445 -0.9909  0.1811
  144OSM   C12F15799   4.062   4.526   3.250 -0.2055 -0.1695 -0.0711
  144OSM   H12F15800   3.982   4.603   3.256  0.2758  0.5302 -1.8347
  144OSM   H12G15801   4.043   4.478   3.151  0.4904 -0.8799  0.1326
  144OSM   C13F15802   4.203   4.589   3.249 -0.1968  0.1466 -0.0613
  144OSM   H13F15803   4.275   4.506   3.265  1.7992  1.2714 -2.5626
  144OSM   H13G15804   4.240   4.663   3.323  0.3208  0.5402 -0.7123
  144OSM   C14F15805   4.234   4.639   3.111 -1.3742  0.3887  0.1779
  144OSM   H14F15806   4.339   4.675   3.104 -1.4316  0.3898 -0.8325
  144OSM   H14G15807   4.178   4.726   3.071  1.2790  1.9659 -0.3619
  144OSM   C15F15808   4.234   4.521   3.003  0.2530 -0.2872  0.5421
  144OSM   H15F15809   4.130   4.495   2.976  0.5991 -1.1597 -0.0199
  144OSM   H15G15810   4.293   4.431   3.031  1.5683 -0.3144 -2.0261
  144OSM   C16F15811   4.308   4.573   2.878  0.9564 -0.7065  0.3265
  144OSM   H16F15812   4.344   4.483   2.824 -1.4415 -1.5995  0.0837
  144OSM   H16G15813   4.406   4.616   2.907  1.2034 -0.4541 -0.8405
  144OSM   C17F15814   4.215   4.647   2.780 -0.5239  0.0813  0.1998
  144OSM   H17F15815   4.270   4.682   2.690 -0.3986  1.8297  0.9317
  144OSM   H17G15816   4.177   4.745   2.817  0.0023 -0.2031  1.5156
  144OSM   C18F15817   4.105   4.553   2.726  1.3331 -0.5126  0.0278
  144OSM   H18F15818   4.053   4.609   2.645  2.1703  0.4594  0.1260
  144OSM   H18G15819   4.028   4.513   2.795 -0.1582  1.2805 -0.5195
  144OSM   H18H15820   4.149   4.458   2.689 -0.3062 -2.3338  2.4676
  145SAPE     N15821   2.480   4.079   6.981  0.2561 -0.3981  0.5268
  145SAPE   HN115822   2.481   4.055   7.082  0.8292  0.1191  0.6531
  145SAPE   HN215823   2.568   4.047   6.936  0.7174  0.2020  0.9845
  145SAPE   HN315824   2.496   4.182   6.975 -2.1028 -0.0497 -1.5087
  145SAPE   C1215825   2.359   4.032   6.902  0.4427 -0.1326 -0.2394
  145SAPE  H12A15826   2.358   3.922   6.886 -1.4962 -0.5261  2.0042
  145SAPE  H12B15827   2.372   4.072   6.799 -0.8002 -1.4318 -0.9561
  145SAPE   C1115828   2.230   4.090   6.967 -0.2906  0.1461  0.4405
  145SAPE  H11A15829   2.237   4.200   6.952  0.7245 -0.1820 -2.1334
  145SAPE  H11B15830   2.223   4.058   7.073 -0.6996  0.6366  0.5650
  145SAPE     P15831   2.045   4.121   6.778 -0.1663  0.3311  0.0458
  145SAPE   O1315832   1.936   4.041   6.723 -0.4263  0.1638  0.0369
  145SAPE   O1415833   2.017   4.260   6.820  0.1911  0.0159 -0.9422
  145SAPE   O1215834   2.113   4.040   6.899 -0.7632  0.1274  0.3974
  145SAPE   O1115835   2.169   4.108   6.676  0.2817 -0.3476  0.4515
  145SAPE    C115836   2.202   4.213   6.583  0.0183  0.0362 -0.4248
  145SAPE    HA15837   2.158   4.312   6.607  2.1053  0.8159  0.4308
  145SAPE    HB15838   2.311   4.231   6.578 -0.0631  1.7311  2.0298
  145SAPE    C215839   2.163   4.185   6.439 -0.0363  0.5571  0.1433
  145SAPE    HS15840   2.200   4.270   6.378 -0.0730 -0.3389 -1.1559
  145SAPE   O2115841   2.023   4.161   6.426  0.0062 -0.7179 -0.3598
  145SAPE   C2115842   1.950   4.279   6.437 -0.4323 -0.6103 -0.4373
  145SAPE   O2215843   1.997   4.386   6.464 -0.8940 -0.4237 -0.4486
  145SAPE   C2215844   1.807   4.253   6.411  1.1041 -0.3348 -0.4673
  145SAPE   H2R15845   1.751   4.292   6.498 -0.6231  0.2935 -1.8002
  145SAPE   H2S15846   1.775   4.309   6.320 -0.6579 -0.1706  0.2214
  145SAPE    C315847   2.248   4.056   6.396 -0.1089  0.2620 -0.1183
  145SAPE    HX15848   2.197   3.963   6.430 -0.9317  1.3464  1.7311
  145SAPE    HY15849   2.352   4.062   6.435  1.2535  1.1219 -3.4719
  145SAPE   O3115850   2.266   4.050   6.254 -0.0731  0.0131  0.0625
  145SAPE   C3115851   2.172   3.995   6.175 -0.2279 -0.6495 -0.1912
  145SAPE   O3215852   2.071   3.931   6.204  0.0126 -0.4274  0.5181
  145SAPE   C3215853   2.205   4.020   6.031 -0.3525 -0.1721 -0.4113
  145SAPE   H2X15854   2.110   3.993   5.979 -0.6763 -1.4683  0.8066
  145SAPE   H2Y15855   2.300   3.969   6.004 -0.5083  0.5054 -2.3727
  145SAPE   C2315856   1.767   4.101   6.381 -0.1893 -0.1829  0.3310
  145SAPE   H3R15857   1.803   4.050   6.473 -2.5999 -2.5912  0.0438
  145SAPE   H3S15858   1.820   4.065   6.290  0.0888  0.8537  0.0588
  145SAPE   C2415859   1.615   4.091   6.372 -0.3426  0.4576 -0.1297
  145SAPE   H4R15860   1.575   4.142   6.461 -1.4309  0.9531 -0.8854
  145SAPE   H4S15861   1.575   3.988   6.379  1.5236 -0.2957  0.1471
  145SAPE   C2515862   1.546   4.168   6.258 -0.4562 -0.3902  0.5223
  145SAPE   H5R15863   1.449   4.209   6.293  0.7288  0.9975  2.4076
  145SAPE   C2615864   1.578   4.196   6.128  0.2769  0.2296  0.5727
  145SAPE   H6R15865   1.506   4.256   6.070 -1.4998 -0.1736  2.2486
  145SAPE   C2715866   1.696   4.159   6.039 -0.6286  0.2274 -0.1339
  145SAPE   H7R15867   1.656   4.116   5.945 -0.5652  0.9990 -0.5201
  145SAPE   H7S15868   1.746   4.073   6.090  0.6006 -0.5550 -2.5341
  145SAPE   C2815869   1.798   4.270   6.006  0.6426 -0.3071 -0.5759
  145SAPE   H8R15870   1.880   4.275   6.080  0.4454 -0.3805 -0.3485
  145SAPE   C2915871   1.801   4.349   5.903 -0.1092 -0.0982  0.2210
  145SAPE   H9R15872   1.883   4.421   5.892  0.2401 -0.6065 -0.6862
  145SAPE  C21015873   1.703   4.344   5.787 -0.0141  0.2871  0.7986
  145SAPE  H10R15874   1.610   4.285   5.798 -0.3363  0.1499 -1.8462
  145SAPE  H10S15875   1.753   4.285   5.707  0.0444  0.9688  0.3278
  145SAPE  C21115876   1.660   4.468   5.714 -1.1212 -0.5621 -0.5048
  145SAPE  H11R15877   1.727   4.504   5.635 -1.7029  0.2178 -0.6587
  145SAPE  C21215878   1.550   4.539   5.734  1.1469  0.0631 -0.0109
  145SAPE  H12R15879   1.537   4.635   5.682 -2.5759 -0.9192 -1.2231
  145SAPE  C21315880   1.444   4.509   5.835  0.1409 -0.0048 -0.5571
  145SAPE  H13R15881   1.496   4.460   5.920 -0.6041 -1.8729 -1.1426
  145SAPE  H13S15882   1.368   4.447   5.785 -0.1696 -0.4821  0.4743
  145SAPE  C21415883   1.385   4.631   5.896  0.4559  0.0157 -0.1398
  145SAPE  H14R15884   1.280   4.649   5.869  0.5146  2.6512  0.9978
  145SAPE  C21515885   1.440   4.719   5.985 -0.5953  0.2264 -0.7072
  145SAPE  H15R15886   1.375   4.804   6.012  1.3262  1.0875  1.5385
  145SAPE  C21615887   1.573   4.711   6.052 -0.2506 -0.7835 -0.0915
  145SAPE  H16R15888   1.621   4.808   6.077 -1.0116 -0.5960  0.6809
  145SAPE  H16S15889   1.637   4.673   5.970 -0.7249  0.3074 -0.9853
  145SAPE  C21715890   1.577   4.623   6.176  0.2856 -0.1077 -0.0931
  145SAPE  H17R15891   1.521   4.529   6.164 -1.7538  1.1702 -1.1042
  145SAPE  H17S15892   1.527   4.686   6.253  0.1456 -0.6379  0.2573
  145SAPE  C21815893   1.723   4.584   6.216 -0.1360 -0.3883 -0.3742
  145SAPE  H18R15894   1.766   4.541   6.122 -1.2836  1.6676 -1.9321
  145SAPE  H18S15895   1.705   4.499   6.285 -1.5057 -0.5485 -0.8915
  145SAPE  C21915896   1.817   4.685   6.279 -0.0060 -0.4162 -0.0291
  145SAPE  H19R15897   1.835   4.768   6.208 -0.3713  0.6199  1.0595
  145SAPE  H19S15898   1.916   4.639   6.300  3.1742  5.1210 -0.9551
  145SAPE  C22015899   1.759   4.753   6.403 -0.1433  0.7579  0.0343
  145SAPE  H20R15900   1.731   4.671   6.472  0.8979 -0.1151 -0.5610
  145SAPE  H20S15901   1.669   4.812   6.372 -0.0169  0.0121 -1.8951
  145SAPE  H20T15902   1.831   4.825   6.447 -0.1903  2.4952 -2.4989
  145SAPE   C3315903   2.221   4.167   5.997 -0.1601  0.8338  0.0016
  145SAPE   H3X15904   2.303   4.221   6.049  3.3349 -2.8228 -1.1597
  145SAPE   H3Y15905   2.126   4.222   6.016  0.2435  1.1865  1.0670
  145SAPE   C3415906   2.258   4.181   5.847 -0.0502 -0.2419  0.3148
  145SAPE   H4X15907   2.361   4.141   5.833  0.5431  0.1270  3.0609
  145SAPE   H4Y15908   2.261   4.288   5.819  0.7179  0.1628  1.8448
  145SAPE   C3515909   2.161   4.125   5.750 -0.3886  0.0012 -0.0288
  145SAPE   H5X15910   2.061   4.144   5.797  0.2241  3.1523  0.2718
  145SAPE   H5Y15911   2.186   4.017   5.753  0.4794  0.1560 -1.1357
  145SAPE   C3615912   2.180   4.186   5.607  0.3249  0.3812 -0.0466
  145SAPE   H6X15913   2.273   4.136   5.573 -0.7726 -0.6332 -1.6943
  145SAPE   H6Y15914   2.194   4.296   5.609  2.5023  0.1750  2.9717
  145SAPE   C3715915   2.074   4.146   5.504  0.5034 -0.1159 -0.0870
  145SAPE   H7X15916   1.978   4.186   5.543 -0.0957 -2.2749  0.7971
  145SAPE   H7Y15917   2.057   4.038   5.485 -1.9747 -0.0036  1.0686
  145SAPE   C3815918   2.110   4.201   5.363 -0.2494 -0.0849 -0.4470
  145SAPE   H8X15919   2.214   4.164   5.350 -0.4852 -1.0343  0.2700
  145SAPE   H8Y15920   2.122   4.311   5.369 -0.1965 -0.1675  1.5535
  145SAPE   C3915921   2.020   4.162   5.243 -0.2218 -0.2887  0.2060
  145SAPE   H9X15922   1.916   4.196   5.260  0.2984  1.4370  0.1248
  145SAPE   H9Y15923   2.016   4.051   5.244 -0.2567 -0.2817  1.5419
  145SAPE  C31015924   2.061   4.219   5.112  0.1656  0.0907  0.0204
  145SAPE  H10X15925   2.118   4.313   5.131  1.0901 -0.7475  1.6440
  145SAPE  H10Y15926   1.977   4.238   5.042 -1.2837 -1.5167  1.2217
  145SAPE  C31115927   2.161   4.122   5.052  0.0167 -0.3477  0.2116
  145SAPE  H11X15928   2.103   4.029   5.036 -3.0931  1.5879 -0.6553
  145SAPE  H11Y15929   2.248   4.108   5.120  1.4015  0.5945 -1.3003
  145SAPE  C31215930   2.216   4.168   4.910  0.7760 -1.0591  0.3325
  145SAPE  H12X15931   2.290   4.249   4.926 -1.1191  0.8388 -0.0889
  145SAPE  H12Y15932   2.135   4.213   4.849  1.2800  1.2212  1.2444
  145SAPE  C31315933   2.272   4.055   4.831  0.0274  0.1484 -0.4233
  145SAPE  H13X15934   2.190   3.981   4.828  2.2580 -2.7755  2.5815
  145SAPE  H13Y15935   2.350   4.010   4.897 -0.2367 -1.3641 -1.1203
  145SAPE  C31415936   2.314   4.085   4.689  0.2308  0.1650  0.2446
  145SAPE  H14X15937   2.342   3.993   4.634  1.4399  0.1864  0.8059
  145SAPE  H14Y15938   2.397   4.157   4.704 -0.1937  0.5060  1.0701
  145SAPE  C31515939   2.207   4.163   4.600 -0.5882 -0.3720 -0.6876
  145SAPE  H15X15940   2.247   4.187   4.498 -1.4382  1.7788 -0.5496
  145SAPE  H15Y15941   2.186   4.257   4.655 -0.1547 -0.3588 -0.5397
  145SAPE  C31615942   2.072   4.095   4.581  0.5830  0.5828 -0.2854
  145SAPE  H16X15943   1.997   4.170   4.546 -0.2119  0.7818  1.7385
  145SAPE  H16Y15944   2.035   4.050   4.675 -0.2031 -0.3499 -1.0296
  145SAPE  C31715945   2.066   3.979   4.479  0.2136 -0.4324 -0.4005
  145SAPE  H17X15946   2.139   3.903   4.515  1.7377  1.7465  1.4542
  145SAPE  H17Y15947   2.106   4.025   4.386  0.0425  0.3669 -0.0886
  145SAPE  C31815948   1.932   3.909   4.462 -0.4716  0.2468  0.1587
  145SAPE  H18X15949   1.861   3.993   4.473  0.3971  0.9340  0.5942
  145SAPE  H18Y15950   1.908   3.832   4.539  0.7635  1.4371  1.7964
  145SAPE  H18Z15951   1.927   3.874   4.356  1.9653  3.2649 -1.1141
  146SAPE     N15952   4.886   4.526   6.705  0.2875  0.5652 -0.4401
  146SAPE   HN115953   4.947   4.462   6.760 -3.0726 -2.5871 -0.0574
  146SAPE   HN215954   4.911   4.626   6.722 -2.9144  1.4757 -0.4834
  146SAPE   HN315955   4.788   4.508   6.733  0.3521  1.8420  0.7338
  146SAPE   C1215956   4.888   4.485   6.559 -0.3588 -0.3659 -0.7866
  146SAPE  H12A15957   4.992   4.455   6.535  0.9884  2.6020  0.8771
  146SAPE  H12B15958   4.867   4.586   6.517  1.5455  0.3106 -0.2178
  146SAPE   C1115959   4.783   4.381   6.513 -0.4447  0.1621  0.3211
  146SAPE  H11A15960   4.824   4.282   6.545 -1.7340  0.0726  1.8384
  146SAPE  H11B15961   4.779   4.370   6.402 -0.9361 -0.1831  0.3676
  146SAPE     P15962   4.531   4.348   6.552  0.0782 -0.1940 -0.1137
  146SAPE   O1315963   4.527   4.233   6.643  0.2850 -0.0372  0.0436
  146SAPE   O1415964   4.433   4.455   6.569 -0.1843 -0.5361  0.0507
  146SAPE   O1215965   4.665   4.422   6.573 -0.0867  0.0119 -0.0788
  146SAPE   O1115966   4.516   4.292   6.408 -0.5993  0.3601  0.5123
  146SAPE    C115967   4.508   4.395   6.309  0.7838 -0.2854  0.5468
  146SAPE    HA15968   4.427   4.465   6.336  1.5695  1.7266 -1.9506
  146SAPE    HB15969   4.604   4.451   6.305  1.9676 -2.0002  2.4885
  146SAPE    C215970   4.484   4.328   6.167  0.0901 -0.0871 -0.2800
  146SAPE    HS15971   4.584   4.305   6.124  0.3676  1.0718 -0.2909
  146SAPE   O2115972   4.405   4.410   6.082 -0.0514 -0.0474 -0.4349
  146SAPE   C2115973   4.441   4.524   6.041 -0.0425 -0.3162 -0.5027
  146SAPE   O2215974   4.547   4.582   6.071 -0.2247  0.8324 -0.4927
  146SAPE   C2215975   4.326   4.582   5.950 -0.6688 -0.4159  0.4072
  146SAPE   H2R15976   4.230   4.570   6.004 -1.3429 -1.4648 -0.9684
  146SAPE   H2S15977   4.346   4.690   5.934 -1.3446 -0.2557  0.6031
  146SAPE    C315978   4.412   4.192   6.187 -0.2854 -0.1644  0.0316
  146SAPE    HX15979   4.316   4.228   6.230 -0.5113 -1.1067  0.3298
  146SAPE    HY15980   4.468   4.134   6.263 -0.9027 -1.6426 -0.6220
  146SAPE   O3115981   4.396   4.119   6.061 -0.3571  0.7958 -0.1675
  146SAPE   C3115982   4.355   3.996   6.087  0.2982 -0.8531 -0.9531
  146SAPE   O3215983   4.322   3.946   6.192  0.3701  0.8845 -0.3183
  146SAPE   C3215984   4.358   3.913   5.961  0.3403  0.5478 -0.4811
  146SAPE   H2X15985   4.432   3.964   5.895 -1.9445  2.3520 -1.8175
  146SAPE   H2Y15986   4.259   3.934   5.916 -0.8817  0.2173  1.9031
  146SAPE   C2315987   4.330   4.504   5.814 -0.0953 -0.1965 -1.0753
  146SAPE   H3R15988   4.303   4.397   5.827  0.4221 -0.2604 -0.4248
  146SAPE   H3S15989   4.435   4.493   5.780 -0.2996 -1.9024 -1.2499
  146SAPE   C2415990   4.251   4.569   5.710 -0.8286 -0.5358 -0.4353
  146SAPE   H4R15991   4.265   4.514   5.614 -0.2105  1.1339 -1.3392
  146SAPE   H4S15992   4.305   4.666   5.697 -0.2633 -0.3890  2.3052
  146SAPE   C2515993   4.102   4.577   5.755 -0.4878  0.1478  0.6912
  146SAPE   H5R15994   4.069   4.669   5.806  0.2018  0.3860  0.7227
  146SAPE   C2615995   4.013   4.472   5.740 -0.3236  0.3301 -0.7725
  146SAPE   H6R15996   3.909   4.483   5.776  1.0423  1.4921  3.3073
  146SAPE   C2715997   4.061   4.338   5.695  0.2070 -0.0494 -0.1939
  146SAPE   H7R15998   4.163   4.337   5.651  0.7250 -0.5377  0.9614
  146SAPE   H7S15999   4.004   4.295   5.610  0.0883  2.2901 -1.3726
  146SAPE   C2816000   4.066   4.237   5.804 -0.4498  0.4942  0.0617
  146SAPE   H8R16001   4.066   4.279   5.906  3.5481  0.5018  0.2001
  146SAPE   C2916002   4.070   4.102   5.786 -0.3333  0.8783 -0.1359
  146SAPE   H9R16003   4.068   4.031   5.870 -0.5091  1.3313  0.2507
  146SAPE  C21016004   4.090   4.044   5.653  0.6801 -0.5980  0.8087
  146SAPE  H10R16005   4.130   4.117   5.578  0.1495  0.9884  2.0220
  146SAPE  H10S16006   3.989   4.033   5.608  0.9473  0.4466 -0.0928
  146SAPE  C21116007   4.152   3.912   5.636 -0.1872  0.0558  0.1987
  146SAPE  H11R16008   4.092   3.827   5.673 -1.3144  0.4040 -0.7586
  146SAPE  C21216009   4.276   3.886   5.588  0.6312  0.2089  0.1595
  146SAPE  H12R16010   4.304   3.780   5.582 -1.2201 -0.3292  0.5002
  146SAPE  C21316011   4.395   3.966   5.531 -0.1107  0.0200  0.2978
  146SAPE  H13R16012   4.383   3.980   5.422  2.1826  1.4594  0.1674
  146SAPE  H13S16013   4.486   3.903   5.539  0.1813  0.5898  1.8224
  146SAPE  C21416014   4.406   4.096   5.607 -0.8576  0.3363  0.3365
  146SAPE  H14R16015   4.449   4.087   5.708  3.1674 -1.7545 -1.2976
  146SAPE  C21516016   4.415   4.214   5.546 -0.0613  0.7798 -0.3566
  146SAPE  H15R16017   4.409   4.309   5.602  1.4651  1.4374 -1.2395
  146SAPE  C21616018   4.400   4.249   5.402 -0.0217  0.2295 -0.6497
  146SAPE  H16R16019   4.331   4.336   5.396  1.0725  1.0585 -1.6911
  146SAPE  H16S16020   4.339   4.176   5.344  0.6054 -1.2365  0.4539
  146SAPE  C21716021   4.532   4.273   5.326 -0.8026  0.5463  0.6769
  146SAPE  H17R16022   4.599   4.188   5.350 -1.7351  0.3999  3.0482
  146SAPE  H17S16023   4.587   4.361   5.366  1.0167 -1.4050  2.7163
  146SAPE  C21816024   4.524   4.291   5.177  1.0349 -0.4578  0.0484
  146SAPE  H18R16025   4.613   4.345   5.138  0.9494 -0.3455  0.0094
  146SAPE  H18S16026   4.452   4.374   5.161  0.3812 -0.8619  0.8202
  146SAPE  C21916027   4.462   4.170   5.094 -0.1115 -0.0129  0.4434
  146SAPE  H19R16028   4.417   4.203   4.998 -1.7537 -0.8048  0.8999
  146SAPE  H19S16029   4.384   4.120   5.156 -1.0518  0.3895 -0.3873
  146SAPE  C22016030   4.563   4.060   5.057 -0.1936  0.5936 -0.3560
  146SAPE  H20R16031   4.520   3.958   5.046  2.8785 -0.7684 -0.9448
  146SAPE  H20S16032   4.626   4.037   5.146 -0.9855 -2.4672 -0.4729
  146SAPE  H20T16033   4.627   4.095   4.973  0.7635 -3.1690 -1.3839
  146SAPE   C3316034   4.387   3.766   5.994 -0.6996  0.6591  0.6595
  146SAPE   H3X16035   4.352   3.716   5.902  0.1415  1.5333 -0.1704
  146SAPE   H3Y16036   4.333   3.720   6.079 -2.4039 -0.5400 -0.9971
  146SAPE   C3416037   4.541   3.739   6.006 -0.4623  0.4559 -0.0247
  146SAPE   H4X16038   4.560   3.639   6.049  1.8633  0.0326 -1.8371
  146SAPE   H4Y16039   4.586   3.810   6.079 -0.4466  0.9316 -0.4892
  146SAPE   C3516040   4.622   3.760   5.875  0.0603 -0.2657 -0.1074
  146SAPE   H5X16041   4.728   3.728   5.880 -0.1252 -1.5551 -2.8018
  146SAPE   H5Y16042   4.617   3.868   5.847 -2.1112 -0.4722 -0.7060
  146SAPE   C3616043   4.561   3.682   5.757  0.7100  0.3110  0.3298
  146SAPE   H6X16044   4.630   3.689   5.670 -0.8596 -2.9426 -1.3543
  146SAPE   H6Y16045   4.462   3.721   5.725  0.0870 -1.3441  0.1341
  146SAPE   C3716046   4.547   3.526   5.783 -0.6851 -0.2907 -0.2103
  146SAPE   H7X16047   4.465   3.501   5.855 -0.4611 -3.3369 -0.8773
  146SAPE   H7Y16048   4.639   3.495   5.837  1.4555  2.2856 -2.1115
  146SAPE   C3816049   4.530   3.438   5.658 -0.2379  0.0352  0.0049
  146SAPE   H8X16050   4.513   3.331   5.682  0.6682  0.2778  1.9356
  146SAPE   H8Y16051   4.609   3.467   5.586 -0.2334  0.7654  0.2907
  146SAPE   C3916052   4.398   3.469   5.586 -0.5003 -0.4589 -0.6534
  146SAPE   H9X16053   4.360   3.562   5.633 -0.4892 -0.7693 -0.0166
  146SAPE   H9Y16054   4.318   3.393   5.601 -0.6004 -0.4130 -0.9429
  146SAPE  C31016055   4.412   3.483   5.436  0.2194 -0.0863  0.2784
  146SAPE  H10X16056   4.475   3.570   5.407 -0.4571  0.6692  1.0115
  146SAPE  H10Y16057   4.308   3.497   5.399 -1.1399 -3.6946  2.2311
  146SAPE  C31116058   4.461   3.352   5.366  0.1394 -0.2166  0.2774
  146SAPE  H11X16059   4.424   3.262   5.419  1.1659 -2.4228 -2.5192
  146SAPE  H11Y16060   4.571   3.337   5.376  0.0529 -1.8953 -0.7824
  146SAPE  C31216061   4.424   3.342   5.222 -0.1518  0.1231 -0.2273
  146SAPE  H12X16062   4.468   3.430   5.171  0.3905 -0.9150 -1.6096
  146SAPE  H12Y16063   4.313   3.349   5.221 -0.3406 -2.0541 -1.8223
  146SAPE  C31316064   4.489   3.209   5.163  0.1986 -0.5180 -0.7264
  146SAPE  H13X16065   4.441   3.122   5.212  1.7058 -0.1534  1.5932
  146SAPE  H13Y16066   4.597   3.206   5.187 -0.0123  0.5119  0.4719
  146SAPE  C31416067   4.481   3.193   5.012 -0.6704  0.4187  0.5425
  146SAPE  H14X16068   4.528   3.278   4.959 -2.9621  0.5104 -1.5055
  146SAPE  H14Y16069   4.374   3.199   4.983 -0.1713  1.4399 -1.2693
  146SAPE  C31516070   4.538   3.064   4.974 -0.0966  0.0648 -0.2737
  146SAPE  H15X16071   4.506   2.986   5.047  0.5977  0.3313  0.3252
  146SAPE  H15Y16072   4.648   3.059   4.989 -0.1462 -1.7633 -0.1878
  146SAPE  C31616073   4.514   3.031   4.823  0.0704  0.3516 -0.3159
  146SAPE  H16X16074   4.549   3.121   4.767 -1.9717  1.7766  0.5372
  146SAPE  H16Y16075   4.405   3.018   4.807 -0.2284  1.2393  0.8302
  146SAPE  C31716076   4.599   2.911   4.775  0.8859  0.6386  0.0659
  146SAPE  H17X16077   4.703   2.949   4.785  0.7870  0.9276  0.0292
  146SAPE  H17Y16078   4.583   2.896   4.667  0.4803  0.5994  0.1289
  146SAPE  C31816079   4.582   2.776   4.852 -0.0474  0.7844  1.2678
  146SAPE  H18X16080   4.479   2.735   4.856  1.1889 -2.5837  0.9685
  146SAPE  H18Y16081   4.617   2.797   4.956  3.3143 -0.4786  0.4964
  146SAPE  H18Z16082   4.650   2.698   4.814  0.0225  0.4783  1.9933
  147SAPE     N16083   5.326   3.115   6.701  0.0861 -0.2265  0.4004
  147SAPE   HN116084   5.342   3.205   6.652  1.2897 -1.4706 -1.6265
  147SAPE   HN216085   5.332   3.035   6.635  0.4623  0.2894 -0.1971
  147SAPE   HN316086   5.234   3.124   6.749  0.0309  0.8612  0.1176
  147SAPE   C1216087   5.431   3.110   6.807 -0.3707  0.5549 -0.3867
  147SAPE  H12A16088   5.453   3.003   6.825 -1.0803  0.3412 -0.7843
  147SAPE  H12B16089   5.379   3.175   6.881 -0.5487  1.6105 -1.4051
  147SAPE   C1116090   5.570   3.164   6.777  0.1461 -1.1280  0.9589
  147SAPE  H11A16091   5.616   3.116   6.689 -1.6234 -1.9244  0.4278
  147SAPE  H11B16092   5.639   3.154   6.864  0.6889 -0.3726  0.6251
  147SAPE     P16093   5.678   3.405   6.754  0.1745 -0.3057  0.1715
  147SAPE   O1316094   5.640   3.539   6.699 -0.0579 -0.0318 -0.2402
  147SAPE   O1416095   5.740   3.399   6.887 -0.1172 -0.3413 -0.2724
  147SAPE   O1216096   5.552   3.306   6.757 -0.4527 -0.0422 -0.0402
  147SAPE   O1116097   5.768   3.331   6.643 -0.1824 -0.1238  0.0145
  147SAPE    C116098   5.708   3.313   6.513  0.2228 -0.2534  0.4373
  147SAPE    HA16099   5.601   3.287   6.527  0.1006  0.2795  0.5269
  147SAPE    HB16100   5.710   3.406   6.453  0.5273  0.8194  2.0316
  147SAPE    C216101   5.768   3.191   6.434  0.2172 -0.0507  0.7686
  147SAPE    HS16102   5.740   3.100   6.492 -1.2137  0.1862  0.4732
  147SAPE   O2116103   5.914   3.215   6.426  0.0554  0.3942  0.6666
  147SAPE   C2116104   5.986   3.117   6.376 -0.5354 -0.0833  0.4756
  147SAPE   O2216105   5.947   3.007   6.342  0.6144 -0.5645 -0.2907
  147SAPE   C2216106   6.128   3.163   6.360 -0.2655  0.0432 -0.4505
  147SAPE   H2R16107   6.138   3.273   6.352 -0.8329  0.1168 -0.1632
  147SAPE   H2S16108   6.187   3.113   6.439 -0.9310 -2.2726 -1.3373
  147SAPE    C316109   5.698   3.187   6.291 -0.4527 -0.6925 -0.1285
  147SAPE    HX16110   5.589   3.205   6.297 -0.3225 -0.2299  1.0602
  147SAPE    HY16111   5.706   3.084   6.252 -1.9601 -1.4823  1.5035
  147SAPE   O3116112   5.772   3.273   6.203  0.2219 -0.2248 -0.0307
  147SAPE   C3116113   5.737   3.393   6.175  0.5551 -0.5507  0.5334
  147SAPE   O3216114   5.638   3.447   6.215  0.3553  0.4104 -0.0679
  147SAPE   C3216115   5.831   3.461   6.076  0.0877 -0.5412  0.2262
  147SAPE   H2X16116   5.905   3.382   6.052 -1.0739 -1.5451 -0.1821
  147SAPE   H2Y16117   5.875   3.545   6.133 -2.8382 -0.7679  3.1292
  147SAPE   C2316118   6.196   3.104   6.229  1.1225  0.4533 -0.3871
  147SAPE   H3R16119   6.134   3.135   6.142 -1.7209  1.2750  1.7657
  147SAPE   H3S16120   6.203   2.994   6.242 -2.2830  0.0334 -0.9950
  147SAPE   C2416121   6.340   3.150   6.211  0.6264 -0.0016  0.0694
  147SAPE   H4R16122   6.372   3.079   6.131 -1.1150 -1.9115  0.9746
  147SAPE   H4S16123   6.398   3.121   6.301 -0.1997 -1.7331  0.0879
  147SAPE   C2516124   6.343   3.291   6.169 -0.2964  0.3862 -0.1031
  147SAPE   H5R16125   6.374   3.359   6.249 -0.8140 -0.3388  0.7313
  147SAPE   C2616126   6.334   3.346   6.043  0.8679  0.1491 -0.5958
  147SAPE   H6R16127   6.351   3.455   6.044  0.2710  0.2508  0.6631
  147SAPE   C2716128   6.285   3.283   5.914  0.4414 -0.1821 -0.1175
  147SAPE   H7R16129   6.243   3.181   5.932 -2.1413  0.6814 -0.7844
  147SAPE   H7S16130   6.368   3.277   5.840  0.6845  2.7726 -0.1865
  147SAPE   C2816131   6.174   3.359   5.848  0.4338  0.2511  0.3721
  147SAPE   H8R16132   6.124   3.420   5.925  0.2531 -1.2598  1.4860
  147SAPE   C2916133   6.111   3.350   5.729  0.2926 -0.2428 -0.2434
  147SAPE   H9R16134   6.033   3.426   5.713  1.4846  0.9451 -0.5994
  147SAPE  C21016135   6.144   3.254   5.617 -0.5816  0.4992 -0.6419
  147SAPE  H10R16136   6.044   3.232   5.574 -1.3198 -0.1482  1.2885
  147SAPE  H10S16137   6.178   3.154   5.652  0.1904  0.7381 -0.6857
  147SAPE  C21116138   6.242   3.315   5.517  0.6779 -0.1926 -0.2556
  147SAPE  H11R16139   6.346   3.319   5.553  1.3701 -0.6210 -2.0874
  147SAPE  C21216140   6.217   3.342   5.385  0.1866  0.0437  0.6008
  147SAPE  H12R16141   6.297   3.379   5.319  0.4406 -1.3063  0.1112
  147SAPE  C21316142   6.086   3.326   5.308 -0.3866  0.6283 -0.7968
  147SAPE  H13R16143   6.005   3.303   5.381  0.1969 -0.4648 -0.4659
  147SAPE  H13S16144   6.102   3.244   5.235  3.1776  0.5326 -0.0895
  147SAPE  C21416145   6.061   3.456   5.230  0.1834  0.5681  0.2939
  147SAPE  H14R16146   5.994   3.528   5.279  2.2771  4.0443 -1.5249
  147SAPE  C21516147   6.128   3.500   5.118  0.0119  0.3199 -0.8447
  147SAPE  H15R16148   6.075   3.578   5.062 -1.7015  0.9624  1.5105
  147SAPE  C21616149   6.223   3.421   5.026  0.3363  0.2232  0.1234
  147SAPE  H16R16150   6.188   3.394   4.924 -0.8000  0.6248  0.3970
  147SAPE  H16S16151   6.265   3.326   5.067  1.8687  0.5773 -0.5527
  147SAPE  C21716152   6.350   3.509   4.976 -0.0762  1.0455 -0.2418
  147SAPE  H17R16153   6.318   3.602   4.925  0.8274  2.2599  1.2852
  147SAPE  H17S16154   6.401   3.453   4.896 -1.4745  1.9911 -1.8715
  147SAPE  C21816155   6.449   3.541   5.083 -0.1318 -0.2712 -0.2770
  147SAPE  H18R16156   6.446   3.464   5.163 -2.3123 -0.1878 -0.2243
  147SAPE  H18S16157   6.432   3.639   5.133 -0.1727 -0.1682 -0.4935
  147SAPE  C21916158   6.594   3.550   5.028  0.5812  0.0195 -0.4173
  147SAPE  H19R16159   6.615   3.610   4.937  0.9994 -2.4873 -2.0714
  147SAPE  H19S16160   6.625   3.447   4.998  1.1238  0.5169 -1.6474
  147SAPE  C22016161   6.686   3.586   5.141  0.1409 -0.8593 -0.3264
  147SAPE  H20R16162   6.789   3.580   5.102  0.4171 -1.0207  0.4114
  147SAPE  H20S16163   6.665   3.519   5.228  0.6187  1.3364  1.5965
  147SAPE  H20T16164   6.663   3.686   5.185  1.7936 -0.3668 -0.5285
  147SAPE   C3316165   5.771   3.524   5.942 -0.3723  0.3878 -0.3124
  147SAPE   H3X16166   5.860   3.556   5.883  0.3333  2.2164  1.6302
  147SAPE   H3Y16167   5.694   3.603   5.952 -0.3648  0.8870 -3.2327
  147SAPE   C3416168   5.708   3.413   5.865  0.3046 -0.5131  0.3011
  147SAPE   H4X16169   5.621   3.385   5.927  0.4355  1.4374  1.4545
  147SAPE   H4Y16170   5.778   3.327   5.857  1.8383  0.6795  0.4518
  147SAPE   C3516171   5.676   3.472   5.728 -0.5995  0.2555  0.5781
  147SAPE   H5X16172   5.774   3.465   5.676  0.5791  0.8364  2.6423
  147SAPE   H5Y16173   5.641   3.577   5.735 -0.3129  0.3768  0.2395
  147SAPE   C3616174   5.555   3.404   5.655  0.0240  0.9018  0.2756
  147SAPE   H6X16175   5.458   3.430   5.704  1.1382  0.5381  2.7994
  147SAPE   H6Y16176   5.566   3.294   5.665  0.0697  1.0221  1.7763
  147SAPE   C3716177   5.557   3.452   5.503 -0.3192 -0.1719  0.3036
  147SAPE   H7X16178   5.573   3.562   5.506  0.7186 -0.3057  3.7532
  147SAPE   H7Y16179   5.455   3.419   5.473  0.6467 -2.8364 -0.3102
  147SAPE   C3816180   5.655   3.362   5.416  0.3623 -0.2529  0.3722
  147SAPE   H8X16181   5.632   3.254   5.430  0.4557 -0.0573  2.3280
  147SAPE   H8Y16182   5.758   3.389   5.448  0.1098  1.2854 -0.0305
  147SAPE   C3916183   5.640   3.398   5.268  0.4310 -0.2199 -0.2735
  147SAPE   H9X16184   5.679   3.501   5.252 -0.4832  0.7883  3.1912
  147SAPE   H9Y16185   5.533   3.385   5.241  0.7766 -1.4762 -1.1100
  147SAPE  C31016186   5.699   3.293   5.172 -0.0098 -0.7137 -0.5692
  147SAPE  H10X16187   5.642   3.198   5.177 -2.4574  0.5594 -2.3308
  147SAPE  H10Y16188   5.804   3.287   5.208 -0.7192 -1.1420  1.5750
  147SAPE  C31116189   5.703   3.348   5.036 -0.4491  0.1536  0.9814
  147SAPE  H11X16190   5.782   3.421   5.012  0.6683 -1.4192 -0.3979
  147SAPE  H11Y16191   5.613   3.410   5.015  1.7013  3.3522  0.5982
  147SAPE  C31216192   5.707   3.243   4.926 -0.1824 -0.4618  0.3011
  147SAPE  H12X16193   5.618   3.177   4.939  0.4126 -1.2821  0.3137
  147SAPE  H12Y16194   5.810   3.201   4.923  0.8425  1.9610 -0.5583
  147SAPE  C31316195   5.702   3.293   4.783  0.7364 -0.5772  0.2518
  147SAPE  H13X16196   5.787   3.358   4.753  0.6160 -1.0441 -1.1663
  147SAPE  H13Y16197   5.606   3.347   4.769  0.2469 -1.3133  0.7310
  147SAPE  C31416198   5.698   3.178   4.675 -0.7449  0.4648  0.3045
  147SAPE  H14X16199   5.605   3.118   4.670  0.4356 -1.4322  0.0166
  147SAPE  H14Y16200   5.776   3.103   4.699 -1.0465 -1.0060 -2.8443
  147SAPE  C31516201   5.713   3.241   4.535 -0.1467  0.4232 -0.1405
  147SAPE  H15X16202   5.809   3.297   4.527  0.3358 -0.3678  0.0575
  147SAPE  H15Y16203   5.635   3.320   4.532  0.5348  1.1480  0.8898
  147SAPE  C31616204   5.699   3.147   4.414 -0.0548  0.4246  0.2925
  147SAPE  H16X16205   5.595   3.113   4.393  1.1070 -3.1252 -0.3608
  147SAPE  H16Y16206   5.749   3.051   4.440  0.0502  1.4190  4.2791
  147SAPE  C31716207   5.744   3.201   4.285 -0.5351  0.0359 -0.1031
  147SAPE  H17X16208   5.728   3.311   4.286  5.4343  1.2427 -0.1615
  147SAPE  H17Y16209   5.688   3.155   4.201  1.0312  0.2072 -1.2633
  147SAPE  C31816210   5.899   3.187   4.264  0.7333 -0.2689 -0.3564
  147SAPE  H18X16211   5.940   3.214   4.363 -0.6106 -0.4641  0.2752
  147SAPE  H18Y16212   5.955   3.248   4.190 -1.1796  0.4081 -1.3123
  147SAPE  H18Z16213   5.924   3.078   4.261  0.6846 -0.2767 -0.4840
  148SAPE     N16214   0.911   4.306   6.881 -0.0533 -0.3315  0.1905
  148SAPE   HN116215   0.824   4.295   6.937 -1.0384 -1.2389 -1.4393
  148SAPE   HN216216   0.927   4.406   6.857  1.5875  0.1144  2.7606
  148SAPE   HN316217   0.899   4.245   6.798  0.0657 -2.5283  1.6958
  148SAPE   C1216218   1.028   4.244   6.948 -0.2946 -0.2811 -0.0013
  148SAPE  H12A16219   1.062   4.302   7.037 -0.3523  0.8078 -0.6629
  148SAPE  H12B16220   1.111   4.256   6.875  0.8275 -0.0905  1.2637
  148SAPE   C1116221   1.003   4.094   6.967  0.3968  0.4466  0.2079
  148SAPE  H11A16222   0.927   4.076   7.046  1.9638 -0.9306  1.4450
  148SAPE  H11B16223   1.102   4.058   7.000  0.8233  1.3958  0.0103
  148SAPE     P16224   1.017   3.885   6.813 -0.0689  0.4690 -0.0152
  148SAPE   O1316225   1.020   3.793   6.931  0.0952  0.0546 -0.1861
  148SAPE   O1416226   0.962   3.835   6.687 -0.6944 -0.0360  0.5012
  148SAPE   O1216227   0.958   4.024   6.850 -0.2619 -0.1485 -0.0538
  148SAPE   O1116228   1.162   3.915   6.798 -0.4584 -0.6159 -0.3503
  148SAPE    C116229   1.222   4.012   6.706 -0.5912 -0.2553 -0.1624
  148SAPE    HA16230   1.186   4.115   6.728 -0.5822 -0.5781  1.4776
  148SAPE    HB16231   1.331   4.022   6.723 -0.5521 -2.3372  1.2317
  148SAPE    C216232   1.202   3.991   6.553  0.2870  0.2406 -0.4783
  148SAPE    HS16233   1.095   3.967   6.531  0.4703 -0.5260 -0.5584
  148SAPE   O2116234   1.292   3.886   6.519  0.5340 -0.3861  0.1018
  148SAPE   C2116235   1.250   3.796   6.430  0.0207  0.0391 -0.4197
  148SAPE   O2216236   1.145   3.801   6.372 -0.1156 -0.1874 -0.6480
  148SAPE   C2216237   1.365   3.692   6.408 -0.0083  0.6505  0.3051
  148SAPE   H2R16238   1.459   3.751   6.414  0.1919  0.3090  0.5318
  148SAPE   H2S16239   1.358   3.621   6.493 -3.0083  0.3331 -0.0995
  148SAPE    C316240   1.228   4.116   6.466 -0.0641 -0.0957 -0.2305
  148SAPE    HX16241   1.332   4.134   6.502 -0.3197  0.0627  0.4631
  148SAPE    HY16242   1.162   4.201   6.495  0.4102  0.5155 -0.9129
  148SAPE   O3116243   1.216   4.096   6.324  0.6325  0.9548  0.0771
  148SAPE   C3116244   1.101   4.071   6.285  0.5675  0.2340 -0.8881
  148SAPE   O3216245   0.997   4.079   6.346  0.4125  0.1785 -0.6728
  148SAPE   C3216246   1.114   4.041   6.130 -0.2277 -0.5363  0.0821
  148SAPE   H2X16247   1.019   4.061   6.076  0.1489 -1.0904 -0.8031
  148SAPE   H2Y16248   1.123   3.931   6.115 -0.7477 -0.6161  0.3397
  148SAPE   C2316249   1.360   3.622   6.274 -0.2144 -0.3690 -0.3925
  148SAPE   H3R16250   1.259   3.577   6.273  0.2598 -1.5044  0.3696
  148SAPE   H3S16251   1.429   3.535   6.269 -0.3403 -0.5054  0.2058
  148SAPE   C2416252   1.397   3.709   6.157  0.1588 -0.3696 -1.0897
  148SAPE   H4R16253   1.507   3.723   6.159  0.6783 -3.5533  0.7583
  148SAPE   H4S16254   1.358   3.812   6.169 -0.7391 -0.7949 -0.0956
  148SAPE   C2516255   1.349   3.665   6.027  0.1460  0.6173 -0.4167
  148SAPE   H5R16256   1.242   3.685   6.011  0.5759  1.3048 -2.8050
  148SAPE   C2616257   1.420   3.612   5.931  0.4950  0.1835  0.1255
  148SAPE   H6R16258   1.376   3.579   5.835  0.7501 -2.1361  0.7320
  148SAPE   C2716259   1.572   3.588   5.921  0.1171 -0.3729 -0.1515
  148SAPE   H7R16260   1.622   3.658   5.991  2.3330 -0.8463 -1.1640
  148SAPE   H7S16261   1.597   3.630   5.821 -0.5123  0.8706  0.1973
  148SAPE   C2816262   1.620   3.443   5.940  0.2360  0.2829 -0.0542
  148SAPE   H8R16263   1.558   3.390   6.015  0.6397  0.7652  0.6335
  148SAPE   C2916264   1.708   3.368   5.865  0.2575 -0.3696 -0.6195
  148SAPE   H9R16265   1.726   3.259   5.873  3.5590 -0.0799 -2.1329
  148SAPE  C21016266   1.805   3.424   5.758  0.6227 -0.5580  0.7028
  148SAPE  H10R16267   1.908   3.430   5.800  1.1296 -0.9593 -0.4504
  148SAPE  H10S16268   1.780   3.531   5.740 -2.0353 -1.3637 -1.0084
  148SAPE  C21116269   1.812   3.345   5.630  0.4063 -0.5057 -0.6483
  148SAPE  H11R16270   1.881   3.259   5.635 -0.7676 -1.4582  0.0876
  148SAPE  C21216271   1.741   3.351   5.517  0.7498 -0.3468  0.2525
  148SAPE  H12R16272   1.776   3.296   5.428  2.3072  2.8106 -1.2632
  148SAPE  C21316273   1.639   3.462   5.487  0.5639  0.1282 -0.2703
  148SAPE  H13R16274   1.705   3.551   5.492 -1.1133  1.4878 -1.1712
  148SAPE  H13S16275   1.572   3.472   5.575  1.3657  0.8540  0.2733
  148SAPE  C21416276   1.560   3.438   5.358  0.4824  0.2082 -0.2316
  148SAPE  H14R16277   1.471   3.376   5.374 -0.2847  1.7579  1.8641
  148SAPE  C21516278   1.607   3.467   5.236  0.0126  0.5915 -0.6982
  148SAPE  H15R16279   1.544   3.435   5.152 -1.0876 -0.5944  0.5437
  148SAPE  C21616280   1.729   3.546   5.205 -0.6058 -0.4570  0.1264
  148SAPE  H16R16281   1.814   3.500   5.150 -0.3929 -0.0339  0.0964
  148SAPE  H16S16282   1.778   3.587   5.296 -0.1930  1.1461 -0.7964
  148SAPE  C21716283   1.706   3.679   5.123  0.2768 -0.5949 -1.1986
  148SAPE  H17R16284   1.625   3.739   5.171  1.2025 -1.4787  1.7038
  148SAPE  H17S16285   1.671   3.653   5.021  0.2246 -1.5980 -0.9421
  148SAPE  C21816286   1.829   3.774   5.120  0.0877  0.4966  0.1489
  148SAPE  H18R16287   1.920   3.710   5.115 -0.2612 -0.1450  1.5229
  148SAPE  H18S16288   1.843   3.817   5.221 -0.2352 -0.1850  0.4879
  148SAPE  C21916289   1.826   3.898   5.028  0.3623  0.3948 -0.0674
  148SAPE  H19R16290   1.885   3.974   5.083  1.9560  0.2863 -1.5356
  148SAPE  H19S16291   1.719   3.926   5.024  0.4235  1.0323  1.9038
  148SAPE  C22016292   1.865   3.875   4.882  0.2762 -0.1900 -0.0166
  148SAPE  H20R16293   1.801   3.794   4.838 -1.8134  1.7559 -0.7410
  148SAPE  H20S16294   1.974   3.857   4.876  0.5983  1.3647  0.7406
  148SAPE  H20T16295   1.834   3.971   4.835 -3.9287 -0.5116  1.6349
  148SAPE   C3316296   1.246   4.091   6.063 -0.6407  0.2732  0.0290
  148SAPE   H3X16297   1.332   4.026   6.088 -0.7888  0.2460  0.4698
  148SAPE   H3Y16298   1.268   4.196   6.092  0.7499  0.9887 -3.1708
  148SAPE   C3416299   1.235   4.081   5.907 -0.0563  0.1968 -0.8348
  148SAPE   H4X16300   1.306   4.151   5.859 -1.4278  2.4495  0.2682
  148SAPE   H4Y16301   1.141   4.123   5.867 -0.3570 -0.7325 -1.1181
  148SAPE   C3516302   1.260   3.938   5.845  0.0981  0.1115 -0.1140
  148SAPE   H5X16303   1.200   3.863   5.900  1.0188  0.0770  0.8879
  148SAPE   H5Y16304   1.370   3.922   5.851 -0.3762 -3.7945  0.6563
  148SAPE   C3616305   1.217   3.942   5.696 -0.0134  0.5636 -0.4584
  148SAPE   H6X16306   1.268   4.026   5.644  0.3136  0.3654 -0.4660
  148SAPE   H6Y16307   1.107   3.953   5.700 -0.3474 -0.7707 -3.6461
  148SAPE   C3716308   1.252   3.816   5.622  0.2656 -0.9429  0.1888
  148SAPE   H7X16309   1.207   3.724   5.664 -1.3902  0.5796  1.9340
  148SAPE   H7Y16310   1.360   3.794   5.622  0.4418 -0.1218 -0.0973
  148SAPE   C3816311   1.211   3.815   5.471 -0.0162  0.0994 -0.5852
  148SAPE   H8X16312   1.265   3.903   5.429 -3.6271  3.3096  0.8161
  148SAPE   H8Y16313   1.103   3.829   5.448 -0.0462  0.1415 -0.4208
  148SAPE   C3916314   1.239   3.686   5.388  0.3327  0.2484 -0.5480
  148SAPE   H9X16315   1.191   3.591   5.418  1.5229 -0.7333 -1.6245
  148SAPE   H9Y16316   1.348   3.667   5.404 -0.1101 -1.3576  0.7800
  148SAPE  C31016317   1.225   3.722   5.231 -0.0913  0.0022 -0.0414
  148SAPE  H10X16318   1.281   3.816   5.212  0.1045 -0.2592 -0.8208
  148SAPE  H10Y16319   1.117   3.739   5.210 -0.4448 -2.1620 -0.1520
  148SAPE  C31116320   1.275   3.610   5.147  0.3309 -0.0060  0.0305
  148SAPE  H11X16321   1.197   3.531   5.152 -0.5439  0.7385 -1.2547
  148SAPE  H11Y16322   1.371   3.569   5.184 -0.6995 -1.4441  1.2718
  148SAPE  C31216323   1.293   3.642   5.001 -0.1118  0.1922 -0.4869
  148SAPE  H12X16324   1.364   3.727   4.990  1.1538 -0.8627 -0.6827
  148SAPE  H12Y16325   1.204   3.689   4.955 -0.7032  0.4783  0.8853
  148SAPE  C31316326   1.344   3.524   4.918 -0.0452 -0.0791 -0.1178
  148SAPE  H13X16327   1.277   3.436   4.930 -1.7032  1.0395 -0.7750
  148SAPE  H13Y16328   1.447   3.493   4.946 -0.9539 -0.3798  3.3487
  148SAPE  C31416329   1.344   3.556   4.767 -0.1020  0.6497 -0.1241
  148SAPE  H14X16330   1.401   3.650   4.750 -2.1821  1.8120 -0.9361
  148SAPE  H14Y16331   1.241   3.583   4.736 -0.2376  0.4751  0.1777
  148SAPE  C31516332   1.412   3.457   4.675  0.1231  0.8200 -0.2508
  148SAPE  H15X16333   1.418   3.499   4.572 -1.2987 -1.8571 -1.5192
  148SAPE  H15Y16334   1.346   3.368   4.662 -0.0094  0.9398 -0.4034
  148SAPE  C31616335   1.556   3.421   4.707 -0.0258 -0.1498 -0.4395
  148SAPE  H16X16336   1.560   3.384   4.812  1.0980 -2.3572 -1.1878
  148SAPE  H16Y16337   1.634   3.499   4.696 -0.4456  0.3548  0.1509
  148SAPE  C31716338   1.595   3.306   4.616  0.1910 -0.0111 -0.1873
  148SAPE  H17X16339   1.586   3.333   4.509 -1.1731 -0.2322 -0.1541
  148SAPE  H17Y16340   1.516   3.228   4.626 -2.4949  2.1643 -2.6812
  148SAPE  C31816341   1.726   3.239   4.654 -0.5726  0.2513 -0.1306
  148SAPE  H18X16342   1.811   3.294   4.608  0.0852 -0.4423  0.2451
  148SAPE  H18Y16343   1.734   3.142   4.601 -1.2772  0.4049 -0.5389
  148SAPE  H18Z16344   1.741   3.217   4.761  0.7024 -0.8890 -0.5206
  149SAPE     N16345   2.193   5.387   6.852  1.2460 -0.4909 -0.0435
  149SAPE   HN116346   2.278   5.421   6.902 -0.2096  0.7320  1.7495
  149SAPE   HN216347   2.209   5.373   6.751 -2.3230  0.5941 -0.9250
  149SAPE   HN316348   2.110   5.450   6.861 -0.3760 -2.6198  1.0060
  149SAPE   C1216349   2.149   5.252   6.891 -0.1792  0.1497 -0.3574
  149SAPE  H12A16350   2.045   5.263   6.930 -0.7149  0.2072 -1.7177
  149SAPE  H12B16351   2.219   5.221   6.971  0.6013 -1.4521 -1.6032
  149SAPE   C1116352   2.158   5.151   6.782  0.5678 -0.2795  0.5701
  149SAPE  H11A16353   2.119   5.051   6.813 -1.0752  0.8080  2.2536
  149SAPE  H11B16354   2.266   5.142   6.760  0.6039 -0.6190  0.8556
  149SAPE     P16355   1.938   5.156   6.645  0.0038 -0.1778  0.0470
  149SAPE   O1316356   1.928   5.007   6.641  0.0204  0.0623 -0.2156
  149SAPE   O1416357   1.853   5.218   6.745  0.5175 -0.3613  0.1997
  149SAPE   O1216358   2.089   5.204   6.665  0.2110  0.3857  0.0666
  149SAPE   O1116359   1.900   5.205   6.500  0.6009 -0.0438 -0.2052
  149SAPE    C116360   1.933   5.133   6.384 -0.5715  0.8303  0.4681
  149SAPE    HA16361   1.903   5.027   6.397  1.5722  0.2459  1.0631
  149SAPE    HB16362   1.880   5.167   6.292  1.7757  0.0836 -1.2367
  149SAPE    C216363   2.085   5.129   6.339  0.1167  0.1681  0.6448
  149SAPE    HS16364   2.140   5.097   6.429  0.9695 -0.4535 -0.0781
  149SAPE   O2116365   2.125   5.256   6.305  0.2209 -0.0830  0.6397
  149SAPE   C2116366   2.244   5.291   6.333  0.0745  0.4191 -0.2051
  149SAPE   O2216367   2.324   5.235   6.405 -0.1689 -0.4261  0.6321
  149SAPE   C2216368   2.262   5.431   6.273 -0.1683  0.2114  0.0972
  149SAPE   H2R16369   2.236   5.430   6.165  0.4021 -0.4828 -0.0341
  149SAPE   H2S16370   2.192   5.504   6.319 -0.0197  0.7641 -0.5300
  149SAPE    C316371   2.127   5.034   6.227 -0.5665 -0.1580  0.0645
  149SAPE    HX16372   2.112   4.928   6.256  2.4705 -0.0068  2.7070
  149SAPE    HY16373   2.237   5.052   6.215 -0.9382  2.8639  0.3541
  149SAPE   O3116374   2.055   5.049   6.100 -0.0584  0.2341 -0.0153
  149SAPE   C3116375   2.113   5.111   6.005 -0.8416  0.0236 -0.2688
  149SAPE   O3216376   2.236   5.124   5.986 -0.1021 -0.7961 -0.4925
  149SAPE   C3216377   1.999   5.168   5.924  0.4995 -0.6434 -0.1299
  149SAPE   H2X16378   2.040   5.241   5.851  0.9559 -0.3989  0.3665
  149SAPE   H2Y16379   1.933   5.226   5.991  0.2154 -2.1693  0.9457
  149SAPE   C2316380   2.407   5.477   6.275  0.1411 -0.3159 -0.1662
  149SAPE   H3R16381   2.436   5.467   6.381  0.3494  2.9690  0.1845
  149SAPE   H3S16382   2.411   5.587   6.258  1.1720 -0.5277 -1.4785
  149SAPE   C2416383   2.505   5.394   6.184 -1.2756  0.0849  0.1244
  149SAPE   H4R16384   2.513   5.292   6.228  1.0263  0.5698  0.9574
  149SAPE   H4S16385   2.604   5.442   6.197  0.0031 -2.1263 -0.9155
  149SAPE   C2516386   2.463   5.391   6.040  0.5165 -0.1549  0.5166
  149SAPE   H5R16387   2.365   5.345   6.019  2.0143 -3.4142  0.1334
  149SAPE   C2616388   2.519   5.453   5.933 -0.7071  0.2412  0.3327
  149SAPE   H6R16389   2.471   5.434   5.836  1.3358  0.5189 -0.7901
  149SAPE   C2716390   2.651   5.532   5.933 -0.3204  0.6015 -0.3082
  149SAPE   H7R16391   2.739   5.475   5.898  1.0062  1.1217  1.9645
  149SAPE   H7S16392   2.680   5.557   6.037  2.5183  3.3754 -1.6137
  149SAPE   C2816393   2.629   5.659   5.852  1.1367  0.0241  1.2635
  149SAPE   H8R16394   2.555   5.733   5.886 -0.3533 -1.0366  0.4384
  149SAPE   C2916395   2.701   5.687   5.737 -0.2786 -0.0499  0.1868
  149SAPE   H9R16396   2.695   5.794   5.711 -0.7543  0.2333  1.4246
  149SAPE  C21016397   2.804   5.600   5.673 -0.1354  0.5670  0.3770
  149SAPE  H10R16398   2.745   5.526   5.614 -1.0975  0.3038  1.6129
  149SAPE  H10S16399   2.867   5.548   5.748 -0.7473  1.3588  1.4659
  149SAPE  C21116400   2.892   5.686   5.585 -0.1957 -0.0949  0.0702
  149SAPE  H11R16401   2.949   5.757   5.647 -0.7875  0.8803 -0.4774
  149SAPE  C21216402   2.899   5.700   5.449  0.1974 -0.0813 -0.2634
  149SAPE  H12R16403   2.981   5.754   5.400 -0.5728  2.3256  0.9717
  149SAPE  C21316404   2.828   5.612   5.344  0.6088 -0.1991  0.0031
  149SAPE  H13R16405   2.828   5.662   5.245  0.0095 -0.7400 -0.2846
  149SAPE  H13S16406   2.718   5.612   5.363  0.5646 -0.0428 -0.2445
  149SAPE  C21416407   2.865   5.465   5.328  0.6130  0.2480  0.2634
  149SAPE  H14R16408   2.845   5.406   5.420 -1.2527 -1.4394 -1.1169
  149SAPE  C21516409   2.906   5.396   5.218 -0.0615 -0.1153 -0.7909
  149SAPE  H15R16410   2.950   5.297   5.239  1.2253  0.6545  0.2981
  149SAPE  C21616411   2.923   5.443   5.079  0.0329 -0.0797 -0.2717
  149SAPE  H16R16412   2.851   5.520   5.043 -0.6531 -1.5051 -2.1302
  149SAPE  H16S16413   2.904   5.355   5.012 -1.0108 -0.4227  0.4455
  149SAPE  C21716414   3.061   5.492   5.045  0.1655  0.1746  0.1938
  149SAPE  H17R16415   3.146   5.427   5.074  0.3530  0.6283  0.6762
  149SAPE  H17S16416   3.077   5.593   5.087  0.7276  0.4954 -0.7507
  149SAPE  C21816417   3.077   5.509   4.890 -0.0120 -0.5248 -0.0400
  149SAPE  H18R16418   3.002   5.575   4.841 -0.1848  0.3066  1.2997
  149SAPE  H18S16419   3.071   5.405   4.852  1.1604  0.5344 -3.4845
  149SAPE  C21916420   3.222   5.545   4.858  0.1926  0.5412 -0.0104
  149SAPE  H19R16421   3.298   5.473   4.895  1.2977  1.7496  0.1210
  149SAPE  H19S16422   3.242   5.643   4.907 -2.8371  2.3289 -2.0104
  149SAPE  C22016423   3.221   5.549   4.703  0.1592 -0.1121  0.5091
  149SAPE  H20R16424   3.131   5.593   4.657  0.0739 -1.1083 -0.3161
  149SAPE  H20S16425   3.251   5.454   4.653  1.1199  0.4502 -0.0291
  149SAPE  H20T16426   3.305   5.616   4.675  1.5703 -1.3211  1.6309
  149SAPE   C3316427   1.907   5.058   5.857  0.7554  0.7195  0.1831
  149SAPE   H3X16428   1.829   5.026   5.929  0.8036  2.5675  1.1332
  149SAPE   H3Y16429   1.970   4.970   5.833  1.2225  0.5647  1.8672
  149SAPE   C3416430   1.845   5.102   5.725 -0.9003 -0.6114 -0.7250
  149SAPE   H4X16431   1.928   5.129   5.656  0.4181 -1.8471  0.3238
  149SAPE   H4Y16432   1.790   5.197   5.742 -3.1265 -1.7338 -1.2696
  149SAPE   C3516433   1.750   5.002   5.662 -0.7299  0.6706 -0.9504
  149SAPE   H5X16434   1.659   5.008   5.726 -0.4199  0.3936 -0.4804
  149SAPE   H5Y16435   1.792   4.899   5.666  1.1190  1.3990 -0.9308
  149SAPE   C3616436   1.712   5.045   5.517 -0.7389 -0.6269 -0.5495
  149SAPE   H6X16437   1.629   4.980   5.482 -2.5257  1.7782 -1.0081
  149SAPE   H6Y16438   1.797   5.024   5.449  2.1967  2.3084  1.8804
  149SAPE   C3716439   1.671   5.190   5.503 -0.1610 -0.5605 -0.2236
  149SAPE   H7X16440   1.754   5.260   5.527  0.0013 -0.7524 -0.2245
  149SAPE   H7Y16441   1.580   5.214   5.563  0.1432  1.9975 -0.6518
  149SAPE   C3816442   1.630   5.221   5.355  0.4966 -0.2750 -0.5051
  149SAPE   H8X16443   1.577   5.318   5.343  1.9982  0.7177  0.4853
  149SAPE   H8Y16444   1.552   5.145   5.336 -0.8629  1.0012 -0.2569
  149SAPE   C3916445   1.744   5.222   5.245 -0.0150  1.2697 -0.6649
  149SAPE   H9X16446   1.841   5.183   5.282 -0.0801  0.2647 -1.4830
  149SAPE   H9Y16447   1.786   5.322   5.223  0.7573  1.0811 -0.0807
  149SAPE  C31016448   1.703   5.134   5.124 -0.3191  0.2577  0.3348
  149SAPE  H10X16449   1.595   5.147   5.106  0.0494  1.8239 -1.0004
  149SAPE  H10Y16450   1.710   5.025   5.142 -0.9134  0.0407 -0.6890
  149SAPE  C31116451   1.783   5.165   4.996 -0.2210  0.1377 -0.5997
  149SAPE  H11X16452   1.742   5.087   4.929  0.6419  0.0933 -1.0876
  149SAPE  H11Y16453   1.893   5.148   4.997 -0.2383 -0.1902  1.8905
  149SAPE  C31216454   1.742   5.308   4.942  0.1359 -1.1387 -0.0827
  149SAPE  H12X16455   1.820   5.382   4.971  0.1760 -1.1734 -0.1013
  149SAPE  H12Y16456   1.642   5.333   4.982  1.0912  0.1496  1.6675
  149SAPE  C31316457   1.732   5.315   4.790 -0.2000  0.4608  0.4153
  149SAPE  H13X16458   1.701   5.416   4.757  1.7818  0.8508 -0.4241
  149SAPE  H13Y16459   1.653   5.244   4.757 -0.7284  0.6002  1.3600
  149SAPE  C31416460   1.865   5.284   4.706  0.2405  0.5275 -0.6668
  149SAPE  H14X16461   1.843   5.295   4.597 -0.4420 -0.1419 -0.6078
  149SAPE  H14Y16462   1.893   5.177   4.709 -1.4191 -0.0138 -2.2666
  149SAPE  C31516463   1.983   5.371   4.756  0.7554 -0.2777  0.4888
  149SAPE  H15X16464   2.025   5.353   4.858 -2.7883 -1.9138  1.8090
  149SAPE  H15Y16465   1.937   5.472   4.758  0.2335 -0.4627 -1.2683
  149SAPE  C31616466   2.100   5.383   4.657 -0.6044  0.2477  0.3736
  149SAPE  H16X16467   2.175   5.446   4.710 -0.9906  1.1578 -0.1431
  149SAPE  H16Y16468   2.082   5.432   4.559  0.8039  0.3293  0.1404
  149SAPE  C31716469   2.159   5.243   4.632 -0.3408  1.1140 -0.1575
  149SAPE  H17X16470   2.132   5.205   4.531  1.3371 -0.8884  0.0800
  149SAPE  H17Y16471   2.104   5.173   4.700 -0.1217  0.2594 -0.8390
  149SAPE  C31816472   2.315   5.231   4.654  0.4625 -0.2296  0.0842
  149SAPE  H18X16473   2.374   5.314   4.610 -1.4256  0.5789 -1.0367
  149SAPE  H18Y16474   2.350   5.132   4.616 -1.0489 -0.3685 -1.0499
  149SAPE  H18Z16475   2.330   5.223   4.764 -0.0882 -1.0772  0.1092
  150SAPE     N16476   5.097   0.962   6.224 -0.9017  0.4350  0.7483
  150SAPE   HN116477   5.036   1.025   6.168 -1.7339  0.6929  1.9246
  150SAPE   HN216478   5.178   1.020   6.256 -1.4921  1.7212 -0.0207
  150SAPE   HN316479   5.133   0.885   6.164  0.5367  0.6183  1.3357
  150SAPE   C1216480   5.006   0.907   6.330 -0.8656  0.1783 -0.1139
  150SAPE  H12A16481   4.923   0.848   6.286 -1.5258  0.6409  0.4884
  150SAPE  H12B16482   4.963   0.999   6.375 -2.2430  0.6051 -2.1718
  150SAPE   C1116483   5.086   0.824   6.428  0.1199  0.3887 -0.0895
  150SAPE  H11A16484   5.019   0.804   6.514  0.8246 -1.8821  0.0070
  150SAPE  H11B16485   5.175   0.878   6.466  1.5415 -1.2022 -0.9934
  150SAPE     P16486   5.208   0.586   6.440 -0.1009  0.4045 -0.0003
  150SAPE   O1316487   5.350   0.624   6.452 -0.2179  0.3584  0.1390
  150SAPE   O1416488   5.138   0.563   6.569  0.3168 -0.2425 -0.0629
  150SAPE   O1216489   5.135   0.700   6.368 -0.1353 -0.4364  0.1821
  150SAPE   O1116490   5.185   0.466   6.336  0.6607 -0.7143 -0.5323
  150SAPE    C116491   5.292   0.440   6.235  0.3275  0.2347 -0.2014
  150SAPE    HA16492   5.392   0.425   6.282 -0.0095 -1.8184 -0.0144
  150SAPE    HB16493   5.272   0.349   6.175 -0.3692 -0.7600  1.4592
  150SAPE    C216494   5.308   0.551   6.134 -0.2149  1.1197 -0.2278
  150SAPE    HS16495   5.318   0.649   6.184  3.0203  0.5356  0.4806
  150SAPE   O2116496   5.191   0.554   6.052 -0.3251 -0.5985 -0.2348
  150SAPE   C2116497   5.161   0.665   5.989 -0.0067 -0.1957  0.6242
  150SAPE   O2216498   5.181   0.781   6.026 -0.2252 -0.5780  0.4612
  150SAPE   C2216499   5.079   0.624   5.865  0.3611  0.2461  0.0417
  150SAPE   H2R16500   5.093   0.515   5.848 -0.7960 -0.2158  1.7443
  150SAPE   H2S16501   4.972   0.646   5.883  0.0139  1.7695 -3.1653
  150SAPE    C316502   5.433   0.532   6.036  0.2658  0.0217 -0.2282
  150SAPE    HX16503   5.526   0.539   6.097  0.2371 -0.4550 -0.1225
  150SAPE    HY16504   5.435   0.613   5.960 -0.9092  1.8793  1.6278
  150SAPE   O3116505   5.411   0.407   5.967 -0.1331  0.5844  0.2294
  150SAPE   C3116506   5.526   0.345   5.932  0.1862 -0.4179  0.3413
  150SAPE   O3216507   5.633   0.393   5.936 -0.1696 -0.3739 -0.1666
  150SAPE   C3216508   5.491   0.208   5.887  0.8917  0.0917 -0.4936
  150SAPE   H2X16509   5.381   0.195   5.887  0.9572 -1.7178  2.7894
  150SAPE   H2Y16510   5.537   0.140   5.963  0.4920  1.3991  0.9550
  150SAPE   C2316511   5.111   0.712   5.739  0.4122 -0.2624  0.5691
  150SAPE   H3R16512   5.124   0.819   5.765 -0.6089 -0.5666  2.4565
  150SAPE   H3S16513   5.031   0.712   5.662  0.4702  3.1046  0.3793
  150SAPE   C2416514   5.241   0.686   5.657  0.3481 -0.7883 -0.8805
  150SAPE   H4R16515   5.327   0.673   5.726 -0.2189 -1.6208 -0.3123
  150SAPE   H4S16516   5.252   0.771   5.586  0.5522 -1.8619 -2.1873
  150SAPE   C2516517   5.235   0.556   5.575  0.3421 -0.5093 -0.0740
  150SAPE   H5R16518   5.228   0.463   5.634  2.0522 -0.9097 -0.4453
  150SAPE   C2616519   5.236   0.551   5.441 -0.4016 -0.8118  0.2346
  150SAPE   H6R16520   5.209   0.457   5.391  1.0994 -1.3306  0.3666
  150SAPE   C2716521   5.240   0.668   5.347  0.5575  0.0605  0.6130
  150SAPE   H7R16522   5.306   0.642   5.262  0.3757 -1.7017  0.9725
  150SAPE   H7S16523   5.295   0.752   5.394  1.6251 -0.7527  0.8648
  150SAPE   C2816524   5.097   0.705   5.303 -0.8107 -0.3288  0.4243
  150SAPE   H8R16525   5.038   0.756   5.381  1.1825  1.6954  0.7025
  150SAPE   C2916526   5.044   0.697   5.179  0.1505  0.6249  1.4497
  150SAPE   H9R16527   4.938   0.728   5.180  0.4279  1.6308  1.0746
  150SAPE  C21016528   5.108   0.637   5.052  0.0772  0.1845 -0.5288
  150SAPE  H10R16529   5.030   0.600   4.983 -0.0132  0.6787 -0.6938
  150SAPE  H10S16530   5.168   0.549   5.084  0.3855  1.2456  2.1617
  150SAPE  C21116531   5.195   0.735   4.976 -0.0941  0.5049 -0.0644
  150SAPE  H11R16532   5.198   0.839   5.011 -1.0992  0.1105  1.3041
  150SAPE  C21216533   5.268   0.701   4.871 -0.1458  0.0430 -0.4048
  150SAPE  H12R16534   5.337   0.780   4.837 -2.1643  1.6037 -1.1083
  150SAPE  C21316535   5.266   0.567   4.799 -0.0126 -0.3746 -0.4554
  150SAPE  H13R16536   5.178   0.501   4.815 -0.2984  0.4236  1.4955
  150SAPE  H13S16537   5.360   0.514   4.827 -0.4802 -0.6437  0.6415
  150SAPE  C21416538   5.278   0.573   4.651  0.1550  0.5065 -0.3115
  150SAPE  H14R16539   5.374   0.605   4.608  0.1939  1.0339  0.1571
  150SAPE  C21516540   5.176   0.561   4.561 -0.1906  0.1470 -0.1987
  150SAPE  H15R16541   5.187   0.570   4.452 -0.3750  3.0066 -0.0663
  150SAPE  C21616542   5.034   0.540   4.588 -0.2545 -0.1167 -0.8320
  150SAPE  H16R16543   5.021   0.549   4.698  2.8574  0.5445 -0.4469
  150SAPE  H16S16544   5.000   0.438   4.560 -0.3781 -0.7763  1.4829
  150SAPE  C21716545   4.957   0.651   4.513  0.3514 -0.1031  0.0718
  150SAPE  H17R16546   4.854   0.610   4.513  0.1618  0.3669 -0.0146
  150SAPE  H17S16547   4.978   0.669   4.405  2.9113 -0.9247  0.3659
  150SAPE  C21816548   4.930   0.777   4.601  0.2207  0.1381 -0.6308
  150SAPE  H18R16549   5.028   0.820   4.631 -0.6599  1.3911  0.5869
  150SAPE  H18S16550   4.874   0.756   4.695 -1.9463  0.1299 -1.8696
  150SAPE  C21916551   4.853   0.876   4.527 -0.1797 -0.3353  0.1593
  150SAPE  H19R16552   4.907   0.882   4.430  2.2598 -0.5090  1.4313
  150SAPE  H19S16553   4.869   0.970   4.584  1.3782 -0.2375 -0.3763
  150SAPE  C22016554   4.707   0.844   4.520  0.3830 -0.0870  0.1214
  150SAPE  H20R16555   4.662   0.937   4.479  0.8833  1.0170  1.9291
  150SAPE  H20S16556   4.660   0.827   4.620 -2.3946  1.8187 -0.7310
  150SAPE  H20T16557   4.683   0.759   4.453 -1.0998 -0.6928  1.3424
  150SAPE   C3316558   5.545   0.174   5.746  0.3375 -0.6235  0.0813
  150SAPE   H3X16559   5.565   0.067   5.721  2.8536 -0.1463 -0.2428
  150SAPE   H3Y16560   5.650   0.212   5.748 -1.0425  3.6331  1.4188
  150SAPE   C3416561   5.487   0.239   5.627 -0.3092 -0.5340 -0.1995
  150SAPE   H4X16562   5.493   0.348   5.649  1.3966 -0.4973 -0.6676
  150SAPE   H4Y16563   5.380   0.212   5.618 -0.5730  0.8658 -1.6763
  150SAPE   C3516564   5.546   0.197   5.487  0.3052  1.0842  0.2280
  150SAPE   H5X16565   5.577   0.090   5.488 -1.1878  0.5619  3.3133
  150SAPE   H5Y16566   5.636   0.261   5.469  1.4404 -0.3222  0.6851
  150SAPE   C3616567   5.431   0.216   5.379 -0.2418  0.4563  0.1791
  150SAPE   H6X16568   5.399   0.322   5.388 -1.4615 -0.0292  2.2411
  150SAPE   H6Y16569   5.354   0.139   5.400 -0.8445  1.2964  1.1625
  150SAPE   C3716570   5.484   0.201   5.237  0.0420 -0.0601 -0.2253
  150SAPE   H7X16571   5.531   0.101   5.222  2.1477  1.1393 -2.4214
  150SAPE   H7Y16572   5.557   0.283   5.221 -3.1808  3.2038  0.4712
  150SAPE   C3816573   5.373   0.243   5.139 -1.2988  0.2790  0.1795
  150SAPE   H8X16574   5.345   0.351   5.133 -0.2303  0.6897  1.8140
  150SAPE   H8Y16575   5.276   0.200   5.172 -1.1241 -0.1440  0.1411
  150SAPE   C3916576   5.404   0.193   5.002  0.2100 -0.6051  0.8258
  150SAPE   H9X16577   5.437   0.088   5.016 -0.2221 -0.7781  0.5739
  150SAPE   H9Y16578   5.486   0.254   4.958 -0.4980 -0.5965 -0.5575
  150SAPE  C31016579   5.286   0.198   4.902 -0.1564  0.0277 -0.1215
  150SAPE  H10X16580   5.249   0.302   4.887 -0.0781  0.2544  1.1733
  150SAPE  H10Y16581   5.208   0.132   4.944  0.6322 -0.9599 -0.1631
  150SAPE  C31116582   5.343   0.144   4.768  0.5172 -0.5589  0.4204
  150SAPE  H11X16583   5.380   0.044   4.797  2.0865 -0.5179 -1.2309
  150SAPE  H11Y16584   5.427   0.201   4.724 -0.2070  0.5646  0.4544
  150SAPE  C31216585   5.245   0.133   4.655 -0.6399  0.3130 -0.1747
  150SAPE  H12X16586   5.210   0.235   4.627 -3.6557 -0.9585 -1.5158
  150SAPE  H12Y16587   5.158   0.085   4.704 -2.0920  2.0599 -0.9181
  150SAPE  C31316588   5.303   0.067   4.529 -0.2789 -0.3221 -0.4612
  150SAPE  H13X16589   5.363  -0.024   4.552  1.0589  1.2641  2.9156
  150SAPE  H13Y16590   5.382   0.132   4.487 -1.7743  0.2458 -2.6092
  150SAPE  C31416591   5.194   0.045   4.425 -0.4987  0.2558  0.8918
  150SAPE  H14X16592   5.224   0.042   4.318  0.9381  3.1998  1.1131
  150SAPE  H14Y16593   5.124   0.131   4.424  0.3272  1.0025  2.6168
  150SAPE  C31516594   5.116  -0.090   4.454  1.3051 -0.0220 -0.4371
  150SAPE  H15X16595   5.010  -0.073   4.482  1.1148  0.6482 -1.4966
  150SAPE  H15Y16596   5.163  -0.148   4.535  1.5060  1.1811  0.3360
  150SAPE  C31616597   5.123  -0.179   4.336  0.1724 -0.9887 -0.3315
  150SAPE  H16X16598   5.232  -0.195   4.320  0.1753 -0.8540 -0.4530
  150SAPE  H16Y16599   5.081  -0.125   4.248  1.0325 -1.8832 -1.3167
  150SAPE  C31716600   5.058  -0.318   4.340  0.1516  0.2025 -0.1625
  150SAPE  H17X16601   5.092  -0.387   4.420 -0.2550  0.4383  0.2195
  150SAPE  H17Y16602   5.095  -0.367   4.247 -1.7533 -1.3596 -0.1440
  150SAPE  C31816603   4.899  -0.315   4.344 -0.0785  0.5302  0.1140
  150SAPE  H18X16604   4.880  -0.232   4.416  1.6945  1.4735 -0.4480
  150SAPE  H18Y16605   4.872  -0.416   4.382  0.5157 -0.3734 -1.7243
  150SAPE  H18Z16606   4.854  -0.286   4.246  0.0185  0.0699 -0.0681
  151SAPE     N16607   5.036   3.152   7.262 -0.1707  0.1214  0.0302
  151SAPE   HN116608   5.051   3.210   7.347  1.3082  0.7262 -0.6051
  151SAPE   HN216609   5.016   3.056   7.296  1.8349 -0.9571 -1.6010
  151SAPE   HN316610   5.125   3.151   7.208 -1.4835  0.3154 -2.2806
  151SAPE   C1216611   4.927   3.213   7.180 -0.2271  0.2584  0.3647
  151SAPE  H12A16612   4.932   3.322   7.199 -0.2908  0.3376 -0.0613
  151SAPE  H12B16613   4.839   3.163   7.227 -1.4669 -0.8096 -2.8128
  151SAPE   C1116614   4.940   3.166   7.027 -0.0728  0.0955  0.3320
  151SAPE  H11A16615   5.008   3.235   6.973  1.3759 -1.2141  0.4202
  151SAPE  H11B16616   4.839   3.189   6.986 -0.1813 -0.2397  0.4119
  151SAPE     P16617   5.081   2.979   6.913  0.7729  0.4351 -0.1731
  151SAPE   O1316618   5.210   3.001   6.982 -0.1539 -0.2425  0.3709
  151SAPE   O1416619   5.041   2.851   6.857  0.5890  0.4969 -0.1310
  151SAPE   O1216620   4.958   3.030   7.004 -0.0066  0.6018  0.0286
  151SAPE   O1116621   5.073   3.083   6.796 -0.2687 -0.2721 -0.7288
  151SAPE    C116622   4.959   3.086   6.714  0.0132 -0.0166 -0.1976
  151SAPE    HA16623   4.907   2.988   6.706 -0.9100  0.4747 -0.3845
  151SAPE    HB16624   4.887   3.151   6.768  0.8702 -1.0224  2.2589
  151SAPE    C216625   4.975   3.138   6.569 -0.2626 -0.2134  0.6579
  151SAPE    HS16626   4.881   3.137   6.510 -0.0804  2.3951  0.2046
  151SAPE   O2116627   5.069   3.055   6.496 -0.9355 -0.2030 -0.4223
  151SAPE   C2116628   5.013   2.967   6.411 -0.3771 -0.7009  0.2496
  151SAPE   O2216629   4.894   2.944   6.395 -0.1845 -0.4689  0.0565
  151SAPE   C2216630   5.125   2.880   6.347 -0.1976  0.2054  0.4039
  151SAPE   H2R16631   5.211   2.945   6.318  0.3124 -0.3530  0.6205
  151SAPE   H2S16632   5.175   2.806   6.414  0.1193 -2.0332 -2.1350
  151SAPE    C316633   5.027   3.287   6.574 -0.1816  0.1444 -0.2624
  151SAPE    HX16634   5.121   3.290   6.634 -1.4756  0.7968  1.8740
  151SAPE    HY16635   4.972   3.353   6.645  2.4829  2.1124  0.1495
  151SAPE   O3116636   5.052   3.350   6.450 -0.2344  0.2317  0.1394
  151SAPE   C3116637   4.952   3.418   6.401 -1.3387  0.0117  0.1042
  151SAPE   O3216638   4.851   3.450   6.456 -0.6243  0.1810  0.1267
  151SAPE   C3216639   4.990   3.442   6.258  0.6259  0.5628 -0.3654
  151SAPE   H2X16640   5.101   3.443   6.253  0.6412  1.0813 -0.0329
  151SAPE   H2Y16641   4.954   3.545   6.238  0.4238  0.5469 -0.0838
  151SAPE   C2316642   5.090   2.813   6.211  0.3526 -0.0511 -0.0268
  151SAPE   H3R16643   5.068   2.887   6.131 -2.8186  0.7697  1.4267
  151SAPE   H3S16644   5.003   2.743   6.218  0.5333 -0.2123  0.6512
  151SAPE   C2416645   5.211   2.741   6.155  0.1870 -0.1438  0.1230
  151SAPE   H4R16646   5.276   2.709   6.238  1.1140 -2.2553 -1.3194
  151SAPE   H4S16647   5.277   2.811   6.100  1.8966 -2.4202 -0.9162
  151SAPE   C2516648   5.164   2.623   6.080 -0.7022 -0.2748 -0.2481
  151SAPE   H5R16649   5.116   2.552   6.149  0.5505 -1.6709 -0.7717
  151SAPE   C2616650   5.173   2.601   5.950 -0.1881 -0.1886  0.2242
  151SAPE   H6R16651   5.123   2.509   5.916  0.2054 -0.7252  1.0698
  151SAPE   C2716652   5.247   2.692   5.852  0.3707 -0.4616  0.3417
  151SAPE   H7R16653   5.316   2.759   5.908 -1.2030  1.3727  0.1737
  151SAPE   H7S16654   5.176   2.765   5.809 -0.0373 -1.0062  0.0705
  151SAPE   C2816655   5.308   2.605   5.748 -0.1346  0.2366  0.1663
  151SAPE   H8R16656   5.363   2.520   5.790 -1.0554  0.7947  2.6338
  151SAPE   C2916657   5.300   2.614   5.614 -0.0216  1.1059 -0.3147
  151SAPE   H9R16658   5.328   2.521   5.563 -1.2367 -0.6422  2.0187
  151SAPE  C21016659   5.219   2.710   5.533 -0.4879  0.2144 -0.1582
  151SAPE  H10R16660   5.179   2.800   5.585 -1.2353  1.2604 -2.4506
  151SAPE  H10S16661   5.131   2.661   5.487 -1.0202  2.3982 -1.6436
  151SAPE  C21116662   5.316   2.772   5.429 -0.3768  0.4601  0.2079
  151SAPE  H11R16663   5.418   2.794   5.463 -0.8650  1.2304  1.2339
  151SAPE  C21216664   5.292   2.787   5.294  0.4537  0.3777  0.3642
  151SAPE  H12R16665   5.364   2.836   5.227 -1.4539 -0.1453 -2.2007
  151SAPE  C21316666   5.154   2.751   5.243  0.1071  0.2111 -0.3405
  151SAPE  H13R16667   5.075   2.787   5.313 -2.8053 -3.3264 -1.4730
  151SAPE  H13S16668   5.139   2.641   5.239 -0.6584  0.3262 -1.1120
  151SAPE  C21416669   5.142   2.829   5.110 -0.8079 -0.6391  0.1208
  151SAPE  H14R16670   5.201   2.921   5.107 -0.3084 -0.9474  0.2847
  151SAPE  C21516671   5.060   2.794   5.009 -0.2111  0.2605  0.0208
  151SAPE  H15R16672   5.055   2.854   4.916 -0.2369  0.8841  0.4206
  151SAPE  C21616673   4.971   2.676   5.006 -0.1010  0.3447  0.2692
  151SAPE  H16R16674   4.864   2.707   4.998 -0.1571  0.9712  2.7902
  151SAPE  H16S16675   4.973   2.628   5.106 -1.4965  0.4030  0.3422
  151SAPE  C21716676   5.006   2.575   4.893 -0.0149  0.1291 -0.4678
  151SAPE  H17R16677   5.002   2.618   4.790 -0.7466  0.9270 -0.1219
  151SAPE  H17S16678   4.922   2.501   4.894 -1.9945  2.2569 -0.3616
  151SAPE  C21816679   5.138   2.502   4.903  0.4042  0.3796  0.1503
  151SAPE  H18R16680   5.142   2.473   5.010  0.3667 -1.8099 -0.3899
  151SAPE  H18S16681   5.222   2.573   4.884 -0.4268  1.4545  0.3925
  151SAPE  C21916682   5.162   2.376   4.816 -0.2327 -0.4225  0.1225
  151SAPE  H19R16683   5.081   2.302   4.836  0.5619 -1.0485  1.1184
  151SAPE  H19S16684   5.257   2.325   4.841  0.7397 -0.3991 -3.0134
  151SAPE  C22016685   5.159   2.403   4.666 -0.2874  0.0216  0.0117
  151SAPE  H20R16686   5.067   2.458   4.637 -0.0092  0.5939  0.2098
  151SAPE  H20S16687   5.159   2.300   4.624  1.6481 -0.1284  0.2958
  151SAPE  H20T16688   5.249   2.455   4.627  0.1232  0.6451  1.6761
  151SAPE   C3316689   4.952   3.334   6.155  0.6485  0.1403  0.0757
  151SAPE   H3X16690   4.966   3.233   6.199  0.3700 -0.4071 -1.0768
  151SAPE   H3Y16691   5.010   3.339   6.061  1.9943 -2.3613  0.6819
  151SAPE   C3416692   4.800   3.337   6.127  0.2956 -0.6751 -0.8987
  151SAPE   H4X16693   4.765   3.441   6.142  1.0065 -0.0501 -3.2484
  151SAPE   H4Y16694   4.749   3.279   6.208 -2.5696  2.1112 -0.4888
  151SAPE   C3516695   4.760   3.299   5.992 -0.7041  1.1508 -0.4066
  151SAPE   H5X16696   4.799   3.367   5.913 -0.0546  0.3465 -0.7977
  151SAPE   H5Y16697   4.649   3.308   5.996 -0.8044 -0.2401  0.6573
  151SAPE   C3616698   4.791   3.146   5.978  0.0799  0.2650  0.4392
  151SAPE   H6X16699   4.715   3.086   6.033  1.1409  0.8697  2.6986
  151SAPE   H6Y16700   4.889   3.127   6.027 -0.7645 -0.2862  2.0329
  151SAPE   C3716701   4.777   3.106   5.833  0.2446 -0.3603  0.2562
  151SAPE   H7X16702   4.819   3.185   5.767 -1.2282 -0.0761 -0.3730
  151SAPE   H7Y16703   4.668   3.101   5.815  0.3990  1.9151 -1.9034
  151SAPE   C3816704   4.842   2.972   5.794 -0.2057 -0.3049 -0.0003
  151SAPE   H8X16705   4.825   2.895   5.873 -0.3672  1.0752  1.3448
  151SAPE   H8Y16706   4.952   2.985   5.806 -0.3461  0.5031  0.5301
  151SAPE   C3916707   4.810   2.920   5.659  0.0512 -0.3440  0.4218
  151SAPE   H9X16708   4.700   2.926   5.642 -0.0242  0.1770  1.0272
  151SAPE   H9Y16709   4.839   2.814   5.646 -0.1302 -0.2794 -0.5593
  151SAPE  C31016710   4.888   2.990   5.543 -0.0700 -0.4787 -0.1788
  151SAPE  H10X16711   4.992   2.952   5.555 -0.1153 -0.3358  0.7592
  151SAPE  H10Y16712   4.886   3.100   5.558  0.9075 -0.2730 -1.4087
  151SAPE  C31116713   4.835   2.965   5.400 -0.5987 -0.2151 -0.0495
  151SAPE  H11X16714   4.925   2.964   5.334  0.0268 -0.9742  0.7906
  151SAPE  H11Y16715   4.765   3.047   5.372  0.4565  0.9325  0.5618
  151SAPE  C31216716   4.754   2.834   5.389 -0.7849 -0.4188 -0.4172
  151SAPE  H12X16717   4.670   2.813   5.458  0.4870  0.0155  1.3518
  151SAPE  H12Y16718   4.829   2.754   5.407  2.2348  2.2259 -0.2601
  151SAPE  C31316719   4.694   2.815   5.248 -0.8508  0.0018 -0.2801
  151SAPE  H13X16720   4.781   2.827   5.179  0.1415 -0.7546  0.7946
  151SAPE  H13Y16721   4.618   2.895   5.235  0.8670  1.8298  0.3720
  151SAPE  C31416722   4.612   2.687   5.234 -0.1045 -0.4971  0.0452
  151SAPE  H14X16723   4.550   2.680   5.143 -1.8115  3.4340  0.7061
  151SAPE  H14Y16724   4.538   2.683   5.317 -1.4253 -0.0070 -1.0772
  151SAPE  C31516725   4.696   2.563   5.253 -0.0566 -0.1290  0.8142
  151SAPE  H15X16726   4.755   2.569   5.347 -0.4288  1.1945  0.9856
  151SAPE  H15Y16727   4.764   2.550   5.166 -0.4016  0.4046  0.4598
  151SAPE  C31616728   4.615   2.428   5.251  0.3792 -0.6156 -0.6238
  151SAPE  H16X16729   4.534   2.429   5.327 -0.4045  3.4713 -1.2973
  151SAPE  H16Y16730   4.686   2.347   5.278  1.6346  1.0895  1.4366
  151SAPE  C31716731   4.536   2.401   5.123  0.0106  0.0623 -0.2247
  151SAPE  H17X16732   4.472   2.492   5.115 -0.3008  0.1248  2.2604
  151SAPE  H17Y16733   4.467   2.314   5.114  2.4483 -1.7923 -2.6193
  151SAPE  C31816734   4.620   2.371   4.995 -0.1188  0.3543 -0.0945
  151SAPE  H18X16735   4.673   2.277   5.019  1.2294  0.9702 -0.5683
  151SAPE  H18Y16736   4.696   2.452   4.991 -1.0472  1.3374  1.1359
  151SAPE  H18Z16737   4.565   2.375   4.899 -0.2311  0.1436 -0.0383
  152SAPE     N16738   0.086   4.905   6.784  0.3995  0.4336 -0.4582
  152SAPE   HN116739   0.086   4.801   6.780 -1.7729  0.4047 -1.2121
  152SAPE   HN216740   0.025   4.943   6.860 -0.4325 -0.4784 -0.6505
  152SAPE   HN316741   0.037   4.923   6.695 -0.1515 -3.0094 -0.9677
  152SAPE   C1216742   0.226   4.963   6.788 -0.3829 -0.0192 -0.0350
  152SAPE  H12A16743   0.290   4.911   6.714  1.4413  0.4684  1.1353
  152SAPE  H12B16744   0.268   4.951   6.890  1.2748  2.9265 -0.2743
  152SAPE   C1116745   0.223   5.111   6.744 -0.1939  0.3716 -0.4458
  152SAPE  H11A16746   0.329   5.144   6.745  0.4858 -1.4980  2.4678
  152SAPE  H11B16747   0.170   5.176   6.816 -1.2557 -1.1743  0.2360
  152SAPE     P16748   0.048   5.230   6.589  0.1441 -0.8993 -0.0179
  152SAPE   O1316749  -0.074   5.160   6.626 -0.1082 -0.1070  0.5374
  152SAPE   O1416750   0.077   5.359   6.661  0.3385  0.5669 -0.4505
  152SAPE   O1216751   0.168   5.127   6.616 -0.3951 -0.4239  0.1514
  152SAPE   O1116752   0.060   5.249   6.432 -0.1342  0.7049  0.3976
  152SAPE    C116753   0.188   5.217   6.377 -0.4018 -0.5490  0.0074
  152SAPE    HA16754   0.270   5.253   6.442 -0.5847 -0.9636  0.4724
  152SAPE    HB16755   0.194   5.106   6.373 -1.5097 -0.6194 -0.1222
  152SAPE    C216756   0.202   5.300   6.245  0.3387 -0.0291 -0.4783
  152SAPE    HS16757   0.101   5.293   6.200 -0.1615 -3.6861  0.8654
  152SAPE   O2116758   0.302   5.239   6.150 -0.1042 -0.0982  0.2232
  152SAPE   C2116759   0.258   5.124   6.100 -1.1296  0.4084 -0.2502
  152SAPE   O2216760   0.143   5.088   6.117  0.1414  0.4489  0.2869
  152SAPE   C2216761   0.368   5.039   6.036  0.4243 -0.5208 -0.0895
  152SAPE   H2R16762   0.437   5.105   5.978 -0.6659  0.6547 -0.0906
  152SAPE   H2S16763   0.422   5.000   6.125 -1.7503 -3.7490 -0.0260
  152SAPE    C316764   0.219   5.457   6.254 -0.0832  0.2739 -0.4150
  152SAPE    HX16765   0.327   5.477   6.270  0.2090 -0.3775 -1.4992
  152SAPE    HY16766   0.151   5.502   6.330  0.2518  0.7596 -0.3955
  152SAPE   O3116767   0.184   5.500   6.119  0.3442 -0.1953 -0.0345
  152SAPE   C3116768   0.217   5.628   6.109  0.1231  0.3681 -0.4830
  152SAPE   O3216769   0.243   5.701   6.206  0.2291  0.5147  0.4818
  152SAPE   C3216770   0.226   5.675   5.965  0.3301 -0.6818 -0.1503
  152SAPE   H2X16771   0.187   5.596   5.897 -0.0593  1.0778 -2.0568
  152SAPE   H2Y16772   0.335   5.676   5.942  0.3997  5.8914 -1.3209
  152SAPE   C2316773   0.329   4.920   5.946 -0.2176  1.2978  0.1762
  152SAPE   H3R16774   0.246   4.878   6.006 -0.1640  2.7347  1.3167
  152SAPE   H3S16775   0.417   4.853   5.930 -0.1035  1.5613 -0.3308
  152SAPE   C2416776   0.279   4.970   5.811  0.9047  0.2840 -0.3625
  152SAPE   H4R16777   0.198   5.045   5.826  0.2865 -0.5458  0.6117
  152SAPE   H4S16778   0.227   4.881   5.769 -0.3228  0.7285  0.1533
  152SAPE   C2516779   0.375   5.018   5.706  0.1700 -0.1068 -0.1058
  152SAPE   H5R16780   0.471   4.966   5.696 -0.6689 -1.5553 -1.1309
  152SAPE   C2616781   0.365   5.127   5.626 -0.1240  0.5635 -0.1020
  152SAPE   H6R16782   0.447   5.150   5.557  1.0171  0.4127  1.1744
  152SAPE   C2716783   0.242   5.224   5.628 -0.1706  0.1732  0.1962
  152SAPE   H7R16784   0.242   5.272   5.728 -0.6492  3.1507 -1.0926
  152SAPE   H7S16785   0.145   5.172   5.624  0.3936 -1.0035  1.2012
  152SAPE   C2816786   0.262   5.345   5.537  0.7906  0.2472  0.7253
  152SAPE   H8R16787   0.358   5.387   5.570  2.1626 -1.7639 -0.4497
  152SAPE   C2916788   0.189   5.400   5.439 -0.6919 -0.4935 -0.1403
  152SAPE   H9R16789   0.223   5.488   5.381 -1.9554 -0.6718 -1.2073
  152SAPE  C21016790   0.068   5.344   5.373 -0.4588  0.0266  0.0321
  152SAPE  H10R16791   0.043   5.251   5.429  1.4512  1.2854  3.2428
  152SAPE  H10S16792   0.083   5.310   5.269  1.1065  0.3364  0.1403
  152SAPE  C21116793  -0.042   5.450   5.394  0.0318 -0.6164  0.6061
  152SAPE  H11R16794  -0.070   5.471   5.498 -0.5890  1.0378  0.1427
  152SAPE  C21216795  -0.102   5.523   5.291  0.4241  0.2627 -0.4427
  152SAPE  H12R16796  -0.181   5.596   5.314 -0.1423 -0.4722 -0.0091
  152SAPE  C21316797  -0.073   5.503   5.144  0.2714  0.0127  0.1182
  152SAPE  H13R16798  -0.168   5.509   5.088  0.5528  0.3800 -0.3217
  152SAPE  H13S16799  -0.036   5.399   5.136  0.1718 -0.0625  0.5952
  152SAPE  C21416800   0.017   5.602   5.075 -0.6845 -0.6157  0.0616
  152SAPE  H14R16801   0.059   5.681   5.138 -0.5588 -0.8224  0.2387
  152SAPE  C21516802   0.054   5.602   4.944 -0.1827 -0.2305 -0.9050
  152SAPE  H15R16803   0.118   5.682   4.906 -1.0555  0.5578 -0.7673
  152SAPE  C21616804   0.007   5.495   4.847  0.4419  0.2277  0.1427
  152SAPE  H16R16805  -0.019   5.397   4.893  0.0334  0.4885  0.4815
  152SAPE  H16S16806   0.091   5.472   4.779  0.4586  2.3495 -0.6188
  152SAPE  C21716807  -0.120   5.526   4.773  0.4997 -0.4097 -0.5815
  152SAPE  H17R16808  -0.112   5.628   4.730  1.6366 -1.3770 -2.8348
  152SAPE  H17S16809  -0.204   5.530   4.846  1.1029 -1.4735  0.2012
  152SAPE  C21816810  -0.147   5.429   4.659  0.2931 -0.0875  0.4381
  152SAPE  H18R16811  -0.172   5.329   4.701  2.0494 -1.5455 -1.7311
  152SAPE  H18S16812  -0.057   5.408   4.598 -0.7632  0.0136 -1.2082
  152SAPE  C21916813  -0.252   5.492   4.560 -0.1771 -0.0073 -0.2182
  152SAPE  H19R16814  -0.269   5.427   4.471 -2.5609 -1.8813  1.4960
  152SAPE  H19S16815  -0.201   5.583   4.521 -0.5209  0.5238  0.5550
  152SAPE  C22016816  -0.387   5.545   4.611 -0.0971  0.1431  0.0595
  152SAPE  H20R16817  -0.461   5.567   4.531  0.1120  0.3050 -0.0911
  152SAPE  H20S16818  -0.368   5.627   4.683 -1.2083 -0.2576  0.8391
  152SAPE  H20T16819  -0.432   5.469   4.678 -2.0736  0.3737 -0.9188
  152SAPE   C3316820   0.158   5.808   5.935 -0.0070 -0.0236  0.2483
  152SAPE   H3X16821   0.216   5.889   5.984  2.9018 -1.5515 -0.4398
  152SAPE   H3Y16822   0.055   5.804   5.977  0.1947  0.3283  0.7823
  152SAPE   C3416823   0.149   5.841   5.786 -0.0998 -1.0978 -0.1958
  152SAPE   H4X16824   0.098   5.939   5.772  1.6749 -0.0101  0.6365
  152SAPE   H4Y16825   0.081   5.767   5.738  0.7807 -1.8568 -0.2825
  152SAPE   C3516826   0.280   5.836   5.716 -0.1234 -0.8098 -0.1818
  152SAPE   H5X16827   0.349   5.753   5.742 -0.2449 -0.6712  0.5983
  152SAPE   H5Y16828   0.329   5.936   5.707  0.8888 -1.2609  0.2011
  152SAPE   C3616829   0.245   5.816   5.562 -0.2791 -0.6023 -0.4016
  152SAPE   H6X16830   0.210   5.916   5.528 -0.3668 -0.5405 -0.1288
  152SAPE   H6Y16831   0.153   5.753   5.566 -1.8146  1.5828  2.4720
  152SAPE   C3716832   0.363   5.770   5.476 -0.3355 -0.6427 -0.2828
  152SAPE   H7X16833   0.399   5.674   5.518 -1.0721 -1.0343 -0.5411
  152SAPE   H7Y16834   0.444   5.845   5.492 -1.0123 -0.2162  1.3755
  152SAPE   C3816835   0.345   5.770   5.326 -1.0005 -0.5674  0.2578
  152SAPE   H8X16836   0.314   5.868   5.283 -0.2362  0.9323  2.8748
  152SAPE   H8Y16837   0.270   5.693   5.298  0.2742 -1.6164 -0.3476
  152SAPE   C3916838   0.491   5.735   5.277  0.5752  0.2409  0.2647
  152SAPE   H9X16839   0.532   5.643   5.324 -0.5865 -0.3110  0.2438
  152SAPE   H9Y16840   0.557   5.819   5.307  0.9206 -0.1865  0.7103
  152SAPE  C31016841   0.516   5.734   5.126  0.2549 -0.1611 -0.3436
  152SAPE  H10X16842   0.619   5.703   5.096 -0.1458 -0.7712 -1.1438
  152SAPE  H10Y16843   0.495   5.829   5.071 -0.2194 -0.5825 -0.8999
  152SAPE  C31116844   0.436   5.620   5.053 -0.1383 -0.1338 -0.4094
  152SAPE  H11X16845   0.331   5.620   5.090  0.3500 -0.4463  1.0127
  152SAPE  H11Y16846   0.486   5.523   5.075  0.9219  0.5580  0.2973
  152SAPE  C31216847   0.418   5.642   4.903  0.1054 -0.2526  0.7352
  152SAPE  H12X16848   0.374   5.743   4.892  1.9202  0.4805 -0.3323
  152SAPE  H12Y16849   0.343   5.570   4.864  1.3473 -0.6706 -1.0171
  152SAPE  C31316850   0.547   5.635   4.822  0.2625 -0.2045  0.6847
  152SAPE  H13X16851   0.614   5.550   4.847  1.3509  1.1303  2.6000
  152SAPE  H13Y16852   0.607   5.724   4.848 -0.4258  0.2881  0.6254
  152SAPE  C31416853   0.515   5.615   4.664  0.1593  0.0599 -0.2494
  152SAPE  H14X16854   0.450   5.526   4.652  1.9833 -1.5273  1.1396
  152SAPE  H14Y16855   0.612   5.607   4.612 -0.6123 -1.0504 -1.5811
  152SAPE  C31516856   0.440   5.735   4.606 -0.2939 -0.0948  0.3934
  152SAPE  H15X16857   0.481   5.824   4.659 -1.6295  2.3798 -2.4534
  152SAPE  H15Y16858   0.333   5.730   4.636 -0.4803  0.7609 -0.1014
  152SAPE  C31616859   0.452   5.759   4.452 -0.0530  0.0592  0.4092
  152SAPE  H16X16860   0.554   5.799   4.430 -0.7893  0.7834 -2.1141
  152SAPE  H16Y16861   0.380   5.834   4.412  4.2528  3.0593 -2.6384
  152SAPE  C31716862   0.447   5.622   4.369 -0.3570  0.3973  0.0408
  152SAPE  H17X16863   0.350   5.569   4.385  0.0606 -0.6947 -0.8938
  152SAPE  H17Y16864   0.535   5.564   4.402  1.4989  3.3452  0.6644
  152SAPE  C31816865   0.474   5.639   4.216  0.8469  0.6214  0.4354
  152SAPE  H18X16866   0.471   5.540   4.165 -2.1740  0.7589  0.1731
  152SAPE  H18Y16867   0.571   5.684   4.187  0.6420  0.2798 -0.8764
  152SAPE  H18Z16868   0.392   5.697   4.167  0.8115 -1.5606 -2.3706
  153SAPE     N16869   6.369   5.839   6.879  0.4537 -0.6068 -0.0640
  153SAPE   HN116870   6.348   5.837   6.981  2.2234 -0.3062  0.3352
  153SAPE   HN216871   6.313   5.909   6.827  2.7893  0.1854 -1.6404
  153SAPE   HN316872   6.343   5.743   6.847  3.7995 -1.3974 -0.7553
  153SAPE   C1216873   6.518   5.870   6.870  0.2108 -0.2958  0.2870
  153SAPE  H12A16874   6.587   5.811   6.934 -0.7414 -2.3486 -0.4979
  153SAPE  H12B16875   6.523   5.979   6.890  1.1895 -0.5133  1.3134
  153SAPE   C1116876   6.564   5.856   6.728  1.4749 -0.3692  0.3008
  153SAPE  H11A16877   6.668   5.893   6.726  0.5543  2.3911 -1.1974
  153SAPE  H11B16878   6.507   5.921   6.658 -1.3968 -0.3930  2.4130
  153SAPE     P16879   6.658   5.621   6.659  0.2603  0.0745 -0.1848
  153SAPE   O1316880   6.717   5.597   6.793 -0.1912 -0.4029  0.3339
  153SAPE   O1416881   6.622   5.498   6.586 -0.1925 -0.5730  0.6327
  153SAPE   O1216882   6.543   5.717   6.682 -0.8913 -0.4313  0.1085
  153SAPE   O1116883   6.758   5.705   6.558  0.2794 -0.4852 -0.5914
  153SAPE    C116884   6.731   5.701   6.416 -0.1791  0.5040  0.4666
  153SAPE    HA16885   6.759   5.598   6.385  0.4474  0.7175  0.3150
  153SAPE    HB16886   6.621   5.701   6.403 -0.0282  0.2561 -0.9607
  153SAPE    C216887   6.783   5.812   6.322  1.1792  0.3642 -0.3759
  153SAPE    HS16888   6.893   5.797   6.322  1.0493 -0.6424 -0.5692
  153SAPE   O2116889   6.739   5.939   6.378 -0.1229 -0.1168 -0.1781
  153SAPE   C2116890   6.789   6.046   6.320 -1.4095 -0.6024 -0.3393
  153SAPE   O2216891   6.867   6.038   6.228  0.6005  0.0888 -0.0164
  153SAPE   C2216892   6.720   6.170   6.369  0.3259 -0.2405  0.2277
  153SAPE   H2R16893   6.777   6.205   6.457 -1.1019  2.3203  0.2230
  153SAPE   H2S16894   6.728   6.245   6.287  2.0685 -2.3989 -1.7273
  153SAPE    C316895   6.724   5.785   6.183 -0.3098 -0.2116  0.0340
  153SAPE    HX16896   6.761   5.864   6.114 -4.2132  4.3112  2.4991
  153SAPE    HY16897   6.613   5.792   6.178 -0.3785 -1.6856 -3.7899
  153SAPE   O3116898   6.761   5.651   6.144 -0.0601  0.2934 -0.1914
  153SAPE   C3116899   6.717   5.610   6.025  0.1284 -0.1423 -0.1226
  153SAPE   O3216900   6.666   5.687   5.943 -0.6212  0.7992 -0.2725
  153SAPE   C3216901   6.745   5.461   5.993  0.3454 -0.6582 -0.2684
  153SAPE   H2X16902   6.660   5.398   6.027  1.4157 -2.0081 -0.0072
  153SAPE   H2Y16903   6.830   5.432   6.058  0.7423 -0.4732 -0.6984
  153SAPE   C2316904   6.566   6.156   6.406 -0.0451  0.2975 -0.0690
  153SAPE   H3R16905   6.535   6.250   6.456 -0.4047  1.5800 -2.5208
  153SAPE   H3S16906   6.553   6.076   6.482 -0.1259 -0.8391 -1.2284
  153SAPE   C2416907   6.464   6.126   6.291  0.3083  0.0991 -0.2537
  153SAPE   H4R16908   6.359   6.108   6.325 -0.6018  0.2313 -2.7605
  153SAPE   H4S16909   6.493   6.028   6.247  2.5542 -0.7597  2.8124
  153SAPE   C2516910   6.449   6.248   6.203  0.3076  0.3743  0.3013
  153SAPE   H5R16911   6.425   6.341   6.255  3.2330  3.8878 -3.8569
  153SAPE   C2616912   6.465   6.257   6.065  0.5105  0.2209  0.5961
  153SAPE   H6R16913   6.462   6.358   6.021  0.6225 -0.9358 -2.2843
  153SAPE   C2716914   6.519   6.154   5.970 -0.3561  0.3434  0.6737
  153SAPE   H7R16915   6.472   6.166   5.870  3.9500  1.2302 -1.4962
  153SAPE   H7S16916   6.487   6.060   6.019  0.1530  0.4620  1.2446
  153SAPE   C2816917   6.666   6.147   5.948 -0.3899  0.1702  0.0528
  153SAPE   H8R16918   6.732   6.168   6.034  1.2587  1.3154 -1.4318
  153SAPE   C2916919   6.731   6.129   5.835  0.1514  0.2452  0.3635
  153SAPE   H9R16920   6.837   6.103   5.851  0.3564  0.4798 -0.5177
  153SAPE  C21016921   6.678   6.130   5.696  0.2792 -0.7067 -0.6944
  153SAPE  H10R16922   6.735   6.199   5.630  0.6265 -0.3392 -0.0263
  153SAPE  H10S16923   6.573   6.164   5.704 -0.2856 -2.3862 -0.6129
  153SAPE  C21116924   6.677   5.993   5.650  0.1270  0.0185 -0.4325
  153SAPE  H11R16925   6.630   5.926   5.724 -3.7493  1.8917 -0.9715
  153SAPE  C21216926   6.684   5.957   5.520  0.1117 -0.3737  0.2946
  153SAPE  H12R16927   6.685   5.853   5.485  1.2348 -0.3347  0.1705
  153SAPE  C21316928   6.718   6.054   5.414  0.3347 -0.1541  0.1102
  153SAPE  H13R16929   6.675   6.156   5.425 -0.4214 -0.0890 -2.5923
  153SAPE  H13S16930   6.674   6.005   5.324  1.6677 -0.8682 -0.1849
  153SAPE  C21416931   6.871   6.066   5.390  0.1416  0.2941 -0.7370
  153SAPE  H14R16932   6.931   6.085   5.481  0.7424  1.8986 -1.4156
  153SAPE  C21516933   6.947   6.045   5.283  0.7181  0.7095 -0.6113
  153SAPE  H15R16934   7.056   6.052   5.296  0.8079 -0.7904 -0.4457
  153SAPE  C21616935   6.899   6.017   5.146 -0.0186  0.6208  0.2388
  153SAPE  H16R16936   6.818   6.089   5.120  0.7128  0.4771 -2.8377
  153SAPE  H16S16937   6.857   5.915   5.143  2.0753 -0.2847  0.1075
  153SAPE  C21716938   7.009   6.024   5.038 -0.2843  0.7008 -0.5958
  153SAPE  H17R16939   7.066   5.931   5.061 -1.5871  0.5013  2.3515
  153SAPE  H17S16940   7.084   6.104   5.052 -0.3877  0.5167  1.3266
  153SAPE  C21816941   6.952   6.030   4.894 -0.2410  0.0170  0.1883
  153SAPE  H18R16942   6.909   6.132   4.881  0.7782  0.3416 -0.8446
  153SAPE  H18S16943   6.881   5.946   4.882 -0.6600  0.6935 -2.8551
  153SAPE  C21916944   7.065   6.008   4.788 -0.4941 -0.0414 -0.0168
  153SAPE  H19R16945   7.122   5.914   4.801  2.4139  1.5668 -0.3197
  153SAPE  H19S16946   7.131   6.097   4.795 -2.7865  2.1513 -3.3607
  153SAPE  C22016947   7.002   6.015   4.652  0.0756  0.8457 -0.0503
  153SAPE  H20R16948   7.076   6.001   4.571 -0.6474  0.3850 -0.6338
  153SAPE  H20S16949   6.956   6.115   4.635  1.4132  1.4348 -0.3458
  153SAPE  H20T16950   6.927   5.935   4.637  1.6029 -0.4424 -0.9904
  153SAPE   C3316951   6.779   5.450   5.840 -0.3450  0.3027  0.3607
  153SAPE   H3X16952   6.853   5.529   5.815  0.7711 -0.7965  0.1400
  153SAPE   H3Y16953   6.687   5.474   5.782 -0.3275 -0.7761 -0.1259
  153SAPE   C3416954   6.825   5.314   5.799 -0.5709 -0.5270 -0.1566
  153SAPE   H4X16955   6.915   5.277   5.853  2.1845  3.3617 -1.5821
  153SAPE   H4Y16956   6.837   5.313   5.689 -2.3938  2.4047 -0.4779
  153SAPE   C3516957   6.710   5.204   5.820 -0.4495  0.2863 -0.5393
  153SAPE   H5X16958   6.616   5.229   5.767 -0.8913 -0.6044 -0.1923
  153SAPE   H5Y16959   6.681   5.225   5.926 -3.1282  0.8886 -1.3188
  153SAPE   C3616960   6.763   5.057   5.801 -0.1102  0.4818  0.3302
  153SAPE   H6X16961   6.687   4.989   5.845  1.1896 -1.9691 -1.0159
  153SAPE   H6Y16962   6.857   5.047   5.860 -0.2356  1.2112  0.6666
  153SAPE   C3716963   6.780   5.016   5.650  0.1373  0.0522  0.4974
  153SAPE   H7X16964   6.854   5.078   5.594 -1.5057  3.5774  1.9582
  153SAPE   H7Y16965   6.687   5.038   5.594 -0.1127 -2.3753 -0.1598
  153SAPE   C3816966   6.821   4.865   5.630 -0.0857 -0.5412 -0.1906
  153SAPE   H8X16967   6.771   4.804   5.709  1.0860  0.3727  1.3130
  153SAPE   H8Y16968   6.926   4.839   5.656 -0.6299 -1.0715  1.6706
  153SAPE   C3916969   6.787   4.802   5.490 -0.1535  0.1865 -0.1011
  153SAPE   H9X16970   6.680   4.815   5.461 -0.1685 -1.4756 -0.9161
  153SAPE   H9Y16971   6.804   4.693   5.500 -0.1839  0.2354  0.5225
  153SAPE  C31016972   6.867   4.840   5.368 -0.7843  0.1169 -0.2675
  153SAPE  H10X16973   6.975   4.832   5.394 -1.0154  0.6466  0.9740
  153SAPE  H10Y16974   6.857   4.950   5.355 -1.1412  0.3362  1.5192
  153SAPE  C31116975   6.852   4.758   5.234 -0.0217 -0.3858 -0.0190
  153SAPE  H11X16976   6.750   4.735   5.195 -0.4212  1.2459  0.0084
  153SAPE  H11Y16977   6.906   4.664   5.258  1.4383  0.7846  1.4326
  153SAPE  C31216978   6.922   4.826   5.113 -0.5591  0.3516 -0.2121
  153SAPE  H12X16979   7.032   4.831   5.128 -0.3983 -0.7496 -0.9107
  153SAPE  H12Y16980   6.876   4.926   5.099  1.3097  1.2221 -0.4328
  153SAPE  C31316981   6.898   4.751   4.977  0.2126  0.5154  0.9184
  153SAPE  H13X16982   6.790   4.729   4.960 -0.0507  1.2157  1.6629
  153SAPE  H13Y16983   6.951   4.653   4.971 -0.6946  0.0857 -3.6445
  153SAPE  C31416984   6.949   4.831   4.860  0.0855  0.6627 -1.3927
  153SAPE  H14X16985   7.056   4.856   4.875 -0.3863  3.2467 -1.9455
  153SAPE  H14Y16986   6.896   4.928   4.859  0.7086  0.9984 -2.5567
  153SAPE  C31516987   6.938   4.763   4.728 -0.0752  0.0871 -1.1377
  153SAPE  H15X16988   6.836   4.734   4.693 -0.3426  1.6106 -1.7120
  153SAPE  H15Y16989   6.973   4.659   4.741 -2.1701 -1.1818 -4.2831
  153SAPE  C31616990   7.020   4.829   4.622 -0.4578 -0.8705  0.6513
  153SAPE  H16X16991   7.014   4.771   4.527 -0.5798  0.2113 -0.0309
  153SAPE  H16Y16992   7.123   4.839   4.663 -1.1507  0.3472  2.1828
  153SAPE  C31716993   6.981   4.978   4.587  0.3139 -0.2772  0.4996
  153SAPE  H17X16994   7.042   5.014   4.502  0.5494 -3.8148 -0.9646
  153SAPE  H17Y16995   7.006   5.045   4.673  1.3116  0.4462 -0.3282
  153SAPE  C31816996   6.828   4.989   4.568 -0.3757  0.1698  0.5229
  153SAPE  H18X16997   6.796   4.911   4.496  2.5266 -1.2299  0.6051
  153SAPE  H18Y16998   6.794   5.082   4.518  0.1314  0.1815  0.2000
  153SAPE  H18Z16999   6.777   4.986   4.667 -2.5465 -0.6479 -0.5557
  154SAPE     N17000   4.149   3.768   6.668  0.3680 -0.1542  0.1815
  154SAPE   HN117001   4.226   3.798   6.731  0.1031 -0.3632  0.6134
  154SAPE   HN217002   4.079   3.845   6.666  0.1291 -0.3538  0.6468
  154SAPE   HN317003   4.108   3.680   6.706 -2.3619  1.4382  1.2273
  154SAPE   C1217004   4.198   3.755   6.526 -0.1954  0.1138 -0.3013
  154SAPE  H12A17005   4.249   3.656   6.528 -0.5589 -0.0591  1.3308
  154SAPE  H12B17006   4.261   3.845   6.507  1.5650 -0.6549  1.5452
  154SAPE   C1117007   4.085   3.752   6.417 -0.0498 -0.5837  0.1053
  154SAPE  H11A17008   4.124   3.762   6.313 -0.1180 -0.3726  0.0997
  154SAPE  H11B17009   4.019   3.839   6.438  0.2691 -0.7679  2.0176
  154SAPE     P17010   4.041   3.493   6.349 -0.2203  0.3007 -0.1313
  154SAPE   O1317011   4.180   3.470   6.394 -0.0528  0.3232  0.2457
  154SAPE   O1417012   3.932   3.395   6.378  0.0763  0.2112  0.0392
  154SAPE   O1217013   3.999   3.629   6.428 -0.6086 -0.7116 -0.0016
  154SAPE   O1117014   4.037   3.555   6.207 -0.6783 -0.2831 -0.0100
  154SAPE    C117015   3.916   3.618   6.162 -0.5118 -1.0831 -0.0848
  154SAPE    HA17016   3.839   3.538   6.163  0.1184 -1.7392 -1.1835
  154SAPE    HB17017   3.880   3.703   6.223  1.7298  0.0088 -0.1880
  154SAPE    C217018   3.916   3.659   6.010  0.1079  0.4616  0.2630
  154SAPE    HS17019   3.948   3.764   5.994 -0.9245  0.5650 -1.3852
  154SAPE   O2117020   3.792   3.635   5.944  0.1996  0.1868 -0.0427
  154SAPE   C2117021   3.695   3.716   5.980 -0.2498 -0.0730 -0.8888
  154SAPE   O2217022   3.711   3.812   6.056  0.1765  0.8287 -0.1460
  154SAPE   C2217023   3.558   3.669   5.926 -0.6169 -0.2381  0.2173
  154SAPE   H2R17024   3.544   3.561   5.949 -1.2568 -0.6415 -1.8192
  154SAPE   H2S17025   3.486   3.738   5.974 -0.5605  0.5577 -0.8068
  154SAPE    C317026   4.019   3.569   5.943  0.1405  0.0048 -0.1306
  154SAPE    HX17027   4.008   3.461   5.969  0.6464  0.4203  1.9810
  154SAPE    HY17028   4.119   3.580   5.990  0.4071  0.4446 -0.7895
  154SAPE   O3117029   4.025   3.596   5.803 -0.0686 -0.4040 -0.1921
  154SAPE   C3117030   3.968   3.508   5.730  0.2650 -0.4111  0.2390
  154SAPE   O3217031   3.896   3.419   5.770  0.5592 -0.0762 -0.4551
  154SAPE   C3217032   4.009   3.527   5.582 -0.8656  0.3342  0.5450
  154SAPE   H2X17033   4.116   3.499   5.575  0.0559  3.1365  1.6825
  154SAPE   H2Y17034   3.991   3.635   5.562  0.7503  0.9623  2.1955
  154SAPE   C2317035   3.546   3.686   5.769 -0.4339 -0.0942 -0.3052
  154SAPE   H3R17036   3.454   3.633   5.738 -0.8085  1.0112 -1.1799
  154SAPE   H3S17037   3.628   3.634   5.716 -0.3143  0.3899 -0.5990
  154SAPE   C2417038   3.518   3.829   5.726  0.1315  0.4883  0.0239
  154SAPE   H4R17039   3.617   3.880   5.725  0.8993 -0.9250  0.7022
  154SAPE   H4S17040   3.445   3.886   5.788  2.0077  1.4576  1.4454
  154SAPE   C2517041   3.477   3.825   5.580  0.3206 -0.0009 -0.2866
  154SAPE   H5R17042   3.367   3.829   5.569  0.3770 -0.3717 -1.0865
  154SAPE   C2617043   3.552   3.826   5.467  0.5423  0.1566 -0.0059
  154SAPE   H6R17044   3.502   3.832   5.370 -1.8112  1.4893  1.2018
  154SAPE   C2717045   3.708   3.806   5.471  0.2065 -0.0335 -0.0572
  154SAPE   H7R17046   3.739   3.741   5.555  1.0111 -1.3725 -1.3364
  154SAPE   H7S17047   3.769   3.898   5.481 -1.6724  1.0605  2.5120
  154SAPE   C2817048   3.754   3.738   5.346 -0.5358  0.3278  0.5853
  154SAPE   H8R17049   3.718   3.635   5.344 -1.7679  0.7584 -0.8588
  154SAPE   C2917050   3.843   3.773   5.249  0.1587 -0.4174  0.7238
  154SAPE   H9R17051   3.863   3.704   5.166  0.7317  1.2473 -0.5813
  154SAPE  C21017052   3.911   3.912   5.245  0.2861  0.4527  0.0263
  154SAPE  H10R17053   3.851   3.984   5.305 -0.0159  3.0959 -3.1674
  154SAPE  H10S17054   3.901   3.965   5.148  0.3490  0.5539  0.0734
  154SAPE  C21117055   4.058   3.908   5.292  0.1410  0.1111 -0.1144
  154SAPE  H11R17056   4.074   3.941   5.396 -1.1420  0.9199 -0.1643
  154SAPE  C21217057   4.160   3.878   5.212  0.8119  0.0998 -0.4657
  154SAPE  H12R17058   4.260   3.889   5.257  1.2368  1.8738 -1.7059
  154SAPE  C21317059   4.153   3.832   5.072 -0.0153  0.2152  0.4851
  154SAPE  H13R17060   4.195   3.915   5.011 -1.5148  1.1236  0.6262
  154SAPE  H13S17061   4.050   3.824   5.030  0.8334 -0.6001 -1.5931
  154SAPE  C21417062   4.230   3.703   5.064 -0.6243 -0.5502 -0.2840
  154SAPE  H14R17063   4.250   3.666   5.166 -2.5550  1.6449  0.9856
  154SAPE  C21517064   4.298   3.658   4.958  0.1854  0.5067 -0.1779
  154SAPE  H15R17065   4.358   3.566   4.965 -0.5164 -0.0135 -0.8043
  154SAPE  C21617066   4.258   3.710   4.816 -0.1467  0.1507  0.0132
  154SAPE  H16R17067   4.160   3.762   4.829  0.5792  1.1897  1.8294
  154SAPE  H16S17068   4.232   3.624   4.751  1.7660 -1.4003  1.1927
  154SAPE  C21717069   4.354   3.797   4.728 -0.1937  0.0697  0.0320
  154SAPE  H17R17070   4.437   3.731   4.695  0.9436  0.6878  1.5141
  154SAPE  H17S17071   4.398   3.884   4.781 -1.0782 -0.4695  1.7282
  154SAPE  C21817072   4.289   3.851   4.599  0.3854 -0.2250 -0.7040
  154SAPE  H18R17073   4.244   3.766   4.542 -0.0006 -0.3568 -0.2111
  154SAPE  H18S17074   4.374   3.890   4.540 -0.0963  3.5177  0.8119
  154SAPE  C21917075   4.186   3.962   4.625  0.7754 -0.0560 -0.4961
  154SAPE  H19R17076   4.105   3.915   4.686  0.2101  2.2240  0.6007
  154SAPE  H19S17077   4.145   3.995   4.528  0.9284 -0.1243 -0.5855
  154SAPE  C22017078   4.238   4.086   4.689 -0.2176  0.2830  0.0404
  154SAPE  H20R17079   4.329   4.137   4.650 -0.6104  2.6868  2.0193
  154SAPE  H20S17080   4.254   4.065   4.797 -1.3756  0.1312  0.1918
  154SAPE  H20T17081   4.159   4.164   4.690 -1.0449 -0.5365 -0.0975
  154SAPE   C3317082   3.939   3.434   5.482  0.3953 -0.8177 -0.6286
  154SAPE   H3X17083   3.833   3.464   5.476  0.6069  0.1865  0.3063
  154SAPE   H3Y17084   3.941   3.328   5.516 -0.5241 -0.5762  0.2173
  154SAPE   C3417085   4.009   3.431   5.339  0.0703  0.2568 -0.0618
  154SAPE   H4X17086   4.103   3.373   5.352  1.5309  1.2557 -4.3682
  154SAPE   H4Y17087   4.024   3.539   5.315  3.9472 -0.3654 -1.1012
  154SAPE   C3517088   3.922   3.366   5.228 -0.0160 -0.1150 -0.6744
  154SAPE   H5X17089   3.833   3.432   5.228 -0.3742 -0.5929 -1.2160
  154SAPE   H5Y17090   3.886   3.263   5.245  0.3210 -0.4202 -1.7342
  154SAPE   C3617091   3.995   3.375   5.090  0.1777  0.3447 -0.1375
  154SAPE   H6X17092   4.091   3.320   5.088  1.1149  1.7497  1.7922
  154SAPE   H6Y17093   4.029   3.478   5.067  0.1904  0.3498 -0.0966
  154SAPE   C3717094   3.891   3.328   4.990 -0.5285  0.1876  0.4696
  154SAPE   H7X17095   3.805   3.393   4.964 -0.1912 -0.0044 -1.2442
  154SAPE   H7Y17096   3.845   3.234   5.026  0.4970 -0.8145 -0.7402
  154SAPE   C3817097   3.954   3.281   4.854  0.0761 -0.5965 -0.2761
  154SAPE   H8X17098   3.877   3.224   4.798  0.6292 -1.0040 -0.6356
  154SAPE   H8Y17099   4.031   3.207   4.889  1.3215  0.1663 -1.3051
  154SAPE   C3917100   4.020   3.388   4.769 -0.8844  0.3837 -0.4724
  154SAPE   H9X17101   4.072   3.454   4.841  0.2553 -0.0778 -0.8544
  154SAPE   H9Y17102   3.944   3.454   4.723 -1.7434  0.0632  0.4484
  154SAPE  C31017103   4.105   3.334   4.649  0.4187  0.1476  0.7633
  154SAPE  H10X17104   4.138   3.428   4.600 -1.0507  1.8847  2.8849
  154SAPE  H10Y17105   4.034   3.274   4.588  0.5415 -3.3605  3.7263
  154SAPE  C31117106   4.212   3.240   4.695 -0.1979 -0.3025 -0.0552
  154SAPE  H11X17107   4.160   3.164   4.757 -1.8683  2.7620  2.6764
  154SAPE  H11Y17108   4.295   3.290   4.749 -1.0624 -0.4432  1.4604
  154SAPE  C31217109   4.282   3.169   4.577 -0.3600  0.5504 -0.2655
  154SAPE  H12X17110   4.195   3.126   4.525  0.1584  1.2997 -1.7968
  154SAPE  H12Y17111   4.348   3.088   4.614 -0.7700 -0.8016 -2.3923
  154SAPE  C31317112   4.357   3.266   4.490  0.4304 -0.4172 -0.9060
  154SAPE  H13X17113   4.419   3.322   4.564 -2.8990  0.4164  1.5268
  154SAPE  H13Y17114   4.282   3.336   4.446  2.5932  2.6377 -0.0357
  154SAPE  C31417115   4.448   3.217   4.376 -0.3181 -1.0267 -0.0692
  154SAPE  H14X17116   4.496   3.303   4.322 -1.3799 -0.9632 -0.9435
  154SAPE  H14Y17117   4.388   3.170   4.295 -0.1192 -1.0074 -0.2313
  154SAPE  C31517118   4.553   3.116   4.425  0.1075 -0.2076 -0.1842
  154SAPE  H15X17119   4.516   3.012   4.420  0.7732 -0.5355  1.2723
  154SAPE  H15Y17120   4.578   3.134   4.532  1.9033  0.3768 -0.6558
  154SAPE  C31617121   4.678   3.138   4.341  0.1134 -0.2101  0.4420
  154SAPE  H16X17122   4.722   3.240   4.338  3.8635 -1.6712 -0.9854
  154SAPE  H16Y17123   4.654   3.123   4.233  1.3266  2.0417 -0.2049
  154SAPE  C31717124   4.791   3.046   4.375  0.0013  0.0289  0.5170
  154SAPE  H17X17125   4.757   2.941   4.369  2.0340 -0.5979 -3.6144
  154SAPE  H17Y17126   4.818   3.067   4.481  1.3693  0.1153  0.1708
  154SAPE  C31817127   4.907   3.056   4.276  0.6428 -0.2240  0.0157
  154SAPE  H18X17128   4.867   3.043   4.174 -3.4513  0.8346  1.2819
  154SAPE  H18Y17129   4.977   2.975   4.306 -2.6426 -3.5283 -0.5361
  154SAPE  H18Z17130   4.962   3.151   4.296  3.0106 -1.1624 -1.5794
  155SAPE     N17131   2.482   2.483   6.389  0.1155  0.1979  0.8351
  155SAPE   HN117132   2.431   2.574   6.390 -1.9623 -0.8976  0.1233
  155SAPE   HN217133   2.556   2.483   6.316  0.2312  0.4725  0.9501
  155SAPE   HN317134   2.416   2.412   6.351 -1.1649  1.1624  1.1755
  155SAPE   C1217135   2.534   2.444   6.526 -0.2138  0.5702 -0.6608
  155SAPE  H12A17136   2.442   2.439   6.588 -0.5015 -0.0647 -1.1203
  155SAPE  H12B17137   2.593   2.525   6.572  1.1925 -0.6550 -0.2190
  155SAPE   C1117138   2.615   2.310   6.518 -0.2269 -0.1266  0.2351
  155SAPE  H11A17139   2.538   2.237   6.488 -0.3483  0.7010 -1.5690
  155SAPE  H11B17140   2.649   2.290   6.622 -0.8894 -1.0569  0.2815
  155SAPE     P17141   2.854   2.366   6.460 -0.7301 -0.2912  0.1674
  155SAPE   O1317142   2.847   2.505   6.516  0.0306 -0.3108  0.4864
  155SAPE   O1417143   2.904   2.254   6.548 -0.2210 -0.5733 -0.3465
  155SAPE   O1217144   2.711   2.325   6.410  0.5130 -0.3043  0.0212
  155SAPE   O1117145   2.944   2.365   6.331  0.0317  0.0471  0.5530
  155SAPE    C117146   2.953   2.253   6.242  0.3335  0.5394 -0.0540
  155SAPE    HA17147   3.056   2.215   6.228  0.7384  2.1294 -1.9206
  155SAPE    HB17148   2.902   2.166   6.287  2.8799 -0.1410  1.7440
  155SAPE    C217149   2.889   2.286   6.103 -0.0909 -0.1756  0.4187
  155SAPE    HS17150   2.780   2.266   6.109 -0.3409  0.7699 -0.6130
  155SAPE   O2117151   2.939   2.203   5.994  0.1042 -0.0600  0.4807
  155SAPE   C2117152   2.902   2.069   5.999 -0.4122 -1.1187 -0.3591
  155SAPE   O2217153   2.841   2.025   6.095 -0.0389 -0.3257  0.4402
  155SAPE   C2217154   2.926   1.985   5.879  0.2495 -0.1029 -0.0440
  155SAPE   H2R17155   3.020   2.002   5.822 -0.5600  0.2752 -1.3152
  155SAPE   H2S17156   2.911   1.881   5.913  2.5683 -0.8691 -1.1584
  155SAPE    C317157   2.896   2.439   6.061  0.4583 -0.1856 -0.0232
  155SAPE    HX17158   3.004   2.462   6.049  0.6140 -1.3856 -1.1000
  155SAPE    HY17159   2.852   2.495   6.146  1.1418 -1.4341  1.1835
  155SAPE   O3117160   2.826   2.473   5.944 -0.1106  0.8740  1.0136
  155SAPE   C3117161   2.875   2.571   5.868  0.6035  0.5873  0.5752
  155SAPE   O3217162   2.978   2.630   5.885 -0.1752 -0.3906 -0.6214
  155SAPE   C3217163   2.775   2.592   5.751  0.3874  0.6401  0.6552
  155SAPE   H2X17164   2.720   2.684   5.780 -0.9813 -0.4527  1.6570
  155SAPE   H2Y17165   2.691   2.519   5.755  1.0475 -0.2185 -0.4173
  155SAPE   C2317166   2.820   2.004   5.769 -0.7724 -0.7078  0.0964
  155SAPE   H3R17167   2.719   2.023   5.811 -0.4245  1.3821  0.0802
  155SAPE   H3S17168   2.807   1.911   5.710  0.1363  0.0226 -1.2868
  155SAPE   C2417169   2.850   2.124   5.678  0.3383 -0.2818 -0.4487
  155SAPE   H4R17170   2.945   2.101   5.626 -0.3010 -0.5051 -1.5645
  155SAPE   H4S17171   2.873   2.220   5.730  1.1437 -1.2369  1.0169
  155SAPE   C2517172   2.725   2.144   5.588 -0.1221  0.2019  0.1634
  155SAPE   H5R17173   2.669   2.232   5.622  0.2140  0.2828  0.5123
  155SAPE   C2617174   2.704   2.094   5.467  0.1161  0.8294  0.6158
  155SAPE   H6R17175   2.613   2.123   5.413  0.5250  0.6147 -0.2123
  155SAPE   C2717176   2.784   1.999   5.387 -0.6201 -0.3167  0.0058
  155SAPE   H7R17177   2.725   1.913   5.347 -0.2220 -0.6411  0.1029
  155SAPE   H7S17178   2.865   1.952   5.448 -0.6878 -0.8247 -0.2928
  155SAPE   C2817179   2.861   2.073   5.279 -0.3789  0.2439 -0.3028
  155SAPE   H8R17180   2.962   2.103   5.309 -1.2058  1.9807  0.9419
  155SAPE   C2917181   2.810   2.105   5.157  0.2672 -0.6021  0.3775
  155SAPE   H9R17182   2.870   2.165   5.087  0.5762 -3.0598 -1.5992
  155SAPE  C21017183   2.672   2.064   5.097  0.3754 -0.3246 -0.1964
  155SAPE  H10R17184   2.595   2.071   5.177  0.1200 -2.9502 -0.1045
  155SAPE  H10S17185   2.681   1.960   5.060  3.1936  0.2501 -1.3577
  155SAPE  C21117186   2.639   2.155   4.980  0.3718 -0.1369 -0.2340
  155SAPE  H11R17187   2.619   2.259   5.010 -1.3007  0.0901 -1.9153
  155SAPE  C21217188   2.632   2.119   4.849  0.4448  0.2322  0.7240
  155SAPE  H12R17189   2.618   2.203   4.778  1.8340  0.1709  0.3503
  155SAPE  C21317190   2.657   1.979   4.792 -0.0265 -0.1013 -0.2440
  155SAPE  H13R17191   2.562   1.947   4.744  0.3407  0.8822 -1.7046
  155SAPE  H13S17192   2.675   1.896   4.863 -1.6206 -0.6392 -0.4344
  155SAPE  C21417193   2.771   1.996   4.693 -0.7543 -0.0803 -0.6038
  155SAPE  H14R17194   2.868   2.005   4.744 -1.3858 -1.4632  0.9472
  155SAPE  C21517195   2.759   2.016   4.559 -0.0594 -0.2652  0.3159
  155SAPE  H15R17196   2.849   2.026   4.497 -0.1141  2.2272  0.5245
  155SAPE  C21617197   2.626   2.026   4.478  0.1273  0.4345  0.7192
  155SAPE  H16R17198   2.612   2.116   4.415  1.7921  0.9967  1.1117
  155SAPE  H16S17199   2.544   2.029   4.553  0.3610  1.1944  0.9450
  155SAPE  C21717200   2.589   1.900   4.405  0.0944  0.5305  0.5725
  155SAPE  H17R17201   2.484   1.894   4.370 -0.0515  1.1175  0.8927
  155SAPE  H17S17202   2.609   1.827   4.487 -1.0755  0.7583  1.0738
  155SAPE  C21817203   2.676   1.875   4.280  0.3760  0.3684 -0.5626
  155SAPE  H18R17204   2.660   1.770   4.248  0.1140  0.1610  0.2076
  155SAPE  H18S17205   2.782   1.893   4.308  0.6068 -1.6298 -0.0166
  155SAPE  C21917206   2.640   1.966   4.157 -0.1711  0.7234 -0.4223
  155SAPE  H19R17207   2.679   2.068   4.175  0.9719  0.3077 -0.4476
  155SAPE  H19S17208   2.529   1.972   4.155 -0.1940  0.9260  0.7202
  155SAPE  C22017209   2.716   1.921   4.039  0.0037 -0.1088 -0.6677
  155SAPE  H20R17210   2.815   1.899   4.085 -0.0391 -0.7589 -0.8824
  155SAPE  H20S17211   2.735   1.997   3.960  0.9498  1.2349  0.7843
  155SAPE  H20T17212   2.684   1.821   4.006 -1.7647  0.1676  0.1203
  155SAPE   C3317213   2.836   2.612   5.612  0.0430  0.1405 -0.3582
  155SAPE   H3X17214   2.917   2.688   5.620  0.4202 -0.1398 -1.4687
  155SAPE   H3Y17215   2.763   2.665   5.546  0.4848 -1.8595 -2.5606
  155SAPE   C3417216   2.881   2.478   5.552  0.1522 -0.3494 -0.1331
  155SAPE   H4X17217   2.794   2.410   5.546  0.7628 -1.0062 -2.6352
  155SAPE   H4Y17218   2.957   2.427   5.615  0.5938  0.4453 -0.0039
  155SAPE   C3517219   2.928   2.505   5.405  0.3761  0.2943 -0.9055
  155SAPE   H5X17220   2.973   2.410   5.369  1.0692 -0.1084  0.8936
  155SAPE   H5Y17221   3.000   2.590   5.406  0.3867  0.3081 -1.8509
  155SAPE   C3617222   2.811   2.523   5.316  0.5806 -0.0875  0.0305
  155SAPE   H6X17223   2.773   2.627   5.326  1.9630  0.3701  0.8043
  155SAPE   H6Y17224   2.734   2.447   5.341 -0.1817  0.7602  0.3218
  155SAPE   C3717225   2.852   2.508   5.165 -0.2532 -0.0856 -0.5938
  155SAPE   H7X17226   2.877   2.400   5.151 -0.9888 -0.1494 -1.4924
  155SAPE   H7Y17227   2.952   2.554   5.160 -0.3497  0.4533  1.4765
  155SAPE   C3817228   2.749   2.554   5.059  0.5808 -1.0340  0.2299
  155SAPE   H8X17229   2.728   2.662   5.068  2.8346 -0.4728 -0.7053
  155SAPE   H8Y17230   2.654   2.498   5.077  0.1782 -0.6406 -0.6391
  155SAPE   C3917231   2.799   2.539   4.917  0.3380  0.0221  0.1156
  155SAPE   H9X17232   2.820   2.431   4.904 -1.8453 -0.3807 -0.3942
  155SAPE   H9Y17233   2.888   2.599   4.891  1.7302 -2.2998 -0.7544
  155SAPE  C31017234   2.687   2.552   4.807  0.3007  0.0837 -0.2698
  155SAPE  H10X17235   2.652   2.658   4.803  0.2500  0.1109  0.7265
  155SAPE  H10Y17236   2.602   2.495   4.849  1.2532 -1.2993 -0.1486
  155SAPE  C31117237   2.743   2.501   4.669  0.0387 -0.0793 -0.1657
  155SAPE  H11X17238   2.791   2.402   4.682 -2.5573 -1.2756  1.1620
  155SAPE  H11Y17239   2.827   2.568   4.644  1.6866 -1.2573  1.8400
  155SAPE  C31217240   2.619   2.502   4.574 -0.4933 -0.0779 -0.1469
  155SAPE  H12X17241   2.568   2.601   4.570  0.1546  0.2948  0.7493
  155SAPE  H12Y17242   2.539   2.443   4.623 -1.8260  0.6172 -1.3855
  155SAPE  C31317243   2.659   2.442   4.446 -0.2548 -0.5312  1.0958
  155SAPE  H13X17244   2.704   2.341   4.461  1.0335  0.1465  1.8848
  155SAPE  H13Y17245   2.735   2.512   4.407 -1.7265  0.6094  0.1521
  155SAPE  C31417246   2.550   2.436   4.335 -0.4866 -0.1909  0.5165
  155SAPE  H14X17247   2.478   2.517   4.359 -0.2292 -0.1728  1.2571
  155SAPE  H14Y17248   2.501   2.337   4.329 -1.9222  0.4954  0.4593
  155SAPE  C31517249   2.610   2.476   4.198  0.2301 -0.2381 -0.2428
  155SAPE  H15X17250   2.670   2.400   4.143  1.3492  0.4621 -0.0170
  155SAPE  H15Y17251   2.689   2.550   4.224 -0.7863  1.3070 -1.4299
  155SAPE  C31617252   2.518   2.564   4.113  0.5044  0.2938 -0.2305
  155SAPE  H16X17253   2.488   2.652   4.174  1.2344 -0.4305  1.2323
  155SAPE  H16Y17254   2.435   2.499   4.079  1.0499 -0.6533  0.2233
  155SAPE  C31717255   2.592   2.619   3.990 -0.2110  0.7145  0.3554
  155SAPE  H17X17256   2.636   2.528   3.944 -1.0429 -0.2135  1.3430
  155SAPE  H17Y17257   2.675   2.678   4.035  0.6618 -1.7138  2.1116
  155SAPE  C31817258   2.507   2.691   3.882 -0.1946 -0.1690  0.2334
  155SAPE  H18X17259   2.424   2.623   3.852 -0.0605 -0.1158 -0.2800
  155SAPE  H18Y17260   2.570   2.707   3.791  0.4260 -0.7701  0.5528
  155SAPE  H18Z17261   2.468   2.789   3.917  0.4564 -0.2706  1.2955
  156SAPE     N17262   0.234   3.373   6.636  0.1725 -0.1985 -0.0710
  156SAPE   HN117263   0.219   3.410   6.540  0.3439  1.7473  0.6076
  156SAPE   HN217264   0.325   3.323   6.639  0.4650  0.3165 -0.2562
  156SAPE   HN317265   0.160   3.301   6.652  1.5999 -1.3043  1.9924
  156SAPE   C1217266   0.231   3.496   6.727  0.1391  0.0388  0.4317
  156SAPE  H12A17267   0.210   3.470   6.834  1.1727 -0.9631  0.4249
  156SAPE  H12B17268   0.142   3.556   6.700 -0.2952  1.2932  4.0474
  156SAPE   C1117269   0.361   3.574   6.716  0.0864  0.4136 -0.4336
  156SAPE  H11A17270   0.380   3.599   6.610 -2.6889 -0.0795 -1.1218
  156SAPE  H11B17271   0.452   3.517   6.745  0.5735  1.2325 -0.3196
  156SAPE     P17272   0.297   3.833   6.755  0.1684 -0.2449  0.3539
  156SAPE   O1317273   0.151   3.818   6.744  0.4120 -0.0690  0.1316
  156SAPE   O1417274   0.349   3.934   6.847  0.0675  0.7614 -0.4836
  156SAPE   O1217275   0.350   3.693   6.795 -0.0603 -0.1990  0.3430
  156SAPE   O1117276   0.351   3.862   6.607  0.3371 -0.3972 -0.3191
  156SAPE    C117277   0.371   3.997   6.566  0.6848 -0.2814 -0.5687
  156SAPE    HA17278   0.288   4.060   6.605  0.3365 -0.5566 -0.8611
  156SAPE    HB17279   0.461   4.041   6.614 -1.1716  2.5099  0.6755
  156SAPE    C217280   0.375   4.004   6.413  0.3661  0.3240 -0.1648
  156SAPE    HS17281   0.388   4.108   6.376 -0.7868  0.9592  1.1375
  156SAPE   O2117282   0.253   3.960   6.360  0.6600 -0.5567 -0.5019
  156SAPE   C2117283   0.152   4.042   6.381  0.1416  0.1709  0.2631
  156SAPE   O2217284   0.152   4.156   6.424  0.1080  0.1243  0.1424
  156SAPE   C2217285   0.029   3.981   6.324 -0.0713 -0.0103  0.1400
  156SAPE   H2R17286   0.032   3.874   6.295  0.3721  0.4455 -1.5929
  156SAPE   H2S17287  -0.048   4.004   6.401 -0.7839 -0.3308 -0.4572
  156SAPE    C317288   0.489   3.924   6.356  0.7813  0.0053  0.2323
  156SAPE    HX17289   0.494   3.826   6.407 -1.9948 -0.9764 -1.1651
  156SAPE    HY17290   0.584   3.973   6.387 -0.2436  0.8303  2.2367
  156SAPE   O3117291   0.475   3.910   6.210  0.1046  0.2491 -0.7315
  156SAPE   C3117292   0.516   4.014   6.142 -0.2743  1.0327  0.1587
  156SAPE   O3217293   0.564   4.112   6.188  0.3122  0.5476 -0.6931
  156SAPE   C3217294   0.505   3.987   5.994  0.0679 -0.4700  0.2686
  156SAPE   H2X17295   0.403   4.024   5.968  1.2916  2.2245 -1.2183
  156SAPE   H2Y17296   0.513   3.877   5.984 -1.0400 -0.6003  0.6736
  156SAPE   C2317297  -0.016   4.061   6.198  0.0519  0.3186  0.0759
  156SAPE   H3R17298  -0.049   4.163   6.227  0.9677  0.2215  1.5532
  156SAPE   H3S17299  -0.101   4.005   6.153 -0.4792 -1.1877  2.7096
  156SAPE   C2417300   0.085   4.071   6.086  0.3016 -0.7092 -0.5150
  156SAPE   H4R17301   0.182   4.117   6.114  0.1510 -0.5458 -0.2562
  156SAPE   H4S17302   0.044   4.144   6.012  1.9665  0.4224 -0.3697
  156SAPE   C2517303   0.115   3.943   6.023 -0.6331  0.6904  0.4779
  156SAPE   H5R17304   0.113   3.851   6.083  1.2198  0.6645  0.5499
  156SAPE   C2617305   0.150   3.930   5.896  0.0583  0.1715  0.6989
  156SAPE   H6R17306   0.160   3.828   5.857  2.5992  0.8447 -0.5973
  156SAPE   C2717307   0.158   4.037   5.792  0.2002  0.2879 -0.2695
  156SAPE   H7R17308   0.229   3.997   5.716  0.4682  2.8497 -1.4646
  156SAPE   H7S17309   0.209   4.126   5.835 -1.1517 -0.5379  3.4470
  156SAPE   C2817310   0.031   4.081   5.725  0.2921  0.0757 -0.1063
  156SAPE   H8R17311  -0.064   4.042   5.764 -0.4100 -0.9172 -2.5898
  156SAPE   C2917312   0.031   4.177   5.629 -0.4468 -0.4225 -0.4912
  156SAPE   H9R17313  -0.065   4.211   5.587 -0.7974 -0.1575  0.5039
  156SAPE  C21017314   0.154   4.247   5.579  0.0371  0.6445  0.0687
  156SAPE  H10R17315   0.183   4.188   5.489 -0.9242  0.5284 -0.1819
  156SAPE  H10S17316   0.239   4.232   5.649 -0.3874 -0.3726  0.4021
  156SAPE  C21117317   0.134   4.391   5.556 -0.3506 -0.0543  0.4151
  156SAPE  H11R17318   0.175   4.455   5.635  0.7046 -2.0521  1.5622
  156SAPE  C21217319   0.074   4.447   5.444 -0.5869 -0.0944 -0.2234
  156SAPE  H12R17320   0.064   4.557   5.444 -0.4886 -0.0811 -0.7956
  156SAPE  C21317321   0.014   4.384   5.321  0.0125 -0.5779  0.1827
  156SAPE  H13R17322  -0.054   4.461   5.277  1.7021  0.9772  0.1402
  156SAPE  H13S17323  -0.046   4.301   5.363 -0.2918 -1.4519 -1.8647
  156SAPE  C21417324   0.109   4.323   5.224 -0.0463  0.3233 -0.3518
  156SAPE  H14R17325   0.201   4.274   5.259 -0.1327  0.0124 -0.5591
  156SAPE  C21517326   0.086   4.332   5.089  0.2163  0.8095 -0.4917
  156SAPE  H15R17327   0.156   4.275   5.026 -0.2632  0.0889 -0.3944
  156SAPE  C21617328  -0.031   4.392   5.022 -0.8747  0.2826  1.0078
  156SAPE  H16R17329  -0.044   4.494   5.064  0.9417  0.8524  0.2914
  156SAPE  H16S17330  -0.123   4.337   5.052 -0.8530  0.4277  1.3514
  156SAPE  C21717331  -0.010   4.380   4.870 -0.6430  0.9753 -0.3726
  156SAPE  H17R17332   0.007   4.273   4.843  0.3371  1.1495 -0.4833
  156SAPE  H17S17333   0.084   4.429   4.838  0.1891 -1.5484 -2.1781
  156SAPE  C21817334  -0.130   4.427   4.790 -0.6901 -0.1128 -0.6866
  156SAPE  H18R17335  -0.124   4.536   4.808  1.8641 -0.7066  3.8172
  156SAPE  H18S17336  -0.228   4.396   4.834 -0.1492  1.8597  2.1671
  156SAPE  C21917337  -0.128   4.390   4.643  0.2127  0.0361  0.1519
  156SAPE  H19R17338  -0.218   4.423   4.586 -0.3187  0.7611  1.3590
  156SAPE  H19S17339  -0.119   4.280   4.638  0.7832  0.0921 -0.2603
  156SAPE  C22017340  -0.015   4.451   4.563  0.1483  0.7589 -0.4712
  156SAPE  H20R17341  -0.022   4.561   4.547 -0.1756  0.9267  0.7144
  156SAPE  H20S17342  -0.008   4.404   4.463  0.0475  1.7838 -0.9725
  156SAPE  H20T17343   0.085   4.438   4.611  0.0036 -0.6532 -0.5199
  156SAPE   C3317344   0.610   4.060   5.906 -0.5956 -0.4167 -0.6226
  156SAPE   H3X17345   0.712   4.041   5.947  0.6259  0.6433 -2.9475
  156SAPE   H3Y17346   0.591   4.170   5.907 -2.2620 -0.6496  1.9705
  156SAPE   C3417347   0.628   4.013   5.759 -0.2264  0.1883 -0.5840
  156SAPE   H4X17348   0.534   4.021   5.700 -0.7164  1.1346  0.3092
  156SAPE   H4Y17349   0.666   3.909   5.751  1.8044  0.8702 -0.3186
  156SAPE   C3517350   0.732   4.098   5.688  0.5313  0.1260 -0.2446
  156SAPE   H5X17351   0.819   4.112   5.756  1.0384  2.0916 -1.2323
  156SAPE   H5Y17352   0.691   4.201   5.679  1.0095  0.2050 -1.9461
  156SAPE   C3617353   0.780   4.040   5.559 -0.4999  0.1945 -0.1751
  156SAPE   H6X17354   0.686   4.007   5.508 -0.7316 -1.6575  1.3048
  156SAPE   H6Y17355   0.855   3.958   5.562  0.6311  1.1820 -0.9861
  156SAPE   C3717356   0.846   4.151   5.478 -0.1026 -0.4747 -0.6025
  156SAPE   H7X17357   0.923   4.202   5.540 -0.1796 -0.1747 -0.7502
  156SAPE   H7Y17358   0.767   4.229   5.466 -0.4242 -0.6601  0.2196
  156SAPE   C3817359   0.889   4.108   5.342 -0.0315  0.0320 -0.2775
  156SAPE   H8X17360   0.804   4.071   5.282  0.1159  0.8183 -1.0004
  156SAPE   H8Y17361   0.959   4.022   5.349  0.1739 -0.0360 -2.4736
  156SAPE   C3917362   0.965   4.220   5.255  0.4637  0.2508  0.4240
  156SAPE   H9X17363   1.040   4.262   5.325 -1.1583  2.8248  0.7588
  156SAPE   H9Y17364   0.898   4.307   5.237  1.8609  1.1686 -0.5548
  156SAPE  C31017365   1.021   4.154   5.127 -0.6618  0.2808  0.1090
  156SAPE  H10X17366   0.931   4.127   5.068  0.0983 -2.2608  0.0149
  156SAPE  H10Y17367   1.084   4.066   5.152 -2.2728 -0.5751  1.3150
  156SAPE  C31117368   1.102   4.250   5.040  0.5791 -0.8025  0.0488
  156SAPE  H11X17369   1.187   4.285   5.102  0.4381  2.8922 -1.5774
  156SAPE  H11Y17370   1.043   4.341   5.014 -1.9404 -2.5838 -0.8809
  156SAPE  C31217371   1.164   4.191   4.912 -0.0107 -0.8166  0.5265
  156SAPE  H12X17372   1.226   4.267   4.861  0.7289 -2.6487 -1.4503
  156SAPE  H12Y17373   1.081   4.178   4.839  0.4721  1.1789 -0.4500
  156SAPE  C31317374   1.236   4.061   4.926 -0.3318 -0.1955 -0.7402
  156SAPE  H13X17375   1.172   3.974   4.953 -2.8832  2.1194  1.2805
  156SAPE  H13Y17376   1.321   4.066   4.998  0.5907  1.1781 -1.8894
  156SAPE  C31417377   1.320   4.024   4.797  0.4617  0.8449 -0.1125
  156SAPE  H14X17378   1.348   3.917   4.801 -1.8406  0.2368  2.2580
  156SAPE  H14Y17379   1.414   4.082   4.810  0.1102  1.6225 -0.9247
  156SAPE  C31517380   1.260   4.060   4.664  0.6390  0.4807 -0.5759
  156SAPE  H15X17381   1.234   4.168   4.652  0.1543  0.3107 -1.1503
  156SAPE  H15Y17382   1.163   4.010   4.644 -0.5886  1.8950  1.4387
  156SAPE  C31617383   1.343   4.030   4.546  0.4922  0.4738 -0.1953
  156SAPE  H16X17384   1.452   4.030   4.567  0.5886 -0.4922 -0.6203
  156SAPE  H16Y17385   1.341   4.121   4.482 -1.3614  0.1819 -0.5932
  156SAPE  C31717386   1.286   3.910   4.465 -0.1256 -0.1068 -0.5720
  156SAPE  H17X17387   1.360   3.901   4.382 -0.5007 -2.4703 -0.7282
  156SAPE  H17Y17388   1.189   3.936   4.418  0.7500  0.0664 -2.3705
  156SAPE  C31817389   1.264   3.783   4.541 -0.4187 -0.3317 -0.2295
  156SAPE  H18X17390   1.355   3.771   4.605 -0.6016  1.0562  0.3372
  156SAPE  H18Y17391   1.255   3.700   4.468 -0.4487  0.8781 -1.6458
  156SAPE  H18Z17392   1.184   3.789   4.618 -0.4105 -2.1283 -0.0244
  157SAPE     N17393   6.348   3.389   6.788  0.4890  0.2872 -0.1462
  157SAPE   HN117394   6.363   3.401   6.686  0.6607  0.5528 -0.0903
  157SAPE   HN217395   6.396   3.303   6.822 -0.8466 -0.5820 -0.3918
  157SAPE   HN317396   6.249   3.391   6.822  0.3973  0.0981 -0.4009
  157SAPE   C1217397   6.401   3.508   6.856 -0.0933 -0.4755 -0.8101
  157SAPE  H12A17398   6.509   3.518   6.832 -0.0835 -0.1425 -0.6259
  157SAPE  H12B17399   6.402   3.477   6.962  1.5610 -0.7314 -0.8702
  157SAPE   C1117400   6.324   3.647   6.833 -0.0939  0.0020  0.2508
  157SAPE  H11A17401   6.356   3.686   6.733  0.4389 -0.1520  0.3587
  157SAPE  H11B17402   6.358   3.721   6.908 -0.5186  2.6432 -1.9824
  157SAPE     P17403   6.093   3.747   6.810  0.2803 -0.2645 -0.2882
  157SAPE   O1317404   5.951   3.724   6.862 -0.4866 -0.6272 -0.7785
  157SAPE   O1417405   6.160   3.877   6.843  0.6038  0.2757  0.3177
  157SAPE   O1217406   6.184   3.629   6.853 -0.1620 -0.2679 -0.0164
  157SAPE   O1117407   6.097   3.733   6.653  0.4094  0.0269 -0.0340
  157SAPE    C117408   6.053   3.611   6.591 -0.3106 -0.6591 -0.5426
  157SAPE    HA17409   6.136   3.538   6.584  1.0930  0.9235 -1.1952
  157SAPE    HB17410   5.972   3.559   6.646  2.0160 -1.0066  2.8367
  157SAPE    C217411   5.995   3.637   6.450  0.4405 -0.1626 -0.2874
  157SAPE    HS17412   5.972   3.537   6.409  0.5349 -1.3880  2.4412
  157SAPE   O2117413   6.087   3.705   6.364  0.0813  0.2076 -0.3023
  157SAPE   C2117414   6.182   3.630   6.309 -0.7813  0.4810 -0.0479
  157SAPE   O2217415   6.212   3.520   6.347 -0.4992  0.4269 -0.0742
  157SAPE   C2217416   6.255   3.712   6.199  0.2565  0.4089 -0.6966
  157SAPE   H2R17417   6.318   3.785   6.253  0.3830 -0.9995  1.1321
  157SAPE   H2S17418   6.320   3.639   6.145 -0.7610 -0.6833 -0.4860
  157SAPE    C317419   5.865   3.714   6.456 -0.3187  0.7876 -0.1072
  157SAPE    HX17420   5.880   3.809   6.513 -0.4192  1.0143 -0.4544
  157SAPE    HY17421   5.789   3.653   6.511  0.3769 -0.3020 -0.3354
  157SAPE   O3117422   5.817   3.742   6.326 -0.6413 -0.2542 -0.3117
  157SAPE   C3117423   5.701   3.802   6.314 -0.4492  0.3925  0.0214
  157SAPE   O3217424   5.619   3.828   6.404 -0.1093 -0.1160 -0.4862
  157SAPE   C3217425   5.681   3.848   6.171  0.0696  0.1936  0.5516
  157SAPE   H2X17426   5.586   3.907   6.168 -0.6864 -0.9962  0.6044
  157SAPE   H2Y17427   5.659   3.759   6.108 -1.2595  1.1617 -0.4354
  157SAPE   C2317428   6.156   3.787   6.097 -0.5583  0.6525  0.3145
  157SAPE   H3R17429   6.218   3.875   6.067  1.0479  0.0811  1.8271
  157SAPE   H3S17430   6.077   3.834   6.160  2.0714  2.3116  2.5992
  157SAPE   C2417431   6.114   3.690   5.980 -0.7718 -0.5692 -0.5979
  157SAPE   H4R17432   6.026   3.743   5.939 -0.3888 -0.9359 -1.9312
  157SAPE   H4S17433   6.066   3.598   6.019 -0.1970  0.0012  1.6303
  157SAPE   C2517434   6.222   3.683   5.873  0.7413  0.5111 -1.2031
  157SAPE   H5R17435   6.320   3.659   5.917 -0.3688  0.5306  1.5126
  157SAPE   C2617436   6.197   3.682   5.741 -0.0128 -0.0878 -0.7374
  157SAPE   H6R17437   6.282   3.698   5.673  0.3156 -0.3028 -0.3832
  157SAPE   C2717438   6.065   3.682   5.669  0.3797  0.1111  0.1801
  157SAPE   H7R17439   6.000   3.614   5.729 -0.0150  0.9717  0.7554
  157SAPE   H7S17440   6.089   3.615   5.584  0.7295 -1.3889  1.4140
  157SAPE   C2817441   5.999   3.817   5.634  0.5621 -0.0864  0.7727
  157SAPE   H8R17442   5.971   3.870   5.727  0.8872  0.4930  0.5490
  157SAPE   C2917443   5.961   3.860   5.511  0.2003  0.6808 -0.5276
  157SAPE   H9R17444   5.902   3.951   5.491 -0.0294  0.8611  0.8827
  157SAPE  C21017445   5.984   3.787   5.376 -0.0360  0.5465 -0.1226
  157SAPE  H10R17446   5.894   3.722   5.363  0.4583 -0.1066 -0.3339
  157SAPE  H10S17447   6.060   3.707   5.388 -0.0139  0.4880 -0.6148
  157SAPE  C21117448   6.024   3.883   5.272  0.2058  0.3155  0.2249
  157SAPE  H11R17449   6.119   3.938   5.283 -0.4372  1.4780  0.1925
  157SAPE  C21217450   5.946   3.929   5.171 -0.1553  0.5007  0.7075
  157SAPE  H12R17451   5.993   4.009   5.112 -0.1226  0.8015  1.1345
  157SAPE  C21317452   5.803   3.885   5.135  0.2072  0.2037 -0.3100
  157SAPE  H13R17453   5.752   3.959   5.069 -1.6788 -1.1528 -0.4379
  157SAPE  H13S17454   5.745   3.891   5.229  0.0468 -1.5933 -0.2517
  157SAPE  C21417455   5.799   3.753   5.066  0.0650 -0.5517 -0.0417
  157SAPE  H14R17456   5.759   3.676   5.134 -0.6899  0.8013  1.0824
  157SAPE  C21517457   5.856   3.728   4.944 -0.4251  0.2011  0.3741
  157SAPE  H15R17458   5.854   3.629   4.897 -0.8647  0.3323  0.1127
  157SAPE  C21617459   5.910   3.834   4.849  0.1929  0.2465  0.1349
  157SAPE  H16R17460   5.909   3.936   4.893 -2.9611  1.1068 -1.6438
  157SAPE  H16S17461   5.840   3.840   4.763 -2.8247  2.1698  2.5069
  157SAPE  C21717462   6.051   3.799   4.803  0.0648 -0.3158 -0.2139
  157SAPE  H17R17463   6.110   3.789   4.897  1.1703  1.1690 -0.7115
  157SAPE  H17S17464   6.089   3.885   4.743  0.4952  1.3882  2.2807
  157SAPE  C21817465   6.070   3.674   4.724  0.2148 -0.1221  0.5180
  157SAPE  H18R17466   5.986   3.678   4.652 -0.6281  0.4594  1.5116
  157SAPE  H18S17467   6.065   3.578   4.779  0.9387 -0.8142 -0.5694
  157SAPE  C21917468   6.205   3.686   4.655 -0.8819 -0.0957 -0.5493
  157SAPE  H19R17469   6.277   3.704   4.737 -1.0971 -0.0628 -0.3651
  157SAPE  H19S17470   6.201   3.775   4.589  0.3030  0.4401  0.0709
  157SAPE  C22017471   6.254   3.559   4.577 -0.2295  0.3080  0.1161
  157SAPE  H20R17472   6.252   3.479   4.654  1.0335  0.1740  0.0309
  157SAPE  H20S17473   6.355   3.578   4.535 -0.1392  0.3976  0.3699
  157SAPE  H20T17474   6.194   3.531   4.489 -1.2596 -1.6194  1.3559
  157SAPE   C3317475   5.800   3.942   6.119 -0.1817  0.5004 -0.4165
  157SAPE   H3X17476   5.888   3.878   6.097 -0.6705 -0.9752  1.5976
  157SAPE   H3Y17477   5.822   4.017   6.197  0.7774 -0.8167  0.6197
  157SAPE   C3417478   5.750   4.011   5.994 -0.2087  0.2357  0.2270
  157SAPE   H4X17479   5.831   4.074   5.950 -0.3411 -0.3415 -0.8884
  157SAPE   H4Y17480   5.659   4.063   6.030 -1.6646 -0.0261 -2.7552
  157SAPE   C3517481   5.702   3.927   5.883 -0.1484 -0.5679  0.5885
  157SAPE   H5X17482   5.619   3.861   5.915 -1.4655 -0.3165 -2.0019
  157SAPE   H5Y17483   5.779   3.862   5.834 -1.2343  0.7646 -3.2066
  157SAPE   C3617484   5.653   4.020   5.771 -0.5843  0.1102 -0.8157
  157SAPE   H6X17485   5.737   4.093   5.766  2.0367 -2.2785  3.0569
  157SAPE   H6Y17486   5.558   4.075   5.786 -0.8243  0.7610 -4.0575
  157SAPE   C3717487   5.632   3.964   5.626  0.5234  0.4768  0.4714
  157SAPE   H7X17488   5.703   3.889   5.585 -1.7941 -2.0426  0.7665
  157SAPE   H7Y17489   5.644   4.042   5.547  1.5957 -0.7420 -0.6115
  157SAPE   C3817490   5.490   3.894   5.613  0.2228 -0.5961 -0.4921
  157SAPE   H8X17491   5.408   3.963   5.644  0.1448 -0.6262 -0.6326
  157SAPE   H8Y17492   5.498   3.811   5.687  0.8592 -1.4836 -1.5274
  157SAPE   C3917493   5.476   3.834   5.471  0.0379 -0.0685  0.7044
  157SAPE   H9X17494   5.568   3.776   5.451 -0.3540 -0.6568  0.5641
  157SAPE   H9Y17495   5.458   3.926   5.411 -1.5309  0.1106  1.4017
  157SAPE  C31017496   5.359   3.745   5.446 -0.1799 -0.2348 -0.6279
  157SAPE  H10X17497   5.261   3.798   5.452 -0.3462 -0.1328 -3.1981
  157SAPE  H10Y17498   5.358   3.654   5.510  2.7700 -0.6547 -1.0595
  157SAPE  C31117499   5.359   3.680   5.309 -0.3916  0.3024 -0.1372
  157SAPE  H11X17500   5.278   3.604   5.311 -0.9146  0.8490  1.8675
  157SAPE  H11Y17501   5.454   3.630   5.281 -0.4616 -0.2610  0.5914
  157SAPE  C31217502   5.322   3.784   5.205  0.1348  0.2126 -0.0332
  157SAPE  H12X17503   5.406   3.855   5.190 -1.1656  1.3760 -2.3172
  157SAPE  H12Y17504   5.232   3.847   5.221  0.4470  0.7115 -0.2013
  157SAPE  C31317505   5.306   3.717   5.069  0.1968  0.0757  0.2868
  157SAPE  H13X17506   5.248   3.785   5.003  1.2035  0.8325  0.1598
  157SAPE  H13Y17507   5.262   3.615   5.074  0.9719 -0.3565 -1.0023
  157SAPE  C31417508   5.442   3.704   4.998  0.5525  0.5759  0.6410
  157SAPE  H14X17509   5.509   3.625   5.038  3.2580  1.1184 -2.3763
  157SAPE  H14Y17510   5.500   3.799   4.995  2.3604 -0.4738 -1.8590
  157SAPE  C31517511   5.422   3.660   4.852  1.1703  0.1634 -0.8898
  157SAPE  H15X17512   5.365   3.742   4.804  0.9628  0.1995 -0.5868
  157SAPE  H15Y17513   5.371   3.561   4.845 -1.3232  1.2822  0.1442
  157SAPE  C31617514   5.546   3.636   4.765 -0.2327 -0.2453 -0.2546
  157SAPE  H16X17515   5.605   3.560   4.822  1.7210  2.3786  1.4471
  157SAPE  H16Y17516   5.616   3.721   4.761  1.0967 -1.2985  0.0081
  157SAPE  C31717517   5.515   3.576   4.617 -0.5118  0.3671 -0.0819
  157SAPE  H17X17518   5.442   3.492   4.624 -0.4373  0.4132  1.5748
  157SAPE  H17Y17519   5.611   3.552   4.567 -0.1429  1.2788  0.1644
  157SAPE  C31817520   5.443   3.678   4.526 -0.1700 -0.3221  1.0205
  157SAPE  H18X17521   5.478   3.784   4.534  0.8384 -0.4716 -0.7714
  157SAPE  H18Y17522   5.332   3.672   4.534 -0.1723  0.6825  2.0566
  157SAPE  H18Z17523   5.475   3.641   4.426 -0.6854  1.4156  0.1550
  158SAPE     N17524   2.476   3.037   6.197  0.8199  0.0146  0.4994
  158SAPE   HN117525   2.578   3.039   6.220  0.5500  2.1066  1.8674
  158SAPE   HN217526   2.444   3.134   6.179 -0.4513 -0.8382 -2.4176
  158SAPE   HN317527   2.419   3.010   6.279  1.7893 -0.6930  0.9644
  158SAPE   C1217528   2.445   2.945   6.088  0.4579  0.2377  0.2814
  158SAPE  H12A17529   2.336   2.949   6.067  0.6625 -0.6049 -1.0417
  158SAPE  H12B17530   2.478   2.846   6.126  2.5623  0.3258 -1.1089
  158SAPE   C1117531   2.520   2.990   5.962 -0.6473  0.2431 -0.3050
  158SAPE  H11A17532   2.469   3.081   5.923 -1.3882  0.0329  0.1368
  158SAPE  H11B17533   2.509   2.910   5.886 -0.1696 -1.1005  1.0020
  158SAPE     P17534   2.771   2.922   5.984  0.1683  0.2240  0.2193
  158SAPE   O1317535   2.890   2.959   6.069 -0.1556  0.2271 -0.0696
  158SAPE   O1417536   2.701   2.792   6.019 -0.0604 -0.1820  0.4461
  158SAPE   O1217537   2.655   3.030   5.987 -0.1750 -0.1661 -0.1684
  158SAPE   O1117538   2.809   2.915   5.834  0.2308  0.2568 -0.0708
  158SAPE    C117539   2.812   3.040   5.754  0.4632 -0.3123  0.5458
  158SAPE    HA17540   2.709   3.070   5.724  0.0862  0.4872  2.4784
  158SAPE    HB17541   2.852   3.128   5.808  1.7768  0.0575 -0.9596
  158SAPE    C217542   2.907   3.021   5.632  0.0494 -0.3029  0.0612
  158SAPE    HS17543   2.983   2.942   5.651  0.2310 -0.3282 -0.7635
  158SAPE   O2117544   2.964   3.152   5.599  0.2985 -0.1692 -0.1903
  158SAPE   C2117545   3.075   3.187   5.668  0.2907  0.3695 -0.3504
  158SAPE   O2217546   3.135   3.112   5.746  0.2413 -0.3699 -0.1140
  158SAPE   C2217547   3.116   3.328   5.638 -0.6832  0.1637  0.6322
  158SAPE   H2R17548   3.098   3.371   5.538  1.1521  0.2270  0.2921
  158SAPE   H2S17549   3.058   3.386   5.712 -1.3305 -1.5991  1.5770
  158SAPE    C317550   2.832   2.965   5.509 -0.3218 -0.2462  0.2571
  158SAPE    HX17551   2.784   3.052   5.460 -0.0348  2.1847  3.9193
  158SAPE    HY17552   2.760   2.892   5.551 -2.5777  1.0009 -1.2348
  158SAPE   O3117553   2.919   2.893   5.423 -0.2457  0.1170  0.5598
  158SAPE   C3117554   2.963   2.967   5.316  0.4238 -0.5929 -0.0329
  158SAPE   O3217555   2.935   3.084   5.290  0.3188  0.2163  0.3579
  158SAPE   C3217556   3.063   2.877   5.244 -0.7124 -0.1376  0.0673
  158SAPE   H2X17557   3.066   2.773   5.283 -2.0006 -0.8797 -1.6853
  158SAPE   H2Y17558   3.162   2.914   5.277 -0.2569 -1.9773  0.8903
  158SAPE   C2317559   3.260   3.369   5.662  0.1319  0.2627 -0.0118
  158SAPE   H3R17560   3.284   3.362   5.770  0.1462  0.9462  0.0318
  158SAPE   H3S17561   3.254   3.478   5.642 -3.1480  0.0700 -0.5452
  158SAPE   C2417562   3.363   3.299   5.574  0.8423  0.0201  0.1645
  158SAPE   H4R17563   3.365   3.196   5.616 -0.0070 -1.0462 -2.2208
  158SAPE   H4S17564   3.457   3.352   5.601  0.3659 -0.5678  3.2875
  158SAPE   C2517565   3.334   3.296   5.428 -0.4919 -0.3355 -0.0018
  158SAPE   H5R17566   3.283   3.204   5.396  0.4610 -1.7754  2.3698
  158SAPE   C2617567   3.365   3.392   5.341 -0.6456 -0.6060 -0.0892
  158SAPE   H6R17568   3.329   3.372   5.239  0.6863 -2.3572 -0.2760
  158SAPE   C2717569   3.427   3.528   5.361 -1.1133 -0.2438 -0.1989
  158SAPE   H7R17570   3.538   3.523   5.360 -0.9780  1.7306  0.2509
  158SAPE   H7S17571   3.405   3.571   5.461 -1.6550 -0.2252 -0.3227
  158SAPE   C2817572   3.373   3.621   5.255 -0.5976  0.7244  0.4424
  158SAPE   H8R17573   3.283   3.675   5.287 -1.2985 -0.2672  0.1836
  158SAPE   C2917574   3.428   3.648   5.139  0.2298  0.1280 -0.5752
  158SAPE   H9R17575   3.393   3.733   5.079  0.8462  0.6934 -0.1497
  158SAPE  C21017576   3.558   3.586   5.090 -0.1614 -0.5649  0.4362
  158SAPE  H10R17577   3.585   3.488   5.135  0.0637  0.3813  2.4801
  158SAPE  H10S17578   3.640   3.659   5.109  0.5258 -0.6398 -1.9789
  158SAPE  C21117579   3.555   3.554   4.942  0.3174  0.4591  1.0634
  158SAPE  H11R17580   3.483   3.477   4.911  0.5998 -0.2597  2.1438
  158SAPE  C21217581   3.630   3.615   4.851  0.0625  0.0547  0.1994
  158SAPE  H12R17582   3.621   3.566   4.752  3.1747  0.9276 -0.6230
  158SAPE  C21317583   3.726   3.726   4.873  0.1158  0.0962  0.1038
  158SAPE  H13R17584   3.767   3.750   4.974  0.5225 -0.3425  0.0503
  158SAPE  H13S17585   3.674   3.818   4.840 -0.0271 -0.1102 -0.2483
  158SAPE  C21417586   3.844   3.719   4.777 -1.3520 -0.4571 -0.5755
  158SAPE  H14R17587   3.934   3.682   4.828 -2.3376 -3.4576 -0.8269
  158SAPE  C21517588   3.847   3.743   4.644 -0.3175  0.3363 -0.4605
  158SAPE  H15R17589   3.945   3.736   4.595  1.8983 -2.5940  3.7906
  158SAPE  C21617590   3.733   3.804   4.568  0.6604 -0.1767  0.2999
  158SAPE  H16R17591   3.638   3.820   4.624  0.5316 -1.4328  0.4651
  158SAPE  H16S17592   3.712   3.751   4.473  2.0405  0.9221 -0.6598
  158SAPE  C21717593   3.774   3.947   4.519 -0.2275  0.1234 -0.3175
  158SAPE  H17R17594   3.861   3.942   4.449 -0.9035 -0.3034 -1.1456
  158SAPE  H17S17595   3.801   4.014   4.603  3.1361 -0.9871 -0.3487
  158SAPE  C21817596   3.660   4.031   4.452 -0.0849 -0.2283 -0.2509
  158SAPE  H18R17597   3.566   3.995   4.499  0.7561 -0.3363  1.4277
  158SAPE  H18S17598   3.672   4.008   4.345  3.7921 -0.2053  0.0389
  158SAPE  C21917599   3.677   4.179   4.462  0.7249 -0.7808 -0.3684
  158SAPE  H19R17600   3.676   4.214   4.568  0.6952 -0.4691 -0.4698
  158SAPE  H19S17601   3.588   4.233   4.425  0.6261 -1.5075 -1.2082
  158SAPE  C22017602   3.804   4.231   4.395 -0.4735 -0.3061 -0.3847
  158SAPE  H20R17603   3.810   4.181   4.295  0.6406  0.1138 -0.5518
  158SAPE  H20S17604   3.897   4.203   4.450  0.5089  1.3835 -1.1052
  158SAPE  H20T17605   3.807   4.342   4.392 -0.1600 -0.2111  1.9277
  158SAPE   C3317606   3.051   2.872   5.096  0.2927  0.2069  0.0987
  158SAPE   H3X17607   3.032   2.971   5.048  0.2702 -0.1902 -0.7337
  158SAPE   H3Y17608   2.959   2.810   5.083 -0.3337  0.2522  3.3958
  158SAPE   C3417609   3.169   2.802   5.030  0.3349 -0.2920 -1.0024
  158SAPE   H4X17610   3.175   2.699   5.069  1.9449  0.5646  1.1980
  158SAPE   H4Y17611   3.266   2.847   5.060  0.2513 -0.7371 -0.0445
  158SAPE   C3517612   3.171   2.802   4.877  0.4040 -0.2424  0.1812
  158SAPE   H5X17613   3.218   2.897   4.844  1.0973 -0.2478  1.0987
  158SAPE   H5Y17614   3.065   2.795   4.844  0.3231  1.6724 -0.0787
  158SAPE   C3617615   3.255   2.690   4.817 -0.1664  0.0306  0.3097
  158SAPE   H6X17616   3.222   2.600   4.872 -0.1435  0.3067  0.7809
  158SAPE   H6Y17617   3.362   2.720   4.826  0.2567 -1.5360  0.7877
  158SAPE   C3717618   3.231   2.670   4.665  0.2140 -0.0183  1.0249
  158SAPE   H7X17619   3.267   2.759   4.610 -3.5618  2.3378  1.9809
  158SAPE   H7Y17620   3.123   2.666   4.637  0.5731  0.1833 -0.4146
  158SAPE   C3817621   3.291   2.540   4.603 -0.6500 -0.8328 -0.1273
  158SAPE   H8X17622   3.222   2.458   4.635 -0.1800 -1.5406 -0.8705
  158SAPE   H8Y17623   3.395   2.515   4.633  0.8653  2.4761 -2.1001
  158SAPE   C3917624   3.281   2.534   4.449 -0.6959 -0.3469 -0.2392
  158SAPE   H9X17625   3.339   2.444   4.421 -1.6122 -1.0812  0.1625
  158SAPE   H9Y17626   3.326   2.622   4.398 -0.8857 -0.4827 -0.6446
  158SAPE  C31017627   3.140   2.530   4.392  0.0590  0.3938 -0.2856
  158SAPE  H10X17628   3.085   2.619   4.427  0.0209 -0.0530  0.8403
  158SAPE  H10Y17629   3.093   2.443   4.442 -1.4719  1.1663 -0.3366
  158SAPE  C31117630   3.135   2.497   4.244 -0.2796 -0.4791  0.3049
  158SAPE  H11X17631   3.174   2.395   4.223  0.7262 -0.0078 -0.2249
  158SAPE  H11Y17632   3.190   2.577   4.189  0.5930 -0.0462  1.7771
  158SAPE  C31217633   2.992   2.515   4.193 -0.3651 -0.7184  0.4893
  158SAPE  H12X17634   2.946   2.607   4.236  1.8538  2.3028 -2.9692
  158SAPE  H12Y17635   2.944   2.425   4.235 -2.0328 -0.0492  0.1118
  158SAPE  C31317636   2.993   2.520   4.043  0.5251  0.6342 -0.8287
  158SAPE  H13X17637   2.884   2.502   4.031  0.4571  1.2813 -1.2083
  158SAPE  H13Y17638   3.044   2.429   4.003 -1.0281 -1.7971  2.2578
  158SAPE  C31417639   3.046   2.651   3.983 -0.2033  0.2008  0.1361
  158SAPE  H14X17640   3.156   2.659   4.000 -0.0160 -1.9072  0.2824
  158SAPE  H14Y17641   3.003   2.743   4.027 -0.1273  0.6105 -0.6221
  158SAPE  C31517642   3.026   2.641   3.830 -0.1190  0.4001 -0.0511
  158SAPE  H15X17643   2.920   2.629   3.799 -0.0626  0.3028 -0.2071
  158SAPE  H15Y17644   3.089   2.554   3.800  4.2504  2.3146  2.6826
  158SAPE  C31617645   3.083   2.766   3.774 -0.1383 -0.0743  0.6388
  158SAPE  H16X17646   3.082   2.748   3.665  1.1262 -2.6116  0.9548
  158SAPE  H16Y17647   3.191   2.778   3.799 -0.4905  0.5957  1.9535
  158SAPE  C31717648   3.006   2.898   3.807 -0.1700 -0.0348  0.2352
  158SAPE  H17X17649   3.013   2.927   3.915  1.0711 -0.1250  0.1828
  158SAPE  H17Y17650   2.901   2.874   3.779 -0.0486 -0.6685  0.3203
  158SAPE  C31817651   3.056   3.020   3.736 -0.1716  0.9786  0.0582
  158SAPE  H18X17652   3.092   2.992   3.635 -2.4245 -0.1554 -0.4983
  158SAPE  H18Y17653   3.141   3.063   3.793  0.9932 -0.6454 -0.3713
  158SAPE  H18Z17654   2.978   3.098   3.746 -1.6432 -0.5734  1.4050
  159SAPE     N17655   0.627   6.196   2.209  0.0286 -0.7895  0.8095
  159SAPE   HN117656   0.672   6.276   2.160  0.3274 -0.9069  0.8966
  159SAPE   HN217657   0.592   6.118   2.149 -1.0788  1.0194 -1.0536
  159SAPE   HN317658   0.539   6.226   2.257  0.3844  1.0945  0.3699
  159SAPE   C1217659   0.723   6.145   2.305  0.1968  0.2407 -0.7457
  159SAPE  H12A17660   0.676   6.066   2.368  0.3622 -0.0494 -0.9796
  159SAPE  H12B17661   0.744   6.229   2.374 -1.0645  0.0706 -0.1172
  159SAPE   C1117662   0.852   6.075   2.247  0.3334 -0.0416  0.3546
  159SAPE  H11A17663   0.821   5.969   2.232  1.9003 -0.4077 -0.5997
  159SAPE  H11B17664   0.915   6.084   2.337  1.5965 -0.6546 -0.4385
  159SAPE     P17665   1.018   6.257   2.136  0.2432 -0.1687 -0.1618
  159SAPE   O1317666   1.125   6.202   2.221 -0.3687 -0.6860 -0.3175
  159SAPE   O1417667   1.050   6.303   1.999  0.0287  0.0115  0.4077
  159SAPE   O1217668   0.905   6.143   2.126  0.0517  0.3672  0.1718
  159SAPE   O1117669   0.924   6.359   2.225  0.5239  0.6594  0.0446
  159SAPE    C117670   0.950   6.499   2.213 -0.2337  0.2420 -0.6681
  159SAPE    HA17671   0.991   6.524   2.113  1.7089  1.3992  0.3605
  159SAPE    HB17672   0.855   6.555   2.225 -0.8755 -1.0375  0.5718
  159SAPE    C217673   1.046   6.542   2.322 -0.2757 -0.1298 -0.0678
  159SAPE    HS17674   1.141   6.488   2.303 -0.4638 -0.1752 -0.9097
  159SAPE   O2117675   0.995   6.505   2.447 -0.5772 -0.4288  0.2501
  159SAPE   C2117676   1.072   6.516   2.555  0.5752  0.2498  0.3480
  159SAPE   O2217677   1.192   6.537   2.555 -0.2731 -0.0552  0.4305
  159SAPE   C2217678   0.996   6.477   2.693 -0.5726 -1.3571  0.3783
  159SAPE   H2R17679   1.015   6.371   2.721 -0.2445 -1.0821  1.2427
  159SAPE   H2S17680   1.038   6.552   2.763 -1.3877 -0.6824  0.1530
  159SAPE    C317681   1.071   6.703   2.316 -0.2673 -0.0449  0.8385
  159SAPE    HX17682   1.137   6.725   2.229 -0.3854 -0.4906  0.6335
  159SAPE    HY17683   1.135   6.726   2.404  0.2478  0.9680  0.2163
  159SAPE   O3117684   0.948   6.771   2.309 -0.7441 -0.3619 -0.1468
  159SAPE   C3117685   0.909   6.849   2.412 -0.1390  0.0395 -0.0768
  159SAPE   O3217686   0.941   6.838   2.527 -0.0993 -0.2136 -0.1020
  159SAPE   C3217687   0.796   6.944   2.364  0.4353  0.6817 -0.7018
  159SAPE   H2X17688   0.706   6.898   2.408  0.7221  1.0931  0.3797
  159SAPE   H2Y17689   0.786   6.935   2.254 -0.6492 -1.1354 -0.4862
  159SAPE   C2317690   0.843   6.501   2.665  0.9055 -0.3501 -0.3016
  159SAPE   H3R17691   0.797   6.439   2.585 -1.0272 -1.0718  1.2713
  159SAPE   H3S17692   0.819   6.607   2.645  1.5934 -0.3370 -1.1060
  159SAPE   C2417693   0.764   6.460   2.791 -0.0327  0.3793  0.1387
  159SAPE   H4R17694   0.811   6.501   2.883  2.8142  0.6568 -1.3198
  159SAPE   H4S17695   0.800   6.355   2.799  0.7408  0.5797 -0.5623
  159SAPE   C2517696   0.609   6.457   2.801 -0.5833  0.1051 -0.7489
  159SAPE   H5R17697   0.548   6.465   2.710  0.7762  0.1387 -1.6894
  159SAPE   C2617698   0.542   6.456   2.924 -0.5039 -0.5160  0.6699
  159SAPE   H6R17699   0.436   6.482   2.912 -0.1346  0.7784 -0.0017
  159SAPE   C2717700   0.605   6.471   3.059  1.1775 -0.3359 -0.0259
  159SAPE   H7R17701   0.578   6.566   3.110  1.1359 -0.7240  0.6914
  159SAPE   H7S17702   0.716   6.472   3.048  1.1880  1.0011 -0.0286
  159SAPE   C2817703   0.562   6.353   3.147 -0.1551  0.2032  0.5575
  159SAPE   H8R17704   0.588   6.254   3.107 -0.3817  0.0177  0.8707
  159SAPE   C2917705   0.498   6.367   3.266 -0.0130  0.9257 -0.8889
  159SAPE   H9R17706   0.473   6.277   3.324 -0.6790 -0.4562 -3.2062
  159SAPE  C21017707   0.454   6.493   3.341  0.2774  0.0253  0.8000
  159SAPE  H10R17708   0.440   6.582   3.275  0.4253  0.3392  1.1931
  159SAPE  H10S17709   0.539   6.535   3.399  1.3282  0.6242 -1.0789
  159SAPE  C21117710   0.338   6.475   3.435 -0.2574  0.3204 -0.6045
  159SAPE  H11R17711   0.237   6.475   3.392 -0.6636 -0.2132  0.3263
  159SAPE  C21217712   0.356   6.423   3.558  0.3028  0.7946  0.0970
  159SAPE  H12R17713   0.266   6.400   3.618 -0.2562 -0.0254 -1.0141
  159SAPE  C21317714   0.487   6.396   3.632  0.2219  0.3007 -0.3278
  159SAPE  H13R17715   0.523   6.489   3.681  1.2283 -0.5430  0.5806
  159SAPE  H13S17716   0.566   6.371   3.558  1.0601 -1.4907  1.0993
  159SAPE  C21417717   0.459   6.299   3.743 -0.1394  0.2152  1.0974
  159SAPE  H14R17718   0.466   6.194   3.711  0.1953  0.9011 -1.2962
  159SAPE  C21517719   0.425   6.326   3.868 -0.0965  0.1205  0.9689
  159SAPE  H15R17720   0.395   6.241   3.931 -0.4815 -0.8155 -0.4326
  159SAPE  C21617721   0.407   6.467   3.933  0.2179  0.0289  0.1644
  159SAPE  H16R17722   0.407   6.547   3.857 -1.2919 -0.9235 -0.8838
  159SAPE  H16S17723   0.480   6.483   4.016 -0.8057 -0.1323  1.1279
  159SAPE  C21717724   0.269   6.481   3.994 -0.0955  0.4207 -0.7117
  159SAPE  H17R17725   0.266   6.405   4.075  1.6681 -0.4263 -1.3970
  159SAPE  H17S17726   0.190   6.461   3.919 -4.2136 -0.7812  3.4301
  159SAPE  C21817727   0.250   6.623   4.043 -0.1304 -0.3540 -0.6272
  159SAPE  H18R17728   0.239   6.694   3.958  0.6345 -0.8712 -1.1700
  159SAPE  H18S17729   0.342   6.656   4.096 -0.1329 -1.0394 -0.1907
  159SAPE  C21917730   0.128   6.650   4.130 -0.0036 -0.5014 -0.6051
  159SAPE  H19R17731   0.162   6.615   4.230  1.8200  0.3827 -0.8738
  159SAPE  H19S17732   0.046   6.582   4.097  1.4921 -2.4692 -0.4512
  159SAPE  C22017733   0.077   6.791   4.126  0.0320  0.6280 -1.1488
  159SAPE  H20R17734   0.147   6.856   4.184  1.1123 -1.6120  0.2087
  159SAPE  H20S17735  -0.021   6.804   4.176  0.8843  1.4088  0.3903
  159SAPE  H20T17736   0.062   6.826   4.022  0.2224  0.5087 -1.2178
  159SAPE   C3317737   0.791   7.091   2.408 -0.2975 -0.3091 -0.2910
  159SAPE   H3X17738   0.714   7.147   2.351 -2.0275 -0.4059  1.7860
  159SAPE   H3Y17739   0.889   7.133   2.378 -0.5437  0.0363 -0.6156
  159SAPE   C3417740   0.759   7.102   2.556 -0.8021  0.1445  0.1677
  159SAPE   H4X17741   0.842   7.059   2.616  0.0735  2.3504  0.6189
  159SAPE   H4Y17742   0.668   7.039   2.570  0.2891 -1.8276 -1.2127
  159SAPE   C3517743   0.728   7.247   2.602 -0.3368  0.0091  0.0008
  159SAPE   H5X17744   0.620   7.270   2.599  0.1424  2.4023 -0.8595
  159SAPE   H5Y17745   0.786   7.310   2.531  1.4179 -0.5262  0.8790
  159SAPE   C3617746   0.774   7.276   2.741 -0.3185 -0.0877 -0.4706
  159SAPE   H6X17747   0.762   7.189   2.808  1.0218 -2.7859 -3.4734
  159SAPE   H6Y17748   0.708   7.355   2.782 -0.3364 -0.8930  1.1202
  159SAPE   C3717749   0.917   7.322   2.738  0.0024  0.2630  0.5801
  159SAPE   H7X17750   0.920   7.419   2.684 -1.1387 -0.6198 -1.1645
  159SAPE   H7Y17751   0.970   7.247   2.676  1.8202  0.8825  1.3331
  159SAPE   C3817752   0.991   7.344   2.872  0.3831  0.3260 -0.8296
  159SAPE   H8X17753   1.090   7.382   2.840  1.4223  0.7519  2.5045
  159SAPE   H8Y17754   1.010   7.248   2.924  0.5444  1.5973  1.5865
  159SAPE   C3917755   0.919   7.433   2.979 -0.6488  0.1993 -0.3014
  159SAPE   H9X17756   0.829   7.375   3.009  0.2268  0.1209  2.4853
  159SAPE   H9Y17757   0.895   7.534   2.941  1.2066  0.1209 -1.8095
  159SAPE  C31017758   1.001   7.458   3.112  0.5494 -0.0744  0.4143
  159SAPE  H10X17759   1.093   7.508   3.076 -0.9344  1.3962 -1.5203
  159SAPE  H10Y17760   1.025   7.366   3.169 -1.7681 -0.6824  0.5350
  159SAPE  C31117761   0.910   7.545   3.201 -0.6872 -1.1114 -0.3369
  159SAPE  H11X17762   0.809   7.503   3.179 -1.0155 -0.3305 -0.3828
  159SAPE  H11Y17763   0.905   7.650   3.164  0.8033 -0.4358  1.2392
  159SAPE  C31217764   0.945   7.532   3.346  0.7702 -0.7355  0.3874
  159SAPE  H12X17765   1.038   7.592   3.353 -0.3379  0.9589  1.0652
  159SAPE  H12Y17766   0.960   7.424   3.367 -2.9868 -1.3168  0.7205
  159SAPE  C31317767   0.843   7.593   3.444  0.4468  0.5371  0.5610
  159SAPE  H13X17768   0.763   7.519   3.421 -0.4652  2.0568 -1.3913
  159SAPE  H13Y17769   0.789   7.688   3.426  0.5696  0.0633 -3.1103
  159SAPE  C31417770   0.900   7.581   3.583  0.1185  0.2227  0.5753
  159SAPE  H14X17771   0.931   7.682   3.616  0.4017 -0.0615  1.2035
  159SAPE  H14Y17772   0.986   7.511   3.581 -1.3346 -1.6525 -0.1535
  159SAPE  C31517773   0.789   7.511   3.671  0.2648  0.2481  0.1119
  159SAPE  H15X17774   0.754   7.413   3.633 -2.1442  0.5373  1.3983
  159SAPE  H15Y17775   0.700   7.577   3.671  0.1594  0.1193  0.9019
  159SAPE  C31617776   0.831   7.496   3.814 -0.0670 -0.5567 -0.4775
  159SAPE  H16X17777   0.939   7.472   3.824 -0.4977 -1.5579  3.9852
  159SAPE  H16Y17778   0.772   7.414   3.861  0.2961 -1.4916 -1.6011
  159SAPE  C31717779   0.815   7.629   3.893 -0.4698  0.3290 -0.6177
  159SAPE  H17X17780   0.715   7.665   3.923  0.6281  1.3035  2.2482
  159SAPE  H17Y17781   0.879   7.704   3.842 -0.4532  1.2472  0.7210
  159SAPE  C31817782   0.883   7.627   4.033  0.3411  0.0059 -0.3945
  159SAPE  H18X17783   0.993   7.616   4.032  0.1707 -2.6700 -2.1345
  159SAPE  H18Y17784   0.843   7.547   4.099 -0.9388  0.0111 -1.1128
  159SAPE  H18Z17785   0.852   7.715   4.092 -3.4242 -0.8245 -0.8572
  160SAPE     N17786   6.316   6.630   1.949  0.5289  0.0079  0.1987
  160SAPE   HN117787   6.272   6.699   1.885  1.5735 -1.5645 -2.3575
  160SAPE   HN217788   6.262   6.622   2.037  0.9347 -0.7784  0.3869
  160SAPE   HN317789   6.408   6.668   1.980  0.0840  0.8381  0.5297
  160SAPE   C1217790   6.329   6.506   1.868  0.6809  0.4982  0.3986
  160SAPE  H12A17791   6.434   6.497   1.833  0.4829 -0.7937  0.0805
  160SAPE  H12B17792   6.265   6.520   1.779 -0.2870 -0.2775  0.9534
  160SAPE   C1117793   6.290   6.379   1.943  0.9016 -0.5929  0.5973
  160SAPE  H11A17794   6.297   6.297   1.868 -2.4909 -2.4615  2.0683
  160SAPE  H11B17795   6.182   6.374   1.970 -0.0249  1.0904 -2.3336
  160SAPE     P17796   6.373   6.252   2.156  0.3472 -0.3724  0.4185
  160SAPE   O1317797   6.289   6.144   2.104  0.9260  0.0455 -0.3048
  160SAPE   O1417798   6.510   6.214   2.206  0.3108 -0.0002  0.0520
  160SAPE   O1217799   6.389   6.363   2.046  0.7145  0.4267  0.1997
  160SAPE   O1117800   6.299   6.343   2.267 -0.2873 -0.1801  0.2416
  160SAPE    C117801   6.374   6.408   2.366  0.4450  0.0435 -1.1495
  160SAPE    HA17802   6.476   6.430   2.329  0.8643  1.0236  0.4987
  160SAPE    HB17803   6.334   6.509   2.388 -1.6105 -0.9300 -0.1379
  160SAPE    C217804   6.387   6.334   2.502  0.0817  0.4477 -0.0699
  160SAPE    HS17805   6.405   6.227   2.479 -2.1927 -0.1286  0.5892
  160SAPE   O2117806   6.262   6.352   2.576  0.3272  0.0604  0.4138
  160SAPE   C2117807   6.206   6.248   2.638 -0.3452 -0.0282  0.7220
  160SAPE   O2217808   6.245   6.134   2.622 -0.4616  0.2816 -0.3002
  160SAPE   C2217809   6.099   6.295   2.727 -0.0721 -0.0418 -0.4050
  160SAPE   H2R17810   6.121   6.389   2.782 -0.0917 -0.7568  0.8607
  160SAPE   H2S17811   6.010   6.318   2.665 -0.0097 -1.2080 -0.9629
  160SAPE    C317812   6.503   6.394   2.589  0.7817 -0.3667  0.0490
  160SAPE    HX17813   6.481   6.497   2.623  0.4766 -0.9954  1.8801
  160SAPE    HY17814   6.595   6.405   2.528  1.5250 -0.7258  1.0658
  160SAPE   O3117815   6.534   6.317   2.710 -0.7542 -0.1402  0.2518
  160SAPE   C3117816   6.467   6.336   2.822 -1.0622  0.2744  0.4879
  160SAPE   O3217817   6.368   6.405   2.838 -0.5002 -0.2472  0.2421
  160SAPE   C3217818   6.523   6.247   2.933 -0.6730 -0.4939 -0.7685
  160SAPE   H2X17819   6.629   6.219   2.915 -0.4875  0.2503 -0.8739
  160SAPE   H2Y17820   6.472   6.150   2.947 -0.5879 -0.3241  1.0433
  160SAPE   C2317821   6.036   6.187   2.821 -0.4159 -0.3128  0.0736
  160SAPE   H3R17822   6.004   6.097   2.764 -1.8966  0.0407  0.3243
  160SAPE   H3S17823   5.933   6.218   2.847 -1.7098 -2.1640 -2.4263
  160SAPE   C2417824   6.115   6.167   2.950 -0.8975  0.0579  0.6307
  160SAPE   H4R17825   6.223   6.153   2.929 -0.8465  0.1506  0.8298
  160SAPE   H4S17826   6.074   6.074   2.993  1.1874 -1.6215 -0.8254
  160SAPE   C2517827   6.095   6.278   3.048  0.5257  0.2988 -0.2952
  160SAPE   H5R17828   6.134   6.376   3.017 -0.0929  0.5330 -0.3553
  160SAPE   C2617829   6.038   6.277   3.171  0.8614  0.5244 -0.0042
  160SAPE   H6R17830   6.060   6.353   3.248  0.2899 -0.1906  0.8825
  160SAPE   C2717831   5.981   6.154   3.236  0.2603 -0.4124  0.0036
  160SAPE   H7R17832   5.957   6.077   3.160  2.2564 -1.5417  0.4339
  160SAPE   H7S17833   5.890   6.179   3.294 -0.2854 -0.2087 -0.9266
  160SAPE   C2817834   6.090   6.112   3.331 -0.4157  0.6585  0.4521
  160SAPE   H8R17835   6.191   6.100   3.290 -0.2437  1.2863  0.6768
  160SAPE   C2917836   6.073   6.099   3.459 -0.1607 -0.1515  0.5500
  160SAPE   H9R17837   6.161   6.072   3.520 -0.2387  0.8798  1.1500
  160SAPE  C21017838   5.953   6.133   3.534  0.5888 -0.2729 -0.2960
  160SAPE  H10R17839   5.950   6.073   3.627 -1.7662  1.2241  0.6779
  160SAPE  H10S17840   5.862   6.103   3.479 -0.6524  1.1010  0.9386
  160SAPE  C21117841   5.951   6.285   3.575 -0.7198 -0.0601 -0.1520
  160SAPE  H11R17842   5.905   6.352   3.501 -0.4817 -2.8838 -3.1315
  160SAPE  C21217843   5.988   6.335   3.694 -0.5221 -0.2346 -0.3692
  160SAPE  H12R17844   5.968   6.443   3.706 -0.3420 -0.3389  1.0312
  160SAPE  C21317845   6.046   6.275   3.821 -0.0124 -0.2705 -0.0947
  160SAPE  H13R17846   5.993   6.179   3.838  0.9905 -0.3849  3.1684
  160SAPE  H13S17847   6.007   6.334   3.907 -2.0698 -0.3593 -0.9086
  160SAPE  C21417848   6.200   6.258   3.821  0.5991 -0.3675  0.0931
  160SAPE  H14R17849   6.261   6.329   3.764  0.0130  0.1294  0.0824
  160SAPE  C21517850   6.262   6.153   3.875  0.0277 -0.1045  1.0132
  160SAPE  H15R17851   6.372   6.151   3.867  0.0291 -0.1480  1.0425
  160SAPE  C21617852   6.201   6.027   3.943 -0.5943 -0.2615  0.3000
  160SAPE  H16R17853   6.244   5.930   3.911 -1.7271 -1.2571  1.6671
  160SAPE  H16S17854   6.091   6.014   3.931 -0.4646 -0.1438 -1.1543
  160SAPE  C21717855   6.235   6.035   4.095  0.5807 -0.1163  0.0747
  160SAPE  H17R17856   6.211   6.136   4.134  2.9386  0.6117 -0.2164
  160SAPE  H17S17857   6.345   6.029   4.110  0.3023 -0.0972  2.7600
  160SAPE  C21817858   6.160   5.935   4.177  0.5229  0.5225 -0.3057
  160SAPE  H18R17859   6.181   5.834   4.134 -1.4979  0.4096 -1.1799
  160SAPE  H18S17860   6.050   5.931   4.159  0.4856 -3.2625 -0.1246
  160SAPE  C21917861   6.176   5.951   4.332 -0.5115 -0.4762  0.2272
  160SAPE  H19R17862   6.098   6.026   4.356  1.2088  1.4357  0.1293
  160SAPE  H19S17863   6.277   5.995   4.347 -0.1725 -0.6056 -1.4982
  160SAPE  C22017864   6.153   5.818   4.394 -0.3159  0.2689  0.1167
  160SAPE  H20R17865   6.225   5.737   4.371 -0.4439  0.4069 -0.7795
  160SAPE  H20S17866   6.048   5.787   4.377 -0.1917  0.0396 -0.2394
  160SAPE  H20T17867   6.154   5.832   4.505 -0.3004 -0.9645  0.2856
  160SAPE   C3317868   6.515   6.325   3.065 -0.3619 -0.0792  0.5837
  160SAPE   H3X17869   6.415   6.371   3.072 -0.8977 -0.5981 -2.1858
  160SAPE   H3Y17870   6.594   6.402   3.079 -0.9730  0.4062  1.4010
  160SAPE   C3417871   6.514   6.223   3.181 -0.5351 -0.3748  0.2572
  160SAPE   H4X17872   6.617   6.181   3.188 -0.6888 -0.4013  3.2129
  160SAPE   H4Y17873   6.460   6.132   3.147 -0.4305 -0.3082 -0.0942
  160SAPE   C3517874   6.474   6.274   3.325 -0.9920 -0.0374  1.0818
  160SAPE   H5X17875   6.366   6.298   3.314 -0.7585  0.4281 -0.5337
  160SAPE   H5Y17876   6.546   6.357   3.342 -2.2067  1.7422 -1.6150
  160SAPE   C3617877   6.484   6.173   3.434 -0.3104 -0.6384 -0.4357
  160SAPE   H6X17878   6.585   6.126   3.439  0.6638  1.1749 -1.9169
  160SAPE   H6Y17879   6.406   6.095   3.421 -2.5192  1.4894 -0.7968
  160SAPE   C3717880   6.447   6.241   3.566  0.6044 -0.0504  0.3792
  160SAPE   H7X17881   6.462   6.168   3.649  1.7800 -0.6856 -0.3638
  160SAPE   H7Y17882   6.338   6.263   3.559 -0.1049 -3.1034  0.1565
  160SAPE   C3817883   6.531   6.363   3.610  0.4927 -0.2113 -0.5778
  160SAPE   H8X17884   6.483   6.456   3.573  0.7660 -0.2333 -0.9920
  160SAPE   H8Y17885   6.635   6.353   3.573 -0.4033 -0.9183 -3.0801
  160SAPE   C3917886   6.549   6.375   3.765 -0.2075 -0.7924  0.2224
  160SAPE   H9X17887   6.547   6.282   3.826 -1.2456 -1.4723 -0.7957
  160SAPE   H9Y17888   6.459   6.436   3.788 -1.4341 -2.6230  0.4728
  160SAPE  C31017889   6.671   6.452   3.822  0.3410  0.1944  0.4008
  160SAPE  H10X17890   6.703   6.529   3.748 -0.2551  0.7249  0.6834
  160SAPE  H10Y17891   6.748   6.372   3.820 -1.0731 -1.2074 -0.1223
  160SAPE  C31117892   6.645   6.504   3.968 -0.1527 -0.2846 -0.1206
  160SAPE  H11X17893   6.574   6.589   3.958  1.1341  0.8047 -0.2231
  160SAPE  H11Y17894   6.735   6.562   3.996 -1.5714  2.3040 -0.5947
  160SAPE  C31217895   6.603   6.409   4.078 -0.9040  0.4182 -0.3686
  160SAPE  H12X17896   6.688   6.341   4.102 -1.5987 -0.0028  0.9934
  160SAPE  H12Y17897   6.526   6.339   4.041  1.2076 -2.3043  0.1016
  160SAPE  C31317898   6.555   6.493   4.193  0.5852 -1.0848 -0.2403
  160SAPE  H13X17899   6.467   6.554   4.163  1.9430  1.3698  0.3990
  160SAPE  H13Y17900   6.636   6.561   4.228  1.3305 -2.1319  0.0995
  160SAPE  C31417901   6.519   6.396   4.310  0.0880 -0.1797  0.3031
  160SAPE  H14X17902   6.614   6.367   4.359 -0.9084 -0.4900  2.1480
  160SAPE  H14Y17903   6.467   6.308   4.267 -0.6284  0.0967  0.5859
  160SAPE  C31517904   6.425   6.461   4.419  0.0924 -0.4875 -0.0854
  160SAPE  H15X17905   6.470   6.556   4.456  1.0102 -0.3390 -1.5135
  160SAPE  H15Y17906   6.419   6.391   4.505 -0.4632 -0.8697 -0.4254
  160SAPE  C31617907   6.283   6.474   4.366  0.2006 -0.1662  0.5335
  160SAPE  H16X17908   6.231   6.376   4.351 -2.0467  0.5905  2.6884
  160SAPE  H16Y17909   6.282   6.522   4.266  0.0245 -0.2906  0.4741
  160SAPE  C31717910   6.194   6.561   4.461  0.0935 -0.2779 -0.4723
  160SAPE  H17X17911   6.243   6.658   4.484 -2.6071  0.8513  0.8988
  160SAPE  H17Y17912   6.178   6.506   4.556 -1.8215  0.4299 -0.3414
  160SAPE  C31817913   6.048   6.586   4.416  0.1967 -0.3743 -0.1318
  160SAPE  H18X17914   6.050   6.655   4.329 -1.9709  1.9228  1.4930
  160SAPE  H18Y17915   5.978   6.642   4.481 -0.7984  1.0613 -2.3315
  160SAPE  H18Z17916   5.992   6.494   4.391 -1.7172 -0.0511  2.5327
  161SAPE     N17917   3.650   2.107   1.765  0.3306 -0.7775  0.2111
  161SAPE   HN117918   3.684   2.146   1.855 -1.2177 -0.5469  0.7359
  161SAPE   HN217919   3.654   2.179   1.690 -0.4383 -1.8709 -0.9234
  161SAPE   HN317920   3.549   2.084   1.781  0.5736 -0.6766  2.0690
  161SAPE   C1217921   3.732   1.988   1.709  0.1548 -0.3113 -0.7482
  161SAPE  H12A17922   3.690   1.966   1.608 -0.6048 -2.1814 -0.0829
  161SAPE  H12B17923   3.713   1.903   1.778 -3.7408  0.0962 -1.0916
  161SAPE   C1117924   3.883   2.017   1.708 -0.5521 -0.4313 -0.0422
  161SAPE  H11A17925   3.897   2.079   1.617 -0.8355  0.1615  0.3103
  161SAPE  H11B17926   3.928   1.918   1.688 -0.8576 -1.3167  3.2033
  161SAPE     P17927   4.082   2.087   1.870  0.2202 -0.1243  0.2749
  161SAPE   O1317928   4.155   2.131   1.747 -0.2918  0.0953  0.1241
  161SAPE   O1417929   4.092   2.178   1.988 -0.5113 -0.1956 -0.1722
  161SAPE   O1217930   3.931   2.082   1.827 -0.6110  0.2806  0.3276
  161SAPE   O1117931   4.120   1.943   1.913 -0.0845  0.4281  0.2880
  161SAPE    C117932   4.020   1.848   1.960 -0.2860 -0.1609  0.9649
  161SAPE    HA17933   3.923   1.850   1.906 -0.2709 -2.3186  0.7424
  161SAPE    HB17934   4.051   1.745   1.931  0.2269 -0.0131  0.9740
  161SAPE    C217935   4.012   1.854   2.110  0.4020  0.8485 -0.7249
  161SAPE    HS17936   3.967   1.954   2.130 -0.4265  0.3211  0.0980
  161SAPE   O2117937   4.146   1.829   2.161 -0.1513  0.2484 -0.5856
  161SAPE   C2117938   4.165   1.888   2.276  0.5091 -0.2679  0.1899
  161SAPE   O2217939   4.084   1.964   2.330  0.6816 -0.1322 -0.3178
  161SAPE   C2217940   4.287   1.844   2.343 -0.0470  0.1440 -0.3277
  161SAPE   H2R17941   4.309   1.735   2.336 -1.7618 -0.2110 -0.6550
  161SAPE   H2S17942   4.371   1.883   2.281 -0.9846  0.9260 -1.1394
  161SAPE    C317943   3.921   1.744   2.163 -0.6321  0.1432 -1.2176
  161SAPE    HX17944   3.963   1.646   2.130  0.1505  0.2900 -0.6611
  161SAPE    HY17945   3.824   1.759   2.110 -2.1000  1.1433  1.5952
  161SAPE   O3117946   3.915   1.727   2.316  0.4775 -0.0604  0.0725
  161SAPE   C3117947   3.822   1.814   2.360 -0.2977  0.9905 -0.1562
  161SAPE   O3217948   3.752   1.880   2.290 -0.0734 -0.7091  0.3996
  161SAPE   C3217949   3.834   1.838   2.511 -0.0725  0.3476 -0.1400
  161SAPE   H2X17950   3.774   1.926   2.543 -1.9193 -0.3864 -1.3699
  161SAPE   H2Y17951   3.941   1.848   2.537  0.3443 -2.4331 -0.4732
  161SAPE   C2317952   4.273   1.871   2.496 -0.0128 -0.7914  0.1410
  161SAPE   H3R17953   4.205   1.798   2.544 -1.0509  1.4036  2.2293
  161SAPE   H3S17954   4.243   1.975   2.520  2.9711  0.7388 -2.0114
  161SAPE   C2417955   4.406   1.855   2.569  0.9669  0.1448 -0.3232
  161SAPE   H4R17956   4.481   1.916   2.514  0.9506 -0.9680 -1.6310
  161SAPE   H4S17957   4.440   1.751   2.548 -0.3967 -0.0122 -1.9490
  161SAPE   C2517958   4.400   1.876   2.716 -0.1296 -0.0544 -0.6863
  161SAPE   H5R17959   4.327   1.807   2.760  0.1434  0.6384  0.9142
  161SAPE   C2617960   4.469   1.970   2.789 -0.1682  0.6303  0.3738
  161SAPE   H6R17961   4.449   1.976   2.897  1.4732 -3.1293  1.0388
  161SAPE   C2717962   4.580   2.057   2.728  0.1505 -0.5424 -0.1167
  161SAPE   H7R17963   4.543   2.099   2.632 -2.5716 -0.0344  1.0764
  161SAPE   H7S17964   4.681   2.011   2.722  1.0085  1.1749  0.4440
  161SAPE   C2817965   4.604   2.169   2.832  0.7442 -0.2333 -0.1007
  161SAPE   H8R17966   4.527   2.247   2.830 -0.5103 -1.4104  0.8671
  161SAPE   C2917967   4.686   2.181   2.938 -0.4089 -0.4878  0.7516
  161SAPE   H9R17968   4.698   2.283   2.977  2.1615 -1.4305  2.7763
  161SAPE  C21017969   4.790   2.085   2.985  0.1908  0.9334  0.4593
  161SAPE  H10R17970   4.864   2.128   3.054  3.2570 -1.6316 -0.9391
  161SAPE  H10S17971   4.838   2.048   2.891  0.3342 -0.7903  1.1653
  161SAPE  C21117972   4.719   1.969   3.052  0.0163 -0.4278 -0.2660
  161SAPE  H11R17973   4.728   1.872   3.001 -1.4875 -2.5193  3.0226
  161SAPE  C21217974   4.679   1.965   3.180  0.2496 -0.6828  0.3338
  161SAPE  H12R17975   4.633   1.867   3.197  0.3991 -1.2701 -2.3001
  161SAPE  C21317976   4.647   2.072   3.277 -0.1977  0.2005  0.1692
  161SAPE  H13R17977   4.578   2.028   3.353 -1.7965  3.5999  0.8764
  161SAPE  H13S17978   4.583   2.142   3.220  0.6417 -0.7647 -2.0414
  161SAPE  C21417979   4.762   2.127   3.354 -0.4028  0.4026 -0.1661
  161SAPE  H14R17980   4.831   2.173   3.283 -0.5506  1.9261  0.6265
  161SAPE  C21517981   4.793   2.112   3.486  0.4760 -0.4497 -0.9803
  161SAPE  H15R17982   4.884   2.164   3.517 -1.3515  3.7004 -1.8723
  161SAPE  C21617983   4.697   2.055   3.590  0.8534 -0.3024  0.0900
  161SAPE  H16R17984   4.757   1.978   3.645  0.6540 -0.3616  0.2290
  161SAPE  H16S17985   4.613   1.993   3.550  0.5114 -0.1890  0.6140
  161SAPE  C21717986   4.634   2.163   3.688 -0.0587  0.2907  0.4162
  161SAPE  H17R17987   4.540   2.192   3.636 -0.2843 -0.4783  0.3795
  161SAPE  H17S17988   4.678   2.265   3.685 -1.7114  1.0403  0.7845
  161SAPE  C21817989   4.601   2.126   3.833 -0.7764 -0.3255  0.0260
  161SAPE  H18R17990   4.533   2.037   3.833 -1.6056  0.2955 -0.7071
  161SAPE  H18S17991   4.539   2.209   3.873 -2.8517 -1.2546 -1.0890
  161SAPE  C21917992   4.729   2.107   3.924  0.2808 -0.1200 -0.6269
  161SAPE  H19R17993   4.788   2.202   3.928  0.3564 -0.2003  0.5569
  161SAPE  H19S17994   4.794   2.030   3.877 -0.8310 -1.2501 -0.3595
  161SAPE  C22017995   4.693   2.059   4.063 -0.7451 -0.0303  0.3961
  161SAPE  H20R17996   4.642   1.960   4.058  1.7129 -1.3698  0.1801
  161SAPE  H20S17997   4.632   2.137   4.112  0.8410  2.2930 -1.1132
  161SAPE  H20T17998   4.790   2.044   4.117 -0.4586 -0.0252 -0.1132
  161SAPE   C3317999   3.788   1.718   2.600 -0.3411 -0.1639  0.4145
  161SAPE   H3X18000   3.837   1.621   2.579  1.4719 -0.2200  4.1039
  161SAPE   H3Y18001   3.677   1.705   2.597 -0.2434 -1.2928  1.0692
  161SAPE   C3418002   3.831   1.735   2.742  0.2341  0.2201  0.3560
  161SAPE   H4X18003   3.802   1.837   2.773  1.5600  1.5339 -2.3948
  161SAPE   H4Y18004   3.942   1.732   2.751  0.2006  0.4403  0.8749
  161SAPE   C3518005   3.788   1.612   2.826 -0.8433  0.0725  0.4350
  161SAPE   H5X18006   3.828   1.520   2.779  1.2060  2.1006 -2.0991
  161SAPE   H5Y18007   3.679   1.592   2.837 -0.5329 -2.1433 -0.1473
  161SAPE   C3618008   3.839   1.649   2.968 -0.0088 -0.6263 -0.1578
  161SAPE   H6X18009   3.780   1.735   3.007  1.5293 -0.3085  1.5519
  161SAPE   H6Y18010   3.945   1.680   2.964  0.2219 -1.0868  1.6644
  161SAPE   C3718011   3.831   1.538   3.072  0.6598 -0.5596 -0.2122
  161SAPE   H7X18012   3.914   1.467   3.054  1.4629  0.9060 -2.8891
  161SAPE   H7Y18013   3.737   1.480   3.065  0.9433 -0.8466 -2.4957
  161SAPE   C3818014   3.835   1.592   3.212  0.4039  0.1786 -0.3414
  161SAPE   H8X18015   3.751   1.664   3.219 -0.0327 -0.1718 -1.8253
  161SAPE   H8Y18016   3.929   1.648   3.234 -0.0606  1.3190 -1.2182
  161SAPE   C3918017   3.827   1.480   3.320 -0.2307 -0.0930  0.1528
  161SAPE   H9X18018   3.917   1.414   3.319  0.3209  0.5972  1.5897
  161SAPE   H9Y18019   3.740   1.414   3.301  0.2264 -0.4205 -0.9059
  161SAPE  C31018020   3.807   1.533   3.460  0.0553  0.4842 -0.7814
  161SAPE  H10X18021   3.708   1.582   3.453 -0.0780  0.1601 -1.2563
  161SAPE  H10Y18022   3.887   1.609   3.469  0.9085 -0.6142  1.7159
  161SAPE  C31118023   3.818   1.433   3.567  0.1693 -0.1783 -0.0452
  161SAPE  H11X18024   3.925   1.405   3.583  0.8043  1.8718 -0.3746
  161SAPE  H11Y18025   3.762   1.338   3.550  1.0506 -0.6677 -0.2972
  161SAPE  C31218026   3.769   1.483   3.708  0.2396 -0.0151  0.7075
  161SAPE  H12X18027   3.659   1.498   3.704  0.0028 -0.7789  3.0103
  161SAPE  H12Y18028   3.810   1.585   3.724 -0.3973  0.3731 -0.0765
  161SAPE  C31318029   3.808   1.390   3.822  0.2758  0.2483  0.1046
  161SAPE  H13X18030   3.915   1.402   3.848  0.7590 -2.0349 -0.5980
  161SAPE  H13Y18031   3.816   1.290   3.775  1.4414  0.2312  0.3014
  161SAPE  C31418032   3.713   1.389   3.937 -0.7224  0.6725 -0.1289
  161SAPE  H14X18033   3.613   1.420   3.900 -0.8635  0.6261  0.2123
  161SAPE  H14Y18034   3.733   1.446   4.030 -1.1806 -2.2275  1.9002
  161SAPE  C31518035   3.686   1.243   3.991  0.3731 -0.2167  0.1467
  161SAPE  H15X18036   3.670   1.247   4.101 -1.6086 -1.2378 -0.0581
  161SAPE  H15Y18037   3.780   1.184   3.980 -0.2850 -1.5003  1.1164
  161SAPE  C31618038   3.576   1.160   3.924 -0.0579 -0.0666  0.0105
  161SAPE  H16X18039   3.614   1.127   3.825  0.9503  0.5318  0.1903
  161SAPE  H16Y18040   3.484   1.221   3.917  0.0918  0.2468  0.6647
  161SAPE  C31718041   3.534   1.041   4.002 -0.4643  0.2942 -0.7279
  161SAPE  H17X18042   3.506   1.073   4.105  1.6380 -1.1362  0.3521
  161SAPE  H17Y18043   3.627   0.981   4.013 -1.2097 -0.8590 -0.6094
  161SAPE  C31818044   3.425   0.960   3.933 -0.6954  0.6304  0.0768
  161SAPE  H18X18045   3.467   0.932   3.834  2.0431  4.4417 -0.0582
  161SAPE  H18Y18046   3.345   1.032   3.906  0.3925  1.7659 -0.2147
  161SAPE  H18Z18047   3.407   0.868   3.992  0.4068  1.1969  1.3521
  162SAPE     N18048   0.135   3.704   2.886  0.1789  0.7212 -0.1450
  162SAPE   HN118049   0.034   3.727   2.882 -0.7343 -2.6598  0.6026
  162SAPE   HN218050   0.172   3.693   2.983  1.9057 -0.8634 -0.9248
  162SAPE   HN318051   0.190   3.779   2.838  0.5224  1.3141  1.1339
  162SAPE   C1218052   0.151   3.573   2.812  0.4091 -0.0723 -0.2257
  162SAPE  H12A18053   0.126   3.584   2.705  1.2118  1.4977 -0.2759
  162SAPE  H12B18054   0.083   3.495   2.853  0.1393  0.7164  0.8782
  162SAPE   C1118055   0.297   3.532   2.808 -0.2541 -0.0464  0.7920
  162SAPE  H11A18056   0.301   3.438   2.749 -1.4852 -0.7844  1.8142
  162SAPE  H11B18057   0.336   3.496   2.906  0.9812 -0.2377  0.2552
  162SAPE     P18058   0.493   3.699   2.836 -0.1633  0.1940 -0.2199
  162SAPE   O1318059   0.589   3.764   2.743 -0.1320 -0.4576 -0.4200
  162SAPE   O1418060   0.438   3.779   2.947  0.0602 -0.1677 -0.7176
  162SAPE   O1218061   0.379   3.636   2.750 -0.0093 -0.5418  0.4000
  162SAPE   O1118062   0.556   3.567   2.888 -0.2868  0.1740  0.4585
  162SAPE    C118063   0.605   3.477   2.795 -0.7311  0.0885  0.3077
  162SAPE    HA18064   0.535   3.408   2.743  2.0017 -2.1522 -0.6381
  162SAPE    HB18065   0.668   3.528   2.720 -2.7709 -0.4534 -1.8969
  162SAPE    C218066   0.678   3.360   2.873 -0.3149 -0.3842  0.5319
  162SAPE    HS18067   0.716   3.292   2.794 -0.1234  0.7838 -0.4003
  162SAPE   O2118068   0.590   3.282   2.963 -0.5405 -0.4439 -0.0027
  162SAPE   C2118069   0.500   3.205   2.907  0.4282  0.3532  0.7404
  162SAPE   O2218070   0.492   3.186   2.790 -0.2198  0.2119  0.5120
  162SAPE   C2218071   0.411   3.138   3.002  0.1182 -0.1627 -0.5414
  162SAPE   H2R18072   0.408   3.027   2.991 -0.4847 -0.1898 -0.1674
  162SAPE   H2S18073   0.433   3.177   3.103 -1.2445 -0.6448 -0.0290
  162SAPE    C318074   0.808   3.408   2.958  0.3778 -0.2148  0.3339
  162SAPE    HX18075   0.784   3.494   3.024 -1.5839 -0.4531 -0.0131
  162SAPE    HY18076   0.881   3.448   2.884  0.6967  0.6240  1.0819
  162SAPE   O3118077   0.878   3.308   3.031 -0.5726  0.3422  0.2791
  162SAPE   C3118078   0.841   3.301   3.155 -0.5119  0.4017  0.3369
  162SAPE   O3218079   0.748   3.355   3.204 -0.6708 -0.3669 -0.2844
  162SAPE   C3218080   0.929   3.195   3.228  0.4030 -0.4807  0.0525
  162SAPE   H2X18081   1.016   3.246   3.274 -0.2645  2.1392 -1.3380
  162SAPE   H2Y18082   0.961   3.122   3.150 -2.3065  0.1039 -1.7707
  162SAPE   C2318083   0.262   3.183   2.984  0.5374 -0.0029 -0.0313
  162SAPE   H3R18084   0.237   3.166   2.877 -0.6547  0.9865  0.0679
  162SAPE   H3S18085   0.264   3.292   3.006 -0.4886  0.6566 -2.8828
  162SAPE   C2418086   0.164   3.115   3.079  0.1298 -0.2351  0.3453
  162SAPE   H4R18087   0.206   3.137   3.180  0.3485  2.0734 -0.1953
  162SAPE   H4S18088   0.184   3.006   3.067  0.5929 -0.2124  0.8712
  162SAPE   C2518089   0.014   3.130   3.067 -0.3524  1.0561  0.2687
  162SAPE   H5R18090  -0.020   3.073   2.979  1.0830 -2.5806  1.8632
  162SAPE   C2618091  -0.068   3.192   3.157  1.1636  0.1933  0.2618
  162SAPE   H6R18092  -0.175   3.173   3.148  1.1719  0.1600  0.2338
  162SAPE   C2718093  -0.017   3.250   3.286  0.3042 -0.5398  0.4484
  162SAPE   H7R18094   0.078   3.199   3.310  0.2894 -0.7748  0.0102
  162SAPE   H7S18095  -0.071   3.223   3.379  2.3346 -0.5021  1.6962
  162SAPE   C2818096  -0.005   3.403   3.273  0.2078 -0.2320  0.1363
  162SAPE   H8R18097  -0.032   3.451   3.178 -0.8139 -0.4093  0.3177
  162SAPE   C2918098   0.029   3.483   3.373  0.3100 -0.5516 -0.5179
  162SAPE   H9R18099   0.046   3.587   3.341 -0.2888 -0.5032 -0.6855
  162SAPE  C21018100   0.053   3.450   3.517 -0.3896  0.4069  0.5765
  162SAPE  H10R18101   0.100   3.539   3.564 -0.2398  1.4697 -1.4886
  162SAPE  H10S18102   0.114   3.359   3.533 -1.6451 -0.0645  3.2718
  162SAPE  C21118103  -0.082   3.440   3.593 -0.2924  0.0643  0.1837
  162SAPE  H11R18104  -0.165   3.384   3.548 -1.8613  3.0897 -0.9249
  162SAPE  C21218105  -0.116   3.485   3.715  0.3619  0.3558 -0.7785
  162SAPE  H12R18106  -0.215   3.466   3.758  0.7776  0.3154  0.1973
  162SAPE  C21318107  -0.032   3.574   3.798  0.0568  0.2048 -0.5955
  162SAPE  H13R18108   0.075   3.550   3.783  0.9546  3.2910  0.1356
  162SAPE  H13S18109  -0.048   3.535   3.901  1.1048 -1.2059 -0.9399
  162SAPE  C21418110  -0.066   3.715   3.796 -0.1984 -0.1258  0.1920
  162SAPE  H14R18111  -0.047   3.763   3.699 -2.6119  1.0825  0.2558
  162SAPE  C21518112  -0.094   3.792   3.901 -0.4211 -0.6643  0.2976
  162SAPE  H15R18113  -0.125   3.892   3.871 -0.7783 -0.8323  0.1062
  162SAPE  C21618114  -0.093   3.757   4.049  0.4583  0.2954 -0.2447
  162SAPE  H16R18115  -0.044   3.843   4.100 -0.4280  0.5553  0.2025
  162SAPE  H16S18116  -0.026   3.670   4.069 -0.8334 -0.9264 -0.9993
  162SAPE  C21718117  -0.228   3.751   4.122 -0.6679 -0.1706  0.2019
  162SAPE  H17R18118  -0.262   3.646   4.112  1.3645 -0.8040 -0.4070
  162SAPE  H17S18119  -0.311   3.815   4.084 -0.0302  0.8456  0.5071
  162SAPE  C21818120  -0.215   3.782   4.271  0.5777  0.2830  0.4837
  162SAPE  H18R18121  -0.178   3.887   4.278  0.7988  0.1640  1.1877
  162SAPE  H18S18122  -0.126   3.721   4.295  0.9734 -0.0980 -1.7578
  162SAPE  C21918123  -0.341   3.750   4.354  0.2146 -0.1114 -0.3698
  162SAPE  H19R18124  -0.375   3.645   4.340  0.2028 -0.3711  1.4509
  162SAPE  H19S18125  -0.414   3.825   4.317 -0.0767 -0.1744  0.0758
  162SAPE  C22018126  -0.318   3.793   4.501 -0.1025 -0.1009 -0.2786
  162SAPE  H20R18127  -0.261   3.716   4.557 -2.4857 -0.3583  2.0367
  162SAPE  H20S18128  -0.421   3.804   4.541 -1.1832 -3.2165 -1.9130
  162SAPE  H20T18129  -0.275   3.896   4.506  0.0385 -0.1040 -1.2653
  162SAPE   C3318130   0.842   3.127   3.338 -0.6761 -0.0518  0.4629
  162SAPE   H3X18131   0.885   3.025   3.331 -0.8970 -0.1275  0.1915
  162SAPE   H3Y18132   0.737   3.110   3.305 -0.6536 -1.7934  1.1483
  162SAPE   C3418133   0.849   3.193   3.474 -1.0019 -0.4178 -0.5755
  162SAPE   H4X18134   0.783   3.282   3.480 -0.0612  0.1809  2.0761
  162SAPE   H4Y18135   0.954   3.213   3.506 -1.6310  0.7355  0.8544
  162SAPE   C3518136   0.795   3.101   3.586  0.4658  0.0461 -0.2058
  162SAPE   H5X18137   0.860   3.011   3.577 -0.5730 -0.8644  0.9639
  162SAPE   H5Y18138   0.689   3.078   3.564  0.3823  2.0169 -2.1386
  162SAPE   C3618139   0.799   3.164   3.725  0.2089  0.0420 -0.5902
  162SAPE   H6X18140   0.724   3.245   3.726  0.2944  0.1325  1.3867
  162SAPE   H6Y18141   0.906   3.188   3.745  0.7033 -1.0297 -1.8009
  162SAPE   C3718142   0.770   3.060   3.839 -0.1897 -0.2574  0.7799
  162SAPE   H7X18143   0.841   2.974   3.835 -1.4603 -1.4340  2.2096
  162SAPE   H7Y18144   0.664   3.028   3.826 -0.3247 -0.1763  1.6330
  162SAPE   C3818145   0.776   3.121   3.980 -0.1004  0.1882  0.0389
  162SAPE   H8X18146   0.883   3.146   3.995  0.3222 -0.8726 -1.0120
  162SAPE   H8Y18147   0.750   3.030   4.039 -0.0257  0.6666  0.8093
  162SAPE   C3918148   0.682   3.241   3.995 -0.2789  0.3332  0.1174
  162SAPE   H9X18149   0.594   3.213   3.933  0.8102 -0.8368 -0.9476
  162SAPE   H9Y18150   0.725   3.334   3.952  2.6130 -1.1356 -0.3706
  162SAPE  C31018151   0.631   3.254   4.145  0.0215  0.9941  0.0286
  162SAPE  H10X18152   0.716   3.279   4.212  0.5300 -2.6384  0.9920
  162SAPE  H10Y18153   0.608   3.148   4.172 -2.5510  0.4992 -3.4200
  162SAPE  C31118154   0.495   3.315   4.158  0.3666  0.6252 -0.2280
  162SAPE  H11X18155   0.471   3.326   4.266  0.1147 -2.2963  0.0919
  162SAPE  H11Y18156   0.415   3.251   4.117 -1.0803 -0.0326  3.3387
  162SAPE  C31218157   0.499   3.462   4.106 -0.0268  0.6113  0.4319
  162SAPE  H12X18158   0.519   3.466   3.996 -0.5452  3.9260  0.3520
  162SAPE  H12Y18159   0.571   3.513   4.173  0.4388  0.4064  0.0964
  162SAPE  C31318160   0.365   3.542   4.118  1.4360 -0.2446 -0.3191
  162SAPE  H13X18161   0.329   3.535   4.223  1.7849 -1.2132 -0.2572
  162SAPE  H13Y18162   0.284   3.498   4.056  2.3540 -1.4858 -0.6871
  162SAPE  C31418163   0.384   3.687   4.087  0.1186 -0.2953 -0.2396
  162SAPE  H14X18164   0.441   3.700   3.993 -0.2429 -0.9633 -0.5577
  162SAPE  H14Y18165   0.450   3.734   4.162  1.3982  0.3322 -1.7119
  162SAPE  C31518166   0.252   3.778   4.078  0.3741  0.5846 -0.1671
  162SAPE  H15X18167   0.203   3.778   4.177  1.2269 -0.9598  0.3024
  162SAPE  H15Y18168   0.178   3.743   4.002 -1.8072  1.6778  1.3502
  162SAPE  C31618169   0.295   3.919   4.035 -0.5585 -0.6683 -0.0896
  162SAPE  H16X18170   0.335   3.914   3.931  1.0643  0.4421  0.4308
  162SAPE  H16Y18171   0.376   3.956   4.102  0.0179 -0.1214 -1.0564
  162SAPE  C31718172   0.179   4.021   4.041 -0.2054  0.0697 -0.4398
  162SAPE  H17X18173   0.150   4.035   4.147  1.2908 -1.9361  0.3049
  162SAPE  H17Y18174   0.092   3.977   3.988 -1.4114  2.4122 -0.5011
  162SAPE  C31818175   0.203   4.158   3.981 -0.0464  1.1520  0.2714
  162SAPE  H18X18176   0.132   4.230   4.027 -1.0867 -0.2712  0.9861
  162SAPE  H18Y18177   0.179   4.177   3.874  1.0848  3.0512  0.3000
  162SAPE  H18Z18178   0.309   4.184   4.002  0.9046 -1.1975 -1.1275
  163SAPE     N18179   4.063   6.652   2.128  0.3741  0.4052 -0.3043
  163SAPE   HN118180   4.018   6.584   2.192  2.7650  0.6568  1.8143
  163SAPE   HN218181   4.121   6.606   2.055 -0.6478  0.1631 -0.9881
  163SAPE   HN318182   4.125   6.704   2.193 -0.0219 -1.4586  1.6703
  163SAPE   C1218183   3.969   6.744   2.059  0.4378 -0.5699  0.0135
  163SAPE  H12A18184   3.875   6.689   2.034 -0.7934  1.7675 -0.8769
  163SAPE  H12B18185   4.011   6.786   1.964  0.4603  2.6638  1.3172
  163SAPE   C1118186   3.930   6.854   2.153  0.3250 -0.0539  0.6938
  163SAPE  H11A18187   3.900   6.813   2.252  2.6263 -1.4564  0.8943
  163SAPE  H11B18188   3.845   6.912   2.111  1.2296  0.1802 -0.9094
  163SAPE     P18189   4.054   7.089   2.123 -0.4420  0.1033 -0.1663
  163SAPE   O1318190   4.183   7.144   2.175  0.5714 -0.0476  0.1582
  163SAPE   O1418191   4.039   7.088   1.982  0.4137  0.6663  0.8439
  163SAPE   O1218192   4.043   6.935   2.176 -0.6631  0.2060  0.4032
  163SAPE   O1118193   3.937   7.164   2.190 -0.0204  0.1669  0.0282
  163SAPE    C118194   3.925   7.153   2.333  0.0944 -0.0432 -0.1503
  163SAPE    HA18195   4.015   7.114   2.387  1.5995  1.3521 -1.5430
  163SAPE    HB18196   3.911   7.255   2.375  0.5843 -0.0798  0.1205
  163SAPE    C218197   3.782   7.093   2.377 -0.3761 -0.3531  0.4205
  163SAPE    HS18198   3.786   6.990   2.334  1.0724 -0.8250  1.5835
  163SAPE   O2118199   3.671   7.176   2.334 -0.1015  0.3505  1.0159
  163SAPE   C2118200   3.558   7.101   2.313  0.5205  0.0053 -0.5039
  163SAPE   O2218201   3.552   6.979   2.319 -0.8032 -0.4506  0.1473
  163SAPE   C2218202   3.437   7.194   2.286  0.7051  0.7762 -0.4030
  163SAPE   H2R18203   3.461   7.302   2.296  0.0620  0.9823 -1.0111
  163SAPE   H2S18204   3.392   7.175   2.186 -0.0829  3.6861 -0.6810
  163SAPE    C318205   3.786   7.067   2.532 -0.1415  0.5664  0.4397
  163SAPE    HX18206   3.685   7.029   2.559 -1.4017 -0.4803 -4.7623
  163SAPE    HY18207   3.796   7.168   2.579  1.7389 -0.2652  1.9864
  163SAPE   O3118208   3.898   6.987   2.575 -0.3932  0.1749  0.2459
  163SAPE   C3118209   3.880   6.857   2.562  0.1420  0.9076 -0.3027
  163SAPE   O3218210   3.785   6.802   2.505 -0.6912  0.2182 -0.0639
  163SAPE   C3218211   3.992   6.790   2.637 -0.2391 -0.6961  0.0763
  163SAPE   H2X18212   4.074   6.857   2.670 -0.1475  0.2178 -1.8725
  163SAPE   H2Y18213   4.042   6.717   2.569 -0.0531  0.6763 -1.3045
  163SAPE   C2318214   3.329   7.173   2.394 -0.2294  0.3246  0.0205
  163SAPE   H3R18215   3.357   7.224   2.489 -0.5603 -1.7554  1.2971
  163SAPE   H3S18216   3.322   7.066   2.423 -1.5787  0.2961 -0.3090
  163SAPE   C2418217   3.192   7.232   2.356  0.2605  0.2979 -0.3367
  163SAPE   H4R18218   3.113   7.197   2.426 -0.0185  0.7694 -0.4086
  163SAPE   H4S18219   3.163   7.192   2.257 -1.3570  1.7327 -0.4982
  163SAPE   C2518220   3.177   7.380   2.360 -0.1051  0.2435 -0.5209
  163SAPE   H5R18221   3.222   7.444   2.283 -0.2527 -0.2797 -1.0476
  163SAPE   C2618222   3.118   7.438   2.463  0.3229 -0.3344 -0.2850
  163SAPE   H6R18223   3.114   7.548   2.469  0.8871 -0.3076 -0.3622
  163SAPE   C2718224   3.061   7.370   2.590  0.0929  0.0488 -0.5095
  163SAPE   H7R18225   3.137   7.350   2.668 -1.0473  0.1106  0.6520
  163SAPE   H7S18226   3.015   7.269   2.580 -1.1271  0.3142  1.7618
  163SAPE   C2818227   2.949   7.458   2.646  0.5543  0.1089 -0.9718
  163SAPE   H8R18228   2.905   7.531   2.576 -2.9783 -0.1680  0.7589
  163SAPE   C2918229   2.907   7.451   2.775 -0.5376 -0.3791 -0.9228
  163SAPE   H9R18230   2.831   7.523   2.809  1.0176  1.3848 -0.9877
  163SAPE  C21018231   2.975   7.358   2.887 -0.2094  0.3410  1.1004
  163SAPE  H10R18232   3.082   7.378   2.871 -0.7467  0.6503 -3.0827
  163SAPE  H10S18233   2.950   7.255   2.852 -3.2143  1.4261 -0.3004
  163SAPE  C21118234   2.925   7.390   3.023 -0.4997  0.5784  0.1258
  163SAPE  H11R18235   2.959   7.484   3.069 -1.0798  0.0733  1.6753
  163SAPE  C21218236   2.847   7.318   3.103  0.4598  0.7013 -0.4687
  163SAPE  H12R18237   2.827   7.363   3.202  1.3563  0.0329  0.0286
  163SAPE  C21318238   2.783   7.185   3.089 -1.0310  0.1427 -0.5757
  163SAPE  H13R18239   2.780   7.151   2.983 -1.7431  0.2462 -0.5959
  163SAPE  H13S18240   2.674   7.190   3.111 -0.8181 -0.9133  0.8432
  163SAPE  C21418241   2.852   7.084   3.178  0.0583 -0.5512 -0.4134
  163SAPE  H14R18242   2.923   7.011   3.135  2.6013 -1.1513  4.1346
  163SAPE  C21518243   2.827   7.061   3.310 -0.0616 -0.7055  0.0578
  163SAPE  H15R18244   2.872   6.981   3.371  1.6602 -0.1678 -0.4561
  163SAPE  C21618245   2.737   7.151   3.391  0.1741  0.6061 -0.4360
  163SAPE  H16R18246   2.653   7.085   3.421  0.4583 -0.4637 -1.8765
  163SAPE  H16S18247   2.684   7.225   3.327  2.1254  2.6548  0.1710
  163SAPE  C21718248   2.797   7.226   3.512  0.3510 -0.3877 -0.3426
  163SAPE  H17R18249   2.709   7.280   3.550  1.5627  0.4268  1.4373
  163SAPE  H17S18250   2.865   7.309   3.481  0.3491 -0.2958 -0.1001
  163SAPE  C21818251   2.854   7.134   3.613 -0.5424  0.4465 -0.8671
  163SAPE  H18R18252   2.936   7.079   3.562 -0.1091 -0.5441  0.7810
  163SAPE  H18S18253   2.785   7.056   3.653 -0.1264  0.9296  0.9044
  163SAPE  C21918254   2.909   7.225   3.733  0.2004 -0.3948 -0.2175
  163SAPE  H19R18255   2.821   7.255   3.794 -1.0068 -3.8315 -0.0710
  163SAPE  H19S18256   2.969   7.305   3.684 -1.8213  0.6334 -1.1502
  163SAPE  C22018257   3.002   7.135   3.806 -0.0207  0.2836  0.1518
  163SAPE  H20R18258   2.960   7.049   3.862  0.8510 -0.3829 -0.1879
  163SAPE  H20S18259   3.046   7.200   3.885 -3.7164  1.8919  1.1259
  163SAPE  H20T18260   3.074   7.096   3.732  1.6049  0.6782  1.4748
  163SAPE   C3318261   3.937   6.718   2.755  0.0171 -0.0258  0.0121
  163SAPE   H3X18262   3.887   6.630   2.711  0.9269  0.5991 -2.4010
  163SAPE   H3Y18263   3.872   6.792   2.809 -1.7612 -0.9462 -0.7896
  163SAPE   C3418264   4.051   6.670   2.851 -0.7537  0.2105  0.1707
  163SAPE   H4X18265   4.101   6.760   2.892 -0.3911 -0.0949  0.4068
  163SAPE   H4Y18266   4.129   6.612   2.797 -0.7662 -0.9445  1.3528
  163SAPE   C3518267   4.003   6.584   2.974 -0.3495 -0.1470 -0.6379
  163SAPE   H5X18268   4.093   6.556   3.033 -0.8442 -0.5120 -0.0405
  163SAPE   H5Y18269   3.961   6.487   2.939  1.9007 -1.3026 -0.3752
  163SAPE   C3618270   3.899   6.647   3.069 -0.5210  0.3081 -1.0069
  163SAPE   H6X18271   3.815   6.658   2.997  0.5403  1.8225 -2.0834
  163SAPE   H6Y18272   3.941   6.746   3.098 -2.0111  0.0829  2.4551
  163SAPE   C3718273   3.869   6.572   3.197 -1.0794 -0.8190 -0.0740
  163SAPE   H7X18274   3.975   6.556   3.227 -0.6535 -1.1272 -1.6407
  163SAPE   H7Y18275   3.814   6.476   3.184 -1.0582 -1.3900  3.1837
  163SAPE   C3818276   3.797   6.667   3.298 -0.0343  0.2754  0.1415
  163SAPE   H8X18277   3.863   6.757   3.297  0.1022  0.1758 -0.1187
  163SAPE   H8Y18278   3.801   6.626   3.401  0.8729  3.0651  1.3130
  163SAPE   C3918279   3.657   6.709   3.257  0.6173  0.0415 -0.6942
  163SAPE   H9X18280   3.592   6.622   3.235  0.6663 -0.4855  1.0774
  163SAPE   H9Y18281   3.665   6.782   3.173 -1.0958  2.3625  1.0505
  163SAPE  C31018282   3.614   6.786   3.384  0.8022  0.2347  0.4368
  163SAPE  H10X18283   3.685   6.871   3.388 -0.2029  1.0683  1.5260
  163SAPE  H10Y18284   3.632   6.715   3.468 -0.6520 -0.4442  0.2211
  163SAPE  C31118285   3.462   6.832   3.387  0.2890 -0.2835 -1.5489
  163SAPE  H11X18286   3.405   6.741   3.358  0.4648 -0.6210 -0.8754
  163SAPE  H11Y18287   3.455   6.901   3.301  1.6000  0.1807 -1.3019
  163SAPE  C31218288   3.419   6.904   3.519 -0.1323  0.3495  0.6009
  163SAPE  H12X18289   3.478   6.998   3.527 -0.4127  0.4517  1.6125
  163SAPE  H12Y18290   3.448   6.836   3.602  3.4489 -0.1065 -0.8436
  163SAPE  C31318291   3.267   6.942   3.519 -0.0942  0.0102 -0.1314
  163SAPE  H13X18292   3.236   6.990   3.615  0.0565 -0.3177  0.0823
  163SAPE  H13Y18293   3.217   6.843   3.512  0.4073 -0.2866  0.4076
  163SAPE  C31418294   3.210   7.019   3.402 -0.1448 -0.0838  0.1550
  163SAPE  H14X18295   3.101   7.001   3.387 -0.4220  1.1430  0.4990
  163SAPE  H14Y18296   3.256   6.980   3.309 -0.9329 -0.1866 -0.2047
  163SAPE  C31518297   3.230   7.174   3.417 -0.2620 -0.5392 -0.2085
  163SAPE  H15X18298   3.338   7.199   3.411 -0.0120 -1.8189 -2.1643
  163SAPE  H15Y18299   3.192   7.203   3.517 -1.4198 -3.1993  0.1937
  163SAPE  C31618300   3.147   7.251   3.312 -0.5268 -0.2994 -0.3708
  163SAPE  H16X18301   3.041   7.250   3.344  0.2927  0.7640  2.6919
  163SAPE  H16Y18302   3.164   7.218   3.207 -1.9882 -1.3251 -0.3055
  163SAPE  C31718303   3.181   7.410   3.318  0.2217 -0.3169  0.0731
  163SAPE  H17X18304   3.136   7.452   3.411 -0.9967 -2.0052  0.2941
  163SAPE  H17Y18305   3.138   7.461   3.229  2.4123  1.2707 -0.1579
  163SAPE  C31818306   3.331   7.453   3.318 -0.9035  0.0977 -0.1382
  163SAPE  H18X18307   3.389   7.410   3.402 -1.9202 -2.8766 -0.8001
  163SAPE  H18Y18308   3.339   7.563   3.325 -0.5769  0.0852 -0.2997
  163SAPE  H18Z18309   3.381   7.429   3.222 -0.5776  0.4058 -0.0445
  164SAPE     N18310   3.391   3.410   2.055  0.4348  0.2491 -0.2708
  164SAPE   HN118311   3.376   3.321   2.003 -2.7843  0.3301  0.3086
  164SAPE   HN218312   3.401   3.495   1.996 -1.4603  1.2363  0.7370
  164SAPE   HN318313   3.484   3.401   2.099 -0.0536 -1.8035  0.4406
  164SAPE   C1218314   3.302   3.424   2.176 -0.1539  0.0608 -0.0441
  164SAPE  H12A18315   3.210   3.370   2.145 -0.4542  0.2000  0.5682
  164SAPE  H12B18316   3.278   3.532   2.187  1.2609  0.4817 -0.9175
  164SAPE   C1118317   3.375   3.355   2.290 -0.1653  0.3574  0.2957
  164SAPE  H11A18318   3.316   3.374   2.383 -4.2936  0.2598 -2.0617
  164SAPE  H11B18319   3.475   3.401   2.303 -0.4972  1.2730 -0.2897
  164SAPE     P18320   3.293   3.096   2.286  0.1083  0.2514  0.1052
  164SAPE   O1318321   3.223   3.085   2.156  0.1526  0.6982  0.2746
  164SAPE   O1418322   3.367   2.982   2.335 -0.0921  0.8528 -0.1606
  164SAPE   O1218323   3.396   3.213   2.270  0.0329 -0.2621  0.0077
  164SAPE   O1118324   3.190   3.133   2.391  0.0088  0.1480  0.1527
  164SAPE    C118325   3.221   3.150   2.530 -0.1041 -0.6393  0.4156
  164SAPE    HA18326   3.331   3.150   2.546  0.0006  0.8802 -0.0399
  164SAPE    HB18327   3.187   3.253   2.554 -0.4716 -0.2228 -1.6608
  164SAPE    C218328   3.151   3.044   2.617  0.4668  0.3609 -0.8943
  164SAPE    HS18329   3.196   2.948   2.583  0.2887 -0.5539  1.3057
  164SAPE   O2118330   3.006   3.040   2.599 -0.3115 -0.4606  0.0819
  164SAPE   C2118331   2.962   2.967   2.499 -0.4258  0.0562  0.0523
  164SAPE   O2218332   3.031   2.885   2.437  0.4346 -0.6851 -0.7184
  164SAPE   C2218333   2.813   3.003   2.473 -0.1171 -0.6941  0.5636
  164SAPE   H2R18334   2.773   3.021   2.575  0.9220  0.3417  0.8116
  164SAPE   H2S18335   2.806   3.100   2.420  0.8080 -1.2923 -0.7085
  164SAPE    C318336   3.188   3.050   2.765 -0.0989  0.0356 -0.1353
  164SAPE    HX18337   3.146   2.957   2.809 -0.5392  1.2266  2.1572
  164SAPE    HY18338   3.132   3.129   2.821  1.2433  1.1855 -0.3823
  164SAPE   O3118339   3.336   3.063   2.792  0.5509  0.4446 -0.5081
  164SAPE   C3118340   3.402   2.943   2.803 -0.7698  0.1328  0.1348
  164SAPE   O3218341   3.340   2.836   2.784  0.0226 -0.1716  0.4253
  164SAPE   C3218342   3.550   2.952   2.834 -0.0057 -0.5240  0.5661
  164SAPE   H2X18343   3.579   3.055   2.806  0.5174 -0.4211  1.4618
  164SAPE   H2Y18344   3.597   2.879   2.765 -0.4935  0.4797 -0.8876
  164SAPE   C2318345   2.738   2.897   2.401 -0.2135  0.4009 -0.0367
  164SAPE   H3R18346   2.782   2.872   2.301 -0.1727  0.2970  0.0073
  164SAPE   H3S18347   2.639   2.940   2.378 -0.0492  0.4302 -0.7197
  164SAPE   C2418348   2.731   2.760   2.473  0.6596  0.1184  0.5417
  164SAPE   H4R18349   2.833   2.715   2.467  2.2760  3.6176 -3.5777
  164SAPE   H4S18350   2.661   2.705   2.406  1.7940  0.6665 -1.1836
  164SAPE   C2518351   2.674   2.766   2.610  0.1802 -0.6629  0.5354
  164SAPE   H5R18352   2.575   2.816   2.612  0.6873  0.3767  0.5049
  164SAPE   C2618353   2.709   2.700   2.718 -0.1739 -0.3722  0.1451
  164SAPE   H6R18354   2.648   2.723   2.806 -1.7212  2.6952 -1.5309
  164SAPE   C2718355   2.843   2.629   2.740 -0.6709 -0.8655 -0.4716
  164SAPE   H7R18356   2.922   2.703   2.714 -1.0225  0.2205  1.3582
  164SAPE   H7S18357   2.858   2.552   2.661  0.2360  1.6287 -2.8902
  164SAPE   C2818358   2.845   2.568   2.877  0.1283  0.3194  0.8265
  164SAPE   H8R18359   2.774   2.485   2.886 -0.1559  0.3557 -0.7969
  164SAPE   C2918360   2.921   2.604   2.978 -0.0285  0.1498  0.0441
  164SAPE   H9R18361   2.915   2.562   3.080  1.8166  0.1443  0.1813
  164SAPE  C21018362   3.003   2.727   2.971  0.5029 -0.1707  0.2183
  164SAPE  H10R18363   3.057   2.746   2.875  0.8245  0.2059  0.4737
  164SAPE  H10S18364   3.094   2.694   3.026  3.0665 -2.1391 -4.5672
  164SAPE  C21118365   2.936   2.846   3.037 -0.7281  0.1403  0.0546
  164SAPE  H11R18366   2.837   2.875   2.997 -0.2372 -0.3365 -1.6004
  164SAPE  C21218367   2.989   2.936   3.128  0.4220 -0.1184  1.1324
  164SAPE  H12R18368   2.928   3.020   3.166  1.9332 -0.0097  3.5275
  164SAPE  C21318369   3.127   2.946   3.183 -0.3404 -0.2008 -0.6044
  164SAPE  H13R18370   3.201   2.871   3.148 -0.4217 -0.2670 -0.6361
  164SAPE  H13S18371   3.124   2.928   3.293  2.0817  1.1994 -0.2214
  164SAPE  C21418372   3.179   3.086   3.166 -0.1825  0.2055  0.1786
  164SAPE  H14R18373   3.233   3.098   3.070  0.1678  1.4494  0.5061
  164SAPE  C21518374   3.161   3.185   3.250  0.0627  0.1731 -0.0029
  164SAPE  H15R18375   3.202   3.286   3.231 -3.6491  1.3887 -2.6406
  164SAPE  C21618376   3.089   3.179   3.385 -0.6987 -0.3272 -0.0664
  164SAPE  H16R18377   3.157   3.207   3.469 -1.3068 -0.0837  0.3556
  164SAPE  H16S18378   3.048   3.079   3.407  0.6801 -0.4628  2.1502
  164SAPE  C21718379   2.985   3.292   3.392 -0.2821  0.5336 -0.1501
  164SAPE  H17R18380   2.899   3.281   3.323 -1.3877  0.2818  1.2080
  164SAPE  H17S18381   3.050   3.381   3.377  2.5569 -1.0076  1.9856
  164SAPE  C21818382   2.916   3.303   3.533 -0.5926  0.7953  0.3512
  164SAPE  H18R18383   2.995   3.334   3.604 -0.9939  1.2108  0.6158
  164SAPE  H18S18384   2.865   3.206   3.553 -1.5974  1.0553 -0.8262
  164SAPE  C21918385   2.796   3.402   3.533 -0.0094 -0.9364 -0.3848
  164SAPE  H19R18386   2.729   3.371   3.450  0.4531 -1.4582 -0.5666
  164SAPE  H19S18387   2.830   3.504   3.506 -2.6521 -0.0046 -0.5395
  164SAPE  C22018388   2.724   3.406   3.670  0.1708 -0.0930  0.1616
  164SAPE  H20R18389   2.707   3.303   3.706  0.4739  0.3880  1.7584
  164SAPE  H20S18390   2.622   3.451   3.659  0.0957 -0.4729 -0.7667
  164SAPE  H20T18391   2.787   3.461   3.742 -0.3849 -1.0196  1.3882
  164SAPE   C3318392   3.595   2.916   2.977 -0.5255  0.0284  0.0393
  164SAPE   H3X18393   3.682   2.847   2.971 -1.3960 -1.0626 -0.6772
  164SAPE   H3Y18394   3.516   2.859   3.032 -0.0485  0.4486  1.1828
  164SAPE   C3418395   3.618   3.039   3.066  0.4973  0.0181  1.0719
  164SAPE   H4X18396   3.521   3.093   3.056  0.4522 -0.4523 -2.3616
  164SAPE   H4Y18397   3.696   3.096   3.011  0.6499 -1.0242  0.1649
  164SAPE   C3518398   3.661   3.026   3.212 -0.5733  0.0145  0.4196
  164SAPE   H5X18399   3.679   3.124   3.261 -0.8487  0.4042 -0.2468
  164SAPE   H5Y18400   3.757   2.972   3.228 -0.7726 -0.8538 -1.0924
  164SAPE   C3618401   3.556   2.943   3.285  0.0629  0.2175  0.2047
  164SAPE   H6X18402   3.566   2.835   3.260  0.5888  0.4991 -0.8433
  164SAPE   H6Y18403   3.456   2.973   3.246  0.4800  0.3588 -0.7609
  164SAPE   C3718404   3.569   2.941   3.437 -0.2271 -0.2592 -0.3163
  164SAPE   H7X18405   3.570   3.045   3.478 -0.0020 -0.0684 -0.8061
  164SAPE   H7Y18406   3.649   2.877   3.480  2.1826  1.6061 -1.7422
  164SAPE   C3818407   3.429   2.893   3.502 -0.1935 -0.3022 -0.9242
  164SAPE   H8X18408   3.387   2.827   3.423 -2.9751 -0.1424  0.3135
  164SAPE   H8Y18409   3.367   2.985   3.501  1.2768  0.7194 -1.2909
  164SAPE   C3918410   3.436   2.827   3.642 -0.0993 -0.1160  0.2940
  164SAPE   H9X18411   3.506   2.744   3.662  1.5708  1.1667 -0.0153
  164SAPE   H9Y18412   3.333   2.787   3.655  0.3266 -0.6421  2.3398
  164SAPE  C31018413   3.466   2.935   3.756  0.5498  0.2643  0.1126
  164SAPE  H10X18414   3.377   3.001   3.745  1.3780  1.1757 -1.5018
  164SAPE  H10Y18415   3.560   2.991   3.737  1.4688 -1.0674  0.5723
  164SAPE  C31118416   3.477   2.866   3.902  0.2993 -0.3907 -0.0783
  164SAPE  H11X18417   3.577   2.818   3.913  0.0453 -1.1077 -0.7850
  164SAPE  H11Y18418   3.402   2.785   3.892  2.0825 -1.8731 -2.4198
  164SAPE  C31218419   3.454   2.950   4.025  0.4397  0.2431 -0.0845
  164SAPE  H12X18420   3.375   3.022   3.995 -0.2002 -0.8405 -1.1077
  164SAPE  H12Y18421   3.552   2.999   4.046  0.3984  0.6489 -0.7986
  164SAPE  C31318422   3.414   2.870   4.153 -0.0326 -0.7379  0.0448
  164SAPE  H13X18423   3.486   2.788   4.170 -0.5013 -0.8159  1.8591
  164SAPE  H13Y18424   3.321   2.811   4.135  0.9669 -2.6949  1.0916
  164SAPE  C31418425   3.414   2.956   4.273  0.3441 -0.5121 -0.4274
  164SAPE  H14X18426   3.447   3.059   4.247 -1.7773  0.6150  1.0314
  164SAPE  H14Y18427   3.490   2.911   4.341 -0.4635 -2.1992 -0.6119
  164SAPE  C31518428   3.282   2.972   4.344 -0.1000  0.1353 -0.5956
  164SAPE  H15X18429   3.230   2.880   4.378 -1.6518  0.5426 -1.7782
  164SAPE  H15Y18430   3.205   3.007   4.272  0.5440  2.8298 -0.0945
  164SAPE  C31618431   3.273   3.082   4.446 -0.4372  0.2794  0.3952
  164SAPE  H16X18432   3.306   3.178   4.400 -1.5430  0.2364 -0.5514
  164SAPE  H16Y18433   3.358   3.060   4.513 -2.1580 -1.0101  2.2761
  164SAPE  C31718434   3.137   3.085   4.528 -0.2415 -0.2968 -0.2233
  164SAPE  H17X18435   3.154   3.146   4.620 -0.1889  0.9115 -1.0029
  164SAPE  H17Y18436   3.126   2.979   4.558 -0.3224 -0.7259 -1.6863
  164SAPE  C31818437   3.020   3.153   4.453  0.3566  0.4847  0.5204
  164SAPE  H18X18438   3.018   3.105   4.352 -1.3871 -2.6059  1.8906
  164SAPE  H18Y18439   3.037   3.261   4.433  1.1573  0.4391  0.9186
  164SAPE  H18Z18440   2.924   3.149   4.508  0.4199 -0.9016  0.5503
  165SAPE     N18441   0.929   5.557   2.244 -0.0967  0.6115  0.2073
  165SAPE   HN118442   0.886   5.515   2.328 -0.9117 -1.3855 -1.1197
  165SAPE   HN218443   0.920   5.483   2.171 -1.6310  0.1820  0.7889
  165SAPE   HN318444   1.031   5.568   2.261  0.1508 -1.1171  0.0228
  165SAPE   C1218445   0.853   5.685   2.199  0.5783  0.3940 -0.0775
  165SAPE  H12A18446   0.923   5.751   2.143  0.0433 -0.2721 -1.5844
  165SAPE  H12B18447   0.839   5.741   2.294 -1.4937 -0.0109 -0.0995
  165SAPE   C1118448   0.735   5.659   2.109  0.1659 -0.4562 -0.3105
  165SAPE  H11A18449   0.669   5.618   2.188 -0.0411  1.0778  0.3423
  165SAPE  H11B18450   0.753   5.577   2.036  0.1588  0.7485 -1.7068
  165SAPE     P18451   0.539   5.840   2.111  0.2403 -0.1266 -0.1737
  165SAPE   O1318452   0.539   5.980   2.063 -0.1043 -0.4212 -1.1455
  165SAPE   O1418453   0.434   5.753   2.050  0.5527  0.2286 -0.0409
  165SAPE   O1218454   0.674   5.776   2.054  0.3812  0.1420  0.1080
  165SAPE   O1118455   0.545   5.826   2.268  0.5308 -0.2805 -0.5217
  165SAPE    C118456   0.435   5.756   2.331  0.0313 -0.1039  0.2619
  165SAPE    HA18457   0.348   5.825   2.335  0.2881  0.1856  0.8577
  165SAPE    HB18458   0.406   5.664   2.275 -0.2723  0.6904 -0.9213
  165SAPE    C218459   0.469   5.731   2.479  0.7975  0.6804 -0.4682
  165SAPE    HS18460   0.380   5.681   2.522  1.3315 -0.8241 -1.0507
  165SAPE   O2118461   0.485   5.859   2.550  0.0737  0.3202  0.0113
  165SAPE   C2118462   0.370   5.920   2.578  0.1419  0.0719 -0.6619
  165SAPE   O2218463   0.259   5.872   2.558 -0.0706 -0.3108  0.5744
  165SAPE   C2218464   0.396   6.042   2.661  0.8131 -0.0680  0.6760
  165SAPE   H2R18465   0.505   6.064   2.671  0.6421  1.1327  0.0508
  165SAPE   H2S18466   0.353   6.124   2.601  0.7537 -0.3410  0.3431
  165SAPE    C318467   0.581   5.627   2.501 -0.1924  0.0140 -0.2236
  165SAPE    HX18468   0.665   5.666   2.440 -1.5714  0.7855 -1.6761
  165SAPE    HY18469   0.554   5.529   2.457  0.6348  0.2226 -1.2338
  165SAPE   O3118470   0.627   5.613   2.638 -0.2872 -0.7001 -0.3398
  165SAPE   C3118471   0.546   5.531   2.715  0.0641  0.0159  0.5473
  165SAPE   O3218472   0.448   5.470   2.674 -0.6564 -0.0180 -0.2369
  165SAPE   C3218473   0.600   5.535   2.857  0.1046  0.2381  0.5176
  165SAPE   H2X18474   0.665   5.624   2.866 -1.8708  1.6766  1.1601
  165SAPE   H2Y18475   0.670   5.448   2.859 -1.0203 -0.7435 -0.7973
  165SAPE   C2318476   0.310   6.021   2.791  0.8611 -0.2598 -0.3885
  165SAPE   H3R18477   0.210   5.980   2.765 -0.0770  2.6253 -1.7331
  165SAPE   H3S18478   0.299   6.113   2.852  0.8419 -1.4307  1.4390
  165SAPE   C2418479   0.381   5.930   2.890  0.8730  0.1939 -0.0192
  165SAPE   H4R18480   0.398   5.830   2.846  0.4690  0.2114 -0.2235
  165SAPE   H4S18481   0.310   5.905   2.973 -0.3065  0.5166 -0.9050
  165SAPE   C2518482   0.505   5.994   2.952 -0.5868  0.3916  0.3622
  165SAPE   H5R18483   0.576   6.034   2.878  1.5527 -0.9051  1.6279
  165SAPE   C2618484   0.545   5.985   3.078 -0.6645 -0.2148 -0.0045
  165SAPE   H6R18485   0.647   6.016   3.103  0.8380 -1.3299 -4.0211
  165SAPE   C2718486   0.478   5.913   3.193  0.2723 -0.5115 -0.6715
  165SAPE   H7R18487   0.551   5.844   3.242 -0.8555 -1.3869 -0.1794
  165SAPE   H7S18488   0.400   5.842   3.159 -0.7035  0.5935 -0.7649
  165SAPE   C2818489   0.412   6.001   3.294 -0.4041  0.8099  0.3118
  165SAPE   H8R18490   0.320   6.052   3.259  0.5402  2.0716 -0.4103
  165SAPE   C2918491   0.456   6.019   3.422 -0.4566 -0.3838  0.1809
  165SAPE   H9R18492   0.407   6.099   3.480 -1.3109  1.6613 -3.0997
  165SAPE  C21018493   0.586   5.962   3.479  0.2293 -0.5328 -0.7996
  165SAPE  H10R18494   0.623   6.040   3.548 -0.4505  0.1068 -1.1493
  165SAPE  H10S18495   0.670   5.938   3.411  1.4981 -2.3574  1.2615
  165SAPE  C21118496   0.542   5.832   3.555  0.5071  0.4488 -0.3625
  165SAPE  H11R18497   0.503   5.754   3.489 -0.0568 -0.6712  1.2470
  165SAPE  C21218498   0.539   5.819   3.691  0.5671 -0.6917 -0.4702
  165SAPE  H12R18499   0.515   5.716   3.723  0.3006 -0.3252  0.5487
  165SAPE  C21318500   0.555   5.926   3.793  0.4045  0.2795 -0.3602
  165SAPE  H13R18501   0.581   6.025   3.750 -0.9476  2.0933  2.6807
  165SAPE  H13S18502   0.630   5.895   3.869 -2.1706 -1.2546  1.7288
  165SAPE  C21418503   0.425   5.935   3.869 -0.3721  0.6135 -0.3337
  165SAPE  H14R18504   0.334   5.922   3.809  0.3085 -0.8272 -1.1115
  165SAPE  C21518505   0.426   5.959   4.001  0.2456  0.0156 -0.3876
  165SAPE  H15R18506   0.325   5.975   4.041 -0.5790  1.0274 -2.6868
  165SAPE  C21618507   0.544   6.007   4.088  0.9509  0.1380 -0.4475
  165SAPE  H16R18508   0.633   6.031   4.026  0.9053  2.7384  0.3510
  165SAPE  H16S18509   0.578   5.932   4.162 -0.1345  0.7072  0.6484
  165SAPE  C21718510   0.518   6.134   4.163 -0.3033 -0.2132 -0.6306
  165SAPE  H17R18511   0.505   6.223   4.097  0.7032 -1.9991 -3.4363
  165SAPE  H17S18512   0.613   6.177   4.202  0.3713  0.6093 -2.9885
  165SAPE  C21818513   0.409   6.129   4.273 -0.1858 -0.7662  0.5291
  165SAPE  H18R18514   0.436   6.061   4.356 -2.0650 -2.3164 -0.0457
  165SAPE  H18S18515   0.312   6.086   4.239  0.4807 -1.8124 -0.1247
  165SAPE  C21918516   0.398   6.267   4.335 -0.8272 -0.0744 -0.7538
  165SAPE  H19R18517   0.365   6.338   4.256  2.1260  1.4606 -0.7611
  165SAPE  H19S18518   0.498   6.292   4.377 -1.0677  1.3718 -0.9618
  165SAPE  C22018519   0.306   6.273   4.460 -0.1931  0.2402  0.4616
  165SAPE  H20R18520   0.211   6.217   4.441 -0.3227  0.9442 -1.1483
  165SAPE  H20S18521   0.289   6.379   4.488 -1.4943  0.1515  0.0967
  165SAPE  H20T18522   0.363   6.228   4.543 -1.9428 -1.3391  0.8577
  165SAPE   C3318523   0.495   5.521   2.970 -0.8816 -0.6376 -0.4001
  165SAPE   H3X18524   0.439   5.426   2.981 -1.2758 -0.2466  1.2416
  165SAPE   H3Y18525   0.436   5.615   2.971 -1.6899 -1.1244 -1.1210
  165SAPE   C3418526   0.571   5.515   3.108  0.7214 -0.5292  0.3363
  165SAPE   H4X18527   0.625   5.609   3.130  2.8181 -1.6192  0.0646
  165SAPE   H4Y18528   0.634   5.424   3.101 -2.5823 -2.9277 -1.1976
  165SAPE   C3518529   0.482   5.478   3.228 -0.3983  0.3914  0.6345
  165SAPE   H5X18530   0.433   5.385   3.193  1.6799 -0.5401  0.0249
  165SAPE   H5Y18531   0.414   5.565   3.239 -0.9785  0.0780 -0.3857
  165SAPE   C3618532   0.560   5.461   3.357  0.2718  0.2672 -0.7253
  165SAPE   H6X18533   0.632   5.539   3.390  1.7789 -2.2766  2.6415
  165SAPE   H6Y18534   0.625   5.373   3.337  1.1866  1.2112 -2.0694
  165SAPE   C3718535   0.456   5.424   3.465  0.0503 -1.0590  0.8201
  165SAPE   H7X18536   0.401   5.337   3.423  1.6436 -1.6739 -0.0853
  165SAPE   H7Y18537   0.381   5.504   3.483 -0.4842 -0.5419 -2.8161
  165SAPE   C3818538   0.526   5.395   3.592 -0.0273  0.0409 -0.7766
  165SAPE   H8X18539   0.580   5.482   3.635 -1.1581 -0.6069  2.1824
  165SAPE   H8Y18540   0.594   5.309   3.575  0.5281  0.2473  0.2935
  165SAPE   C3918541   0.427   5.356   3.701 -0.2531 -0.2813 -0.0170
  165SAPE   H9X18542   0.373   5.263   3.675 -0.6603 -0.1065  0.1914
  165SAPE   H9Y18543   0.359   5.443   3.712  0.9171  0.7074 -0.3060
  165SAPE  C31018544   0.496   5.327   3.834 -0.8382 -0.5623 -0.3845
  165SAPE  H10X18545   0.431   5.345   3.922  0.8222  0.1906  0.7252
  165SAPE  H10Y18546   0.575   5.404   3.844 -0.3627 -0.5812 -3.0969
  165SAPE  C31118547   0.575   5.195   3.837 -0.3167 -0.2725  0.2660
  165SAPE  H11X18548   0.641   5.188   3.748 -2.4874 -2.6751 -1.3033
  165SAPE  H11Y18549   0.497   5.119   3.816  0.7446 -0.8260 -1.9395
  165SAPE  C31218550   0.655   5.154   3.962  0.4446 -0.0284 -0.2585
  165SAPE  H12X18551   0.721   5.066   3.945  0.7790 -0.2511  1.9170
  165SAPE  H12Y18552   0.579   5.139   4.041  0.9375 -1.6808 -0.0598
  165SAPE  C31318553   0.751   5.256   4.009 -0.0241 -0.5870 -0.4118
  165SAPE  H13X18554   0.701   5.329   4.076  2.0421  1.1700 -0.6447
  165SAPE  H13Y18555   0.783   5.312   3.919  3.5455 -1.7353 -0.0593
  165SAPE  C31418556   0.873   5.203   4.093 -0.5344  0.3436 -0.2033
  165SAPE  H14X18557   0.932   5.288   4.132 -1.9837  1.5914 -0.6093
  165SAPE  H14Y18558   0.931   5.137   4.024  1.4567 -0.1219  1.8268
  165SAPE  C31518559   0.830   5.110   4.207  0.1847  0.1282  0.1070
  165SAPE  H15X18560   0.794   5.013   4.167  1.4767  0.2296 -1.3704
  165SAPE  H15Y18561   0.738   5.160   4.243 -0.3899 -0.9971  0.2484
  165SAPE  C31618562   0.928   5.098   4.322  0.3449  0.5109  0.2516
  165SAPE  H16X18563   0.958   5.203   4.345 -2.5005  1.3364  0.6325
  165SAPE  H16Y18564   1.017   5.037   4.295  2.4506  2.4608  2.2160
  165SAPE  C31718565   0.870   5.048   4.449 -0.0348  0.1004 -0.0673
  165SAPE  H17X18566   0.851   4.939   4.435  0.9994  0.0578 -1.4750
  165SAPE  H17Y18567   0.770   5.094   4.463  0.0810  0.3681 -0.1148
  165SAPE  C31818568   0.949   5.075   4.572  0.2312 -0.1338 -0.5513
  165SAPE  H18X18569   0.977   5.182   4.577  0.5970 -0.2708  0.4685
  165SAPE  H18Y18570   1.035   5.007   4.588 -0.3324 -0.6861  0.2338
  165SAPE  H18Z18571   0.883   5.043   4.656  1.2313  1.4382  0.8866
  166SAPE     N18572   2.649   5.491   2.277  0.3231  0.1016  0.8452
  166SAPE   HN118573   2.662   5.592   2.301 -2.0174  0.8715 -0.7499
  166SAPE   HN218574   2.683   5.459   2.184 -2.9157 -1.7023  0.1200
  166SAPE   HN318575   2.546   5.503   2.268  0.2959  0.3876  1.4764
  166SAPE   C1218576   2.703   5.413   2.389  0.1197 -0.6759  0.2121
  166SAPE  H12A18577   2.634   5.329   2.411 -2.3848  1.0917 -0.5001
  166SAPE  H12B18578   2.719   5.481   2.475 -2.0474 -0.0918  0.2086
  166SAPE   C1118579   2.832   5.341   2.332 -0.6230  0.5421  0.2920
  166SAPE  H11A18580   2.861   5.270   2.412 -0.1901 -0.1836 -0.4888
  166SAPE  H11B18581   2.920   5.408   2.341 -1.0339  1.0624  0.4637
  166SAPE     P18582   2.736   5.169   2.165  0.0310 -0.2087 -0.2019
  166SAPE   O1318583   2.608   5.219   2.116 -0.1991  0.0123 -0.9057
  166SAPE   O1418584   2.805   5.063   2.090  0.0679 -0.5359  0.4571
  166SAPE   O1218585   2.828   5.292   2.198 -0.2940 -0.3688 -0.7438
  166SAPE   O1118586   2.712   5.115   2.307  0.6401 -0.3774 -0.1248
  166SAPE    C118587   2.605   5.021   2.329 -0.2387  0.6229 -0.1449
  166SAPE    HA18588   2.500   5.057   2.325 -1.3229 -2.3769 -2.1632
  166SAPE    HB18589   2.604   4.937   2.256  0.0733 -0.4574  1.0476
  166SAPE    C218590   2.625   4.942   2.464 -0.2087  0.6181 -0.2808
  166SAPE    HS18591   2.713   4.876   2.451 -0.2012  0.4548  0.5327
  166SAPE   O2118592   2.508   4.867   2.493  0.1889 -0.5323  0.1165
  166SAPE   C2118593   2.528   4.766   2.577  0.0929  0.0635  0.2988
  166SAPE   O2218594   2.632   4.720   2.617  0.1243  0.6745  0.2747
  166SAPE   C2218595   2.394   4.710   2.623 -0.1345 -0.0356 -0.1577
  166SAPE   H2R18596   2.316   4.785   2.597  1.0978  1.0835 -0.7456
  166SAPE   H2S18597   2.379   4.607   2.585  0.3278  0.1903 -0.9755
  166SAPE    C318598   2.669   5.044   2.569  0.3274  0.3322 -0.4473
  166SAPE    HX18599   2.574   5.101   2.580  1.5025  2.4605 -0.8006
  166SAPE    HY18600   2.752   5.106   2.530 -0.3198  0.4282 -1.7288
  166SAPE   O3118601   2.703   4.974   2.692 -0.1573  1.1715 -0.2171
  166SAPE   C3118602   2.833   4.967   2.716 -0.5378  0.0988 -0.4428
  166SAPE   O3218603   2.925   5.009   2.650 -0.5024 -0.4335 -0.1598
  166SAPE   C3218604   2.848   4.882   2.846 -0.0806 -0.3232 -0.4598
  166SAPE   H2X18605   2.871   4.775   2.826  1.2401  0.2113 -2.0200
  166SAPE   H2Y18606   2.756   4.892   2.908  1.1311 -3.1669  2.0690
  166SAPE   C2318607   2.402   4.693   2.779 -0.1130 -0.2692 -0.0935
  166SAPE   H3R18608   2.505   4.663   2.806 -0.7279 -2.0244  0.4910
  166SAPE   H3S18609   2.344   4.600   2.801  2.1977 -1.6656  0.3962
  166SAPE   C2418610   2.330   4.816   2.850  0.3656  0.0601 -0.1868
  166SAPE   H4R18611   2.300   4.787   2.953  0.5688 -0.6109 -0.3077
  166SAPE   H4S18612   2.239   4.842   2.793  1.6627  1.0061 -1.9309
  166SAPE   C2518613   2.415   4.937   2.852 -0.7065  0.1992  0.0166
  166SAPE   H5R18614   2.431   4.988   2.756  1.3731  1.7404  1.0998
  166SAPE   C2618615   2.465   5.007   2.950 -0.5919  0.0440 -1.0340
  166SAPE   H6R18616   2.507   5.107   2.930  1.0196 -0.6227 -1.1606
  166SAPE   C2718617   2.462   4.979   3.095  1.0902 -0.3879 -0.5683
  166SAPE   H7R18618   2.359   4.981   3.137  1.6584  1.5932  0.8984
  166SAPE   H7S18619   2.523   5.064   3.132 -0.2213  0.0576  0.6578
  166SAPE   C2818620   2.526   4.848   3.137 -0.2788 -0.3248 -0.3114
  166SAPE   H8R18621   2.554   4.777   3.058  2.1126 -1.7967  1.6850
  166SAPE   C2918622   2.570   4.812   3.260  0.3431  0.1767 -0.3071
  166SAPE   H9R18623   2.613   4.712   3.271  1.1592  0.3497 -1.6737
  166SAPE  C21018624   2.556   4.872   3.398 -0.6435 -0.2965  0.3729
  166SAPE  H10R18625   2.475   4.809   3.439 -0.9131 -0.7207 -0.7752
  166SAPE  H10S18626   2.519   4.977   3.390  0.4212 -0.0565 -2.9208
  166SAPE  C21118627   2.687   4.889   3.470  0.2185  0.2375  0.1325
  166SAPE  H11R18628   2.777   4.890   3.408  0.5627 -0.4180  0.6067
  166SAPE  C21218629   2.692   4.917   3.604 -0.1626 -0.3872  0.1081
  166SAPE  H12R18630   2.795   4.917   3.645  0.3928  0.7365 -1.1994
  166SAPE  C21318631   2.571   4.915   3.693  0.2746 -0.2319 -0.0683
  166SAPE  H13R18632   2.536   4.811   3.671 -0.5493  0.3060 -1.4659
  166SAPE  H13S18633   2.498   4.990   3.655  1.2121 -0.4511 -2.4799
  166SAPE  C21418634   2.607   4.943   3.833 -0.3973  0.1016 -0.2268
  166SAPE  H14R18635   2.654   4.859   3.886 -1.2999 -0.3683 -0.1461
  166SAPE  C21518636   2.562   5.038   3.913  0.0830 -0.7881 -0.2162
  166SAPE  H15R18637   2.582   5.030   4.021  0.2794  0.6395 -0.1281
  166SAPE  C21618638   2.483   5.160   3.861  0.3445 -0.0054  0.1012
  166SAPE  H16R18639   2.375   5.137   3.853  0.5684 -1.9977  1.9008
  166SAPE  H16S18640   2.519   5.193   3.761 -0.3433 -0.2648 -0.2383
  166SAPE  C21718641   2.491   5.286   3.955  0.4396  0.2001  0.4424
  166SAPE  H17R18642   2.446   5.369   3.897  0.1749 -0.0018  0.3588
  166SAPE  H17S18643   2.598   5.314   3.967  1.1420 -2.1058  0.1299
  166SAPE  C21818644   2.450   5.265   4.097 -0.5368  0.7928  0.1010
  166SAPE  H18R18645   2.477   5.164   4.134 -1.3724  0.0053 -1.3384
  166SAPE  H18S18646   2.340   5.271   4.109 -0.7286 -1.2953 -0.3700
  166SAPE  C21918647   2.508   5.361   4.205  0.0938 -0.2767 -0.2538
  166SAPE  H19R18648   2.612   5.329   4.225 -0.0956 -0.5979  0.2561
  166SAPE  H19S18649   2.463   5.336   4.303  0.3537  1.4408  0.3364
  166SAPE  C22018650   2.485   5.514   4.175 -0.0032  0.0561  0.1323
  166SAPE  H20R18651   2.536   5.575   4.253 -0.7938 -0.1745  0.8397
  166SAPE  H20S18652   2.378   5.537   4.192  0.2551  1.4792  0.0230
  166SAPE  H20T18653   2.511   5.550   4.073 -0.7379  3.3365  0.9754
  166SAPE   C3318654   2.952   4.943   2.947 -0.1281 -0.4632  0.2352
  166SAPE   H3X18655   2.929   5.051   2.962 -2.6503 -0.8278 -0.4049
  166SAPE   H3Y18656   3.048   4.939   2.892 -0.8638  0.8622 -1.2621
  166SAPE   C3418657   2.959   4.880   3.083 -0.6481  0.1033  0.4829
  166SAPE   H4X18658   2.943   4.770   3.076 -2.8973  0.4481 -0.8107
  166SAPE   H4Y18659   2.872   4.914   3.142  1.4064  1.1306  3.1084
  166SAPE   C3518660   3.071   4.934   3.172 -0.2014  0.6802  0.2823
  166SAPE   H5X18661   3.065   5.044   3.170  1.0948  0.7944  1.3343
  166SAPE   H5Y18662   3.165   4.901   3.122  0.7930  1.2392  1.7085
  166SAPE   C3618663   3.053   4.894   3.322  0.1921  0.4147  0.1093
  166SAPE   H6X18664   3.044   4.783   3.331  1.3904  0.4295  2.2535
  166SAPE   H6Y18665   2.955   4.934   3.358 -0.8394 -0.1023 -1.9571
  166SAPE   C3718666   3.152   4.949   3.416  0.2510 -0.4003 -0.2749
  166SAPE   H7X18667   3.163   5.060   3.414  0.4668 -0.4002  0.6476
  166SAPE   H7Y18668   3.257   4.918   3.399  0.0329 -1.4114  0.1726
  166SAPE   C3818669   3.117   4.907   3.556 -0.5107  0.3965 -0.0124
  166SAPE   H8X18670   3.104   4.797   3.569  0.8431  0.2325  0.1158
  166SAPE   H8Y18671   3.014   4.949   3.563 -0.2611  0.8963  0.7559
  166SAPE   C3918672   3.225   4.971   3.660 -0.0711  0.0186  0.0986
  166SAPE   H9X18673   3.238   5.081   3.646  0.4999  0.0220  0.6062
  166SAPE   H9Y18674   3.320   4.933   3.617  1.3653  0.3100  2.8079
  166SAPE  C31018675   3.202   4.931   3.797 -0.0729  0.0621 -0.6044
  166SAPE  H10X18676   3.195   4.821   3.809 -0.8544  0.0881 -0.8011
  166SAPE  H10Y18677   3.124   4.995   3.843  0.4429  2.1882 -2.5042
  166SAPE  C31118678   3.323   4.963   3.899  0.5550  0.5594  0.1093
  166SAPE  H11X18679   3.265   4.940   3.992 -2.3562  0.4356 -1.6193
  166SAPE  H11Y18680   3.363   5.065   3.887  1.9827  0.2155  1.4937
  166SAPE  C31218681   3.434   4.862   3.870 -0.0067 -0.2248 -0.7359
  166SAPE  H12X18682   3.486   4.891   3.776  1.0984 -1.2550 -0.4756
  166SAPE  H12Y18683   3.398   4.757   3.858  0.6681 -0.7655  1.4551
  166SAPE  C31318684   3.541   4.865   3.977 -0.4269  0.1051 -0.0175
  166SAPE  H13X18685   3.508   4.870   4.083  3.3509  0.1810  1.3253
  166SAPE  H13Y18686   3.603   4.956   3.961  0.9828 -0.3656  2.2784
  166SAPE  C31418687   3.644   4.749   3.972 -0.2229 -0.2465 -0.0561
  166SAPE  H14X18688   3.687   4.729   3.872 -0.3250 -0.3991 -0.0695
  166SAPE  H14Y18689   3.577   4.663   3.994 -0.7276  0.1307 -0.1042
  166SAPE  C31518690   3.747   4.766   4.089  0.1354  0.1290 -0.2995
  166SAPE  H15X18691   3.691   4.795   4.180 -1.7565 -0.5631 -1.1922
  166SAPE  H15Y18692   3.809   4.855   4.068  0.6937  0.5588  2.6995
  166SAPE  C31618693   3.835   4.636   4.106  0.1829  0.6629 -0.3918
  166SAPE  H16X18694   3.896   4.618   4.015 -1.6642 -1.5121 -1.2914
  166SAPE  H16Y18695   3.776   4.542   4.116  0.0537  0.6308 -1.3707
  166SAPE  C31718696   3.937   4.642   4.220 -0.2987 -0.3086 -0.1878
  166SAPE  H17X18697   4.001   4.730   4.199  0.6142 -1.1066 -0.8487
  166SAPE  H17Y18698   3.995   4.547   4.219 -1.0453 -0.9620  3.4806
  166SAPE  C31818699   3.883   4.658   4.367  0.1574  0.6353 -0.1650
  166SAPE  H18X18700   3.837   4.758   4.380  0.7462  0.8787  0.0872
  166SAPE  H18Y18701   3.954   4.642   4.451 -0.8498 -0.8275  0.4528
  166SAPE  H18Z18702   3.808   4.577   4.375  2.8069 -2.2819 -2.0791
  167SAPE     N18703   4.496   1.967   1.956 -0.4217 -0.1024 -0.4231
  167SAPE   HN118704   4.595   1.982   1.928 -0.0606  0.7564  1.2095
  167SAPE   HN218705   4.456   2.063   1.967 -0.7495 -0.0031 -2.0740
  167SAPE   HN318706   4.491   1.918   2.047 -1.6129  1.6668  0.5407
  167SAPE   C1218707   4.432   1.891   1.840 -0.0364 -0.0355 -0.0819
  167SAPE  H12A18708   4.392   1.968   1.771 -1.4583 -2.0009 -1.5452
  167SAPE  H12B18709   4.345   1.834   1.879 -1.6867  2.8355  0.7101
  167SAPE   C1118710   4.544   1.812   1.772  0.0058  0.0276  0.0442
  167SAPE  H11A18711   4.593   1.755   1.854 -1.4088 -0.1018  0.8221
  167SAPE  H11B18712   4.626   1.868   1.722 -0.2686 -0.8538 -1.4560
  167SAPE     P18713   4.425   1.586   1.696  0.0732 -0.0266  0.1020
  167SAPE   O1318714   4.289   1.570   1.641  0.5947  0.1219 -0.0754
  167SAPE   O1418715   4.528   1.490   1.654 -0.1009  0.5679 -0.0697
  167SAPE   O1218716   4.483   1.736   1.668  0.4386  0.5945 -1.2336
  167SAPE   O1118717   4.407   1.594   1.855 -0.1312  1.1303 -0.3116
  167SAPE    C118718   4.329   1.489   1.910  0.1706  0.7605  0.0673
  167SAPE    HA18719   4.230   1.484   1.861 -0.2953 -2.6166  1.0943
  167SAPE    HB18720   4.389   1.395   1.908  0.1583  0.7588 -1.4312
  167SAPE    C218721   4.306   1.519   2.058  0.1969  0.1720 -1.2799
  167SAPE    HS18722   4.262   1.621   2.054  0.8925  0.4493 -3.9771
  167SAPE   O2118723   4.426   1.503   2.130  0.0898 -0.3597  0.0036
  167SAPE   C2118724   4.504   1.606   2.146  0.2279  0.0473  0.5096
  167SAPE   O2218725   4.476   1.725   2.123 -0.2858 -0.1297 -0.3177
  167SAPE   C2218726   4.606   1.557   2.242  0.2979  0.3160 -0.2510
  167SAPE   H2R18727   4.560   1.569   2.343  0.2485 -2.5197  0.1417
  167SAPE   H2S18728   4.617   1.447   2.237 -0.2345  0.0523  2.5774
  167SAPE    C318729   4.198   1.413   2.118 -0.1522 -0.0102 -0.0128
  167SAPE    HX18730   4.244   1.312   2.121  0.4679  0.2864  1.5921
  167SAPE    HY18731   4.108   1.414   2.052 -0.1490  4.8541 -0.3447
  167SAPE   O3118732   4.156   1.465   2.241  0.2750 -0.2899 -0.0947
  167SAPE   C3118733   4.191   1.398   2.350 -0.4780 -0.3604 -0.1168
  167SAPE   O3218734   4.260   1.300   2.354 -0.2430 -0.3264  0.2830
  167SAPE   C3218735   4.148   1.479   2.472 -0.0093  0.1957  0.2239
  167SAPE   H2X18736   4.061   1.420   2.509 -0.7320 -0.0160 -1.6643
  167SAPE   H2Y18737   4.117   1.585   2.460  3.7701  1.5731  1.3968
  167SAPE   C2318738   4.745   1.620   2.220 -0.7113  0.4681 -0.0747
  167SAPE   H3R18739   4.771   1.699   2.294  1.8332  0.2528 -0.6424
  167SAPE   H3S18740   4.749   1.662   2.117 -2.1043  2.1252  0.4859
  167SAPE   C2418741   4.862   1.517   2.239  0.6578 -0.0270 -0.4673
  167SAPE   H4R18742   4.958   1.572   2.227  1.0629 -0.6765 -0.2124
  167SAPE   H4S18743   4.858   1.442   2.158 -0.4965 -1.9730  1.2860
  167SAPE   C2518744   4.856   1.440   2.372 -0.2688 -0.0201  0.5812
  167SAPE   H5R18745   4.841   1.332   2.360  1.4504 -0.7084  3.6738
  167SAPE   C2618746   4.862   1.487   2.497 -0.5372 -0.1809  0.4639
  167SAPE   H6R18747   4.849   1.411   2.576 -1.1597 -1.5812 -0.9271
  167SAPE   C2718748   4.887   1.630   2.540 -0.9986 -0.4291 -0.0394
  167SAPE   H7R18749   4.924   1.694   2.457 -0.8135 -0.8606 -0.2908
  167SAPE   H7S18750   4.970   1.619   2.613 -2.0905 -0.6883  1.2019
  167SAPE   C2818751   4.782   1.696   2.617  0.1063 -0.0897  0.3483
  167SAPE   H8R18752   4.727   1.767   2.555 -0.4131 -1.3675 -0.6856
  167SAPE   C2918753   4.739   1.680   2.745 -0.3355  0.3411  0.1800
  167SAPE   H9R18754   4.656   1.744   2.776 -1.6678 -1.0382 -0.4056
  167SAPE  C21018755   4.801   1.591   2.851 -0.4106  0.7573  0.1067
  167SAPE  H10R18756   4.862   1.657   2.916  0.9142 -0.2172 -0.0844
  167SAPE  H10S18757   4.871   1.511   2.817 -1.1794 -0.1522  0.6121
  167SAPE  C21118758   4.699   1.525   2.935 -0.1359  0.1296  0.1125
  167SAPE  H11R18759   4.610   1.485   2.884 -0.3630 -0.0644  0.6570
  167SAPE  C21218760   4.701   1.511   3.071  0.2942 -0.2314 -0.1854
  167SAPE  H12R18761   4.615   1.455   3.111 -1.5821  0.1790 -3.2875
  167SAPE  C21318762   4.805   1.560   3.171  0.0392 -0.6529  0.1013
  167SAPE  H13R18763   4.753   1.606   3.259  0.3627 -2.6924  1.4125
  167SAPE  H13S18764   4.864   1.646   3.134  1.0455 -1.3677  0.0278
  167SAPE  C21418765   4.889   1.441   3.217 -0.0236 -0.2122  0.1247
  167SAPE  H14R18766   4.943   1.399   3.132 -0.5341  0.9302 -0.7834
  167SAPE  C21518767   4.893   1.381   3.340 -0.3053  0.3091  0.3413
  167SAPE  H15R18768   4.949   1.289   3.362 -0.5178  0.7019  2.7433
  167SAPE  C21618769   4.818   1.436   3.460  0.0397  0.3823 -0.1798
  167SAPE  H16R18770   4.726   1.489   3.428 -0.1023 -0.0569 -0.5158
  167SAPE  H16S18771   4.876   1.516   3.509  0.4135 -1.1799  2.0828
  167SAPE  C21718772   4.790   1.335   3.571  0.6602 -0.3336 -0.1079
  167SAPE  H17R18773   4.732   1.255   3.520  0.4899 -2.0247  2.5101
  167SAPE  H17S18774   4.733   1.378   3.656  1.0138 -0.0378 -0.0206
  167SAPE  C21818775   4.912   1.261   3.628 -0.5733 -0.3537 -0.0890
  167SAPE  H18R18776   4.999   1.324   3.658  1.0399 -2.4650 -0.0819
  167SAPE  H18S18777   4.963   1.184   3.565  0.0190 -1.9849  2.2242
  167SAPE  C21918778   4.869   1.178   3.750  0.1040  0.4077 -0.1877
  167SAPE  H19R18779   4.956   1.113   3.773 -1.8671 -1.6497  2.0766
  167SAPE  H19S18780   4.791   1.100   3.738 -0.1222  0.7160 -0.7388
  167SAPE  C22018781   4.839   1.271   3.870 -0.0825 -0.5760  0.1848
  167SAPE  H20R18782   4.833   1.220   3.969  1.7977  2.1793  1.8611
  167SAPE  H20S18783   4.737   1.313   3.856 -0.7567 -0.3204  4.5275
  167SAPE  H20T18784   4.909   1.356   3.883  0.5536 -1.0708  0.0310
  167SAPE   C3318785   4.258   1.494   2.583 -0.2304 -0.9850 -0.8365
  167SAPE   H3X18786   4.312   1.586   2.552 -0.1252 -0.1392  1.5988
  167SAPE   H3Y18787   4.335   1.414   2.585 -0.8272 -1.5523  0.2243
  167SAPE   C3418788   4.211   1.536   2.727  0.0365  0.3754 -0.6243
  167SAPE   H4X18789   4.128   1.464   2.747 -0.3416  1.0632  0.3578
  167SAPE   H4Y18790   4.183   1.643   2.724 -0.2282  0.3780  0.9018
  167SAPE   C3518791   4.328   1.528   2.824  0.3664  0.9295  0.2659
  167SAPE   H5X18792   4.398   1.615   2.821  1.6201 -0.0290  0.7492
  167SAPE   H5Y18793   4.394   1.441   2.802  0.4840  0.8673  0.8580
  167SAPE   C3618794   4.280   1.502   2.965  0.3849  0.5364  0.7677
  167SAPE   H6X18795   4.362   1.470   3.032 -0.7460  0.1132  1.9983
  167SAPE   H6Y18796   4.197   1.431   2.984 -0.0926  1.2131  1.2592
  167SAPE   C3718797   4.229   1.624   3.030 -0.4226 -0.1589 -0.9747
  167SAPE   H7X18798   4.132   1.661   2.992 -0.9174 -0.9258 -0.4847
  167SAPE   H7Y18799   4.296   1.713   3.032  0.3175 -0.7184  0.8753
  167SAPE   C3818800   4.215   1.603   3.181  0.7980 -1.1295 -0.2214
  167SAPE   H8X18801   4.156   1.512   3.205  1.1964 -1.5728 -0.8815
  167SAPE   H8Y18802   4.157   1.690   3.218  0.9092 -0.6824 -1.0792
  167SAPE   C3918803   4.339   1.600   3.274 -0.3473 -0.5019  0.3627
  167SAPE   H9X18804   4.396   1.694   3.259 -1.0806 -0.4371 -2.6430
  167SAPE   H9Y18805   4.404   1.526   3.221 -1.5226  1.7085 -4.8011
  167SAPE  C31018806   4.307   1.580   3.419 -0.0323  0.3026 -0.9352
  167SAPE  H10X18807   4.276   1.474   3.432  2.0708 -0.2552 -0.1880
  167SAPE  H10Y18808   4.214   1.637   3.441 -0.2460 -0.6269  0.7123
  167SAPE  C31118809   4.411   1.622   3.517 -0.4553  0.3029  0.2517
  167SAPE  H11X18810   4.430   1.731   3.500  0.4298  0.2406  0.7388
  167SAPE  H11Y18811   4.513   1.588   3.488  1.5639  3.3158  3.0549
  167SAPE  C31218812   4.371   1.573   3.657  0.1025  0.3815  0.2827
  167SAPE  H12X18813   4.266   1.599   3.681  0.2341 -0.5540  1.9774
  167SAPE  H12Y18814   4.431   1.627   3.733  1.1287 -1.6667  1.0091
  167SAPE  C31318815   4.391   1.422   3.680  0.1937  0.4390 -0.2384
  167SAPE  H13X18816   4.475   1.382   3.619 -0.2801  1.4471 -1.6012
  167SAPE  H13Y18817   4.302   1.375   3.633  0.2316 -0.3161  0.4206
  167SAPE  C31418818   4.403   1.367   3.825 -0.8955 -1.0519 -0.3938
  167SAPE  H14X18819   4.506   1.401   3.851 -0.7376  0.5233 -2.7682
  167SAPE  H14Y18820   4.406   1.256   3.831  1.5784 -1.0009  0.8084
  167SAPE  C31518821   4.296   1.420   3.925 -1.0033 -0.5479  0.7536
  167SAPE  H15X18822   4.193   1.414   3.881 -0.6635  0.4130 -0.2244
  167SAPE  H15Y18823   4.322   1.528   3.930  0.5941 -0.9187  0.8202
  167SAPE  C31618824   4.296   1.353   4.065 -0.4797  0.0822 -0.5571
  167SAPE  H16X18825   4.249   1.420   4.140  2.2166  0.6992  0.6983
  167SAPE  H16Y18826   4.404   1.358   4.092 -0.0929  2.7440 -2.1765
  167SAPE  C31718827   4.244   1.214   4.073  0.2365 -0.6998  0.6055
  167SAPE  H17X18828   4.261   1.176   4.176  1.4080  0.2154  0.7678
  167SAPE  H17Y18829   4.314   1.148   4.018 -1.6717 -0.1377 -2.7775
  167SAPE  C31818830   4.102   1.194   4.028  0.2466 -0.5274  0.4764
  167SAPE  H18X18831   4.093   1.210   3.918  3.8116 -1.9087 -0.1362
  167SAPE  H18Y18832   4.037   1.278   4.063 -0.0719  1.2291 -3.7065
  167SAPE  H18Z18833   4.068   1.097   4.068  0.7581 -0.8679  0.0892
  168SAPE     N18834   0.083   2.806   2.079  0.1896 -0.6729  0.1970
  168SAPE   HN118835   0.161   2.872   2.060  0.7519 -1.3279  0.2091
  168SAPE   HN218836  -0.004   2.860   2.058 -0.8975 -2.4505 -0.0929
  168SAPE   HN318837   0.058   2.788   2.178 -0.1894 -0.9195  0.0589
  168SAPE   C1218838   0.102   2.683   2.005  0.1445  0.4581  0.6336
  168SAPE  H12A18839   0.080   2.707   1.899 -0.8568 -1.2677  0.4106
  168SAPE  H12B18840   0.021   2.612   2.032  0.2918  0.4156  0.9688
  168SAPE   C1118841   0.246   2.629   2.023  0.4733 -0.1897  0.1496
  168SAPE  H11A18842   0.266   2.541   1.959 -0.9938 -0.3320 -0.1471
  168SAPE  H11B18843   0.243   2.592   2.128  0.7900 -0.8032 -0.0519
  168SAPE     P18844   0.496   2.697   2.036 -0.3562  0.1824  0.3872
  168SAPE   O1318845   0.536   2.603   1.924  0.5222 -0.2611  0.7299
  168SAPE   O1418846   0.569   2.825   2.050  0.1542 -0.3417 -0.2903
  168SAPE   O1218847   0.343   2.724   2.018  0.2223 -0.7166 -0.2843
  168SAPE   O1118848   0.492   2.615   2.172  0.5410 -0.1261  0.6025
  168SAPE    C118849   0.431   2.683   2.284  0.7670 -0.0364 -0.4006
  168SAPE    HA18850   0.492   2.770   2.318 -1.0175  0.9118  0.5326
  168SAPE    HB18851   0.328   2.717   2.263  0.9934 -0.4388 -2.3736
  168SAPE    C218852   0.449   2.591   2.415 -0.2399 -0.2534 -0.1163
  168SAPE    HS18853   0.355   2.536   2.434 -0.8011  1.0526  1.1074
  168SAPE   O2118854   0.458   2.683   2.530  0.4517 -0.9235  0.1561
  168SAPE   C2118855   0.345   2.735   2.570  0.4856 -0.7076  0.6129
  168SAPE   O2218856   0.238   2.741   2.509  0.1233  0.2536 -0.7097
  168SAPE   C2218857   0.348   2.768   2.723  0.7888 -0.2306  0.4888
  168SAPE   H2R18858   0.409   2.860   2.723 -2.6306  2.3793 -3.1051
  168SAPE   H2S18859   0.246   2.800   2.754  1.5566  0.3814  2.5007
  168SAPE    C318860   0.565   2.485   2.413 -0.3025 -0.1821  0.1675
  168SAPE    HX18861   0.660   2.543   2.419 -0.7347  0.5917 -0.2908
  168SAPE    HY18862   0.566   2.436   2.313 -0.4745  1.1987 -0.5360
  168SAPE   O3118863   0.564   2.390   2.526 -0.2284 -0.4936 -0.0223
  168SAPE   C3118864   0.469   2.289   2.518 -0.3974  0.0891 -0.5846
  168SAPE   O3218865   0.395   2.271   2.422 -0.3037 -0.0859  0.3572
  168SAPE   C3218866   0.486   2.194   2.633 -0.7983 -0.1436 -0.4592
  168SAPE   H2X18867   0.566   2.121   2.605  0.3092  0.2219  1.5863
  168SAPE   H2Y18868   0.390   2.140   2.646 -0.6985 -0.5376 -1.2964
  168SAPE   C2318869   0.399   2.665   2.828 -0.4939 -0.4373  0.2454
  168SAPE   H3R18870   0.471   2.722   2.891  1.1448 -2.2876  0.1331
  168SAPE   H3S18871   0.463   2.584   2.788 -0.6356 -0.3843 -0.0854
  168SAPE   C2418872   0.288   2.626   2.924  0.0321 -0.3669 -0.5713
  168SAPE   H4R18873   0.211   2.567   2.869 -0.2343 -0.3241 -0.2521
  168SAPE   H4S18874   0.240   2.721   2.955  1.3838 -0.4125  1.8765
  168SAPE   C2518875   0.335   2.540   3.042  0.8239  0.6673 -0.4212
  168SAPE   H5R18876   0.385   2.447   3.011 -0.9766 -0.2348 -0.7360
  168SAPE   C2618877   0.330   2.565   3.175  0.2320 -0.3739 -0.6196
  168SAPE   H6R18878   0.376   2.493   3.244  2.9227  3.6923  2.3386
  168SAPE   C2718879   0.259   2.680   3.243  0.2471 -0.1368  0.0040
  168SAPE   H7R18880   0.249   2.643   3.348  0.3498 -1.1025 -0.3166
  168SAPE   H7S18881   0.154   2.697   3.211 -0.3305 -0.9636  1.3501
  168SAPE   C2818882   0.326   2.818   3.236  0.1389 -0.2725  0.0154
  168SAPE   H8R18883   0.356   2.858   3.138 -0.3061  2.6316  0.9972
  168SAPE   C2918884   0.323   2.904   3.346  0.3914 -0.2526  0.0786
  168SAPE   H9R18885   0.367   3.005   3.343  0.2158 -0.1380  1.0888
  168SAPE  C21018886   0.275   2.884   3.484  0.5242  0.9668 -0.2689
  168SAPE  H10R18887   0.222   2.787   3.495 -0.5450  1.3971 -1.3532
  168SAPE  H10S18888   0.198   2.962   3.503 -2.1894 -1.8122  0.8972
  168SAPE  C21118889   0.385   2.894   3.582  0.7414  0.3144  0.4772
  168SAPE  H11R18890   0.488   2.908   3.548 -0.3550  0.5041 -3.1722
  168SAPE  C21218891   0.356   2.888   3.715 -0.7044  0.0463  0.5498
  168SAPE  H12R18892   0.440   2.895   3.786 -1.3072  1.9563  1.1306
  168SAPE  C21318893   0.221   2.852   3.789 -0.1040  0.1245 -0.1449
  168SAPE  H13R18894   0.240   2.790   3.880  2.7659  0.1090 -0.6505
  168SAPE  H13S18895   0.172   2.776   3.726 -3.6582  1.1327  1.1912
  168SAPE  C21418896   0.134   2.974   3.798 -0.1357 -0.2632  0.1607
  168SAPE  H14R18897   0.178   3.060   3.745  0.7830  0.5906  2.1838
  168SAPE  C21518898   0.041   2.997   3.898  0.4288 -0.4495 -0.0370
  168SAPE  H15R18899   0.014   3.100   3.926  0.9292  0.2268 -1.9132
  168SAPE  C21618900   0.008   2.888   3.997  0.2337  0.7172 -0.6459
  168SAPE  H16R18901   0.032   2.924   4.099 -0.2506 -1.2461  0.1995
  168SAPE  H16S18902   0.067   2.797   3.973  0.8715  1.5123 -2.2696
  168SAPE  C21718903  -0.139   2.846   4.003  0.3460  0.3270 -0.0068
  168SAPE  H17R18904  -0.149   2.776   4.089  1.6513  0.0057 -0.0916
  168SAPE  H17S18905  -0.172   2.807   3.905  1.0901  0.9098 -0.4959
  168SAPE  C21818906  -0.235   2.965   4.031  0.2628 -0.1720  0.1403
  168SAPE  H18R18907  -0.233   3.039   3.948 -0.8281  0.2374  0.4605
  168SAPE  H18S18908  -0.199   3.004   4.128  0.2639 -0.4111  0.2370
  168SAPE  C21918909  -0.384   2.925   4.051  0.2327 -0.1799 -0.1120
  168SAPE  H19R18910  -0.373   2.832   4.111 -1.8809 -0.6175 -0.3118
  168SAPE  H19S18911  -0.442   2.908   3.958 -3.4733  1.3365  1.7063
  168SAPE  C22018912  -0.439   3.037   4.137  0.3285  0.3028 -0.8793
  168SAPE  H20R18913  -0.535   3.001   4.179  2.0184 -2.2655  1.0620
  168SAPE  H20S18914  -0.441   3.134   4.081 -0.7238 -0.4551 -2.2294
  168SAPE  H20T18915  -0.385   3.057   4.231 -0.3128 -0.5504 -0.3137
  168SAPE   C3318916   0.524   2.251   2.767 -0.5386 -0.0528 -0.4683
  168SAPE   H3X18917   0.444   2.322   2.798 -1.7942 -1.1650 -1.0404
  168SAPE   H3Y18918   0.624   2.298   2.759  1.2240 -2.9338  2.1390
  168SAPE   C3418919   0.536   2.138   2.872  0.2162 -0.3909  0.6196
  168SAPE   H4X18920   0.611   2.070   2.827 -1.6515 -2.7055  0.8058
  168SAPE   H4Y18921   0.441   2.082   2.883  0.0203 -0.8337 -2.4004
  168SAPE   C3518922   0.564   2.186   3.013  0.2961 -0.2742 -0.8292
  168SAPE   H5X18923   0.481   2.252   3.047  0.9029 -0.0261  0.2295
  168SAPE   H5Y18924   0.659   2.243   3.019  0.3923 -0.4555 -0.6473
  168SAPE   C3618925   0.570   2.064   3.114  0.8009  0.0890  0.4549
  168SAPE   H6X18926   0.642   1.983   3.087 -0.6146 -0.5150 -1.7632
  168SAPE   H6Y18927   0.473   2.011   3.107  1.4688 -1.0830 -0.3106
  168SAPE   C3718928   0.586   2.097   3.257 -0.7513 -1.0021 -0.0355
  168SAPE   H7X18929   0.665   2.175   3.256  0.3181 -2.0262 -2.3076
  168SAPE   H7Y18930   0.623   2.010   3.313  0.2411 -1.0766 -0.7841
  168SAPE   C3818931   0.451   2.129   3.318 -0.0162  0.0400  0.5011
  168SAPE   H8X18932   0.383   2.043   3.339  2.7439 -2.0437  1.4212
  168SAPE   H8Y18933   0.394   2.189   3.244  1.0549 -2.9132 -3.0283
  168SAPE   C3918934   0.462   2.200   3.452  0.2388  0.3084 -0.5496
  168SAPE   H9X18935   0.360   2.212   3.494  0.4876 -0.6445  0.3875
  168SAPE   H9Y18936   0.512   2.299   3.448 -0.2928  0.5711 -0.8240
  168SAPE  C31018937   0.543   2.131   3.557  0.6762  0.4157  0.0278
  168SAPE  H10X18938   0.651   2.137   3.532  0.4217  1.1092 -0.9785
  168SAPE  H10Y18939   0.510   2.025   3.564  1.0857  0.3824  2.4103
  168SAPE  C31118940   0.522   2.192   3.697  0.4130  0.2189  0.2334
  168SAPE  H11X18941   0.420   2.173   3.737  0.1084  2.9351  1.0181
  168SAPE  H11Y18942   0.547   2.300   3.685  1.2585  0.1294  1.0334
  168SAPE  C31218943   0.612   2.132   3.811  0.0848 -0.4915  0.6512
  168SAPE  H12X18944   0.707   2.184   3.785 -1.1391  2.3074  1.3338
  168SAPE  H12Y18945   0.628   2.023   3.798  2.0728 -0.1204 -0.3313
  168SAPE  C31318946   0.575   2.167   3.961  0.4815  0.2959  0.1769
  168SAPE  H13X18947   0.465   2.177   3.972  0.4159  0.7254 -0.7308
  168SAPE  H13Y18948   0.612   2.270   3.980  2.6744 -0.2104 -1.0073
  168SAPE  C31418949   0.636   2.060   4.053  0.7686 -0.3231 -0.1289
  168SAPE  H14X18950   0.583   1.964   4.031  1.3791 -0.4893 -0.8944
  168SAPE  H14Y18951   0.605   2.103   4.151 -1.0724  1.9658 -1.6118
  168SAPE  C31518952   0.788   2.023   4.044  0.2740  0.4825 -0.0371
  168SAPE  H15X18953   0.847   2.118   4.038 -0.5478  1.0329  0.4115
  168SAPE  H15Y18954   0.797   1.970   3.947  0.9418  0.1019  0.2300
  168SAPE  C31618955   0.835   1.937   4.163 -0.6353 -0.2826  0.1675
  168SAPE  H16X18956   0.767   1.849   4.171 -1.5732  0.4519  0.5921
  168SAPE  H16Y18957   0.835   2.003   4.252 -0.2267  1.3606 -1.0056
  168SAPE  C31718958   0.975   1.876   4.140 -0.3178  0.3775  0.1153
  168SAPE  H17X18959   0.961   1.812   4.050 -1.8503 -0.9727  1.2458
  168SAPE  H17Y18960   0.983   1.809   4.228 -0.4690  0.5758  0.2784
  168SAPE  C31818961   1.107   1.958   4.126 -0.3380  0.3925 -0.8476
  168SAPE  H18X18962   1.119   2.013   4.222 -1.5967  0.0827 -0.4896
  168SAPE  H18Y18963   1.090   2.022   4.038 -1.1831 -1.0213 -1.7527
  168SAPE  H18Z18964   1.195   1.892   4.112 -0.9575 -0.7766  0.5138
  169SAPE     N18965   3.918   0.693   1.858 -0.5238  0.0574 -0.5066
  169SAPE   HN118966   4.015   0.680   1.894 -0.9759 -1.8957  0.1246
  169SAPE   HN218967   3.846   0.662   1.926  0.1415 -0.8106 -0.1757
  169SAPE   HN318968   3.912   0.642   1.768 -2.3866  0.2803 -0.5418
  169SAPE   C1218969   3.885   0.835   1.819  0.7206 -1.5033 -1.0372
  169SAPE  H12A18970   3.953   0.858   1.734  3.1012 -4.2555 -0.0383
  169SAPE  H12B18971   3.915   0.906   1.899  0.7401 -1.5512 -1.0021
  169SAPE   C1118972   3.741   0.857   1.762 -0.5458 -0.4827  0.3323
  169SAPE  H11A18973   3.734   0.790   1.673  0.3772  2.1486 -1.8913
  169SAPE  H11B18974   3.731   0.961   1.723  0.7168 -0.7718 -0.8269
  169SAPE     P18975   3.500   0.763   1.812 -0.5030  0.4022 -0.2312
  169SAPE   O1318976   3.456   0.833   1.694  0.1494  0.4285  0.7382
  169SAPE   O1418977   3.521   0.619   1.813  0.5448  0.0813  0.7586
  169SAPE   O1218978   3.644   0.816   1.858  0.6237 -0.2985 -0.5690
  169SAPE   O1118979   3.397   0.803   1.921 -0.0664  1.1388 -0.2636
  169SAPE    C118980   3.371   0.944   1.941 -0.1270  0.8528  0.1480
  169SAPE    HA18981   3.442   1.007   1.884  0.6848  0.7220  0.9952
  169SAPE    HB18982   3.263   0.961   1.920  0.0123  0.4438 -0.9631
  169SAPE    C218983   3.390   0.977   2.094 -0.6471 -0.5012  0.1055
  169SAPE    HS18984   3.341   1.076   2.107 -0.9630 -0.4285 -1.4378
  169SAPE   O2118985   3.534   0.982   2.133  0.3399 -0.7374  0.1636
  169SAPE   C2118986   3.598   1.078   2.076 -0.5888  0.2443 -0.3222
  169SAPE   O2218987   3.556   1.159   1.994 -0.6973  0.0396 -0.1020
  169SAPE   C2218988   3.737   1.078   2.137 -0.0501  0.2386 -0.3054
  169SAPE   H2R18989   3.732   1.046   2.244 -1.7118 -0.8272 -0.6621
  169SAPE   H2S18990   3.800   1.009   2.076  1.0593  0.0951  0.9388
  169SAPE    C318991   3.316   0.876   2.190  0.3173  0.3400  0.2668
  169SAPE    HX18992   3.391   0.795   2.200  0.2079  0.1788 -0.1640
  169SAPE    HY18993   3.227   0.841   2.134  1.9393 -0.0346 -2.2669
  169SAPE   O3118994   3.289   0.927   2.317 -0.2028 -0.5443  0.4148
  169SAPE   C3118995   3.174   0.997   2.335 -0.2762  0.4390  0.0845
  169SAPE   O3218996   3.103   1.020   2.241  0.2685  0.5325 -0.2055
  169SAPE   C3218997   3.161   1.039   2.479 -0.0944 -0.3659  0.0718
  169SAPE   H2X18998   3.259   1.062   2.524  0.7675 -1.8469 -0.9600
  169SAPE   H2Y18999   3.124   0.945   2.524 -0.3523 -1.0426 -1.4815
  169SAPE   C2319000   3.813   1.216   2.123 -0.1130 -0.0573  0.5050
  169SAPE   H3R19001   3.763   1.270   2.039 -0.8125  1.7924  2.0438
  169SAPE   H3S19002   3.919   1.206   2.092 -0.5073  2.1135 -1.9719
  169SAPE   C2419003   3.816   1.311   2.237 -0.0078 -0.1290 -0.2042
  169SAPE   H4R19004   3.878   1.397   2.204  1.1449 -1.5354 -1.9064
  169SAPE   H4S19005   3.875   1.273   2.324  0.7402 -0.3842 -0.8140
  169SAPE   C2519006   3.674   1.340   2.264  0.1269 -0.1540  0.3538
  169SAPE   H5R19007   3.607   1.381   2.187  0.4080  1.2203  0.8046
  169SAPE   C2619008   3.615   1.305   2.377 -0.1918 -0.8779  0.3460
  169SAPE   H6R19009   3.506   1.315   2.375 -0.1765 -0.5130  1.1066
  169SAPE   C2719010   3.674   1.237   2.500  0.3854 -0.2247 -0.3011
  169SAPE   H7R19011   3.717   1.311   2.570 -4.0006 -0.4281  3.0012
  169SAPE   H7S19012   3.750   1.160   2.474 -0.7627 -0.9481 -1.6854
  169SAPE   C2819013   3.559   1.158   2.569  0.3636 -0.8097  0.0893
  169SAPE   H8R19014   3.523   1.075   2.507 -3.1424 -0.0072  0.7981
  169SAPE   C2919015   3.481   1.198   2.674 -0.7666  0.6252 -0.3347
  169SAPE   H9R19016   3.416   1.120   2.715 -2.1032  1.5169 -0.6979
  169SAPE  C21019017   3.494   1.313   2.763 -0.4038  0.0824 -0.1694
  169SAPE  H10R19018   3.396   1.352   2.795 -1.0447 -1.8131  0.3064
  169SAPE  H10S19019   3.538   1.403   2.715 -1.9161  0.1708 -1.4457
  169SAPE  C21119020   3.573   1.273   2.886  0.0251  0.1866 -0.4024
  169SAPE  H11R19021   3.674   1.234   2.864  0.9304  1.6923  0.8580
  169SAPE  C21219022   3.546   1.285   3.021 -0.5419  0.2348  0.3848
  169SAPE  H12R19023   3.620   1.244   3.091 -0.3221  0.0804  0.0638
  169SAPE  C21319024   3.419   1.344   3.082  0.9288 -0.5184  0.7256
  169SAPE  H13R19025   3.384   1.272   3.160  0.8824 -3.1088 -1.5553
  169SAPE  H13S19026   3.340   1.337   3.004  1.0754 -0.2515  0.5510
  169SAPE  C21419027   3.435   1.482   3.143  0.0802  0.2767 -0.3830
  169SAPE  H14R19028   3.490   1.553   3.080  0.8473  0.5678  0.5936
  169SAPE  C21519029   3.381   1.531   3.253  0.0841 -0.1417  0.5546
  169SAPE  H15R19030   3.414   1.633   3.281 -1.3801  0.4665  0.1707
  169SAPE  C21619031   3.271   1.468   3.338  0.0393  0.0252 -0.5135
  169SAPE  H16R19032   3.197   1.416   3.274 -0.6517  0.8203 -0.3816
  169SAPE  H16S19033   3.223   1.556   3.386  0.3733  2.4511 -4.2130
  169SAPE  C21719034   3.331   1.374   3.447  0.3347 -0.4670 -0.1410
  169SAPE  H17R19035   3.397   1.306   3.389 -0.3053 -2.0033  0.8724
  169SAPE  H17S19036   3.243   1.316   3.483 -0.8383  0.7635 -0.9051
  169SAPE  C21819037   3.400   1.453   3.555  0.5012 -0.8922  1.0197
  169SAPE  H18R19038   3.448   1.543   3.512 -0.2391 -0.9739 -0.0229
  169SAPE  H18S19039   3.474   1.376   3.587  1.5052 -0.0351  0.8237
  169SAPE  C21919040   3.310   1.508   3.657  0.4398  0.1697 -0.2395
  169SAPE  H19R19041   3.248   1.425   3.699  0.2377 -0.1132 -1.0722
  169SAPE  H19S19042   3.230   1.569   3.610 -0.5229  0.1089  1.2648
  169SAPE  C22019043   3.376   1.592   3.766 -0.3546 -0.3162  0.3809
  169SAPE  H20R19044   3.442   1.665   3.713 -0.4843  0.1077  0.7979
  169SAPE  H20S19045   3.446   1.529   3.825  3.5865  0.3623 -3.0538
  169SAPE  H20T19046   3.302   1.642   3.831  0.6950  0.4026  1.0592
  169SAPE   C3319047   3.064   1.156   2.506 -0.1862  0.0251  0.2702
  169SAPE   H3X19048   2.964   1.135   2.461  0.2730 -1.0677 -0.2745
  169SAPE   H3Y19049   3.100   1.257   2.480  0.5742 -0.5079 -0.7969
  169SAPE   C3419050   3.039   1.149   2.657 -1.0895  0.2601 -0.1623
  169SAPE   H4X19051   3.130   1.195   2.701 -1.3176 -1.0555  1.7576
  169SAPE   H4Y19052   3.035   1.045   2.694  1.5904 -0.4286 -1.5534
  169SAPE   C3519053   2.913   1.226   2.684  0.3517 -0.5594 -0.4687
  169SAPE   H5X19054   2.821   1.180   2.643  0.3762 -0.3309 -0.7887
  169SAPE   H5Y19055   2.920   1.322   2.628 -1.0638  0.2402  0.6523
  169SAPE   C3619056   2.916   1.276   2.827 -0.5663 -0.3935  0.2774
  169SAPE   H6X19057   3.015   1.322   2.851  0.1153 -0.9700 -1.2804
  169SAPE   H6Y19058   2.903   1.188   2.894  0.2448 -1.8022 -1.3430
  169SAPE   C3719059   2.803   1.370   2.858 -0.0392 -0.0762  0.0437
  169SAPE   H7X19060   2.710   1.350   2.800 -1.4762  1.5740  1.6568
  169SAPE   H7Y19061   2.833   1.468   2.814  1.1433 -0.0225  0.9326
  169SAPE   C3819062   2.771   1.388   3.007 -0.4532  0.4714 -0.7452
  169SAPE   H8X19063   2.741   1.292   3.054 -2.3168  1.0734 -0.6002
  169SAPE   H8Y19064   2.677   1.448   3.007  0.8481  2.6030 -0.8391
  169SAPE   C3919065   2.878   1.459   3.091 -0.0039  0.2605  0.3353
  169SAPE   H9X19066   2.880   1.568   3.067  0.3791  0.3051  0.5683
  169SAPE   H9Y19067   2.974   1.410   3.063 -0.1387  0.5991 -0.7870
  169SAPE  C31019068   2.866   1.449   3.246 -0.9172 -0.4867 -0.2709
  169SAPE  H10X19069   2.956   1.495   3.292 -1.0967 -1.3401  0.9751
  169SAPE  H10Y19070   2.854   1.344   3.282 -2.2876 -0.1799  0.2564
  169SAPE  C31119071   2.739   1.515   3.294  0.0751 -0.2029  0.2122
  169SAPE  H11X19072   2.653   1.450   3.266  0.3616 -0.3298 -0.3900
  169SAPE  H11Y19073   2.718   1.605   3.232 -3.2499 -0.6767  0.4245
  169SAPE  C31219074   2.743   1.539   3.448  0.1880  0.2328  0.4121
  169SAPE  H12X19075   2.758   1.434   3.484 -0.4734 -0.1012 -0.2553
  169SAPE  H12Y19076   2.644   1.571   3.489 -0.1624 -0.2256 -0.0612
  169SAPE  C31319077   2.857   1.625   3.500 -0.3215  0.0191 -0.0724
  169SAPE  H13X19078   2.841   1.723   3.451 -1.5828  0.0680  0.3923
  169SAPE  H13Y19079   2.952   1.581   3.460 -1.1793 -1.9988 -0.0239
  169SAPE  C31419080   2.853   1.626   3.648  0.6314 -0.2462  0.0960
  169SAPE  H14X19081   2.754   1.655   3.690  1.3086  0.2681  1.4145
  169SAPE  H14Y19082   2.913   1.714   3.680 -1.4387  0.7330  1.5513
  169SAPE  C31519083   2.919   1.502   3.711 -0.0812  0.4937  0.0404
  169SAPE  H15X19084   3.025   1.510   3.681  0.9327 -0.0755  3.1369
  169SAPE  H15Y19085   2.889   1.400   3.678 -0.9458  0.6205  0.3904
  169SAPE  C31619086   2.928   1.502   3.863  0.2969 -0.0194 -0.3928
  169SAPE  H16X19087   2.969   1.602   3.888 -0.0031 -0.3274  1.4996
  169SAPE  H16Y19088   3.013   1.443   3.902  2.0539  1.8487 -1.2113
  169SAPE  C31719089   2.788   1.479   3.932 -0.2439  0.2702  0.2842
  169SAPE  H17X19090   2.756   1.374   3.911 -1.9762  0.6162  1.0326
  169SAPE  H17Y19091   2.710   1.540   3.883 -0.6491 -1.1696 -0.9662
  169SAPE  C31819092   2.787   1.502   4.086  0.0891 -0.1573  0.1109
  169SAPE  H18X19093   2.694   1.470   4.138 -0.7004 -0.7315 -1.5880
  169SAPE  H18Y19094   2.800   1.612   4.095  0.6831 -0.1474 -0.7754
  169SAPE  H18Z19095   2.866   1.443   4.138 -0.0350 -0.5899 -0.1851
  170SAPE     N19096   1.424   1.301   1.554  0.0834 -1.0954  0.4891
  170SAPE   HN119097   1.510   1.287   1.610 -0.0096 -2.7727  0.2798
  170SAPE   HN219098   1.451   1.356   1.470 -0.8695 -0.3686  0.6414
  170SAPE   HN319099   1.349   1.357   1.599 -0.3144 -0.5515 -0.8065
  170SAPE   C1219100   1.370   1.166   1.512  0.4991 -0.0113  0.3234
  170SAPE  H12A19101   1.445   1.128   1.440  1.6099  1.7671  0.4676
  170SAPE  H12B19102   1.282   1.188   1.448  1.9409  1.8208 -1.1589
  170SAPE   C1119103   1.340   1.077   1.629  0.9144  0.2274 -0.5440
  170SAPE  H11A19104   1.315   0.975   1.592 -1.0168  0.6731 -0.5493
  170SAPE  H11B19105   1.246   1.110   1.677  0.7007  0.0837 -0.8594
  170SAPE     P19106   1.459   0.989   1.844 -0.2087  0.0027  0.1856
  170SAPE   O1319107   1.373   0.873   1.809  0.6488 -0.2225  0.3089
  170SAPE   O1419108   1.594   0.967   1.888  0.2442  0.6292  0.0099
  170SAPE   O1219109   1.459   1.079   1.713 -0.2782 -0.2839  0.4299
  170SAPE   O1119110   1.383   1.080   1.946 -0.6413  0.2936 -0.0274
  170SAPE    C119111   1.426   1.211   1.974 -0.3471 -0.5033  0.3466
  170SAPE    HA19112   1.492   1.252   1.895 -0.2806 -2.0381 -0.4268
  170SAPE    HB19113   1.346   1.286   1.991  1.4608  1.8370 -0.9141
  170SAPE    C219114   1.530   1.215   2.094  0.1708  0.8645  0.9407
  170SAPE    HS19115   1.614   1.150   2.061 -1.0605 -0.5648  0.5044
  170SAPE   O2119116   1.463   1.182   2.218  0.1371 -0.0717 -0.5217
  170SAPE   C2119117   1.527   1.110   2.305 -0.1969 -0.5740  0.2330
  170SAPE   O2219118   1.638   1.060   2.283  0.1913  0.2496 -0.5603
  170SAPE   C2219119   1.449   1.090   2.432  0.2300 -0.1208  0.2558
  170SAPE   H2R19120   1.399   1.187   2.452 -0.0171 -0.5747  2.0723
  170SAPE   H2S19121   1.375   1.010   2.412 -0.2515  0.2941  0.3679
  170SAPE    C319122   1.604   1.356   2.108 -0.5957  0.0862  0.6286
  170SAPE    HX19123   1.526   1.435   2.110  0.6367  1.4445 -1.7200
  170SAPE    HY19124   1.661   1.365   2.014 -1.3375 -3.3438 -0.2963
  170SAPE   O3119125   1.699   1.365   2.214 -0.3567  0.1527 -0.3156
  170SAPE   C3119126   1.734   1.491   2.246  0.4821  0.7235 -0.6086
  170SAPE   O3219127   1.689   1.589   2.190 -0.2093 -0.4434  0.0028
  170SAPE   C3219128   1.840   1.499   2.350 -0.6017 -0.8393  0.1222
  170SAPE   H2X19129   1.934   1.456   2.310  0.9802  1.1474  1.4839
  170SAPE   H2Y19130   1.804   1.445   2.440 -1.4367 -0.7990 -0.1811
  170SAPE   C2319131   1.546   1.061   2.556  0.5415 -0.4977  0.7597
  170SAPE   H3R19132   1.619   0.990   2.512 -1.1218 -0.0030 -3.2226
  170SAPE   H3S19133   1.498   1.015   2.645  1.7794 -0.8558  1.2690
  170SAPE   C2419134   1.608   1.195   2.595 -0.6454  0.1992  0.1956
  170SAPE   H4R19135   1.526   1.254   2.643 -1.0642 -0.8234  0.7529
  170SAPE   H4S19136   1.636   1.249   2.502  1.2420  0.6809  1.0087
  170SAPE   C2519137   1.731   1.189   2.681  0.4117  0.5249  0.1254
  170SAPE   H5R19138   1.823   1.154   2.630  0.4431 -1.6495  1.5224
  170SAPE   C2619139   1.736   1.223   2.811  0.5767 -0.0387 -0.5347
  170SAPE   H6R19140   1.831   1.201   2.861  0.0452 -0.7645  0.1781
  170SAPE   C2719141   1.627   1.284   2.899  0.4823  0.2280 -0.5221
  170SAPE   H7R19142   1.564   1.361   2.850  0.2543 -1.3839 -2.9650
  170SAPE   H7S19143   1.672   1.341   2.983 -1.5501  2.1556 -0.6455
  170SAPE   C2819144   1.522   1.190   2.945 -0.7844  0.0263  0.3697
  170SAPE   H8R19145   1.483   1.122   2.868  1.8127 -0.5376 -0.5436
  170SAPE   C2919146   1.480   1.188   3.071  0.2292 -0.0799  0.0397
  170SAPE   H9R19147   1.410   1.109   3.104  1.5544 -1.1785  0.3114
  170SAPE  C21019148   1.507   1.276   3.190 -0.3810  0.8496 -0.5222
  170SAPE  H10R19149   1.408   1.320   3.215 -1.1068 -1.0489  0.1198
  170SAPE  H10S19150   1.580   1.354   3.159  3.3868 -1.3323  2.1096
  170SAPE  C21119151   1.568   1.208   3.312  0.0711  0.1539 -0.3178
  170SAPE  H11R19152   1.637   1.126   3.290 -2.1018 -1.5886 -1.0729
  170SAPE  C21219153   1.566   1.259   3.441  0.3560 -0.7583 -0.0319
  170SAPE  H12R19154   1.620   1.202   3.518  1.0687  0.7316  0.6022
  170SAPE  C21319155   1.473   1.365   3.493  0.2973 -0.3002  0.4879
  170SAPE  H13R19156   1.378   1.354   3.436 -0.6694  3.7715  0.9937
  170SAPE  H13S19157   1.493   1.468   3.456 -1.0559 -1.2899 -3.4481
  170SAPE  C21419158   1.439   1.375   3.636 -0.6257  0.2542  0.3153
  170SAPE  H14R19159   1.335   1.347   3.657 -0.9577 -1.2469 -2.7962
  170SAPE  C21519160   1.537   1.408   3.731  1.0806  0.8231  0.3218
  170SAPE  H15R19161   1.502   1.397   3.834  1.1049  2.9167  0.5978
  170SAPE  C21619162   1.682   1.444   3.730 -0.1279 -0.0644 -0.6309
  170SAPE  H16R19163   1.714   1.463   3.625  1.2769  0.5295 -0.1298
  170SAPE  H16S19164   1.754   1.371   3.774  0.1310  2.0340  2.9001
  170SAPE  C21719165   1.709   1.578   3.809  0.4954 -0.3383  0.0399
  170SAPE  H17R19166   1.667   1.660   3.747  1.3419 -1.1616 -1.6961
  170SAPE  H17S19167   1.819   1.594   3.815  0.4318  0.6961 -1.1752
  170SAPE  C21819168   1.658   1.590   3.955  0.1071 -0.1921  0.0684
  170SAPE  H18R19169   1.714   1.512   4.011  0.4255  0.4145  0.6240
  170SAPE  H18S19170   1.548   1.579   3.955 -0.0101  0.8067 -0.6135
  170SAPE  C21919171   1.703   1.725   4.012 -0.1394  0.2210  0.4707
  170SAPE  H19R19172   1.807   1.730   3.975  0.2555 -0.9738  1.3487
  170SAPE  H19S19173   1.706   1.723   4.123  2.0461 -0.1284  0.4335
  170SAPE  C22019174   1.608   1.835   3.967  0.0096 -0.3107 -0.6791
  170SAPE  H20R19175   1.506   1.809   4.003  0.1923 -0.7770 -0.4897
  170SAPE  H20S19176   1.602   1.843   3.857 -1.2544  0.2009 -0.5819
  170SAPE  H20T19177   1.641   1.937   3.998 -0.8183 -0.3638  0.4520
  170SAPE   C3319178   1.860   1.648   2.389  0.1991  0.7979  1.0682
  170SAPE   H3X19179   1.854   1.710   2.297  0.3139  0.8805  1.1167
  170SAPE   H3Y19180   1.968   1.647   2.415  0.9530 -2.9918 -1.2661
  170SAPE   C3419181   1.768   1.708   2.497  0.5539 -0.3138 -0.0456
  170SAPE   H4X19182   1.663   1.684   2.466  0.6972 -1.7468  0.4804
  170SAPE   H4Y19183   1.784   1.817   2.507 -0.5975  0.0757 -1.9150
  170SAPE   C3519184   1.784   1.639   2.636 -0.3962 -0.6780  0.1024
  170SAPE   H5X19185   1.894   1.648   2.644 -0.4679  4.3211 -1.3131
  170SAPE   H5Y19186   1.747   1.534   2.637 -1.0040 -0.4729 -0.1145
  170SAPE   C3619187   1.705   1.719   2.741  0.6626  0.0110 -0.1813
  170SAPE   H6X19188   1.602   1.725   2.700  1.2552  0.4566 -1.6549
  170SAPE   H6Y19189   1.741   1.824   2.731  1.3521 -0.1732  0.3182
  170SAPE   C3719190   1.724   1.668   2.884 -0.0408  0.3557 -0.0026
  170SAPE   H7X19191   1.826   1.695   2.918 -0.1766  0.9189 -0.0317
  170SAPE   H7Y19192   1.721   1.557   2.889  1.4014  0.3623  3.6693
  170SAPE   C3819193   1.632   1.726   2.987  0.0741 -0.5387  0.2270
  170SAPE   H8X19194   1.525   1.721   2.956  0.1893  0.2706 -0.3341
  170SAPE   H8Y19195   1.665   1.831   3.001  0.1029 -0.1965 -1.9532
  170SAPE   C3919196   1.635   1.657   3.120  0.3969  0.1507  0.4536
  170SAPE   H9X19197   1.623   1.550   3.094  0.9116  0.1581  0.1717
  170SAPE   H9Y19198   1.549   1.691   3.182  0.2759 -1.1476  1.0162
  170SAPE  C31019199   1.764   1.668   3.198  0.6924  0.4405 -0.0115
  170SAPE  H10X19200   1.850   1.665   3.128 -0.4251 -2.7684 -1.4264
  170SAPE  H10Y19201   1.771   1.576   3.259  0.5440 -0.3023 -1.0981
  170SAPE  C31119202   1.775   1.786   3.291 -0.3472  0.0496 -0.6575
  170SAPE  H11X19203   1.690   1.784   3.363  0.4439  0.7613  0.3241
  170SAPE  H11Y19204   1.779   1.884   3.239 -1.0975  0.9788  0.9562
  170SAPE  C31219205   1.908   1.786   3.362  0.3698  0.0248  0.2179
  170SAPE  H12X19206   1.984   1.822   3.289  0.7542  0.0932  0.6438
  170SAPE  H12Y19207   1.935   1.681   3.385  1.7741  0.0188 -1.2895
  170SAPE  C31319208   1.915   1.885   3.476 -0.4418 -0.1146 -0.4245
  170SAPE  H13X19209   1.815   1.904   3.520  0.9218  2.5429  1.8393
  170SAPE  H13Y19210   1.957   1.979   3.434  1.4817 -0.0207  1.5187
  170SAPE  C31419211   2.001   1.838   3.584 -1.1029  0.0138 -0.5712
  170SAPE  H14X19212   2.095   1.791   3.547 -1.6064 -1.9236  0.4510
  170SAPE  H14Y19213   1.960   1.764   3.656 -0.0872  0.5837  0.6311
  170SAPE  C31519214   2.049   1.958   3.663 -1.1069  0.5687  0.0162
  170SAPE  H15X19215   1.960   2.011   3.702 -2.4381 -0.1881 -1.8874
  170SAPE  H15Y19216   2.099   2.034   3.599  1.8770 -0.9130  0.4014
  170SAPE  C31619217   2.139   1.916   3.783  0.0778  0.5520 -0.2807
  170SAPE  H16X19218   2.181   2.012   3.819 -0.2987  0.8263 -0.5666
  170SAPE  H16Y19219   2.224   1.849   3.759 -1.3302 -2.0964  1.5139
  170SAPE  C31719220   2.062   1.862   3.903  0.1575  0.0226 -0.4498
  170SAPE  H17X19221   2.022   1.761   3.878 -0.2679  0.3173 -0.9844
  170SAPE  H17Y19222   1.980   1.931   3.930 -1.9583 -1.8629 -1.7683
  170SAPE  C31819223   2.155   1.857   4.025  0.4570 -0.1335 -0.3474
  170SAPE  H18X19224   2.167   1.960   4.064  2.1893 -0.8494  1.1790
  170SAPE  H18Y19225   2.254   1.810   4.010  1.5080  1.8096  0.2077
  170SAPE  H18Z19226   2.104   1.801   4.107  1.2729 -3.0862 -1.7023
  171SAPE     N19227   1.529   2.382   1.693 -0.3923 -0.3663 -0.0992
  171SAPE   HN119228   1.531   2.304   1.762  2.8697  0.3659  0.8114
  171SAPE   HN219229   1.537   2.339   1.599  1.4106 -1.9180  0.7043
  171SAPE   HN319230   1.610   2.443   1.713 -0.2701 -1.2466  2.4611
  171SAPE   C1219231   1.401   2.466   1.690  0.5095  0.4646  0.2385
  171SAPE  H12A19232   1.412   2.531   1.600 -0.3222  2.6202  1.6279
  171SAPE  H12B19233   1.406   2.531   1.780  3.2426  0.4118  0.2027
  171SAPE   C1119234   1.277   2.382   1.677  0.7853  0.1328  0.5719
  171SAPE  H11A19235   1.278   2.342   1.573  0.2954 -0.6035  0.8437
  171SAPE  H11B19236   1.187   2.447   1.686 -0.7704 -1.9186  0.8267
  171SAPE     P19237   1.176   2.149   1.745 -0.0685 -0.1129  0.0801
  171SAPE   O1319238   1.032   2.191   1.744  0.3839 -0.5591  0.1677
  171SAPE   O1419239   1.228   2.079   1.624  0.2933  0.2621 -0.2548
  171SAPE   O1219240   1.265   2.278   1.772 -0.2571  0.1598 -0.2822
  171SAPE   O1119241   1.198   2.049   1.869  0.1884 -0.2265  1.0295
  171SAPE    C119242   1.335   2.014   1.887  0.6359  0.1301  0.2259
  171SAPE    HA19243   1.360   1.907   1.902  1.7176  0.5139  1.3066
  171SAPE    HB19244   1.408   2.035   1.806  1.4444  3.0247  1.5763
  171SAPE    C219245   1.391   2.089   2.006  0.4512 -0.1219 -0.1101
  171SAPE    HS19246   1.382   2.199   1.992 -1.1557 -0.3317 -1.0349
  171SAPE   O2119247   1.527   2.041   2.027  0.2125  0.6897 -0.3627
  171SAPE   C2119248   1.619   2.102   1.951  1.0433  0.4278 -0.0955
  171SAPE   O2219249   1.590   2.192   1.871  0.2998  0.0238 -0.1240
  171SAPE   C2219250   1.758   2.029   1.973 -0.8102  0.0732 -0.1636
  171SAPE   H2R19251   1.739   1.923   2.000  0.5683 -0.4777 -1.2766
  171SAPE   H2S19252   1.816   2.017   1.879  1.5558  0.8781  1.1268
  171SAPE    C319253   1.300   2.066   2.129  0.5412 -0.4444 -0.6296
  171SAPE    HX19254   1.279   1.957   2.125  0.0667 -0.4677  1.2126
  171SAPE    HY19255   1.200   2.112   2.112  0.2863 -0.8108 -0.1621
  171SAPE   O3119256   1.356   2.112   2.252 -0.3627 -0.6275  0.4186
  171SAPE   C3119257   1.341   2.026   2.351 -0.6895 -0.0156  0.2437
  171SAPE   O3219258   1.286   1.918   2.337 -0.8601 -0.2795  0.3906
  171SAPE   C3219259   1.416   2.071   2.481  0.8066 -0.9370 -0.1710
  171SAPE   H2X19260   1.349   2.153   2.514  1.4979 -0.0575 -0.8842
  171SAPE   H2Y19261   1.515   2.112   2.452  1.2609 -1.2493  0.9011
  171SAPE   C2319262   1.850   2.104   2.072 -0.1746  0.2354 -0.2611
  171SAPE   H3R19263   1.822   2.110   2.180  1.8545  2.0607  0.2509
  171SAPE   H3S19264   1.862   2.209   2.038 -0.0016  0.0630 -0.7276
  171SAPE   C2419265   1.992   2.042   2.089  0.2559  0.1901 -0.6962
  171SAPE   H4R19266   2.038   2.026   1.989  2.4030  0.7646  0.1402
  171SAPE   H4S19267   1.985   1.945   2.141  0.1532  0.7775  0.4231
  171SAPE   C2519268   2.077   2.128   2.174  0.1124  0.2180 -1.1594
  171SAPE   H5R19269   2.142   2.205   2.130 -1.7904  1.4269 -2.0102
  171SAPE   C2619270   2.071   2.122   2.309 -0.6757  0.2904 -0.1510
  171SAPE   H6R19271   2.139   2.181   2.373 -0.8290 -0.3770  0.6520
  171SAPE   C2719272   1.992   2.020   2.390 -0.2985 -0.6063  0.0343
  171SAPE   H7R19273   1.923   1.962   2.326 -2.9974  3.7305 -1.4607
  171SAPE   H7S19274   1.934   2.081   2.461 -0.5458  0.0248 -0.6912
  171SAPE   C2819275   2.086   1.930   2.461 -0.3463 -0.4304 -0.4639
  171SAPE   H8R19276   2.119   1.844   2.401  2.7325  0.0858  0.3472
  171SAPE   C2919277   2.125   1.939   2.593  0.0918 -0.0886  0.4661
  171SAPE   H9R19278   2.198   1.864   2.626  1.1543  1.2340  1.2076
  171SAPE  C21019279   2.094   2.052   2.685 -0.1105  0.2449  0.2580
  171SAPE  H10R19280   2.059   2.143   2.631 -0.4616  1.2854  2.1681
  171SAPE  H10S19281   2.190   2.079   2.734  0.2335 -0.8171  0.2023
  171SAPE  C21119282   1.996   2.023   2.793  0.4933 -0.4670 -0.1608
  171SAPE  H11R19283   1.892   2.030   2.756 -0.8535 -1.5585  3.0017
  171SAPE  C21219284   2.007   1.980   2.915 -0.5609  0.6489 -0.0086
  171SAPE  H12R19285   1.912   1.961   2.968 -0.3729  1.0311  0.4749
  171SAPE  C21319286   2.142   1.956   2.992  0.9732 -0.0600  0.7584
  171SAPE  H13R19287   2.219   1.919   2.921 -0.5913  0.5122 -1.3448
  171SAPE  H13S19288   2.120   1.877   3.067 -1.0494  0.4677  0.7772
  171SAPE  C21419289   2.195   2.078   3.056  0.0301  0.1466  0.7832
  171SAPE  H14R19290   2.208   2.171   2.998  0.1908 -0.1123  0.3990
  171SAPE  C21519291   2.242   2.092   3.186  0.7275 -0.1884 -0.4401
  171SAPE  H15R19292   2.260   2.197   3.213  1.1682  0.0877 -1.7220
  171SAPE  C21619293   2.251   1.988   3.290 -0.6968 -0.3289 -0.1480
  171SAPE  H16R19294   2.253   1.892   3.235  1.1636 -0.0063 -0.7007
  171SAPE  H16S19295   2.164   1.996   3.359  1.2526  2.4822  2.2136
  171SAPE  C21719296   2.387   2.005   3.374  0.5218 -0.5311  0.1246
  171SAPE  H17R19297   2.382   2.102   3.429 -1.3981  0.0377 -0.9488
  171SAPE  H17S19298   2.475   2.011   3.307  0.1469  1.5818 -0.2667
  171SAPE  C21819299   2.409   1.899   3.488 -0.4635  0.1982 -0.7680
  171SAPE  H18R19300   2.412   1.792   3.456 -2.2613  0.2408 -1.1798
  171SAPE  H18S19301   2.311   1.908   3.539 -0.4452  0.6483 -0.8084
  171SAPE  C21919302   2.531   1.925   3.583 -0.2394  0.3555  0.4472
  171SAPE  H19R19303   2.517   2.023   3.634  0.1696  0.0072  1.2497
  171SAPE  H19S19304   2.614   1.924   3.510 -0.8215 -1.1008 -0.2125
  171SAPE  C22019305   2.534   1.809   3.693 -0.0948 -0.0990  0.5566
  171SAPE  H20R19306   2.596   1.840   3.780  0.0520 -0.0853  0.4472
  171SAPE  H20S19307   2.566   1.716   3.642 -0.8821 -0.3730  0.5503
  171SAPE  H20T19308   2.432   1.784   3.731 -0.2401 -1.8031 -0.8398
  171SAPE   C3319309   1.421   1.961   2.589  0.3632  0.6261  0.1560
  171SAPE   H3X19310   1.506   1.893   2.568 -0.7639  0.1083 -3.3441
  171SAPE   H3Y19311   1.327   1.902   2.584 -0.5924  2.0384  0.7671
  171SAPE   C3419312   1.426   2.022   2.729  0.1389  0.3840  0.3783
  171SAPE   H4X19313   1.430   1.931   2.794  2.6018  0.0293 -0.1529
  171SAPE   H4Y19314   1.333   2.074   2.759 -0.3371 -0.2808  0.0610
  171SAPE   C3519315   1.553   2.096   2.755 -0.1585 -0.1654  0.3041
  171SAPE   H5X19316   1.560   2.176   2.678 -1.2098  1.8840  2.2159
  171SAPE   H5Y19317   1.639   2.026   2.756  0.3238  0.3754 -0.7979
  171SAPE   C3619318   1.539   2.175   2.885  0.0916  0.6210 -0.1227
  171SAPE   H6X19319   1.522   2.125   2.983 -0.3340 -1.4761 -1.2019
  171SAPE   H6Y19320   1.457   2.249   2.871 -0.2473  0.7674  2.2876
  171SAPE   C3719321   1.668   2.252   2.910  0.2079 -0.4022  0.1289
  171SAPE   H7X19322   1.695   2.323   2.829  1.9292 -0.3911  0.6801
  171SAPE   H7Y19323   1.749   2.178   2.926  0.2897  0.3990  4.8250
  171SAPE   C3819324   1.666   2.339   3.042  0.1877 -0.2237  0.2025
  171SAPE   H8X19325   1.762   2.321   3.094  0.8523  0.0318 -0.8902
  171SAPE   H8Y19326   1.578   2.304   3.099  1.8427 -1.4466  2.1510
  171SAPE   C3919327   1.641   2.490   3.029 -0.2087 -0.4738  0.2369
  171SAPE   H9X19328   1.555   2.510   2.960 -1.0063 -2.6749  0.5139
  171SAPE   H9Y19329   1.728   2.549   2.994 -1.1476  0.5798 -0.4169
  171SAPE  C31019330   1.609   2.545   3.175 -0.0803  0.3459 -0.0742
  171SAPE  H10X19331   1.706   2.539   3.229  0.7964 -0.8437 -1.6870
  171SAPE  H10Y19332   1.536   2.483   3.231  1.4214 -0.1580  1.4140
  171SAPE  C31119333   1.570   2.691   3.187  0.0558  0.9494  0.5771
  171SAPE  H11X19334   1.463   2.687   3.157  0.2940 -1.6114 -0.2224
  171SAPE  H11Y19335   1.626   2.761   3.122 -1.6127  1.2605 -0.6055
  171SAPE  C31219336   1.581   2.737   3.339 -0.0635  0.4492 -0.4577
  171SAPE  H12X19337   1.559   2.846   3.342 -0.5918  0.3242  0.3067
  171SAPE  H12Y19338   1.685   2.709   3.368 -0.6876 -0.6184  0.8179
  171SAPE  C31319339   1.482   2.674   3.434 -0.0549  0.0554  0.1202
  171SAPE  H13X19340   1.510   2.567   3.440 -1.6504 -0.3419  1.0452
  171SAPE  H13Y19341   1.375   2.682   3.406 -0.6385  0.6887  2.3120
  171SAPE  C31419342   1.492   2.725   3.582  0.3445  0.3025 -0.5415
  171SAPE  H14X19343   1.468   2.834   3.579 -3.7768 -0.4573 -1.5968
  171SAPE  H14Y19344   1.599   2.717   3.610 -0.0172  1.3508  1.3061
  171SAPE  C31519345   1.404   2.645   3.682  0.3230 -0.2898  0.2045
  171SAPE  H15X19346   1.429   2.537   3.673  2.1485  0.1207 -0.0895
  171SAPE  H15Y19347   1.299   2.656   3.648 -0.5811  0.2120  2.8880
  171SAPE  C31619348   1.402   2.671   3.832 -0.0789  0.8376 -0.4423
  171SAPE  H16X19349   1.318   2.616   3.880  1.1310 -0.7749 -0.0902
  171SAPE  H16Y19350   1.387   2.779   3.854 -0.4387  0.4582  1.2790
  171SAPE  C31719351   1.531   2.648   3.910  1.1072 -0.2108  0.1350
  171SAPE  H17X19352   1.546   2.704   4.005  0.3491 -2.4691  1.6839
  171SAPE  H17Y19353   1.599   2.699   3.838 -1.3025  0.3055 -1.8954
  171SAPE  C31819354   1.565   2.505   3.939  0.0685 -0.1085  0.1674
  171SAPE  H18X19355   1.492   2.467   4.014 -0.4010  0.9664  0.2748
  171SAPE  H18Y19356   1.668   2.483   3.973 -0.4765  1.4642  3.2482
  171SAPE  H18Z19357   1.539   2.437   3.855 -2.5206 -0.3100  1.0174
  172SAPE     N19358   4.907   4.448   2.284  0.3643 -0.0113 -0.1447
  172SAPE   HN119359   4.903   4.475   2.184 -1.2562 -1.1216 -0.4231
  172SAPE   HN219360   4.929   4.533   2.340 -1.1278  0.3224 -0.0270
  172SAPE   HN319361   4.993   4.390   2.293  0.0374 -0.5786 -0.5752
  172SAPE   C1219362   4.768   4.395   2.305  0.3652  0.1111  0.1140
  172SAPE  H12A19363   4.728   4.346   2.214  0.1706  0.3617  0.0631
  172SAPE  H12B19364   4.704   4.486   2.316  1.2889  0.9298 -1.0799
  172SAPE   C1119365   4.738   4.305   2.427 -0.5834  0.7444  0.0294
  172SAPE  H11A19366   4.631   4.279   2.436  0.1317 -1.9140  1.7831
  172SAPE  H11B19367   4.762   4.365   2.517 -1.0196  2.2132 -0.7867
  172SAPE     P19368   4.751   4.050   2.358  0.2027 -0.6047  0.1049
  172SAPE   O1319369   4.634   4.082   2.278  0.4350 -0.1210  0.0892
  172SAPE   O1419370   4.858   3.981   2.289  0.3648  0.1552  0.1968
  172SAPE   O1219371   4.815   4.186   2.413  1.2760  0.3146 -0.5019
  172SAPE   O1119372   4.708   3.977   2.491  0.1874  0.3212  0.4959
  172SAPE    C119373   4.776   4.006   2.617 -0.2865 -0.1050  0.3698
  172SAPE    HA19374   4.876   3.958   2.622 -0.4316 -0.2488  3.1966
  172SAPE    HB19375   4.779   4.116   2.632 -3.7301  0.4688 -2.0375
  172SAPE    C219376   4.710   3.953   2.747 -0.3467 -0.2307 -0.5686
  172SAPE    HS19377   4.668   3.852   2.725 -1.3654  0.3165 -1.1645
  172SAPE   O2119378   4.616   4.055   2.774  0.0350  0.4199 -0.1539
  172SAPE   C2119379   4.486   4.033   2.734 -0.2514 -0.7966 -0.2400
  172SAPE   O2219380   4.444   3.945   2.666  0.2149 -0.3695  0.5301
  172SAPE   C2219381   4.400   4.140   2.804 -0.4111 -1.0457  0.3612
  172SAPE   H2R19382   4.456   4.192   2.885 -0.0014  1.0476 -1.1940
  172SAPE   H2S19383   4.389   4.221   2.729  1.4892 -0.8328  0.2381
  172SAPE    C319384   4.816   3.948   2.865  0.0259 -0.1171  0.2192
  172SAPE    HX19385   4.853   4.049   2.889  0.5399 -0.4840  1.0131
  172SAPE    HY19386   4.909   3.891   2.841 -0.2407  0.1299 -1.4983
  172SAPE   O3119387   4.759   3.896   2.989 -0.4018 -0.0105 -0.1215
  172SAPE   C3119388   4.750   3.765   3.000 -0.2309 -0.7291  0.4862
  172SAPE   O3219389   4.802   3.681   2.930 -0.2804  0.6447  0.5041
  172SAPE   C3219390   4.665   3.738   3.123  0.2302 -0.1174 -0.1032
  172SAPE   H2X19391   4.578   3.805   3.142  1.2311  0.4675  3.0356
  172SAPE   H2Y19392   4.732   3.751   3.211 -0.2020 -2.4230  0.6429
  172SAPE   C2319393   4.276   4.081   2.881 -0.0956 -0.7874 -0.7864
  172SAPE   H3R19394   4.221   4.020   2.807 -3.2844  0.6031  0.2517
  172SAPE   H3S19395   4.207   4.162   2.913  1.0595  0.7703 -2.0810
  172SAPE   C2419396   4.306   4.003   3.015 -0.0951 -0.5636 -0.4397
  172SAPE   H4R19397   4.344   4.072   3.094 -0.7915  0.1738 -0.7312
  172SAPE   H4S19398   4.394   3.936   3.005  0.2649 -0.1175 -0.2976
  172SAPE   C2519399   4.185   3.924   3.062  0.0754 -0.0790  0.1296
  172SAPE   H5R19400   4.123   3.886   2.979 -0.1389  0.0156  0.2461
  172SAPE   C2619401   4.127   3.908   3.188 -0.6467 -0.9493  0.0368
  172SAPE   H6R19402   4.034   3.851   3.198 -0.3812 -1.8277 -2.0676
  172SAPE   C2719403   4.172   3.979   3.315 -0.3737 -0.0445 -0.2366
  172SAPE   H7R19404   4.083   4.013   3.371  0.2575 -1.4077  1.6971
  172SAPE   H7S19405   4.230   4.071   3.292 -1.4482  0.9844  1.0336
  172SAPE   C2819406   4.247   3.894   3.414 -0.1599  0.4998 -0.8484
  172SAPE   H8R19407   4.280   3.796   3.376  1.8979  0.3283  1.2285
  172SAPE   C2919408   4.270   3.911   3.545 -0.0621 -0.0456 -0.3880
  172SAPE   H9R19409   4.336   3.829   3.578  0.2485 -0.3820 -1.7747
  172SAPE  C21019410   4.212   4.022   3.627  0.3040  0.5035 -0.4439
  172SAPE  H10R19411   4.187   3.987   3.730  2.3924 -1.6446 -0.5812
  172SAPE  H10S19412   4.110   4.050   3.591  0.6748  1.5622 -0.6979
  172SAPE  C21119413   4.294   4.147   3.628  1.3344  0.0375 -0.0654
  172SAPE  H11R19414   4.315   4.180   3.525 -1.0305 -0.3736 -0.7614
  172SAPE  C21219415   4.352   4.215   3.724 -0.5548  0.0356 -0.5401
  172SAPE  H12R19416   4.386   4.316   3.697  0.9038  0.0363  1.1125
  172SAPE  C21319417   4.340   4.191   3.870  0.4423  0.2634  0.7257
  172SAPE  H13R19418   4.406   4.246   3.941 -0.1528 -1.2986  2.5974
  172SAPE  H13S19419   4.378   4.087   3.873  0.6018  0.2555 -0.7479
  172SAPE  C21419420   4.204   4.200   3.925  0.3708 -0.6545  0.9536
  172SAPE  H14R19421   4.132   4.260   3.868  0.9036 -1.1944 -0.3473
  172SAPE  C21519422   4.175   4.165   4.051  0.6474 -0.7937 -0.1379
  172SAPE  H15R19423   4.067   4.165   4.074  0.2847 -0.2509 -1.7334
  172SAPE  C21619424   4.260   4.087   4.154 -0.3876 -0.0276  0.2664
  172SAPE  H16R19425   4.363   4.070   4.116 -1.0801 -0.6402 -1.4271
  172SAPE  H16S19426   4.222   3.984   4.172 -0.0262 -0.1778  0.1607
  172SAPE  C21719427   4.271   4.153   4.296 -0.4815 -0.3055  0.2079
  172SAPE  H17R19428   4.331   4.087   4.361 -0.3049 -0.4339 -0.0813
  172SAPE  H17S19429   4.167   4.159   4.335 -1.4439 -2.8462 -1.6770
  172SAPE  C21819430   4.338   4.290   4.288 -0.1840 -0.2057  0.2559
  172SAPE  H18R19431   4.283   4.351   4.214 -2.7291 -0.4703  1.8250
  172SAPE  H18S19432   4.441   4.284   4.248 -0.2228  0.5905  0.0265
  172SAPE  C21919433   4.342   4.354   4.419 -0.7783  0.3370 -0.2978
  172SAPE  H19R19434   4.401   4.297   4.494 -2.7411 -0.2939  0.8444
  172SAPE  H19S19435   4.239   4.376   4.454 -0.9694 -0.0377 -0.6182
  172SAPE  C22019436   4.400   4.502   4.403 -0.6429  0.1720 -0.0164
  172SAPE  H20R19437   4.386   4.553   4.501 -4.5938  1.4882 -1.0411
  172SAPE  H20S19438   4.337   4.555   4.329 -2.0422 -0.5325  0.6267
  172SAPE  H20T19439   4.504   4.498   4.366 -0.2769  2.0337  0.6872
  172SAPE   C3319440   4.637   3.590   3.123  0.2401  0.1074  0.4352
  172SAPE   H3X19441   4.734   3.538   3.111 -0.5958 -1.1004 -1.5254
  172SAPE   H3Y19442   4.570   3.559   3.040  0.5299 -2.1074  0.9659
  172SAPE   C3419443   4.559   3.540   3.241 -0.1920  0.7028 -0.6806
  172SAPE   H4X19444   4.552   3.429   3.245 -0.4277  0.6921 -1.3595
  172SAPE   H4Y19445   4.456   3.584   3.241 -0.4290  0.1723  0.1132
  172SAPE   C3519446   4.619   3.589   3.377 -0.3408 -0.1498  0.1049
  172SAPE   H5X19447   4.589   3.696   3.384 -1.2228 -0.4255  0.7398
  172SAPE   H5Y19448   4.728   3.581   3.362 -0.6104 -0.8252 -1.6836
  172SAPE   C3619449   4.560   3.519   3.500 -0.0289  0.4829  0.0714
  172SAPE   H6X19450   4.569   3.410   3.483  0.4448  0.4178  0.7332
  172SAPE   H6Y19451   4.450   3.532   3.504  0.1326  1.7390  1.0934
  172SAPE   C3719452   4.634   3.556   3.631  0.0798  0.1425  0.1838
  172SAPE   H7X19453   4.608   3.660   3.660  1.0033 -0.1375  2.2078
  172SAPE   H7Y19454   4.743   3.556   3.612  0.0556  0.2420  0.0446
  172SAPE   C3819455   4.604   3.460   3.740  0.4260 -0.0926  0.4658
  172SAPE   H8X19456   4.696   3.453   3.803  3.1320  0.2568 -3.1520
  172SAPE   H8Y19457   4.589   3.360   3.694 -0.8789 -0.7785  2.2439
  172SAPE   C3919458   4.474   3.505   3.819 -0.5824 -0.2154 -0.9372
  172SAPE   H9X19459   4.380   3.518   3.761 -1.8926 -0.2634  1.0793
  172SAPE   H9Y19460   4.501   3.604   3.862 -4.3321 -0.4797  2.5504
  172SAPE  C31019461   4.457   3.410   3.936  0.3768 -0.6300 -0.8031
  172SAPE  H10X19462   4.555   3.365   3.964  1.1338  0.8095 -1.0057
  172SAPE  H10Y19463   4.380   3.335   3.912 -2.6415  0.5658  3.8349
  172SAPE  C31119464   4.397   3.494   4.050 -0.7165  0.1473 -0.1529
  172SAPE  H11X19465   4.333   3.441   4.124  0.4904  0.0403  0.8451
  172SAPE  H11Y19466   4.337   3.574   4.002 -0.7745 -0.7055 -1.5556
  172SAPE  C31219467   4.511   3.559   4.135  0.4621 -0.0071  0.4465
  172SAPE  H12X19468   4.581   3.617   4.071 -0.0044  0.8851  0.7376
  172SAPE  H12Y19469   4.582   3.490   4.186  0.3645 -0.9069 -0.5894
  172SAPE  C31319470   4.437   3.640   4.239 -0.2501 -0.4064 -0.1699
  172SAPE  H13X19471   4.360   3.579   4.290 -0.4935 -1.2757 -1.5342
  172SAPE  H13Y19472   4.397   3.726   4.182 -1.4516 -0.7008  0.1950
  172SAPE  C31419473   4.523   3.714   4.345  0.3312 -0.2448 -0.1338
  172SAPE  H14X19474   4.463   3.799   4.383  1.6056  0.8564 -0.5006
  172SAPE  H14Y19475   4.608   3.763   4.292  1.1113  1.0907  2.2219
  172SAPE  C31519476   4.575   3.626   4.460  0.1536  0.1957 -0.5984
  172SAPE  H15X19477   4.622   3.530   4.430 -1.0867 -0.1292 -1.5904
  172SAPE  H15Y19478   4.492   3.599   4.528  1.3781 -1.1180  0.4475
  172SAPE  C31619479   4.691   3.687   4.543 -0.0671 -0.5339 -0.0838
  172SAPE  H16X19480   4.654   3.782   4.586  0.9355  0.7012 -1.8329
  172SAPE  H16Y19481   4.788   3.705   4.492  0.4771 -0.0883  1.0819
  172SAPE  C31719482   4.744   3.591   4.651  0.1971  0.7605 -0.1747
  172SAPE  H17X19483   4.657   3.565   4.714 -1.4825 -0.4728 -2.8067
  172SAPE  H17Y19484   4.809   3.660   4.709 -0.2392  1.2451 -0.2547
  172SAPE  C31819485   4.813   3.471   4.593 -0.1118 -0.2084  0.7334
  172SAPE  H18X19486   4.885   3.498   4.513 -0.9408  0.3163  0.1394
  172SAPE  H18Y19487   4.742   3.390   4.565 -3.0040  2.5658 -0.6031
  172SAPE  H18Z19488   4.893   3.434   4.660 -0.4024 -0.7004  0.8155
  173SLPC     N19489   0.498   5.637   6.993  0.1159  0.4872 -0.0888
  173SLPC   C1319490   0.574   5.643   6.860  0.2633  0.2248 -0.4972
  173SLPC  H13A19491   0.557   5.737   6.809 -1.2274  0.0866 -0.3106
  173SLPC  H13B19492   0.680   5.636   6.874  0.4720  2.3854 -0.7653
  173SLPC  H13C19493   0.536   5.563   6.797 -0.3910  0.5151 -0.4881
  173SLPC   C1419494   0.362   5.690   6.966 -0.6284 -0.1551  0.4996
  173SLPC  H14A19495   0.294   5.691   7.050 -0.8867  0.2743  0.2876
  173SLPC  H14B19496   0.358   5.787   6.917  2.0112 -1.0743 -1.7802
  173SLPC  H14C19497   0.327   5.618   6.894  0.1780 -0.7273  0.6732
  173SLPC   C1519498   0.561   5.720   7.102  0.3845 -0.2128  0.3781
  173SLPC  H15A19499   0.515   5.698   7.197  0.2693 -0.7861  0.1978
  173SLPC  H15B19500   0.664   5.690   7.117 -0.0226 -1.4723  0.8155
  173SLPC  H15C19501   0.560   5.826   7.080  0.8142 -0.0276  1.2071
  173SLPC   C1219502   0.495   5.494   7.054  0.7867 -0.2771  0.0141
  173SLPC  H12A19503   0.440   5.502   7.146 -0.0770  1.7489 -0.6192
  173SLPC  H12B19504   0.596   5.460   7.071  1.2090 -0.6032 -2.6908
  173SLPC   C1119505   0.419   5.388   6.967  0.1610 -0.7114 -0.9542
  173SLPC  H11A19506   0.315   5.421   6.946 -1.3460 -2.0279  3.3832
  173SLPC  H11B19507   0.410   5.306   7.042 -0.8480 -0.8172 -1.1736
  173SLPC     P19508   0.630   5.294   6.844 -0.6338 -0.1905  0.0260
  173SLPC   O1319509   0.727   5.367   6.929 -0.4389 -0.0639  0.6834
  173SLPC   O1419510   0.632   5.149   6.857 -0.0234  0.5424  0.3805
  173SLPC   O1219511   0.486   5.352   6.850 -0.9327  0.7674 -0.3019
  173SLPC   O1119512   0.663   5.324   6.692  0.0015 -0.1296  0.2119
  173SLPC    C119513   0.785   5.286   6.636 -0.4640 -0.2197 -0.5432
  173SLPC    HA19514   0.871   5.277   6.707 -0.4344 -0.0469 -0.5559
  173SLPC    HB19515   0.776   5.193   6.577  3.3153 -0.9727 -0.2069
  173SLPC    C219516   0.834   5.388   6.532  0.5530 -0.3155 -0.0463
  173SLPC    HS19517   0.815   5.489   6.574  2.3715  0.3181 -0.6558
  173SLPC   O2119518   0.756   5.360   6.407 -0.2177 -0.4311 -0.4275
  173SLPC   C2119519   0.756   5.461   6.320  0.3562  1.3233 -0.2056
  173SLPC   O2219520   0.800   5.572   6.352 -0.0337 -0.2617  0.6838
  173SLPC   C2219521   0.695   5.412   6.188 -0.0360 -0.1667 -0.6649
  173SLPC   H2R19522   0.728   5.310   6.158  0.9557  0.1386 -0.6733
  173SLPC   H2S19523   0.586   5.398   6.202 -0.3861  1.9005 -0.9811
  173SLPC    C319524   0.991   5.395   6.520  0.7267 -0.3077  0.1346
  173SLPC    HX19525   1.031   5.411   6.622 -0.5595 -0.9609  0.7680
  173SLPC    HY19526   1.025   5.480   6.457  1.8900 -0.7222  0.1822
  173SLPC   O3119527   1.046   5.265   6.478  0.0974 -0.5059  0.0877
  173SLPC   C3119528   1.058   5.259   6.344  0.8523  1.1165 -0.7137
  173SLPC   O3219529   1.038   5.349   6.263  0.0172  0.5514 -0.2336
  173SLPC   C3219530   1.107   5.113   6.301 -0.3421 -0.7427  0.1874
  173SLPC   H2X19531   1.086   5.051   6.391 -2.6903  0.6545  0.6884
  173SLPC   H2Y19532   1.216   5.119   6.281 -0.6296 -0.4580 -1.4360
  173SLPC   C2319533   0.721   5.506   6.065 -0.0594  0.0838 -0.4633
  173SLPC   H3R19534   0.830   5.524   6.051 -0.1892  0.0118 -1.7160
  173SLPC   H3S19535   0.689   5.609   6.091  0.7292  0.5039 -1.0955
  173SLPC   C2419536   0.661   5.460   5.938  0.1648  0.7627 -0.4145
  173SLPC   H4R19537   0.667   5.538   5.859 -0.8659  2.3801  1.0206
  173SLPC   H4S19538   0.551   5.446   5.951  0.3217 -1.3759 -1.0280
  173SLPC   C2519539   0.706   5.323   5.886  0.1781  0.3723  0.0796
  173SLPC   H5R19540   0.633   5.274   5.817 -0.6922 -0.0058  1.2392
  173SLPC   H5S19541   0.716   5.250   5.969 -1.2711 -1.0761 -0.9424
  173SLPC   C2619542   0.849   5.324   5.834  0.0494  0.3642 -1.1757
  173SLPC   H6R19543   0.905   5.235   5.869  0.2672 -0.5108 -3.5907
  173SLPC   H6S19544   0.893   5.420   5.866 -2.6732  0.7336  2.1157
  173SLPC   C2719545   0.849   5.325   5.680 -0.5527  0.6182  0.4078
  173SLPC   H7R19546   0.802   5.230   5.644  0.5022  0.5098 -0.7669
  173SLPC   H7S19547   0.956   5.302   5.658 -1.2479 -1.0152 -1.5899
  173SLPC   C2819548   0.799   5.455   5.617  0.0035  0.6501  0.4824
  173SLPC   H8R19549   0.857   5.536   5.664  0.1214  1.3520 -0.8272
  173SLPC   H8S19550   0.691   5.469   5.641 -1.3526 -1.1244 -3.6153
  173SLPC   C2919551   0.807   5.465   5.464  0.3731  0.2284  0.0984
  173SLPC   H9R19552   0.896   5.515   5.424 -0.4415 -1.9555 -5.1363
  173SLPC  C21019553   0.712   5.435   5.370 -0.4683  0.0341  0.1718
  173SLPC  H10R19554   0.753   5.454   5.270  1.2543 -1.1549  0.5996
  173SLPC  C21119555   0.593   5.354   5.380  0.4268  0.0919 -0.0696
  173SLPC  H11R19556   0.524   5.389   5.301  0.4440 -1.0185 -0.5919
  173SLPC  H11S19557   0.554   5.366   5.483 -0.0343  2.5723 -0.4884
  173SLPC  C21219558   0.614   5.208   5.355  0.5615 -0.3566  0.1901
  173SLPC  H12R19559   0.704   5.174   5.409 -0.6408 -2.7464  0.8437
  173SLPC  C21319560   0.544   5.123   5.279  0.3989 -1.1400  0.3828
  173SLPC  H13R19561   0.563   5.015   5.272  0.2608 -1.1818  0.6483
  173SLPC  C21419562   0.425   5.157   5.194 -0.2495  0.2195  0.5685
  173SLPC  H14R19563   0.420   5.255   5.143  1.6397  0.1377  0.1719
  173SLPC  H14S19564   0.333   5.159   5.258 -0.1607 -3.5659  1.0258
  173SLPC  C21519565   0.391   5.045   5.093  0.0027 -0.2707 -0.6601
  173SLPC  H15R19566   0.313   5.086   5.026 -2.8125 -1.7695  1.4384
  173SLPC  H15S19567   0.348   4.953   5.138  0.7046 -0.9781 -1.4143
  173SLPC  C21619568   0.507   5.001   5.001 -0.0842 -0.1811 -0.2663
  173SLPC  H16R19569   0.588   4.948   5.055 -1.0033 -0.8188  0.5177
  173SLPC  H16S19570   0.544   5.096   4.958 -0.5668  0.6658  1.1224
  173SLPC  C21719571   0.467   4.907   4.892 -0.2610 -0.1796  0.4754
  173SLPC  H17R19572   0.389   4.946   4.824 -0.6586  0.5120  1.3098
  173SLPC  H17S19573   0.425   4.814   4.937  0.5167  0.2956  2.2877
  173SLPC  C21819574   0.582   4.869   4.802  0.3641  0.2603  0.5838
  173SLPC  H18R19575   0.622   4.962   4.758  0.3691 -0.0864 -0.1567
  173SLPC  H18S19576   0.553   4.795   4.725  1.6142  2.9256 -2.6885
  173SLPC  H18T19577   0.670   4.835   4.861  0.3361  0.1130  0.5405
  173SLPC   C3319578   1.030   5.044   6.187  0.1335 -0.7568  0.2027
  173SLPC   H3X19579   1.087   4.956   6.153 -0.0193 -0.9977  0.5586
  173SLPC   H3Y19580   1.024   5.108   6.096  0.0597  0.1843  0.8561
  173SLPC   C3419581   0.893   4.994   6.237  0.4455  0.5538 -0.4766
  173SLPC   H4X19582   0.844   5.069   6.303 -0.0254  0.6764 -0.9569
  173SLPC   H4Y19583   0.914   4.899   6.290 -1.1711 -0.5228 -1.6827
  173SLPC   C3519584   0.794   4.975   6.117 -0.3295 -0.1197 -0.5176
  173SLPC   H5X19585   0.807   5.073   6.065  1.4399  0.1650  0.3914
  173SLPC   H5Y19586   0.687   4.984   6.147 -0.0359  2.3821  0.0160
  173SLPC   C3619587   0.824   4.862   6.018 -0.9220 -0.1289  0.2026
  173SLPC   H6X19588   0.817   4.762   6.068  1.8600 -1.4116 -1.7219
  173SLPC   H6Y19589   0.927   4.873   5.981 -0.8782 -0.2520  0.2852
  173SLPC   C3719590   0.744   4.851   5.889  0.5987  0.3733  0.0701
  173SLPC   H7X19591   0.635   4.869   5.900  0.4704  0.7953 -1.5480
  173SLPC   H7Y19592   0.752   4.746   5.854 -0.6927  0.9572 -2.2365
  173SLPC   C3819593   0.779   4.946   5.771  0.1243  0.8525 -0.0210
  173SLPC   H8X19594   0.842   5.032   5.804  1.5637 -0.6782  1.3644
  173SLPC   H8Y19595   0.687   4.980   5.718  0.2345 -1.3223 -1.7578
  173SLPC   C3919596   0.860   4.868   5.662 -0.4904  0.2250 -0.9698
  173SLPC   H9X19597   0.819   4.765   5.659 -0.1222 -0.0005  0.7490
  173SLPC   H9Y19598   0.966   4.851   5.691 -0.9048 -0.7450  0.0080
  173SLPC  C31019599   0.847   4.928   5.523  0.3035  0.6488 -0.0236
  173SLPC  H10X19600   0.888   5.032   5.525 -3.0368  2.2038 -2.2569
  173SLPC  H10Y19601   0.737   4.935   5.513  0.1997 -0.0888  0.5594
  173SLPC  C31119602   0.918   4.840   5.412  0.5697 -0.7697 -0.1490
  173SLPC  H11X19603   0.885   4.735   5.424  1.6184 -0.9559  1.3397
  173SLPC  H11Y19604   1.026   4.833   5.439  0.9343  0.0900 -1.3318
  173SLPC  C31219605   0.899   4.895   5.273  0.5268 -0.0505  0.2733
  173SLPC  H12X19606   0.928   5.002   5.266  2.0356 -0.4041  0.7137
  173SLPC  H12Y19607   0.795   4.870   5.243 -0.1894  1.5688  1.3025
  173SLPC  C31319608   0.987   4.821   5.165  0.5547 -0.1740  0.8861
  173SLPC  H13X19609   0.999   4.711   5.172 -0.0800 -0.2812  0.4291
  173SLPC  H13Y19610   1.082   4.877   5.150 -0.5197  1.5871  0.2189
  173SLPC  C31419611   0.911   4.831   5.032 -0.3422 -0.2506 -0.1365
  173SLPC  H14X19612   0.873   4.932   5.009 -0.6493  0.0688  1.6240
  173SLPC  H14Y19613   0.819   4.768   5.031 -1.2419  0.9411  1.6113
  173SLPC  C31519614   1.003   4.798   4.907  0.1377 -0.4643  0.0107
  173SLPC  H15X19615   1.084   4.875   4.905 -0.8776  0.7584  2.1450
  173SLPC  H15Y19616   0.925   4.814   4.830  0.5546 -0.1825 -0.3648
  173SLPC  C31619617   1.055   4.654   4.900  0.3630 -0.1561 -0.2319
  173SLPC  H16X19618   0.960   4.597   4.886  0.0266  0.7875 -2.1192
  173SLPC  H16Y19619   1.091   4.624   5.000  0.4983 -2.3993 -0.8956
  173SLPC  C31719620   1.157   4.605   4.795 -0.0295  0.5346 -0.5653
  173SLPC  H17X19621   1.126   4.624   4.690 -0.2972 -1.1462 -0.8189
  173SLPC  H17Y19622   1.171   4.496   4.810  1.9876  0.8290  0.0726
  173SLPC  C31819623   1.292   4.672   4.794  0.7605 -0.7652  0.1081
  173SLPC  H18X19624   1.369   4.632   4.725 -0.7046 -2.5208 -0.5869
  173SLPC  H18Y19625   1.335   4.638   4.890  0.2973 -0.3536  0.4655
  173SLPC  H18Z19626   1.275   4.781   4.781  0.0702 -0.9944 -1.1028
  174SLPC     N19627   4.323   5.740   6.587  0.0850  0.0402  0.2435
  174SLPC   C1319628   4.283   5.851   6.689 -0.2808  0.2840 -0.1669
  174SLPC  H13A19629   4.262   5.944   6.639  1.0044  1.5483  1.5006
  174SLPC  H13B19630   4.195   5.817   6.742  0.5123 -0.6094  0.6233
  174SLPC  H13C19631   4.362   5.861   6.762  0.0442 -5.3393  0.6864
  174SLPC   C1419632   4.438   5.790   6.502  0.1448 -0.4146 -1.0091
  174SLPC  H14A19633   4.466   5.713   6.431  1.5075 -1.7373  0.8542
  174SLPC  H14B19634   4.422   5.885   6.454  1.0144 -0.2081 -0.9083
  174SLPC  H14C19635   4.520   5.809   6.569 -0.7563 -2.7928  0.9043
  174SLPC   C1519636   4.205   5.717   6.504 -0.1367 -0.1423 -0.1308
  174SLPC  H15A19637   4.233   5.655   6.420 -2.8104 -3.3828  1.1658
  174SLPC  H15B19638   4.126   5.666   6.557 -0.5428  1.3067  0.7265
  174SLPC  H15C19639   4.167   5.813   6.471  1.4732  0.7378  0.4826
  174SLPC   C1219640   4.361   5.615   6.661  0.4178  0.6308 -0.5166
  174SLPC  H12A19641   4.382   5.531   6.598  0.2568 -1.2974  1.8334
  174SLPC  H12B19642   4.272   5.583   6.714 -1.3734  1.6370 -2.7534
  174SLPC   C1119643   4.484   5.609   6.756 -0.9545  0.1643 -0.9985
  174SLPC  H11A19644   4.489   5.521   6.824 -1.0133  1.1262  0.2749
  174SLPC  H11B19645   4.473   5.702   6.814  0.0323 -0.1260 -0.3113
  174SLPC     P19646   4.700   5.494   6.652 -0.3583 -0.1925 -0.2789
  174SLPC   O1319647   4.767   5.459   6.777  0.1732  0.4673 -0.0631
  174SLPC   O1419648   4.620   5.390   6.594  0.6022 -0.2624  0.4173
  174SLPC   O1219649   4.603   5.615   6.678 -0.0844 -0.3047 -0.5173
  174SLPC   O1119650   4.806   5.550   6.547  0.8751 -0.2406 -0.0114
  174SLPC    C119651   4.827   5.688   6.538  0.6748  0.3668 -0.6835
  174SLPC    HA19652   4.730   5.744   6.540  1.3634  1.5922  1.8010
  174SLPC    HB19653   4.890   5.723   6.622  1.2404  1.3203 -1.4828
  174SLPC    C219654   4.902   5.729   6.412 -0.2547  0.4468  0.1105
  174SLPC    HS19655   4.885   5.835   6.387 -2.0110  0.1270 -0.1805
  174SLPC   O2119656   4.875   5.646   6.302  0.0660  0.1869 -0.0370
  174SLPC   C2119657   4.747   5.658   6.259 -0.1923 -0.2363  0.0175
  174SLPC   O2219658   4.662   5.742   6.282 -0.5886  0.5779  0.3691
  174SLPC   C2219659   4.730   5.515   6.193  0.3458 -0.3021 -0.0088
  174SLPC   H2R19660   4.822   5.514   6.131  1.4418  3.0575  1.3462
  174SLPC   H2S19661   4.731   5.443   6.277 -2.5683  0.2578  0.6255
  174SLPC    C319662   5.057   5.717   6.445  0.4409 -1.3930 -0.0755
  174SLPC    HX19663   5.097   5.615   6.465  0.1222 -1.5834 -0.3999
  174SLPC    HY19664   5.076   5.759   6.546 -1.2866  0.3807 -0.4409
  174SLPC   O3119665   5.134   5.782   6.345  0.0818 -0.5573  0.1580
  174SLPC   C3119666   5.164   5.700   6.239 -0.7611  0.8375  0.0109
  174SLPC   O3219667   5.129   5.587   6.226  0.1484  0.1853 -0.1453
  174SLPC   C3219668   5.254   5.777   6.131 -0.3122  0.6492  0.0655
  174SLPC   H2X19669   5.349   5.815   6.175  0.2075  0.5101 -0.8993
  174SLPC   H2Y19670   5.191   5.863   6.101 -0.7690  0.2438 -0.1610
  174SLPC   C2319671   4.607   5.483   6.109 -0.0876  0.0324 -0.4061
  174SLPC   H3R19672   4.526   5.542   6.156 -0.4639  0.9284 -2.0932
  174SLPC   H3S19673   4.583   5.375   6.119  2.0376 -0.4030  0.5606
  174SLPC   C2419674   4.638   5.513   5.963 -0.0461  0.4667  0.8324
  174SLPC   H4R19675   4.729   5.461   5.927  0.9420  0.7442  2.8161
  174SLPC   H4S19676   4.664   5.620   5.949  0.4287  0.3186  0.5849
  174SLPC   C2519677   4.515   5.472   5.875  0.3867 -0.7992 -0.3496
  174SLPC   H5R19678   4.429   5.532   5.910 -0.1104 -0.7759 -1.5480
  174SLPC   H5S19679   4.493   5.364   5.888 -1.5809 -0.5073 -0.9162
  174SLPC   C2619680   4.537   5.489   5.718  0.6987  0.1117  1.2149
  174SLPC   H6R19681   4.573   5.590   5.688  0.6302 -0.3566 -0.5349
  174SLPC   H6S19682   4.444   5.477   5.659  1.0063  0.5543  0.6196
  174SLPC   C2719683   4.640   5.389   5.656 -0.3115  0.7742  0.0146
  174SLPC   H7R19684   4.604   5.284   5.666 -0.2165  0.8974  2.0033
  174SLPC   H7S19685   4.730   5.381   5.721  0.8079 -2.2143 -1.6749
  174SLPC   C2819686   4.700   5.417   5.517 -0.8923 -0.1475 -0.1865
  174SLPC   H8R19687   4.796   5.361   5.523 -1.0082 -0.2690  0.6481
  174SLPC   H8S19688   4.728   5.525   5.511 -1.2084  0.0177  1.1446
  174SLPC   C2919689   4.617   5.390   5.394 -0.4944 -0.1456  0.2369
  174SLPC   H9R19690   4.509   5.409   5.406 -0.2509  2.6351 -1.2440
  174SLPC  C21019691   4.663   5.346   5.281  0.2720  0.0789 -0.0716
  174SLPC  H10R19692   4.591   5.340   5.198 -0.6613 -0.3327  0.7500
  174SLPC  C21119693   4.798   5.302   5.244 -0.1266 -0.2191 -0.5308
  174SLPC  H11R19694   4.868   5.357   5.311 -0.6804  0.0252 -0.1437
  174SLPC  H11S19695   4.823   5.344   5.145  1.4097 -1.1793 -0.5839
  174SLPC  C21219696   4.826   5.159   5.255 -0.2457 -0.1545 -0.3369
  174SLPC  H12R19697   4.846   5.120   5.356  1.6403 -1.9024 -1.3153
  174SLPC  C21319698   4.845   5.068   5.152 -0.5087  0.3802  0.4552
  174SLPC  H13R19699   4.874   4.963   5.164  0.8442  0.4549 -1.6203
  174SLPC  C21419700   4.822   5.101   5.016  0.3095  0.3809  0.6354
  174SLPC  H14R19701   4.924   5.131   4.984  0.6102  0.3199  1.5109
  174SLPC  H14S19702   4.754   5.187   5.004 -0.6545 -0.5607 -1.0625
  174SLPC  C21519703   4.749   5.006   4.932 -0.3577  0.5917  0.1735
  174SLPC  H15R19704   4.642   5.004   4.964 -0.6372  1.4102 -0.6628
  174SLPC  H15S19705   4.775   4.898   4.938  0.6026  0.8836  1.6059
  174SLPC  C21619706   4.748   5.045   4.782  0.1181  0.1520 -0.4713
  174SLPC  H16R19707   4.856   5.038   4.756  0.3472 -1.6234  0.7749
  174SLPC  H16S19708   4.726   5.154   4.783 -0.4043  0.0745  1.3308
  174SLPC  C21719709   4.661   4.960   4.686  0.1453  0.2012  0.2845
  174SLPC  H17R19710   4.556   4.991   4.699 -0.0644 -0.2710 -0.2734
  174SLPC  H17S19711   4.674   4.854   4.717  2.5157  0.1186 -0.7693
  174SLPC  C21819712   4.711   4.968   4.545  0.6615  0.6345 -0.0700
  174SLPC  H18R19713   4.818   4.942   4.538  0.9074  1.3967  0.6514
  174SLPC  H18S19714   4.713   5.063   4.486  0.4715  0.1476 -0.8796
  174SLPC  H18T19715   4.652   4.894   4.487  0.2570 -0.7808  2.0618
  174SLPC   C3319716   5.288   5.690   6.002  0.2578 -0.8493 -0.3129
  174SLPC   H3X19717   5.194   5.668   5.947  0.7472 -1.7700 -0.8010
  174SLPC   H3Y19718   5.342   5.595   6.021  0.8265 -0.9964 -2.4508
  174SLPC   C3419719   5.371   5.770   5.905  0.0267 -0.1387  0.0998
  174SLPC   H4X19720   5.478   5.762   5.932  0.0158 -2.5279 -0.3951
  174SLPC   H4Y19721   5.351   5.880   5.905  1.4850  0.1458  0.8234
  174SLPC   C3519722   5.362   5.716   5.764  0.7111  0.6391  0.6661
  174SLPC   H5X19723   5.254   5.716   5.741  0.5715  0.4911  1.3050
  174SLPC   H5Y19724   5.393   5.609   5.766 -1.6477 -0.1464 -0.9830
  174SLPC   C3619725   5.427   5.805   5.658 -0.3131 -0.0839  0.4741
  174SLPC   H6X19726   5.535   5.803   5.683 -0.3006 -0.7796  0.3910
  174SLPC   H6Y19727   5.386   5.907   5.674 -1.8945 -0.6239  0.0315
  174SLPC   C3719728   5.407   5.755   5.516 -0.4680  0.0598  0.2823
  174SLPC   H7X19729   5.301   5.741   5.485  0.0291 -1.3626 -0.8710
  174SLPC   H7Y19730   5.458   5.660   5.490 -1.7206  0.1007 -2.6897
  174SLPC   C3819731   5.468   5.856   5.421  0.0841  0.7039 -0.1357
  174SLPC   H8X19732   5.573   5.866   5.455 -0.4951  0.3616  1.8973
  174SLPC   H8Y19733   5.424   5.956   5.441 -0.5012  0.4642 -0.2145
  174SLPC   C3919734   5.478   5.820   5.275 -0.2514  0.0174 -0.3191
  174SLPC   H9X19735   5.468   5.917   5.221  0.5221  1.1498  1.4710
  174SLPC   H9Y19736   5.388   5.759   5.255  1.7064 -2.7103 -1.3118
  174SLPC  C31019737   5.598   5.740   5.234  0.2760 -0.0422  0.5673
  174SLPC  H10X19738   5.579   5.640   5.278 -1.1692 -0.8278 -1.6785
  174SLPC  H10Y19739   5.686   5.798   5.269 -0.2987  1.3295 -0.1926
  174SLPC  C31119740   5.608   5.716   5.088  0.0879 -0.0439  0.4604
  174SLPC  H11X19741   5.707   5.667   5.072 -0.2757 -0.8938  0.7784
  174SLPC  H11Y19742   5.599   5.813   5.035 -1.2611 -0.4272 -0.0384
  174SLPC  C31219743   5.494   5.630   5.021  0.3594  0.5477  0.6314
  174SLPC  H12X19744   5.393   5.643   5.064 -0.0123  0.4212 -0.1745
  174SLPC  H12Y19745   5.520   5.523   5.035  1.6038  0.7314 -0.1309
  174SLPC  C31319746   5.490   5.645   4.867 -0.1306  0.1592  0.3101
  174SLPC  H13X19747   5.580   5.599   4.820  0.3725  2.0623 -0.6859
  174SLPC  H13Y19748   5.485   5.750   4.831  1.2497  0.0699 -0.2283
  174SLPC  C31419749   5.358   5.579   4.808 -0.6216 -0.4458  0.8316
  174SLPC  H14X19750   5.345   5.478   4.852 -2.0726 -1.6084 -2.0036
  174SLPC  H14Y19751   5.374   5.563   4.699  2.9814 -0.6856  1.3057
  174SLPC  C31519752   5.231   5.656   4.843 -0.5278  0.4465 -0.6015
  174SLPC  H15X19753   5.235   5.755   4.793 -1.0667  0.7296 -0.1045
  174SLPC  H15Y19754   5.221   5.665   4.954 -1.6359  0.0644 -0.6560
  174SLPC  C31619755   5.102   5.584   4.797 -0.0153 -0.2572 -0.1353
  174SLPC  H16X19756   5.111   5.513   4.712 -1.2935 -0.9692  0.3028
  174SLPC  H16Y19757   5.027   5.659   4.761  0.0410 -1.3893 -2.8809
  174SLPC  C31719758   5.047   5.503   4.902  0.2409 -0.0462  0.6803
  174SLPC  H17X19759   5.010   5.574   4.979  0.3561 -0.2152  0.8916
  174SLPC  H17Y19760   5.118   5.443   4.963  0.6401  1.9717  2.3159
  174SLPC  C31819761   4.931   5.411   4.855  0.4469  0.0218  0.6891
  174SLPC  H18X19762   4.959   5.341   4.773  1.1823  0.5507  0.4853
  174SLPC  H18Y19763   4.849   5.478   4.820  1.4391  0.8975 -0.0025
  174SLPC  H18Z19764   4.881   5.365   4.943 -2.0194 -0.7684 -1.0108
  175SLPC     N19765   5.588   5.728   7.074  0.3579  0.3409  0.3100
  175SLPC   C1319766   5.629   5.680   7.214 -0.7749 -0.5038 -0.1500
  175SLPC  H13A19767   5.549   5.699   7.283  0.9823  1.1693  1.5417
  175SLPC  H13B19768   5.643   5.573   7.217 -1.0605 -0.5081  1.3971
  175SLPC  H13C19769   5.714   5.737   7.249 -0.7343 -0.0558 -0.9545
  175SLPC   C1419770   5.566   5.877   7.098  0.1620  0.0303  0.4488
  175SLPC  H14A19771   5.638   5.915   7.169 -0.7825  0.7395  1.0583
  175SLPC  H14B19772   5.565   5.930   7.004  1.7082  0.6708  0.7633
  175SLPC  H14C19773   5.469   5.889   7.145  0.0853 -2.0689  0.9625
  175SLPC   C1519774   5.452   5.666   7.035  0.1448  0.4370 -0.1809
  175SLPC  H15A19775   5.420   5.720   6.947 -1.6165  0.0725  0.2064
  175SLPC  H15B19776   5.468   5.561   7.015 -0.6212  0.5736 -1.5660
  175SLPC  H15C19777   5.374   5.675   7.109 -0.0203 -1.8099 -0.0340
  175SLPC   C1219778   5.699   5.700   6.972 -0.0807  0.3651 -0.1737
  175SLPC  H12A19779   5.708   5.593   6.957  1.2828  0.6161 -1.3407
  175SLPC  H12B19780   5.796   5.736   7.003  0.1936 -0.0586 -0.5251
  175SLPC   C1119781   5.694   5.761   6.825 -0.2863 -0.1867  0.5199
  175SLPC  H11A19782   5.601   5.718   6.781 -0.6653 -1.0240  2.0902
  175SLPC  H11B19783   5.777   5.728   6.759 -0.3574 -0.6876  0.6814
  175SLPC     P19784   5.585   5.995   6.736 -0.2769  0.3069 -0.4443
  175SLPC   O1319785   5.466   5.918   6.706 -0.0275  0.2215  0.1821
  175SLPC   O1419786   5.573   6.121   6.815 -0.2690 -0.1995  0.4748
  175SLPC   O1219787   5.693   5.905   6.822  0.0012  0.2349  0.1570
  175SLPC   O1119788   5.658   6.026   6.596  0.4353  0.6108 -0.2734
  175SLPC    C119789   5.798   6.066   6.594  0.2674  0.3147  0.4949
  175SLPC    HA19790   5.810   6.155   6.659  0.9107  0.0752  0.7109
  175SLPC    HB19791   5.858   5.983   6.637  1.2594  1.0010  0.4848
  175SLPC    C219792   5.858   6.111   6.455  0.8987  0.5522  0.5632
  175SLPC    HS19793   5.812   6.209   6.430  0.6067 -0.1713 -2.0655
  175SLPC   O2119794   5.821   5.998   6.370  0.1536  0.2831 -0.5257
  175SLPC   C2119795   5.771   6.034   6.256 -0.1616  0.0992 -0.7058
  175SLPC   O2219796   5.757   6.149   6.218 -0.5091  0.1468  0.1441
  175SLPC   C2219797   5.716   5.917   6.182  0.5428  0.0036  0.3665
  175SLPC   H2R19798   5.800   5.844   6.180 -0.5380 -1.3192  1.4012
  175SLPC   H2S19799   5.628   5.875   6.234  1.6052 -1.5255  1.0193
  175SLPC    C319800   6.014   6.126   6.464  0.2188 -0.0374  0.7410
  175SLPC    HX19801   6.068   6.042   6.513 -0.2875 -1.0934 -0.4683
  175SLPC    HY19802   6.041   6.215   6.526 -0.3258 -0.0668  1.0211
  175SLPC   O3119803   6.064   6.140   6.328  0.3748  0.5876  0.0406
  175SLPC   C3119804   6.097   6.258   6.277  0.4161  0.3787  0.4083
  175SLPC   O3219805   6.090   6.365   6.338  0.3249 -0.0607 -0.5051
  175SLPC   C3219806   6.119   6.252   6.121  0.0542 -0.6373 -0.5369
  175SLPC   H2X19807   6.028   6.203   6.080  0.6856 -1.7853 -0.5988
  175SLPC   H2Y19808   6.202   6.180   6.105  0.4758  0.3427 -3.2603
  175SLPC   C2319809   5.683   5.953   6.037  0.4765  0.3211  0.3698
  175SLPC   H3R19810   5.594   6.019   6.029 -0.5174 -0.8444  1.4664
  175SLPC   H3S19811   5.645   5.857   5.997 -3.4432  1.9511 -0.2462
  175SLPC   C2419812   5.796   5.996   5.947  0.1430  0.0399 -0.1928
  175SLPC   H4R19813   5.880   5.925   5.961  0.7372  1.0231  1.4411
  175SLPC   H4S19814   5.849   6.084   5.987  1.7016 -1.2882  0.7877
  175SLPC   C2519815   5.759   6.022   5.807 -0.6813 -0.2719  0.0646
  175SLPC   H5R19816   5.707   6.120   5.805  1.0080  0.6958  0.9031
  175SLPC   H5S19817   5.703   5.935   5.766 -1.4007 -0.5994  1.6604
  175SLPC   C2619818   5.893   6.048   5.734 -0.5336  0.0612  0.6382
  175SLPC   H6R19819   5.927   5.958   5.680  0.2745  0.2974  0.7423
  175SLPC   H6S19820   5.972   6.087   5.801  2.2561 -1.7768 -1.3590
  175SLPC   C2719821   5.871   6.154   5.618  0.0637 -0.1034  0.2555
  175SLPC   H7R19822   5.967   6.190   5.576  1.2379  0.0378  2.9075
  175SLPC   H7S19823   5.813   6.242   5.655 -1.1804 -0.7092 -0.1928
  175SLPC   C2819824   5.799   6.089   5.499  0.9389  0.1058  0.2410
  175SLPC   H8R19825   5.695   6.068   5.534  1.0227  2.0185  1.8008
  175SLPC   H8S19826   5.853   5.998   5.467 -0.9294 -1.0366  0.1583
  175SLPC   C2919827   5.776   6.184   5.383  0.5185 -1.0139 -0.2160
  175SLPC   H9R19828   5.714   6.271   5.410 -1.2999 -2.3956  0.2900
  175SLPC  C21019829   5.796   6.155   5.253 -0.8223  0.9080  1.1146
  175SLPC  H10R19830   5.764   6.229   5.179 -0.2009 -0.3537 -0.5000
  175SLPC  C21119831   5.844   6.026   5.192  0.7085 -0.6032  0.2103
  175SLPC  H11R19832   5.762   5.982   5.131  0.7385  1.2661 -1.2555
  175SLPC  H11S19833   5.854   5.944   5.267 -1.9490 -1.9019 -0.7423
  175SLPC  C21219834   5.973   6.047   5.114 -0.3695 -0.8783 -0.9950
  175SLPC  H12R19835   6.042   6.113   5.167 -2.1448  0.3873 -0.1896
  175SLPC  C21319836   6.000   6.020   4.984 -0.0573  0.5078  0.5228
  175SLPC  H13R19837   6.100   6.032   4.940 -1.1487 -1.6542 -2.9303
  175SLPC  C21419838   5.910   5.948   4.897 -0.5092 -0.0546 -0.5304
  175SLPC  H14R19839   5.932   6.000   4.802  0.0853  1.5034  0.4240
  175SLPC  H14S19840   5.805   5.959   4.933 -0.1849 -1.5287  1.0321
  175SLPC  C21519841   5.944   5.799   4.878 -0.0492 -0.1224 -0.3345
  175SLPC  H15R19842   5.941   5.762   4.982  1.0929  1.3580  0.2628
  175SLPC  H15S19843   6.046   5.795   4.832 -0.1638  2.5355 -1.0260
  175SLPC  C21619844   5.853   5.717   4.783 -0.6846  0.4173  0.3872
  175SLPC  H16R19845   5.749   5.725   4.821 -1.3743  1.3274 -1.5700
  175SLPC  H16S19846   5.886   5.611   4.780 -2.8521 -0.3484  1.2322
  175SLPC  C21719847   5.856   5.760   4.638 -0.0430  0.1205  0.6674
  175SLPC  H17R19848   5.955   5.737   4.593  0.3513  1.3416  0.8703
  175SLPC  H17S19849   5.836   5.869   4.625  2.7241  0.5253 -1.0046
  175SLPC  C21819850   5.758   5.689   4.538  0.0687  0.3951  0.2073
  175SLPC  H18R19851   5.759   5.579   4.551  0.4583  0.3783  0.0771
  175SLPC  H18S19852   5.790   5.716   4.435 -0.2661  0.5536  0.1448
  175SLPC  H18T19853   5.654   5.716   4.563 -0.7945 -2.9505  0.7264
  175SLPC   C3319854   6.129   6.388   6.065 -0.3798 -0.2862 -0.2081
  175SLPC   H3X19855   6.190   6.465   6.118  0.5954 -1.1584 -0.0219
  175SLPC   H3Y19856   6.023   6.421   6.075 -0.3448 -0.6456  1.8029
  175SLPC   C3419857   6.159   6.378   5.916 -0.8843 -0.0696  0.1020
  175SLPC   H4X19858   6.083   6.315   5.864  0.1550  0.6035 -2.4205
  175SLPC   H4Y19859   6.259   6.333   5.902 -0.5323  0.6767  0.1426
  175SLPC   C3519860   6.161   6.522   5.866  0.1077  0.0713 -0.0729
  175SLPC   H5X19861   6.246   6.576   5.912 -0.2457  0.1980  0.4500
  175SLPC   H5Y19862   6.065   6.564   5.905  0.9870  0.1877  2.0901
  175SLPC   C3619863   6.162   6.519   5.714  0.1412  0.3440  0.3786
  175SLPC   H6X19864   6.084   6.456   5.665  1.3458  0.0295 -1.1850
  175SLPC   H6Y19865   6.258   6.484   5.671 -1.0910 -3.1427  0.0938
  175SLPC   C3719866   6.134   6.657   5.655  0.5350  0.0896  0.2335
  175SLPC   H7X19867   6.197   6.743   5.687  1.1583 -0.4221  0.4051
  175SLPC   H7Y19868   6.028   6.680   5.680  0.9621  0.7799  1.4737
  175SLPC   C3819869   6.145   6.659   5.502 -0.2272 -0.1067 -0.2817
  175SLPC   H8X19870   6.248   6.646   5.461 -0.0321 -3.8890  0.9674
  175SLPC   H8Y19871   6.118   6.760   5.466 -0.0055 -0.0320 -0.2410
  175SLPC   C3919872   6.062   6.561   5.423  0.0174  1.2643 -0.6627
  175SLPC   H9X19873   5.957   6.558   5.461  0.6505  1.4058  1.2239
  175SLPC   H9Y19874   6.104   6.459   5.436  0.8055  1.8282  1.9041
  175SLPC  C31019875   6.060   6.598   5.274  0.6238 -0.1947 -0.6354
  175SLPC  H10X19876   6.161   6.605   5.228 -0.6043 -0.3645 -3.5662
  175SLPC  H10Y19877   6.012   6.698   5.269  1.2073  0.4583  3.1616
  175SLPC  C31119878   5.977   6.501   5.186  0.8269  0.1535 -0.0975
  175SLPC  H11X19879   5.867   6.512   5.196  0.6883 -0.2250 -1.1733
  175SLPC  H11Y19880   6.007   6.401   5.222  0.3547 -0.3422 -1.0552
  175SLPC  C31219881   6.002   6.522   5.034 -1.2171  0.0306  0.5026
  175SLPC  H12X19882   6.110   6.539   5.017 -1.4080  0.9173  0.0896
  175SLPC  H12Y19883   5.950   6.614   5.000 -0.8850  0.0841  0.1334
  175SLPC  C31319884   5.964   6.407   4.943  0.4460 -0.4777  0.6917
  175SLPC  H13X19885   5.856   6.385   4.958  1.1201 -3.7749  1.5751
  175SLPC  H13Y19886   6.013   6.317   4.985  0.2969  0.0904  2.1587
  175SLPC  C31419887   5.990   6.417   4.792 -0.0012 -0.2607 -0.1051
  175SLPC  H14X19888   6.093   6.452   4.768  0.2691 -0.4030  0.8108
  175SLPC  H14Y19889   5.918   6.494   4.757 -1.4745 -1.6456 -0.2708
  175SLPC  C31519890   5.960   6.280   4.722  0.6465 -0.8366  0.3790
  175SLPC  H15X19891   5.861   6.248   4.761 -0.0694 -1.9883 -2.1848
  175SLPC  H15Y19892   6.040   6.205   4.741  0.3843 -1.0326  0.7307
  175SLPC  C31619893   5.932   6.300   4.570 -0.3179 -0.6073  0.0166
  175SLPC  H16X19894   6.026   6.352   4.542 -0.1802 -0.3406  0.9437
  175SLPC  H16Y19895   5.846   6.369   4.557  0.5401  0.5844  0.5146
  175SLPC  C31719896   5.891   6.179   4.482 -0.1145  0.4143  0.4683
  175SLPC  H17X19897   5.797   6.138   4.526  0.0023 -0.5141 -0.0975
  175SLPC  H17Y19898   5.962   6.094   4.493 -1.1663 -0.4013  1.2030
  175SLPC  C31819899   5.886   6.222   4.339 -0.5308  0.0598  0.0260
  175SLPC  H18X19900   5.825   6.149   4.282 -1.6929 -1.2179  2.7094
  175SLPC  H18Y19901   5.981   6.217   4.283 -0.9524  1.1542 -0.8039
  175SLPC  H18Z19902   5.844   6.324   4.330 -0.0793  0.1731 -0.8262
  176SLPC     N19903   6.028   5.047   6.856  0.6882 -0.2882  0.2480
  176SLPC   C1319904   5.943   4.940   6.904  0.2290 -0.0547  0.6403
  176SLPC  H13A19905   5.861   4.972   6.967 -1.1697 -1.0071 -0.6432
  176SLPC  H13B19906   5.879   4.908   6.823  0.1846 -2.1501  1.4371
  176SLPC  H13C19907   5.991   4.854   6.948  0.7680 -0.9020 -1.4891
  176SLPC   C1419908   6.137   4.992   6.764 -0.4932  0.2867 -0.0224
  176SLPC  H14A19909   6.183   5.061   6.694  5.1440 -1.1610  1.7145
  176SLPC  H14B19910   6.222   4.971   6.828 -0.3864  1.3016  0.1869
  176SLPC  H14C19911   6.101   4.900   6.722  1.1397 -1.3641  2.0084
  176SLPC   C1519912   6.091   5.121   6.967 -0.2351 -0.4435 -0.7387
  176SLPC  H15A19913   6.141   5.213   6.940 -0.5994  0.1369  0.4699
  176SLPC  H15B19914   6.018   5.159   7.037  0.3112 -0.0127 -0.3918
  176SLPC  H15C19915   6.154   5.069   7.037 -2.6083  0.7492  2.5581
  176SLPC   C1219916   5.951   5.146   6.771 -0.1017  0.6653 -0.0159
  176SLPC  H12A19917   5.903   5.088   6.693  3.3819  0.0736 -1.9218
  176SLPC  H12B19918   6.023   5.217   6.732  0.2069 -0.9879 -2.7447
  176SLPC   C1119919   5.834   5.235   6.831 -0.0752  0.3346 -0.5402
  176SLPC  H11A19920   5.793   5.297   6.748 -0.6518 -0.3399 -0.7621
  176SLPC  H11B19921   5.884   5.304   6.903  0.6989 -2.0553  1.3412
  176SLPC     P19922   5.620   5.095   6.824 -0.1386  0.1908 -0.2929
  176SLPC   O1319923   5.575   4.981   6.911  0.2992 -0.0944 -0.2045
  176SLPC   O1419924   5.519   5.193   6.788 -0.1547 -0.2450  0.1747
  176SLPC   O1219925   5.739   5.155   6.906  0.2068  0.3696  0.0826
  176SLPC   O1119926   5.693   5.031   6.700  0.6336 -0.1371  0.5447
  176SLPC    C119927   5.634   4.918   6.644  0.6884  0.5400 -0.1500
  176SLPC    HA19928   5.613   4.841   6.722  1.4170  0.6147  0.1264
  176SLPC    HB19929   5.533   4.943   6.604 -0.0430 -1.6076  0.2007
  176SLPC    C219930   5.724   4.845   6.539 -1.1028 -0.8184 -0.4906
  176SLPC    HS19931   5.822   4.831   6.591 -1.4166  0.1781  0.3873
  176SLPC   O2119932   5.721   4.926   6.418  0.2303 -0.0242 -0.1489
  176SLPC   C2119933   5.817   5.011   6.398 -0.0224  0.5752  0.1135
  176SLPC   O2219934   5.916   5.026   6.470  0.2525  0.3478  0.4320
  176SLPC   C2219935   5.796   5.102   6.279 -0.3975 -0.3335  0.3639
  176SLPC   H2R19936   5.687   5.123   6.278 -0.1868  0.8278  0.0641
  176SLPC   H2S19937   5.855   5.195   6.297  0.4411 -0.6527 -0.6444
  176SLPC    C319938   5.678   4.704   6.509  0.2720 -0.4244  0.5891
  176SLPC    HX19939   5.569   4.721   6.493 -0.1099 -1.2365  2.1182
  176SLPC    HY19940   5.686   4.654   6.608 -0.8726 -0.7859  0.5137
  176SLPC   O3119941   5.745   4.627   6.412 -0.4924  0.4615 -0.0349
  176SLPC   C3119942   5.698   4.616   6.289 -0.8551  0.2028 -0.0771
  176SLPC   O3219943   5.594   4.660   6.249 -0.6999  0.1822  0.2607
  176SLPC   C3219944   5.802   4.532   6.208 -0.0769  0.8619 -0.4714
  176SLPC   H2X19945   5.773   4.426   6.222  0.1140  0.9486  0.6636
  176SLPC   H2Y19946   5.905   4.541   6.250 -0.0446 -1.0857 -0.0245
  176SLPC   C2319947   5.844   5.041   6.153  0.2570 -0.2574  0.5235
  176SLPC   H3R19948   5.793   4.944   6.139  2.3143 -1.5771  1.5705
  176SLPC   H3S19949   5.954   5.027   6.167  0.0444 -0.5268  2.1383
  176SLPC   C2419950   5.813   5.130   6.043  0.8382 -0.8315  0.1807
  176SLPC   H4R19951   5.862   5.229   6.052 -1.2319  0.2608  0.0649
  176SLPC   H4S19952   5.704   5.138   6.023  1.1882  1.4978 -1.1704
  176SLPC   C2519953   5.885   5.087   5.920 -0.6307 -0.1338 -0.4884
  176SLPC   H5R19954   5.836   4.993   5.888 -0.3618 -0.4914  0.1577
  176SLPC   H5S19955   5.993   5.070   5.936 -0.5070  1.5074  0.6900
  176SLPC   C2619956   5.884   5.176   5.792  0.1984 -0.2773 -0.0488
  176SLPC   H6R19957   5.946   5.267   5.807 -0.2742  0.3093 -1.5244
  176SLPC   H6S19958   5.776   5.200   5.778 -0.0304  0.4893  2.4350
  176SLPC   C2719959   5.943   5.104   5.662  0.2102  0.0412 -0.3868
  176SLPC   H7R19960   5.890   5.014   5.623  1.0529  0.3791 -2.4545
  176SLPC   H7S19961   6.043   5.060   5.684  1.4128  2.0151 -1.5701
  176SLPC   C2819962   5.948   5.208   5.548  0.0972 -0.0615  0.2709
  176SLPC   H8R19963   5.975   5.308   5.589  0.3067 -0.1015  0.2292
  176SLPC   H8S19964   5.840   5.219   5.521 -0.0026  0.9190  0.9808
  176SLPC   C2919965   6.051   5.189   5.434  0.2007 -0.5198  0.0270
  176SLPC   H9R19966   6.137   5.255   5.446  1.4052 -2.0688  0.2695
  176SLPC  C21019967   6.039   5.102   5.334  0.2243  0.7790 -0.1991
  176SLPC  H10R19968   6.133   5.090   5.277 -0.2483 -0.0146 -0.8372
  176SLPC  C21119969   5.919   5.012   5.312  0.8270  0.1598 -0.0103
  176SLPC  H11R19970   5.867   5.034   5.216  0.4461  1.3251  0.4502
  176SLPC  H11S19971   5.838   5.034   5.385  2.1611  0.4108  1.4290
  176SLPC  C21219972   5.940   4.864   5.327  0.6737 -0.6069  0.3718
  176SLPC  H12R19973   5.894   4.819   5.416 -0.6583 -0.5709 -0.2824
  176SLPC  C21319974   5.999   4.784   5.238  0.1054  0.3923  0.0548
  176SLPC  H13R19975   6.011   4.677   5.262  1.6481  0.8646  1.5991
  176SLPC  C21419976   6.071   4.827   5.116 -0.2723 -0.0876 -0.3705
  176SLPC  H14R19977   6.157   4.760   5.091  0.5524 -0.0478  2.1284
  176SLPC  H14S19978   6.132   4.915   5.142 -0.2271 -0.3202  0.3344
  176SLPC  C21519979   5.974   4.846   4.998 -0.3140 -0.4474 -0.1476
  176SLPC  H15R19980   5.892   4.917   5.017 -0.5436 -0.9214  0.6878
  176SLPC  H15S19981   5.916   4.753   4.981  0.4861 -1.5694  2.7621
  176SLPC  C21619982   6.043   4.899   4.869 -0.3459 -0.2621 -0.1700
  176SLPC  H16R19983   6.134   4.839   4.846  2.2997  2.4462  2.3081
  176SLPC  H16S19984   6.067   5.007   4.877 -0.9424 -0.0005 -1.6397
  176SLPC  C21719985   5.949   4.890   4.750 -0.0627  0.1571  0.1651
  176SLPC  H17R19986   5.873   4.972   4.752 -0.8431 -0.5632  0.7392
  176SLPC  H17S19987   5.883   4.801   4.749  0.8316 -0.5055 -0.1449
  176SLPC  C21819988   6.019   4.911   4.615  0.5311 -0.1301 -1.2451
  176SLPC  H18R19989   6.098   4.834   4.605  1.0173  0.2860 -0.7036
  176SLPC  H18S19990   6.055   5.016   4.608  0.7933 -0.0881  0.3431
  176SLPC  H18T19991   5.950   4.907   4.528  1.5843  2.2966 -2.2915
  176SLPC   C3319992   5.804   4.538   6.046  0.4676 -0.3960 -0.3835
  176SLPC   H3X19993   5.888   4.473   6.015 -0.7587 -1.7153 -1.0591
  176SLPC   H3Y19994   5.814   4.644   6.014  0.9212 -1.0154 -2.3804
  176SLPC   C3419995   5.676   4.484   5.983 -0.1182  0.2382 -0.1980
  176SLPC   H4X19996   5.594   4.552   6.017  1.0817  0.8522  1.5940
  176SLPC   H4Y19997   5.657   4.384   6.028  0.7661 -0.1111 -0.5874
  176SLPC   C3519998   5.687   4.463   5.829 -0.5265  0.5702 -0.8507
  176SLPC   H5X19999   5.769   4.392   5.806  1.2388  2.6985 -1.5524
  176SLPC   H5Y20000   5.707   4.553   5.765  0.6681  0.4833 -0.6342
  176SLPC   C3620001   5.554   4.406   5.770 -0.8787 -0.0654  0.0803
  176SLPC   H6X20002   5.492   4.498   5.778 -2.5434 -1.2096  0.9442
  176SLPC   H6Y20003   5.511   4.328   5.837  1.2676  0.2570  1.9577
  176SLPC   C3720004   5.556   4.359   5.626  0.2734 -0.5419  0.6216
  176SLPC   H7X20005   5.632   4.278   5.624 -0.2780 -1.1351 -2.9558
  176SLPC   H7Y20006   5.595   4.447   5.570 -0.3112 -0.6698 -0.0031
  176SLPC   C3820007   5.423   4.318   5.573  0.3889 -0.1672 -0.1440
  176SLPC   H8X20008   5.346   4.398   5.572 -0.0242 -0.5495  0.4067
  176SLPC   H8Y20009   5.388   4.238   5.641  0.8800 -0.3267 -0.0723
  176SLPC   C3920010   5.427   4.266   5.424  0.0245 -0.2991  0.1804
  176SLPC   H9X20011   5.329   4.219   5.401  1.4528 -3.2196 -0.4620
  176SLPC   H9Y20012   5.501   4.183   5.421  1.7027  1.1408 -2.7940
  176SLPC  C31020013   5.467   4.372   5.319  0.2907 -0.7113  0.4287
  176SLPC  H10X20014   5.549   4.429   5.367 -1.2811 -0.6222  3.2511
  176SLPC  H10Y20015   5.386   4.449   5.314  0.8373 -0.2004 -2.1618
  176SLPC  C31120016   5.497   4.322   5.175  0.2780  0.0237  0.4875
  176SLPC  H11X20017   5.588   4.258   5.180 -2.1147 -3.9975 -1.9057
  176SLPC  H11Y20018   5.519   4.412   5.114 -1.7854  1.0517  1.2039
  176SLPC  C31220019   5.398   4.237   5.095  0.3528 -0.4161 -0.7463
  176SLPC  H12X20020   5.303   4.294   5.083  0.6923  0.3925  0.2239
  176SLPC  H12Y20021   5.365   4.158   5.166 -1.7890  1.4392  0.4857
  176SLPC  C31320022   5.463   4.193   4.969  0.5336  0.2069 -0.7748
  176SLPC  H13X20023   5.552   4.128   4.987  0.2662 -0.1496 -0.7315
  176SLPC  H13Y20024   5.502   4.286   4.923  0.0880  1.2386  0.8362
  176SLPC  C31420025   5.365   4.137   4.869  0.8542  0.7782  0.7430
  176SLPC  H14X20026   5.283   4.211   4.857  2.5782  2.5426 -0.8499
  176SLPC  H14Y20027   5.320   4.044   4.909 -2.1666  2.3527  1.3717
  176SLPC  C31520028   5.436   4.126   4.732  0.1920  0.0702 -0.3729
  176SLPC  H15X20029   5.488   4.219   4.701 -0.6156  0.4735 -0.5500
  176SLPC  H15Y20030   5.374   4.105   4.642 -1.1058  0.0618  0.4947
  176SLPC  C31620031   5.549   4.021   4.729  0.3877 -0.2574 -0.0555
  176SLPC  H16X20032   5.500   3.922   4.718 -0.1032 -0.3223  2.3174
  176SLPC  H16Y20033   5.609   4.014   4.822  0.7508 -2.1701 -0.3991
  176SLPC  C31720034   5.651   4.057   4.620  0.3486 -0.2387 -0.3988
  176SLPC  H17X20035   5.725   3.975   4.604 -0.0348 -0.5718 -0.4602
  176SLPC  H17Y20036   5.713   4.146   4.645  0.0831 -0.3974  0.9078
  176SLPC  C31820037   5.583   4.085   4.485  0.2905 -0.7841 -0.5320
  176SLPC  H18X20038   5.654   4.094   4.400 -1.3344 -0.3732 -1.8969
  176SLPC  H18Y20039   5.526   4.180   4.485 -1.3637 -1.7319  0.2944
  176SLPC  H18Z20040   5.505   4.008   4.468  0.0691 -0.4286 -1.1410
  177SLPC     N20041   5.614   6.878   6.715  0.0537 -0.1500  0.0578
  177SLPC   C1320042   5.620   6.735   6.727  0.2657 -0.0757 -0.1174
  177SLPC  H13A20043   5.606   6.701   6.829 -0.6625  1.9423  0.4896
  177SLPC  H13B20044   5.544   6.686   6.667  0.9612  1.7769 -2.6545
  177SLPC  H13C20045   5.710   6.695   6.684 -1.3041 -1.7126 -2.1154
  177SLPC   C1420046   5.697   6.941   6.823  0.8519  0.0863 -0.1821
  177SLPC  H14A20047   5.688   7.049   6.826 -0.3261  0.0222 -0.6082
  177SLPC  H14B20048   5.674   6.906   6.923 -3.0392 -1.1653 -1.3158
  177SLPC  H14C20049   5.801   6.920   6.802  1.1472  1.5015 -0.2370
  177SLPC   C1520050   5.471   6.924   6.734 -0.6115  0.1350  1.0074
  177SLPC  H15A20051   5.421   6.899   6.642  1.5861 -0.2197 -0.1792
  177SLPC  H15B20052   5.422   6.879   6.819 -0.1659 -1.0615  0.6534
  177SLPC  H15C20053   5.459   7.032   6.736  1.5741  0.4349  1.4206
  177SLPC   C1220054   5.662   6.912   6.579  0.0002  0.4169 -0.0383
  177SLPC  H12A20055   5.768   6.889   6.582 -0.1443 -0.2673  0.1454
  177SLPC  H12B20056   5.647   7.017   6.560 -1.9351  0.1906  0.0333
  177SLPC   C1120057   5.587   6.840   6.460 -0.3025  0.2638 -0.3050
  177SLPC  H11A20058   5.601   6.730   6.460  0.5534  0.2879 -3.2465
  177SLPC  H11B20059   5.634   6.890   6.373  0.2551  1.0635  0.4443
  177SLPC     P20060   5.380   6.996   6.379  0.2079  0.5355 -0.6387
  177SLPC   O1320061   5.234   7.015   6.411  0.1456  0.3069 -0.0246
  177SLPC   O1420062   5.472   7.111   6.406  0.2713  0.2872 -0.3438
  177SLPC   O1220063   5.438   6.865   6.459 -0.2282  0.3440  0.2842
  177SLPC   O1120064   5.402   6.959   6.227  0.4195 -0.3168 -0.1437
  177SLPC    C120065   5.324   6.859   6.159 -0.5125  0.2167 -0.6518
  177SLPC    HA20066   5.217   6.859   6.186 -0.7281 -2.5676 -1.2082
  177SLPC    HB20067   5.338   6.881   6.051 -0.9240  1.5232 -0.4543
  177SLPC    C220068   5.372   6.711   6.174 -0.1786 -0.2136 -0.3031
  177SLPC    HS20069   5.362   6.696   6.283 -0.9474 -0.2005 -0.3678
  177SLPC   O2120070   5.507   6.693   6.131 -0.3470 -0.1186  0.1985
  177SLPC   C2120071   5.569   6.578   6.167 -0.3046  0.3579 -0.5441
  177SLPC   O2220072   5.518   6.493   6.241  0.6717  0.1933 -0.5742
  177SLPC   C2220073   5.708   6.574   6.101  0.2711  0.2846 -0.4815
  177SLPC   H2R20074   5.740   6.680   6.091  2.3773  0.0950  2.6945
  177SLPC   H2S20075   5.768   6.529   6.184 -1.8840  0.2490  1.1230
  177SLPC    C320076   5.278   6.609   6.113 -0.0371 -0.6708  0.9384
  177SLPC    HX20077   5.180   6.640   6.155  0.2074  0.6722  0.5492
  177SLPC    HY20078   5.307   6.509   6.151  2.1374 -0.1959  0.6617
  177SLPC   O3120079   5.278   6.627   5.968 -0.3011 -0.5469 -0.6160
  177SLPC   C3120080   5.178   6.691   5.914  0.1175  0.5302  0.7481
  177SLPC   O3220081   5.081   6.731   5.975  0.4503  0.1509  0.7188
  177SLPC   C3220082   5.198   6.718   5.768 -0.4749 -0.0262 -0.1358
  177SLPC   H2X20083   5.187   6.625   5.708 -0.7016  0.5625 -1.0167
  177SLPC   H2Y20084   5.294   6.769   5.747 -1.2748  1.6713  0.1695
  177SLPC   C2320085   5.704   6.477   5.984 -0.5317  0.3317 -0.2602
  177SLPC   H3R20086   5.669   6.377   6.016 -0.2121  0.2033 -0.3047
  177SLPC   H3S20087   5.811   6.466   5.957 -0.0629  0.3500  1.4539
  177SLPC   C2420088   5.620   6.533   5.874 -0.1062 -0.1413  0.1038
  177SLPC   H4R20089   5.510   6.532   5.894  0.1318 -0.3225  1.4671
  177SLPC   H4S20090   5.642   6.453   5.800  0.5101  0.1081  0.0086
  177SLPC   C2520091   5.671   6.663   5.818  0.0097  0.3596  0.5035
  177SLPC   H5R20092   5.757   6.696   5.881  1.9255 -0.2831 -1.6538
  177SLPC   H5S20093   5.597   6.746   5.824 -0.2047  0.4515 -2.3427
  177SLPC   C2620094   5.714   6.666   5.668 -0.3163  0.2332 -0.2783
  177SLPC   H6R20095   5.775   6.573   5.664 -1.4128 -0.4812 -0.9157
  177SLPC   H6S20096   5.783   6.750   5.644 -0.6122  0.6410  0.2603
  177SLPC   C2720097   5.596   6.649   5.571  0.2492  0.3811  1.1318
  177SLPC   H7R20098   5.525   6.733   5.585 -0.5917 -0.2420  0.7130
  177SLPC   H7S20099   5.538   6.560   5.606  1.1140  0.0327  1.7046
  177SLPC   C2820100   5.648   6.632   5.425 -0.2975  0.3996  0.7281
  177SLPC   H8R20101   5.744   6.576   5.433 -0.2998 -0.0004 -1.4820
  177SLPC   H8S20102   5.671   6.729   5.377  0.8441  0.2408  0.9273
  177SLPC   C2920103   5.558   6.541   5.348 -0.1574 -0.3058  0.1303
  177SLPC   H9R20104   5.584   6.434   5.351 -1.0928 -0.5152  1.8330
  177SLPC  C21020105   5.440   6.592   5.296 -0.3090  0.5527 -0.2046
  177SLPC  H10R20106   5.374   6.514   5.256  0.0559  0.3650 -0.4456
  177SLPC  C21120107   5.374   6.731   5.288 -0.2910 -0.4947 -0.3951
  177SLPC  H11R20108   5.393   6.767   5.185 -1.4595  1.1280 -0.0783
  177SLPC  H11S20109   5.425   6.810   5.347 -0.8124  0.5420 -1.2885
  177SLPC  C21220110   5.225   6.725   5.316 -0.9159 -0.5354  0.6388
  177SLPC  H12R20111   5.201   6.707   5.422  1.4956 -1.0693  1.1457
  177SLPC  C21320112   5.123   6.702   5.227 -0.2658  0.1280  0.3427
  177SLPC  H13R20113   5.019   6.693   5.261 -0.2668 -0.1212  0.2804
  177SLPC  C21420114   5.128   6.701   5.077  0.1636  0.2696 -0.2724
  177SLPC  H14R20115   5.235   6.702   5.049  0.5557 -1.5762  0.9979
  177SLPC  H14S20116   5.087   6.791   5.025 -1.9726 -0.2158  0.4455
  177SLPC  C21520117   5.070   6.571   5.010 -0.6769  0.2012  0.0622
  177SLPC  H15R20118   4.959   6.564   5.001 -0.4580 -1.2184 -2.2656
  177SLPC  H15S20119   5.105   6.491   5.078 -2.8781 -0.2354  0.7562
  177SLPC  C21620120   5.131   6.556   4.866 -0.4481 -0.7349 -0.5528
  177SLPC  H16R20121   5.240   6.579   4.869 -0.2598 -0.7611 -3.6915
  177SLPC  H16S20122   5.079   6.623   4.794 -3.8722 -2.3071  0.2520
  177SLPC  C21720123   5.124   6.413   4.822 -0.2179  0.2526  0.6767
  177SLPC  H17R20124   5.019   6.381   4.807  0.1041 -0.0824 -1.0041
  177SLPC  H17S20125   5.170   6.357   4.907 -0.5152  0.9002  1.2696
  177SLPC  C21820126   5.207   6.382   4.693 -0.4415  0.2905 -0.8490
  177SLPC  H18R20127   5.202   6.271   4.682 -2.1515  0.4214 -1.7648
  177SLPC  H18S20128   5.314   6.409   4.694  0.0736 -1.5767  0.6454
  177SLPC  H18T20129   5.159   6.432   4.606 -4.4146  0.4411  1.1754
  177SLPC   C3320130   5.095   6.817   5.711 -0.6686  0.0269 -0.0568
  177SLPC   H3X20131   4.991   6.791   5.742 -0.4013  0.8333  1.6044
  177SLPC   H3Y20132   5.109   6.820   5.601 -0.6113 -1.4940 -0.1111
  177SLPC   C3420133   5.127   6.960   5.760  0.0002 -0.1622 -0.4600
  177SLPC   H4X20134   5.227   6.992   5.726 -0.6941 -0.7595 -3.2918
  177SLPC   H4Y20135   5.121   6.965   5.871 -1.0413  0.8022 -0.5472
  177SLPC   C3520136   5.040   7.066   5.692 -0.0053  0.3804  0.0815
  177SLPC   H5X20137   5.057   7.165   5.739 -1.2931 -0.2583  2.0379
  177SLPC   H5Y20138   4.936   7.052   5.729 -1.3298 -2.7228 -4.0413
  177SLPC   C3620139   5.053   7.077   5.543 -0.4128  0.0079  0.5343
  177SLPC   H6X20140   5.147   7.027   5.512 -1.1792 -0.5524 -0.9666
  177SLPC   H6Y20141   5.068   7.179   5.501 -2.8429  1.0300  1.9241
  177SLPC   C3720142   4.934   7.014   5.475  0.0222 -1.4525 -0.0283
  177SLPC   H7X20143   4.836   7.063   5.496 -0.6521 -1.9931 -1.7982
  177SLPC   H7Y20144   4.922   6.906   5.497 -1.1753 -1.0111  1.7750
  177SLPC   C3820145   4.954   7.016   5.323 -0.1211  0.7567  0.4186
  177SLPC   H8X20146   4.895   6.942   5.265  2.7106 -1.0465 -0.3307
  177SLPC   H8Y20147   5.058   6.985   5.304 -0.8973 -2.0979  0.3791
  177SLPC   C3920148   4.916   7.150   5.255 -0.6014 -0.6081  0.7012
  177SLPC   H9X20149   4.986   7.221   5.303 -0.8290 -0.2401  0.4907
  177SLPC   H9Y20150   4.812   7.175   5.287 -0.2740 -0.6778  1.8514
  177SLPC  C31020151   4.932   7.153   5.106  0.3566 -0.2681  0.7949
  177SLPC  H10X20152   5.030   7.109   5.076  1.1109  1.8414  0.0008
  177SLPC  H10Y20153   4.937   7.256   5.065  0.9011 -0.8022 -0.5500
  177SLPC  C31120154   4.825   7.077   5.029  0.0134  0.1100 -0.3053
  177SLPC  H11X20155   4.721   7.111   5.048 -0.6106 -2.0321  0.3886
  177SLPC  H11Y20156   4.813   6.975   5.072  0.9476  0.0706 -0.1124
  177SLPC  C31220157   4.851   7.084   4.878 -0.3930 -0.2698  0.8466
  177SLPC  H12X20158   4.959   7.057   4.876  0.7557  3.6470  2.0038
  177SLPC  H12Y20159   4.831   7.187   4.841  1.7703  1.1149  3.2616
  177SLPC  C31320160   4.767   6.976   4.806 -0.1672  0.0025 -0.0103
  177SLPC  H13X20161   4.662   6.969   4.842  0.6495 -0.6857  2.5118
  177SLPC  H13Y20162   4.804   6.876   4.838 -1.3377  0.3291  2.6160
  177SLPC  C31420163   4.777   6.980   4.650  0.3602  0.2326 -0.0898
  177SLPC  H14X20164   4.769   6.874   4.618  1.4257 -0.6960  2.4382
  177SLPC  H14Y20165   4.883   7.002   4.623  0.6389 -2.0166 -1.1018
  177SLPC  C31520166   4.686   7.085   4.584  1.1614  0.0720 -0.1518
  177SLPC  H15X20167   4.700   7.186   4.628 -1.5041 -0.7090  2.8702
  177SLPC  H15Y20168   4.580   7.066   4.611  0.5261  0.6114 -2.1370
  177SLPC  C31620169   4.688   7.068   4.431  0.3028 -0.4801 -0.6574
  177SLPC  H16X20170   4.596   7.116   4.389 -0.9450  0.0468  2.3790
  177SLPC  H16Y20171   4.676   6.958   4.420 -1.4423 -0.6472  1.9799
  177SLPC  C31720172   4.816   7.109   4.356  0.1213  1.0733  0.3310
  177SLPC  H17X20173   4.837   7.027   4.285  0.7224  0.7921  0.8222
  177SLPC  H17Y20174   4.900   7.121   4.429  0.6900  1.6051 -0.3970
  177SLPC  C31820175   4.817   7.230   4.273  0.3405  0.0107  0.4587
  177SLPC  H18X20176   4.920   7.242   4.232  0.0223  1.0755 -0.0539
  177SLPC  H18Y20177   4.802   7.324   4.331 -1.9890 -0.4603  0.6999
  177SLPC  H18Z20178   4.754   7.218   4.182 -0.3153 -0.8754  1.0153
  178SLPC     N20179   3.708   5.234   6.754  0.3581  0.0633  0.1819
  178SLPC   C1320180   3.650   5.196   6.892  0.2049  0.2271  1.2096
  178SLPC  H13A20181   3.703   5.111   6.931  2.9452  1.1127 -0.3055
  178SLPC  H13B20182   3.659   5.270   6.970 -1.1509  0.4718  1.1601
  178SLPC  H13C20183   3.545   5.174   6.877  0.7013 -1.0275 -0.9352
  178SLPC   C1420184   3.847   5.274   6.775  0.7173  0.4622 -0.1910
  178SLPC  H14A20185   3.902   5.186   6.807 -0.1758 -0.2866 -0.6634
  178SLPC  H14B20186   3.892   5.302   6.681  0.4209  0.4219 -0.3476
  178SLPC  H14C20187   3.866   5.348   6.851 -0.6291 -1.0305  1.6949
  178SLPC   C1520188   3.634   5.368   6.720  0.1008  0.2398 -1.2473
  178SLPC  H15A20189   3.673   5.441   6.790  1.5498 -0.3133 -1.4279
  178SLPC  H15B20190   3.654   5.403   6.620 -2.3252 -0.3050 -1.9689
  178SLPC  H15C20191   3.528   5.354   6.733  0.0896  1.3801  0.1531
  178SLPC   C1220192   3.693   5.130   6.646  0.0877 -0.4857 -0.0570
  178SLPC  H12A20193   3.589   5.102   6.643 -0.8317  2.6093 -2.2612
  178SLPC  H12B20194   3.760   5.050   6.672  1.9849  0.7425 -0.8671
  178SLPC   C1120195   3.731   5.178   6.503  0.7778 -0.5911 -0.1351
  178SLPC  H11A20196   3.657   5.256   6.479  1.3242 -0.1690 -0.4689
  178SLPC  H11B20197   3.726   5.087   6.440 -0.5672 -1.2769  0.9003
  178SLPC     P20198   3.998   5.182   6.473  0.5345  0.6759 -0.0324
  178SLPC   O1320199   4.088   5.295   6.466  0.0965 -0.1677 -0.0082
  178SLPC   O1420200   4.027   5.083   6.575  0.0989 -0.0614 -0.1232
  178SLPC   O1220201   3.856   5.239   6.501 -0.0671 -0.0574  0.5726
  178SLPC   O1120202   3.995   5.110   6.331  0.7139  0.0845  0.0268
  178SLPC    C120203   3.934   5.171   6.222 -0.1038 -0.7920  0.3144
  178SLPC    HA20204   3.824   5.167   6.233 -0.3272  0.5564 -1.0912
  178SLPC    HB20205   3.946   5.281   6.209 -0.5355 -0.8105 -0.3065
  178SLPC    C220206   3.974   5.103   6.089 -0.7426 -0.0156  0.3578
  178SLPC    HS20207   3.967   4.993   6.099  0.0217 -0.1180 -0.1657
  178SLPC   O2120208   4.100   5.151   6.039 -0.2509 -0.7693  0.2743
  178SLPC   C2120209   4.201   5.083   6.073  1.0361 -0.5814 -0.3786
  178SLPC   O2220210   4.201   4.972   6.121  0.2024 -0.1543  0.0108
  178SLPC   C2220211   4.319   5.166   6.045 -0.0423  0.4131  0.0490
  178SLPC   H2R20212   4.313   5.194   5.937 -2.7997  1.0238  0.2698
  178SLPC   H2S20213   4.298   5.263   6.094  1.2459  0.9230 -0.3853
  178SLPC    C320214   3.877   5.140   5.977  0.1237  0.2190  0.5994
  178SLPC    HX20215   3.855   5.249   5.984 -1.5247 -0.1140  1.2152
  178SLPC    HY20216   3.784   5.081   5.995 -1.4148  0.4465 -4.7769
  178SLPC   O3120217   3.926   5.125   5.840  0.1555  0.2113 -0.0539
  178SLPC   C3120218   3.912   5.001   5.786  0.0242 -0.1377  0.7474
  178SLPC   O3220219   3.882   4.902   5.849  0.1944 -0.5401  0.4025
  178SLPC   C3220220   3.964   5.001   5.640  0.6053  0.1701 -0.3000
  178SLPC   H2X20221   4.075   5.007   5.647  0.7549 -0.1598 -1.9055
  178SLPC   H2Y20222   3.923   5.098   5.604 -0.5154  0.7101  2.2296
  178SLPC   C2320223   4.454   5.102   6.097  0.1765  0.0257 -0.0851
  178SLPC   H3R20224   4.447   5.070   6.203 -1.5638  2.4884  0.6046
  178SLPC   H3S20225   4.532   5.181   6.090 -0.3168  0.4123 -1.4241
  178SLPC   C2420226   4.505   4.977   6.025  0.1360 -0.1700 -1.2904
  178SLPC   H4R20227   4.431   4.899   6.049 -1.5583  1.5882 -0.5138
  178SLPC   H4S20228   4.605   4.942   6.058 -0.7418 -1.0868  0.5139
  178SLPC   C2520229   4.509   4.986   5.867  0.3428 -1.1188 -0.3821
  178SLPC   H5R20230   4.562   5.078   5.835 -0.6055 -0.1425  0.7705
  178SLPC   H5S20231   4.406   5.007   5.834  0.5621  2.6382  0.9212
  178SLPC   C2620232   4.566   4.869   5.792 -0.8080 -0.5357 -0.0165
  178SLPC   H6R20233   4.494   4.785   5.792  1.5055 -2.6595 -0.5490
  178SLPC   H6S20234   4.657   4.849   5.853 -2.1664  1.8807  3.1639
  178SLPC   C2720235   4.605   4.910   5.647  0.6015 -0.5587 -0.2573
  178SLPC   H7R20236   4.636   4.809   5.612 -0.8565 -2.2648  2.9392
  178SLPC   H7S20237   4.692   4.978   5.645  0.6823 -0.6477  0.2350
  178SLPC   C2820238   4.493   4.967   5.554  0.2587 -0.2954 -0.3235
  178SLPC   H8R20239   4.458   5.064   5.594  0.3103 -0.0441 -0.8880
  178SLPC   H8S20240   4.403   4.906   5.576  0.6965 -0.8626 -0.0710
  178SLPC   C2920241   4.539   4.966   5.412 -0.3338  0.5931  0.9820
  178SLPC   H9R20242   4.597   5.057   5.393 -0.3452  0.0139 -2.2862
  178SLPC  C21020243   4.512   4.889   5.305  0.2513  0.9500 -0.1881
  178SLPC  H10R20244   4.564   4.905   5.209  0.6176  0.2608 -0.1124
  178SLPC  C21120245   4.416   4.767   5.301 -0.0071 -0.0305  0.6717
  178SLPC  H11R20246   4.381   4.743   5.403  0.1503  1.5760  1.1266
  178SLPC  H11S20247   4.473   4.679   5.265  0.6839  0.2661  1.0152
  178SLPC  C21220248   4.306   4.793   5.206  1.1041 -0.5151  0.5207
  178SLPC  H12R20249   4.222   4.857   5.237  0.9728 -0.4701  0.0842
  178SLPC  C21320250   4.290   4.735   5.081  0.2847 -0.6530 -0.1275
  178SLPC  H13R20251   4.196   4.751   5.026  1.8586 -0.2751 -2.8739
  178SLPC  C21420252   4.386   4.646   5.007  0.6025  0.5269  0.3414
  178SLPC  H14R20253   4.360   4.539   5.024  1.6996  0.2549  0.3793
  178SLPC  H14S20254   4.493   4.661   5.030  1.2571 -2.2864 -0.4328
  178SLPC  C21520255   4.395   4.678   4.857 -0.1642 -0.1436  1.0184
  178SLPC  H15R20256   4.423   4.782   4.830  2.0306 -0.8900  0.1512
  178SLPC  H15S20257   4.302   4.652   4.803  0.4318 -1.4154  0.5467
  178SLPC  C21620258   4.507   4.601   4.793  0.1599  0.1823  0.3962
  178SLPC  H16R20259   4.603   4.624   4.844  0.1587  1.1263 -0.0094
  178SLPC  H16S20260   4.523   4.630   4.687  1.4756 -0.0544  0.5136
  178SLPC  C21720261   4.475   4.444   4.794 -0.0984  0.6899  0.3915
  178SLPC  H17R20262   4.377   4.440   4.743 -0.2438  0.6735  0.6676
  178SLPC  H17S20263   4.452   4.397   4.892 -1.4193  0.3217 -0.0820
  178SLPC  C21820264   4.588   4.361   4.724 -0.3135  0.4436 -0.4796
  178SLPC  H18R20265   4.637   4.416   4.640  1.3395  2.7510  1.8374
  178SLPC  H18S20266   4.547   4.261   4.696 -1.1690  0.2018  1.4996
  178SLPC  H18T20267   4.677   4.354   4.790  0.4014 -2.2193 -1.5879
  178SLPC   C3320268   3.918   4.876   5.554  0.1353  0.1515 -0.1956
  178SLPC   H3X20269   3.808   4.858   5.557  0.0243  0.8166 -0.0269
  178SLPC   H3Y20270   3.979   4.792   5.593 -0.0035 -0.0594 -0.4355
  178SLPC   C3420271   3.956   4.900   5.403 -0.3667  0.8926 -0.0810
  178SLPC   H4X20272   4.067   4.908   5.407 -0.2257 -1.1243  2.5163
  178SLPC   H4Y20273   3.899   4.992   5.377 -1.3371  0.2067 -0.4264
  178SLPC   C3520274   3.922   4.785   5.305  0.8757 -0.2900 -0.5419
  178SLPC   H5X20275   3.962   4.818   5.207  0.6988  1.8414  0.0473
  178SLPC   H5Y20276   3.812   4.772   5.306  0.8550 -0.1233  0.4494
  178SLPC   C3620277   3.980   4.647   5.333 -0.2902  0.1265 -0.6128
  178SLPC   H6X20278   3.935   4.623   5.432  1.3969  2.0088  0.6885
  178SLPC   H6Y20279   4.090   4.644   5.342 -0.3101  0.3764 -0.2883
  178SLPC   C3720280   3.937   4.542   5.233 -0.3367  0.2318  0.3234
  178SLPC   H7X20281   3.961   4.582   5.132  0.7414 -0.9817  0.0670
  178SLPC   H7Y20282   3.828   4.528   5.251 -1.0120  0.4307 -2.9907
  178SLPC   C3820283   4.005   4.403   5.247 -0.3215  0.0006 -0.1406
  178SLPC   H8X20284   3.999   4.370   5.352 -0.8412  0.8994  0.1295
  178SLPC   H8Y20285   4.112   4.408   5.219 -0.4861 -0.7752 -0.9733
  178SLPC   C3920286   3.944   4.292   5.157 -0.5291  0.0870 -0.2560
  178SLPC   H9X20287   3.843   4.321   5.121  0.0522 -0.3897 -2.3935
  178SLPC   H9Y20288   3.930   4.201   5.220 -2.2776 -1.5874 -2.8619
  178SLPC  C31020289   4.017   4.240   5.030  0.0038  0.2455 -0.7980
  178SLPC  H10X20290   3.975   4.146   4.986 -0.2105  0.3624 -0.8415
  178SLPC  H10Y20291   4.121   4.213   5.060 -1.1284 -0.1626  3.2247
  178SLPC  C31120292   4.039   4.345   4.925 -0.6151 -0.0240 -0.1433
  178SLPC  H11X20293   4.081   4.293   4.836  0.3176 -1.0179  0.8426
  178SLPC  H11Y20294   4.106   4.427   4.959  0.0152 -0.5534 -0.0898
  178SLPC  C31220295   3.893   4.400   4.889 -0.0189 -0.5629 -0.8621
  178SLPC  H12X20296   3.855   4.445   4.983 -0.7899 -3.4239  0.3106
  178SLPC  H12Y20297   3.828   4.314   4.864  1.2792 -1.4093 -1.4439
  178SLPC  C31320298   3.897   4.490   4.763  0.0546 -0.0182  0.0998
  178SLPC  H13X20299   3.916   4.432   4.670 -1.8900 -0.5322 -0.0287
  178SLPC  H13Y20300   3.985   4.557   4.773  0.5044  0.0301 -3.0904
  178SLPC  C31420301   3.776   4.582   4.751  0.1069  0.0990 -0.1376
  178SLPC  H14X20302   3.811   4.674   4.699  1.0617  0.3382  0.8833
  178SLPC  H14Y20303   3.739   4.611   4.852  0.4333  0.2830 -0.0690
  178SLPC  C31520304   3.656   4.516   4.684  0.5230  0.2320 -0.0702
  178SLPC  H15X20305   3.643   4.415   4.727  3.9848 -0.4859 -0.3821
  178SLPC  H15Y20306   3.671   4.518   4.574  0.8191  1.8751 -0.0362
  178SLPC  C31620307   3.533   4.599   4.716  0.3488  0.1885 -0.2241
  178SLPC  H16X20308   3.543   4.709   4.716  0.0979  0.2143  0.0468
  178SLPC  H16Y20309   3.497   4.589   4.821  1.3836 -2.2793 -0.0192
  178SLPC  C31720310   3.410   4.550   4.634  0.1595 -0.6592 -0.1893
  178SLPC  H17X20311   3.425   4.441   4.649 -0.5162 -0.5076  1.9479
  178SLPC  H17Y20312   3.415   4.579   4.527  1.9975  2.3348  0.5840
  178SLPC  C31820313   3.272   4.598   4.688  0.3927  0.7724  0.4318
  178SLPC  H18X20314   3.195   4.559   4.618 -0.2964  2.8452 -0.0493
  178SLPC  H18Y20315   3.257   4.708   4.691 -1.1591  0.6007 -0.0072
  178SLPC  H18Z20316   3.257   4.553   4.788 -0.2904 -0.0087 -0.0125
  179SLPC     N20317   0.110   5.384   2.033 -0.7511  0.5976 -0.6347
  179SLPC   C1320318   0.102   5.434   1.895  0.9534  0.0477 -0.3074
  179SLPC  H13A20319   0.100   5.349   1.829 -1.7875  0.3444 -0.7306
  179SLPC  H13B20320   0.015   5.496   1.876  0.9902  1.4277  3.1848
  179SLPC  H13C20321   0.188   5.494   1.868  0.1698  0.5601 -1.8034
  179SLPC   C1420322   0.134   5.509   2.117  0.2408 -0.2496  0.2476
  179SLPC  H14A20323   0.218   5.568   2.083 -0.2829  0.4484  0.1213
  179SLPC  H14B20324   0.048   5.574   2.105  0.3206 -0.5081 -2.0523
  179SLPC  H14C20325   0.169   5.489   2.217  0.9971 -0.7210 -0.1066
  179SLPC   C1520326   0.234   5.292   2.042  0.0792  0.0356 -0.3311
  179SLPC  H15A20327   0.211   5.190   2.016 -1.0609  0.5436 -1.4364
  179SLPC  H15B20328   0.318   5.326   1.984  0.5391 -0.9623 -0.2672
  179SLPC  H15C20329   0.262   5.285   2.146  1.3083  2.8063 -0.3927
  179SLPC   C1220330  -0.018   5.313   2.073 -0.3392 -0.2059 -0.5101
  179SLPC  H12A20331  -0.039   5.226   2.011 -1.5012  0.2107 -0.7366
  179SLPC  H12B20332  -0.093   5.381   2.035  0.6801  1.3052  0.0880
  179SLPC   C1120333  -0.038   5.264   2.219 -0.4881 -0.0978  0.4271
  179SLPC  H11A20334  -0.139   5.218   2.214 -0.3146 -0.5232  0.7825
  179SLPC  H11B20335  -0.047   5.353   2.285 -2.2892  0.6975 -0.8141
  179SLPC     P20336   0.044   5.019   2.247 -0.2027 -0.7628  0.1020
  179SLPC   O1320337  -0.009   4.992   2.112  0.0830 -0.5280  0.1238
  179SLPC   O1420338   0.160   4.943   2.297 -0.8034  0.3683 -0.3587
  179SLPC   O1220339   0.065   5.181   2.264  0.3592 -0.3793 -0.1181
  179SLPC   O1120340  -0.066   4.993   2.354 -0.0239 -0.6495  0.0940
  179SLPC    C120341  -0.038   5.025   2.487 -0.2599  0.1803  0.3062
  179SLPC    HA20342  -0.024   4.932   2.546  0.0601  1.1856  1.8863
  179SLPC    HB20343   0.060   5.075   2.505 -1.1975  0.9548  4.0459
  179SLPC    C220344  -0.148   5.113   2.540 -0.1077 -0.1414 -0.4942
  179SLPC    HS20345  -0.129   5.217   2.503  1.1669  0.2588  1.1549
  179SLPC   O2120346  -0.136   5.110   2.684 -0.5709  0.0951 -0.0919
  179SLPC   C2120347  -0.206   5.207   2.746 -0.0240  0.4371  0.6752
  179SLPC   O2220348  -0.243   5.308   2.690 -0.2681  0.1767 -0.0503
  179SLPC   C2220349  -0.250   5.172   2.886 -0.0419  0.3151  0.2817
  179SLPC   H2R20350  -0.195   5.079   2.913  2.2755  1.4269 -0.3098
  179SLPC   H2S20351  -0.224   5.247   2.965 -0.3971 -1.8220  2.5460
  179SLPC    C320352  -0.288   5.063   2.503 -0.1513 -0.1095 -0.0570
  179SLPC    HX20353  -0.288   5.046   2.393  1.9287 -0.1057 -0.0938
  179SLPC    HY20354  -0.367   5.137   2.530  1.6682  1.1431  2.1753
  179SLPC   O3120355  -0.318   4.943   2.573  0.3682  0.0068 -0.3001
  179SLPC   C3120356  -0.406   4.850   2.523 -0.4983  0.4677 -1.0268
  179SLPC   O3220357  -0.485   4.871   2.441  0.0129 -0.5640  0.3731
  179SLPC   C3220358  -0.399   4.713   2.597  0.2161 -0.7022  0.5881
  179SLPC   H2X20359  -0.294   4.678   2.586  0.7326  0.4514  1.5774
  179SLPC   H2Y20360  -0.447   4.631   2.539 -0.5229  0.2627 -0.1871
  179SLPC   C2320361  -0.403   5.147   2.885 -0.2020 -0.6233  0.7876
  179SLPC   H3R20362  -0.435   5.085   2.798  1.2117  1.4625 -1.3625
  179SLPC   H3S20363  -0.446   5.248   2.872  2.3106  0.3599 -0.8193
  179SLPC   C2420364  -0.450   5.088   3.016  0.5624  1.0514 -0.0977
  179SLPC   H4R20365  -0.400   4.990   3.025 -2.3605 -0.4784  0.7823
  179SLPC   H4S20366  -0.555   5.054   3.007  1.2257 -1.4049  0.6711
  179SLPC   C2520367  -0.424   5.175   3.138 -0.2758 -0.0495  0.3044
  179SLPC   H5R20368  -0.472   5.274   3.118 -1.1361 -0.5839 -0.3828
  179SLPC   H5S20369  -0.314   5.178   3.151 -0.1272 -0.4208 -0.8126
  179SLPC   C2620370  -0.470   5.112   3.273  0.0746 -0.4200 -0.1788
  179SLPC   H6R20371  -0.461   5.002   3.262 -2.4934 -0.8880  1.4089
  179SLPC   H6S20372  -0.578   5.121   3.298 -0.0972 -0.1616 -0.9939
  179SLPC   C2720373  -0.391   5.162   3.391  0.2997  0.3838  0.3773
  179SLPC   H7R20374  -0.405   5.271   3.399 -2.1674  0.2127 -0.7331
  179SLPC   H7S20375  -0.282   5.146   3.378  0.4533  1.3975  0.3766
  179SLPC   C2820376  -0.433   5.089   3.519 -0.1868 -0.3071 -0.2699
  179SLPC   H8R20377  -0.430   4.978   3.510 -0.6708 -0.7257  3.2228
  179SLPC   H8S20378  -0.539   5.112   3.542  0.0752  0.7117 -0.0112
  179SLPC   C2920379  -0.330   5.130   3.627  1.0416 -0.0346  0.3876
  179SLPC   H9R20380  -0.232   5.081   3.622 -0.5487 -3.4038 -1.4750
  179SLPC  C21020381  -0.360   5.202   3.735 -1.0210  0.7450  0.5350
  179SLPC  H10R20382  -0.278   5.214   3.807 -0.8768 -1.4329  0.8074
  179SLPC  C21120383  -0.487   5.275   3.765 -0.0729  0.4879 -0.2089
  179SLPC  H11R20384  -0.573   5.220   3.722 -0.2340 -1.0888  1.9823
  179SLPC  H11S20385  -0.474   5.380   3.732 -2.0574  1.3972  1.6220
  179SLPC  C21220386  -0.526   5.283   3.914 -0.0034 -0.6320  0.5169
  179SLPC  H12R20387  -0.589   5.201   3.952  1.0572 -2.7096 -1.9278
  179SLPC  C21320388  -0.490   5.376   3.999  0.0482  0.6783  0.1579
  179SLPC  H13R20389  -0.528   5.372   4.103 -1.5280  2.4819 -0.2809
  179SLPC  C21420390  -0.404   5.494   3.967  0.0378 -0.0905 -0.3013
  179SLPC  H14R20391  -0.376   5.498   3.860  1.3872  0.1035  0.0361
  179SLPC  H14S20392  -0.314   5.509   4.032 -0.6099  0.7585  0.4267
  179SLPC  C21520393  -0.475   5.632   3.990  0.0216  0.6814  0.2409
  179SLPC  H15R20394  -0.545   5.621   4.076  1.8478  0.9076  1.8229
  179SLPC  H15S20395  -0.527   5.652   3.893  2.0523 -0.5503 -1.1759
  179SLPC  C21620396  -0.394   5.754   4.033  0.5921 -0.4481 -0.7304
  179SLPC  H16R20397  -0.341   5.726   4.127  0.5902 -3.0045 -1.4297
  179SLPC  H16S20398  -0.464   5.839   4.051 -0.4494 -1.7901  2.2587
  179SLPC  C21720399  -0.290   5.803   3.926  0.0157  0.1344 -0.4406
  179SLPC  H17R20400  -0.204   5.735   3.939 -0.1833 -0.3098 -1.3395
  179SLPC  H17S20401  -0.259   5.902   3.964  0.4037 -0.5932  1.2257
  179SLPC  C21820402  -0.325   5.815   3.777  0.2819 -0.2608 -0.2103
  179SLPC  H18R20403  -0.231   5.827   3.720  1.0750 -0.8179  0.9434
  179SLPC  H18S20404  -0.390   5.903   3.757  0.4934  0.3808  1.6905
  179SLPC  H18T20405  -0.386   5.731   3.737  0.0277  0.9041 -2.3855
  179SLPC   C3320406  -0.452   4.725   2.741 -0.0352  0.2463  0.0842
  179SLPC   H3X20407  -0.400   4.805   2.798  2.2735 -2.1169  1.5023
  179SLPC   H3Y20408  -0.426   4.633   2.798  1.1467 -0.4283 -1.4446
  179SLPC   C3420409  -0.598   4.753   2.759 -0.3294  0.0037 -0.3534
  179SLPC   H4X20410  -0.662   4.673   2.715 -1.4407 -0.4178  1.8515
  179SLPC   H4Y20411  -0.618   4.846   2.702 -3.9388  0.4954  1.4231
  179SLPC   C3520412  -0.648   4.785   2.899  0.2429  0.2728 -0.6327
  179SLPC   H5X20413  -0.586   4.858   2.956 -0.4485  1.7482 -1.7034
  179SLPC   H5Y20414  -0.753   4.823   2.898  0.5417  1.1068 -1.0834
  179SLPC   C3620415  -0.645   4.657   2.994  0.0454  0.2267 -0.6805
  179SLPC   H6X20416  -0.541   4.641   3.029 -0.9797  0.4652  2.8011
  179SLPC   H6Y20417  -0.675   4.568   2.935  1.6702  0.0411 -1.2958
  179SLPC   C3720418  -0.734   4.670   3.123  0.5946  0.1775 -0.5409
  179SLPC   H7X20419  -0.765   4.567   3.152 -1.4833  0.7926 -0.4204
  179SLPC   H7Y20420  -0.830   4.720   3.096  0.0853 -1.1062 -1.2181
  179SLPC   C3820421  -0.668   4.734   3.243 -0.3014 -0.7079 -0.3060
  179SLPC   H8X20422  -0.656   4.844   3.246  1.4136 -0.8660 -0.5924
  179SLPC   H8Y20423  -0.562   4.702   3.237 -0.4243 -1.0362 -0.7377
  179SLPC   C3920424  -0.719   4.682   3.380  0.1169  1.2417  0.0273
  179SLPC   H9X20425  -0.707   4.572   3.376 -1.5450  0.8597  2.8668
  179SLPC   H9Y20426  -0.827   4.703   3.397 -0.9417 -1.7418 -2.1172
  179SLPC  C31020427  -0.627   4.734   3.491  0.0517  0.1582 -0.2388
  179SLPC  H10X20428  -0.638   4.845   3.500 -0.5287  0.0101  1.4359
  179SLPC  H10Y20429  -0.522   4.702   3.478 -0.3078 -1.0502 -0.2953
  179SLPC  C31120430  -0.662   4.687   3.630  0.2323  0.1175 -0.4550
  179SLPC  H11X20431  -0.628   4.581   3.624  2.9679  0.8802  0.0515
  179SLPC  H11Y20432  -0.769   4.707   3.652  1.0946  2.2056  2.4129
  179SLPC  C31220433  -0.575   4.759   3.735  0.0122 -0.0347 -0.1425
  179SLPC  H12X20434  -0.622   4.860   3.743  1.5142  0.6601  0.2359
  179SLPC  H12Y20435  -0.478   4.780   3.686 -0.4257 -3.0230 -2.5929
  179SLPC  C31320436  -0.563   4.684   3.864 -0.8583  0.3283 -0.3440
  179SLPC  H13X20437  -0.496   4.596   3.848  0.2365  0.5632  2.2913
  179SLPC  H13Y20438  -0.668   4.662   3.892 -1.0225 -2.1253 -2.5135
  179SLPC  C31420439  -0.488   4.769   3.963 -0.7408  0.4857  0.0759
  179SLPC  H14X20440  -0.398   4.820   3.922  1.3683 -1.7469  1.6380
  179SLPC  H14Y20441  -0.459   4.703   4.048 -1.5813 -0.0096 -0.0114
  179SLPC  C31520442  -0.576   4.881   4.023 -0.0206  0.0311  0.0766
  179SLPC  H15X20443  -0.675   4.838   4.052 -0.4717 -0.1304 -1.5761
  179SLPC  H15Y20444  -0.593   4.959   3.946  1.0520  1.5367  1.3203
  179SLPC  C31620445  -0.519   4.949   4.141 -0.4609  0.2760 -0.6750
  179SLPC  H16X20446  -0.443   5.017   4.097  0.1923 -0.4649 -0.6922
  179SLPC  H16Y20447  -0.467   4.871   4.200  2.6511  0.2643 -3.1596
  179SLPC  C31720448  -0.630   5.032   4.212 -0.1914 -0.8531  0.4369
  179SLPC  H17X20449  -0.700   4.966   4.266 -0.7020 -0.1830  0.6044
  179SLPC  H17Y20450  -0.692   5.078   4.132  2.4966 -0.1547 -1.3882
  179SLPC  C31820451  -0.581   5.133   4.306 -0.3610  0.2207 -0.1009
  179SLPC  H18X20452  -0.502   5.092   4.373 -0.4251 -1.1287 -0.8183
  179SLPC  H18Y20453  -0.658   5.192   4.359  2.0264  3.3109  0.2558
  179SLPC  H18Z20454  -0.530   5.214   4.250  0.2819 -2.2074 -3.3502
  180SLPC     N20455   4.039   4.611   1.854 -0.1881  0.7725 -0.3614
  180SLPC   C1320456   4.158   4.532   1.913 -0.4660  0.0106 -0.1751
  180SLPC  H13A20457   4.144   4.508   2.018  0.5103 -0.7515 -0.1972
  180SLPC  H13B20458   4.193   4.453   1.848 -0.6676  0.8923 -1.3742
  180SLPC  H13C20459   4.242   4.600   1.917 -0.4436  0.0435 -1.0667
  180SLPC   C1420460   3.940   4.508   1.837  0.0241 -0.5971  0.2119
  180SLPC  H14A20461   3.891   4.482   1.930  0.1825 -0.2869  0.3837
  180SLPC  H14B20462   3.862   4.539   1.769  0.1189  1.3254  0.9342
  180SLPC  H14C20463   3.969   4.415   1.790  3.2779  0.5764 -0.3200
  180SLPC   C1520464   4.084   4.657   1.722 -0.0308 -0.3514 -0.1751
  180SLPC  H15A20465   4.091   4.581   1.646 -1.5998 -0.4919 -0.2230
  180SLPC  H15B20466   4.017   4.732   1.683 -0.3592  0.7609  2.3402
  180SLPC  H15C20467   4.178   4.709   1.723 -0.8213  1.1659 -0.9181
  180SLPC   C1220468   3.985   4.716   1.948  0.0660  0.0020 -0.0116
  180SLPC  H12A20469   3.896   4.747   1.897 -0.4559 -0.2264  0.7461
  180SLPC  H12B20470   4.052   4.799   1.961 -0.0535 -0.2467  2.5314
  180SLPC   C1120471   3.950   4.687   2.094 -0.2545  0.0588 -0.6826
  180SLPC  H11A20472   3.927   4.787   2.137 -1.6231 -0.1824 -0.8033
  180SLPC  H11B20473   4.036   4.649   2.153 -0.7076  1.1842  0.7837
  180SLPC     P20474   3.708   4.614   2.177 -0.4467  0.4106  0.6374
  180SLPC   O1320475   3.648   4.732   2.106  0.3526  0.2090 -0.5129
  180SLPC   O1420476   3.638   4.484   2.171  0.3514  0.1891 -0.3640
  180SLPC   O1220477   3.844   4.592   2.107 -0.0658 -0.0666 -0.5693
  180SLPC   O1120478   3.745   4.651   2.327  0.2361 -1.1313 -0.2980
  180SLPC    C120479   3.763   4.788   2.369  0.1132  0.6654  0.1353
  180SLPC    HA20480   3.861   4.778   2.420 -0.2211 -2.9885  0.3185
  180SLPC    HB20481   3.773   4.856   2.282  1.4017  0.4231  0.0797
  180SLPC    C220482   3.648   4.826   2.463 -0.5303  0.7101 -0.0345
  180SLPC    HS20483   3.662   4.931   2.497  1.2689  1.7260 -3.4544
  180SLPC   O2120484   3.649   4.729   2.577 -0.4230 -0.4318  0.5891
  180SLPC   C2120485   3.737   4.763   2.671 -0.2305 -1.6941 -0.0114
  180SLPC   O2220486   3.798   4.872   2.675  0.4305  0.0493 -0.0093
  180SLPC   C2220487   3.740   4.653   2.780  0.2966 -0.1140  0.6791
  180SLPC   H2R20488   3.691   4.560   2.745 -0.1613 -0.9546  3.3363
  180SLPC   H2S20489   3.843   4.614   2.793 -0.2313 -1.1903  1.8928
  180SLPC    C320490   3.509   4.818   2.396  0.5384 -0.1080  0.2933
  180SLPC    HX20491   3.513   4.713   2.360  2.2498 -0.6062  1.7477
  180SLPC    HY20492   3.502   4.876   2.302 -1.1305 -1.6629 -0.6035
  180SLPC   O3120493   3.397   4.839   2.489 -0.3630 -0.2138 -0.2664
  180SLPC   C3120494   3.337   4.730   2.536 -0.5343 -0.4417 -0.0683
  180SLPC   O3220495   3.361   4.613   2.513  0.5083  0.3844 -0.0999
  180SLPC   C3220496   3.213   4.774   2.619 -0.1953  0.1367 -0.0348
  180SLPC   H2X20497   3.127   4.769   2.550  0.1315  2.5080 -0.6899
  180SLPC   H2Y20498   3.219   4.878   2.659 -1.9558 -0.4317  1.8480
  180SLPC   C2320499   3.677   4.692   2.919  0.0760 -0.8869 -0.7014
  180SLPC   H3R20500   3.656   4.604   2.984 -1.6864 -0.3192 -0.4536
  180SLPC   H3S20501   3.574   4.728   2.898 -0.0450 -0.8324 -0.0301
  180SLPC   C2420502   3.751   4.801   2.993 -0.2305 -0.3374 -0.5698
  180SLPC   H4R20503   3.727   4.900   2.947  2.8207  0.6739 -0.1989
  180SLPC   H4S20504   3.861   4.803   2.978 -0.5548  0.5192 -3.5027
  180SLPC   C2520505   3.715   4.797   3.144 -0.6900  0.4233  0.6916
  180SLPC   H5R20506   3.740   4.698   3.188 -2.6764 -0.0114  0.9320
  180SLPC   H5S20507   3.605   4.797   3.151 -1.1267  0.2529 -3.3896
  180SLPC   C2620508   3.765   4.908   3.230 -0.1242  0.2873  0.0165
  180SLPC   H6R20509   3.704   4.997   3.201 -3.6803 -1.2535  1.9983
  180SLPC   H6S20510   3.871   4.923   3.204 -0.1148 -2.2526 -1.7227
  180SLPC   C2720511   3.738   4.890   3.378  0.4352 -0.0933  0.3442
  180SLPC   H7R20512   3.770   4.790   3.414  1.4025  1.0749  2.9996
  180SLPC   H7S20513   3.628   4.898   3.386  0.4114 -0.3052  0.2310
  180SLPC   C2820514   3.806   4.993   3.463  0.0171  0.0715 -0.1171
  180SLPC   H8R20515   3.795   5.083   3.399 -0.3736 -0.6098 -1.0425
  180SLPC   H8S20516   3.913   4.963   3.459 -0.3967 -1.5150  0.1054
  180SLPC   C2920517   3.750   5.008   3.606  0.1336  0.1730  0.8351
  180SLPC   H9R20518   3.661   5.071   3.620  0.1531  0.9388 -1.8395
  180SLPC  C21020519   3.808   4.959   3.711 -0.0729  1.3437 -0.3183
  180SLPC  H10R20520   3.752   4.955   3.805  0.1555 -1.4110 -0.2334
  180SLPC  C21120521   3.925   4.864   3.714 -0.5040 -0.4486  0.0748
  180SLPC  H11R20522   3.956   4.824   3.615  0.9919  1.7246 -0.3965
  180SLPC  H11S20523   3.887   4.769   3.757 -1.1091  0.1003  0.7766
  180SLPC  C21220524   4.044   4.916   3.794  1.4582  0.1101  0.2494
  180SLPC  H12R20525   4.044   4.883   3.898  0.4564 -2.9460 -0.6302
  180SLPC  C21320526   4.152   4.974   3.739 -0.3217  0.3435 -0.0293
  180SLPC  H13R20527   4.238   4.991   3.806 -1.1101 -2.1249  1.7486
  180SLPC  C21420528   4.194   5.000   3.601  0.3115 -0.2423  0.9381
  180SLPC  H14R20529   4.215   5.107   3.578  0.8597 -0.7857 -1.3171
  180SLPC  H14S20530   4.104   4.983   3.540  1.3141  0.0072 -0.6789
  180SLPC  C21520531   4.305   4.903   3.535  0.6014  0.4113 -0.5182
  180SLPC  H15R20532   4.258   4.803   3.526  0.8685  0.2431 -0.0962
  180SLPC  H15S20533   4.395   4.899   3.600  1.9403  2.8651 -2.0454
  180SLPC  C21620534   4.342   4.964   3.396  1.1487 -0.2619  0.1035
  180SLPC  H16R20535   4.428   4.903   3.360  2.9493  0.0891  3.4581
  180SLPC  H16S20536   4.367   5.072   3.399  1.7407 -0.3828 -0.2020
  180SLPC  C21720537   4.223   4.954   3.299 -1.0715 -0.2296  0.4423
  180SLPC  H17R20538   4.137   5.014   3.335 -1.6426 -2.4022  2.9857
  180SLPC  H17S20539   4.192   4.847   3.301  1.3300 -0.9850  0.2384
  180SLPC  C21820540   4.254   5.009   3.154 -0.0156 -0.1409  0.0742
  180SLPC  H18R20541   4.163   5.002   3.091 -0.9698 -2.8277  1.5892
  180SLPC  H18S20542   4.347   4.985   3.097 -1.5852  0.4395 -2.9102
  180SLPC  H18T20543   4.279   5.117   3.157  0.2104 -0.2089  0.9287
  180SLPC   C3320544   3.171   4.686   2.740 -1.3390 -0.3643 -0.1270
  180SLPC   H3X20545   3.173   4.582   2.701  1.7390 -0.4987  0.1184
  180SLPC   H3Y20546   3.073   4.723   2.777 -1.6252 -1.5268  0.3160
  180SLPC   C3420547   3.275   4.693   2.855  0.7131  0.8853  0.0062
  180SLPC   H4X20548   3.280   4.790   2.908 -0.7214  0.6567  0.6283
  180SLPC   H4Y20549   3.378   4.672   2.821  2.3256  4.6002  2.1352
  180SLPC   C3520550   3.224   4.586   2.956 -0.0336 -0.7191  0.4613
  180SLPC   H5X20551   3.191   4.494   2.904  1.9477 -2.2206  1.7103
  180SLPC   H5Y20552   3.133   4.636   2.995 -1.1295 -1.2641 -1.3163
  180SLPC   C3620553   3.327   4.557   3.064 -0.0567 -0.0129 -0.9768
  180SLPC   H6X20554   3.426   4.584   3.019 -0.9599  1.3782 -2.2483
  180SLPC   H6Y20555   3.321   4.447   3.073  0.7450 -0.1808 -2.2606
  180SLPC   C3720556   3.300   4.623   3.195  0.1516  0.3726 -0.8607
  180SLPC   H7X20557   3.202   4.608   3.245  1.4770 -1.8871  1.2806
  180SLPC   H7Y20558   3.307   4.730   3.166 -0.5263  0.3561 -1.0945
  180SLPC   C3820559   3.405   4.597   3.304 -0.0573 -0.5830  0.5085
  180SLPC   H8X20560   3.510   4.602   3.268  0.4304 -0.1966  1.9169
  180SLPC   H8Y20561   3.398   4.490   3.335  0.5122 -0.3706  1.4097
  180SLPC   C3920562   3.396   4.696   3.426  0.1232  0.4110  0.1350
  180SLPC   H9X20563   3.293   4.685   3.467 -0.1301 -0.1291 -0.6143
  180SLPC   H9Y20564   3.422   4.797   3.388  0.6396  0.6230  1.0134
  180SLPC  C31020565   3.485   4.649   3.542  0.9157 -0.3365 -0.1648
  180SLPC  H10X20566   3.514   4.731   3.611 -0.9084  1.5026 -1.4570
  180SLPC  H10Y20567   3.576   4.601   3.500  1.5858  0.8383 -0.0872
  180SLPC  C31120568   3.412   4.541   3.624  0.1087  0.0261 -0.9466
  180SLPC  H11X20569   3.374   4.467   3.551  0.5667  0.2940 -1.4573
  180SLPC  H11Y20570   3.325   4.594   3.669 -0.4383  1.0889 -3.1319
  180SLPC  C31220571   3.500   4.461   3.724  0.7143  0.1898  0.2422
  180SLPC  H12X20572   3.424   4.395   3.772 -1.2801 -0.2247 -3.1416
  180SLPC  H12Y20573   3.551   4.525   3.798 -1.9047  0.5091  1.9146
  180SLPC  C31320574   3.599   4.358   3.649  0.5312 -0.5111  0.5756
  180SLPC  H13X20575   3.682   4.414   3.602  0.6239  0.2070  1.5527
  180SLPC  H13Y20576   3.533   4.322   3.567 -1.6279  3.2785  0.3920
  180SLPC  C31420577   3.649   4.238   3.733  0.6579  0.4200  0.3148
  180SLPC  H14X20578   3.699   4.166   3.666 -0.2087  0.5049 -0.4469
  180SLPC  H14Y20579   3.569   4.189   3.792  1.1274  1.9774  2.3798
  180SLPC  C31520580   3.753   4.267   3.843  0.0276 -0.6587 -0.3632
  180SLPC  H15X20581   3.733   4.374   3.866 -1.0491 -1.4526  2.8421
  180SLPC  H15Y20582   3.854   4.247   3.801  0.0603 -2.7902  0.5887
  180SLPC  C31620583   3.728   4.198   3.982 -0.7345 -0.7000 -0.0296
  180SLPC  H16X20584   3.621   4.196   4.011 -0.5777 -2.8893  0.5842
  180SLPC  H16Y20585   3.788   4.248   4.061 -3.1671  0.0173  1.4573
  180SLPC  C31720586   3.769   4.047   3.964  0.6711 -0.3567 -0.5468
  180SLPC  H17X20587   3.871   4.041   3.921  0.2701 -1.4800 -1.3750
  180SLPC  H17Y20588   3.703   3.994   3.893  1.0031  0.5060 -1.5193
  180SLPC  C31820589   3.773   3.956   4.092  0.2379 -0.0612 -0.8849
  180SLPC  H18X20590   3.825   4.011   4.174 -0.0484  0.5995 -1.1413
  180SLPC  H18Y20591   3.822   3.862   4.058 -0.6006 -1.3641  1.3173
  180SLPC  H18Z20592   3.668   3.932   4.120 -0.0441  0.5256 -1.4276
  181SLPC     N20593   3.884   3.689   1.895 -0.1325  0.4484  0.6066
  181SLPC   C1320594   3.958   3.815   1.927  0.1344 -0.2460 -0.0313
  181SLPC  H13A20595   4.008   3.794   2.020 -0.6221 -0.0879  0.4206
  181SLPC  H13B20596   4.028   3.824   1.845  1.7839 -0.4896  1.3078
  181SLPC  H13C20597   3.895   3.902   1.933  1.4677  0.6469  1.5284
  181SLPC   C1420598   3.984   3.573   1.885 -0.1370 -0.0309  0.4955
  181SLPC  H14A20599   4.036   3.557   1.979 -1.2545  1.2123  1.3562
  181SLPC  H14B20600   3.925   3.485   1.866 -2.2587  1.6343 -1.0449
  181SLPC  H14C20601   4.052   3.583   1.802 -1.8028 -0.1020 -0.9084
  181SLPC   C1520602   3.816   3.686   1.764  0.7416  0.3145  0.2844
  181SLPC  H15A20603   3.886   3.686   1.681 -0.1072 -1.0079 -0.4813
  181SLPC  H15B20604   3.749   3.602   1.754  0.8114  0.3200 -0.2599
  181SLPC  H15C20605   3.752   3.772   1.754  0.6001 -0.0050 -2.2038
  181SLPC   C1220606   3.777   3.668   2.009 -0.2968 -0.4004  0.5614
  181SLPC  H12A20607   3.701   3.610   1.958  2.2080 -1.1014 -2.6369
  181SLPC  H12B20608   3.733   3.764   2.032 -1.0672 -0.3788 -0.8898
  181SLPC   C1120609   3.811   3.615   2.153  0.1123  0.6012 -0.5960
  181SLPC  H11A20610   3.722   3.620   2.218  0.6760 -0.8972  0.3480
  181SLPC  H11B20611   3.892   3.678   2.196  1.5945 -2.0354  0.7196
  181SLPC     P20612   3.770   3.351   2.117 -0.1563 -0.2830  0.3096
  181SLPC   O1320613   3.653   3.396   2.045 -0.5083  0.0476 -0.2314
  181SLPC   O1420614   3.855   3.256   2.042 -0.0239  0.4785 -0.3202
  181SLPC   O1220615   3.857   3.476   2.156  0.3240 -0.3999 -0.2960
  181SLPC   O1120616   3.723   3.284   2.254  0.2924 -0.4443 -0.1589
  181SLPC    C120617   3.824   3.281   2.359 -0.0540  0.0175  0.4063
  181SLPC    HA20618   3.912   3.226   2.320 -2.0966 -1.8815 -1.8721
  181SLPC    HB20619   3.860   3.384   2.379 -2.1775  0.9333 -0.2096
  181SLPC    C220620   3.779   3.219   2.490  0.6760 -0.2857 -0.8768
  181SLPC    HS20621   3.845   3.259   2.570 -0.0741 -0.9742  0.1130
  181SLPC   O2120622   3.775   3.074   2.477 -0.4372 -0.3017  0.0058
  181SLPC   C2120623   3.889   3.015   2.470  1.5141  0.0345 -0.4218
  181SLPC   O2220624   3.992   3.077   2.480  0.0510 -0.1129  0.3748
  181SLPC   C2220625   3.874   2.861   2.459 -0.1451 -0.3929  0.4005
  181SLPC   H2R20626   3.765   2.839   2.468 -0.1984 -0.1021  0.4798
  181SLPC   H2S20627   3.922   2.832   2.363  3.4708  1.4282  1.4937
  181SLPC    C320628   3.641   3.272   2.518  0.2715  0.8405  0.0598
  181SLPC    HX20629   3.566   3.215   2.459 -0.2957  0.7789  0.8342
  181SLPC    HY20630   3.641   3.378   2.483  1.3609 -0.2682 -3.8702
  181SLPC   O3120631   3.614   3.255   2.665 -0.4062  0.0623 -0.0871
  181SLPC   C3120632   3.645   3.361   2.741  0.6783 -0.6905  0.4893
  181SLPC   O3220633   3.696   3.465   2.702  0.0223  0.6088 -0.0203
  181SLPC   C3220634   3.597   3.342   2.883  0.3448 -0.3798  0.2106
  181SLPC   H2X20635   3.690   3.322   2.941  0.3388  1.3670  0.8726
  181SLPC   H2Y20636   3.524   3.258   2.887  1.0050 -0.9812 -0.1527
  181SLPC   C2320637   3.966   2.784   2.556  0.8918  0.4770 -0.1921
  181SLPC   H3R20638   4.068   2.827   2.554  0.5666  1.2497 -1.3600
  181SLPC   H3S20639   3.970   2.677   2.524 -2.8000 -0.1434  0.9649
  181SLPC   C2420640   3.907   2.788   2.697 -0.4200  0.3210  0.4422
  181SLPC   H4R20641   3.811   2.731   2.696 -1.5002  2.0541 -0.7698
  181SLPC   H4S20642   3.869   2.887   2.728 -2.0447 -0.0978 -0.0788
  181SLPC   C2520643   4.001   2.727   2.799 -0.6318  0.4507  0.7818
  181SLPC   H5R20644   4.086   2.797   2.788 -0.0602 -0.3369  0.0897
  181SLPC   H5S20645   4.034   2.625   2.769 -0.4335  0.2941  1.5234
  181SLPC   C2620646   3.957   2.740   2.949  0.0857 -0.3769  0.0444
  181SLPC   H6R20647   3.876   2.668   2.974 -1.1425  0.7607 -0.5722
  181SLPC   H6S20648   3.926   2.845   2.970 -0.5643 -1.0469  2.9322
  181SLPC   C2720649   4.085   2.714   3.033  0.5972 -0.5780 -0.0887
  181SLPC   H7R20650   4.163   2.792   3.022 -1.2012  1.1567 -1.0297
  181SLPC   H7S20651   4.136   2.620   3.004  0.4480 -0.8214  0.4169
  181SLPC   C2820652   4.034   2.704   3.178 -0.1368 -0.3689 -0.5189
  181SLPC   H8R20653   3.965   2.617   3.174 -1.7962  0.9206 -0.7196
  181SLPC   H8S20654   3.970   2.793   3.195  0.4346  0.0857 -0.7234
  181SLPC   C2920655   4.148   2.681   3.267 -0.8178 -0.1784 -0.2542
  181SLPC   H9R20656   4.246   2.666   3.219 -0.5696  1.4746 -0.3359
  181SLPC  C21020657   4.152   2.714   3.400  0.0568  0.0334 -0.2653
  181SLPC  H10R20658   4.248   2.703   3.452 -0.3027 -0.9982  0.2222
  181SLPC  C21120659   4.041   2.761   3.492 -0.2931 -0.1992  0.2581
  181SLPC  H11R20660   3.974   2.833   3.440 -0.3418  0.3804  1.1011
  181SLPC  H11S20661   4.087   2.820   3.575 -2.0535  0.7924  0.5842
  181SLPC  C21220662   3.955   2.659   3.545 -0.6112 -0.2134  0.3273
  181SLPC  H12R20663   3.877   2.629   3.473 -1.0740  0.4922  0.5281
  181SLPC  C21320664   3.965   2.596   3.667  0.0270 -0.0993 -0.3327
  181SLPC  H13R20665   3.905   2.513   3.707  1.4035  0.0926  2.3884
  181SLPC  C21420666   4.075   2.631   3.765 -0.4751 -0.3071  0.5218
  181SLPC  H14R20667   4.053   2.727   3.817 -2.2513 -0.7727  0.6961
  181SLPC  H14S20668   4.171   2.658   3.716 -0.8233 -0.9537 -0.5588
  181SLPC  C21520669   4.121   2.524   3.862 -0.3319  0.2899  0.0304
  181SLPC  H15R20670   4.200   2.560   3.932 -1.0736 -0.1900  1.1357
  181SLPC  H15S20671   4.178   2.448   3.805  2.3523  2.4448 -0.4104
  181SLPC  C21620672   4.008   2.474   3.952  0.3951  0.3289 -0.7315
  181SLPC  H16R20673   3.930   2.416   3.898 -0.5995 -0.6851  1.6380
  181SLPC  H16S20674   3.964   2.569   3.988  3.5434  2.3344 -1.7997
  181SLPC  C21720675   4.050   2.386   4.072  0.5802  0.3967 -0.0570
  181SLPC  H17R20676   4.089   2.290   4.032  2.8965  1.4869 -0.6029
  181SLPC  H17S20677   3.958   2.380   4.133 -0.1797 -2.5125 -1.3592
  181SLPC  C21820678   4.158   2.445   4.162  0.3175  0.1791 -0.0709
  181SLPC  H18R20679   4.258   2.440   4.113  1.3941  1.3523  1.9001
  181SLPC  H18S20680   4.152   2.387   4.257 -3.6414  0.3486 -0.0507
  181SLPC  H18T20681   4.127   2.547   4.191  0.3249 -0.2587  1.6164
  181SLPC   C3320682   3.527   3.463   2.941  0.2886  1.2246  1.2527
  181SLPC   H3X20683   3.448   3.497   2.871  1.2782  1.4649  0.2068
  181SLPC   H3Y20684   3.597   3.550   2.941  1.6957  0.1416  0.8125
  181SLPC   C3420685   3.470   3.434   3.080 -0.4675 -0.0495  0.1049
  181SLPC   H4X20686   3.414   3.338   3.075  2.1169 -1.6670  0.1529
  181SLPC   H4Y20687   3.397   3.511   3.112 -0.5862  0.3599 -1.1075
  181SLPC   C3520688   3.582   3.414   3.186 -0.5196  0.2624 -1.1478
  181SLPC   H5X20689   3.643   3.507   3.199 -0.0759 -0.2404  0.7567
  181SLPC   H5Y20690   3.646   3.331   3.151  0.7593  0.3032  0.9006
  181SLPC   C3620691   3.516   3.372   3.322  0.7314 -0.1193 -1.0866
  181SLPC   H6X20692   3.456   3.278   3.312 -0.7218  0.4146  1.6303
  181SLPC   H6Y20693   3.446   3.450   3.358  1.4705  1.1130 -2.2188
  181SLPC   C3720694   3.613   3.343   3.441  0.0360 -0.2500 -0.2996
  181SLPC   H7X20695   3.679   3.429   3.465 -0.6721  0.5911 -1.2642
  181SLPC   H7Y20696   3.685   3.266   3.406  2.6916  1.5775  0.7693
  181SLPC   C3820697   3.539   3.309   3.569 -0.1977  0.5547 -0.3575
  181SLPC   H8X20698   3.594   3.249   3.644  0.2614  0.9600 -0.3641
  181SLPC   H8Y20699   3.450   3.251   3.536  0.9718 -1.0252 -0.8745
  181SLPC   C3920700   3.470   3.424   3.631 -0.3107 -0.3150  0.2967
  181SLPC   H9X20701   3.398   3.467   3.559  2.1111  2.9800 -0.4064
  181SLPC   H9Y20702   3.539   3.510   3.642 -2.6317  1.8497 -1.0488
  181SLPC  C31020703   3.397   3.379   3.758  0.1205 -0.0431 -0.7415
  181SLPC  H10X20704   3.458   3.364   3.849 -2.5830 -1.5664  0.9567
  181SLPC  H10Y20705   3.352   3.282   3.727  0.8789 -0.9197  0.7848
  181SLPC  C31120706   3.299   3.486   3.810  0.4123  0.0385 -0.1893
  181SLPC  H11X20707   3.241   3.519   3.721  0.6133  1.0818  0.0571
  181SLPC  H11Y20708   3.333   3.578   3.862 -2.5749  0.0017  2.1137
  181SLPC  C31220709   3.202   3.429   3.919  0.7312 -0.2633 -0.3237
  181SLPC  H12X20710   3.263   3.405   4.009  2.6693  0.0530 -1.4911
  181SLPC  H12Y20711   3.167   3.327   3.890  0.4219 -0.0664 -0.6445
  181SLPC  C31320712   3.088   3.521   3.958  0.2606  0.4589 -0.2466
  181SLPC  H13X20713   3.068   3.563   3.858  0.6086  1.9099  0.2797
  181SLPC  H13Y20714   3.113   3.598   4.034  0.6883  2.6901 -2.5413
  181SLPC  C31420715   2.976   3.430   4.014  0.7410  0.6011 -0.1126
  181SLPC  H14X20716   3.015   3.367   4.097 -0.9253 -1.9168 -1.1342
  181SLPC  H14Y20717   2.945   3.354   3.940 -1.5113 -0.5172  1.8182
  181SLPC  C31520718   2.856   3.510   4.054 -0.7997  0.5830  0.4065
  181SLPC  H15X20719   2.820   3.572   3.969  2.4744  0.1354 -1.5018
  181SLPC  H15Y20720   2.893   3.584   4.128  1.3666  0.9346 -0.9206
  181SLPC  C31620721   2.748   3.428   4.120  0.1032  0.4180 -0.2094
  181SLPC  H16X20722   2.714   3.362   4.037  0.4661  0.8848 -0.7323
  181SLPC  H16Y20723   2.666   3.501   4.136 -1.5356 -1.7100  1.7679
  181SLPC  C31720724   2.788   3.354   4.242 -0.2759 -0.0828  0.0889
  181SLPC  H17X20725   2.830   3.418   4.322  0.2699 -1.7572  1.1906
  181SLPC  H17Y20726   2.878   3.293   4.218  1.1418  2.0068 -0.2504
  181SLPC  C31820727   2.684   3.269   4.315 -0.4473  0.2706 -0.5165
  181SLPC  H18X20728   2.629   3.325   4.393 -0.4338  1.3364 -1.2535
  181SLPC  H18Y20729   2.727   3.176   4.357  0.2271  0.0808 -1.5914
  181SLPC  H18Z20730   2.618   3.238   4.231 -3.1870  0.0392  1.5855
  182SLPC     N20731   4.102   2.561   1.855 -0.4335  0.0311  0.2424
  182SLPC   C1320732   4.213   2.461   1.870 -0.0512  0.3093  0.5254
  182SLPC  H13A20733   4.197   2.374   1.931  1.6125 -0.5630 -0.1932
  182SLPC  H13B20734   4.256   2.437   1.774  0.1932  2.8026 -0.0594
  182SLPC  H13C20735   4.300   2.508   1.914  0.9822 -0.9039 -0.1338
  182SLPC   C1420736   3.990   2.496   1.777  0.0678 -0.3756 -0.1110
  182SLPC  H14A20737   4.016   2.460   1.678 -1.0799 -0.6715 -0.3207
  182SLPC  H14B20738   3.947   2.409   1.824  0.4607 -0.7582 -0.4499
  182SLPC  H14C20739   3.913   2.568   1.758 -0.3139 -0.4549  1.0574
  182SLPC   C1520740   4.158   2.683   1.776  0.2356 -0.2036  0.5460
  182SLPC  H15A20741   4.084   2.760   1.767  0.3521 -0.1861 -0.3734
  182SLPC  H15B20742   4.235   2.730   1.837 -1.9109  3.2481  0.8346
  182SLPC  H15C20743   4.204   2.661   1.681  3.3318  0.1123  1.8214
  182SLPC   C1220744   4.057   2.610   1.990 -0.1845 -0.0402 -0.0055
  182SLPC  H12A20745   4.039   2.513   2.034  0.5639 -0.4703 -0.6165
  182SLPC  H12B20746   3.964   2.664   1.986  0.1429  0.4633 -1.4046
  182SLPC   C1120747   4.151   2.674   2.096 -0.0384 -0.5362 -0.6135
  182SLPC  H11A20748   4.091   2.644   2.184  0.2393  1.8497  0.4640
  182SLPC  H11B20749   4.160   2.783   2.079  2.9439 -0.7080 -0.6751
  182SLPC     P20750   4.346   2.538   2.219  0.3238 -0.0321  0.3075
  182SLPC   O1320751   4.296   2.404   2.209 -0.3722  0.2512  0.3505
  182SLPC   O1420752   4.495   2.551   2.227  0.8879  0.1987 -0.0980
  182SLPC   O1220753   4.282   2.629   2.107 -0.5399 -0.3709  0.3586
  182SLPC   O1120754   4.289   2.611   2.346  0.0346  0.7753 -0.0289
  182SLPC    C120755   4.302   2.754   2.367  0.5244  0.6220 -0.1640
  182SLPC    HA20756   4.355   2.803   2.282  0.1110 -0.5860 -1.1354
  182SLPC    HB20757   4.199   2.797   2.367  0.6632  1.1471 -2.9571
  182SLPC    C220758   4.389   2.795   2.483  0.4745 -0.2228 -0.6189
  182SLPC    HS20759   4.496   2.789   2.455  0.6809 -3.6995  0.4464
  182SLPC   O2120760   4.369   2.700   2.584  0.0468 -0.3477  0.2527
  182SLPC   C2120761   4.461   2.691   2.684 -0.3273 -0.2752 -0.6476
  182SLPC   O2220762   4.574   2.745   2.670  0.1394  0.4549 -0.2912
  182SLPC   C2220763   4.400   2.623   2.804  0.2243  0.7003  0.3784
  182SLPC   H2R20764   4.313   2.682   2.841 -1.1147 -1.5553  1.0275
  182SLPC   H2S20765   4.383   2.515   2.783 -0.0715  1.0984 -1.6244
  182SLPC    C320766   4.359   2.940   2.523 -0.1912 -0.1834 -0.3566
  182SLPC    HX20767   4.267   2.930   2.584  0.0272  1.9754  0.4195
  182SLPC    HY20768   4.342   2.999   2.430 -1.1052 -0.3630 -0.3115
  182SLPC   O3120769   4.464   2.980   2.610 -0.2091 -0.1151 -0.2474
  182SLPC   C3120770   4.493   3.110   2.621  0.0902  0.0704  0.0360
  182SLPC   O3220771   4.438   3.200   2.561 -0.1052 -0.2401  0.2017
  182SLPC   C3220772   4.616   3.134   2.709  0.1086  0.6619  0.2027
  182SLPC   H2X20773   4.685   3.196   2.649  0.2460  0.1279 -0.1958
  182SLPC   H2Y20774   4.656   3.037   2.745 -0.9508  0.8742  2.1290
  182SLPC   C2320775   4.503   2.614   2.916  0.6371 -0.5405 -0.1957
  182SLPC   H3R20776   4.526   2.717   2.953  0.5379 -0.1378 -1.2209
  182SLPC   H3S20777   4.595   2.565   2.877 -0.1285 -1.0118 -1.4401
  182SLPC   C2420778   4.448   2.541   3.044 -1.4094  0.4278  0.1990
  182SLPC   H4R20779   4.397   2.444   3.024 -2.8624  1.1317  0.3640
  182SLPC   H4S20780   4.360   2.596   3.084 -4.3827 -3.1040 -0.8937
  182SLPC   C2520781   4.554   2.543   3.147  0.0069  0.2823  0.6866
  182SLPC   H5R20782   4.607   2.640   3.146 -3.1845  2.1657  0.6840
  182SLPC   H5S20783   4.633   2.468   3.126  0.2674 -0.0292  2.6018
  182SLPC   C2620784   4.498   2.503   3.284 -0.0725 -0.0065  0.5486
  182SLPC   H6R20785   4.459   2.399   3.271 -0.7253  0.4860 -1.9706
  182SLPC   H6S20786   4.414   2.566   3.319 -2.2313 -2.4396  0.0836
  182SLPC   C2720787   4.600   2.476   3.391 -0.3044  0.2685  0.1153
  182SLPC   H7R20788   4.656   2.387   3.355 -0.7840 -0.4624  1.1257
  182SLPC   H7S20789   4.543   2.450   3.482 -0.1407 -0.3062  0.0525
  182SLPC   C2820790   4.690   2.596   3.423  0.1320 -0.2821 -0.6810
  182SLPC   H8R20791   4.634   2.681   3.466 -0.4580 -1.3410  0.7272
  182SLPC   H8S20792   4.724   2.641   3.328 -1.0912  2.3483  0.0308
  182SLPC   C2920793   4.808   2.543   3.501  0.1200 -0.3249 -0.2339
  182SLPC   H9R20794   4.894   2.496   3.449  2.3839  1.4797  1.6635
  182SLPC  C21020795   4.822   2.549   3.635  0.3967  0.0183 -0.0381
  182SLPC  H10R20796   4.902   2.495   3.687 -2.3998 -3.7304  0.8282
  182SLPC  C21120797   4.713   2.602   3.730  0.4157  0.7232 -0.5155
  182SLPC  H11R20798   4.637   2.525   3.756 -0.1123  2.2665  3.0129
  182SLPC  H11S20799   4.650   2.681   3.685 -0.3115 -0.1724 -1.1091
  182SLPC  C21220800   4.770   2.664   3.849  0.3166 -0.4745  0.4011
  182SLPC  H12R20801   4.836   2.750   3.832  0.7052 -1.0215 -0.9448
  182SLPC  C21320802   4.740   2.637   3.977 -0.7670  0.0635 -0.3208
  182SLPC  H13R20803   4.784   2.695   4.060  1.2440 -2.2570  0.3471
  182SLPC  C21420804   4.649   2.522   4.016  0.2056 -0.3807  0.3765
  182SLPC  H14R20805   4.704   2.432   3.980  1.4850  1.1492 -1.7620
  182SLPC  H14S20806   4.552   2.548   3.970  1.6333  3.6793 -0.7450
  182SLPC  C21520807   4.644   2.511   4.169  0.2006  0.3307  0.1023
  182SLPC  H15R20808   4.582   2.428   4.206 -1.4760  0.2984 -2.5210
  182SLPC  H15S20809   4.609   2.607   4.213  0.7845  0.3432  0.5517
  182SLPC  C21620810   4.780   2.482   4.238 -0.1369 -0.6373 -0.2759
  182SLPC  H16R20811   4.815   2.578   4.283  0.8793 -0.2378 -1.8516
  182SLPC  H16S20812   4.854   2.458   4.159  0.7564 -3.0366  1.1893
  182SLPC  C21720813   4.774   2.371   4.353  0.3466  0.2683 -0.9949
  182SLPC  H17R20814   4.718   2.280   4.320 -0.8756  0.4808  0.3401
  182SLPC  H17S20815   4.718   2.425   4.433  0.3324  1.0296 -1.5185
  182SLPC  C21820816   4.911   2.335   4.415  0.0886  0.0165  0.1100
  182SLPC  H18R20817   4.888   2.289   4.513 -0.3078  1.4623  0.7250
  182SLPC  H18S20818   4.964   2.430   4.438 -0.0713  0.1940 -0.2466
  182SLPC  H18T20819   4.980   2.267   4.360 -0.0987 -1.8479  2.0560
  182SLPC   C3320820   4.569   3.206   2.839  0.2452 -0.2538  0.0958
  182SLPC   H3X20821   4.519   3.302   2.819 -1.8043 -1.0789  1.0034
  182SLPC   H3Y20822   4.668   3.243   2.875  0.6188 -1.6115  0.5533
  182SLPC   C3420823   4.497   3.123   2.952 -0.1939 -0.6781  0.4536
  182SLPC   H4X20824   4.408   3.080   2.902  0.4378 -1.0242 -0.4115
  182SLPC   H4Y20825   4.472   3.196   3.031 -4.2905  0.7061 -1.8453
  182SLPC   C3520826   4.587   3.011   3.000 -0.0157  0.0271 -0.2185
  182SLPC   H5X20827   4.688   3.056   3.014 -0.6385  0.9912  1.4798
  182SLPC   H5Y20828   4.600   2.937   2.918 -2.7082 -0.3895 -0.3646
  182SLPC   C3620829   4.536   2.938   3.129  0.5651 -0.4199  0.6324
  182SLPC   H6X20830   4.598   2.847   3.139 -1.2857 -1.6170  1.7229
  182SLPC   H6Y20831   4.432   2.907   3.107 -0.0513  2.2404 -0.5744
  182SLPC   C3720832   4.516   3.024   3.250  0.7512 -0.7079  0.5143
  182SLPC   H7X20833   4.425   3.086   3.237  1.5592  0.8382  1.8357
  182SLPC   H7Y20834   4.607   3.088   3.253 -0.7137  1.4361  1.0009
  182SLPC   C3820835   4.504   2.934   3.376  0.3967 -0.1505  0.1277
  182SLPC   H8X20836   4.596   2.874   3.391 -0.9119 -2.2945  0.0281
  182SLPC   H8Y20837   4.418   2.867   3.354  0.8368 -0.5830 -0.2973
  182SLPC   C3920838   4.487   3.012   3.507 -0.3945  0.0444 -0.1184
  182SLPC   H9X20839   4.391   3.067   3.501 -0.0122  0.5719 -1.9534
  182SLPC   H9Y20840   4.570   3.085   3.508 -0.1520 -0.0722 -3.1348
  182SLPC  C31020841   4.474   2.932   3.633  0.2271  0.2120 -0.4359
  182SLPC  H10X20842   4.564   2.870   3.653 -0.0667 -0.1725 -0.3048
  182SLPC  H10Y20843   4.386   2.868   3.611 -1.9464  3.2046 -1.1491
  182SLPC  C31120844   4.443   3.018   3.760  0.2478  0.2363 -0.0091
  182SLPC  H11X20845   4.363   3.093   3.743  0.5153  0.5440  0.0653
  182SLPC  H11Y20846   4.541   3.061   3.792  2.3008 -3.7151 -0.4256
  182SLPC  C31220847   4.399   2.932   3.883 -0.6216 -0.4948 -0.0981
  182SLPC  H12X20848   4.479   2.857   3.903 -0.0663 -0.4371 -1.9343
  182SLPC  H12Y20849   4.314   2.870   3.846 -2.1238  0.3216  1.8002
  182SLPC  C31320850   4.367   3.013   4.006 -0.4615  0.9294 -0.4674
  182SLPC  H13X20851   4.300   3.094   3.970  0.4109  1.8946  0.0534
  182SLPC  H13Y20852   4.460   3.064   4.036  0.3173  0.1066 -1.3982
  182SLPC  C31420853   4.312   2.935   4.125  0.2204 -0.2243  0.0830
  182SLPC  H14X20854   4.233   2.867   4.087 -0.0505  0.0006  0.2390
  182SLPC  H14Y20855   4.262   3.009   4.192  1.9253  1.5522 -0.4898
  182SLPC  C31520856   4.410   2.856   4.197 -0.3083  0.5753 -0.5218
  182SLPC  H15X20857   4.495   2.907   4.246 -0.7917 -1.6536  2.9988
  182SLPC  H15Y20858   4.471   2.788   4.134 -1.0905  0.2586 -0.9633
  182SLPC  C31620859   4.343   2.805   4.326 -0.8981  0.2811 -0.7023
  182SLPC  H16X20860   4.240   2.771   4.305 -0.6035 -3.3063  2.5049
  182SLPC  H16Y20861   4.335   2.892   4.396 -0.2278  0.8603 -1.3316
  182SLPC  C31720862   4.421   2.701   4.398  0.5544 -0.6848  0.9240
  182SLPC  H17X20863   4.529   2.723   4.407  0.9445 -1.2597 -1.5041
  182SLPC  H17Y20864   4.409   2.617   4.326 -2.8446  2.2573 -2.3639
  182SLPC  C31820865   4.357   2.672   4.529 -0.1513  0.8445  0.2371
  182SLPC  H18X20866   4.253   2.635   4.521  0.5635 -1.1835 -0.6084
  182SLPC  H18Y20867   4.368   2.747   4.610  0.3308 -1.3764  2.3740
  182SLPC  H18Z20868   4.408   2.582   4.572 -1.6158  0.3390  0.9583
  183SLPC     N20869   1.589   6.844   2.022  0.3273  0.4459  0.3059
  183SLPC   C1320870   1.615   6.779   2.156 -0.1321 -0.2880 -0.2567
  183SLPC  H13A20871   1.676   6.690   2.142  2.5826  1.5272 -0.8746
  183SLPC  H13B20872   1.669   6.855   2.211 -2.8960  1.6160 -0.0267
  183SLPC  H13C20873   1.523   6.758   2.208  0.2353  0.3887  0.7015
  183SLPC   C1420874   1.540   6.731   1.938  0.1770  0.0835 -0.3581
  183SLPC  H14A20875   1.461   6.674   1.983  1.7915 -1.7847  0.2465
  183SLPC  H14B20876   1.508   6.759   1.839 -1.5110  1.3714  0.4988
  183SLPC  H14C20877   1.616   6.656   1.923 -1.4775 -1.7687  0.2084
  183SLPC   C1520878   1.720   6.888   1.957  0.1276  0.1133  0.1424
  183SLPC  H15A20879   1.801   6.820   1.978  3.6519  4.1303  0.7314
  183SLPC  H15B20880   1.728   6.909   1.851 -1.9657  1.2760  0.1550
  183SLPC  H15C20881   1.755   6.975   2.009  0.9943  0.4704 -1.0000
  183SLPC   C1220882   1.483   6.952   2.013 -0.3970  0.1260  0.7518
  183SLPC  H12A20883   1.388   6.902   2.026  0.5202 -2.3223 -1.1916
  183SLPC  H12B20884   1.475   6.990   1.912  2.1081 -0.9626  0.0659
  183SLPC   C1120885   1.489   7.076   2.095 -0.1042  0.2332  0.1663
  183SLPC  H11A20886   1.503   7.042   2.200  1.3580 -0.9503 -0.3641
  183SLPC  H11B20887   1.389   7.123   2.095 -0.4064 -0.3813  1.1351
  183SLPC     P20888   1.558   7.262   1.922 -0.1804 -0.2536 -0.1743
  183SLPC   O1320889   1.678   7.335   1.885  0.3112  0.2961  0.3310
  183SLPC   O1420890   1.494   7.167   1.825  0.1731  0.0753  0.6082
  183SLPC   O1220891   1.592   7.174   2.051  0.6704 -0.0386  0.1155
  183SLPC   O1120892   1.454   7.369   1.972 -0.3220  0.0915 -0.8199
  183SLPC    C120893   1.485   7.483   2.058 -0.3372 -0.3114 -0.0397
  183SLPC    HA20894   1.542   7.560   2.001  1.7064 -1.4271  0.3760
  183SLPC    HB20895   1.387   7.529   2.080 -0.3297 -0.0348 -0.5708
  183SLPC    C220896   1.547   7.462   2.198  0.2592 -0.6371  0.7584
  183SLPC    HS20897   1.655   7.438   2.183  0.1318 -3.0556  2.8863
  183SLPC   O2120898   1.481   7.364   2.275 -0.4478  0.6864  0.4930
  183SLPC   C2120899   1.564   7.307   2.365  0.2993 -0.3099  0.0905
  183SLPC   O2220900   1.683   7.327   2.372  0.5136  0.3538 -0.1158
  183SLPC   C2220901   1.489   7.200   2.448  0.6600 -0.2455 -0.5738
  183SLPC   H2R20902   1.424   7.257   2.517  1.1281  2.3709 -2.1904
  183SLPC   H2S20903   1.415   7.149   2.382 -0.0725  2.6104 -2.0927
  183SLPC    C320904   1.540   7.597   2.277  0.0701 -0.1127 -0.2466
  183SLPC    HX20905   1.436   7.634   2.288  0.1843  0.5081 -1.1084
  183SLPC    HY20906   1.589   7.671   2.210  1.5520 -2.0921 -1.4732
  183SLPC   O3120907   1.610   7.586   2.402 -0.2067 -0.6300 -1.1745
  183SLPC   C3120908   1.738   7.634   2.409  0.1545  0.8306 -0.5668
  183SLPC   O3220909   1.803   7.668   2.315  0.3574 -0.1749 -0.0694
  183SLPC   C3220910   1.785   7.622   2.552 -0.0248 -0.0833  0.1166
  183SLPC   H2X20911   1.789   7.515   2.580 -2.5569 -0.6193 -1.3139
  183SLPC   H2Y20912   1.728   7.684   2.625  2.0715  0.4577  1.3948
  183SLPC   C2320913   1.579   7.106   2.531  0.2936  0.2630  0.2454
  183SLPC   H3R20914   1.658   7.060   2.468 -0.5398  0.2767 -0.8321
  183SLPC   H3S20915   1.507   7.028   2.564 -1.3231  0.1649 -3.1327
  183SLPC   C2420916   1.644   7.177   2.644 -0.2795 -1.3245 -0.4985
  183SLPC   H4R20917   1.697   7.267   2.606 -0.0185 -0.9428  0.7066
  183SLPC   H4S20918   1.724   7.116   2.693  0.1332  1.0573  2.0181
  183SLPC   C2520919   1.549   7.217   2.760  0.2961 -0.2177  0.0052
  183SLPC   H5R20920   1.456   7.260   2.717  0.3480  0.0651  0.1749
  183SLPC   H5S20921   1.598   7.303   2.810  0.9939 -1.5170  1.6478
  183SLPC   C2620922   1.535   7.103   2.857  0.4567 -0.2417  0.2621
  183SLPC   H6R20923   1.637   7.061   2.859  1.3201  1.7620  0.5692
  183SLPC   H6S20924   1.461   7.025   2.827 -1.1765  2.0966 -2.3885
  183SLPC   C2720925   1.496   7.165   2.986  0.0822  0.2003 -0.6049
  183SLPC   H7R20926   1.401   7.222   2.978  0.5611  1.2572  0.8131
  183SLPC   H7S20927   1.565   7.243   3.025 -1.2691  1.3390 -0.3840
  183SLPC   C2820928   1.478   7.059   3.101  0.3238 -0.5745 -0.2950
  183SLPC   H8R20929   1.491   6.955   3.063  1.9007 -0.3414 -0.4472
  183SLPC   H8S20930   1.372   7.068   3.134  0.5277  0.5826  0.1020
  183SLPC   C2920931   1.565   7.082   3.223  0.2762  0.3627  0.1288
  183SLPC   H9R20932   1.673   7.083   3.206  0.2332 -2.0800 -0.6225
  183SLPC  C21020933   1.533   7.096   3.353 -0.3726 -0.3291  0.0607
  183SLPC  H10R20934   1.604   7.101   3.437 -1.3758 -0.2929  0.9196
  183SLPC  C21120935   1.387   7.097   3.400 -0.2994 -0.0331 -0.0116
  183SLPC  H11R20936   1.392   7.067   3.507 -1.0673 -1.4499 -0.3466
  183SLPC  H11S20937   1.327   7.020   3.347 -0.4025 -0.6525  0.9872
  183SLPC  C21220938   1.325   7.232   3.370  0.1701 -1.1894 -0.4688
  183SLPC  H12R20939   1.340   7.258   3.265  0.6084  2.8260  0.4379
  183SLPC  C21320940   1.249   7.308   3.452  0.2579  0.4157  0.5028
  183SLPC  H13R20941   1.230   7.414   3.428 -0.3214  0.1853 -0.0786
  183SLPC  C21420942   1.210   7.284   3.592 -0.1139  0.6832  0.2201
  183SLPC  H14R20943   1.232   7.177   3.616  1.9560  1.4079  1.8225
  183SLPC  H14S20944   1.100   7.294   3.609 -0.0899  0.3686  0.5865
  183SLPC  C21520945   1.287   7.381   3.680 -1.2398 -0.7231 -0.5939
  183SLPC  H15R20946   1.235   7.480   3.686  1.3897  0.8070 -1.3722
  183SLPC  H15S20947   1.393   7.383   3.648 -0.4383 -0.2418  1.8475
  183SLPC  C21620948   1.311   7.333   3.830  0.5439 -1.1587  0.2676
  183SLPC  H16R20949   1.395   7.391   3.874  1.4496 -1.3051 -1.2195
  183SLPC  H16S20950   1.348   7.229   3.817 -1.2290 -1.5350 -2.7348
  183SLPC  C21720951   1.177   7.347   3.911 -0.0883 -0.0405 -0.6701
  183SLPC  H17R20952   1.109   7.305   3.834 -1.5994  2.5053 -0.8118
  183SLPC  H17S20953   1.166   7.455   3.932  0.4837  0.4143 -2.5176
  183SLPC  C21820954   1.181   7.256   4.036 -0.1404 -0.0656 -0.3317
  183SLPC  H18R20955   1.241   7.163   4.026 -3.0439 -2.0078 -1.0745
  183SLPC  H18S20956   1.080   7.217   4.065  0.0641 -0.9238 -0.7434
  183SLPC  H18T20957   1.230   7.307   4.122  2.2796 -1.5226 -0.7658
  183SLPC   C3320958   1.925   7.672   2.568 -0.0649  0.1417  0.1907
  183SLPC   H3X20959   1.935   7.782   2.564  2.3384 -0.0322 -0.5908
  183SLPC   H3Y20960   1.986   7.630   2.485 -0.9338 -1.1720  0.1890
  183SLPC   C3420961   1.998   7.634   2.696 -0.3837 -0.0967 -0.0704
  183SLPC   H4X20962   2.034   7.531   2.675 -0.0310  0.3250 -1.6194
  183SLPC   H4Y20963   1.926   7.635   2.781 -0.0385  2.3146  0.2796
  183SLPC   C3520964   2.122   7.723   2.730 -0.0145 -0.2959 -0.6619
  183SLPC   H5X20965   2.178   7.725   2.634  0.7968 -3.4474 -0.3637
  183SLPC   H5Y20966   2.175   7.663   2.807 -0.7495 -0.3656 -0.1952
  183SLPC   C3620967   2.095   7.870   2.782  0.1539 -0.8682 -0.0405
  183SLPC   H6X20968   2.064   7.926   2.691 -0.1649 -1.4061 -0.2713
  183SLPC   H6Y20969   2.191   7.913   2.818  0.1960 -1.5050  0.6350
  183SLPC   C3720970   1.991   7.885   2.892 -0.1052 -0.2543  0.4087
  183SLPC   H7X20971   1.896   7.842   2.854  2.3393 -4.6171 -1.5449
  183SLPC   H7Y20972   2.004   7.994   2.913  3.6982 -0.4681 -0.0160
  183SLPC   C3820973   2.024   7.805   3.023 -0.4981  0.0562 -0.2190
  183SLPC   H8X20974   2.133   7.811   3.047 -0.4215  2.1243 -0.8545
  183SLPC   H8Y20975   2.006   7.697   3.007 -0.2224  0.2200 -1.7177
  183SLPC   C3920976   1.949   7.866   3.148  0.4814  0.4586  0.7977
  183SLPC   H9X20977   1.841   7.851   3.130  0.9778 -1.9969 -0.7960
  183SLPC   H9Y20978   1.964   7.976   3.151 -1.9547  0.8313  1.6773
  183SLPC  C31020979   1.984   7.795   3.279  0.3755 -0.6013  0.4222
  183SLPC  H10X20980   2.091   7.817   3.299  0.1862  0.7323  0.0638
  183SLPC  H10Y20981   1.963   7.686   3.271  1.8284 -0.8857  0.1598
  183SLPC  C31120982   1.909   7.843   3.408 -1.0837 -0.0814 -0.3371
  183SLPC  H11X20983   1.960   7.789   3.491  0.4548  1.7387 -0.0319
  183SLPC  H11Y20984   1.800   7.821   3.410 -1.3520  1.2666  1.5169
  183SLPC  C31220985   1.930   8.004   3.420 -0.1729  0.2272  0.0681
  183SLPC  H12X20986   1.870   8.065   3.349  0.3807  1.2408  0.4501
  183SLPC  H12Y20987   2.036   8.009   3.387 -0.6179 -0.6379 -1.5956
  183SLPC  C31320988   1.906   8.051   3.572 -0.1924 -0.2277  1.0786
  183SLPC  H13X20989   1.797   8.041   3.592 -0.5604  1.1704 -0.0573
  183SLPC  H13Y20990   1.931   8.159   3.568 -0.4710 -0.1654  1.0381
  183SLPC  C31420991   1.999   7.993   3.679  0.4205  0.7204  0.2445
  183SLPC  H14X20992   2.103   8.016   3.647  2.0181 -4.6128  0.6054
  183SLPC  H14Y20993   1.986   7.882   3.681  0.0946  0.7023 -1.4720
  183SLPC  C31520994   1.961   8.063   3.809 -0.0698 -0.4748 -0.6356
  183SLPC  H15X20995   1.948   8.171   3.789  0.6868 -0.1751  0.3709
  183SLPC  H15Y20996   2.054   8.057   3.871 -0.5456  1.9753  0.4659
  183SLPC  C31620997   1.840   8.011   3.880  0.4212  0.1746  0.1634
  183SLPC  H16X20998   1.835   7.900   3.881 -2.9029  0.2277  1.6463
  183SLPC  H16Y20999   1.742   8.044   3.840 -0.1169  1.2941  2.2645
  183SLPC  C31721000   1.846   8.058   4.026 -0.7950 -0.8098  0.0315
  183SLPC  H17X21001   1.841   8.169   4.027  0.8995 -0.7053  0.9772
  183SLPC  H17Y21002   1.948   8.029   4.059  0.1071  1.2180 -0.7754
  183SLPC  C31821003   1.727   8.003   4.113 -0.0324  0.1591  0.1641
  183SLPC  H18X21004   1.751   7.902   4.152  1.4235  0.1203 -0.7406
  183SLPC  H18Y21005   1.646   7.986   4.039  0.3304 -0.7720 -0.0244
  183SLPC  H18Z21006   1.699   8.082   4.186  0.6422  1.3025 -0.7724
  184SLPC     N21007   0.397   6.887   2.115 -0.1627 -0.5328 -0.1768
  184SLPC   C1321008   0.256   6.859   2.063 -0.4753  0.3287 -0.3347
  184SLPC  H13A21009   0.260   6.790   1.980  0.1326 -1.6698  1.2812
  184SLPC  H13B21010   0.197   6.805   2.136 -1.8247  0.8778 -0.9672
  184SLPC  H13C21011   0.202   6.950   2.041  1.1937  1.4677  0.1423
  184SLPC   C1421012   0.477   6.767   2.143  0.0799  0.6057 -0.0512
  184SLPC  H14A21013   0.422   6.687   2.190  1.2284 -1.3759 -1.9412
  184SLPC  H14B21014   0.519   6.732   2.050  0.4095  1.4617 -0.2308
  184SLPC  H14C21015   0.557   6.781   2.214 -0.2766  0.3167  0.4148
  184SLPC   C1521016   0.376   6.971   2.246 -0.1156  0.0509 -0.0101
  184SLPC  H15A21017   0.464   7.008   2.297 -0.9801  0.2985  1.3576
  184SLPC  H15B21018   0.314   7.055   2.220  0.4612  0.4743 -0.0459
  184SLPC  H15C21019   0.325   6.907   2.317  0.0335  1.3673  1.3432
  184SLPC   C1221020   0.468   6.979   2.017  0.6321  0.3093  0.0901
  184SLPC  H12A21021   0.428   7.078   2.030 -1.5003 -0.2140 -1.7796
  184SLPC  H12B21022   0.451   6.946   1.915 -0.6118  2.4594 -0.4561
  184SLPC   C1121023   0.624   6.999   2.034 -0.2996 -0.5602 -0.3382
  184SLPC  H11A21024   0.670   6.900   2.015  1.6099  0.5461 -1.8210
  184SLPC  H11B21025   0.628   7.037   2.139 -1.1028 -0.6330 -0.2695
  184SLPC     P21026   0.818   7.161   1.953  0.1698 -0.3226 -0.2084
  184SLPC   O1321027   0.913   7.049   1.973 -0.7345 -0.2333 -0.4824
  184SLPC   O1421028   0.846   7.256   1.843  0.4528 -0.1076  0.3568
  184SLPC   O1221029   0.668   7.103   1.949  0.8906  0.2593  0.1037
  184SLPC   O1121030   0.820   7.249   2.084  0.3631 -0.2442  0.1595
  184SLPC    C121031   0.786   7.384   2.085  0.3786  0.4137 -0.1455
  184SLPC    HA21032   0.727   7.413   1.996  0.9721  0.6300 -0.4722
  184SLPC    HB21033   0.708   7.401   2.162 -0.1165  0.8788 -0.7413
  184SLPC    C221034   0.898   7.485   2.113 -0.0519 -0.4934 -0.0350
  184SLPC    HS21035   0.967   7.470   2.026 -1.5328  0.6495 -1.4804
  184SLPC   O2121036   0.948   7.458   2.241  0.6208  0.5654  0.0265
  184SLPC   C2121037   1.056   7.514   2.275 -0.4106  0.1679  0.6073
  184SLPC   O2221038   1.131   7.577   2.201  0.3563 -0.3327  0.3073
  184SLPC   C2221039   1.082   7.485   2.423  0.6237 -0.7734 -0.1511
  184SLPC   H2R21040   1.007   7.533   2.490  0.8197 -2.5817  1.4828
  184SLPC   H2S21041   1.076   7.374   2.436 -1.7665 -0.4704  2.3561
  184SLPC    C321042   0.846   7.635   2.087 -0.2977  0.1957 -0.6679
  184SLPC    HX21043   0.820   7.633   1.979 -0.4166 -3.3902 -0.6961
  184SLPC    HY21044   0.932   7.704   2.104 -1.5805  1.4976  0.7706
  184SLPC   O3121045   0.726   7.667   2.157  0.4513  0.0623 -0.3727
  184SLPC   C3121046   0.748   7.717   2.277  1.0260  0.6282  0.4407
  184SLPC   O3221047   0.853   7.738   2.328 -0.4427  0.6755  0.5591
  184SLPC   C3221048   0.617   7.727   2.356  0.8351  0.0970  0.6984
  184SLPC   H2X21049   0.549   7.647   2.321  0.5868  2.3104 -4.8938
  184SLPC   H2Y21050   0.573   7.824   2.325  2.0751 -0.3170 -2.9054
  184SLPC   C2321051   1.228   7.529   2.449 -0.4821  0.0162  0.5273
  184SLPC   H3R21052   1.239   7.637   2.425  2.8706 -0.2817  0.3094
  184SLPC   H3S21053   1.301   7.476   2.385 -2.7167  0.8752 -3.0364
  184SLPC   C2421054   1.262   7.505   2.598  0.2085 -0.1025 -0.1768
  184SLPC   H4R21055   1.274   7.399   2.630  1.7855  0.2956  0.6651
  184SLPC   H4S21056   1.184   7.560   2.656  0.2204  0.6505 -0.8609
  184SLPC   C2521057   1.386   7.569   2.646 -0.2934  0.2585  0.4551
  184SLPC   H5R21058   1.374   7.677   2.623  0.7291  0.9466  2.8682
  184SLPC   H5S21059   1.478   7.531   2.595 -1.3603 -0.2238 -1.1922
  184SLPC   C2621060   1.408   7.556   2.797  0.2349  0.1684 -0.0866
  184SLPC   H6R21061   1.426   7.449   2.823  1.5545  0.0918 -1.2026
  184SLPC   H6S21062   1.307   7.577   2.840 -0.0314  1.9487 -1.4692
  184SLPC   C2721063   1.523   7.650   2.846 -0.7095 -0.1149  0.5428
  184SLPC   H7R21064   1.496   7.749   2.803  2.1704  0.2652 -0.6674
  184SLPC   H7S21065   1.619   7.617   2.801 -1.1068  0.9561 -1.1959
  184SLPC   C2821066   1.546   7.668   2.993  0.5134  0.1575 -0.0599
  184SLPC   H8R21067   1.468   7.732   3.039  2.0269  1.7822  0.3379
  184SLPC   H8S21068   1.641   7.723   3.005  0.3222  0.7802 -1.2776
  184SLPC   C2921069   1.563   7.545   3.078  0.2862  0.1828  0.2333
  184SLPC   H9R21070   1.625   7.471   3.026  0.4224 -0.2297  0.9563
  184SLPC  C21021071   1.521   7.523   3.207 -0.6475 -0.4380 -0.4215
  184SLPC  H10R21072   1.541   7.421   3.245 -3.3535 -1.6051 -1.8475
  184SLPC  C21121073   1.430   7.598   3.300  0.6068  0.2553 -0.0847
  184SLPC  H11R21074   1.408   7.529   3.384 -1.0841 -0.3726 -0.9845
  184SLPC  H11S21075   1.333   7.598   3.246  1.0782 -0.7712 -0.9697
  184SLPC  C21221076   1.471   7.744   3.341 -0.4629  0.1867  1.1500
  184SLPC  H12R21077   1.450   7.818   3.263 -0.9255 -1.5653 -0.4521
  184SLPC  C21321078   1.478   7.793   3.469 -0.1643  0.4438 -0.1048
  184SLPC  H13R21079   1.517   7.895   3.488  2.4157 -1.0102  3.4925
  184SLPC  C21421080   1.474   7.721   3.602  0.0727  0.6857  0.0849
  184SLPC  H14R21081   1.572   7.727   3.654  1.0350 -1.3593 -1.3947
  184SLPC  H14S21082   1.452   7.613   3.586 -0.1087  0.7519 -0.1206
  184SLPC  C21521083   1.365   7.778   3.689 -0.1532 -0.3988 -0.1311
  184SLPC  H15R21084   1.355   7.722   3.784  2.2884 -2.5884 -1.0578
  184SLPC  H15S21085   1.271   7.778   3.629  1.0310 -2.7599 -2.2139
  184SLPC  C21621086   1.390   7.928   3.735  0.3637 -0.0557  0.2922
  184SLPC  H16R21087   1.376   7.995   3.647  4.4205 -0.2030 -0.6451
  184SLPC  H16S21088   1.497   7.937   3.762  0.1811  0.5233  0.8673
  184SLPC  C21721089   1.292   7.969   3.853 -0.1159  0.6643  0.3763
  184SLPC  H17R21090   1.325   8.063   3.903  1.1497  0.5169 -0.1337
  184SLPC  H17S21091   1.306   7.890   3.929 -0.1862  0.1187 -0.1777
  184SLPC  C21821092   1.147   7.969   3.817  0.6796  0.2761  0.5321
  184SLPC  H18R21093   1.089   7.996   3.907  1.9074 -2.0967  2.1645
  184SLPC  H18S21094   1.112   7.866   3.792  0.1000  0.4687  0.5394
  184SLPC  H18T21095   1.132   8.043   3.736 -2.0974 -0.1337  0.5779
  184SLPC   C3321096   0.639   7.738   2.510  0.5573  0.4591 -0.2435
  184SLPC   H3X21097   0.701   7.825   2.537 -0.5539  0.1737  3.8272
  184SLPC   H3Y21098   0.676   7.641   2.550 -3.2669  0.3048  3.5884
  184SLPC   C3421099   0.499   7.766   2.579 -0.3402  0.2515 -0.3937
  184SLPC   H4X21100   0.455   7.664   2.582 -0.6704  0.2441 -2.9798
  184SLPC   H4Y21101   0.428   7.834   2.526 -1.3608 -0.4438  0.0395
  184SLPC   C3521102   0.525   7.817   2.720 -0.2407 -0.1192  0.4177
  184SLPC   H5X21103   0.556   7.924   2.720  0.1459 -0.2062  1.6851
  184SLPC   H5Y21104   0.619   7.763   2.747 -1.0061 -1.9149 -0.3243
  184SLPC   C3621105   0.422   7.800   2.833  0.1010 -0.0564 -0.4276
  184SLPC   H6X21106   0.383   7.697   2.831 -1.1810  0.4084 -0.2233
  184SLPC   H6Y21107   0.348   7.875   2.798  2.6461  3.4599  1.0864
  184SLPC   C3721108   0.485   7.831   2.975 -0.1089  0.8211 -0.5654
  184SLPC   H7X21109   0.526   7.934   2.971  0.4764  0.6042 -0.1965
  184SLPC   H7Y21110   0.567   7.762   3.004 -0.9530  0.2969  0.6374
  184SLPC   C3821111   0.378   7.825   3.091  0.4002  0.1588 -0.7546
  184SLPC   H8X21112   0.332   7.724   3.078  2.3668 -0.5999 -2.3467
  184SLPC   H8Y21113   0.300   7.899   3.062 -1.5251 -1.2542  0.4946
  184SLPC   C3921114   0.433   7.840   3.230  0.7019  0.5420 -0.3569
  184SLPC   H9X21115   0.500   7.928   3.241  1.2846  0.1095 -0.3741
  184SLPC   H9Y21116   0.495   7.752   3.256 -1.4482 -0.1809  2.8936
  184SLPC  C31021117   0.324   7.839   3.343 -0.3158 -0.0662  0.7056
  184SLPC  H10X21118   0.263   7.932   3.336 -1.7205 -1.0040  0.0182
  184SLPC  H10Y21119   0.389   7.855   3.431  0.4110  0.1546  0.1326
  184SLPC  C31121120   0.238   7.711   3.358 -0.5260  0.6203  0.4107
  184SLPC  H11X21121   0.305   7.623   3.346 -0.2205  0.8401  0.4945
  184SLPC  H11Y21122   0.165   7.699   3.276  2.3023 -3.2862 -1.8825
  184SLPC  C31221123   0.166   7.693   3.493  0.1300 -0.3036 -0.6201
  184SLPC  H12X21124   0.243   7.664   3.568  0.0197 -2.4689 -1.2734
  184SLPC  H12Y21125   0.095   7.611   3.473 -0.0671 -0.1886 -0.3899
  184SLPC  C31321126   0.097   7.818   3.543  0.0726  0.2456  0.2778
  184SLPC  H13X21127   0.044   7.862   3.456  1.0162 -0.2007 -0.5418
  184SLPC  H13Y21128   0.171   7.895   3.574 -0.9790  2.4261 -2.2292
  184SLPC  C31421129   0.001   7.789   3.659  0.3673  0.1249 -0.5404
  184SLPC  H14X21130   0.061   7.731   3.733 -1.9982 -0.8216  0.7238
  184SLPC  H14Y21131  -0.081   7.724   3.624  1.5901 -2.3804  0.9611
  184SLPC  C31521132  -0.047   7.920   3.714 -0.3094  0.4500  0.9661
  184SLPC  H15X21133  -0.107   7.974   3.637 -1.2637 -0.2720  1.1872
  184SLPC  H15Y21134   0.038   7.990   3.733 -2.5176  3.0167  2.1568
  184SLPC  C31621135  -0.139   7.898   3.831  0.0449 -0.0020  0.1471
  184SLPC  H16X21136  -0.086   7.863   3.922 -1.4785  0.1699  1.1269
  184SLPC  H16Y21137  -0.216   7.822   3.805 -0.2063  0.4107 -0.3284
  184SLPC  C31721138  -0.226   8.022   3.867  0.0867  0.2148 -0.2678
  184SLPC  H17X21139  -0.299   8.029   3.784 -0.2956  1.1053  0.1364
  184SLPC  H17Y21140  -0.156   8.108   3.878  1.8473 -1.4684  3.5305
  184SLPC  C31821141  -0.297   8.005   4.000  0.2606 -0.1008  0.1037
  184SLPC  H18X21142  -0.221   7.985   4.079  0.5023 -1.3703 -0.4161
  184SLPC  H18Y21143  -0.375   7.926   3.992 -0.3109  0.4181  0.4111
  184SLPC  H18Z21144  -0.345   8.102   4.026  0.6892  0.6000 -1.6221
  185POPC     N21145   0.365   2.552   6.358  0.4836 -0.2732 -0.0851
  185POPC   C1221146   0.224   2.497   6.328  0.4719 -0.1813  0.2554
  185POPC  H12A21147   0.199   2.511   6.224  0.3853  0.3975  0.3515
  185POPC  H12B21148   0.152   2.555   6.384  1.7715  1.2509  0.4687
  185POPC   C1321149   0.409   2.506   6.489  0.7493 -0.1183  0.1725
  185POPC  H13A21150   0.490   2.568   6.525  2.0599 -1.3039 -0.6243
  185POPC  H13B21151   0.329   2.519   6.560  0.1163  1.1944 -0.7477
  185POPC  H13C21152   0.435   2.401   6.484  0.5259 -0.1550 -0.2930
  185POPC   C1421153   0.453   2.508   6.252 -1.0653  0.4069  0.4527
  185POPC  H14A21154   0.552   2.549   6.260  0.6408 -3.2680  0.3362
  185POPC  H14B21155   0.463   2.400   6.253 -2.2890  0.2441 -1.0515
  185POPC  H14C21156   0.414   2.538   6.156  0.8587  2.7540  0.3351
  185POPC   C1521157   0.359   2.703   6.365 -0.1646  0.4000  0.0817
  185POPC  H15A21158   0.309   2.737   6.454 -1.9480  2.9861 -1.7891
  185POPC  H15B21159   0.288   2.736   6.291 -2.3509 -4.0493 -0.1426
  185POPC  H15C21160   0.457   2.748   6.354 -0.4588  1.0613  0.1401
  185POPC   C1121161   0.183   2.350   6.346 -0.0653  0.7721  0.6727
  185POPC  H11A21162   0.072   2.343   6.338 -0.1046  1.7820  0.1273
  185POPC  H11B21163   0.222   2.320   6.445  1.1696 -2.8799 -0.7602
  185POPC     P21164   0.258   2.114   6.269  0.3745  0.2952  0.3360
  185POPC   O1321165   0.274   2.077   6.405  0.0140  0.2373 -0.1978
  185POPC   O1421166   0.362   2.060   6.179  0.1962  0.2485  0.5554
  185POPC   O1221167   0.257   2.266   6.246 -0.1418 -0.3519 -0.4480
  185POPC   O1121168   0.121   2.060   6.214  0.2901 -0.1210  0.5658
  185POPC    C121169   0.036   2.135   6.119 -0.5778  0.6825 -0.0493
  185POPC    HA21170   0.069   2.241   6.116 -0.0951  0.5184 -2.5351
  185POPC    HB21171  -0.065   2.133   6.164 -1.2831 -0.0653 -1.5881
  185POPC    C221172   0.026   2.074   5.983  0.2750 -0.3271 -0.4935
  185POPC    HS21173  -0.021   1.974   5.997 -0.6841  0.1236 -0.4132
  185POPC   O2121174   0.158   2.061   5.925 -0.4190 -0.0086  0.0604
  185POPC   C2121175   0.170   1.964   5.833 -0.5490 -0.0729  0.2473
  185POPC   O2221176   0.099   1.868   5.821  0.5689 -0.5592  0.4527
  185POPC   C2221177   0.286   1.987   5.738 -0.2034  0.9668  0.4515
  185POPC   H2R21178   0.381   1.952   5.784 -0.2334 -1.2389 -1.0035
  185POPC   H2S21179   0.299   2.094   5.710  0.5900  0.4342 -1.4101
  185POPC    C321180  -0.069   2.161   5.900 -0.5331  0.0520 -0.5330
  185POPC    HX21181  -0.056   2.267   5.929  0.7998 -0.1191 -0.4141
  185POPC    HY21182  -0.173   2.131   5.922  0.2125 -0.5899  2.6565
  185POPC   O3121183  -0.055   2.135   5.756 -0.3873 -0.2851  0.2150
  185POPC   C3121184  -0.137   2.200   5.684 -0.3858  0.0760  0.0230
  185POPC   O3221185  -0.224   2.276   5.731 -0.0393 -0.2235  0.4975
  185POPC   C3221186  -0.099   2.188   5.541 -0.0612  0.6843  0.9161
  185POPC   H2X21187  -0.009   2.126   5.525 -0.6418  0.1439 -0.4331
  185POPC   H2Y21188  -0.070   2.287   5.501 -2.2959  0.8701 -0.3909
  185POPC   C2321189   0.282   1.914   5.594  0.8384  0.7355 -0.6188
  185POPC   H3R21190   0.182   1.909   5.546  0.3654  1.2647  0.3001
  185POPC   H3S21191   0.313   1.808   5.611 -1.7181 -0.4056 -2.3869
  185POPC   C2421192   0.392   1.973   5.501  0.5738  0.1548 -0.0569
  185POPC   H4R21193   0.481   1.912   5.529  0.0473 -1.0311 -0.8944
  185POPC   H4S21194   0.400   2.082   5.520 -0.1440  0.2781 -0.4252
  185POPC   C2521195   0.367   1.936   5.349  0.1021  0.1533 -0.7190
  185POPC   H5R21196   0.324   1.833   5.352 -1.1964  0.6894  0.8901
  185POPC   H5S21197   0.468   1.944   5.304  1.6057  0.1855  2.4000
  185POPC   C2621198   0.259   2.028   5.281 -0.6515 -0.5017 -0.7203
  185POPC   H6R21199   0.310   2.127   5.270 -0.5182 -0.4765  0.0162
  185POPC   H6S21200   0.176   2.051   5.352  0.2794 -2.8150  1.2570
  185POPC   C2721201   0.197   1.977   5.149 -0.0390  0.0782 -0.0037
  185POPC   H7R21202   0.119   2.042   5.103 -1.1715 -0.8616  0.5369
  185POPC   H7S21203   0.140   1.884   5.169  0.1486 -0.3790 -1.4822
  185POPC   C2821204   0.294   1.951   5.031  0.1790 -0.4936 -0.5571
  185POPC   H8R21205   0.247   1.874   4.967 -0.9337 -1.0077  0.8175
  185POPC   H8S21206   0.381   1.897   5.075  0.3696 -0.4085 -0.8260
  185POPC   C2921207   0.346   2.079   4.968 -0.3204 -0.0760  0.3007
  185POPC   H9121208   0.411   2.141   5.032  1.3325  1.1152 -2.3559
  185POPC  C21021209   0.315   2.124   4.850 -0.1721  0.3839 -0.0370
  185POPC  H10121210   0.357   2.221   4.818 -1.8033  0.9146 -0.6323
  185POPC  C21121211   0.234   2.061   4.749  0.7726  0.1781 -0.1048
  185POPC  H11R21212   0.190   1.967   4.787  0.7433  0.9539  1.9097
  185POPC  H11S21213   0.305   2.028   4.671 -0.5832 -1.7878 -0.5931
  185POPC  C21221214   0.125   2.149   4.687 -0.1125 -0.7552  0.3551
  185POPC  H12R21215   0.167   2.250   4.669  1.1641 -1.0334  1.6186
  185POPC  H12S21216   0.045   2.168   4.762  1.2472 -2.3064  2.3013
  185POPC  C21321217   0.071   2.097   4.556  0.2639  0.2122  0.4979
  185POPC  H13R21218  -0.016   2.032   4.577 -0.4890  1.1500  0.3658
  185POPC  H13S21219   0.150   2.032   4.512 -1.0900  0.2208 -2.1485
  185POPC  C21421220   0.028   2.207   4.456  0.1983 -0.4489  0.4189
  185POPC  H14R21221   0.037   2.166   4.353  1.1352  1.9860 -0.5399
  185POPC  H14S21222   0.104   2.287   4.454  2.1956 -2.2393 -2.5657
  185POPC  C21521223  -0.119   2.260   4.479  0.0092  0.0984  0.1116
  185POPC  H15R21224  -0.124   2.313   4.577 -0.5570 -0.8261  0.6014
  185POPC  H15S21225  -0.183   2.172   4.502 -0.0787  0.3054  0.6888
  185POPC  C21621226  -0.184   2.322   4.356 -1.0219 -1.1522  0.1908
  185POPC  H16R21227  -0.272   2.383   4.387  0.4754 -0.1234  2.7533
  185POPC  H16S21228  -0.207   2.241   4.284  0.6801 -0.3124 -1.3783
  185POPC  C21721229  -0.079   2.415   4.283  0.5536 -0.4940  0.4424
  185POPC  H17R21230  -0.001   2.350   4.239 -0.6050 -1.4759 -0.2295
  185POPC  H17S21231  -0.033   2.480   4.360  1.0026  0.6756 -0.7817
  185POPC  C21821232  -0.131   2.505   4.165  0.3721 -0.1021 -0.4169
  185POPC  H18R21233  -0.226   2.556   4.191  0.6161  0.8717 -1.3850
  185POPC  H18S21234  -0.159   2.442   4.078  0.5950  2.0414 -2.1200
  185POPC  H18T21235  -0.052   2.577   4.135 -0.0764  0.4029 -0.3839
  185POPC   C3321236  -0.208   2.146   5.440  0.3319 -0.1042 -0.2227
  185POPC   H3X21237  -0.284   2.226   5.453  1.6028  1.5347 -2.2415
  185POPC   H3Y21238  -0.252   2.048   5.465 -2.0918  0.9161 -0.1809
  185POPC   C3421239  -0.166   2.168   5.295 -0.5305  0.5627  0.1603
  185POPC   H4X21240  -0.065   2.124   5.282 -1.1806 -0.5061 -1.7458
  185POPC   H4Y21241  -0.157   2.276   5.272  2.3765  0.3395 -0.0960
  185POPC   C3521242  -0.241   2.091   5.185 -0.0510  0.0277  0.5246
  185POPC   H5X21243  -0.237   1.984   5.213  0.2572 -0.2003 -0.3313
  185POPC   H5Y21244  -0.182   2.099   5.091  1.1478 -0.9327  1.1666
  185POPC   C3621245  -0.393   2.132   5.177 -0.0238  0.0066  1.0237
  185POPC   H6X21246  -0.401   2.242   5.166  1.3829  0.0880  0.5437
  185POPC   H6Y21247  -0.443   2.112   5.274 -1.5887  0.8845  0.4406
  185POPC   C3721248  -0.476   2.056   5.077 -0.2130  0.5979 -0.4523
  185POPC   H7X21249  -0.569   2.115   5.062 -0.6798 -0.9041 -5.8392
  185POPC   H7Y21250  -0.510   1.953   5.100 -0.9358  0.7554 -0.8063
  185POPC   C3821251  -0.427   2.050   4.934 -0.9670 -0.1585  0.4626
  185POPC   H8X21252  -0.343   1.981   4.910  1.0291  2.5987 -1.0678
  185POPC   H8Y21253  -0.386   2.152   4.917  0.7370 -0.7104  1.0534
  185POPC   C3921254  -0.531   2.023   4.826  0.6262  0.0947  0.5673
  185POPC   H9X21255  -0.605   2.107   4.830 -0.3818 -0.8335  2.9946
  185POPC   H9Y21256  -0.596   1.935   4.844 -3.2180  2.0789 -2.0283
  185POPC  C31021257  -0.481   2.014   4.681  0.7631 -0.6293 -0.0356
  185POPC  H10X21258  -0.411   1.930   4.664  2.5657  1.2188 -2.5040
  185POPC  H10Y21259  -0.426   2.103   4.643 -3.0641  0.8924 -2.6506
  185POPC  C31121260  -0.599   1.992   4.593 -0.9884  0.2601 -0.2115
  185POPC  H11X21261  -0.684   2.057   4.623  0.0358  0.6309  2.0691
  185POPC  H11Y21262  -0.630   1.887   4.613 -0.7858  0.2582  0.0908
  185POPC  C31221263  -0.565   1.994   4.447  0.3350  0.7461  0.2166
  185POPC  H12X21264  -0.636   1.921   4.401 -0.2728  2.5279 -1.8798
  185POPC  H12Y21265  -0.461   1.961   4.430  0.4231  1.8094 -1.5906
  185POPC  C31321266  -0.603   2.126   4.383 -0.6051 -0.0810  0.3062
  185POPC  H13X21267  -0.521   2.199   4.397 -0.2065 -0.4456 -0.0790
  185POPC  H13Y21268  -0.703   2.162   4.417 -0.3068  1.0813 -0.0324
  185POPC  C31421269  -0.627   2.109   4.239 -1.1667 -0.7980 -0.0214
  185POPC  H14X21270  -0.727   2.061   4.239 -1.3969 -0.3436 -0.7189
  185POPC  H14Y21271  -0.556   2.041   4.188 -0.7311 -1.1819  1.0761
  185POPC  C31521272  -0.628   2.240   4.162 -0.3416  0.0314  0.4254
  185POPC  H15X21273  -0.530   2.290   4.157 -0.0996 -0.3960  0.8347
  185POPC  H15Y21274  -0.708   2.298   4.213 -0.7361  0.0464 -0.1894
  185POPC  C31621275  -0.657   2.226   4.015  0.4364 -0.7835 -0.7088
  185POPC  H16X21276  -0.731   2.146   3.990  1.2405 -2.4763  1.8961
  185POPC  H16Y21277  -0.566   2.207   3.955  1.5453  0.5616  0.4930
  185POPC  H16Z21278  -0.704   2.323   3.989  0.8614 -0.3752  0.0330
  186POPC     N21279   3.238   0.871   6.348  0.1519 -0.0541 -0.3266
  186POPC   C1221280   3.226   0.992   6.264 -0.8544  0.2041  0.6228
  186POPC  H12A21281   3.140   1.053   6.287 -1.2725  0.3239 -1.1209
  186POPC  H12B21282   3.209   0.964   6.161  4.5645  0.1116 -0.5085
  186POPC   C1321283   3.123   0.787   6.304 -0.0980  0.3006 -0.0131
  186POPC  H13A21284   3.028   0.836   6.314 -0.4706 -0.5183  0.5920
  186POPC  H13B21285   3.125   0.764   6.199 -2.3328  1.6601 -0.4043
  186POPC  H13C21286   3.121   0.690   6.352 -1.1319  0.9331  1.2576
  186POPC   C1421287   3.365   0.794   6.313  0.4711 -0.0221  0.6868
  186POPC  H14A21288   3.379   0.791   6.206  2.5857  2.6800  0.7722
  186POPC  H14B21289   3.452   0.854   6.335  0.1441  1.6767 -2.0895
  186POPC  H14C21290   3.364   0.693   6.351  1.1819 -0.2877  0.0279
  186POPC   C1521291   3.239   0.903   6.492  0.2210  0.2460  0.1176
  186POPC  H15A21292   3.156   0.968   6.514  0.4806  0.2808  1.0177
  186POPC  H15B21293   3.331   0.952   6.522 -1.6939  3.8921  0.5924
  186POPC  H15C21294   3.238   0.814   6.553  1.6880  2.0626  3.0523
  186POPC   C1121295   3.348   1.082   6.258 -0.5219 -0.6326 -0.6020
  186POPC  H11A21296   3.339   1.148   6.169  0.1841  0.7538  0.3164
  186POPC  H11B21297   3.443   1.027   6.247 -2.1273 -3.9144  0.7393
  186POPC     P21298   3.270   1.282   6.410  0.0621 -0.1176 -0.1490
  186POPC   O1321299   3.317   1.343   6.537 -0.0879 -0.2161  0.0197
  186POPC   O1421300   3.126   1.244   6.415  0.5986  0.4603  0.0902
  186POPC   O1221301   3.363   1.158   6.377  0.5090  0.5637 -0.5064
  186POPC   O1121302   3.287   1.384   6.282 -0.4206 -0.0916 -1.1619
  186POPC    C121303   3.420   1.430   6.263  0.1313  0.7705 -0.0716
  186POPC    HA21304   3.478   1.342   6.230 -2.0887 -0.6144 -0.4794
  186POPC    HB21305   3.468   1.476   6.352  2.3474 -0.0490 -0.7821
  186POPC    C221306   3.430   1.525   6.141  0.2079 -0.7295  0.8344
  186POPC    HS21307   3.356   1.606   6.154 -0.2600 -0.6178 -1.9606
  186POPC   O2121308   3.385   1.443   6.026 -0.0931  0.0551  0.5580
  186POPC   C2121309   3.341   1.517   5.926 -0.2211 -1.5152 -0.0360
  186POPC   O2221310   3.353   1.643   5.927  0.3032  0.3188  0.2883
  186POPC   C2221311   3.307   1.428   5.805 -0.2839 -0.6779 -0.7446
  186POPC   H2R21312   3.317   1.320   5.829 -0.8776 -0.3203  1.2578
  186POPC   H2S21313   3.384   1.439   5.725 -0.0141 -0.4531 -0.4594
  186POPC    C321314   3.571   1.585   6.123  0.2118 -0.0338 -0.6491
  186POPC    HX21315   3.621   1.595   6.221 -1.8989 -0.5811  0.5582
  186POPC    HY21316   3.563   1.680   6.065  2.1815 -0.7996 -2.2872
  186POPC   O3121317   3.654   1.502   6.044  0.1551  0.0688 -0.3607
  186POPC   C3121318   3.771   1.565   6.007 -0.2238  0.6609  0.1082
  186POPC   O3221319   3.800   1.674   6.043 -0.1298  0.1176  0.1620
  186POPC   C3221320   3.856   1.471   5.917  0.5813 -0.7507  0.1897
  186POPC   H2X21321   3.924   1.409   5.981  0.8761 -1.2448 -0.5834
  186POPC   H2Y21322   3.914   1.534   5.847 -0.4197 -0.6617 -0.5756
  186POPC   C2321323   3.162   1.441   5.749 -0.0038  0.2594  0.0669
  186POPC   H3R21324   3.166   1.534   5.687 -0.1584  0.1273 -0.1405
  186POPC   H3S21325   3.086   1.452   5.829  1.4786  0.2786  1.5352
  186POPC   C2421326   3.118   1.317   5.673  0.1007  0.5880 -0.4923
  186POPC   H4R21327   3.011   1.303   5.644  0.6933 -3.0536 -1.3835
  186POPC   H4S21328   3.132   1.240   5.751  0.2290  3.2800  2.3427
  186POPC   C2521329   3.200   1.290   5.543 -0.1595 -0.4545  0.2792
  186POPC   H5R21330   3.288   1.235   5.583 -0.9069 -1.9423 -0.0974
  186POPC   H5S21331   3.233   1.386   5.498 -1.0496 -0.1591  0.2308
  186POPC   C2621332   3.111   1.211   5.448 -0.0468 -1.3814  0.1387
  186POPC   H6R21333   3.011   1.259   5.434  0.2109 -0.0475  2.3920
  186POPC   H6S21334   3.110   1.109   5.492  1.9193 -0.7571  1.8064
  186POPC   C2721335   3.153   1.219   5.303 -0.5435 -0.1958 -0.3306
  186POPC   H7R21336   3.255   1.175   5.308 -0.5981 -0.3742 -0.7463
  186POPC   H7S21337   3.158   1.322   5.263 -0.8854 -0.1047 -0.1421
  186POPC   C2821338   3.065   1.137   5.205  0.1187 -0.2014 -0.1013
  186POPC   H8R21339   3.067   1.037   5.253  0.6241  1.1850  3.0865
  186POPC   H8S21340   3.124   1.140   5.111  2.7083  0.5125  1.4204
  186POPC   C2921341   2.917   1.171   5.192  0.0587 -0.7460 -0.0118
  186POPC   H9121342   2.854   1.232   5.259 -3.9647 -2.7264 -1.6271
  186POPC  C21021343   2.845   1.141   5.090 -0.2759  0.4772  0.5408
  186POPC  H10121344   2.744   1.184   5.085 -0.7015 -0.6242 -0.9121
  186POPC  C21121345   2.872   1.063   4.960  0.2183  0.1362  0.4099
  186POPC  H11R21346   2.770   1.053   4.917  0.0145  2.1611  0.3338
  186POPC  H11S21347   2.916   0.963   4.980  1.0120  0.3440 -0.2208
  186POPC  C21221348   2.969   1.125   4.857 -0.3425 -0.1488 -0.8757
  186POPC  H12R21349   2.932   1.081   4.762 -0.3781  1.0213 -1.4255
  186POPC  H12S21350   3.075   1.095   4.874 -0.3358  0.0803 -0.4884
  186POPC  C21321351   2.960   1.282   4.848  0.2340 -0.0519  0.0388
  186POPC  H13R21352   3.028   1.326   4.923 -1.0676 -1.5729  2.1987
  186POPC  H13S21353   2.860   1.319   4.880  0.6787  1.1309  0.1384
  186POPC  C21421354   2.975   1.325   4.700  0.7473  0.4215 -0.2967
  186POPC  H14R21355   2.892   1.276   4.645  0.1008  0.4964  0.5807
  186POPC  H14S21356   3.070   1.276   4.670  0.2856 -1.4383  1.1009
  186POPC  C21521357   2.984   1.472   4.675 -0.1727 -0.1573 -0.1353
  186POPC  H15R21358   3.068   1.507   4.739 -0.8821 -0.1099  0.7862
  186POPC  H15S21359   2.887   1.510   4.713 -0.1770  0.8843 -1.1278
  186POPC  C21621360   3.002   1.522   4.529 -0.1820 -0.2551  0.1064
  186POPC  H16R21361   2.937   1.465   4.459 -2.0678  0.9182  0.8220
  186POPC  H16S21362   3.108   1.504   4.502 -0.2091  1.4634 -1.3362
  186POPC  C21721363   2.998   1.671   4.505 -0.4094 -0.2624  0.1549
  186POPC  H17R21364   3.077   1.714   4.572  0.0348  1.5678 -1.4685
  186POPC  H17S21365   2.901   1.718   4.533 -0.3610 -0.7274  1.1418
  186POPC  C21821366   3.032   1.700   4.361 -0.0313 -0.3465  0.4554
  186POPC  H18R21367   2.971   1.644   4.288 -0.2076  2.4797 -1.7222
  186POPC  H18S21368   3.138   1.674   4.340 -0.0885 -0.6781  0.5797
  186POPC  H18T21369   3.025   1.808   4.336 -0.2084 -0.2389  0.9626
  186POPC   C3321370   3.764   1.372   5.836 -0.0644  0.2498  0.3560
  186POPC   H3X21371   3.675   1.418   5.790  1.0305  1.9756 -0.1357
  186POPC   H3Y21372   3.742   1.291   5.910  2.6594 -0.2121  0.7674
  186POPC   C3421373   3.843   1.305   5.723  0.2631  0.6016 -0.4716
  186POPC   H4X21374   3.909   1.223   5.760 -1.6533 -1.1252 -0.7178
  186POPC   H4Y21375   3.920   1.375   5.685 -1.0226  2.5648  0.3963
  186POPC   C3521376   3.755   1.234   5.620 -0.1263  0.3954 -0.8440
  186POPC   H5X21377   3.674   1.174   5.667 -0.9277  0.9794 -1.4501
  186POPC   H5Y21378   3.832   1.175   5.566 -0.1572 -0.2213 -0.2310
  186POPC   C3621379   3.685   1.322   5.507  0.1145  0.6161  0.3619
  186POPC   H6X21380   3.761   1.388   5.461  0.7610  0.3561  1.0408
  186POPC   H6Y21381   3.590   1.372   5.536 -1.3703 -0.2218 -2.5997
  186POPC   C3721382   3.644   1.211   5.398  0.5417 -0.1568 -0.2142
  186POPC   H7X21383   3.567   1.146   5.445  0.1405  0.1340 -0.4595
  186POPC   H7Y21384   3.730   1.149   5.364  2.0512  1.2687  0.8547
  186POPC   C3821385   3.578   1.265   5.264  0.0585 -0.1468 -0.0724
  186POPC   H8X21386   3.652   1.341   5.230  1.7001 -1.0860  1.2705
  186POPC   H8Y21387   3.487   1.324   5.287 -0.0946  0.8301 -2.7748
  186POPC   C3921388   3.553   1.154   5.163  0.1847  0.3389 -0.8823
  186POPC   H9X21389   3.503   1.079   5.227 -0.0371  2.2306  1.3012
  186POPC   H9Y21390   3.644   1.107   5.119 -1.0081  0.1800 -3.4018
  186POPC  C31021391   3.458   1.201   5.052 -0.0159 -0.5921 -0.1589
  186POPC  H10X21392   3.504   1.300   5.028  2.4258 -1.0807  2.0716
  186POPC  H10Y21393   3.359   1.226   5.095 -0.2187 -3.2202  1.0729
  186POPC  C31121394   3.462   1.116   4.925  0.1705 -0.5176 -0.7816
  186POPC  H11X21395   3.452   1.008   4.948 -0.3038 -0.2448  0.3189
  186POPC  H11Y21396   3.567   1.103   4.893 -0.1557 -4.6375 -0.7434
  186POPC  C31221397   3.372   1.173   4.816  0.2319  0.1100 -0.4183
  186POPC  H12X21398   3.374   1.284   4.814  0.7419  0.1536  1.0360
  186POPC  H12Y21399   3.266   1.152   4.842  0.2020  2.6577  2.0596
  186POPC  C31321400   3.415   1.110   4.683  0.2472  0.5054  0.1855
  186POPC  H13X21401   3.413   0.999   4.692 -0.1411  0.6579  2.9004
  186POPC  H13Y21402   3.519   1.144   4.663  0.5374 -0.7668 -0.5952
  186POPC  C31421403   3.339   1.158   4.561 -0.7924  0.4273  0.3232
  186POPC  H14X21404   3.355   1.267   4.546 -2.1465  0.5867 -0.0965
  186POPC  H14Y21405   3.229   1.149   4.567 -0.8223  0.6749  0.1563
  186POPC  C31521406   3.371   1.075   4.441 -0.2218 -0.5738 -0.6150
  186POPC  H15X21407   3.354   0.967   4.460 -1.0099 -0.7186 -2.0014
  186POPC  H15Y21408   3.477   1.066   4.408  0.2448 -0.9053  0.9103
  186POPC  C31621409   3.280   1.109   4.322  0.5125 -0.3059  0.0273
  186POPC  H16X21410   3.298   1.036   4.241 -0.3416 -0.0150 -0.4456
  186POPC  H16Y21411   3.294   1.210   4.277 -2.0382 -1.2044 -3.2265
  186POPC  H16Z21412   3.173   1.101   4.353  0.6589 -0.4291  0.5034
  187POPC     N21413   1.872   3.250   1.706  0.2116  0.3272  0.6857
  187POPC   C1221414   1.933   3.317   1.829  0.1922  0.0495 -0.1973
  187POPC  H12A21415   1.949   3.423   1.816 -0.9513  0.5278  1.8125
  187POPC  H12B21416   2.033   3.277   1.838 -0.5810 -1.7546  1.0357
  187POPC   C1321417   1.875   3.099   1.721 -0.2676 -0.3959 -0.4663
  187POPC  H13A21418   1.975   3.068   1.695  0.6197  1.9134 -0.0722
  187POPC  H13B21419   1.854   3.066   1.822 -0.1993 -1.0962 -0.6759
  187POPC  H13C21420   1.802   3.049   1.659  1.0003 -0.9124 -1.5990
  187POPC   C1421421   1.730   3.283   1.683 -0.6132 -0.3939 -0.2060
  187POPC  H14A21422   1.710   3.388   1.667 -0.8952 -0.3932  0.1309
  187POPC  H14B21423   1.695   3.239   1.591 -2.2488 -0.7723  0.5609
  187POPC  H14C21424   1.658   3.256   1.759  0.4976 -2.0777  0.3188
  187POPC   C1521425   1.948   3.293   1.588 -0.1932 -0.0716 -0.1784
  187POPC  H15A21426   1.927   3.395   1.559 -1.9584  0.1198  1.5803
  187POPC  H15B21427   1.923   3.231   1.503  0.2000 -1.4098  0.6542
  187POPC  H15C21428   2.053   3.274   1.606 -0.3038  0.6936  1.4427
  187POPC   C1121429   1.871   3.278   1.965  0.1799  0.2436  0.1968
  187POPC  H11A21430   1.762   3.293   1.954  0.2273  0.5187  0.0866
  187POPC  H11B21431   1.908   3.352   2.039  1.3631 -1.3658  1.2856
  187POPC     P21432   2.031   3.096   2.071 -0.4241 -0.3167 -0.3447
  187POPC   O1321433   2.155   3.158   2.004  0.1906  0.2525 -0.6093
  187POPC   O1421434   2.011   2.952   2.065  0.0054  0.0533 -0.0363
  187POPC   O1221435   1.900   3.147   2.001 -0.3684  0.3669  0.1195
  187POPC   O1121436   2.023   3.137   2.224  0.4412 -0.1970 -0.1267
  187POPC    C121437   1.904   3.175   2.285 -0.6138  0.1586 -0.7911
  187POPC    HA21438   1.821   3.111   2.249  0.0975 -2.2893  1.5991
  187POPC    HB21439   1.880   3.282   2.265 -1.1319  0.4304  1.1050
  187POPC    C221440   1.902   3.148   2.442  0.2168 -0.7259 -0.0075
  187POPC    HS21441   1.811   3.201   2.478  1.0219  0.0165  0.9845
  187POPC   O2121442   2.021   3.199   2.507  0.2896 -0.4471 -0.3352
  187POPC   C2121443   2.009   3.332   2.520  0.1912  0.3036  0.0236
  187POPC   O2221444   1.927   3.403   2.462  0.2777 -0.3097 -0.1775
  187POPC   C2221445   2.091   3.361   2.640  0.3383  0.2439  0.1933
  187POPC   H2R21446   2.090   3.471   2.653  3.6211  0.3542  0.0907
  187POPC   H2S21447   2.192   3.322   2.618  1.3488  2.9264 -0.2549
  187POPC    C321448   1.886   2.999   2.470 -0.0129  0.6806  0.4594
  187POPC    HX21449   1.959   2.942   2.410 -2.0517 -0.3939 -1.1149
  187POPC    HY21450   1.789   2.955   2.437  0.1156  0.5024  0.3176
  187POPC   O3121451   1.905   2.967   2.608 -0.0029  0.2840 -0.6864
  187POPC   C3121452   1.792   2.984   2.682 -0.8211 -0.0491 -0.5920
  187POPC   O3221453   1.680   3.006   2.643 -0.4687 -0.4254 -0.4271
  187POPC   C3221454   1.841   2.969   2.826  0.0703  1.0293 -0.8345
  187POPC   H2X21455   1.952   2.970   2.831  0.1651 -0.6593 -1.7665
  187POPC   H2Y21456   1.811   2.865   2.852 -1.5995  1.2219 -1.8070
  187POPC   C2321457   2.033   3.296   2.770 -0.2964 -0.4239  0.1752
  187POPC   H3R21458   2.030   3.186   2.756  1.0809 -0.5934  1.0590
  187POPC   H3S21459   1.929   3.331   2.788  0.1837  2.6679 -2.2086
  187POPC   C2421460   2.120   3.336   2.894  0.0619 -0.4727 -0.1045
  187POPC   H4R21461   2.230   3.340   2.880  0.3478 -3.5274  0.4571
  187POPC   H4S21462   2.108   3.248   2.961  0.0866 -0.3307  0.0845
  187POPC   C2521463   2.074   3.466   2.964  0.5059 -0.6592  0.4708
  187POPC   H5R21464   1.964   3.460   2.980  0.6425  2.0408  3.3614
  187POPC   H5S21465   2.104   3.552   2.900 -1.4304 -1.0307 -1.0531
  187POPC   C2621466   2.133   3.473   3.107  0.3999 -0.1369  0.0026
  187POPC   H6R21467   2.241   3.451   3.095  0.7901  2.2590 -1.3837
  187POPC   H6S21468   2.089   3.388   3.164  3.3546 -2.4761 -0.9406
  187POPC   C2721469   2.109   3.607   3.179 -0.0744  0.3468 -0.9621
  187POPC   H7R21470   2.001   3.611   3.205  0.2633  2.4594  0.3673
  187POPC   H7S21471   2.137   3.684   3.104  0.0500 -1.0753 -2.4354
  187POPC   C2821472   2.195   3.617   3.311 -0.2261 -0.5343  1.0218
  187POPC   H8R21473   2.303   3.619   3.289  0.2444 -0.3399  3.1635
  187POPC   H8S21474   2.163   3.526   3.367 -1.2333  0.5266  2.2405
  187POPC   C2921475   2.165   3.743   3.386  0.5821  0.7076  0.0472
  187POPC   H9121476   2.131   3.827   3.323 -2.0374  1.4393  2.2493
  187POPC  C21021477   2.190   3.756   3.517 -0.8789 -0.3484 -0.3757
  187POPC  H10121478   2.162   3.855   3.559 -1.3436 -0.6888  0.1344
  187POPC  C21121479   2.238   3.660   3.625  0.2053  0.2219 -0.3409
  187POPC  H11R21480   2.309   3.706   3.697  0.3542  0.1977 -0.4716
  187POPC  H11S21481   2.281   3.569   3.578  0.2437  0.3597 -0.5745
  187POPC  C21221482   2.114   3.615   3.705  1.3057 -0.1808 -0.6257
  187POPC  H12R21483   2.049   3.566   3.630  3.4408 -3.6233 -0.4783
  187POPC  H12S21484   2.071   3.707   3.750 -1.2364 -1.5278 -0.1243
  187POPC  C21321485   2.153   3.511   3.814 -0.0432  0.2426  0.4121
  187POPC  H13R21486   2.196   3.417   3.773  1.0797  0.7922  0.2911
  187POPC  H13S21487   2.056   3.476   3.854 -0.8978 -0.3463 -1.9984
  187POPC  C21421488   2.233   3.566   3.932 -0.1433 -0.4957  0.1932
  187POPC  H14R21489   2.174   3.655   3.964  1.4223  0.9621 -0.7767
  187POPC  H14S21490   2.331   3.610   3.902  0.1226 -2.1978 -1.6701
  187POPC  C21521491   2.263   3.464   4.040 -0.1978  0.6885 -1.0860
  187POPC  H15R21492   2.170   3.435   4.092  0.9663 -0.0572  0.6982
  187POPC  H15S21493   2.334   3.512   4.111 -0.5760 -0.5307  0.1512
  187POPC  C21621494   2.337   3.336   3.990 -0.0400  0.0984  0.4432
  187POPC  H16R21495   2.440   3.365   3.963 -0.1024 -0.3239 -0.2985
  187POPC  H16S21496   2.287   3.298   3.897 -3.3165  1.2997  1.5502
  187POPC  C21721497   2.350   3.220   4.092 -0.1286  0.6525  0.9543
  187POPC  H17R21498   2.250   3.183   4.124 -0.4821 -0.7813 -1.5100
  187POPC  H17S21499   2.393   3.264   4.184 -1.1708 -0.0904  1.8223
  187POPC  C21821500   2.432   3.107   4.030  0.4821  0.6461 -0.4483
  187POPC  H18R21501   2.460   3.026   4.101 -1.2834 -1.1060 -1.6741
  187POPC  H18S21502   2.526   3.151   3.992  1.7028 -0.3846  1.2428
  187POPC  H18T21503   2.371   3.066   3.947 -1.1004  0.4151  0.7745
  187POPC   C3321504   1.784   3.073   2.924 -0.1833 -0.4285  0.1994
  187POPC   H3X21505   1.678   3.099   2.904  0.2949  1.3074 -0.2579
  187POPC   H3Y21506   1.838   3.165   2.892 -0.3683 -0.2189  0.4908
  187POPC   C3421507   1.787   3.034   3.070 -0.3463 -0.3965 -0.6680
  187POPC   H4X21508   1.710   2.961   3.101 -1.0468  0.0273 -1.3679
  187POPC   H4Y21509   1.774   3.130   3.125 -1.1661 -1.3657  0.8835
  187POPC   C3521510   1.931   2.981   3.103  0.2114  0.9994  0.2864
  187POPC   H5X21511   2.009   3.041   3.052  1.2757 -0.1735  0.4879
  187POPC   H5Y21512   1.936   2.875   3.073 -1.0943  0.7469  0.8863
  187POPC   C3621513   1.975   3.003   3.249  0.5676  1.2420 -0.3606
  187POPC   H6X21514   1.969   3.112   3.270  1.1602  1.6740 -2.2915
  187POPC   H6Y21515   2.084   2.989   3.256  0.5925  1.7509  0.3992
  187POPC   C3721516   1.900   2.922   3.352 -0.1726  0.3646 -0.2676
  187POPC   H7X21517   1.857   2.832   3.303  0.4008  0.1881 -0.4553
  187POPC   H7Y21518   1.816   2.981   3.394  1.1620  1.5391  0.8585
  187POPC   C3821519   1.986   2.888   3.477  0.1868  0.3106 -0.1259
  187POPC   H8X21520   2.014   2.987   3.519  1.7424  0.2341 -0.9071
  187POPC   H8Y21521   2.081   2.832   3.467  0.4238  0.8120 -0.7809
  187POPC   C3921522   1.903   2.808   3.587 -0.5449 -0.0934 -0.5524
  187POPC   H9X21523   1.897   2.706   3.544  0.3301 -1.0528  1.4279
  187POPC   H9Y21524   1.801   2.851   3.593 -0.7375 -0.6064 -0.0111
  187POPC  C31021525   1.965   2.816   3.729  0.4847  0.2903 -0.1583
  187POPC  H10X21526   1.992   2.919   3.760 -1.6414  1.3864 -1.6908
  187POPC  H10Y21527   2.064   2.767   3.720 -0.2929 -1.2555 -0.6444
  187POPC  C31121528   1.878   2.743   3.836 -0.3975 -0.3966  0.1775
  187POPC  H11X21529   1.810   2.667   3.792 -0.7520  0.5380 -0.9205
  187POPC  H11Y21530   1.813   2.827   3.868  0.2273  1.8107 -3.7258
  187POPC  C31221531   1.963   2.682   3.948 -0.0135 -0.5907 -0.0473
  187POPC  H12X21532   1.903   2.675   4.041  1.1699  0.0062  0.8014
  187POPC  H12Y21533   2.043   2.758   3.959 -0.0941 -0.4178 -0.6027
  187POPC  C31321534   2.011   2.540   3.912  0.1017 -0.1780  0.1731
  187POPC  H13X21535   2.043   2.551   3.806 -0.7340 -1.0395 -0.1814
  187POPC  H13Y21536   1.924   2.471   3.920 -0.5974  0.8512  1.8698
  187POPC  C31421537   2.121   2.489   3.996  0.0234 -0.1518  0.0406
  187POPC  H14X21538   2.105   2.484   4.106  0.3441 -2.0655  0.0376
  187POPC  H14Y21539   2.215   2.543   3.977  1.4819 -2.7570 -0.6552
  187POPC  C31521540   2.148   2.345   3.950 -0.1738 -0.4510 -0.0394
  187POPC  H15X21541   2.242   2.304   3.992  1.6387  1.1017 -2.3332
  187POPC  H15Y21542   2.165   2.347   3.840 -0.7634  1.1639 -0.1158
  187POPC  C31621543   2.032   2.255   3.976  0.2887  0.1150 -0.8840
  187POPC  H16X21544   2.070   2.153   3.954  3.2458  0.7463  0.8141
  187POPC  H16Y21545   1.947   2.275   3.907 -1.6456  1.3494  1.6854
  187POPC  H16Z21546   2.003   2.265   4.082  1.2432  0.5170 -0.6511
  188POPC     N21547   1.825   4.429   2.169  0.3699 -0.7096 -0.6192
  188POPC   C1221548   1.721   4.341   2.251 -0.2683 -0.5545 -0.0371
  188POPC  H12A21549   1.737   4.239   2.222 -2.0013 -1.1930  1.1465
  188POPC  H12B21550   1.622   4.376   2.228 -0.2921  0.3772  1.3554
  188POPC   C1321551   1.797   4.578   2.204  0.1686  0.3517 -0.9027
  188POPC  H13A21552   1.696   4.606   2.180 -0.8711 -1.5342  1.0151
  188POPC  H13B21553   1.809   4.589   2.310 -3.3816 -1.1066 -0.2378
  188POPC  H13C21554   1.873   4.641   2.160  0.4607  1.3465  0.9362
  188POPC   C1421555   1.965   4.398   2.208 -0.7262  1.1018  0.4343
  188POPC  H14A21556   1.994   4.296   2.189  1.1090  1.8882 -1.4603
  188POPC  H14B21557   2.040   4.456   2.155  1.1321  0.1896  1.9817
  188POPC  H14C21558   1.983   4.424   2.311  1.9110 -1.2954  0.6666
  188POPC   C1521559   1.803   4.401   2.027  0.4230  0.0245 -0.0042
  188POPC  H15A21560   1.882   4.444   1.966 -0.8376  1.8524 -0.4375
  188POPC  H15B21561   1.712   4.433   1.979  0.8555  2.0324  0.4134
  188POPC  H15C21562   1.799   4.294   2.015 -0.1453  0.1808 -1.3142
  188POPC   C1121563   1.734   4.330   2.404  0.1266  0.2597  0.0015
  188POPC  H11A21564   1.747   4.432   2.446 -2.0973 -0.0114  1.5439
  188POPC  H11B21565   1.823   4.271   2.434 -1.3677 -1.5159  1.1847
  188POPC     P21566   1.586   4.126   2.466 -0.0755  0.0662  0.2042
  188POPC   O1321567   1.653   4.062   2.352 -0.5593  0.3841 -0.2998
  188POPC   O1421568   1.444   4.107   2.482 -0.0455 -0.7291  1.0631
  188POPC   O1221569   1.615   4.281   2.459  0.9402  0.0705  0.3333
  188POPC   O1121570   1.650   4.085   2.600 -0.2794  0.3224 -0.6345
  188POPC    C121571   1.635   4.165   2.715  0.0452 -0.1757  0.3169
  188POPC    HA21572   1.552   4.239   2.714  0.5231  0.4189  1.9922
  188POPC    HB21573   1.734   4.216   2.720 -0.3007  0.4464  1.0513
  188POPC    C221574   1.608   4.089   2.850 -0.4146  0.2253  0.1271
  188POPC    HS21575   1.590   4.161   2.933 -2.4738 -0.2842  0.1930
  188POPC   O2121576   1.709   3.993   2.885  0.4566  0.2721 -0.0375
  188POPC   C2121577   1.817   4.046   2.924 -0.4371 -0.3316  0.5623
  188POPC   O2221578   1.845   4.163   2.936  0.4413 -0.1191 -0.0589
  188POPC   C2221579   1.907   3.926   2.973  0.0165 -0.6282  0.7301
  188POPC   H2R21580   1.971   3.898   2.887 -1.9409 -1.3315 -0.5840
  188POPC   H2S21581   1.846   3.839   3.003  0.4239 -0.4175  2.2122
  188POPC    C321582   1.476   4.014   2.830  0.8000  0.3015  0.1409
  188POPC    HX21583   1.488   3.933   2.755 -1.9879 -1.3280  1.3106
  188POPC    HY21584   1.395   4.075   2.785 -0.6779 -2.1916 -0.7619
  188POPC   O3121585   1.430   3.946   2.948  0.1563 -0.2694  0.4250
  188POPC   C3121586   1.393   4.031   3.042  0.1273  0.0724 -0.0054
  188POPC   O3221587   1.374   4.151   3.030 -0.3551 -0.0933 -0.0690
  188POPC   C3221588   1.360   3.939   3.161  0.4204 -0.4385 -0.4921
  188POPC   H2X21589   1.363   3.831   3.138 -0.6040 -0.8071  0.9779
  188POPC   H2Y21590   1.252   3.960   3.178 -0.1036 -1.2499 -2.5113
  188POPC   C2321591   1.996   3.959   3.097  0.4187  0.2670  0.8412
  188POPC   H3R21592   2.053   4.054   3.083  0.7456 -0.1658 -1.1048
  188POPC   H3S21593   2.077   3.884   3.100  1.3198  0.9986 -1.7895
  188POPC   C2421594   1.919   3.959   3.225  0.1729  0.0044 -0.0754
  188POPC   H4R21595   1.903   3.856   3.264 -2.3141  0.4049  0.0951
  188POPC   H4S21596   1.816   3.999   3.220  0.1021 -0.3637 -2.5480
  188POPC   C2521597   1.974   4.057   3.334  0.2342  0.2163 -0.5944
  188POPC   H5R21598   1.988   4.157   3.289  1.0141  0.6396  0.5528
  188POPC   H5S21599   2.071   4.029   3.380 -1.3434 -3.3635  0.9588
  188POPC   C2621600   1.870   4.072   3.449  1.4083  0.6299  0.4546
  188POPC   H6R21601   1.843   3.975   3.495 -1.0737  0.5327 -1.0353
  188POPC   H6S21602   1.772   4.103   3.407  2.1625  0.3727 -1.6159
  188POPC   C2721603   1.898   4.174   3.568 -0.4250  0.7653 -0.0896
  188POPC   H7R21604   1.816   4.167   3.643 -1.8369 -1.7215 -1.7262
  188POPC   H7S21605   1.913   4.275   3.525 -2.0256  0.6576 -0.9701
  188POPC   C2821606   2.034   4.135   3.638  0.2817 -0.1280 -0.3002
  188POPC   H8R21607   2.109   4.198   3.586  0.5918  1.0997  1.5462
  188POPC   H8S21608   2.039   4.024   3.634  2.1116 -0.0785  0.1195
  188POPC   C2921609   2.029   4.189   3.777 -0.0220 -0.3490 -0.4193
  188POPC   H9121610   2.009   4.298   3.776  1.6974 -0.0119 -2.0177
  188POPC  C21021611   2.057   4.136   3.896 -0.4832  0.6406  0.4796
  188POPC  H10121612   2.045   4.196   3.987  3.9303  1.6621  0.6120
  188POPC  C21121613   2.094   3.994   3.918  0.5514 -0.3616  0.1618
  188POPC  H11R21614   2.085   3.925   3.830  0.4395  1.8702 -1.6662
  188POPC  H11S21615   2.032   3.954   4.001  0.0216  0.5667  0.2282
  188POPC  C21221616   2.241   3.991   3.975 -0.1035 -0.2872 -0.1755
  188POPC  H12R21617   2.307   4.040   3.899  1.3230 -0.1366  1.1125
  188POPC  H12S21618   2.277   3.887   3.987 -0.2373 -0.3829 -0.5945
  188POPC  C21321619   2.253   4.060   4.112  0.1442  0.3586  0.3533
  188POPC  H13R21620   2.177   4.023   4.184  0.0501  0.2159  0.1784
  188POPC  H13S21621   2.229   4.168   4.108 -0.2240  0.2625 -0.0501
  188POPC  C21421622   2.387   4.045   4.190  0.3137 -0.0266 -0.2822
  188POPC  H14R21623   2.374   4.112   4.279  0.3921 -1.8082  1.1325
  188POPC  H14S21624   2.471   4.079   4.126  1.2446  0.3314  1.0689
  188POPC  C21521625   2.392   3.910   4.249  0.5616 -0.3350 -0.6435
  188POPC  H15R21626   2.406   3.833   4.170  0.3820  1.0027 -2.0355
  188POPC  H15S21627   2.301   3.888   4.309  1.5404 -0.6485  0.7952
  188POPC  C21621628   2.506   3.898   4.357  0.0098  0.4696  0.4339
  188POPC  H16R21629   2.474   3.952   4.449 -2.1326 -3.2139  2.0501
  188POPC  H16S21630   2.600   3.942   4.316 -0.1674  1.6116  1.2018
  188POPC  C21721631   2.517   3.752   4.421  0.1521  0.1106  0.0049
  188POPC  H17R21632   2.611   3.768   4.478  0.3771  0.1263 -0.3736
  188POPC  H17S21633   2.543   3.695   4.330 -2.0803  1.0564 -1.3132
  188POPC  C21821634   2.390   3.700   4.498 -0.4415  0.6104  0.0284
  188POPC  H18R21635   2.302   3.706   4.431 -1.0703  1.5091  0.9062
  188POPC  H18S21636   2.361   3.759   4.588  0.3940 -0.6906  1.1981
  188POPC  H18T21637   2.408   3.593   4.524 -0.4906  0.5934 -0.0091
  188POPC   C3321638   1.444   3.979   3.281  0.0071 -0.5449  0.0861
  188POPC   H3X21639   1.425   4.086   3.305 -0.6065 -0.3050 -1.3287
  188POPC   H3Y21640   1.552   3.966   3.260  0.5384  1.4584  1.2971
  188POPC   C3421641   1.405   3.895   3.402  0.3445  0.5260 -0.6540
  188POPC   H4X21642   1.404   3.787   3.373 -1.6787  0.4720 -0.5037
  188POPC   H4Y21643   1.300   3.919   3.426 -0.4071  0.2174 -3.3234
  188POPC   C3521644   1.487   3.919   3.535 -0.2816 -0.1026 -0.2483
  188POPC   H5X21645   1.575   3.984   3.516 -0.2653  0.2717  1.0152
  188POPC   H5Y21646   1.538   3.824   3.558 -2.2260 -1.8483 -2.5899
  188POPC   C3621647   1.406   3.956   3.664 -0.4592 -0.5954 -0.3545
  188POPC   H6X21648   1.355   3.868   3.709 -0.0702 -0.2595  0.7657
  188POPC   H6Y21649   1.325   4.024   3.630  0.1730  0.2518 -0.1943
  188POPC   C3721650   1.503   4.022   3.766  0.3224  0.9273 -0.2724
  188POPC   H7X21651   1.448   4.064   3.853 -0.7696  1.6313 -1.2752
  188POPC   H7Y21652   1.559   4.098   3.709  2.1579 -1.1809 -1.4344
  188POPC   C3821653   1.600   3.925   3.820 -0.1217  0.2484  0.3346
  188POPC   H8X21654   1.675   3.894   3.743 -2.5513 -2.4729 -1.1090
  188POPC   H8Y21655   1.558   3.830   3.859 -0.6171  0.2866 -0.1042
  188POPC   C3921656   1.679   4.003   3.935  0.4899 -0.6946  0.3640
  188POPC   H9X21657   1.699   4.107   3.901 -1.4614 -0.0277  1.1298
  188POPC   H9Y21658   1.767   3.937   3.954 -0.7633 -2.3982  0.5427
  188POPC  C31021659   1.599   4.001   4.073 -0.2880  0.4935 -0.0516
  188POPC  H10X21660   1.566   3.902   4.109 -0.3336  0.7734  0.6917
  188POPC  H10Y21661   1.512   4.066   4.051  0.7253  1.1506 -2.5414
  188POPC  C31121662   1.679   4.056   4.192  0.0408 -0.3354  0.4158
  188POPC  H11X21663   1.751   3.973   4.209  0.6241 -0.2370 -1.3275
  188POPC  H11Y21664   1.622   4.070   4.286  1.3322  0.7772  1.0646
  188POPC  C31221665   1.760   4.186   4.176  0.5488 -1.0520  0.0389
  188POPC  H12X21666   1.699   4.276   4.156  2.5765 -0.2473 -3.2826
  188POPC  H12Y21667   1.838   4.178   4.097  0.7828  1.1984 -0.0199
  188POPC  C31321668   1.842   4.221   4.297  0.5083 -0.0940 -0.5468
  188POPC  H13X21669   1.921   4.146   4.316  0.8587  0.0567 -1.3419
  188POPC  H13Y21670   1.779   4.212   4.388  1.6708 -1.2340  0.1754
  188POPC  C31421671   1.910   4.357   4.296 -0.3686  0.0317 -0.6279
  188POPC  H14X21672   1.959   4.362   4.396 -1.8874 -1.1320  0.2155
  188POPC  H14Y21673   1.831   4.435   4.295 -1.0284 -0.6125 -0.0669
  188POPC  C31521674   2.009   4.368   4.185  0.3282 -0.3085 -0.6982
  188POPC  H15X21675   1.959   4.360   4.086 -0.8480  1.8904 -0.3520
  188POPC  H15Y21676   2.085   4.288   4.201 -0.8997 -1.2583  0.6273
  188POPC  C31621677   2.088   4.502   4.193 -0.1974 -0.0208 -0.2370
  188POPC  H16X21678   2.023   4.593   4.199  2.8443  2.1940  2.2599
  188POPC  H16Y21679   2.150   4.513   4.101  1.7545  0.5086  1.0755
  188POPC  H16Z21680   2.153   4.503   4.282  1.2127 -0.3285 -1.2303
  189SAPI   C1221681   3.339   4.547   6.614  0.0781 -0.6408  0.0253
  189SAPI    H221682   3.244   4.583   6.569  0.4514  0.8935  0.4096
  189SAPI    O221683   3.349   4.598   6.744  0.1128 -0.1021  0.5610
  189SAPI   HO221684   3.305   4.683   6.742 -1.2567 -0.7385 -2.7379
  189SAPI   C1321685   3.337   4.392   6.607 -0.2472 -0.0879  0.8029
  189SAPI    H321686   3.348   4.369   6.498 -0.1897  0.5448  0.6719
  189SAPI    O321687   3.216   4.324   6.644  0.3956 -0.0963  0.5167
  189SAPI   HO321688   3.177   4.296   6.561  1.3735 -0.7706  0.2706
  189SAPI   C1421689   3.463   4.337   6.674  0.1928 -0.3664 -0.0364
  189SAPI    H421690   3.442   4.369   6.778  0.0548 -0.9316  0.1110
  189SAPI    O421691   3.464   4.188   6.673  0.0617  0.4058 -0.5461
  189SAPI   HO421692   3.472   4.160   6.581 -0.4650 -0.5336 -0.3223
  189SAPI   C1521693   3.590   4.396   6.631 -0.4674 -0.2204 -0.7099
  189SAPI    H521694   3.620   4.333   6.544  1.4129 -0.4572  0.0739
  189SAPI    O521695   3.689   4.381   6.742  0.5299  0.6010 -0.1001
  189SAPI   HO521696   3.749   4.307   6.728 -0.8330 -0.7752  0.8626
  189SAPI   C1621697   3.587   4.544   6.577  0.1116  0.1484 -0.6074
  189SAPI    H621698   3.603   4.607   6.667 -0.1588 -2.6263  1.5127
  189SAPI    O621699   3.696   4.562   6.488  0.2612 -0.0407 -0.0775
  189SAPI   HO621700   3.701   4.656   6.469  1.2362  0.0155  0.4193
  189SAPI   C1121701   3.455   4.594   6.528  0.3030  0.4636 -0.6822
  189SAPI    H121702   3.437   4.553   6.426 -0.1140 -1.6256  0.2009
  189SAPI     P21703   3.530   4.856   6.445  0.0950 -0.0587  0.2047
  189SAPI   O1321704   3.672   4.824   6.463 -0.6962 -0.0668  0.2085
  189SAPI   O1421705   3.484   4.986   6.499 -0.6107 -0.0624 -0.6797
  189SAPI   O1221706   3.453   4.735   6.518 -0.2241 -0.2538  0.1869
  189SAPI   O1121707   3.471   4.859   6.293  0.5125 -0.2276  1.2192
  189SAPI    C121708   3.570   4.832   6.193  0.7603  0.4755  0.1127
  189SAPI    HA21709   3.661   4.894   6.207  1.1203  0.2946 -1.2288
  189SAPI    HB21710   3.608   4.728   6.199 -1.7331 -0.4002  2.2894
  189SAPI    C221711   3.506   4.836   6.051 -0.1333  0.8021  0.1804
  189SAPI    HS21712   3.580   4.856   5.970 -0.4535  0.6901 -0.1425
  189SAPI   O2121713   3.385   4.916   6.058 -0.0801  0.4077 -0.4179
  189SAPI   C2121714   3.407   5.043   6.061 -0.2349 -0.2050  0.2373
  189SAPI   O2221715   3.510   5.107   6.038  0.4513  0.0368  0.1174
  189SAPI   C2221716   3.279   5.108   6.100  0.2146  0.0065  0.6715
  189SAPI   H2R21717   3.192   5.040   6.087 -0.5475  1.1619 -0.5045
  189SAPI   H2S21718   3.285   5.135   6.207 -0.9863 -0.3826  0.8488
  189SAPI    C321719   3.450   4.694   6.013 -0.8495 -0.4830 -0.3775
  189SAPI    HX21720   3.364   4.679   6.080 -2.3091  0.8603 -1.8584
  189SAPI    HY21721   3.525   4.613   6.019 -0.2716 -0.0356 -1.1917
  189SAPI   O3121722   3.406   4.692   5.872  0.0187  0.1053 -0.0310
  189SAPI   C3121723   3.483   4.633   5.785  0.1825 -0.5765 -0.8725
  189SAPI   O3221724   3.594   4.588   5.807  0.2698 -0.0479  0.0846
  189SAPI   C3221725   3.412   4.626   5.650  0.8280  0.2248 -0.3985
  189SAPI   H2X21726   3.351   4.719   5.653  1.2662  0.4818  1.3339
  189SAPI   H2Y21727   3.342   4.540   5.648 -0.0171  0.8495  0.7682
  189SAPI   C2321728   3.253   5.236   6.020 -0.2862 -0.3840 -0.0922
  189SAPI   H3R21729   3.325   5.316   6.046 -0.2674 -0.7724  1.0929
  189SAPI   H3S21730   3.162   5.275   6.070  0.8153  0.4432  1.3312
  189SAPI   C2421731   3.236   5.217   5.871 -0.5086  0.4012 -0.0217
  189SAPI   H4R21732   3.149   5.149   5.863  0.5290 -1.0820  0.6726
  189SAPI   H4S21733   3.318   5.161   5.822 -0.6194  1.3464 -1.3258
  189SAPI   C2521734   3.207   5.340   5.788  0.3882 -0.4411 -0.8297
  189SAPI   H5R21735   3.291   5.412   5.787 -1.7169  2.2443  1.0892
  189SAPI   C2621736   3.096   5.354   5.710  0.6458  0.2039  0.2698
  189SAPI   H6R21737   3.076   5.450   5.659  0.5774  0.1056  0.1118
  189SAPI   C2721738   2.968   5.265   5.690  0.6243 -0.5593  0.0976
  189SAPI   H7R21739   3.000   5.168   5.645 -0.7159 -1.0276  0.0905
  189SAPI   H7S21740   2.898   5.321   5.624 -0.7262 -1.8076  0.4188
  189SAPI   C2821741   2.891   5.234   5.816  0.0216 -0.4665  0.4248
  189SAPI   H8R21742   2.946   5.241   5.911 -2.1900  0.0878  1.7233
  189SAPI   C2921743   2.763   5.204   5.823  0.1836 -0.1715  0.5134
  189SAPI   H9R21744   2.721   5.198   5.924  2.4677 -0.3809  1.5142
  189SAPI  C21021745   2.676   5.193   5.701  0.3449 -0.4232 -0.1604
  189SAPI  H10R21746   2.730   5.219   5.608 -3.1195 -0.5148 -2.3659
  189SAPI  H10S21747   2.603   5.277   5.702  1.1677  0.3157  1.2256
  189SAPI  C21121748   2.604   5.061   5.694 -0.0573 -0.0598  0.4071
  189SAPI  H11R21749   2.653   4.972   5.737  0.3677 -0.4996 -0.9425
  189SAPI  C21221750   2.477   5.045   5.654 -0.3471  0.7413  0.0274
  189SAPI  H12R21751   2.443   4.940   5.646  2.8070 -0.3282 -0.8461
  189SAPI  C21321752   2.377   5.155   5.595 -0.4256 -0.3766 -0.0459
  189SAPI  H13R21753   2.408   5.165   5.489 -0.0130 -1.2052 -0.0120
  189SAPI  H13S21754   2.394   5.251   5.649  2.1595 -1.5979  1.4872
  189SAPI  C21421755   2.232   5.113   5.610  0.5098  0.5531 -0.0843
  189SAPI  H14R21756   2.192   5.091   5.710  0.3930 -1.1461 -0.4768
  189SAPI  C21521757   2.140   5.091   5.509  0.5391  0.2675 -0.3851
  189SAPI  H15R21758   2.044   5.042   5.531  0.5784 -0.6456 -2.1148
  189SAPI  C21621759   2.154   5.107   5.361  0.2055 -0.3429 -0.0615
  189SAPI  H16R21760   2.261   5.125   5.337  0.1805 -0.3551 -0.1825
  189SAPI  H16S21761   2.092   5.191   5.325 -0.0454  0.4000  1.9841
  189SAPI  C21721762   2.092   4.973   5.303 -0.7095  0.1431  0.1103
  189SAPI  H17R21763   1.987   4.972   5.340 -0.9146  1.7460 -0.3569
  189SAPI  H17S21764   2.141   4.881   5.342  2.9187  2.2844  1.0278
  189SAPI  C21821765   2.077   4.983   5.154 -0.0526  0.4059  0.4065
  189SAPI  H18R21766   2.068   5.086   5.114 -0.0659 -0.0923 -0.8983
  189SAPI  H18S21767   1.983   4.936   5.119  1.1011 -0.8982 -1.0549
  189SAPI  C21921768   2.181   4.909   5.071 -0.5451 -0.4817 -1.0151
  189SAPI  H19R21769   2.161   4.801   5.092  3.3723 -1.1261  0.2161
  189SAPI  H19S21770   2.282   4.929   5.112 -0.6418  0.0400 -1.0241
  189SAPI  C22021771   2.180   4.941   4.923  0.9751 -0.1781  0.2571
  189SAPI  H20R21772   2.256   5.015   4.891  0.4574 -0.7670 -2.6296
  189SAPI  H20S21773   2.080   4.979   4.892  1.8109  0.1923 -2.1883
  189SAPI  H20T21774   2.192   4.850   4.861  1.4691 -0.4105  0.6814
  189SAPI   C3321775   3.514   4.621   5.529 -0.4365  0.3784  0.0110
  189SAPI   H3X21776   3.582   4.533   5.537  0.3191  1.0075  0.5645
  189SAPI   H3Y21777   3.571   4.716   5.532 -0.9739  0.8327 -2.2974
  189SAPI   C3421778   3.447   4.613   5.385 -0.2979  0.3243 -0.9301
  189SAPI   H4X21779   3.352   4.670   5.373 -0.1493  0.3390 -2.2190
  189SAPI   H4Y21780   3.407   4.512   5.359 -0.6561  0.9390 -2.8942
  189SAPI   C3521781   3.538   4.668   5.276  0.1728  0.0721  0.7882
  189SAPI   H5X21782   3.634   4.614   5.294  0.1168  0.1305  1.2807
  189SAPI   H5Y21783   3.554   4.777   5.294 -2.9955  1.1690 -2.0748
  189SAPI   C3621784   3.476   4.655   5.135  0.1987  0.3044  0.1264
  189SAPI   H6X21785   3.405   4.570   5.150  1.2261 -0.4177  1.0558
  189SAPI   H6Y21786   3.550   4.614   5.063 -0.1565 -1.5404  0.7575
  189SAPI   C3721787   3.416   4.781   5.077 -0.1795  0.0639 -0.0691
  189SAPI   H7X21788   3.361   4.837   5.155  1.9816 -0.4127  1.9167
  189SAPI   H7Y21789   3.339   4.745   5.005 -1.4230  1.3395  0.5763
  189SAPI   C3821790   3.518   4.870   5.015  0.1491 -0.7766 -0.3663
  189SAPI   H8X21791   3.596   4.821   4.952  0.3070  1.0241 -1.6639
  189SAPI   H8Y21792   3.576   4.918   5.096 -1.6447 -0.0740  0.5435
  189SAPI   C3921793   3.464   4.990   4.937 -0.0030 -0.0949 -0.3865
  189SAPI   H9X21794   3.411   5.065   4.999 -0.0120 -0.2889 -0.1588
  189SAPI   H9Y21795   3.390   4.943   4.869 -0.2457 -0.9093  0.4285
  189SAPI  C31021796   3.570   5.059   4.851 -0.2247 -0.1305 -0.3928
  189SAPI  H10X21797   3.641   4.991   4.799 -0.0043 -0.1921 -0.0117
  189SAPI  H10Y21798   3.638   5.119   4.915 -0.1122  1.4682 -1.9412
  189SAPI  C31121799   3.508   5.156   4.746 -0.7840  0.7464 -0.8026
  189SAPI  H11X21800   3.592   5.214   4.703 -0.5666  2.3340  1.6302
  189SAPI  H11Y21801   3.449   5.233   4.800  0.8818  1.6005 -0.1550
  189SAPI  C31221802   3.426   5.075   4.648  0.3312 -0.1500  0.1235
  189SAPI  H12X21803   3.330   5.052   4.698  0.9015  0.8659  1.7721
  189SAPI  H12Y21804   3.475   4.979   4.621  1.1659 -0.0044  1.0834
  189SAPI  C31321805   3.397   5.166   4.523  0.5747  0.0440  0.7157
  189SAPI  H13X21806   3.380   5.267   4.566  0.1823 -0.5615  2.0384
  189SAPI  H13Y21807   3.300   5.131   4.482  0.7737  0.8737 -0.5088
  189SAPI  C31421808   3.514   5.165   4.424 -0.5299 -0.6599 -0.6408
  189SAPI  H14X21809   3.496   5.065   4.378  0.4812 -0.7381 -0.9001
  189SAPI  H14Y21810   3.606   5.167   4.486 -1.7125  2.0428  1.1685
  189SAPI  C31521811   3.500   5.277   4.316 -0.2488  0.2568  0.3934
  189SAPI  H15X21812   3.539   5.367   4.368  0.9185  0.1740 -0.2962
  189SAPI  H15Y21813   3.396   5.290   4.280 -0.5545  0.9414  1.4771
  189SAPI  C31621814   3.572   5.236   4.184  0.9382  0.0961 -0.1798
  189SAPI  H16X21815   3.533   5.138   4.149 -0.3998 -0.2920  2.1786
  189SAPI  H16Y21816   3.679   5.212   4.204  0.4260 -0.9336  1.5601
  189SAPI  C31721817   3.550   5.334   4.074 -0.2821  0.2972  0.1832
  189SAPI  H17X21818   3.440   5.320   4.063 -0.1557 -2.4791  1.5672
  189SAPI  H17Y21819   3.612   5.297   3.989  2.5251  0.7134  1.9149
  189SAPI  C31821820   3.581   5.484   4.093  0.5619 -0.7776  0.4707
  189SAPI  H18X21821   3.506   5.525   4.162  1.3456 -1.0558  1.5097
  189SAPI  H18Y21822   3.585   5.535   3.994  2.4326 -1.4656  0.1320
  189SAPI  H18Z21823   3.684   5.496   4.135  0.1277  1.4702  0.9996
  190SAPI   C1221824   1.703   5.653   6.667  0.2448  0.5846 -0.6011
  190SAPI    H221825   1.644   5.612   6.583 -0.1664  1.8776 -0.9599
  190SAPI    O221826   1.619   5.731   6.749  0.1922  0.0269  0.2395
  190SAPI   HO221827   1.548   5.777   6.705 -1.8050 -1.2041  1.9771
  190SAPI   C1321828   1.766   5.541   6.742 -1.1283 -0.0420 -0.4002
  190SAPI    H321829   1.846   5.500   6.677  1.0863  0.4033  1.9122
  190SAPI    O321830   1.679   5.431   6.759 -0.1595  0.1449 -1.1246
  190SAPI   HO321831   1.730   5.350   6.755 -2.2977 -1.7022  2.7988
  190SAPI   C1421832   1.834   5.583   6.871 -0.0717  0.5131  0.3828
  190SAPI    H421833   1.762   5.612   6.950  0.1253  2.3891 -0.0806
  190SAPI    O421834   1.906   5.473   6.929  0.4975 -0.1397  0.6364
  190SAPI   HO421835   1.855   5.428   6.997 -1.8860  0.2624 -0.7608
  190SAPI   C1521836   1.928   5.705   6.841 -0.2370  0.3870  0.4160
  190SAPI    H521837   2.025   5.657   6.816  0.0076  0.8257  0.4956
  190SAPI    O521838   1.974   5.785   6.950 -0.3174  0.0946  0.0035
  190SAPI   HO521839   2.048   5.735   6.985  0.2660  0.6153 -0.4607
  190SAPI   C1621840   1.892   5.798   6.721 -0.5145 -0.2220 -0.0175
  190SAPI    H621841   1.824   5.877   6.759 -0.7146 -0.1182 -0.5816
  190SAPI    O621842   2.003   5.860   6.660  0.1702  0.3008  0.1793
  190SAPI   HO621843   2.084   5.836   6.707  0.0939  1.9274  1.2712
  190SAPI   C1121844   1.804   5.741   6.611  0.3356  0.6825  0.8608
  190SAPI    H121845   1.866   5.679   6.542  1.1510  2.1139  0.2685
  190SAPI     P21846   1.719   5.822   6.369 -0.3128 -0.1810 -0.5735
  190SAPI   O1321847   1.624   5.927   6.335  0.3855 -0.3962 -0.1613
  190SAPI   O1421848   1.682   5.679   6.340 -0.1596 -0.3887 -0.1113
  190SAPI   O1221849   1.744   5.843   6.531  0.6570 -0.0458 -0.2681
  190SAPI   O1121850   1.855   5.850   6.299  0.1028 -0.5720  0.0727
  190SAPI    C121851   1.902   5.986   6.291 -0.4769 -1.2615 -0.5394
  190SAPI    HA21852   1.828   6.064   6.320 -1.4446 -3.3803  3.5310
  190SAPI    HB21853   1.978   6.000   6.370 -0.8213  0.9152 -0.5149
  190SAPI    C221854   1.945   6.018   6.148 -0.4630  0.0281 -0.1929
  190SAPI    HS21855   1.989   6.120   6.152 -0.5095  0.1747 -2.4305
  190SAPI   O2121856   1.844   6.006   6.049  0.3379 -0.2725 -0.7087
  190SAPI   C2121857   1.742   6.083   6.070  0.0100  0.6753  0.3149
  190SAPI   O2221858   1.740   6.184   6.134 -0.1554 -0.2941 -0.2641
  190SAPI   C2221859   1.626   6.007   6.003  0.0563  0.7815 -0.1802
  190SAPI   H2R21860   1.661   5.913   5.954  0.1408 -0.3968  2.0382
  190SAPI   H2S21861   1.553   5.985   6.083  0.9405 -2.3325 -0.0878
  190SAPI    C321862   2.066   5.925   6.096  0.0517 -0.1415  0.5637
  190SAPI    HX21863   2.037   5.818   6.100  0.5735 -0.4541 -2.0731
  190SAPI    HY21864   2.138   5.942   6.178 -0.0618  2.2560  0.2451
  190SAPI   O3121865   2.107   5.972   5.966  0.1635 -0.5639  0.2567
  190SAPI   C3121866   2.224   5.924   5.920  0.4685  0.0016 -0.0786
  190SAPI   O3221867   2.302   5.855   5.985  0.3747 -0.9078 -0.3797
  190SAPI   C3221868   2.253   5.961   5.779  0.6661  0.1042  0.4316
  190SAPI   H2X21869   2.224   6.068   5.770 -0.2378 -0.0864  0.9612
  190SAPI   H2Y21870   2.186   5.907   5.710  2.3016 -0.2868 -0.9192
  190SAPI   C2321871   1.553   6.088   5.894  0.4755  0.1065  0.4277
  190SAPI   H3R21872   1.627   6.114   5.815 -0.7563  2.6418 -0.0027
  190SAPI   H3S21873   1.515   6.181   5.942 -1.7670 -0.2149 -0.5838
  190SAPI   C2421874   1.425   6.023   5.843 -0.3748  0.1375 -0.0422
  190SAPI   H4R21875   1.359   6.087   5.781  0.1881  0.5880 -0.1796
  190SAPI   H4S21876   1.378   5.997   5.940  2.4938  1.2047  1.7752
  190SAPI   C2521877   1.463   5.901   5.765 -0.5964  0.1594 -0.3713
  190SAPI   H5R21878   1.519   5.827   5.824 -1.8653 -1.1704 -0.8010
  190SAPI   C2621879   1.451   5.881   5.631  0.4178 -0.0735  0.1688
  190SAPI   H6R21880   1.481   5.786   5.585 -0.2933  0.5582 -1.7188
  190SAPI   C2721881   1.395   5.988   5.538 -0.8834  0.1784  0.0073
  190SAPI   H7R21882   1.456   6.080   5.543  1.7577 -1.5012  0.6095
  190SAPI   H7S21883   1.295   6.023   5.573 -0.7137  1.4338 -0.7055
  190SAPI   C2821884   1.373   5.952   5.395  0.0475 -0.0588  0.0306
  190SAPI   H8R21885   1.266   5.958   5.369 -0.6337 -1.0195  2.3797
  190SAPI   C2921886   1.460   5.902   5.302  0.4064 -0.4782 -0.0551
  190SAPI   H9R21887   1.420   5.890   5.200 -0.8855  2.7889 -0.0426
  190SAPI  C21021888   1.612   5.881   5.316 -0.4470  0.4730 -0.0522
  190SAPI  H10R21889   1.652   5.925   5.410 -0.0763  0.4068 -0.1771
  190SAPI  H10S21890   1.663   5.933   5.232  0.5487 -2.9035 -1.7286
  190SAPI  C21121891   1.635   5.734   5.307  0.2019 -0.2487 -0.0517
  190SAPI  H11R21892   1.665   5.690   5.403 -0.2779 -0.5490 -0.0381
  190SAPI  C21221893   1.655   5.659   5.191  0.2632 -0.5035  0.6539
  190SAPI  H12R21894   1.663   5.551   5.210  0.0501 -0.7336 -0.4983
  190SAPI  C21321895   1.648   5.690   5.044 -0.0755 -0.4653  0.1232
  190SAPI  H13R21896   1.605   5.792   5.044 -0.5881 -0.6792 -0.0837
  190SAPI  H13S21897   1.571   5.629   4.992 -1.2597 -0.5543  1.9164
  190SAPI  C21421898   1.784   5.694   4.980 -0.9097  0.6848  0.1465
  190SAPI  H14R21899   1.865   5.665   5.049  0.9014  0.9000 -1.7825
  190SAPI  C21521900   1.818   5.738   4.863 -0.2318  1.1726 -0.0574
  190SAPI  H15R21901   1.926   5.730   4.841  0.0264 -3.5775  1.7837
  190SAPI  C21621902   1.729   5.807   4.765 -0.7796  0.6086  0.2924
  190SAPI  H16R21903   1.730   5.918   4.766 -1.4993  0.6628 -1.5987
  190SAPI  H16S21904   1.625   5.787   4.799  0.0451 -3.1241  1.0156
  190SAPI  C21721905   1.744   5.743   4.625 -0.8756  0.2235 -0.1290
  190SAPI  H17R21906   1.675   5.799   4.558 -0.2370  2.5264  1.0112
  190SAPI  H17S21907   1.716   5.638   4.645 -0.3523  0.3651  1.4934
  190SAPI  C21821908   1.883   5.769   4.551 -0.0217  0.5510 -0.3524
  190SAPI  H18R21909   1.955   5.702   4.601 -0.0099 -0.3298 -1.5046
  190SAPI  H18S21910   1.920   5.872   4.571  1.1465  0.5329 -2.2463
  190SAPI  C21921911   1.883   5.742   4.408 -0.2649  0.0468  0.4966
  190SAPI  H19R21912   1.861   5.635   4.387 -0.0217  0.3172 -1.2719
  190SAPI  H19S21913   1.978   5.762   4.353 -0.0397  1.2002  1.2642
  190SAPI  C22021914   1.774   5.812   4.333 -0.2136 -0.5651  0.0670
  190SAPI  H20R21915   1.749   5.914   4.372 -1.9114 -0.9480  0.0510
  190SAPI  H20S21916   1.677   5.764   4.357 -1.6402  1.6116 -1.0307
  190SAPI  H20T21917   1.779   5.827   4.224 -2.2464  0.8745  0.1207
  190SAPI   C3321918   2.396   5.938   5.726  0.0612  0.4666  0.1481
  190SAPI   H3X21919   2.404   5.827   5.728 -0.9335  0.3516 -0.7687
  190SAPI   H3Y21920   2.469   5.988   5.793  2.2615 -1.4176 -0.6964
  190SAPI   C3421921   2.421   5.990   5.579 -0.3211 -0.0259 -0.4161
  190SAPI   H4X21922   2.435   6.099   5.566 -1.1148  0.1364  0.0581
  190SAPI   H4Y21923   2.321   5.963   5.540 -0.4621 -2.3727  1.3630
  190SAPI   C3521924   2.524   5.911   5.489  0.2352 -0.4630 -0.6218
  190SAPI   H5X21925   2.498   5.803   5.499  0.8905 -0.4250  2.4150
  190SAPI   H5Y21926   2.628   5.925   5.526 -0.3344 -0.8961  1.2443
  190SAPI   C3621927   2.521   5.957   5.346 -0.3951 -0.0830  0.3274
  190SAPI   H6X21928   2.576   6.051   5.329  1.9043 -1.6235 -1.3479
  190SAPI   H6Y21929   2.416   5.968   5.311  0.2945 -0.1309 -1.8953
  190SAPI   C3721930   2.595   5.858   5.258  0.0551  0.9917  0.7400
  190SAPI   H7X21931   2.588   5.759   5.309 -2.3642  0.3042 -0.7958
  190SAPI   H7Y21932   2.699   5.896   5.256 -0.0482  1.2488  0.2422
  190SAPI   C3821933   2.558   5.854   5.107  0.1062 -0.6457  0.0130
  190SAPI   H8X21934   2.569   5.961   5.077  0.1212 -0.2065  1.4775
  190SAPI   H8Y21935   2.450   5.830   5.101 -0.1535 -0.1784  2.0634
  190SAPI   C3921936   2.649   5.765   5.021 -0.4413  0.1354  0.2293
  190SAPI   H9X21937   2.674   5.677   5.084 -0.9249 -0.5847 -0.5603
  190SAPI   H9Y21938   2.750   5.808   5.004 -0.4883 -0.2962 -1.2204
  190SAPI  C31021939   2.587   5.737   4.881  0.7546  0.3295  0.4798
  190SAPI  H10X21940   2.583   5.830   4.821  1.0798 -1.7928 -3.1149
  190SAPI  H10Y21941   2.481   5.716   4.909  0.6976  0.3314  0.2628
  190SAPI  C31121942   2.656   5.628   4.806 -0.2603 -0.0161 -0.8104
  190SAPI  H11X21943   2.650   5.540   4.874 -0.1087  0.6298  0.0721
  190SAPI  H11Y21944   2.764   5.654   4.803 -0.2536  0.0847  0.0273
  190SAPI  C31221945   2.596   5.599   4.672 -0.0689  0.8594  0.1166
  190SAPI  H12X21946   2.609   5.671   4.588 -2.4651  0.1848 -0.9176
  190SAPI  H12Y21947   2.487   5.588   4.688 -0.1528  1.3203 -0.1186
  190SAPI  C31321948   2.624   5.456   4.624  0.1192  0.1007  0.6711
  190SAPI  H13X21949   2.583   5.439   4.522  0.4037  0.6055  0.4667
  190SAPI  H13Y21950   2.582   5.370   4.680 -0.2160 -0.5462 -0.5296
  190SAPI  C31421951   2.777   5.419   4.621  0.1574 -0.3398  0.4661
  190SAPI  H14X21952   2.780   5.312   4.592  1.3836 -1.1166  3.1972
  190SAPI  H14Y21953   2.811   5.426   4.726  1.3084  1.1612  0.0191
  190SAPI  C31521954   2.871   5.497   4.534  1.0664 -0.3999  0.4411
  190SAPI  H15X21955   2.972   5.452   4.522  0.9604 -0.8001  1.0401
  190SAPI  H15Y21956   2.902   5.592   4.584  0.4595  0.8285 -1.4038
  190SAPI  C31621957   2.812   5.532   4.401 -0.3097 -0.3654 -0.6222
  190SAPI  H16X21958   2.715   5.583   4.418 -0.4035 -0.7862  0.1390
  190SAPI  H16Y21959   2.779   5.432   4.365 -3.3263  0.3214 -0.0192
  190SAPI  C31721960   2.909   5.614   4.314 -0.0764  0.2516 -0.0216
  190SAPI  H17X21961   2.996   5.553   4.284 -1.5275 -0.9624 -1.9988
  190SAPI  H17Y21962   2.955   5.695   4.374 -0.0555  0.0224  0.2740
  190SAPI  C31821963   2.864   5.679   4.182  0.3918 -0.5404  0.4673
  190SAPI  H18X21964   2.823   5.607   4.108 -0.9019 -0.5671  1.1760
  190SAPI  H18Y21965   2.944   5.741   4.136 -1.2725  0.1687 -1.6425
  190SAPI  H18Z21966   2.782   5.754   4.191  1.8954  1.6521 -2.6314
  191SAPI   C1221967   5.661   3.457   2.525 -0.4861  0.2693 -0.7384
  191SAPI    H221968   5.747   3.386   2.533  1.0148  2.0795 -0.2202
  191SAPI    O221969   5.646   3.524   2.655  0.0510  0.1476  0.2046
  191SAPI   HO221970   5.605   3.462   2.715 -1.1850  3.2580  2.8589
  191SAPI   C1321971   5.682   3.546   2.405  0.1410 -0.0270 -0.1031
  191SAPI    H321972   5.677   3.475   2.320 -0.2181  0.5901 -0.6046
  191SAPI    O321973   5.810   3.614   2.402 -0.0144  0.4455  0.0722
  191SAPI   HO321974   5.806   3.681   2.470  0.3903 -0.2161  0.7561
  191SAPI   C1421975   5.573   3.650   2.400  0.4693  0.7143 -0.4897
  191SAPI    H421976   5.569   3.692   2.503  1.8436 -0.3063  0.0101
  191SAPI    O421977   5.599   3.764   2.313 -0.1219 -0.5728  0.0874
  191SAPI   HO421978   5.681   3.802   2.345  0.0326  1.1307 -2.0915
  191SAPI   C1521979   5.440   3.582   2.373 -0.0499 -0.4824 -0.2817
  191SAPI    H521980   5.458   3.547   2.269  2.1026 -0.1884 -0.0437
  191SAPI    O521981   5.327   3.667   2.374  0.3594  0.2365 -0.0981
  191SAPI   HO521982   5.261   3.621   2.426 -1.1502 -0.0905 -2.1605
  191SAPI   C1621983   5.420   3.451   2.448 -0.0204  0.1651 -1.3940
  191SAPI    H621984   5.360   3.476   2.538 -0.6230  2.1219 -2.2739
  191SAPI    O621985   5.337   3.366   2.378 -0.0182  0.1478 -0.1918
  191SAPI   HO621986   5.367   3.277   2.397 -2.4223 -0.9858 -1.2866
  191SAPI   C1121987   5.543   3.362   2.483 -0.1090 -0.7044 -0.0941
  191SAPI    H121988   5.574   3.316   2.387  0.9547 -1.2443  0.5059
  191SAPI     P21989   5.460   3.114   2.552  0.1715 -0.0079  0.1549
  191SAPI   O1321990   5.377   3.097   2.425  0.1591 -0.1077 -0.1912
  191SAPI   O1421991   5.399   3.069   2.673 -0.0747  0.2402 -0.2719
  191SAPI   O1221992   5.508   3.267   2.584 -0.6432  0.7573  0.0969
  191SAPI   O1121993   5.599   3.051   2.525  0.0798 -0.3894  0.2961
  191SAPI    C121994   5.711   3.060   2.612 -0.0794 -0.2835 -0.2015
  191SAPI    HA21995   5.758   3.161   2.612  0.1216 -0.2334 -4.3470
  191SAPI    HB21996   5.681   3.030   2.715 -3.1417  0.4490 -0.7763
  191SAPI    C221997   5.819   2.969   2.559 -0.0027 -0.2211  0.6587
  191SAPI    HS21998   5.823   2.981   2.448 -1.2068 -1.1489  0.4888
  191SAPI   O2121999   5.773   2.831   2.579 -0.0748 -0.2345  0.1560
  191SAPI   C2122000   5.821   2.737   2.494 -0.1724 -0.1339 -0.0160
  191SAPI   O2222001   5.903   2.765   2.404  0.4962 -0.1604  0.5622
  191SAPI   C2222002   5.754   2.600   2.513 -0.4724  0.1469 -0.4026
  191SAPI   H2R22003   5.766   2.564   2.617  1.7009 -1.4509 -1.1167
  191SAPI   H2S22004   5.644   2.608   2.500 -0.4255 -0.7959 -1.5886
  191SAPI    C322005   5.953   3.008   2.629 -0.4038  0.4638  0.1129
  191SAPI    HX22006   5.968   3.117   2.614 -0.4112  0.5423  0.6297
  191SAPI    HY22007   6.042   2.963   2.581 -0.8819  1.0501 -1.3777
  191SAPI   O3122008   5.942   2.981   2.772  0.1707 -0.2826 -0.0124
  191SAPI   C3122009   6.048   3.013   2.850 -0.3126  0.2671 -0.2159
  191SAPI   O3222010   6.152   3.061   2.808 -0.2190  0.0378 -0.2645
  191SAPI   C3222011   6.011   2.982   2.998 -0.0650 -0.2370  0.4857
  191SAPI   H2X22012   5.990   2.875   3.014 -1.0071  0.1001  1.6152
  191SAPI   H2Y22013   5.918   3.038   3.023 -0.3508 -0.4416 -0.1075
  191SAPI   C2322014   5.813   2.485   2.431 -0.2225  0.1558  0.6970
  191SAPI   H3R22015   5.922   2.493   2.407 -0.3592  0.7114  0.2256
  191SAPI   H3S22016   5.770   2.502   2.330  0.8525  1.4999  0.4340
  191SAPI   C2422017   5.772   2.343   2.476  0.3894  0.3640  0.6112
  191SAPI   H4R22018   5.848   2.323   2.555  0.5580  0.7867  0.5547
  191SAPI   H4S22019   5.798   2.283   2.386  0.4314  0.5873  0.4747
  191SAPI   C2522020   5.630   2.326   2.522 -0.1519 -0.4437 -0.1996
  191SAPI   H5R22021   5.553   2.363   2.453  0.3581  0.3872 -0.3364
  191SAPI   C2622022   5.576   2.289   2.637  0.1798  0.0288 -0.0224
  191SAPI   H6R22023   5.467   2.299   2.654  0.3444 -0.5698  1.4767
  191SAPI   C2722024   5.662   2.229   2.743  0.0438 -0.0296 -1.2417
  191SAPI   H7R22025   5.702   2.320   2.793 -2.5322  0.9997 -0.8955
  191SAPI   H7S22026   5.752   2.179   2.701  0.5938  0.9916 -1.3083
  191SAPI   C2822027   5.603   2.137   2.853  0.2621  0.2799  0.5711
  191SAPI   H8R22028   5.533   2.060   2.816  0.0040 -0.3583  2.2988
  191SAPI   C2922029   5.603   2.150   2.989  0.6572 -0.1489  0.2631
  191SAPI   H9R22030   5.548   2.080   3.053  0.6698 -1.2137 -0.8428
  191SAPI  C21022031   5.673   2.268   3.064  1.1268 -0.4024  0.0069
  191SAPI  H10R22032   5.603   2.294   3.146  1.6184 -0.2214  0.3762
  191SAPI  H10S22033   5.665   2.356   2.997  1.5332 -0.2751  0.1194
  191SAPI  C21122034   5.812   2.259   3.120  0.0471  0.8452 -0.3422
  191SAPI  H11R22035   5.894   2.292   3.054 -0.0938  0.9066 -0.4890
  191SAPI  C21222036   5.852   2.202   3.233  0.1798 -0.0646  0.1001
  191SAPI  H12R22037   5.959   2.206   3.258  0.0278  2.5698  0.5295
  191SAPI  C21322038   5.762   2.144   3.342  0.5401  0.0295  0.1349
  191SAPI  H13R22039   5.734   2.040   3.315 -1.5206  0.5858 -0.0961
  191SAPI  H13S22040   5.661   2.191   3.334 -0.4298 -1.9045  0.4311
  191SAPI  C21422041   5.812   2.164   3.484  0.6612  0.2206 -0.2349
  191SAPI  H14R22042   5.778   2.260   3.526  1.4840  0.4287 -0.0170
  191SAPI  C21522043   5.887   2.083   3.559 -1.1381 -0.2497 -0.6538
  191SAPI  H15R22044   5.907   2.117   3.661  2.5326 -1.0259 -0.9953
  191SAPI  C21622045   5.959   1.958   3.519 -0.4893 -0.0038  0.0545
  191SAPI  H16R22046   5.986   1.950   3.411 -1.3713 -1.9896 -0.0614
  191SAPI  H16S22047   5.883   1.881   3.544 -0.7246  0.0938 -0.3463
  191SAPI  C21722048   6.094   1.930   3.586  0.8394 -0.0963  0.3042
  191SAPI  H17R22049   6.163   2.014   3.561  0.9625 -0.6322 -1.2587
  191SAPI  H17S22050   6.133   1.835   3.544  0.1427 -1.1760  1.9852
  191SAPI  C21822051   6.086   1.910   3.741 -0.2965 -0.5007 -0.3557
  191SAPI  H18R22052   6.047   1.812   3.775  1.4145 -1.2242 -0.3814
  191SAPI  H18S22053   6.022   1.990   3.786  1.6887  0.7286  0.4149
  191SAPI  C21922054   6.227   1.927   3.809  0.6533  0.4106  0.0349
  191SAPI  H19R22055   6.257   2.034   3.817  1.4350  0.4229 -2.2998
  191SAPI  H19S22056   6.305   1.880   3.746  0.3560  1.3874 -1.0993
  191SAPI  C22022057   6.240   1.864   3.950  0.6255  1.0602  0.0202
  191SAPI  H20R22058   6.346   1.842   3.975 -0.0983 -1.6650  1.1200
  191SAPI  H20S22059   6.191   1.764   3.942  0.0576  1.1745  1.6231
  191SAPI  H20T22060   6.177   1.919   4.023 -2.9969 -0.6070 -1.5607
  191SAPI   C3322061   6.110   3.035   3.106  0.1267 -0.2135 -0.4823
  191SAPI   H3X22062   6.147   3.139   3.091 -1.3643  0.0402 -2.9920
  191SAPI   H3Y22063   6.196   2.964   3.104  0.2636 -0.2326  2.2802
  191SAPI   C3422064   6.047   3.034   3.247 -0.0145 -0.1063  0.2079
  191SAPI   H4X22065   5.983   2.944   3.258  2.0011 -1.6875 -0.3588
  191SAPI   H4Y22066   5.983   3.124   3.257 -1.1060 -0.0279 -4.8114
  191SAPI   C3522067   6.163   3.014   3.350 -0.2914  0.1780  1.1410
  191SAPI   H5X22068   6.238   3.086   3.314 -1.9700  2.4817  1.9775
  191SAPI   H5Y22069   6.201   2.909   3.346  0.5272  0.5235 -0.9749
  191SAPI   C3622070   6.131   3.034   3.501 -0.4204 -0.3241  0.3923
  191SAPI   H6X22071   6.125   3.142   3.530  0.6946 -0.3687  0.8781
  191SAPI   H6Y22072   6.211   2.989   3.564 -0.6057 -0.6442  0.4001
  191SAPI   C3722073   6.003   2.961   3.545 -0.8002  0.1612  0.2475
  191SAPI   H7X22074   6.018   2.856   3.512  0.2535  1.3000 -3.3289
  191SAPI   H7Y22075   5.910   3.002   3.500 -0.1855 -0.0704 -1.3073
  191SAPI   C3822076   5.992   2.946   3.697 -0.1078 -0.7687  0.5982
  191SAPI   H8X22077   5.887   2.930   3.731 -0.5845  0.3350 -0.2897
  191SAPI   H8Y22078   6.016   3.044   3.742  0.7336 -0.9949  0.6622
  191SAPI   C3922079   6.071   2.831   3.763  0.0649 -0.2760  0.5149
  191SAPI   H9X22080   6.178   2.835   3.734  1.4033 -3.7131  4.1259
  191SAPI   H9Y22081   6.023   2.736   3.730  0.3336  0.0958 -1.0135
  191SAPI  C31022082   6.067   2.836   3.916  0.3475 -0.6232  0.1329
  191SAPI  H10X22083   5.961   2.836   3.950  0.4837 -0.2909  0.5628
  191SAPI  H10Y22084   6.108   2.935   3.945  0.2927 -0.4345 -0.4352
  191SAPI  C31122085   6.145   2.717   3.978 -0.5481  0.0555  0.3522
  191SAPI  H11X22086   6.248   2.735   3.940  0.0464 -0.0913  1.8148
  191SAPI  H11Y22087   6.114   2.616   3.945  0.3792 -0.8070  2.0114
  191SAPI  C31222088   6.159   2.721   4.128 -0.5696  0.0099 -0.0949
  191SAPI  H12X22089   6.063   2.702   4.180 -1.7637 -2.4179 -2.8348
  191SAPI  H12Y22090   6.199   2.822   4.149  0.8344 -0.1960 -1.5504
  191SAPI  C31322091   6.255   2.617   4.192  0.2046  0.6288 -0.0843
  191SAPI  H13X22092   6.361   2.627   4.159  0.3072  0.1441  0.0890
  191SAPI  H13Y22093   6.219   2.516   4.163 -1.1449  0.3439  2.2705
  191SAPI  C31422094   6.240   2.617   4.349  0.4537 -0.2628 -0.0976
  191SAPI  H14X22095   6.139   2.582   4.379  0.5524  0.4318  1.0987
  191SAPI  H14Y22096   6.254   2.723   4.381 -0.1260  0.1496 -1.1856
  191SAPI  C31522097   6.351   2.534   4.422 -0.1148  1.2144 -0.1256
  191SAPI  H15X22098   6.451   2.562   4.385  1.0651  0.6004  2.3531
  191SAPI  H15Y22099   6.324   2.426   4.418  0.3588  1.0991 -0.2226
  191SAPI  C31622100   6.339   2.564   4.568 -0.5660  0.4912 -0.6611
  191SAPI  H16X22101   6.248   2.523   4.618  0.9155 -2.5112 -0.1771
  191SAPI  H16Y22102   6.346   2.674   4.574 -2.2207  0.9520 -4.3367
  191SAPI  C31722103   6.439   2.493   4.661 -0.1050 -0.1701 -0.3508
  191SAPI  H17X22104   6.542   2.504   4.623 -0.7005 -0.7308 -2.2371
  191SAPI  H17Y22105   6.420   2.384   4.667 -0.4810 -0.3241 -3.1532
  191SAPI  C31822106   6.443   2.571   4.793 -0.4896 -0.3104 -0.2557
  191SAPI  H18X22107   6.348   2.561   4.849 -0.3085  1.0354  0.3247
  191SAPI  H18Y22108   6.466   2.678   4.774 -0.0442 -0.5662 -1.2157
  191SAPI  H18Z22109   6.517   2.522   4.861 -0.8530  1.6320  1.6292
  192SAPI   C1222110   2.971   3.689   1.617 -0.3978 -0.3985 -0.4104
  192SAPI    H222111   3.036   3.620   1.675 -2.1536 -1.5743  0.2687
  192SAPI    O222112   3.061   3.791   1.566 -1.2290 -0.0698  0.2599
  192SAPI   HO222113   3.153   3.769   1.583 -1.1060  0.1348 -0.1173
  192SAPI   C1322114   2.887   3.605   1.524  0.1088  0.9834  0.2165
  192SAPI    H322115   2.817   3.542   1.582  0.6794 -1.7758 -1.8515
  192SAPI    O322116   2.968   3.513   1.443 -0.2605 -0.4143 -0.4201
  192SAPI   HO322117   3.019   3.560   1.377 -0.4757 -1.3655 -1.2933
  192SAPI   C1422118   2.823   3.702   1.433  0.5078 -0.9782 -0.2661
  192SAPI    H422119   2.902   3.758   1.378 -0.1820  0.8252  0.5154
  192SAPI    O422120   2.739   3.645   1.331 -0.0308 -0.4414  0.3764
  192SAPI   HO422121   2.661   3.618   1.382  0.2773  1.6168  2.0949
  192SAPI   C1522122   2.741   3.802   1.517 -0.3659 -0.3387  0.0212
  192SAPI    H522123   2.650   3.749   1.552 -1.1985  0.9794 -0.0766
  192SAPI    O522124   2.684   3.912   1.443  0.0567 -0.2886 -0.3828
  192SAPI   HO522125   2.605   3.878   1.401 -1.9396 -0.1151  2.9012
  192SAPI   C1622126   2.801   3.858   1.653 -0.9095  0.2560 -0.2631
  192SAPI    H622127   2.870   3.943   1.637 -0.0934 -0.1481  0.9400
  192SAPI    O622128   2.709   3.915   1.745  0.6903  0.0312  0.8154
  192SAPI   HO622129   2.674   3.993   1.699 -0.2366 -0.9550 -0.2257
  192SAPI   C1122130   2.881   3.752   1.722  0.7551 -0.4022  0.0737
  192SAPI    H122131   2.807   3.678   1.760  0.0994 -0.4581 -1.2662
  192SAPI     P22132   3.020   3.721   1.952 -0.2407  0.4450 -0.0196
  192SAPI   O1322133   3.144   3.786   1.999 -0.5063 -0.7499 -0.2154
  192SAPI   O1422134   3.030   3.578   1.908 -0.3548  1.0887 -0.1483
  192SAPI   O1222135   2.964   3.810   1.827  0.0035 -0.3198  0.4001
  192SAPI   O1122136   2.918   3.737   2.072 -0.3086 -0.4113  0.4079
  192SAPI    C122137   2.800   3.664   2.084 -0.2281 -0.1429  0.3719
  192SAPI    HA22138   2.746   3.671   1.987  1.3918 -0.6191 -0.6070
  192SAPI    HB22139   2.826   3.559   2.106  1.6846  0.3102  0.4583
  192SAPI    C222140   2.695   3.716   2.186 -0.0232 -0.0746 -0.8452
  192SAPI    HS22141   2.668   3.818   2.151 -0.5187 -0.6116 -2.0725
  192SAPI   O2122142   2.765   3.714   2.316 -0.4744  0.3123  0.3386
  192SAPI   C2122143   2.726   3.800   2.408  0.1201  0.0639 -0.3453
  192SAPI   O2222144   2.652   3.893   2.376 -0.5150  0.0412 -0.1242
  192SAPI   C2222145   2.797   3.766   2.540 -0.5161  0.8340 -0.0351
  192SAPI   H2R22146   2.738   3.682   2.582 -1.4086  1.3501 -0.2254
  192SAPI   H2S22147   2.904   3.736   2.531 -0.9602 -0.6627 -0.6022
  192SAPI    C322148   2.565   3.635   2.176 -0.1398  0.0419  0.1789
  192SAPI    HX22149   2.544   3.618   2.069 -0.5102 -1.6278  0.4893
  192SAPI    HY22150   2.480   3.680   2.232 -0.3343 -0.4069  0.2460
  192SAPI   O3122151   2.583   3.501   2.222 -0.0114  0.0792  0.1377
  192SAPI   C3122152   2.565   3.480   2.349 -0.0493  0.8209 -0.3539
  192SAPI   O3222153   2.530   3.555   2.439 -0.1866 -0.1809 -0.0746
  192SAPI   C3222154   2.611   3.336   2.374  0.1393  0.1284 -0.1838
  192SAPI   H2X22155   2.705   3.320   2.318 -1.1417 -1.3534 -2.0365
  192SAPI   H2Y22156   2.534   3.269   2.332  1.7943 -1.3706 -0.9484
  192SAPI   C2322157   2.790   3.878   2.647 -0.2267  0.5153  0.0631
  192SAPI   H3R22158   2.788   3.832   2.749  4.4836  4.2699  2.2359
  192SAPI   H3S22159   2.693   3.931   2.639 -0.3907  0.4304  1.2957
  192SAPI   C2422160   2.908   3.974   2.623  0.4583  0.3344 -0.2098
  192SAPI   H4R22161   2.884   4.058   2.692  0.7055 -0.6765  1.1411
  192SAPI   H4S22162   2.895   4.007   2.518  2.9445  1.9218 -0.0964
  192SAPI   C2522163   3.050   3.926   2.649 -0.3838  0.2021  0.6360
  192SAPI   H5R22164   3.074   3.850   2.573  0.0582  1.4369 -0.5205
  192SAPI   C2622165   3.145   3.967   2.737  0.5116  0.1400 -0.3531
  192SAPI   H6R22166   3.243   3.917   2.731  0.0621 -0.8338  0.0165
  192SAPI   C2722167   3.123   4.073   2.842 -0.0400 -0.2537  0.5353
  192SAPI   H7R22168   3.086   4.033   2.938  0.1525  0.6912  1.0115
  192SAPI   H7S22169   3.046   4.147   2.810 -0.3183 -0.3230  1.0458
  192SAPI   C2822170   3.252   4.148   2.867  0.0107 -0.2036  0.7720
  192SAPI   H8R22171   3.278   4.230   2.798 -0.7452  0.2812  1.0482
  192SAPI   C2922172   3.354   4.112   2.949 -0.3858  0.3733  0.2085
  192SAPI   H9R22173   3.436   4.184   2.965 -0.4590  0.2795  1.0093
  192SAPI  C21022174   3.344   3.999   3.041 -0.1622 -0.0941 -0.4144
  192SAPI  H10R22175   3.240   3.986   3.079  0.0209 -0.3677 -0.0018
  192SAPI  H10S22176   3.400   4.017   3.135  0.1723 -0.9945 -0.4238
  192SAPI  C21122177   3.405   3.880   2.978  0.2175  0.4825  0.5223
  192SAPI  H11R22178   3.353   3.844   2.889  0.1612 -0.0067  0.7484
  192SAPI  C21222179   3.513   3.809   3.021  0.2182  0.3959  0.2213
  192SAPI  H12R22180   3.539   3.735   2.944 -0.5056 -0.4047  0.7315
  192SAPI  C21322181   3.596   3.812   3.150 -0.0222  0.0654 -0.4927
  192SAPI  H13R22182   3.661   3.901   3.150 -0.2391  0.2473  0.8529
  192SAPI  H13S22183   3.678   3.737   3.151  1.1405  1.3132  0.1631
  192SAPI  C21422184   3.521   3.817   3.281 -0.1474 -0.0367 -0.4677
  192SAPI  H14R22185   3.413   3.841   3.276  0.0469  1.0351  0.2222
  192SAPI  C21522186   3.569   3.791   3.403  0.6753  0.4415  0.0679
  192SAPI  H15R22187   3.507   3.789   3.494  0.4251 -1.8578 -0.0874
  192SAPI  C21622188   3.709   3.755   3.437 -0.1645  1.0057 -0.2976
  192SAPI  H16R22189   3.775   3.786   3.354  1.0985 -0.3844  0.1398
  192SAPI  H16S22190   3.728   3.646   3.437  2.8977  1.4690 -1.0447
  192SAPI  C21722191   3.751   3.812   3.574 -0.6485 -0.5014  0.0679
  192SAPI  H17R22192   3.694   3.772   3.661  0.3114  1.4904  1.6955
  192SAPI  H17S22193   3.727   3.920   3.570  0.1062 -0.2883  0.8342
  192SAPI  C21822194   3.895   3.789   3.613  0.4526  0.3270 -0.0267
  192SAPI  H18R22195   3.908   3.839   3.712  1.9365  1.2376 -0.6457
  192SAPI  H18S22196   3.957   3.849   3.543 -1.0429  0.3219 -1.4222
  192SAPI  C21922197   3.937   3.646   3.630 -0.2160 -0.5186 -0.2371
  192SAPI  H19R22198   4.047   3.641   3.645 -0.0542  2.0780 -0.0180
  192SAPI  H19S22199   3.933   3.595   3.531 -1.3404  0.7623 -0.8900
  192SAPI  C22022200   3.857   3.558   3.730  0.3338  0.0174 -0.5239
  192SAPI  H20R22201   3.754   3.549   3.690  0.2682 -0.3656 -0.2682
  192SAPI  H20S22202   3.858   3.607   3.830  2.7338 -1.5590  0.3134
  192SAPI  H20T22203   3.904   3.457   3.728  0.3203  0.0043 -2.7304
  192SAPI   C3322204   2.624   3.304   2.527  0.1596 -0.4377 -0.2434
  192SAPI   H3X22205   2.602   3.196   2.537 -0.8827 -0.3783 -1.5924
  192SAPI   H3Y22206   2.538   3.347   2.583 -1.4238 -1.7795 -1.5428
  192SAPI   C3422207   2.751   3.337   2.605 -0.1383 -0.5545 -0.0945
  192SAPI   H4X22208   2.758   3.447   2.614  0.8023 -0.4755 -1.5013
  192SAPI   H4Y22209   2.844   3.294   2.561  1.5549  2.1237  0.6185
  192SAPI   C3522210   2.748   3.287   2.756  0.5917 -0.4334 -0.3948
  192SAPI   H5X22211   2.840   3.323   2.808 -0.6980  0.1917  1.5560
  192SAPI   H5Y22212   2.756   3.177   2.770  0.9365 -0.1391  2.3549
  192SAPI   C3622213   2.638   3.347   2.846 -0.0046  0.5252 -1.0202
  192SAPI   H6X22214   2.535   3.320   2.815  0.7632 -0.4573 -2.8988
  192SAPI   H6Y22215   2.653   3.456   2.860  0.1484  0.1495  2.7431
  192SAPI   C3722216   2.652   3.303   2.996 -0.0786  0.2317 -0.4565
  192SAPI   H7X22217   2.734   3.358   3.045  0.1645 -1.2456  0.8735
  192SAPI   H7Y22218   2.673   3.194   2.986  2.5131  0.4777  1.3086
  192SAPI   C3822219   2.526   3.324   3.083 -0.1103  0.3050  0.7791
  192SAPI   H8X22220   2.430   3.298   3.035  0.3252 -0.9965  0.5684
  192SAPI   H8Y22221   2.530   3.435   3.096 -1.5009  0.8776 -2.5917
  192SAPI   C3922222   2.519   3.249   3.219  0.9422 -0.3948  0.1364
  192SAPI   H9X22223   2.617   3.277   3.262  0.7127  1.8206 -0.6803
  192SAPI   H9Y22224   2.515   3.139   3.203 -0.2294 -0.3886  0.3455
  192SAPI  C31022225   2.400   3.292   3.308  0.5732 -0.1357 -0.4498
  192SAPI  H10X22226   2.307   3.253   3.261 -0.5417  3.4350 -1.4684
  192SAPI  H10Y22227   2.388   3.402   3.308  0.4211 -0.1233  1.6101
  192SAPI  C31122228   2.398   3.234   3.451  0.2416  0.3012  0.3886
  192SAPI  H11X22229   2.316   3.273   3.515 -1.8569 -0.9164 -1.3903
  192SAPI  H11Y22230   2.495   3.264   3.496 -0.4171  1.6563  0.9573
  192SAPI  C31222231   2.412   3.080   3.443 -0.2516  0.8868  0.0818
  192SAPI  H12X22232   2.501   3.052   3.382 -1.1306 -2.5586  0.1888
  192SAPI  H12Y22233   2.326   3.037   3.389  1.0957  1.1303 -2.4285
  192SAPI  C31322234   2.433   3.006   3.576  0.3774  0.3095 -0.7307
  192SAPI  H13X22235   2.432   2.897   3.553 -1.1127  0.6158 -2.3477
  192SAPI  H13Y22236   2.335   3.027   3.625  0.4389  1.3999 -1.0507
  192SAPI  C31422237   2.553   3.031   3.667 -0.5339  0.0416 -0.2885
  192SAPI  H14X22238   2.534   2.972   3.759  0.0643 -1.4318 -1.0807
  192SAPI  H14Y22239   2.540   3.137   3.695  1.7639 -0.2991  2.4383
  192SAPI  C31522240   2.689   3.004   3.601 -0.1427  0.6758 -0.1164
  192SAPI  H15X22241   2.765   3.012   3.681 -0.5136 -1.4939  0.5276
  192SAPI  H15Y22242   2.718   3.070   3.517 -2.2476  0.5849 -0.9759
  192SAPI  C31622243   2.706   2.869   3.531 -0.1247  0.0271 -0.7644
  192SAPI  H16X22244   2.661   2.874   3.429 -0.2484 -0.1947 -0.7219
  192SAPI  H16Y22245   2.669   2.779   3.585  1.0838  0.5732  1.0772
  192SAPI  C31722246   2.852   2.827   3.501  0.5890 -0.1660  0.4503
  192SAPI  H17X22247   2.898   2.793   3.596 -1.9137  0.2516  1.8944
  192SAPI  H17Y22248   2.901   2.917   3.458 -1.6605  0.6517 -0.5719
  192SAPI  C31822249   2.853   2.707   3.398  0.3355  0.1008 -0.1799
  192SAPI  H18X22250   2.956   2.682   3.366 -0.0363 -0.1162 -1.2463
  192SAPI  H18Y22251   2.800   2.730   3.303  0.3349  1.3635  0.0987
  192SAPI  H18Z22252   2.812   2.616   3.445  1.9948 -1.1808 -1.1158
  193SOD    SOD22253   3.336   6.563   6.594 -0.2711  0.7271 -0.2008
  194SOD    SOD22254   4.652   4.794   6.473 -0.5784  0.1306 -0.1896
  195SOD    SOD22255   6.379   5.510   1.344 -0.4692  0.0418  0.0851
  196SOD    SOD22256   6.232   3.771   8.388  0.6538 -0.1764 -0.4113
  197SOD    SOD22257   1.534   0.420   6.579  0.4978 -0.1687 -0.4722
  198SOD    SOD22258   1.035   1.330   6.333  0.0349 -0.0520  0.5562
  199SOD    SOD22259   2.500   4.501   0.264 -0.1245  0.1050 -0.2734
  200SOD    SOD22260   0.664   0.531   0.243 -0.4164 -0.1611  0.0733
  201SOD    SOD22261   2.917   3.800   6.688  0.1636 -0.4065  0.9435
  202SOD    SOD22262   4.849   0.502   8.548  0.1323 -0.2198 -0.3562
  203SOD    SOD22263   6.652   5.244   7.908 -0.0942 -0.3905  0.3912
  204SOD    SOD22264   4.604   1.327   0.938  0.0638  0.1511 -0.0500
  205SOD    SOD22265   1.946   4.864   0.976  0.8013  0.1608  0.1417
  206SOD    SOD22266   3.834   6.777   8.098 -0.0494  0.6106  0.0329
  207SOD    SOD22267   3.558   6.380   1.620  0.1933 -0.1714 -0.2358
  208SOD    SOD22268   1.203   0.624   0.142  0.4667 -0.1436 -0.1803
  209SOD    SOD22269   1.855   3.632   2.367 -0.3002  0.1282  0.3552
  210SOD    SOD22270   2.803   1.568   6.724  0.7143 -0.4297  0.1890
  211SOD    SOD22271   6.207   1.926   0.517 -0.2537  0.1556 -0.1560
  212SOD    SOD22272   4.353   1.844   7.554  0.6708 -0.0757  0.3177
  213SOD    SOD22273   5.894   0.551   1.191 -0.0787 -0.0833 -0.4910
  214SOD    SOD22274   5.961   6.101   0.537  0.1476  0.2065 -0.1624
  215SOD    SOD22275   5.106   5.505   7.304  0.3632  0.7361 -0.2350
  216SOD    SOD22276   6.866   4.072   1.206  0.5236 -0.1609 -0.2030
  217SOD    SOD22277   4.174   3.146   6.691 -0.4141 -0.4713  0.0189
  218SOD    SOD22278   6.100   2.063   0.986  0.0428  0.1165 -0.0781
  219SOD    SOD22279   1.415   3.747   7.100 -0.2790  0.0070  0.4007
  220SOD    SOD22280   3.297   2.010   7.040  0.3502 -0.0008 -0.2173
  221SOD    SOD22281   0.077   3.267   2.236  0.1330 -0.2412  0.1112
  222SOD    SOD22282   4.702   3.345   1.469  0.0193  0.3954 -0.4444
  223SOD    SOD22283   4.278   1.755   6.537  0.1501 -0.0244  0.2340
  224SOD    SOD22284   5.573   3.142   2.036 -0.2387  1.0675  0.3385
  225SOD    SOD22285   1.036   6.351   1.777  0.0057 -0.4598 -0.0163
  226SOD    SOD22286   2.286   1.942   1.586  0.5676 -0.3342  0.6401
  227SOD    SOD22287   1.920   0.799   2.132  0.1876 -0.1885 -0.3612
  228SOD    SOD22288   5.547   1.120   7.145  0.2111 -0.5086 -0.1934
  229SOD    SOD22289   3.842   3.242   8.013 -0.6992 -0.4561  0.2740
  230SOD    SOD22290   6.606   4.311   7.829 -0.5761 -0.1200  0.1349
  231SOD    SOD22291   1.448   4.253   1.352  0.1044 -0.0370  0.0602
  232SOD    SOD22292   5.933   3.585   8.286  0.0233 -0.2981 -0.4058
  233SOD    SOD22293   3.515   2.617   6.272 -1.0647 -0.2022  0.0351
  234CLA    CLA22294   1.115   0.155   0.933  0.5335 -0.3787 -0.3448
  235CLA    CLA22295   6.199   3.521   8.297 -0.1268  0.4309  0.1860
  236CLA    CLA22296   4.647   2.567   7.595  0.4822 -0.3872 -0.0738
  237CLA    CLA22297   4.843   5.291   0.296  0.2040 -0.1269 -0.0755
  238CLA    CLA22298   0.705   4.868   0.446  0.3004 -0.2263 -0.0721
  239CLA    CLA22299   0.241   5.404   8.154  0.1208 -0.4760 -0.2047
  240CLA    CLA22300   2.473   5.087   0.858 -0.3474  0.6206 -0.0055
  241CLA    CLA22301   1.134   2.397   7.284 -0.2322 -0.0628  0.3795
  242CLA    CLA22302   0.248   1.161   8.426  0.0523 -0.1488 -0.4741
  243CLA    CLA22303   5.631   2.732   1.710  0.2659 -0.3163 -0.1120
  244CLA    CLA22304   3.739   1.921   7.302 -0.2848 -0.2853  0.1621
  245CLA    CLA22305   5.145   1.334   8.507  0.1119 -0.0500 -0.1079
  246CLA    CLA22306   4.926   0.230   0.333  0.0719 -0.0030 -0.1537
  247CLA    CLA22307   2.200   2.301   8.632  0.1355 -0.3132 -0.0199
  248CLA    CLA22308   2.877   4.951   0.037 -0.1457 -0.1270 -0.1577
  249CLA    CLA22309   2.878   1.701   0.506  0.1530  0.0473 -0.1421
  250CLA    CLA22310   0.737   4.046   7.963 -0.0037  0.3140  0.1175
  251TIP3   OH222311   5.596   4.396   6.517  0.2614  0.1625  0.2650
  251TIP3    H122312   5.692   4.401   6.521  0.1887  0.5471  2.7238
  251TIP3    H222313   5.578   4.304   6.496  1.1192  0.4465 -2.1042
  252TIP3   OH222314   0.490   1.261   7.912  0.5358 -0.1040 -0.5976
  252TIP3    H122315   0.401   1.264   7.878 -0.4491  1.8522  1.7788
  252TIP3    H222316   0.534   1.335   7.870  0.0941  0.7152  0.3114
  253TIP3   OH222317   0.355   3.071   6.409  0.3130 -0.6801  0.3799
  253TIP3    H122318   0.385   3.114   6.329 -0.9306 -0.1661  0.1524
  253TIP3    H222319   0.285   3.012   6.379  0.4346 -1.1432  0.9871
  254TIP3   OH222320   1.361   0.648   1.670 -0.1340  0.6028 -0.5585
  254TIP3    H122321   1.314   0.689   1.597  0.3854  1.6679 -0.3116
  254TIP3    H222322   1.382   0.721   1.729  1.9496  0.1949 -0.7456
  255TIP3   OH222323   2.253   5.973   6.923 -0.6289  0.0942 -0.2663
  255TIP3    H122324   2.273   5.931   6.839 -0.0080  0.9002 -0.5304
  255TIP3    H222325   2.319   5.939   6.983 -0.9572 -0.3380 -0.1473
  256TIP3   OH222326   5.410   2.557   1.516  0.6612  0.8936  0.1845
  256TIP3    H122327   5.412   2.465   1.489 -0.8367  0.5916  0.9690
  256TIP3    H222328   5.488   2.569   1.570 -0.2222 -0.5655  1.9076
  257TIP3   OH222329   6.008   6.782   7.650  0.2127 -0.5103 -0.8729
  257TIP3    H122330   5.983   6.866   7.689  0.2856 -0.9780  0.2092
  257TIP3    H222331   6.102   6.775   7.668  0.2721 -0.6809 -1.2467
  258TIP3   OH222332   5.264   2.359   2.432  0.4560  0.6739 -0.2806
  258TIP3    H122333   5.277   2.453   2.426 -1.4242  1.0097  0.3608
  258TIP3    H222334   5.279   2.327   2.343  2.6409  1.3035 -0.2111
  259TIP3   OH222335   5.562   2.278   1.117 -0.2391 -0.3040  0.1010
  259TIP3    H122336   5.577   2.366   1.152  0.1841 -0.2984 -0.0948
  259TIP3    H222337   5.466   2.269   1.118 -0.2860  0.1471  0.1529
  260TIP3   OH222338   1.851   6.258   7.259 -0.1613 -0.4539  0.4753
  260TIP3    H122339   1.859   6.213   7.175  1.7352  0.1450  0.2901
  260TIP3    H222340   1.928   6.314   7.264 -0.8676  0.4475  2.0861
  261TIP3   OH222341   6.660   4.889   7.201 -0.8969 -0.0723  0.4382
  261TIP3    H122342   6.569   4.909   7.179 -1.4283 -2.6321  0.0530
  261TIP3    H222343   6.655   4.836   7.281  0.2375 -0.3793  0.3237
  262TIP3   OH222344   2.312   1.983   6.493 -0.1075  0.1293 -0.8173
  262TIP3    H122345   2.251   1.910   6.498 -1.6249  1.3728 -0.3728
  262TIP3    H222346   2.392   1.950   6.535 -1.1966 -0.8545  0.5785
  263TIP3   OH222347   1.815   4.800   6.729 -0.3681 -0.4454 -0.6301
  263TIP3    H122348   1.864   4.879   6.706 -1.3617  0.0735 -1.0453
  263TIP3    H222349   1.881   4.733   6.741  0.4457  0.2658 -1.0474
  264TIP3   OH222350   3.432   3.406   1.376 -0.4380  0.0066  0.3514
  264TIP3    H122351   3.446   3.383   1.468 -0.6177  1.4812  0.7588
  264TIP3    H222352   3.403   3.497   1.378 -2.7103 -0.6208 -1.0150
  265TIP3   OH222353   6.744   5.054   7.998  0.3333  0.1612 -0.0060
  265TIP3    H122354   6.722   4.970   7.959 -1.0489  0.3014  0.3949
  265TIP3    H222355   6.722   5.044   8.091  0.5509  0.8295  0.1243
  266TIP3   OH222356   3.614   2.561   6.471  0.0441  0.2060 -0.2077
  266TIP3    H122357   3.682   2.617   6.509  0.0276 -0.6945  1.2026
  266TIP3    H222358   3.561   2.534   6.546 -0.2803 -1.2559 -0.9421
  267TIP3   OH222359   1.526   6.158   6.309 -0.3626 -0.3218  0.4073
  267TIP3    H122360   1.549   6.066   6.314 -0.1472 -0.3727 -1.0870
  267TIP3    H222361   1.600   6.199   6.265  0.1020  0.8027  2.1414
  268TIP3   OH222362   4.979   3.043   1.396 -0.0259  0.0841  0.6187
  268TIP3    H122363   4.888   3.051   1.426  0.1815 -0.2069  1.3493
  268TIP3    H222364   5.002   3.130   1.364  0.1035  0.7213  2.3813
  269TIP3   OH222365   0.351   1.447   6.233 -0.6719 -0.3915  0.1943
  269TIP3    H122366   0.345   1.448   6.329 -0.1729  0.3828  0.2259
  269TIP3    H222367   0.292   1.517   6.205 -1.3021 -1.0251 -0.1092
  270TIP3   OH222368   6.190   6.330   1.615 -0.4213 -0.6395 -0.0623
  270TIP3    H122369   6.112   6.376   1.647 -0.6070 -1.7563  1.1766
  270TIP3    H222370   6.173   6.238   1.635  1.4888 -0.8414  0.8407
  271TIP3   OH222371   2.301   2.224   6.368 -0.3196  0.0153  0.3858
  271TIP3    H122372   2.267   2.215   6.279  0.3981  0.6243  0.0315
  271TIP3    H222373   2.272   2.145   6.413  1.7549 -1.8154 -1.2223
  272TIP3   OH222374   6.648   0.228   7.078 -0.0986 -0.6165 -0.1792
  272TIP3    H122375   6.606   0.306   7.115  0.1641 -1.1021  1.2100
  272TIP3    H222376   6.614   0.222   6.989 -2.3585 -0.5128  0.6014
  273TIP3   OH222377   1.228   4.392   0.805  0.3419  0.0264 -0.1633
  273TIP3    H122378   1.223   4.482   0.773 -0.9677  0.0454  0.0399
  273TIP3    H222379   1.153   4.348   0.765  0.6907 -0.8453  0.1270
  274TIP3   OH222380   6.603   1.543   0.018  0.0692  0.0210 -0.1946
  274TIP3    H122381   6.677   1.483   0.013  1.1960  1.4435 -1.3891
  274TIP3    H222382   6.638   1.628  -0.009 -1.5021  1.2217  1.2577
  275TIP3   OH222383   6.616   2.448   6.642  0.4243  0.2369  0.1060
  275TIP3    H122384   6.572   2.387   6.702  0.8314  0.0248  0.1919
  275TIP3    H222385   6.709   2.436   6.660  0.4894  1.5095  0.7287
  276TIP3   OH222386   1.820   2.111   0.793  0.6629 -0.5827  0.4538
  276TIP3    H122387   1.861   2.180   0.845  1.9224 -1.4425  0.6591
  276TIP3    H222388   1.808   2.039   0.854 -0.7116 -0.5382  0.2603
  277TIP3   OH222389   3.782   4.893   7.734  0.4705  0.3828  0.2581
  277TIP3    H122390   3.742   4.919   7.817  0.0195 -0.7824  0.4268
  277TIP3    H222391   3.867   4.855   7.759 -0.1943 -1.1285  0.3452
  278TIP3   OH222392   5.741   6.570   1.111  0.1796  0.8229 -0.0798
  278TIP3    H122393   5.801   6.512   1.064 -0.9860  0.3879 -1.1018
  278TIP3    H222394   5.788   6.653   1.118  0.0480  1.2843 -3.0819
  279TIP3   OH222395   6.662   4.471   7.994  0.4610 -0.9566  0.3566
  279TIP3    H122396   6.615   4.453   8.076 -1.3053  0.8990 -0.1496
  279TIP3    H222397   6.747   4.505   8.021 -0.2737  0.0658  1.4536
  280TIP3   OH222398   2.311   0.609   8.423  0.0337  0.5621 -0.4922
  280TIP3    H122399   2.297   0.569   8.509 -1.1679  0.5472 -0.6640
  280TIP3    H222400   2.332   0.535   8.366 -1.9996  0.1205 -0.7677
  281TIP3   OH222401   0.207   6.552   6.758 -0.2164  0.2119  0.3523
  281TIP3    H122402   0.124   6.561   6.805 -0.5186  1.3605 -0.3535
  281TIP3    H222403   0.182   6.514   6.673  0.2518 -1.3253  0.8803
  282TIP3   OH222404   0.213   6.849   7.267  0.7743  0.4932  0.1820
  282TIP3    H122405   0.196   6.838   7.361 -0.3990  0.2225 -0.0379
  282TIP3    H222406   0.132   6.887   7.233  1.3584  1.0261 -0.6509
  283TIP3   OH222407   0.244   5.721   7.599  0.5029 -0.4300 -0.0895
  283TIP3    H122408   0.171   5.693   7.653  1.0397 -3.4135 -0.7581
  283TIP3    H222409   0.321   5.709   7.655  0.6842  1.3881  0.1382
  284TIP3   OH222410   6.243   5.683   1.759  0.1231 -0.3596  0.5246
  284TIP3    H122411   6.237   5.619   1.830 -0.6339  0.0832  0.8728
  284TIP3    H222412   6.267   5.765   1.804  1.0055 -0.3691  0.0971
  285TIP3   OH222413   0.510   0.668   0.335  0.0878  0.1788 -0.0955
  285TIP3    H122414   0.527   0.693   0.426  0.9095 -0.5413 -0.0409
  285TIP3    H222415   0.445   0.731   0.305  1.9431  2.2783  0.0779
  286TIP3   OH222416   3.952   3.038   8.058  0.1061  0.2580 -0.6276
  286TIP3    H122417   4.023   3.039   8.122  2.0924  1.5097 -2.7055
  286TIP3    H222418   3.982   2.978   7.989 -0.7044  1.0241 -1.6882
  287TIP3   OH222419   2.839   1.000   0.946  0.5679 -0.3339 -0.3114
  287TIP3    H122420   2.922   0.995   0.992  0.7443  2.1006 -0.2609
  287TIP3    H222421   2.811   0.909   0.937  2.8676 -1.1554  0.3033
  288TIP3   OH222422   6.677   3.402   2.839  0.1969  0.1538  0.1033
  288TIP3    H122423   6.688   3.310   2.814  0.5980  0.3130 -0.3388
  288TIP3    H222424   6.585   3.420   2.823  0.6709  0.6263 -2.7056
  289TIP3   OH222425   6.073   6.173   6.849  0.0089  0.0500 -0.1079
  289TIP3    H122426   6.019   6.109   6.895  0.2480 -0.6975 -0.8413
  289TIP3    H222427   6.162   6.155   6.880 -0.0992  1.0618  0.8494
  290TIP3   OH222428   5.233   5.471   1.338  0.0572 -0.2654 -0.1001
  290TIP3    H122429   5.299   5.424   1.288 -1.5949 -1.8281 -0.9343
  290TIP3    H222430   5.240   5.437   1.427  0.3023 -0.5058 -0.2107
  291TIP3   OH222431   3.573   0.497   1.140 -0.7142 -0.1067 -0.4702
  291TIP3    H122432   3.504   0.439   1.171 -0.3805 -0.7266 -0.8656
  291TIP3    H222433   3.589   0.557   1.213  1.2211 -2.5708  1.2853
  292TIP3   OH222434   5.874   5.915   2.095 -0.2932 -0.3756  0.5823
  292TIP3    H122435   5.934   5.961   2.154 -1.3069  2.0873 -0.1565
  292TIP3    H222436   5.930   5.855   2.045  2.1844  3.3737 -1.6862
  293TIP3   OH222437   0.281   0.882   0.833  0.1688 -0.0992  0.0228
  293TIP3    H122438   0.285   0.788   0.851 -0.5801 -0.6175 -2.1744
  293TIP3    H222439   0.372   0.908   0.822  0.5743 -0.0113  2.8621
  294TIP3   OH222440   1.510   4.613   8.348  0.3071  0.4552 -0.0867
  294TIP3    H122441   1.474   4.691   8.305  0.4273  0.6912  0.2433
  294TIP3    H222442   1.441   4.547   8.339 -0.9309  1.3730  1.9994
  295TIP3   OH222443   6.697   6.194   7.304  0.1806  0.0694 -0.0567
  295TIP3    H122444   6.676   6.284   7.326 -0.5969  0.4062 -1.9569
  295TIP3    H222445   6.692   6.147   7.387 -1.4830  1.3904  0.6533
  296TIP3   OH222446   3.134   6.404   8.435 -0.1764  0.1442 -0.0514
  296TIP3    H122447   3.183   6.408   8.353  0.4178  1.2622  0.3439
  296TIP3    H222448   3.067   6.337   8.420  0.0331  0.2189 -1.3790
  297TIP3   OH222449   3.015   0.194   6.593  0.3745  0.1969 -0.2472
  297TIP3    H122450   2.997   0.103   6.617  0.7263 -0.2004 -1.4369
  297TIP3    H222451   3.111   0.199   6.590  0.3541  0.6011 -0.2339
  298TIP3   OH222452   0.128   4.342   7.054 -0.2112  0.1187  0.2437
  298TIP3    H122453   0.071   4.272   7.024 -0.0709 -0.2764  0.8755
  298TIP3    H222454   0.215   4.302   7.059 -0.1012  0.3793  0.4537
  299TIP3   OH222455   5.199   0.334   7.923 -0.2443 -0.0491  0.2186
  299TIP3    H122456   5.246   0.353   7.842 -0.3158  1.2963  0.4789
  299TIP3    H222457   5.165   0.418   7.952 -1.6025 -0.7726  0.8039
  300TIP3   OH222458   3.988   2.064   0.932 -0.1314  0.3887 -0.2768
  300TIP3    H122459   4.069   2.087   0.977 -0.4118  0.3631  0.2390
  300TIP3    H222460   4.008   1.981   0.888 -0.3365 -0.4037  1.0864
  301TIP3   OH222461   2.884   5.672   8.017  0.4388 -0.1295 -0.2049
  301TIP3    H122462   2.913   5.585   8.042 -1.1711 -0.3762  0.9124
  301TIP3    H222463   2.789   5.665   8.011  0.3198  1.4377 -0.5738
  302TIP3   OH222464   6.206   0.580   7.247  0.5307  0.3546  0.0440
  302TIP3    H122465   6.225   0.497   7.289 -0.2440 -1.7062 -3.3001
  302TIP3    H222466   6.261   0.581   7.168 -0.4761  2.3656 -0.7141
  303TIP3   OH222467   3.867   0.526   7.698 -0.6503 -0.2726 -0.0927
  303TIP3    H122468   3.823   0.609   7.718 -1.6190 -1.0793  1.3508
  303TIP3    H222469   3.797   0.461   7.700  0.2060 -1.2344 -0.4602
  304TIP3   OH222470   6.405   6.520   6.500 -0.4801  0.3430  0.1994
  304TIP3    H122471   6.491   6.545   6.536  0.3495 -0.8363 -0.9009
  304TIP3    H222472   6.416   6.528   6.405 -1.5514  0.0178  0.0434
  305TIP3   OH222473   2.288   2.483   8.398 -0.2862  0.3000  0.1897
  305TIP3    H122474   2.345   2.553   8.430  0.0616 -0.3410  1.0139
  305TIP3    H222475   2.255   2.441   8.478 -2.5884  1.1624 -0.2308
  306TIP3   OH222476   3.343   0.510   1.633  0.0556 -0.3694 -0.2829
  306TIP3    H122477   3.264   0.559   1.652  0.4255 -0.2088  0.9145
  306TIP3    H222478   3.407   0.541   1.697  1.2643 -0.0880 -1.5814
  307TIP3   OH222479   4.800   6.233   1.161  0.0424 -0.0790 -0.2089
  307TIP3    H122480   4.888   6.201   1.146 -0.6432 -1.8690 -0.7034
  307TIP3    H222481   4.767   6.257   1.074 -0.3919 -0.6855 -0.2228
  308TIP3   OH222482   4.476   3.919   7.081 -0.1090  0.2083  0.3888
  308TIP3    H122483   4.486   3.829   7.112  1.1664  0.4626  0.7991
  308TIP3    H222484   4.386   3.942   7.101 -0.0351 -0.4964  1.6036
  309TIP3   OH222485   0.144   5.949   7.861  0.1815  0.0205  0.4521
  309TIP3    H122486   0.180   5.943   7.950 -0.6246  0.7605  0.8426
  309TIP3    H222487   0.213   5.992   7.810  0.6132 -0.3251  0.7313
  310TIP3   OH222488   5.817   0.503   8.520 -0.3913 -0.4499 -0.5587
  310TIP3    H122489   5.858   0.422   8.550  1.9247  0.6065 -0.6046
  310TIP3    H222490   5.723   0.490   8.533  0.1476 -1.5457  3.4531
  311TIP3   OH222491   0.242   4.406   1.654  0.1125  0.2163 -0.3101
  311TIP3    H122492   0.303   4.350   1.702  1.9061  0.5044 -2.0723
  311TIP3    H222493   0.187   4.446   1.721  0.2526 -1.9056  1.1715
  312TIP3   OH222494   2.032   3.216   6.994 -0.3671 -0.1664  0.7336
  312TIP3    H122495   1.953   3.207   6.942 -0.1252  0.3685  0.2586
  312TIP3    H222496   2.007   3.274   7.066 -0.8033 -1.2156  1.4363
  313TIP3   OH222497   1.318   4.363   2.043 -0.0943  0.0189 -0.0616
  313TIP3    H122498   1.296   4.285   1.991 -1.6237  1.2568 -1.3884
  313TIP3    H222499   1.302   4.337   2.134  0.9047 -1.6593 -0.3262
  314TIP3   OH222500   4.683   0.602   0.462 -0.1427  0.3034 -0.7175
  314TIP3    H122501   4.593   0.574   0.444  0.2210 -2.1450  0.8068
  314TIP3    H222502   4.677   0.651   0.544  0.1158 -1.7558  0.5988
  315TIP3   OH222503   3.918   1.674   7.004  0.1951 -0.4758 -0.1393
  315TIP3    H122504   3.890   1.603   7.061 -1.4965  0.4378  0.2376
  315TIP3    H222505   3.933   1.748   7.062 -2.5972  0.7880 -0.8511
  316TIP3   OH222506   1.130   5.076   2.550  0.4880 -0.3403  0.1901
  316TIP3    H122507   1.098   4.988   2.573  0.4688 -0.7164 -1.1472
  316TIP3    H222508   1.050   5.127   2.535  0.3400 -1.2908 -3.1890
  317TIP3   OH222509   1.907   5.290   0.623 -0.3990  1.2374  0.4933
  317TIP3    H122510   1.957   5.260   0.547  1.9189  0.6014  2.1477
  317TIP3    H222511   1.846   5.219   0.641  2.8298 -1.3915  2.4129
  318TIP3   OH222512   0.760   5.981   0.996  0.1177  0.7662  0.0050
  318TIP3    H122513   0.775   5.951   1.085 -0.2043  1.1261  0.1826
  318TIP3    H222514   0.772   6.076   1.000  0.3286  0.7617 -0.3836
  319TIP3   OH222515   1.952   0.710   1.294 -0.5207 -0.0977 -0.3160
  319TIP3    H122516   2.033   0.739   1.251 -1.0247  0.3005 -1.0334
  319TIP3    H222517   1.945   0.617   1.270  0.6523 -0.6347  1.2697
  320TIP3   OH222518   3.687   1.790   0.445 -0.2420 -0.5987  0.3039
  320TIP3    H122519   3.674   1.736   0.367 -0.5143 -0.2557  0.1099
  320TIP3    H222520   3.684   1.880   0.413  4.1878 -0.3833 -0.0681
  321TIP3   OH222521   3.585   0.266   8.475  0.3218  0.5718 -0.3536
  321TIP3    H122522   3.501   0.310   8.463  0.2731  0.6169  0.1379
  321TIP3    H222523   3.592   0.252   8.569  0.3997 -0.3501 -0.4905
  322TIP3   OH222524   1.950   5.033   0.484 -0.7969  0.8051 -0.4924
  322TIP3    H122525   1.973   4.947   0.520 -1.1816  1.4384  1.3867
  322TIP3    H222526   1.993   5.035   0.398  0.6591 -0.5955  0.1399
  323TIP3   OH222527   6.314   3.708   7.956 -0.4075 -0.8634  0.0402
  323TIP3    H122528   6.396   3.754   7.943 -1.4983  0.6812 -1.7608
  323TIP3    H222529   6.330   3.619   7.923  0.2320 -0.2540 -1.3489
  324TIP3   OH222530   1.542   2.288   0.766 -0.4845  0.0649 -0.4456
  324TIP3    H122531   1.581   2.374   0.751  0.8670 -0.7624 -2.0477
  324TIP3    H222532   1.612   2.226   0.746 -1.3298 -1.4294  0.9660
  325TIP3   OH222533   4.497   4.861   8.257  0.1573 -0.2925 -0.5988
  325TIP3    H122534   4.532   4.823   8.338  1.1570 -1.6972 -1.6472
  325TIP3    H222535   4.452   4.941   8.286  1.8021  0.0720  1.1587
  326TIP3   OH222536   2.914   0.112   0.892  0.2643 -0.3373  0.1779
  326TIP3    H122537   3.009   0.124   0.897  0.3754  0.2638 -2.2322
  326TIP3    H222538   2.882   0.194   0.854 -1.1332 -0.8695  0.1534
  327TIP3   OH222539   6.848   6.049   1.756  0.2003 -0.0307  0.5459
  327TIP3    H122540   6.887   6.076   1.839 -1.0302 -1.6874  1.7257
  327TIP3    H222541   6.762   6.091   1.755  0.5818  0.7816 -0.4020
  328TIP3   OH222542   1.519   3.353   6.746 -0.0885  0.1806  0.4831
  328TIP3    H122543   1.448   3.417   6.757 -0.0962  0.0551  1.2594
  328TIP3    H222544   1.589   3.386   6.803  1.0812  1.1281 -1.4185
  329TIP3   OH222545   6.587   0.294   0.453 -0.1362  0.1169  0.1055
  329TIP3    H122546   6.583   0.206   0.417  0.3789  0.5409 -1.0489
  329TIP3    H222547   6.516   0.341   0.410  1.0323  0.8680 -1.0788
  330TIP3   OH222548   2.006   6.278   6.343 -0.2322  0.0314 -0.0528
  330TIP3    H122549   1.991   6.338   6.270  1.3833  1.2560  0.5517
  330TIP3    H222550   1.948   6.310   6.412  0.0006  0.3835 -0.0163
  331TIP3   OH222551   4.976   6.431   0.848 -0.8093  0.2882  0.2736
  331TIP3    H122552   4.905   6.434   0.784  1.2558  1.0574 -2.1539
  331TIP3    H222553   5.002   6.339   0.851 -1.3613  0.1394  0.5488
  332TIP3   OH222554   0.815   2.757   1.540  0.1214  0.0294 -0.0524
  332TIP3    H122555   0.740   2.773   1.598 -0.4279 -1.9114 -0.1446
  332TIP3    H222556   0.809   2.664   1.518  2.1644 -0.0170 -0.6573
  333TIP3   OH222557   0.104   6.220   0.823 -0.2381 -0.3388  0.2000
  333TIP3    H122558   0.176   6.224   0.760  1.5481  0.8950  2.2078
  333TIP3    H222559   0.105   6.130   0.855  1.7153  0.1414  1.5973
  334TIP3   OH222560   6.103   5.030   2.734 -0.0683 -0.4784 -0.0885
  334TIP3    H122561   6.122   5.116   2.772 -1.1237 -0.3713  0.2509
  334TIP3    H222562   6.030   5.047   2.674  0.6044 -0.9119 -1.0416
  335TIP3   OH222563   5.024   5.007   7.676  0.1853 -0.0440  0.1260
  335TIP3    H122564   5.117   4.989   7.691  0.1371 -1.0263 -0.6517
  335TIP3    H222565   5.018   5.022   7.581 -0.4218  0.2329  0.2052
  336TIP3   OH222566   4.113   2.778   1.158  0.2598 -0.3916  0.1037
  336TIP3    H122567   4.092   2.694   1.198  0.9667 -0.4623  0.3380
  336TIP3    H222568   4.029   2.814   1.130 -0.2979 -0.1651  1.9761
  337TIP3   OH222569   4.186   4.683   8.516 -0.4249 -0.2855 -0.6687
  337TIP3    H122570   4.260   4.665   8.458  1.1521 -1.4817  1.5396
  337TIP3    H222571   4.140   4.599   8.522  0.6158 -0.7828  1.2676
  338TIP3   OH222572   1.527   2.358   7.230 -0.3322  0.0257  0.3345
  338TIP3    H122573   1.589   2.288   7.209  1.0913  1.3193  0.0092
  338TIP3    H222574   1.469   2.363   7.154 -0.2395 -0.5560  0.2167
  339TIP3   OH222575   3.603   5.250   7.374  0.1180  0.8042  0.0520
  339TIP3    H122576   3.580   5.342   7.386 -0.6996  0.4932  1.0489
  339TIP3    H222577   3.527   5.212   7.329 -0.5115  0.1924  1.5545
  340TIP3   OH222578   3.696   6.029   7.406  0.4036 -0.3124 -0.2311
  340TIP3    H122579   3.792   6.036   7.401  0.3683 -0.0570 -0.6674
  340TIP3    H222580   3.672   5.984   7.325  0.2010 -0.9614  0.1808
  341TIP3   OH222581   2.242   6.001   0.941 -0.1433 -0.5062 -0.3857
  341TIP3    H122582   2.218   5.964   1.025  0.6631 -0.1562  0.0063
  341TIP3    H222583   2.161   6.042   0.909 -0.5968 -1.1359 -0.0573
  342TIP3   OH222584   1.120   3.567   1.239  0.0350 -0.2570  0.2943
  342TIP3    H122585   1.053   3.604   1.296 -0.3343 -0.2268 -0.1560
  342TIP3    H222586   1.201   3.611   1.265 -0.5102  1.4267 -0.7299
  343TIP3   OH222587   5.069   2.224   1.056  0.2803 -0.1981 -0.7591
  343TIP3    H122588   5.071   2.244   0.962 -0.2081 -0.4246 -0.8185
  343TIP3    H222589   5.012   2.148   1.063 -1.8360  1.3563  0.0011
  344TIP3   OH222590   2.874   1.533   8.140  0.1601  0.2076 -0.1478
  344TIP3    H122591   2.800   1.593   8.140 -0.3362 -0.3923 -0.5004
  344TIP3    H222592   2.913   1.543   8.053 -0.5824 -0.7585 -0.6112
  345TIP3   OH222593   3.685   4.452   1.471  0.2485  0.3023  0.7377
  345TIP3    H122594   3.715   4.374   1.424  1.5777  1.5536 -0.6169
  345TIP3    H222595   3.670   4.422   1.560 -2.4372 -2.2091 -0.4018
  346TIP3   OH222596   2.042   1.000   0.883  0.0632  0.4510 -0.1865
  346TIP3    H122597   2.114   1.060   0.859  0.1376 -0.3639 -2.1575
  346TIP3    H222598   1.976   1.057   0.922  0.7963  1.5926 -0.5516
  347TIP3   OH222599   2.875   1.225   6.940  0.2970  0.4361  0.3457
  347TIP3    H122600   2.833   1.310   6.930  1.7228  1.1935  0.5615
  347TIP3    H222601   2.803   1.162   6.936 -0.9051  1.7031  1.1870
  348TIP3   OH222602   2.796   3.935   7.963 -0.1686  0.3619  0.4560
  348TIP3    H122603   2.784   3.873   7.891  0.1037 -0.7391  1.3327
  348TIP3    H222604   2.729   3.911   8.027  0.8266  0.0581  1.4125
  349TIP3   OH222605   2.825   0.036   8.352  0.3786  0.0852  0.2010
  349TIP3    H122606   2.741   0.082   8.351 -1.3568 -2.8224  1.0181
  349TIP3    H222607   2.855   0.038   8.261 -0.8000  0.7769 -0.1868
  350TIP3   OH222608   4.408   6.414   7.955 -0.1235  0.1630  0.6749
  350TIP3    H122609   4.494   6.375   7.940 -0.0448  1.4016 -3.0835
  350TIP3    H222610   4.347   6.341   7.942  0.2461 -0.3195  1.5324
  351TIP3   OH222611   6.515   2.025   2.046  0.0815  0.0078 -0.4024
  351TIP3    H122612   6.585   2.088   2.058  0.3919 -0.2115 -1.0171
  351TIP3    H222613   6.551   1.960   1.987  0.0694 -1.2268  0.8933
  352TIP3   OH222614   5.586   4.447   8.472  0.4029  0.4485 -0.5742
  352TIP3    H122615   5.538   4.487   8.545  0.6836  0.1943 -0.2508
  352TIP3    H222616   5.518   4.408   8.417  0.3392 -1.9131  1.0581
  353TIP3   OH222617   4.217   5.715   6.988  0.5557 -0.0148 -0.5320
  353TIP3    H122618   4.236   5.682   7.075 -1.8469  0.2640  0.1570
  353TIP3    H222619   4.228   5.810   6.995 -0.9872  0.1654 -0.0866
  354TIP3   OH222620   1.991   4.255   0.677  0.3527 -0.3296  0.1296
  354TIP3    H122621   2.023   4.216   0.759  2.6911  1.6035  0.2387
  354TIP3    H222622   1.960   4.342   0.703 -2.4439 -1.0449 -0.5075
  355TIP3   OH222623   2.617   5.186   1.435  0.0767  0.4982  0.1116
  355TIP3    H122624   2.694   5.130   1.436  0.3098  0.8217  0.3943
  355TIP3    H222625   2.651   5.275   1.437 -0.2998  0.6457  0.1969
  356TIP3   OH222626   3.505   1.424   0.798  0.0635 -0.3983  0.4845
  356TIP3    H122627   3.561   1.362   0.846  0.5372 -0.3952 -0.0456
  356TIP3    H222628   3.558   1.503   0.791 -0.5740  0.1028  1.2249
  357TIP3   OH222629   5.686   0.857   7.544 -0.5119  0.2079 -0.2972
  357TIP3    H122630   5.663   0.882   7.455 -0.5455  0.7966 -0.1277
  357TIP3    H222631   5.764   0.802   7.534 -1.5329 -1.2020 -0.8142
  358TIP3   OH222632   5.475   6.237   6.271 -0.1829 -0.0844  0.2323
  358TIP3    H122633   5.470   6.332   6.261 -1.1214  0.0826  1.8843
  358TIP3    H222634   5.567   6.215   6.252  0.1684  1.2159  0.3606
  359TIP3   OH222635   5.943   6.461   8.178  0.1200 -0.5696  0.0501
  359TIP3    H122636   6.010   6.442   8.244  0.1198  0.5495  0.3828
  359TIP3    H222637   5.986   6.520   8.116 -1.3854  2.6819  1.9076
  360TIP3   OH222638   0.964   0.986   8.099 -0.0317  0.1315 -0.0225
  360TIP3    H122639   0.926   0.965   8.013  0.0218  0.9175 -0.2473
  360TIP3    H222640   1.050   0.943   8.098  0.7643  1.6741 -1.1229
  361TIP3   OH222641   1.308   6.885   7.302  0.1732  0.1071  0.5805
  361TIP3    H122642   1.350   6.801   7.321 -0.3779 -0.1893  0.5057
  361TIP3    H222643   1.221   6.862   7.269 -0.0600  0.7113  0.7521
  362TIP3   OH222644   6.236   6.564   8.295  0.4566 -0.4063  0.2276
  362TIP3    H122645   6.193   6.507   8.359 -2.0309  1.6009  0.5393
  362TIP3    H222646   6.209   6.652   8.320 -0.4790  0.5145 -3.4003
  363TIP3   OH222647   5.158   6.383   7.125 -0.5520  0.0280  0.2026
  363TIP3    H122648   5.192   6.472   7.125 -2.2708  0.7252 -0.2638
  363TIP3    H222649   5.065   6.392   7.103 -1.1668 -1.7291  1.7601
  364TIP3   OH222650   2.334   2.406   7.429 -0.0179 -0.0676 -0.2767
  364TIP3    H122651   2.275   2.436   7.499 -2.8711 -0.2778 -2.3998
  364TIP3    H222652   2.382   2.485   7.404  4.0229 -0.6288  4.1817
  365TIP3   OH222653   2.749   3.293   1.627  0.4341 -0.2421  0.0669
  365TIP3    H122654   2.735   3.355   1.699 -0.8816 -0.8192  0.3227
  365TIP3    H222655   2.844   3.288   1.619  0.5848  1.5755  0.2388
  366TIP3   OH222656   3.577   4.352   1.963  0.2305  0.3893  0.4264
  366TIP3    H122657   3.608   4.399   2.041  0.9898 -0.2999  0.5517
  366TIP3    H222658   3.546   4.268   1.997  1.6263 -0.3787 -0.1255
  367TIP3   OH222659   4.976   3.696   1.271 -0.6365  0.8076  0.1950
  367TIP3    H122660   4.941   3.624   1.219  1.4578  0.2761 -0.5556
  367TIP3    H222661   4.915   3.769   1.255 -0.9686  0.1674 -1.6887
  368TIP3   OH222662   5.470   4.866   0.617  0.1892  0.2105 -0.0284
  368TIP3    H122663   5.406   4.803   0.583 -1.3453  2.2423 -1.0884
  368TIP3    H222664   5.438   4.888   0.705  1.1701 -1.0159  0.6692
  369TIP3   OH222665   6.798   6.093   8.498 -0.0753  0.2450 -0.4865
  369TIP3    H122666   6.859   6.073   8.570  1.1590  1.1483 -1.2284
  369TIP3    H222667   6.711   6.085   8.537  0.5319 -0.3044  0.8271
  370TIP3   OH222668   5.802   1.016   7.796 -0.6982 -0.3760  0.0632
  370TIP3    H122669   5.871   1.066   7.752  0.2041 -0.8791  0.8710
  370TIP3    H222670   5.756   0.971   7.726  0.8208 -1.2978 -0.3672
  371TIP3   OH222671   4.375   5.546   0.526 -0.9107  0.4368  0.0090
  371TIP3    H122672   4.348   5.607   0.458  0.9598  1.3464  0.0206
  371TIP3    H222673   4.443   5.493   0.484  0.2057  0.9506  1.1025
  372TIP3   OH222674   5.966   0.904   6.484  0.3194 -0.7983  0.4278
  372TIP3    H122675   5.983   0.996   6.504 -0.8346 -0.7569  1.3138
  372TIP3    H222676   5.985   0.896   6.390 -0.7422  0.6251  0.0626
  373TIP3   OH222677   4.686   0.360   8.404  0.3152  0.4917  0.0530
  373TIP3    H122678   4.712   0.307   8.329  1.3086  0.7448  0.2117
  373TIP3    H222679   4.597   0.331   8.424 -0.3836  1.1769 -1.8850
  374TIP3   OH222680   0.513   6.331   0.043  0.1729  0.0729  0.5137
  374TIP3    H122681   0.480   6.375   0.121 -3.0425  2.1256 -1.7173
  374TIP3    H222682   0.444   6.269   0.019  0.4456  0.4255 -1.3397
  375TIP3   OH222683   4.278   5.894   0.703  0.0538  0.3288 -0.0722
  375TIP3    H122684   4.334   5.924   0.775  2.4533 -1.0854 -1.2236
  375TIP3    H222685   4.235   5.816   0.738  0.7712 -0.0273  0.0364
  376TIP3   OH222686   2.858   0.651   0.210  0.2289 -0.8804  0.2668
  376TIP3    H122687   2.950   0.673   0.222  0.3617 -0.1747 -1.6297
  376TIP3    H222688   2.841   0.669   0.118 -2.0489 -0.0742  0.7676
  377TIP3   OH222689   5.068   1.281   0.951 -0.4714 -0.2100  0.1476
  377TIP3    H122690   5.122   1.341   0.898 -0.9297  1.1274  1.1266
  377TIP3    H222691   4.989   1.332   0.970 -1.7239 -1.8210 -0.5404
  378TIP3   OH222692   3.672   4.982   7.493  0.3060 -0.2383 -0.0405
  378TIP3    H122693   3.728   4.979   7.571  0.0096  0.1413  0.1856
  378TIP3    H222694   3.682   5.071   7.460 -1.3103  0.3170  0.8482
  379TIP3   OH222695   2.466   4.785   0.866 -0.4198  0.4148  0.2570
  379TIP3    H122696   2.541   4.766   0.921  0.0048 -0.7395 -0.6605
  379TIP3    H222697   2.470   4.879   0.850  0.2552  0.5229  1.0128
  380TIP3   OH222698   2.038   0.269   0.135 -0.2905 -0.0898 -0.1584
  380TIP3    H122699   2.081   0.184   0.147 -0.0619 -0.0365 -0.5823
  380TIP3    H222700   2.049   0.314   0.219  1.3574  0.3110 -0.5483
  381TIP3   OH222701   5.787   5.509   2.213  0.4075  0.2168  0.9382
  381TIP3    H122702   5.852   5.498   2.282  0.8696  0.6807  0.5884
  381TIP3    H222703   5.806   5.439   2.150  0.9950  0.7306  0.5216
  382TIP3   OH222704   6.551   6.594   7.543 -0.0721 -0.0976  0.2347
  382TIP3    H122705   6.617   6.563   7.481  0.8052 -1.2716  1.6910
  382TIP3    H222706   6.588   6.674   7.580 -0.9263  1.0249 -1.2282
  383TIP3   OH222707   6.395   5.227   0.237  0.1250  0.3190 -0.3399
  383TIP3    H122708   6.453   5.277   0.294  0.8348  0.1760 -0.9236
  383TIP3    H222709   6.454   5.173   0.185 -0.5051  0.5421 -1.3016
  384TIP3   OH222710   0.590   3.076   2.033  0.3478 -0.2077  0.1922
  384TIP3    H122711   0.667   3.100   1.981  0.2140 -1.3286 -0.5469
  384TIP3    H222712   0.575   2.984   2.013 -1.3810  0.0749  0.0831
  385TIP3   OH222713   5.884   0.279   0.689 -0.0260  0.2440 -0.6730
  385TIP3    H122714   5.819   0.216   0.660  1.2582 -0.8800 -1.1937
  385TIP3    H222715   5.916   0.319   0.608  1.1801 -0.4963 -0.5835
  386TIP3   OH222716   5.678   0.098   1.349  0.5316 -0.2056 -0.2393
  386TIP3    H122717   5.726   0.137   1.422 -0.7983 -1.0942  1.1728
  386TIP3    H222718   5.687   0.161   1.278  0.7056  1.3642  1.1090
  387TIP3   OH222719   1.198   1.720   7.675  0.2859 -0.7364  0.4648
  387TIP3    H122720   1.226   1.685   7.591 -0.5509 -0.8539  0.2270
  387TIP3    H222721   1.229   1.655   7.739 -3.5252 -3.5270 -0.1407
  388TIP3   OH222722   2.993   2.932   0.333 -0.0896 -0.3215  0.6426
  388TIP3    H122723   3.057   2.997   0.361 -2.0348  2.3354 -0.6376
  388TIP3    H222724   3.020   2.907   0.245 -0.6882  0.7577  0.1253
  389TIP3   OH222725   3.607   5.285   1.762 -0.4243  0.1476  0.1700
  389TIP3    H122726   3.642   5.295   1.851 -0.4983 -0.4360  0.2678
  389TIP3    H222727   3.641   5.361   1.715  1.0562 -0.4354  0.2378
  390TIP3   OH222728   5.438   2.325   6.880  0.1816  0.1552  0.2514
  390TIP3    H122729   5.457   2.409   6.837  1.4045  0.3286  1.0997
  390TIP3    H222730   5.352   2.300   6.845  1.2279  0.0988 -2.5661
  391TIP3   OH222731   1.271   4.878   8.069  0.0157 -0.1521  0.2290
  391TIP3    H122732   1.342   4.885   8.005  1.1150 -1.0963  1.2975
  391TIP3    H222733   1.194   4.909   8.022  1.0413  0.5011 -1.1080
  392TIP3   OH222734   2.213   2.534   6.545 -0.2693  0.7079 -1.2006
  392TIP3    H122735   2.201   2.607   6.483  0.7714  1.6311 -0.3634
  392TIP3    H222736   2.124   2.507   6.568 -0.7853  3.3088  0.2532
  393TIP3   OH222737   1.574   4.239   1.541 -0.3439  0.2738  0.1714
  393TIP3    H122738   1.608   4.161   1.586 -0.8602 -0.0671 -0.0138
  393TIP3    H222739   1.516   4.280   1.606 -0.6991  0.0567 -0.0047
  394TIP3   OH222740   3.778   4.197   1.372  0.2044 -0.0127  0.0613
  394TIP3    H122741   3.828   4.199   1.453  0.3393 -1.4000  0.0252
  394TIP3    H222742   3.842   4.215   1.303  0.1633  0.7589  0.2151
  395TIP3   OH222743   2.932   1.394   6.333 -0.2239  0.7104  0.2798
  395TIP3    H122744   2.989   1.325   6.367 -0.8653 -1.0923 -2.0909
  395TIP3    H222745   2.988   1.444   6.274 -0.0488  1.5943  1.1671
  396TIP3   OH222746   3.262   2.606   1.942 -0.6905 -0.3484  0.3367
  396TIP3    H122747   3.335   2.624   1.883 -2.9360  0.2403 -2.5122
  396TIP3    H222748   3.227   2.693   1.963 -0.1111 -0.5692  2.4138
  397TIP3   OH222749   0.017   2.415   6.655  0.8078  0.1292  0.5358
  397TIP3    H122750   0.066   2.428   6.736  2.3916  1.1220 -0.5247
  397TIP3    H222751   0.054   2.479   6.594 -0.4345 -0.4925 -0.9353
  398TIP3   OH222752   3.024   6.777   0.321 -0.1115 -0.1168  0.2435
  398TIP3    H122753   2.974   6.735   0.391 -0.1652 -1.4059 -0.5247
  398TIP3    H222754   2.957   6.802   0.257  0.0023  0.3971  0.3258
  399TIP3   OH222755   0.135   2.493   8.497 -0.1167 -0.5617  0.7485
  399TIP3    H122756   0.088   2.569   8.532 -1.7783 -1.2227  0.0501
  399TIP3    H222757   0.095   2.476   8.412 -2.4829 -4.4297  2.3629
  400TIP3   OH222758   3.067   2.169   2.195 -0.9454  0.4386 -0.3635
  400TIP3    H122759   3.148   2.118   2.200 -1.9785 -1.3397 -0.9143
  400TIP3    H222760   3.039   2.180   2.286 -1.6222 -1.5941 -0.2728
  401TIP3   OH222761   4.430   2.278   8.216  0.0419 -0.0925  0.2397
  401TIP3    H122762   4.368   2.351   8.220  0.4295  0.2039  1.3175
  401TIP3    H222763   4.376   2.203   8.192 -1.2924 -0.3300  3.4424
  402TIP3   OH222764   6.601   3.110   7.897 -0.6208 -0.2171  0.1688
  402TIP3    H122765   6.575   3.042   7.835  1.0149  0.2987 -1.1248
  402TIP3    H222766   6.600   3.191   7.846 -0.5343  0.4304  1.1710
  403TIP3   OH222767   3.428   2.297   0.344 -0.0066 -0.0801  0.0654
  403TIP3    H122768   3.371   2.223   0.325  0.9598 -0.7176 -0.4521
  403TIP3    H222769   3.379   2.350   0.407 -1.4380 -0.2557 -0.8546
  404TIP3   OH222770   6.120   1.805   0.317  0.1262 -0.0233 -0.2614
  404TIP3    H122771   6.043   1.749   0.312 -0.3722  0.7302 -1.2403
  404TIP3    H222772   6.185   1.763   0.261  0.3768 -0.5424  0.3955
  405TIP3   OH222773   2.152   5.637   7.111 -0.0284 -0.1274  0.2905
  405TIP3    H122774   2.104   5.570   7.159 -0.1557  0.7372  1.4223
  405TIP3    H222775   2.243   5.625   7.136 -0.2441  1.1360  1.8378
  406TIP3   OH222776   2.512   0.948   7.981 -0.2548  0.6816  0.5878
  406TIP3    H122777   2.461   0.944   8.062  1.9942  0.3237  2.0806
  406TIP3    H222778   2.555   1.033   7.984  0.1526  0.5039 -0.0169
  407TIP3   OH222779   3.690   4.713   1.834 -0.0845 -0.2368  0.2405
  407TIP3    H122780   3.633   4.642   1.805  1.5839 -2.7103  2.5229
  407TIP3    H222781   3.649   4.744   1.915 -0.0253  0.4143  0.0254
  408TIP3   OH222782   1.863   6.343   0.670  0.1397 -0.4130  0.1425
  408TIP3    H122783   1.828   6.336   0.581  4.3260  0.6299 -1.8003
  408TIP3    H222784   1.885   6.435   0.680  0.9560 -0.7575  1.7860
  409TIP3   OH222785   2.363   6.248   6.705  0.2185  0.1140 -0.1397
  409TIP3    H122786   2.269   6.261   6.706  0.3398  1.5458 -1.8133
  409TIP3    H222787   2.376   6.154   6.692 -0.9904  0.0749 -1.1449
  410TIP3   OH222788   4.828   0.613   1.845  0.0024 -0.1343  0.1500
  410TIP3    H122789   4.773   0.682   1.880 -2.6420 -2.5680  1.2447
  410TIP3    H222790   4.887   0.590   1.917  0.0981  0.1959  0.1792
  411TIP3   OH222791   3.980   6.441   7.357  0.3448  0.5207 -0.2416
  411TIP3    H122792   3.932   6.518   7.389 -0.1544  0.2238 -0.2654
  411TIP3    H222793   3.962   6.439   7.263 -0.0162  0.1190 -0.1669
  412TIP3   OH222794   2.636   2.424   6.910  0.1034 -0.8312  0.1914
  412TIP3    H122795   2.632   2.426   7.006 -1.8473 -0.1191  0.1501
  412TIP3    H222796   2.595   2.506   6.883 -0.1180 -1.3832 -1.2495
  413TIP3   OH222797   4.512   0.531   1.782  0.0480 -0.3962 -0.2238
  413TIP3    H122798   4.539   0.580   1.705 -0.6181 -0.4427 -0.4921
  413TIP3    H222799   4.481   0.598   1.843 -1.0932 -0.4835 -0.6841
  414TIP3   OH222800   3.386   3.858   7.227  0.2964 -0.1322  0.4100
  414TIP3    H122801   3.472   3.843   7.187 -0.0208  0.5162 -0.5300
  414TIP3    H222802   3.400   3.932   7.286  0.5459 -0.5047  0.8289
  415TIP3   OH222803   2.462   0.902   0.976  0.3892  0.1185 -0.2703
  415TIP3    H122804   2.524   0.962   0.935  2.1805 -1.2760  0.2891
  415TIP3    H222805   2.455   0.828   0.916 -0.7867  0.2547 -0.3397
  416TIP3   OH222806   0.239   2.291   1.830 -0.5210 -0.5372  0.1292
  416TIP3    H122807   0.289   2.234   1.771 -1.0422  0.0481 -0.9052
  416TIP3    H222808   0.176   2.233   1.872 -0.7410 -0.8184 -0.5672
  417TIP3   OH222809   4.025   6.319   1.641 -0.5705 -0.0004 -0.5235
  417TIP3    H122810   4.027   6.278   1.555 -1.0075  0.3549 -0.7077
  417TIP3    H222811   4.114   6.308   1.675 -0.3316  0.0728 -1.1165
  418TIP3   OH222812   6.606   0.793   1.120 -0.8643  0.3971 -0.1071
  418TIP3    H122813   6.545   0.846   1.070 -1.7374  0.4554  0.9782
  418TIP3    H222814   6.572   0.704   1.114 -0.8549  0.3710  0.1970
  419TIP3   OH222815   2.078   5.506   6.605 -0.4895  0.1578  0.3068
  419TIP3    H122816   2.019   5.478   6.535 -1.7971  1.6628  0.7472
  419TIP3    H222817   2.127   5.579   6.568 -1.1783  0.9544  0.9270
  420TIP3   OH222818   3.539   4.179   8.083  0.1840 -0.1198 -0.1200
  420TIP3    H122819   3.488   4.098   8.077  0.2959 -0.2136  0.1949
  420TIP3    H222820   3.473   4.249   8.088  0.0649 -0.3204  1.5113
  421TIP3   OH222821   0.498   3.790   0.396 -0.2834  0.4008 -0.0226
  421TIP3    H122822   0.439   3.750   0.333 -1.5161 -0.2136  1.4595
  421TIP3    H222823   0.485   3.884   0.386 -0.2551  0.3245 -0.8437
  422TIP3   OH222824   5.610   1.263   8.085  0.2826 -0.1586  0.5418
  422TIP3    H122825   5.551   1.265   8.161 -0.3897 -1.1789  0.0742
  422TIP3    H222826   5.584   1.184   8.037  1.2379  0.0345 -0.3221
  423TIP3   OH222827   5.875   6.253   1.643 -0.4455  0.0571 -0.3089
  423TIP3    H122828   5.904   6.210   1.724  2.7177  1.4368 -0.5331
  423TIP3    H222829   5.801   6.307   1.669  0.6021  0.5994  1.7510
  424TIP3   OH222830   0.083   0.819   0.388  0.3983 -0.0675 -0.0372
  424TIP3    H122831   0.076   0.825   0.293  0.4409 -1.4406 -0.1509
  424TIP3    H222832   0.133   0.739   0.403 -1.9172 -1.3920  1.1947
  425TIP3   OH222833   5.616   5.697   2.069 -0.2790 -0.5198  0.0501
  425TIP3    H122834   5.674   5.730   2.001 -0.6232  1.0353  0.4727
  425TIP3    H222835   5.669   5.632   2.116  0.7196  0.0253 -0.2958
  426TIP3   OH222836   5.114   4.008   2.356  0.1117 -0.3862  0.4507
  426TIP3    H122837   5.036   4.015   2.302  0.9094 -1.4751 -0.9193
  426TIP3    H222838   5.094   3.940   2.420  0.1144 -1.0898 -0.2752
  427TIP3   OH222839   2.708   2.798   8.365  0.3930  0.2808  0.2055
  427TIP3    H122840   2.740   2.881   8.330 -0.1170  0.7243  0.7737
  427TIP3    H222841   2.777   2.735   8.344 -0.3659  0.2722 -2.5612
  428TIP3   OH222842   4.488   4.180   1.234 -0.0683  0.1021 -0.6203
  428TIP3    H122843   4.487   4.262   1.283  1.2371 -0.7098  0.8706
  428TIP3    H222844   4.551   4.194   1.163  1.6200 -0.1473  0.7521
  429TIP3   OH222845   6.182   4.519   0.155  0.0395  0.2955 -0.0058
  429TIP3    H122846   6.183   4.606   0.116  0.0646  1.0632  1.6433
  429TIP3    H222847   6.102   4.517   0.208 -0.2052 -0.8582 -0.3963
  430TIP3   OH222848   3.553   1.103   8.599 -0.0832 -0.0685  0.5228
  430TIP3    H122849   3.491   1.175   8.588  0.9158  0.6394 -0.6293
  430TIP3    H222850   3.509   1.044   8.661 -1.9477  0.3498 -0.3227
  431TIP3   OH222851   3.543   3.462   8.091 -0.1546 -0.0101 -0.4840
  431TIP3    H122852   3.528   3.456   7.996  2.0337  0.4276 -0.9077
  431TIP3    H222853   3.479   3.402   8.129 -0.3723 -1.0142 -2.3134
  432TIP3   OH222854   6.296   6.014   7.338 -0.2051  0.3998  0.3613
  432TIP3    H122855   6.293   5.965   7.420  1.5273 -0.6058 -0.1090
  432TIP3    H222856   6.327   6.101   7.363 -1.1728  0.5893  0.9418
  433TIP3   OH222857   4.431   4.253   7.003 -0.0595 -0.2446 -0.8506
  433TIP3    H122858   4.384   4.222   6.926  1.0505  0.6401 -1.9127
  433TIP3    H222859   4.453   4.173   7.052 -2.8194 -0.7004 -0.1568
  434TIP3   OH222860   2.729   4.997   8.189 -0.1314 -0.4612  0.1118
  434TIP3    H122861   2.666   5.050   8.140  0.2245 -0.6710 -0.5806
  434TIP3    H222862   2.790   4.964   8.123  0.5067 -0.5434  0.7279
  435TIP3   OH222863   0.562   6.116   7.179 -0.0190 -0.3100  0.6029
  435TIP3    H122864   0.611   6.198   7.180 -0.1293 -0.2427  1.6024
  435TIP3    H222865   0.612   6.058   7.121  0.3033  0.3040  0.2550
  436TIP3   OH222866   2.416   3.098   1.303  0.0548 -0.1324 -0.3758
  436TIP3    H122867   2.496   3.096   1.355 -1.7886 -0.2846  2.7220
  436TIP3    H222868   2.398   3.007   1.282  1.4224  0.0149 -2.4883
  437TIP3   OH222869   3.247   6.539   1.975  0.1522  0.3528 -0.5024
  437TIP3    H122870   3.240   6.469   2.040 -1.1653 -1.0970 -2.1072
  437TIP3    H222871   3.291   6.498   1.901 -1.1143  1.0354 -1.6686
  438TIP3   OH222872   5.604   3.378   2.096 -0.0576 -0.2579 -0.3122
  438TIP3    H122873   5.684   3.417   2.063 -0.9602 -0.8628 -3.5317
  438TIP3    H222874   5.535   3.439   2.070 -0.9369 -1.3131 -0.5185
  439TIP3   OH222875   5.678   1.743   7.134 -0.0675 -0.5026  0.1556
  439TIP3    H122876   5.755   1.799   7.139 -1.6084  1.6274  1.8178
  439TIP3    H222877   5.651   1.746   7.042  0.1079  1.2307  0.1362
  440TIP3   OH222878   3.417   1.242   0.217  0.5776  0.4528 -0.0229
  440TIP3    H122879   3.327   1.249   0.250  1.7269  0.8806  3.4856
  440TIP3    H222880   3.439   1.150   0.228  0.1131 -0.0188 -2.5197
  441TIP3   OH222881   6.136   0.873   8.089 -0.5327 -0.1975  0.0863
  441TIP3    H122882   6.143   0.921   8.007  1.5216 -0.0389  0.3182
  441TIP3    H222883   6.044   0.885   8.116 -1.2355 -0.2331 -2.1335
  442TIP3   OH222884   3.260   4.571   8.440 -0.5523 -0.1376  0.4481
  442TIP3    H122885   3.167   4.561   8.424 -0.6959  3.6833 -2.6393
  442TIP3    H222886   3.265   4.625   8.520 -0.9195 -0.7814  0.9117
  443TIP3   OH222887   2.965   4.645   6.452  0.3809 -0.3702 -0.1580
  443TIP3    H122888   2.990   4.737   6.466 -2.3764  0.1973  1.9335
  443TIP3    H222889   2.993   4.600   6.532 -1.8768 -0.4108  0.6863
  444TIP3   OH222890   3.632   5.868   7.187 -0.0518  0.3383 -0.4566
  444TIP3    H122891   3.608   5.855   7.096 -2.5469 -1.6019  0.3593
  444TIP3    H222892   3.701   5.803   7.203  2.1876  2.3105 -1.4551
  445TIP3   OH222893   6.042   4.474   8.499 -0.2131 -0.1415 -0.5646
  445TIP3    H122894   6.130   4.507   8.513 -0.1653 -0.6179  0.3243
  445TIP3    H222895   6.045   4.382   8.527 -0.8924 -0.2719 -0.8796
  446TIP3   OH222896   0.484   2.626   7.784 -0.3233 -0.9390 -0.6864
  446TIP3    H122897   0.459   2.701   7.839 -0.3446  0.3118 -2.3267
  446TIP3    H222898   0.539   2.572   7.841  0.2496  0.6649  0.3515
  447TIP3   OH222899   3.137   3.758   7.371 -0.1196 -0.0622  0.2334
  447TIP3    H122900   3.141   3.697   7.298 -0.3182 -0.1175  0.2699
  447TIP3    H222901   3.204   3.823   7.351 -1.5252  1.0733 -1.0275
  448TIP3   OH222902   5.674   3.770   7.316  0.2963 -0.0868 -0.5184
  448TIP3    H122903   5.755   3.756   7.267  0.8360 -1.1276  0.6149
  448TIP3    H222904   5.678   3.862   7.344  1.4258 -0.2957  0.0886
  449TIP3   OH222905   5.091   2.507   1.296 -0.1710 -0.0259 -0.1710
  449TIP3    H122906   5.187   2.505   1.298 -0.1480 -0.6083  2.7865
  449TIP3    H222907   5.070   2.599   1.283  0.8406  0.4230  1.1671
  450TIP3   OH222908   6.536   0.387   1.486 -0.4204 -0.2966  0.2394
  450TIP3    H122909   6.594   0.344   1.548 -1.3026  0.0323  1.3367
  450TIP3    H222910   6.462   0.416   1.540 -0.3931  1.5622 -0.6425
  451TIP3   OH222911   3.208   6.490   8.172  0.3916 -0.3055 -0.1439
  451TIP3    H122912   3.125   6.535   8.162 -0.1546 -1.4487 -1.1311
  451TIP3    H222913   3.213   6.434   8.094  1.6694 -0.9056  0.3502
  452TIP3   OH222914   6.747   4.226   7.441 -0.1811  0.7920  0.1367
  452TIP3    H122915   6.841   4.217   7.431 -0.0935  0.7388  0.9144
  452TIP3    H222916   6.709   4.172   7.372  0.3589  1.2947 -0.5538
  453TIP3   OH222917   5.831   4.621   8.451 -0.4485 -0.0322  0.1952
  453TIP3    H122918   5.900   4.560   8.476 -1.6133 -1.1254  0.8739
  453TIP3    H222919   5.796   4.585   8.369 -1.5601 -0.6863  0.9242
  454TIP3   OH222920   0.265   4.884   1.241 -0.1382 -0.8335 -0.7764
  454TIP3    H122921   0.321   4.929   1.177  0.0992  0.2466  0.1644
  454TIP3    H222922   0.296   4.793   1.238  0.2043 -0.7069 -1.8263
  455TIP3   OH222923   3.969   2.115   7.508  0.2781  0.0287 -0.0436
  455TIP3    H122924   3.887   2.066   7.496  1.0184 -1.9621  2.1732
  455TIP3    H222925   3.959   2.156   7.594  0.9139  1.3021 -0.5607
  456TIP3   OH222926   6.285   5.245   8.607  0.1811  0.6711 -0.3732
  456TIP3    H122927   6.252   5.333   8.589 -0.5342  0.2107 -1.4228
  456TIP3    H222928   6.206   5.191   8.615  0.6172  0.0819 -0.0182
  457TIP3   OH222929   6.059   1.715   6.810  0.3987 -0.0548  0.2407
  457TIP3    H122930   6.112   1.721   6.889 -0.3002  2.9786  0.6252
  457TIP3    H222931   6.123   1.712   6.738  1.0865  0.3201  0.8234
  458TIP3   OH222932   4.737   3.381   1.224  0.0583  0.2058  0.2605
  458TIP3    H122933   4.799   3.417   1.161  0.7067 -1.0446  0.1549
  458TIP3    H222934   4.669   3.448   1.232  1.0961  1.3327 -0.0979
  459TIP3   OH222935   4.904   4.555   0.462 -0.7732  0.3054 -0.3388
  459TIP3    H122936   4.886   4.641   0.501  1.0912  1.0141 -0.9354
  459TIP3    H222937   4.817   4.520   0.442 -1.6272  1.5675  0.9099
  460TIP3   OH222938   6.518   0.035   8.299  0.4000 -0.2001  0.1010
  460TIP3    H122939   6.580   0.090   8.251 -0.6674 -1.1056 -2.4975
  460TIP3    H222940   6.432   0.059   8.263 -0.5311 -0.6990  1.8696
  461TIP3   OH222941   5.068   3.737   1.860 -0.4226  0.1159  0.0423
  461TIP3    H122942   5.077   3.646   1.831  0.3492 -0.0563  0.7979
  461TIP3    H222943   5.144   3.782   1.824 -0.3174  0.2519  0.4226
  462TIP3   OH222944   0.982   5.128   2.899 -0.0797  0.6443 -0.0653
  462TIP3    H122945   0.895   5.160   2.921 -0.5047 -1.2615  1.2401
  462TIP3    H222946   0.976   5.033   2.905  2.1600  0.4606  0.3344
  463TIP3   OH222947   2.824   1.400   0.377  0.4958  0.2758 -0.2580
  463TIP3    H122948   2.837   1.487   0.415 -0.1622  1.0923 -1.8244
  463TIP3    H222949   2.826   1.341   0.452  0.4202  1.6889  0.9032
  464TIP3   OH222950   4.410   6.281   7.574  0.3777 -0.0123  0.2518
  464TIP3    H122951   4.428   6.368   7.608  0.4919 -0.1599  0.5669
  464TIP3    H222952   4.321   6.287   7.538  0.0952  0.0245  0.9557
  465TIP3   OH222953   2.354   0.463   0.203 -0.7968  0.2096 -0.4166
  465TIP3    H122954   2.331   0.466   0.110 -0.3966  1.9651 -0.4981
  465TIP3    H222955   2.274   0.432   0.246 -0.6209 -1.8368 -1.4065
  466TIP3   OH222956   5.785   5.213   1.145  0.7164  0.0312  0.6396
  466TIP3    H122957   5.868   5.234   1.104  0.3200 -2.7531 -1.9411
  466TIP3    H222958   5.786   5.260   1.229  3.2710  2.9242 -0.8443
  467TIP3   OH222959   5.402   0.067   0.118  0.2168 -0.3674  0.2550
  467TIP3    H122960   5.372   0.005   0.184  0.3573 -2.3911 -1.4640
  467TIP3    H222961   5.323   0.091   0.070  0.5701 -2.1175 -1.3484
  468TIP3   OH222962   6.586   2.509   0.578  0.3166  0.4881 -0.2623
  468TIP3    H122963   6.520   2.440   0.577 -1.0746  1.7730 -1.6240
  468TIP3    H222964   6.642   2.487   0.652 -2.9823  0.5676  2.5270
  469TIP3   OH222965   3.396   2.766   8.425 -0.0209 -0.1832  0.0312
  469TIP3    H122966   3.467   2.719   8.381  1.4885 -0.8704  2.9239
  469TIP3    H222967   3.324   2.703   8.429 -0.1207 -0.1595 -1.2485
  470TIP3   OH222968   1.350   1.819   1.579 -0.4155  0.4021  0.2482
  470TIP3    H122969   1.315   1.908   1.573  0.3829  0.6654 -0.7132
  470TIP3    H222970   1.280   1.769   1.621 -1.5891  1.1004 -0.8186
  471TIP3   OH222971   3.852   0.579   1.323  0.1515 -0.3201 -0.1589
  471TIP3    H122972   3.805   0.661   1.305  1.7171  0.7326  0.4346
  471TIP3    H222973   3.807   0.542   1.398 -0.3838  0.1359 -0.2457
  472TIP3   OH222974   4.883   5.850   0.112  0.3399 -0.4568  0.6409
  472TIP3    H122975   4.883   5.762   0.149 -2.4784 -0.4406  0.9086
  472TIP3    H222976   4.869   5.907   0.187  0.7709  0.1279  0.2892
  473TIP3   OH222977   2.663   5.460   7.622  0.0643  0.0407 -0.0402
  473TIP3    H122978   2.683   5.553   7.637 -0.3125  0.1838 -0.4063
  473TIP3    H222979   2.726   5.413   7.677  0.2134  0.5137  0.2017
  474TIP3   OH222980   4.916   5.518   7.921 -0.7368 -0.2877  1.0395
  474TIP3    H122981   4.947   5.430   7.896  0.8066  0.3832  0.4826
  474TIP3    H222982   4.840   5.533   7.866 -1.3669 -1.4874  1.5380
  475TIP3   OH222983   2.813   6.377   7.943 -0.0531  0.2971 -0.0273
  475TIP3    H122984   2.764   6.327   7.878  1.2128 -0.8179 -0.1554
  475TIP3    H222985   2.876   6.428   7.892  0.9350 -0.5700  0.2738
  476TIP3   OH222986   1.606   4.734   1.238  0.2007 -0.3477 -0.0795
  476TIP3    H122987   1.560   4.785   1.171 -0.7509  0.7146  1.3130
  476TIP3    H222988   1.626   4.797   1.306  1.8873 -1.2365  0.2967
  477TIP3   OH222989   0.504   6.044   7.471  0.0130  0.4511  1.1050
  477TIP3    H122990   0.503   6.101   7.548  0.2751 -1.1043  2.3097
  477TIP3    H222991   0.527   6.102   7.399  0.8722  1.7682  2.3702
  478TIP3   OH222992   0.385   3.150   7.116 -0.3122  0.0051  0.2827
  478TIP3    H122993   0.405   3.240   7.088  1.6601 -0.0377  1.4293
  478TIP3    H222994   0.357   3.160   7.207  0.3532 -0.5772  0.5548
  479TIP3   OH222995   4.248   2.493   8.170  0.5002  0.0874 -0.0982
  479TIP3    H122996   4.280   2.555   8.235  0.3679  0.6169 -0.5337
  479TIP3    H222997   4.169   2.534   8.134  0.7366 -0.0607 -0.7969
  480TIP3   OH222998   4.364   1.964   6.627 -0.1947  0.2603  0.3615
  480TIP3    H122999   4.453   1.996   6.645  0.8729  0.7767 -4.4616
  480TIP3    H223000   4.318   2.040   6.591 -2.8393  0.0577  2.9476
  481TIP3   OH223001   1.298   5.439   1.320 -0.0832 -0.3704 -0.0756
  481TIP3    H123002   1.373   5.467   1.267  0.3739 -1.0178  0.2089
  481TIP3    H223003   1.252   5.520   1.341  1.2743  0.2141  0.8442
  482TIP3   OH223004   0.368   5.483   6.659 -0.6129 -0.3791  0.1724
  482TIP3    H123005   0.364   5.418   6.728 -0.8741  0.1024  0.6142
  482TIP3    H223006   0.277   5.506   6.641 -0.4980  0.2815  0.4200
  483TIP3   OH223007   1.235   0.872   0.506 -0.0938 -0.5128 -0.1714
  483TIP3    H123008   1.295   0.799   0.521  1.2249  0.1274 -1.9391
  483TIP3    H223009   1.291   0.949   0.504 -1.0945  0.2236 -0.9522
  484TIP3   OH223010   2.869   3.848   6.461 -0.2143 -0.1489  0.2604
  484TIP3    H123011   2.785   3.841   6.416  0.9963  1.1571 -2.4882
  484TIP3    H223012   2.923   3.779   6.421  0.2938 -0.3611  1.2951
  485TIP3   OH223013   4.218   0.545   2.193 -0.8571  0.0050  0.7295
  485TIP3    H123014   4.184   0.457   2.205 -0.4794 -0.1169  0.8930
  485TIP3    H223015   4.173   0.578   2.115 -1.7971  0.0608  1.2777
  486TIP3   OH223016   5.425   6.166   8.457  0.0327  0.2350  0.1393
  486TIP3    H123017   5.436   6.077   8.423  0.8010  0.5376 -0.4465
  486TIP3    H223018   5.492   6.173   8.526  0.3491  0.5341 -0.1941
  487TIP3   OH223019   1.912   2.251   1.013  0.1403  0.4486  0.5851
  487TIP3    H123020   1.961   2.173   1.039 -1.7952 -0.6573  1.0880
  487TIP3    H223021   1.949   2.321   1.066  0.9542 -0.4120  1.1978
  488TIP3   OH223022   3.947   5.718   8.615 -0.1465  0.4549  0.6279
  488TIP3    H123023   3.857   5.694   8.593  0.2488 -2.0999  1.3713
  488TIP3    H223024   3.943   5.746   8.706 -0.0634 -0.8225  1.0460
  489TIP3   OH223025   1.659   0.638   6.111 -0.1429 -0.1628  0.1128
  489TIP3    H123026   1.704   0.691   6.176  1.5176 -0.8019 -0.4666
  489TIP3    H223027   1.665   0.690   6.030  0.9945 -0.9316 -0.3245
  490TIP3   OH223028   4.209   3.878   0.016  0.1299  0.5423  0.5454
  490TIP3    H123029   4.216   3.791   0.055 -1.1347  0.6744  1.1535
  490TIP3    H223030   4.289   3.923   0.043  1.0035 -0.5515 -0.1477
  491TIP3   OH223031   5.610   3.962   6.671 -0.0196  0.0825 -0.1503
  491TIP3    H123032   5.680   4.027   6.678  1.8277 -1.7697 -0.3164
  491TIP3    H223033   5.598   3.949   6.577  0.1312 -0.3153 -0.1168
  492TIP3   OH223034   3.308   2.483   0.517 -0.1482 -0.3429  0.0981
  492TIP3    H123035   3.221   2.458   0.487 -0.2752 -1.9784  1.6757
  492TIP3    H223036   3.292   2.544   0.590  0.1004  0.9877 -0.9187
  493TIP3   OH223037   6.383   6.098   1.436  0.1195  0.2339 -0.0901
  493TIP3    H123038   6.388   6.012   1.477  0.5161 -0.3373 -1.2748
  493TIP3    H223039   6.418   6.159   1.502  1.1423 -0.7033  0.2657
  494TIP3   OH223040   0.985   5.232   1.188  0.6831 -0.3340 -0.0474
  494TIP3    H123041   1.014   5.198   1.272 -1.2867 -3.0872 -0.3116
  494TIP3    H223042   0.991   5.157   1.128  1.3322  1.3308 -2.2016
  495TIP3   OH223043   3.565   6.885   8.441  0.7460 -0.2702  0.0678
  495TIP3    H123044   3.569   6.981   8.442  1.1618 -0.2860 -0.0401
  495TIP3    H223045   3.651   6.857   8.410  0.4246 -0.6673 -0.4771
  496TIP3   OH223046   6.706   6.771   8.434 -0.2598 -0.3679  0.4017
  496TIP3    H123047   6.635   6.819   8.392  0.2331 -1.0701 -1.3731
  496TIP3    H223048   6.748   6.723   8.362  1.0473 -1.1781  1.6347
  497TIP3   OH223049   6.792   5.731   7.341  0.4036  0.6473 -0.0206
  497TIP3    H123050   6.861   5.771   7.287  0.7845  0.4493  0.3138
  497TIP3    H223051   6.822   5.642   7.356 -0.2001  0.3832 -0.3403
  498TIP3   OH223052   1.609   4.900   0.072 -0.2145  0.2841  0.3924
  498TIP3    H123053   1.532   4.928   0.023  0.8334 -0.4091 -1.7628
  498TIP3    H223054   1.581   4.822   0.120 -0.5266 -0.8188 -1.5018
  499TIP3   OH223055   3.464   5.596   8.257  0.0185 -0.0396  0.2402
  499TIP3    H123056   3.394   5.561   8.201  1.9175 -1.4161 -1.4180
  499TIP3    H223057   3.471   5.532   8.329  1.2214 -1.3681 -0.9853
  500TIP3   OH223058   6.305   6.598   0.693  0.1573 -0.0004  0.1744
  500TIP3    H123059   6.332   6.684   0.662 -1.7227  1.1334  1.4832
  500TIP3    H223060   6.218   6.585   0.655 -0.0409 -0.8359  0.8793
  501TIP3   OH223061   1.678   1.250   1.238 -0.2257 -0.2022 -0.2769
  501TIP3    H123062   1.650   1.223   1.150  1.4219  0.9281 -1.1951
  501TIP3    H223063   1.690   1.167   1.286 -1.6646 -0.8164 -0.9112
  502TIP3   OH223064   2.141   4.339   0.458  0.1758  0.6234  0.0103
  502TIP3    H123065   2.083   4.336   0.382  1.2332  0.3032 -0.8062
  502TIP3    H223066   2.098   4.284   0.524 -1.8562  2.6165  0.4873
  503TIP3   OH223067   6.778   3.725   0.497  0.4084 -0.0863  0.3844
  503TIP3    H123068   6.785   3.810   0.453  2.1221 -0.6338 -0.5275
  503TIP3    H223069   6.729   3.670   0.435  1.6645 -0.4838 -0.2994
  504TIP3   OH223070   3.387   5.716   7.328  0.5361 -0.0989 -0.0990
  504TIP3    H123071   3.426   5.797   7.295  0.2502 -0.0094 -0.2256
  504TIP3    H223072   3.360   5.736   7.417 -0.1571  0.1628 -0.3593
  505TIP3   OH223073   6.584   6.575   7.959 -0.5184  0.0320 -0.1962
  505TIP3    H123074   6.523   6.646   7.940 -0.1863  0.3676 -0.0076
  505TIP3    H223075   6.530   6.510   8.005 -0.4929  0.8210  0.9873
  506TIP3   OH223076   0.742   1.265   7.673 -0.0364  0.4759  0.5617
  506TIP3    H123077   0.723   1.356   7.697  0.2669  0.2186  1.8003
  506TIP3    H223078   0.779   1.272   7.585  0.7613  1.6300  0.9666
  507TIP3   OH223079   1.545   3.136   7.290  0.2305 -0.3016  0.8306
  507TIP3    H123080   1.463   3.086   7.279  0.0622  0.3855 -1.8988
  507TIP3    H223081   1.614   3.072   7.271  0.0376  0.1865 -2.0221
  508TIP3   OH223082   3.430   6.280   8.251 -0.2364  0.0274 -0.3702
  508TIP3    H123083   3.355   6.223   8.269  0.7283 -1.0162  0.4790
  508TIP3    H223084   3.392   6.368   8.243 -1.4400 -0.3536  0.8599
  509TIP3   OH223085   2.896   1.258   0.596  0.1532  0.6148  0.0474
  509TIP3    H123086   2.977   1.223   0.632 -0.7012 -0.0762  1.4127
  509TIP3    H223087   2.838   1.181   0.589  0.0068  0.8541 -2.1411
  510TIP3   OH223088   5.772   6.848   8.074  0.4510 -0.1936 -0.0852
  510TIP3    H123089   5.736   6.888   7.995 -0.7481 -0.7781  0.1392
  510TIP3    H223090   5.713   6.875   8.144  1.6919  0.5872  0.6842
  511TIP3   OH223091   0.667   1.436   1.088  0.2832 -0.1364 -0.0893
  511TIP3    H123092   0.580   1.467   1.060 -1.2054 -2.9653  0.9529
  511TIP3    H223093   0.650   1.393   1.172  2.2973 -2.5014 -0.7821
  512TIP3   OH223094   1.111   6.111   7.537 -0.0318  0.1754  0.4723
  512TIP3    H123095   1.024   6.150   7.548 -0.2209 -0.2233  0.4262
  512TIP3    H223096   1.125   6.062   7.618  0.6272  1.1390  0.9549
  513TIP3   OH223097   2.550   6.288   0.262  0.3518  0.1625 -0.0258
  513TIP3    H123098   2.544   6.199   0.296  1.1255  0.1510  0.0904
  513TIP3    H223099   2.627   6.325   0.305  0.1525  0.8227 -0.2253
  514TIP3   OH223100   2.664   6.154   2.985  0.3919 -0.1032  0.3623
  514TIP3    H123101   2.718   6.075   2.995 -0.6362 -0.7700  0.8544
  514TIP3    H223102   2.594   6.128   2.925 -0.1022  0.3480  0.7278
  515TIP3   OH223103   1.702   3.061   0.118  0.4733 -0.0760 -0.4526
  515TIP3    H123104   1.613   3.065   0.152  0.2719  0.1897 -1.0090
  515TIP3    H223105   1.698   3.102   0.032  1.1988  0.2349 -0.3500
  516TIP3   OH223106   2.946   6.812   7.037  0.1795  0.0457  0.4685
  516TIP3    H123107   2.909   6.827   6.951  0.5468 -1.6233 -0.0164
  516TIP3    H223108   2.994   6.730   7.029 -1.5465 -1.3168  2.8095
  517TIP3   OH223109   0.228   5.813   1.921 -0.8158  0.1577  0.4336
  517TIP3    H123110   0.292   5.764   1.973 -0.7443  1.8147  2.0045
  517TIP3    H223111   0.147   5.762   1.929 -0.3747 -0.5202  0.6921
  518TIP3   OH223112   6.142   5.120   1.091  0.2610  0.5930  0.5380
  518TIP3    H123113   6.118   5.061   1.163 -1.0100  0.4400  0.0267
  518TIP3    H223114   6.091   5.088   1.016 -0.0676  2.0297  0.1206
  519TIP3   OH223115   2.823   5.833   8.410 -0.0217  0.5429 -0.1962
  519TIP3    H123116   2.863   5.847   8.324 -0.6641  1.1832 -0.4052
  519TIP3    H223117   2.858   5.904   8.464 -1.3625  1.5272 -0.5683
  520TIP3   OH223118   0.639   3.017   7.540 -0.4088  0.5740 -0.4199
  520TIP3    H123119   0.629   3.086   7.606  0.2007  1.5590 -1.3204
  520TIP3    H223120   0.553   2.974   7.537 -0.2128 -0.0709  1.5998
  521TIP3   OH223121   4.368   1.100   7.531 -0.2673  0.2742 -0.7019
  521TIP3    H123122   4.323   1.144   7.459 -0.4491  2.5859  0.7101
  521TIP3    H223123   4.461   1.114   7.514 -0.3287  2.0598  0.1275
  522TIP3   OH223124   0.004   5.028   7.529  0.5827 -0.2423 -0.2837
  522TIP3    H123125  -0.002   4.963   7.458  0.0194 -2.0696  1.3453
  522TIP3    H223126   0.076   4.996   7.584 -0.3230 -0.0366  1.0551
  523TIP3   OH223127   0.049   4.941   7.215 -0.4180 -0.2328 -0.2074
  523TIP3    H123128   0.069   5.011   7.153 -0.6150  0.4999  0.5415
  523TIP3    H223129  -0.044   4.923   7.201 -0.2277 -0.7713 -0.8176
  524TIP3   OH223130   4.573   5.232   8.482  0.3223  0.2190  0.0765
  524TIP3    H123131   4.648   5.251   8.539  0.6575  1.1015 -0.6230
  524TIP3    H223132   4.510   5.301   8.503  0.0328 -0.0511  0.0938
  525TIP3   OH223133   1.291   4.590   7.666 -0.0601 -0.7173 -0.2318
  525TIP3    H123134   1.293   4.516   7.727 -1.0712 -1.3667 -0.9616
  525TIP3    H223135   1.370   4.579   7.612 -0.4243 -1.4980 -0.6059
  526TIP3   OH223136   2.568   0.934   1.245  0.1259 -0.2457  0.5848
  526TIP3    H123137   2.559   0.852   1.197  1.8127 -0.4722  0.6148
  526TIP3    H223138   2.515   0.997   1.196  1.8121 -0.4500 -1.6361
  527TIP3   OH223139   1.309   1.426   6.670 -0.3383 -0.8546 -0.4886
  527TIP3    H123140   1.396   1.389   6.681 -0.6764 -1.4762  0.2196
  527TIP3    H223141   1.275   1.433   6.760 -0.4084  0.8835 -0.6245
  528TIP3   OH223142   6.178   4.258   2.358 -0.3539  0.9983  0.6735
  528TIP3    H123143   6.112   4.232   2.292 -1.2087 -1.5187  2.3806
  528TIP3    H223144   6.260   4.223   2.324 -1.0031 -1.5160  1.4388
  529TIP3   OH223145   2.831   0.008   1.260 -0.0524  0.0125  0.1256
  529TIP3    H123146   2.776   0.050   1.327  0.6931  1.2560  0.0029
  529TIP3    H223147   2.920   0.037   1.282  0.1717  0.6983 -1.5914
  530TIP3   OH223148   6.164   0.491   7.973 -0.3907 -0.2548 -0.8242
  530TIP3    H123149   6.249   0.534   7.968  0.5169 -1.8413  0.1160
  530TIP3    H223150   6.161   0.453   8.060 -1.3667 -1.6069 -1.4075
  531TIP3   OH223151   1.270   6.112   6.281 -0.8940  0.5002  0.0546
  531TIP3    H123152   1.278   6.017   6.281 -0.5892  0.5177 -0.5673
  531TIP3    H223153   1.360   6.143   6.295 -1.1173  0.7023  1.1369
  532TIP3   OH223154   5.284   2.364   1.123  0.5534  0.5822  0.2453
  532TIP3    H123155   5.199   2.323   1.106 -0.3968  1.2231  2.9130
  532TIP3    H223156   5.286   2.439   1.064 -0.6629  0.4701  0.0312
  533TIP3   OH223157   3.663   3.993   7.627  0.3229  0.5833  0.4693
  533TIP3    H123158   3.605   3.920   7.604  0.5978  0.6193 -0.3526
  533TIP3    H223159   3.696   4.025   7.543 -0.5974  2.3275  0.7314
  534TIP3   OH223160   5.390   0.941   6.763 -0.5668  0.2985  0.2069
  534TIP3    H123161   5.417   0.919   6.674 -0.7822  0.4892  0.0932
  534TIP3    H223162   5.311   0.888   6.777 -1.1334  1.0501 -0.0963
  535TIP3   OH223163   5.612   6.062   0.134  0.0557 -0.2181  0.1205
  535TIP3    H123164   5.558   6.061   0.213 -0.5030  0.6129 -0.2442
  535TIP3    H223165   5.687   6.006   0.156 -0.4795 -0.6234  0.9603
  536TIP3   OH223166   2.555   3.895   1.028 -0.0634 -0.2698  0.3205
  536TIP3    H123167   2.496   3.866   1.098  0.3749  1.2759  1.3833
  536TIP3    H223168   2.632   3.840   1.038  0.8348  1.2128  2.4248
  537TIP3   OH223169   0.682   0.050   8.138 -0.5056  0.6558 -0.5199
  537TIP3    H123170   0.704   0.138   8.171 -1.7441  1.3036 -1.3546
  537TIP3    H223171   0.734  -0.009   8.193  0.7434  1.9221 -0.2565
  538TIP3   OH223172   0.681   2.803   1.772  0.2014  0.7543 -0.2095
  538TIP3    H123173   0.629   2.740   1.821 -0.1845  0.6858 -0.6959
  538TIP3    H223174   0.652   2.888   1.803  0.1402  0.7072 -0.1382
  539TIP3   OH223175   1.621   1.433   6.593 -0.0690 -0.4727 -0.5201
  539TIP3    H123176   1.662   1.479   6.666  0.2465  0.2094 -1.1138
  539TIP3    H223177   1.609   1.500   6.526 -1.8278 -0.7484 -0.5122
  540TIP3   OH223178   3.605   4.120   6.910  0.3619 -0.7298 -0.1576
  540TIP3    H123179   3.562   4.168   6.839  1.1189 -0.6041 -0.5458
  540TIP3    H223180   3.682   4.082   6.869 -0.1911 -2.2484  0.1577
  541TIP3   OH223181   0.049   3.275   8.012  0.2277 -0.4902 -0.2892
  541TIP3    H123182  -0.038   3.292   8.048 -0.1994 -0.1563 -1.4261
  541TIP3    H223183   0.105   3.342   8.051 -0.3547  0.2567 -0.7072
  542TIP3   OH223184   0.358   1.986   0.206  0.0218 -0.3760 -0.2159
  542TIP3    H123185   0.426   2.016   0.145  0.4138 -2.1660 -0.7145
  542TIP3    H223186   0.397   1.999   0.293  1.2692 -1.8634 -0.5073
  543TIP3   OH223187   4.795   1.461   1.673  0.3368 -0.1561 -0.4403
  543TIP3    H123188   4.700   1.466   1.670  0.1727 -1.4449  1.2548
  543TIP3    H223189   4.820   1.524   1.740  0.4167 -1.6583  1.0152
  544TIP3   OH223190   6.417   4.390   1.265  0.5037  0.1216 -0.0249
  544TIP3    H123191   6.416   4.295   1.252  2.2138 -0.4023  2.8452
  544TIP3    H223192   6.506   4.417   1.243  0.6501  0.6884  1.1901
  545TIP3   OH223193   4.375   0.631   2.398  0.1273 -0.1514 -0.0442
  545TIP3    H123194   4.343   0.579   2.325  1.3611  0.5881 -1.1475
  545TIP3    H223195   4.317   0.707   2.401  1.4595  0.9919 -1.7884
  546TIP3   OH223196   2.889   0.535   1.251  0.5491  0.3496  0.5362
  546TIP3    H123197   2.926   0.484   1.324  0.3633 -0.0483  0.3574
  546TIP3    H223198   2.794   0.528   1.263  0.5149  0.0898  0.1263
  547TIP3   OH223199   0.681   0.735   1.407 -0.0957  0.6047 -0.0018
  547TIP3    H123200   0.677   0.764   1.316 -0.9840  1.3877  0.2692
  547TIP3    H223201   0.673   0.816   1.458 -0.7658  0.0639  0.7724
  548TIP3   OH223202   4.526   2.362   2.446 -0.2961  0.3061 -0.1862
  548TIP3    H123203   4.618   2.334   2.441  0.3019  1.6498  1.8244
  548TIP3    H223204   4.516   2.427   2.377  0.7005  1.2004  0.4896
  549TIP3   OH223205   4.325   1.397   0.380 -0.1123 -0.1142  0.1216
  549TIP3    H123206   4.275   1.316   0.391 -0.5352  0.1245 -0.0299
  549TIP3    H223207   4.262   1.467   0.400  0.5150  0.1518  1.2727
  550TIP3   OH223208   3.039   4.844   8.287  0.2091  0.0233 -0.5637
  550TIP3    H123209   3.034   4.797   8.370  0.3199  0.6439 -0.2010
  550TIP3    H223210   3.119   4.811   8.246  0.6312  0.3572 -0.0231
  551TIP3   OH223211   4.989   6.339   8.197 -0.4809 -0.0280  0.0370
  551TIP3    H123212   5.064   6.335   8.138  0.7001 -1.5112  1.5439
  551TIP3    H223213   4.926   6.276   8.161 -0.6009  0.4903 -0.6811
  552TIP3   OH223214   2.573   6.663   0.118  0.1045 -0.0845  0.1190
  552TIP3    H123215   2.583   6.660   0.023 -0.1650 -0.0413  0.0895
  552TIP3    H223216   2.657   6.631   0.152  0.4545  0.5545 -0.1287
  553TIP3   OH223217   4.966   4.159   0.257  0.5974 -0.0790 -0.3051
  553TIP3    H123218   5.051   4.174   0.300  1.1037 -1.2299 -0.8692
  553TIP3    H223219   4.902   4.199   0.317  1.6568  2.5887 -0.8207
  554TIP3   OH223220   3.963   3.551   0.841 -0.0629  0.0069  0.0387
  554TIP3    H123221   3.892   3.501   0.800 -0.7497  0.1449  1.0116
  554TIP3    H223222   4.043   3.506   0.815 -0.6203 -1.1693  0.2947
  555TIP3   OH223223   2.786   0.054   0.658  0.0058 -0.1734 -0.9408
  555TIP3    H123224   2.754  -0.034   0.640 -0.0256  0.0663 -2.1333
  555TIP3    H223225   2.841   0.044   0.736 -0.4669 -1.1334 -0.7139
  556TIP3   OH223226   1.390   3.362   7.511  0.1772  0.6807  0.3678
  556TIP3    H123227   1.473   3.318   7.492  0.9347  2.2703 -0.1717
  556TIP3    H223228   1.339   3.353   7.431 -0.6504 -1.2093  1.0424
  557TIP3   OH223229   0.187   2.801   6.060  0.8745 -0.0331 -0.3383
  557TIP3    H123230   0.114   2.745   6.087  0.2593  0.9630  0.1259
  557TIP3    H223231   0.247   2.742   6.014 -0.0342 -0.9492 -0.3836
  558TIP3   OH223232   4.260   0.590   1.016  0.4346 -0.1794 -0.1670
  558TIP3    H123233   4.292   0.679   1.004  0.5268 -0.1991 -0.0714
  558TIP3    H223234   4.203   0.596   1.093 -2.9106  0.6738 -2.4551
  559TIP3   OH223235   1.619   4.664   2.439 -0.2847  0.2206 -0.0372
  559TIP3    H123236   1.681   4.736   2.442 -0.1782  0.1156  0.4447
  559TIP3    H223237   1.633   4.617   2.522 -0.0349 -0.6107 -0.5417
  560TIP3   OH223238   2.330   6.368   0.786 -0.5341 -0.2736 -0.0337
  560TIP3    H123239   2.278   6.314   0.846  1.5311 -0.0314  2.1114
  560TIP3    H223240   2.329   6.319   0.704 -1.7357 -1.7063  0.7613
  561TIP3   OH223241   5.692   1.113   7.333  0.0220 -0.2637  0.8668
  561TIP3    H123242   5.696   1.192   7.389 -0.8787  0.3655  0.0840
  561TIP3    H223243   5.781   1.080   7.331  1.2227  2.6401 -1.4435
  562TIP3   OH223244   1.360   2.812   1.629 -0.4574 -0.0851 -0.1926
  562TIP3    H123245   1.362   2.777   1.719  0.0950  1.2480  0.3448
  562TIP3    H223246   1.267   2.819   1.607 -0.5856 -1.6588 -0.2455
  563TIP3   OH223247   6.284   6.819   2.218  0.2345 -0.0382 -0.0930
  563TIP3    H123248   6.248   6.731   2.218  0.3284 -0.0841 -0.7466
  563TIP3    H223249   6.224   6.869   2.163  0.2119  0.2922  0.2293
  564TIP3   OH223250   4.213   5.192   6.878 -0.0233  0.1204 -0.4690
  564TIP3    H123251   4.172   5.186   6.964  0.8608  0.8454  0.0214
  564TIP3    H223252   4.170   5.125   6.826 -0.1771 -0.7184  0.7027
  565TIP3   OH223253   2.740   5.045   1.231  0.6165 -0.5831 -0.0960
  565TIP3    H123254   2.733   5.128   1.185  1.7374 -0.6983 -0.5183
  565TIP3    H223255   2.653   5.005   1.223 -0.8721  1.7825  2.6231
  566TIP3   OH223256   5.331   2.454   7.422  0.3051 -0.2509 -0.4259
  566TIP3    H123257   5.275   2.411   7.357 -0.3411  1.3729 -0.9778
  566TIP3    H223258   5.320   2.401   7.501 -2.4842  0.2903 -0.3324
  567TIP3   OH223259   4.844   5.074   2.104 -0.1139  0.6326 -0.8234
  567TIP3    H123260   4.936   5.060   2.126 -0.4979 -1.2172 -0.2307
  567TIP3    H223261   4.845   5.108   2.015  1.1610  1.3587 -0.5547
  568TIP3   OH223262   4.318   6.662   0.008 -0.2025 -0.2171 -0.1339
  568TIP3    H123263   4.320   6.626   0.097  1.2699 -0.3637 -0.1911
  568TIP3    H223264   4.314   6.585  -0.049 -4.2283 -0.1146 -0.2593
  569TIP3   OH223265   1.351   6.257   0.278 -0.0948 -0.2690 -0.1332
  569TIP3    H123266   1.396   6.304   0.208 -1.0532 -0.5866 -0.9951
  569TIP3    H223267   1.262   6.243   0.244 -0.4991 -0.6739  1.0369
  570TIP3   OH223268   1.985   6.275   8.062 -0.6214  0.2239 -0.0921
  570TIP3    H123269   1.906   6.261   8.010  0.1392  0.7159 -1.4330
  570TIP3    H223270   2.017   6.361   8.034  0.3674  0.0398  0.4453
  571TIP3   OH223271   5.060   0.652   6.821 -0.8734 -0.2198  0.1360
  571TIP3    H123272   5.041   0.746   6.812  1.7098  0.3784  0.1443
  571TIP3    H223273   5.115   0.631   6.746  1.3366 -0.8708  1.8357
  572TIP3   OH223274   5.939   5.273   8.003  0.5814  0.3834 -0.0463
  572TIP3    H123275   5.944   5.312   7.916  2.5549  1.3937  0.4491
  572TIP3    H223276   5.917   5.346   8.061 -2.6059 -0.6167  0.1637
  573TIP3   OH223277   4.160   1.800   8.274  0.2984  0.1986  0.2947
  573TIP3    H123278   4.243   1.832   8.237 -0.0702 -0.8408 -1.5938
  573TIP3    H223279   4.092   1.849   8.227 -0.1987 -1.5050 -0.8671
  574TIP3   OH223280   4.745   2.345   7.411 -0.2259 -1.0463 -0.1510
  574TIP3    H123281   4.707   2.421   7.455 -0.2325 -0.4538 -1.1481
  574TIP3    H223282   4.828   2.331   7.457 -0.7057 -1.1115  0.7319
  575TIP3   OH223283   4.742   4.831   1.895 -0.2033  0.4403 -0.9808
  575TIP3    H123284   4.739   4.892   1.822 -1.6177 -0.0417 -1.3546
  575TIP3    H223285   4.658   4.843   1.940  0.9169  1.2871  1.0608
  576TIP3   OH223286   0.156   0.666   7.749  0.0486  0.2442 -0.1753
  576TIP3    H123287   0.235   0.653   7.695 -0.6828 -1.2484 -0.9420
  576TIP3    H223288   0.169   0.609   7.825  0.7407  1.7894  0.9256
  577TIP3   OH223289   6.280   6.031   6.682 -0.6786  0.4592 -0.1075
  577TIP3    H123290   6.257   6.123   6.669 -2.1347  0.3705  1.4455
  577TIP3    H223291   6.219   5.984   6.626  0.3895  0.4290 -1.2755
  578TIP3   OH223292   4.178   6.536   0.248 -0.0693 -0.2119 -0.1062
  578TIP3    H123293   4.163   6.442   0.263 -0.0382 -0.0266  1.1523
  578TIP3    H223294   4.115   6.559   0.179 -1.4100 -0.7613  0.8910
  579TIP3   OH223295   4.825   0.864   0.598 -0.6752 -0.5615 -0.2904
  579TIP3    H123296   4.794   0.953   0.615 -1.7501 -0.6827 -1.4964
  579TIP3    H223297   4.819   0.819   0.683  0.2412  0.6019  0.4180
  580TIP3   OH223298   2.338   6.757   1.217  0.6509  0.6781  0.3713
  580TIP3    H123299   2.245   6.774   1.231  1.0438  1.6491  2.2014
  580TIP3    H223300   2.350   6.665   1.241  0.2600  0.7230  0.7477
  581TIP3   OH223301   2.737   3.210   8.053  0.3451 -0.1645 -0.1833
  581TIP3    H123302   2.763   3.264   7.979  2.2799 -0.3324  0.3032
  581TIP3    H223303   2.689   3.137   8.014 -1.0777  1.1268 -0.9734
  582TIP3   OH223304   6.560   0.627   6.856 -0.1267 -0.0863 -0.1627
  582TIP3    H123305   6.627   0.678   6.901  0.5733 -0.7931 -0.3664
  582TIP3    H223306   6.607   0.583   6.785 -0.8988 -0.2399 -0.5910
  583TIP3   OH223307   2.640   5.411   8.138  0.1793  0.2992  0.3946
  583TIP3    H123308   2.611   5.490   8.094  0.4841 -0.2928 -0.9173
  583TIP3    H223309   2.729   5.430   8.167 -0.0460  0.7148  0.8293
  584TIP3   OH223310   5.847   2.917   7.838  0.0820 -0.4388 -0.8644
  584TIP3    H123311   5.929   2.908   7.887  0.5678 -1.0118 -1.7565
  584TIP3    H223312   5.796   2.840   7.861 -0.7508  0.4952  0.6222
  585TIP3   OH223313   6.781   1.284   1.125  0.1287 -0.5616 -0.2662
  585TIP3    H123314   6.722   1.256   1.055 -0.3028 -0.1852 -0.0627
  585TIP3    H223315   6.798   1.204   1.175  0.3038 -0.7991 -0.6991
  586TIP3   OH223316   4.173   5.329   7.549 -0.0582  0.3697 -0.4586
  586TIP3    H123317   4.191   5.413   7.591  2.3664  0.7252 -2.0406
  586TIP3    H223318   4.123   5.280   7.615  1.0569  1.9430  1.6858
  587TIP3   OH223319   6.615   4.937   2.078  0.0687 -0.2027  0.2572
  587TIP3    H123320   6.703   4.975   2.083  0.2128 -0.3698 -0.8970
  587TIP3    H223321   6.616   4.868   2.145  1.2763 -1.0865 -0.6093
  588TIP3   OH223322   2.510   6.178   7.997  0.3835  0.1549 -0.2111
  588TIP3    H123323   2.516   6.191   8.092  1.4546 -1.4116 -0.0265
  588TIP3    H223324   2.422   6.141   7.984  0.4128 -0.0809  0.2280
  589TIP3   OH223325   4.502   6.024   2.535  0.1585 -0.3537  0.8755
  589TIP3    H123326   4.549   5.995   2.457  1.0300 -1.7145  1.8603
  589TIP3    H223327   4.422   5.972   2.535  0.9780 -1.6913  1.7823
  590TIP3   OH223328   1.885   4.339   7.223  0.2850 -0.5416  0.1995
  590TIP3    H123329   1.831   4.264   7.199  1.7619 -1.3727 -0.7163
  590TIP3    H223330   1.830   4.415   7.209 -2.3486 -1.4468  3.9504
  591TIP3   OH223331   4.072   3.997   8.216  0.0014 -1.1520  0.1632
  591TIP3    H123332   4.010   4.010   8.145  1.5075 -0.4429 -1.0833
  591TIP3    H223333   4.020   4.006   8.296 -1.4429 -0.3987 -0.8284
  592TIP3   OH223334   0.209   5.153   7.123  0.1145 -0.2959  0.5663
  592TIP3    H123335   0.183   5.244   7.137 -1.3581 -0.3123 -1.5453
  592TIP3    H223336   0.303   5.152   7.137  0.1850  1.5870  0.4534
  593TIP3   OH223337   1.667   5.282   0.267  0.1713  0.2862  0.1436
  593TIP3    H123338   1.647   5.292   0.175  1.3829 -0.5160 -0.2390
  593TIP3    H223339   1.724   5.356   0.288 -2.1409  1.9498  0.9538
  594TIP3   OH223340   0.357   3.711   1.293 -0.0818  0.1664  0.2286
  594TIP3    H123341   0.315   3.707   1.379 -1.3605  2.2492 -0.2339
  594TIP3    H223342   0.393   3.623   1.280 -4.7792 -2.0421  0.4494
  595TIP3   OH223343   6.584   5.203   7.174  0.1622 -0.2387 -0.7480
  595TIP3    H123344   6.533   5.126   7.199 -0.1334 -0.2659 -1.4207
  595TIP3    H223345   6.660   5.202   7.232 -2.4568  2.0044  3.2361
  596TIP3   OH223346   2.815   0.230   7.663 -0.0084 -0.3119 -0.0057
  596TIP3    H123347   2.795   0.278   7.743  0.3395  1.2137 -0.8034
  596TIP3    H223348   2.830   0.298   7.597 -1.1666 -1.5339 -1.5927
  597TIP3   OH223349   0.570   6.154   8.296  0.3822 -0.1209  0.1894
  597TIP3    H123350   0.507   6.124   8.230 -1.7039  0.8227  1.6542
  597TIP3    H223351   0.590   6.244   8.270  1.0209 -0.3609 -0.1729
  598TIP3   OH223352   4.692   5.571   1.657 -0.1943 -0.2044 -0.2863
  598TIP3    H123353   4.752   5.632   1.699 -2.1811  1.6731 -0.0167
  598TIP3    H223354   4.707   5.583   1.564 -1.3165  1.5885 -0.2796
  599TIP3   OH223355   2.574   3.656   8.503  0.3811  0.5150  0.2144
  599TIP3    H123356   2.508   3.709   8.457 -1.8386 -2.3643 -0.2191
  599TIP3    H223357   2.594   3.706   8.582 -3.2657  1.0897  0.9484
  600TIP3   OH223358   4.238   0.016   6.676 -0.0422 -0.3406  0.1218
  600TIP3    H123359   4.284  -0.046   6.620  1.0367 -1.5121  2.2165
  600TIP3    H223360   4.187  -0.038   6.736  0.2954  0.7871  1.4862
  601TIP3   OH223361   3.396   3.225   1.077  0.0748 -0.2677 -0.0846
  601TIP3    H123362   3.403   3.190   1.166  3.4720  1.9416  0.6986
  601TIP3    H223363   3.390   3.320   1.088 -0.7949 -0.0009 -2.2510
  602TIP3   OH223364   5.916   1.673   6.353  0.1083  0.7870  0.2086
  602TIP3    H123365   6.003   1.663   6.315  0.6331 -1.0713  1.7435
  602TIP3    H223366   5.861   1.614   6.303 -0.6154  2.7632 -1.4921
  603TIP3   OH223367   3.491   2.420   0.109  0.7480 -0.1235  0.1453
  603TIP3    H123368   3.482   2.372   0.191  2.1641 -0.2351  0.2720
  603TIP3    H223369   3.408   2.466   0.098  0.6652  0.1866  1.8322
  604TIP3   OH223370   4.417   0.383   8.286  0.0788  0.4724  0.4017
  604TIP3    H123371   4.488   0.335   8.243 -1.1178 -0.8295 -0.2370
  604TIP3    H223372   4.459   0.458   8.328  1.5521  0.8010 -1.5458
  605TIP3   OH223373   6.233   4.147   1.612 -0.1898 -0.2802  0.1876
  605TIP3    H123374   6.199   4.234   1.593 -0.2779 -0.6570 -1.5232
  605TIP3    H223375   6.326   4.162   1.631 -0.0648  0.1352 -0.6973
  606TIP3   OH223376   2.269   2.902   7.941 -0.2601  0.4236  0.1277
  606TIP3    H123377   2.284   2.826   7.997 -1.0001 -1.5250 -2.1149
  606TIP3    H223378   2.178   2.927   7.957 -1.0452 -1.2622 -1.3601
  607TIP3   OH223379   4.367   3.966   0.739  0.6660 -0.6272  0.2506
  607TIP3    H123380   4.368   3.996   0.830  0.7159  0.0143  0.0369
  607TIP3    H223381   4.389   4.043   0.687  0.5100 -0.9586 -0.3177
  608TIP3   OH223382   2.764   0.646   8.586  0.0231  0.0414  0.4462
  608TIP3    H123383   2.730   0.735   8.588  1.9396  0.7869  1.8031
  608TIP3    H223384   2.847   0.652   8.539 -0.9345 -1.5273 -1.6804
  609TIP3   OH223385   4.069   4.767   6.232  0.4851  0.2322  0.0140
  609TIP3    H123386   4.123   4.823   6.177  2.0961 -0.8963  0.3739
  609TIP3    H223387   4.044   4.822   6.306  1.6714  0.6175  0.1419
  610TIP3   OH223388   6.092   2.495   0.590  0.0101 -0.6786 -0.0949
  610TIP3    H123389   6.023   2.531   0.535  1.7193 -0.7265 -2.3895
  610TIP3    H223390   6.111   2.564   0.654 -1.6991 -0.4472  0.2005
  611TIP3   OH223391   3.486   6.366   7.357 -0.0940  0.3267 -0.0278
  611TIP3    H123392   3.463   6.454   7.386 -1.4117  0.6309 -1.8846
  611TIP3    H223393   3.420   6.309   7.397  0.0305  0.3284  0.1815
  612TIP3   OH223394   4.543   3.097   0.657  0.1903 -0.6244  0.2502
  612TIP3    H123395   4.597   3.158   0.606  1.7658 -1.5458  0.7673
  612TIP3    H223396   4.574   3.010   0.633 -3.3819 -1.4886 -2.0331
  613TIP3   OH223397   3.539   2.059   8.138  0.2794  0.5343 -0.4912
  613TIP3    H123398   3.547   2.097   8.050 -0.9987  0.0291 -0.8472
  613TIP3    H223399   3.584   1.974   8.130 -2.4064 -0.9077 -1.5948
  614TIP3   OH223400   6.117   0.525   1.678  0.2911 -0.1412 -0.0770
  614TIP3    H123401   6.133   0.553   1.768  0.8451 -0.9194  0.0789
  614TIP3    H223402   6.177   0.579   1.626 -1.4319  1.7338 -0.2258
  615TIP3   OH223403   3.653   2.268   8.583  0.2257 -0.3521 -0.2978
  615TIP3    H123404   3.711   2.207   8.629 -0.6634 -0.5145  0.6264
  615TIP3    H223405   3.607   2.315   8.652 -1.5806 -1.0280 -0.9934
  616TIP3   OH223406   2.025   4.702   6.943  0.2604 -0.0375 -0.0189
  616TIP3    H123407   2.064   4.617   6.921  0.5063  0.2141 -0.5773
  616TIP3    H223408   2.077   4.765   6.894  0.9002  0.5684  1.3781
  617TIP3   OH223409   3.959   6.440   2.291 -0.9960  0.2028  0.3055
  617TIP3    H123410   3.977   6.417   2.383 -2.4285  1.0205  0.8210
  617TIP3    H223411   3.891   6.378   2.264  0.1272 -0.6943 -0.5559
  618TIP3   OH223412   2.604   2.068   0.921  0.0968  0.1075 -0.0035
  618TIP3    H123413   2.579   1.982   0.888  0.4376  0.2020 -0.5130
  618TIP3    H223414   2.546   2.129   0.876 -1.9837 -0.0299  2.2847
  619TIP3   OH223415   2.471   5.017   0.551  0.6286  0.0377 -1.0486
  619TIP3    H123416   2.390   5.030   0.503 -0.6602  0.7687  1.1563
  619TIP3    H223417   2.445   5.021   0.643  3.2223  0.7241 -0.2478
  620TIP3   OH223418   3.114   2.870   1.208  0.3383 -0.5246 -0.4880
  620TIP3    H123419   3.127   2.884   1.114 -1.9627  1.0464 -0.6537
  620TIP3    H223420   3.171   2.935   1.250 -0.8076  0.8191 -0.9327
  621TIP3   OH223421   3.626   2.984   0.155 -0.6193  0.0169  0.0794
  621TIP3    H123422   3.580   2.971   0.238 -0.7151  0.3711  0.0800
  621TIP3    H223423   3.704   2.928   0.162  0.1347  1.1274  0.9933
  622TIP3   OH223424   5.487   0.036   2.220  0.1210  0.3917  0.0588
  622TIP3    H123425   5.407   0.035   2.273 -0.8355  0.9093 -1.3267
  622TIP3    H223426   5.479  -0.039   2.162 -0.3654  1.5998 -1.4903
  623TIP3   OH223427   6.195   6.865   1.836  0.0702  0.2012 -0.2147
  623TIP3    H123428   6.140   6.917   1.895 -0.9433  0.0961 -1.0338
  623TIP3    H223429   6.229   6.929   1.774  2.3996  0.5759  1.3402
  624TIP3   OH223430   6.845   0.344   0.580 -0.0646  0.1183  0.3991
  624TIP3    H123431   6.828   0.274   0.516  0.6451 -1.7067  2.1179
  624TIP3    H223432   6.778   0.410   0.561 -0.5870 -0.8773 -1.4700
  625TIP3   OH223433   5.940   1.647   0.657 -0.2691  0.6398  0.3319
  625TIP3    H123434   5.850   1.649   0.689 -0.5858 -1.1494 -0.3322
  625TIP3    H223435   5.992   1.622   0.734 -0.3164  1.6036  0.6973
  626TIP3   OH223436   1.125   0.757   0.761  0.0235  0.1424 -0.3917
  626TIP3    H123437   1.134   0.774   0.855 -1.0536 -0.1571 -0.2224
  626TIP3    H223438   1.169   0.831   0.719  0.3713  0.3645  0.3447
  627TIP3   OH223439   3.789   0.440   2.057  0.4673  0.5808 -0.0020
  627TIP3    H123440   3.833   0.373   2.109 -1.4949  0.1391  1.1918
  627TIP3    H223441   3.722   0.392   2.008  0.0191  1.4768 -0.2807
  628TIP3   OH223442   4.290   1.534   1.124  0.1492 -0.6844 -0.1308
  628TIP3    H123443   4.267   1.588   1.200 -0.0497  0.6006 -1.0700
  628TIP3    H223444   4.224   1.465   1.121 -0.8773  0.2792 -0.1392
  629TIP3   OH223445   2.940   0.707   0.599  0.1134 -0.4406 -0.4141
  629TIP3    H123446   3.032   0.699   0.574  1.1203  3.4221  1.3188
  629TIP3    H223447   2.939   0.686   0.693  0.6207  4.9853  1.1152
  630TIP3   OH223448   5.199   5.465   8.294 -0.2402 -0.0874 -0.3597
  630TIP3    H123449   5.118   5.515   8.284  0.3235  0.4853 -2.6163
  630TIP3    H223450   5.176   5.377   8.265  0.0976  0.2610 -1.7367
  631TIP3   OH223451   3.625   0.139   1.187 -0.3812  0.6784  0.3048
  631TIP3    H123452   3.664   0.085   1.119 -0.7053 -0.1785  0.7898
  631TIP3    H223453   3.678   0.219   1.187 -0.4828  0.7737 -1.0602
  632TIP3   OH223454   0.687   1.518   7.008 -0.4469 -0.0830 -0.5367
  632TIP3    H123455   0.639   1.601   6.998  0.5014  0.6924  0.9427
  632TIP3    H223456   0.631   1.453   6.967 -1.7821  1.1178 -0.6965
  633TIP3   OH223457   1.610   4.487   2.634  0.2776  0.3255 -0.2707
  633TIP3    H123458   1.610   4.416   2.571 -0.2030 -0.1838  0.2916
  633TIP3    H223459   1.671   4.459   2.703 -0.6779 -0.0121  0.4550
  634TIP3   OH223460   0.245   3.183   2.438  0.2296  0.2322  0.8403
  634TIP3    H123461   0.216   3.183   2.529 -0.6490 -0.6561  0.5709
  634TIP3    H223462   0.327   3.232   2.440  1.2532 -1.4073  2.4347
  635TIP3   OH223463   2.006   6.321   1.583 -0.5064  0.3808 -0.3786
  635TIP3    H123464   1.939   6.388   1.570  0.4964  2.0431  2.2296
  635TIP3    H223465   2.073   6.340   1.517 -0.4009  1.7630  0.0991
  636TIP3   OH223466   3.615   3.174   8.023 -0.0992 -0.8323  0.2473
  636TIP3    H123467   3.564   3.103   8.062 -0.1988 -0.4643  0.8017
  636TIP3    H223468   3.552   3.222   7.969 -1.0656  1.1621  2.9053
  637TIP3   OH223469   1.427   6.464   7.607  0.1279 -0.3211  0.5524
  637TIP3    H123470   1.510   6.506   7.630  0.2604  0.7499 -1.6055
  637TIP3    H223471   1.372   6.478   7.684  1.5428  0.0446  1.5488
  638TIP3   OH223472   2.352   0.351   7.489  0.0265 -0.1747 -0.1989
  638TIP3    H123473   2.396   0.396   7.562 -0.9828  1.0228 -0.2888
  638TIP3    H223474   2.277   0.407   7.469  0.6472 -0.0896 -2.6232
  639TIP3   OH223475   4.129   6.284   0.340 -0.0903  0.1022  0.1735
  639TIP3    H123476   4.048   6.233   0.338  0.0456 -0.1023 -0.4321
  639TIP3    H223477   4.192   6.231   0.291  0.5333  0.0624  0.9872
  640TIP3   OH223478   5.727   4.270   1.329  0.2683  0.6450 -0.1406
  640TIP3    H123479   5.773   4.353   1.338  0.2401  0.7978 -1.2891
  640TIP3    H223480   5.789   4.213   1.284  0.1683  0.1397  0.3503
  641TIP3   OH223481   6.146   1.008   8.563 -0.1313  0.1631  0.4822
  641TIP3    H123482   6.127   1.077   8.499 -1.0227 -1.2719 -0.8645
  641TIP3    H223483   6.065   0.999   8.613  0.7663  1.7521  2.3980
  642TIP3   OH223484   6.386   2.748   1.663 -0.3246 -0.1582  0.3358
  642TIP3    H123485   6.291   2.757   1.651 -0.2597  1.1309  0.6273
  642TIP3    H223486   6.400   2.765   1.756  0.3306  1.2008  0.0182
  643TIP3   OH223487   1.215   6.195   1.724 -0.5634  0.2249  0.3074
  643TIP3    H123488   1.267   6.253   1.669 -1.5035  1.6663  0.8837
  643TIP3    H223489   1.212   6.112   1.675  1.2208  0.4734 -0.2908
  644TIP3   OH223490   6.497   5.255   1.607  0.6702  0.1502 -0.1346
  644TIP3    H123491   6.496   5.342   1.648 -2.9684  0.7530 -1.0931
  644TIP3    H223492   6.551   5.265   1.530  1.2771  1.2221  0.4079
  645TIP3   OH223493   1.413   4.102   7.007  0.0541  0.1522 -0.3286
  645TIP3    H123494   1.415   4.174   6.944 -1.2136  2.6401  2.2279
  645TIP3    H223495   1.474   4.128   7.075 -0.7004 -1.0135  0.8402
  646TIP3   OH223496   6.669   2.655   8.118 -0.4153 -0.0671 -0.4928
  646TIP3    H123497   6.696   2.716   8.186  2.1457 -1.9306  0.3170
  646TIP3    H223498   6.704   2.692   8.037  0.4848 -0.0443 -0.1067
  647TIP3   OH223499   4.298   6.480   1.695 -0.4919  1.0636  0.3705
  647TIP3    H123500   4.348   6.401   1.718 -0.6895  0.3606 -1.4094
  647TIP3    H223501   4.363   6.550   1.692  0.3662  0.2684 -1.3851
  648TIP3   OH223502   0.909   4.333   1.028  0.2474  0.5055 -0.4530
  648TIP3    H123503   0.951   4.303   1.109  0.3054  0.7515 -0.3905
  648TIP3    H223504   0.815   4.326   1.045  0.2602 -0.2797 -0.6803
  649TIP3   OH223505   5.109   5.701   1.417  0.4593  0.3140 -0.3378
  649TIP3    H123506   5.138   5.620   1.375 -0.7446 -1.9867  2.8509
  649TIP3    H223507   5.145   5.697   1.506 -1.4249  2.1676  0.6134
  650TIP3   OH223508   2.430   0.487   7.721 -0.1015 -0.0149 -0.5836
  650TIP3    H123509   2.513   0.525   7.693 -1.0337 -0.5295 -4.8374
  650TIP3    H223510   2.416   0.520   7.809  3.9314  1.1289 -0.1901
  651TIP3   OH223511   4.642   6.144   7.584 -0.1944  0.0550 -0.7393
  651TIP3    H123512   4.690   6.178   7.509 -0.9097 -0.3903 -1.4118
  651TIP3    H223513   4.559   6.190   7.583  0.0044  0.4520  0.1192
  652TIP3   OH223514   6.692   0.584   0.597 -0.1371 -0.2618  0.3031
  652TIP3    H123515   6.673   0.626   0.513  0.5166  0.1887  0.3785
  652TIP3    H223516   6.606   0.568   0.635 -0.4078  0.9376  0.2360
  653TIP3   OH223517   2.869   3.252   6.729 -0.3362  0.0338  0.8148
  653TIP3    H123518   2.880   3.157   6.717  2.5601  0.2909  0.6898
  653TIP3    H223519   2.803   3.277   6.665 -0.3873 -1.7416  0.1168
  654TIP3   OH223520   5.104   0.095   0.068 -0.5070  0.6958 -0.3832
  654TIP3    H123521   5.049   0.099   0.146  0.7210  1.4599  0.4844
  654TIP3    H223522   5.089   0.007   0.033 -1.9114  0.7240  0.0692
  655TIP3   OH223523   3.873   0.410   6.900  0.8554 -0.9339 -0.5444
  655TIP3    H123524   3.966   0.405   6.881  1.1565  2.4566 -0.5912
  655TIP3    H223525   3.843   0.489   6.855 -2.2726 -2.3428 -1.2381
  656TIP3   OH223526   1.135   0.397   6.924  0.7752  0.0053 -0.1236
  656TIP3    H123527   1.070   0.464   6.947  1.2429  1.2270 -2.0525
  656TIP3    H223528   1.086   0.333   6.873  1.1551  1.5336 -2.6204
  657TIP3   OH223529   0.000   0.863   1.108 -0.3651  0.4046  0.0189
  657TIP3    H123530   0.011   0.949   1.149  0.6397  0.4617 -0.3458
  657TIP3    H223531  -0.093   0.843   1.119 -0.8230  1.9554 -0.7078
  658TIP3   OH223532   3.908   1.365   7.952 -0.3440  0.0820 -0.3369
  658TIP3    H123533   3.850   1.409   8.014 -3.5106 -0.4240 -2.6779
  658TIP3    H223534   3.905   1.273   7.978  0.0861  0.1677  0.0235
  659TIP3   OH223535   6.338   3.221   2.706  0.5696 -0.0355  0.3412
  659TIP3    H123536   6.303   3.197   2.620  0.0965 -0.1119  0.5505
  659TIP3    H223537   6.285   3.172   2.768  1.4102 -0.5713  0.6496
  660TIP3   OH223538   0.084   0.365   8.504 -0.7233  0.7859 -0.4889
  660TIP3    H123539  -0.003   0.332   8.528 -0.1621  0.9215  2.0222
  660TIP3    H223540   0.112   0.415   8.581  1.3565  1.2101 -1.4733
  661TIP3   OH223541   6.075   6.574   0.433  0.5333  0.2693  0.3508
  661TIP3    H123542   6.016   6.499   0.428  0.6079 -0.0332  2.9478
  661TIP3    H223543   6.022   6.645   0.469  0.8269  1.0996 -0.7820
  662TIP3   OH223544   0.640   5.841   0.646 -0.0912 -0.8497 -0.8513
  662TIP3    H123545   0.675   5.795   0.722  0.3902 -0.1215 -0.6250
  662TIP3    H223546   0.709   5.903   0.622 -0.5476 -0.5610 -1.4254
  663TIP3   OH223547   5.055   1.764   6.894  0.4213 -0.1181 -0.5339
  663TIP3    H123548   5.065   1.816   6.974  0.0778  0.5228 -0.8925
  663TIP3    H223549   5.035   1.829   6.827 -4.0323 -0.9218 -0.3053
  664TIP3   OH223550   6.509   4.136   0.930  0.1632 -0.6190  0.0404
  664TIP3    H123551   6.582   4.198   0.925 -0.1019 -0.3010  0.0950
  664TIP3    H223552   6.481   4.139   1.021  0.0611 -0.7214  0.0123
  665TIP3   OH223553   3.130   6.557   0.206  0.1315  0.0686 -0.1250
  665TIP3    H123554   3.154   6.602   0.125  0.3699  1.7276  0.8226
  665TIP3    H223555   3.077   6.620   0.254 -1.9252 -1.6942  0.0823
  666TIP3   OH223556   4.629   0.601   7.980  0.0113 -0.3940  0.1254
  666TIP3    H123557   4.552   0.640   8.022  1.2950  0.2814  1.9464
  666TIP3    H223558   4.592   0.535   7.920 -1.9578 -0.5281  1.3924
  667TIP3   OH223559   2.179   5.165   8.597  0.3950 -0.6340  0.1328
  667TIP3    H123560   2.214   5.140   8.683  2.2012 -0.6679 -0.5563
  667TIP3    H223561   2.251   5.146   8.536 -1.1308 -1.4492 -1.5274
  668TIP3   OH223562   3.045   3.288   1.597 -0.8141 -0.1751  0.2375
  668TIP3    H123563   3.019   3.203   1.562 -1.4470 -0.3761  1.1538
  668TIP3    H223564   3.019   3.351   1.530 -0.8509 -0.6543 -0.2036
  669TIP3   OH223565   1.710   1.530   1.211 -0.4830  0.3138 -0.1230
  669TIP3    H123566   1.761   1.574   1.279 -0.9863  1.6269 -0.5502
  669TIP3    H223567   1.713   1.438   1.234  0.9977  0.5091  0.5701
  670TIP3   OH223568   6.759   4.213   0.597  0.0771 -0.2826  0.0044
  670TIP3    H123569   6.673   4.249   0.620 -0.7485 -1.7650 -0.6425
  670TIP3    H223570   6.817   4.289   0.600 -1.6160  1.1896 -1.5072
  671TIP3   OH223571   1.200   6.392   6.759 -0.6209  0.1971 -0.1103
  671TIP3    H123572   1.215   6.365   6.669  0.2362  1.0114 -0.2355
  671TIP3    H223573   1.114   6.432   6.759 -0.8407 -0.2773 -0.4531
  672TIP3   OH223574   3.274   1.016   1.642  0.5659  0.2229  0.3087
  672TIP3    H123575   3.192   0.974   1.671 -1.3410  2.3762 -1.5799
  672TIP3    H223576   3.343   0.959   1.676 -1.7127 -2.1050  1.3993
  673TIP3   OH223577   4.709   4.103   7.095  0.8633  0.0226 -0.8821
  673TIP3    H123578   4.663   4.019   7.103 -0.7853  0.8475 -1.2596
  673TIP3    H223579   4.778   4.099   7.161 -0.7653 -0.6709  0.8742
  674TIP3   OH223580   2.100   4.229   7.359  0.4112 -0.2801 -0.0202
  674TIP3    H123581   2.150   4.301   7.397  1.4621  0.3940 -2.5193
  674TIP3    H223582   2.028   4.272   7.312  0.6897 -0.8832 -1.0189
  675TIP3   OH223583   2.474   0.734   2.093 -0.3127 -0.7801  0.0619
  675TIP3    H123584   2.547   0.677   2.073  0.3986  0.5640 -1.3895
  675TIP3    H223585   2.426   0.742   2.011 -1.9356 -1.3804  0.9040
  676TIP3   OH223586   2.083   3.039   1.074 -0.4294  0.1572 -0.4023
  676TIP3    H123587   2.008   3.069   1.124  0.1089  0.1519  0.4184
  676TIP3    H223588   2.157   3.090   1.108  0.1644 -0.7548 -0.2953
  677TIP3   OH223589   1.950   6.561   0.326  0.0855  0.7745  0.0780
  677TIP3    H123590   1.997   6.576   0.408 -0.4308  0.8833  0.3644
  677TIP3    H223591   1.910   6.474   0.337 -0.2603  0.9307  0.0860
  678TIP3   OH223592   0.487   5.388   2.231  0.2590  0.4924  0.4664
  678TIP3    H123593   0.450   5.313   2.276 -0.8686  0.3948 -0.5771
  678TIP3    H223594   0.580   5.384   2.250  0.1381 -0.8654  0.8478
  679TIP3   OH223595   0.687   1.005   6.705 -0.1566 -0.1071 -0.1131
  679TIP3    H123596   0.669   0.955   6.785 -1.0077 -2.4881 -1.6666
  679TIP3    H223597   0.658   0.947   6.634  0.5129  1.9220 -2.1581
  680TIP3   OH223598   6.764   3.434   7.806  0.0308  0.3338  0.3577
  680TIP3    H123599   6.856   3.462   7.800  0.3424 -0.8169 -0.8190
  680TIP3    H223600   6.766   3.358   7.863  0.1687 -0.9499 -1.2855
  681TIP3   OH223601   5.540   0.648   6.824  0.0640  0.2891  0.1447
  681TIP3    H123602   5.611   0.699   6.863 -0.6435  2.1939 -0.9391
  681TIP3    H223603   5.573   0.622   6.738  0.1008 -0.3632  0.3509
  682TIP3   OH223604   6.229   1.810   0.718 -0.3005 -0.1986 -0.5551
  682TIP3    H123605   6.214   1.803   0.812 -0.5628  2.6014 -0.3258
  682TIP3    H223606   6.314   1.768   0.704  1.0899  1.7787  1.4182
  683TIP3   OH223607   2.973   4.095   7.500 -0.6132  0.2043  0.5379
  683TIP3    H123608   2.965   4.118   7.407 -0.0101  0.9821  0.6711
  683TIP3    H223609   2.966   4.179   7.546 -1.3486 -0.2210  1.2359
  684TIP3   OH223610   5.530   5.931   7.812  0.2404  0.5685  0.1859
  684TIP3    H123611   5.571   6.016   7.828 -0.0023  0.6598  0.3318
  684TIP3    H223612   5.563   5.904   7.726 -1.6291  1.9834 -1.0627
  685TIP3   OH223613   2.126   1.294   1.142 -0.1368  0.1431 -0.6244
  685TIP3    H123614   2.185   1.282   1.067  0.2325  0.5952 -0.4159
  685TIP3    H223615   2.041   1.264   1.111  0.0450  0.1906 -1.1817
  686TIP3   OH223616   2.933   1.829   2.313  0.4357  0.3736 -0.2337
  686TIP3    H123617   2.937   1.735   2.332 -1.0550  0.4587  0.6774
  686TIP3    H223618   3.024   1.859   2.316  1.0673 -1.2224 -1.6371
  687TIP3   OH223619   1.327   6.834   8.146 -0.0594  0.2308  0.5005
  687TIP3    H123620   1.410   6.787   8.135  0.4268  0.8604  1.3500
  687TIP3    H223621   1.308   6.870   8.060 -0.1576 -1.0435 -0.0374
  688TIP3   OH223622   0.892   3.221   2.396  0.1929  0.3798 -0.1236
  688TIP3    H123623   0.882   3.262   2.310  0.9500  0.9004  0.0254
  688TIP3    H223624   0.961   3.156   2.383  0.5494  0.6982  0.1713
  689TIP3   OH223625   4.112   0.095   1.072 -0.2417 -0.0550  0.3051
  689TIP3    H123626   4.132   0.183   1.040  2.9432 -0.0443  1.9430
  689TIP3    H223627   4.151   0.036   1.008 -0.6751 -0.2454  0.2118
  690TIP3   OH223628   3.859   6.180   1.892  0.1202  0.0388 -0.8012
  690TIP3    H123629   3.808   6.181   1.973 -0.7723 -1.2920 -1.3066
  690TIP3    H223630   3.945   6.147   1.919 -0.1649 -0.3864 -0.3891
  691TIP3   OH223631   0.259   5.833   6.649 -0.5993  0.1546 -0.7973
  691TIP3    H123632   0.180   5.887   6.637 -2.3055 -2.0347 -0.1152
  691TIP3    H223633   0.225   5.744   6.658  1.9631 -0.8009  0.0495
  692TIP3   OH223634   4.320   6.795   8.145  0.1981  0.2575 -0.0339
  692TIP3    H123635   4.405   6.757   8.171  0.7252  1.7398  0.4995
  692TIP3    H223636   4.281   6.825   8.227 -0.9469 -0.5406 -0.2547
  693TIP3   OH223637   1.345   1.769   8.479  0.7366 -0.1595 -0.1543
  693TIP3    H123638   1.436   1.750   8.500  0.5490 -3.0266 -1.4935
  693TIP3    H223639   1.347   1.807   8.391  0.6876  0.9670  0.3121
  694TIP3   OH223640   5.255   0.827   7.941  0.4222  0.0063  0.3645
  694TIP3    H123641   5.245   0.909   7.990  0.2011  0.9203 -1.1618
  694TIP3    H223642   5.339   0.836   7.896  0.4803 -0.6845  0.3248
  695TIP3   OH223643   5.815   4.683   7.821 -0.8527  0.6628 -0.3931
  695TIP3    H123644   5.773   4.763   7.851 -0.5535  0.4889  0.5304
  695TIP3    H223645   5.745   4.634   7.777 -1.2698  0.9936 -0.1015
  696TIP3   OH223646   4.328   3.062   0.407  0.3171 -0.3654  0.3694
  696TIP3    H123647   4.236   3.066   0.379  0.6547  0.3438 -0.7023
  696TIP3    H223648   4.324   3.072   0.503 -0.7403 -0.7186  0.3769
  697TIP3   OH223649   6.463   1.913   7.377  0.3396 -0.2383  0.6796
  697TIP3    H123650   6.522   1.866   7.435  0.2333  1.0146  1.8752
  697TIP3    H223651   6.376   1.899   7.415  0.2081  0.1886  0.5459
  698TIP3   OH223652   0.592   3.118   0.743  0.0195  0.3667 -0.2126
  698TIP3    H123653   0.656   3.065   0.791  0.2692  1.4546  0.7190
  698TIP3    H223654   0.514   3.117   0.799 -0.1434  0.5525 -0.4358
  699TIP3   OH223655   3.745   0.859   8.443  0.3562 -0.3695  0.0066
  699TIP3    H123656   3.831   0.903   8.442 -0.5080  1.4338  0.4652
  699TIP3    H223657   3.690   0.913   8.386 -1.2275  0.2216  1.9682
  700TIP3   OH223658   4.292   0.531   7.459 -0.2522  0.3510  0.5692
  700TIP3    H123659   4.383   0.527   7.429 -0.2347  0.5391  0.5922
  700TIP3    H223660   4.297   0.579   7.542 -0.1744 -1.0148  1.3780
  701TIP3   OH223661   2.885   5.767   1.871  0.3905 -0.3829 -0.2025
  701TIP3    H123662   2.831   5.788   1.796 -1.1298  1.7084  1.3535
  701TIP3    H223663   2.923   5.851   1.898  0.6405 -1.0051  1.5293
  702TIP3   OH223664   0.397   5.895   6.316 -0.0999  0.6758  0.4300
  702TIP3    H123665   0.345   5.814   6.313 -0.2410  0.7724  0.2234
  702TIP3    H223666   0.487   5.866   6.327 -0.4054  0.5494  3.3419
  703TIP3   OH223667   0.925   1.495   1.028 -0.2114  0.0079 -0.1887
  703TIP3    H123668   0.843   1.479   1.074 -0.2650 -0.1179 -0.3297
  703TIP3    H223669   0.921   1.440   0.951 -1.2790  2.1334 -1.7581
  704TIP3   OH223670   2.953   0.805   1.240  0.5337  0.1460  0.2759
  704TIP3    H123671   3.039   0.817   1.280  0.1177  0.8330  0.9750
  704TIP3    H223672   2.955   0.714   1.209  1.1272 -0.1934  1.2307
  705TIP3   OH223673   0.909   0.759   7.181 -0.2256 -0.9462  0.0850
  705TIP3    H123674   0.898   0.686   7.243  1.8249 -0.2173  1.4059
  705TIP3    H223675   0.994   0.743   7.141 -0.3891 -0.0074 -0.6476
  706TIP3   OH223676   0.974   2.144   7.452  0.0546  0.5445 -0.4065
  706TIP3    H123677   1.025   2.205   7.398  1.2513  0.6489  0.8048
  706TIP3    H223678   1.039   2.090   7.496 -0.9141  0.0803  0.4977
  707TIP3   OH223679   5.366   5.293   6.276 -0.4238  0.4707  0.1001
  707TIP3    H123680   5.397   5.314   6.364 -2.8063  2.0870  0.6376
  707TIP3    H223681   5.337   5.202   6.281  2.0589 -0.3877  0.1372
  708TIP3   OH223682   4.919   2.310   0.475  0.5585 -0.2278 -0.0663
  708TIP3    H123683   4.885   2.281   0.391  1.6953  0.3655 -0.7519
  708TIP3    H223684   4.996   2.255   0.490  0.4158 -0.2718  0.5540
  709TIP3   OH223685   0.755   0.256   7.636  0.3150  0.4663  0.3842
  709TIP3    H123686   0.693   0.187   7.612 -1.2595  1.3833  1.6238
  709TIP3    H223687   0.841   0.222   7.609 -0.6094 -1.2035 -0.6101
  710TIP3   OH223688   1.003   2.417   0.093  0.4828  0.0677  0.2779
  710TIP3    H123689   1.045   2.498   0.123  2.1132 -0.1229 -1.3121
  710TIP3    H223690   0.909   2.432   0.107  0.6257  2.7084 -0.9739
  711TIP3   OH223691   4.526   4.113   7.895  0.1195  0.4560  0.3787
  711TIP3    H123692   4.507   4.027   7.933  0.3010  0.2655  0.0407
  711TIP3    H223693   4.608   4.101   7.847 -0.3263  0.5729 -0.4464
  712TIP3   OH223694   3.012   4.431   0.884  0.9935 -0.5263 -0.4774
  712TIP3    H123695   2.977   4.362   0.940  1.4141  0.1736  0.6728
  712TIP3    H223696   3.100   4.446   0.916  0.6110  1.1447 -0.1384
  713TIP3   OH223697   0.512   5.324   0.252  0.3409  0.3743  0.3676
  713TIP3    H123698   0.581   5.371   0.205  0.2654  1.0772  0.9377
  713TIP3    H223699   0.463   5.278   0.183 -1.0301  2.9708 -0.5611
  714TIP3   OH223700   2.406   6.211   1.816 -0.4931 -0.9327  0.5421
  714TIP3    H123701   2.403   6.285   1.877 -0.7082 -0.5232  0.0459
  714TIP3    H223702   2.326   6.162   1.835 -0.9891 -0.3394  0.0220
  715TIP3   OH223703   1.516   2.874   2.436 -0.4749  0.0984 -0.6771
  715TIP3    H123704   1.578   2.906   2.501 -1.0904 -0.5401  0.2439
  715TIP3    H223705   1.557   2.795   2.401 -0.4464  0.0779 -0.5976
  716TIP3   OH223706   3.971   6.326   7.643  0.2329  0.5877  0.5308
  716TIP3    H123707   3.877   6.312   7.635  0.0967  0.9185  1.4347
  716TIP3    H223708   3.986   6.332   7.738  1.1207  0.7979  0.3809
  717TIP3   OH223709   6.002   1.851   7.220  0.7585 -0.0657  0.4534
  717TIP3    H123710   6.079   1.796   7.229  1.1864 -0.0304 -2.3056
  717TIP3    H223711   5.994   1.867   7.126 -0.7600  2.5938  0.9426
  718TIP3   OH223712   5.267   4.196   7.244 -0.5648 -0.2229 -0.1679
  718TIP3    H123713   5.243   4.164   7.331 -0.6075  0.6111  0.1378
  718TIP3    H223714   5.199   4.260   7.223  0.0938  0.4439 -0.3045
  719TIP3   OH223715   3.447   5.426   7.696  0.2349 -0.3228 -0.4837
  719TIP3    H123716   3.449   5.433   7.601 -0.0268 -0.9911 -0.5423
  719TIP3    H223717   3.356   5.447   7.720 -0.7731 -3.6972 -0.7172
  720TIP3   OH223718   0.852   3.769   2.693 -0.2011  0.7237 -0.2994
  720TIP3    H123719   0.759   3.785   2.711 -0.6532  0.2753 -2.0109
  720TIP3    H223720   0.858   3.674   2.681  0.7126  0.6068  0.8232
  721TIP3   OH223721   5.555   2.706   2.230  0.5188  0.5021 -0.8076
  721TIP3    H123722   5.504   2.692   2.309  0.5030  0.2226 -0.8675
  721TIP3    H223723   5.494   2.689   2.158  0.8105 -0.2694 -0.8799
  722TIP3   OH223724   3.556   5.732   1.289 -0.0211  0.8574  0.2511
  722TIP3    H123725   3.624   5.747   1.224 -0.8853  2.2097 -0.3937
  722TIP3    H223726   3.495   5.806   1.278 -1.5000 -0.2080  0.9200
  723TIP3   OH223727   5.036   4.308   6.281 -0.5062  0.1034 -0.2739
  723TIP3    H123728   4.975   4.262   6.224 -0.3197 -0.0049 -0.3878
  723TIP3    H223729   5.055   4.390   6.235  0.7687 -0.6116 -1.0802
  724TIP3   OH223730   6.282   5.331   7.495 -0.4602  0.2010 -0.0847
  724TIP3    H123731   6.264   5.289   7.411  0.9360 -0.9803  0.1688
  724TIP3    H223732   6.367   5.296   7.522 -0.9995  0.3059  1.9580
  725TIP3   OH223733   1.151   5.699   8.176  0.7645  0.2958 -0.1593
  725TIP3    H123734   1.079   5.693   8.114  0.4368 -0.2448  0.2614
  725TIP3    H223735   1.141   5.622   8.232  0.8365  0.9720  0.8035
  726TIP3   OH223736   1.772   6.314   6.913  0.2042 -0.0055  0.1148
  726TIP3    H123737   1.803   6.380   6.975  0.7073  0.2494 -0.3899
  726TIP3    H223738   1.791   6.230   6.956 -0.9058  0.1711  0.9779
  727TIP3   OH223739   6.473   4.900   8.575  0.4414 -0.0075 -0.2079
  727TIP3    H123740   6.561   4.866   8.557  0.4113  0.0690 -0.4939
  727TIP3    H223741   6.439   4.841   8.642  1.2293  0.7553  0.9146
  728TIP3   OH223742   6.407   0.604   7.532 -0.3888  0.1926  0.2363
  728TIP3    H123743   6.442   0.625   7.618  0.4004  1.4424 -0.3454
  728TIP3    H223744   6.447   0.669   7.474  0.3447 -1.5869 -1.3426
  729TIP3   OH223745   0.885   3.561   2.396 -1.3905 -0.0855  0.1721
  729TIP3    H123746   0.927   3.512   2.325 -1.7313 -1.1746  0.7034
  729TIP3    H223747   0.909   3.513   2.475  1.4976  2.7423  1.2363
  730TIP3   OH223748   4.141   2.454   2.496 -0.4767  0.0872 -0.3595
  730TIP3    H123749   4.195   2.377   2.513 -0.2831  0.1428 -0.7177
  730TIP3    H223750   4.204   2.523   2.474 -0.5877  0.5817  0.7913
  731TIP3   OH223751   0.159   6.438   7.138 -0.4973  0.2109  0.2215
  731TIP3    H123752   0.208   6.356   7.134  0.8031  1.0025 -1.3463
  731TIP3    H223753   0.143   6.452   7.231  2.2228 -0.1428  0.8412
  732TIP3   OH223754   6.168   1.105   0.366 -0.1736  0.0669  0.4566
  732TIP3    H123755   6.206   1.104   0.278 -2.4265 -0.7598 -0.5914
  732TIP3    H223756   6.084   1.150   0.355 -0.1118  0.7151  2.3907
  733TIP3   OH223757   3.740   0.554   0.122 -0.5734 -0.1886 -0.9144
  733TIP3    H123758   3.782   0.504   0.052  0.2874  1.9501 -2.0052
  733TIP3    H223759   3.810   0.568   0.186 -0.8671 -0.5558 -0.5116
  734TIP3   OH223760   6.784   3.829   6.639 -0.1183 -0.4243 -0.4307
  734TIP3    H123761   6.879   3.832   6.648 -0.0437  1.3100 -1.3213
  734TIP3    H223762   6.769   3.775   6.560  0.1272 -0.5467 -0.3943
  735TIP3   OH223763   2.598   6.787   7.984  0.3674  0.3453  0.1299
  735TIP3    H123764   2.554   6.702   7.989 -0.6934  0.8887  0.2890
  735TIP3    H223765   2.565   6.836   8.059  0.9648  0.9057  0.0359
  736TIP3   OH223766   2.065   1.950   1.474  0.4641 -0.4206  0.5129
  736TIP3    H123767   2.042   1.865   1.436  0.5579  0.5986 -1.9348
  736TIP3    H223768   1.984   1.980   1.516 -0.2398 -0.7188 -0.5829
  737TIP3   OH223769   5.169   5.908   7.040 -0.1534 -0.0611 -0.8626
  737TIP3    H123770   5.109   5.982   7.040 -0.4028 -0.2653 -0.7038
  737TIP3    H223771   5.165   5.875   6.950  1.5142  1.3768 -1.5290
  738TIP3   OH223772   3.158   5.768   7.193 -0.0965  0.4945 -0.1186
  738TIP3    H123773   3.253   5.769   7.201 -0.1877 -1.4627  2.5398
  738TIP3    H223774   3.127   5.835   7.253 -0.4004 -1.1641  1.6698
  739TIP3   OH223775   6.842   3.695   2.426  0.1484 -0.0560 -0.2271
  739TIP3    H123776   6.794   3.649   2.495  0.5310 -1.2161 -0.7216
  739TIP3    H223777   6.775   3.717   2.361 -0.4285  2.0305  0.9582
  740TIP3   OH223778   0.562   0.322   1.044  0.1652  0.2560  0.0841
  740TIP3    H123779   0.632   0.384   1.060 -1.0307  2.0880 -1.3954
  740TIP3    H223780   0.486   0.359   1.088 -0.2169 -1.0446  0.5785
  741TIP3   OH223781   4.043   6.313   0.944 -0.6012  0.5252 -0.1924
  741TIP3    H123782   4.066   6.256   0.871 -3.3019 -0.3269 -0.5015
  741TIP3    H223783   4.101   6.389   0.934  1.9814 -1.3712 -0.7129
  742TIP3   OH223784   0.368   3.549   7.972  0.0366 -0.4324 -0.2929
  742TIP3    H123785   0.273   3.536   7.971 -0.1817  0.8775 -1.9979
  742TIP3    H223786   0.405   3.463   7.956 -0.8292 -1.0310  0.7891
  743TIP3   OH223787   0.399   2.868   0.767 -0.7865 -0.3493  0.6257
  743TIP3    H123788   0.464   2.799   0.783  0.1247  0.5696  1.0025
  743TIP3    H223789   0.393   2.873   0.672  1.3389  0.9839  0.4842
  744TIP3   OH223790   6.025   6.752   8.065 -0.5678 -0.4759 -0.1513
  744TIP3    H123791   6.049   6.769   8.155 -0.0637  0.9585 -0.5347
  744TIP3    H223792   5.932   6.776   8.059 -0.9453 -1.7636  0.2629
  745TIP3   OH223793   3.160   6.884   8.419  0.1935  0.3141 -0.1186
  745TIP3    H123794   3.098   6.828   8.466  0.8809 -0.4993 -0.1554
  745TIP3    H223795   3.204   6.935   8.487  0.7875 -0.4552  0.0951
  746TIP3   OH223796   3.436   4.332   1.272 -0.2906  0.1426  0.1647
  746TIP3    H123797   3.529   4.311   1.266 -0.3346  0.1402 -0.5785
  746TIP3    H223798   3.394   4.252   1.304 -0.1076 -0.0303 -0.0327
  747TIP3   OH223799   3.397   1.711   1.832 -0.2867 -0.0561  0.2568
  747TIP3    H123800   3.357   1.766   1.765 -1.8758  0.2089  1.3770
  747TIP3    H223801   3.391   1.622   1.798 -2.0066 -0.0364  0.4567
  748TIP3   OH223802   2.127   0.652   2.238  0.2695  0.2756 -0.3448
  748TIP3    H123803   2.178   0.574   2.262 -0.5205  0.0138  0.5388
  748TIP3    H223804   2.180   0.725   2.270 -0.2671 -0.0287  1.3649
  749TIP3   OH223805   1.656   5.825   0.841 -0.2015  0.3640  0.1469
  749TIP3    H123806   1.588   5.889   0.862 -3.6048 -2.7906 -0.2294
  749TIP3    H223807   1.676   5.841   0.749  2.4046  3.5215  1.0495
  750TIP3   OH223808   2.199   0.181   6.577  0.2674 -0.4787  0.3793
  750TIP3    H123809   2.174   0.091   6.599 -0.6660 -0.0920  0.9253
  750TIP3    H223810   2.260   0.206   6.646  0.6185 -0.7263  0.1633
  751TIP3   OH223811   5.990   2.725   6.864  0.1842 -0.0265 -0.5276
  751TIP3    H123812   6.022   2.635   6.878  1.2102  0.3403 -0.4076
  751TIP3    H223813   5.902   2.724   6.900  1.0571 -0.3525  1.8083
  752TIP3   OH223814   0.016   6.671   0.812 -0.0804 -0.0216  0.5788
  752TIP3    H123815  -0.077   6.670   0.831 -0.3771  0.6404 -0.7312
  752TIP3    H223816   0.022   6.690   0.718  1.3934  1.0334  0.8451
  753TIP3   OH223817   1.932   3.383   7.499  0.0624  1.3344 -0.3194
  753TIP3    H123818   1.841   3.355   7.500 -0.5281  3.1123 -1.2736
  753TIP3    H223819   1.969   3.344   7.419  0.9746 -1.6227  1.3704
  754TIP3   OH223820   5.188   4.648   8.337  0.1371 -0.3206 -0.3677
  754TIP3    H123821   5.154   4.602   8.260  0.2007 -1.3535  0.2045
  754TIP3    H223822   5.205   4.579   8.400  1.1688  0.4075  0.1729
  755TIP3   OH223823   1.946   5.844   7.462  0.1779  0.5513  0.4371
  755TIP3    H123824   1.904   5.825   7.378  3.0016 -2.4600 -0.5262
  755TIP3    H223825   1.925   5.936   7.479 -0.6416  1.3020 -3.5092
  756TIP3   OH223826   2.312   4.538   0.397  0.3367 -0.5218  0.3223
  756TIP3    H123827   2.227   4.497   0.415  0.5370 -0.6024  1.1231
  756TIP3    H223828   2.362   4.524   0.477  0.0342  2.3038  1.0839
  757TIP3   OH223829   0.235   1.688   2.023 -0.0195  0.0691 -0.6642
  757TIP3    H123830   0.259   1.634   2.098  0.7579  0.2578 -0.7697
  757TIP3    H223831   0.257   1.777   2.049  0.2204  0.1404 -1.1047
  758TIP3   OH223832   5.217   3.560   7.329  0.0441 -0.0257  0.3042
  758TIP3    H123833   5.269   3.496   7.279  3.1914  0.9130  2.0984
  758TIP3    H223834   5.218   3.639   7.276  0.3944 -0.0392  0.2906
  759TIP3   OH223835   1.923   4.397   8.072  0.4882 -0.0933 -0.6075
  759TIP3    H123836   1.926   4.461   8.143 -0.4123 -0.6112 -0.0890
  759TIP3    H223837   1.874   4.324   8.108  0.4391 -0.5643 -1.6089
  760TIP3   OH223838   6.015   5.175   1.735 -0.4461 -0.7629 -0.0216
  760TIP3    H123839   6.014   5.140   1.824 -1.1637  0.4253  0.4595
  760TIP3    H223840   6.095   5.227   1.730 -1.5016  1.0195  0.7124
  761TIP3   OH223841   6.640   1.173   0.833 -0.2353 -0.4845  0.1928
  761TIP3    H123842   6.702   1.100   0.829 -0.1927 -0.3809 -1.8459
  761TIP3    H223843   6.607   1.182   0.744 -1.1743  1.2137  0.6655
  762TIP3   OH223844   6.589   1.440   0.912  0.2894  0.3391 -0.3059
  762TIP3    H123845   6.607   1.358   0.865 -1.8723 -0.6656  0.4875
  762TIP3    H223846   6.675   1.475   0.933  1.3636 -2.7490  1.0298
  763TIP3   OH223847   1.474   3.188   1.390  0.1049  0.5598 -0.1981
  763TIP3    H123848   1.388   3.146   1.401  0.2466  0.5298  0.8446
  763TIP3    H223849   1.508   3.150   1.308  1.4949 -3.7247  2.0197
  764TIP3   OH223850   0.448   2.816   7.566 -0.3121  0.2455  0.4829
  764TIP3    H123851   0.498   2.739   7.592 -0.9674 -0.5033 -0.4356
  764TIP3    H223852   0.361   2.783   7.543 -0.6316  1.2652  0.1490
  765TIP3   OH223853   2.441   2.736   7.748  0.0063 -0.0686 -0.0346
  765TIP3    H123854   2.371   2.800   7.764  2.5367  3.0896 -0.5816
  765TIP3    H223855   2.448   2.730   7.653  0.3134 -0.5547  0.0124
  766TIP3   OH223856   4.258   6.224   7.849 -0.3254 -0.0242  0.1032
  766TIP3    H123857   4.260   6.267   7.763 -1.9957 -1.0791 -0.5215
  766TIP3    H223858   4.171   6.183   7.853  0.3613 -1.4519  1.5711
  767TIP3   OH223859   3.992   5.714   1.643 -0.1964 -0.1627 -0.1018
  767TIP3    H123860   3.966   5.770   1.570  1.9585  0.6303 -0.3462
  767TIP3    H223861   4.044   5.645   1.602 -0.9977 -1.1047  0.4400
  768TIP3   OH223862   0.378   0.179   7.845 -0.4294  0.3610 -0.5115
  768TIP3    H123863   0.400   0.271   7.856 -0.6653  0.2226  1.2689
  768TIP3    H223864   0.460   0.137   7.821  0.1104  0.7219  0.6616
  769TIP3   OH223865   0.743   0.410   6.336 -0.2756 -0.1894  0.3831
  769TIP3    H123866   0.829   0.393   6.295  0.3247 -3.2518  2.5353
  769TIP3    H223867   0.757   0.487   6.390  0.4337  0.6858 -0.9794
  770TIP3   OH223868   5.266   1.065   1.658  0.7551 -0.9812 -0.0797
  770TIP3    H123869   5.279   1.159   1.670  0.1026 -1.0102  0.9704
  770TIP3    H223870   5.350   1.034   1.623 -0.2259  0.6005 -4.5859
  771TIP3   OH223871   3.861   4.582   0.617 -0.5201  0.0347 -0.2930
  771TIP3    H123872   3.856   4.561   0.524 -1.3494 -0.9924 -0.0299
  771TIP3    H223873   3.770   4.590   0.645 -0.4389 -2.6433  1.0632
  772TIP3   OH223874   0.965   5.428   1.996  0.4000  0.0920 -0.4193
  772TIP3    H123875   1.030   5.367   1.961 -0.5658 -1.5664  0.5532
  772TIP3    H223876   0.885   5.409   1.948  0.0125  0.3960  0.0938
  773TIP3   OH223877   3.225   5.893   8.159 -0.3996  0.4170  0.4060
  773TIP3    H123878   3.186   5.813   8.194 -2.8130  0.8918 -0.9455
  773TIP3    H223879   3.289   5.863   8.095  0.9387 -0.4083  2.0671
  774TIP3   OH223880   0.264   1.723   0.235 -0.0344  0.2634  0.1037
  774TIP3    H123881   0.302   1.807   0.207  2.1102 -0.5301  0.4037
  774TIP3    H223882   0.230   1.684   0.155 -0.8770  1.3281 -0.0730
  775TIP3   OH223883   2.990   1.674   6.092  0.3192  0.8108  0.0349
  775TIP3    H123884   3.069   1.718   6.061  0.2455 -0.0035 -1.3819
  775TIP3    H223885   3.019   1.587   6.118  0.0018  0.7445  0.1775
  776TIP3   OH223886   0.049   4.476   0.125 -0.1235 -0.0130  0.1363
  776TIP3    H123887   0.039   4.560   0.170 -0.0583 -0.4544  1.0091
  776TIP3    H223888  -0.013   4.418   0.169 -1.6982  0.0867 -1.8356
  777TIP3   OH223889   6.122   1.513   7.058  0.3911  0.1150 -0.7068
  777TIP3    H123890   6.035   1.479   7.080 -0.5725  1.8187 -1.6292
  777TIP3    H223891   6.161   1.445   7.002  0.5623 -1.6189  1.3909
  778TIP3   OH223892   4.709   0.757   7.477 -0.2124 -0.0960 -0.0417
  778TIP3    H123893   4.721   0.847   7.509  4.4506 -0.5980  0.3214
  778TIP3    H223894   4.722   0.703   7.554  4.3128 -1.1200 -1.2631
  779TIP3   OH223895   1.606   4.702   0.906  0.4211  0.0762 -0.0178
  779TIP3    H123896   1.700   4.715   0.899  0.4203 -0.0223 -0.2150
  779TIP3    H223897   1.568   4.784   0.874  0.4403  0.2089  0.2856
  780TIP3   OH223898   0.873   1.758   0.892 -0.5647 -0.1092  0.1248
  780TIP3    H123899   0.785   1.725   0.912 -1.0040  0.4719 -0.8383
  780TIP3    H223900   0.931   1.689   0.926 -1.3488 -0.2439  1.2766
  781TIP3   OH223901   6.046   1.943   6.288  0.3232  0.5684 -0.3839
  781TIP3    H123902   5.965   1.917   6.245  0.7918 -1.1387 -0.2934
  781TIP3    H223903   6.097   1.862   6.294  0.4000  0.7332  3.1221
  782TIP3   OH223904   4.017   1.664   7.715  1.0597  0.3437  0.1161
  782TIP3    H123905   3.957   1.731   7.683  2.4335  0.9143 -1.4371
  782TIP3    H223906   3.991   1.649   7.805 -0.9016  1.1113 -0.2781
  783TIP3   OH223907   4.438   3.450   8.617  0.3916 -0.2877  0.8403
  783TIP3    H123908   4.494   3.528   8.610  0.3820 -0.3885 -0.5788
  783TIP3    H223909   4.499   3.377   8.620  0.3631 -0.3345  0.3248
  784TIP3   OH223910   6.656   1.707   7.446 -0.3681 -0.5448  0.4030
  784TIP3    H123911   6.681   1.617   7.424 -2.7433 -0.9412 -1.0213
  784TIP3    H223912   6.732   1.742   7.492  1.0303 -2.9400  0.0986
  785TIP3   OH223913   4.674   2.068   0.752  0.8725 -0.1353  0.6180
  785TIP3    H123914   4.706   2.089   0.840 -3.1513 -0.0091  2.2402
  785TIP3    H223915   4.685   1.973   0.744 -0.8834 -0.5323  2.3192
  786TIP3   OH223916   3.248   5.660   0.172  0.4557  0.1157 -0.4252
  786TIP3    H123917   3.191   5.669   0.248  0.0518  1.2985 -0.8585
  786TIP3    H223918   3.198   5.695   0.099  1.5602  0.7667 -0.8957
  787TIP3   OH223919   4.324   4.431   7.188 -0.0172 -0.0365  1.1003
  787TIP3    H123920   4.361   4.356   7.141 -2.1216  0.3271 -1.2941
  787TIP3    H223921   4.379   4.438   7.267  1.3454 -2.9758  0.5673
  788TIP3   OH223922   4.266   6.075   1.197 -0.1350 -0.0878  0.0401
  788TIP3    H123923   4.266   6.032   1.282 -0.3550  1.4268  0.8416
  788TIP3    H223924   4.206   6.148   1.207 -1.5796 -0.9002 -1.9879
  789TIP3   OH223925   1.305   5.603   7.346 -0.1047  0.3028  0.6634
  789TIP3    H123926   1.345   5.642   7.268  0.2472 -0.7732  0.2861
  789TIP3    H223927   1.266   5.521   7.315 -0.8644  0.3580  1.4238
  790TIP3   OH223928   2.050   5.649   8.400  0.6748 -0.2544 -0.1203
  790TIP3    H123929   2.105   5.600   8.339 -1.4913  1.0038 -3.2957
  790TIP3    H223930   2.101   5.727   8.420  1.1575 -0.3948 -0.7807
  791TIP3   OH223931   4.560   1.415   1.389 -0.4822 -0.2742  0.2066
  791TIP3    H123932   4.568   1.509   1.371  1.2527 -0.2281  0.9785
  791TIP3    H223933   4.537   1.411   1.482 -1.0271 -0.6110  0.0566
  792TIP3   OH223934   0.705   5.358   1.899  0.1032 -0.2368  0.1299
  792TIP3    H123935   0.629   5.407   1.932 -0.2572 -0.6626 -0.0518
  792TIP3    H223936   0.687   5.346   1.806  1.2692  1.2423 -0.3299
  793TIP3   OH223937   3.072   2.187   7.513 -0.3953  0.3947 -0.5754
  793TIP3    H123938   2.983   2.155   7.501 -2.2779  4.9651 -0.8329
  793TIP3    H223939   3.098   2.154   7.599 -3.0756  0.2799  0.2969
  794TIP3   OH223940   3.529   2.229   7.918  0.6461  0.2566 -0.5098
  794TIP3    H123941   3.460   2.183   7.870  0.9295 -1.4211  0.6149
  794TIP3    H223942   3.481   2.285   7.979  0.1948 -1.6198  0.9470
  795TIP3   OH223943   3.112   2.022   7.704  1.1980  0.5446 -0.2705
  795TIP3    H123944   3.051   1.956   7.672  2.3355 -0.0918 -1.2345
  795TIP3    H223945   3.086   2.038   7.794  1.4309 -1.9265  0.3103
  796TIP3   OH223946   4.773   1.679   0.670 -0.0944 -0.0732 -0.6823
  796TIP3    H123947   4.856   1.635   0.690 -1.1011 -2.6609 -1.6684
  796TIP3    H223948   4.780   1.703   0.578 -0.7695 -1.3077 -1.0920
  797TIP3   OH223949   0.223   6.197   0.299  0.4240 -0.1127 -0.1190
  797TIP3    H123950   0.221   6.250   0.219 -0.7644 -0.1226 -0.1142
  797TIP3    H223951   0.311   6.160   0.301  1.5276  2.2882  0.1572
  798TIP3   OH223952   4.977   3.410   7.980  0.0016 -0.6489  0.0349
  798TIP3    H123953   5.035   3.478   7.944  1.3543 -0.9882  1.4925
  798TIP3    H223954   4.995   3.411   8.074 -1.1593 -1.9242  0.2883
  799TIP3   OH223955   1.502   1.620   6.990 -0.7667 -0.5637 -0.5958
  799TIP3    H123956   1.471   1.706   7.018  0.2110 -0.2116 -0.5504
  799TIP3    H223957   1.468   1.559   7.055 -0.9436 -0.1282 -0.2794
  800TIP3   OH223958   4.219   6.150   2.328 -0.2026 -0.6423  0.3759
  800TIP3    H123959   4.188   6.156   2.418  0.8881 -0.1728  0.7311
  800TIP3    H223960   4.152   6.097   2.284 -1.7431  0.7302  0.9805
  801TIP3   OH223961   6.204   1.482   0.532 -0.2509  0.0205 -0.4418
  801TIP3    H123962   6.162   1.568   0.535 -1.0586 -0.3801  0.8533
  801TIP3    H223963   6.131   1.420   0.541  0.3300 -0.8088 -1.2569
  802TIP3   OH223964   5.424   6.416   8.375  0.2346 -0.6764 -0.0221
  802TIP3    H123965   5.499   6.464   8.410 -0.4021 -0.1722  0.6614
  802TIP3    H223966   5.425   6.333   8.422 -0.2417 -0.2550  0.7464
  803TIP3   OH223967   5.517   5.058   1.508 -0.2859 -0.6867  0.3421
  803TIP3    H123968   5.602   5.094   1.486 -0.1661 -1.3413 -0.3240
  803TIP3    H223969   5.531   5.012   1.591  0.5615 -2.5857 -0.7851
  804TIP3   OH223970   5.034   3.454   1.795  0.1404 -0.0154 -0.3208
  804TIP3    H123971   4.978   3.431   1.870  2.7988 -1.0554  1.5305
  804TIP3    H223972   4.994   3.411   1.720 -0.6724 -2.0624  1.2111
  805TIP3   OH223973   2.719   1.086   7.170 -0.1654 -0.3160 -0.0159
  805TIP3    H123974   2.679   1.092   7.084 -0.1901  1.6666  0.0737
  805TIP3    H223975   2.691   1.167   7.214  0.5586 -0.8753  1.5265
  806TIP3   OH223976   3.883   0.570   6.486 -0.5168  0.4363 -0.4550
  806TIP3    H123977   3.852   0.626   6.414  1.0415 -0.9065 -2.2643
  806TIP3    H223978   3.958   0.524   6.449  0.4129 -0.2288  2.1197
  807TIP3   OH223979   4.243   5.760   0.384 -0.8723  0.2480 -0.1555
  807TIP3    H123980   4.181   5.825   0.417  0.5105  0.5233  2.0834
  807TIP3    H223981   4.252   5.781   0.291 -1.6524  2.2892  0.1793
  808TIP3   OH223982   0.649   2.095   1.056 -0.0482 -0.0384  0.2998
  808TIP3    H123983   0.652   2.002   1.033  2.3603  0.0425 -0.0026
  808TIP3    H223984   0.700   2.101   1.137 -0.0067  1.0295  0.2129
  809TIP3   OH223985   4.485   6.673   1.727  0.3099 -0.6596  0.1651
  809TIP3    H123986   4.524   6.665   1.814 -1.7353  0.0049  1.2092
  809TIP3    H223987   4.518   6.756   1.694  0.0589 -0.2498  0.9064
  810TIP3   OH223988   0.135   6.526   1.489  0.1314 -0.6229  0.0756
  810TIP3    H123989   0.056   6.570   1.458 -0.1683 -0.4661  1.0280
  810TIP3    H223990   0.133   6.440   1.447 -0.1576 -0.3545 -0.4714
  811TIP3   OH223991   0.808   6.595   0.546  0.0070 -0.3353  0.0367
  811TIP3    H123992   0.798   6.630   0.635 -0.3256  1.0805 -0.5265
  811TIP3    H223993   0.902   6.596   0.530 -0.0316  1.3004 -0.3081
  812TIP3   OH223994   3.439   0.281   0.440 -0.2250  0.2105 -0.0150
  812TIP3    H123995   3.413   0.345   0.373  1.0453  1.0159  0.2223
  812TIP3    H223996   3.376   0.292   0.510 -0.3723  0.7901 -0.2328
  813TIP3   OH223997   5.130   0.421   7.284  0.2508  0.3474  0.0288
  813TIP3    H123998   5.094   0.372   7.209  1.6042  0.0351 -0.4574
  813TIP3    H223999   5.067   0.491   7.300 -1.0999 -0.7995 -0.0766
  814TIP3   OH224000   2.065   1.259   6.348 -0.2511 -0.1865 -0.5579
  814TIP3    H124001   2.018   1.285   6.268  1.7722  0.4708 -1.5995
  814TIP3    H224002   2.127   1.192   6.318 -0.2886 -0.8126  0.7162
  815TIP3   OH224003   2.783   6.575   0.927 -0.8674 -0.0591  0.2937
  815TIP3    H124004   2.694   6.547   0.907 -0.8439  0.3295 -0.3949
  815TIP3    H224005   2.787   6.666   0.899 -0.8171  0.5356  2.1342
  816TIP3   OH224006   4.329   0.558   7.182 -0.2806 -0.0561  0.0841
  816TIP3    H124007   4.274   0.565   7.104 -0.5612 -2.5553 -0.0047
  816TIP3    H224008   4.289   0.618   7.246 -2.0658 -0.5243 -0.5589
  817TIP3   OH224009   2.670   1.022   7.534  0.2460  0.7300 -0.0233
  817TIP3    H124010   2.658   1.117   7.542  1.1356  0.7494  1.4377
  817TIP3    H224011   2.728   0.999   7.606 -0.3573 -1.0097 -0.0432
  818TIP3   OH224012   4.658   2.794   2.190  0.3047 -0.1210  0.3327
  818TIP3    H124013   4.610   2.712   2.197 -1.2929  0.8506  1.3547
  818TIP3    H224014   4.704   2.802   2.274  2.3095 -1.0227 -0.6209
  819TIP3   OH224015   5.567   2.172   6.697 -0.0026 -0.4071 -0.0114
  819TIP3    H124016   5.519   2.249   6.727  2.0562  0.4573  1.3050
  819TIP3    H224017   5.519   2.141   6.620 -0.3799  2.7815 -1.2104
  820TIP3   OH224018   1.261   6.295   7.002 -0.2396 -0.3568 -0.5604
  820TIP3    H124019   1.233   6.310   6.911  0.7808 -0.8468 -0.9682
  820TIP3    H224020   1.185   6.322   7.055  0.3636  3.3944 -1.3432
  821TIP3   OH224021   6.380   0.454   0.353  0.6717 -0.1385 -0.0909
  821TIP3    H124022   6.293   0.417   0.336  0.1471  1.9122 -2.4989
  821TIP3    H224023   6.376   0.542   0.316  4.5018 -0.7662 -2.4680
  822TIP3   OH224024   3.861   0.808   0.574  0.2544  0.0494  0.4969
  822TIP3    H124025   3.778   0.853   0.591  0.0843  0.0930 -0.3916
  822TIP3    H224026   3.915   0.872   0.528  0.0838 -0.5478 -0.5936
  823TIP3   OH224027   1.924   1.301   6.095  0.0271 -0.6931 -0.7867
  823TIP3    H124028   1.880   1.361   6.036 -0.0557 -0.8103 -0.8442
  823TIP3    H224029   1.888   1.215   6.073 -1.1260 -0.5604  0.4561
  824TIP3   OH224030   0.672   0.821   6.914 -0.5933  0.3816 -0.2690
  824TIP3    H124031   0.669   0.891   6.979 -1.3332 -1.7110  2.1593
  824TIP3    H224032   0.632   0.746   6.958  0.6487 -1.7547 -2.4880
  825TIP3   OH224033   3.523   2.616   8.241  0.0861  0.2140 -0.0909
  825TIP3    H124034   3.579   2.686   8.274 -0.1969 -0.0395  0.9638
  825TIP3    H224035   3.567   2.535   8.269  0.5186 -0.0453 -1.4715
  826TIP3   OH224036   3.747   0.382   8.278 -0.2006 -0.2730  0.3847
  826TIP3    H124037   3.679   0.351   8.338 -1.6000  0.5652 -0.6930
  826TIP3    H224038   3.712   0.464   8.243  1.0471 -0.1946 -0.7490
  827TIP3   OH224039   6.372   4.401   0.040  0.3706 -0.1338  0.5027
  827TIP3    H124040   6.380   4.460  -0.034 -0.6062 -0.7370 -0.1086
  827TIP3    H224041   6.315   4.447   0.102 -0.0928 -0.2771  0.1863
  828TIP3   OH224042   5.393   2.361   0.858  0.5120  0.5199  0.2807
  828TIP3    H124043   5.381   2.315   0.774  1.3883  0.1975  0.3210
  828TIP3    H224044   5.344   2.308   0.921 -0.2941  0.8565 -0.0495
  829TIP3   OH224045   5.417   0.555   7.552  0.4027 -0.1596  0.1959
  829TIP3    H124046   5.509   0.553   7.526  1.2019 -0.0692  2.7367
  829TIP3    H224047   5.407   0.481   7.611 -1.1436 -0.1122  0.0349
  830TIP3   OH224048   5.093   4.044   8.543 -0.3689 -0.4326  0.0226
  830TIP3    H124049   5.009   4.076   8.510  0.2839  0.1270 -1.1222
  830TIP3    H224050   5.112   4.101   8.618  0.6157  1.7564 -1.7762
  831TIP3   OH224051   3.478   1.677   1.407 -0.1016  0.2457 -0.9634
  831TIP3    H124052   3.391   1.664   1.370 -0.4832  1.9871 -0.7557
  831TIP3    H224053   3.484   1.771   1.422  1.6941  0.1152 -0.6494
  832TIP3   OH224054   0.471   3.481   3.167 -0.0029  0.0604 -0.5017
  832TIP3    H124055   0.526   3.463   3.090  0.2479  0.5499 -0.4443
  832TIP3    H224056   0.533   3.481   3.240  0.2515  2.3131 -0.6316
  833TIP3   OH224057   4.265   1.331   0.064  0.4296  0.2791  0.2838
  833TIP3    H124058   4.266   1.426   0.063  0.3695  0.2796  0.2386
  833TIP3    H224059   4.341   1.306   0.011 -0.1517  0.3056 -0.5737
  834TIP3   OH224060   0.422   1.874   7.485  0.3984 -0.0104 -0.6131
  834TIP3    H124061   0.409   1.889   7.391 -2.3453 -2.0140 -0.6779
  834TIP3    H224062   0.387   1.952   7.527  3.0971  1.6405 -1.1671
  835TIP3   OH224063   1.953   4.861   7.501 -0.3495  0.3267 -0.1199
  835TIP3    H124064   2.016   4.931   7.521 -0.5407  0.4363  0.1108
  835TIP3    H224065   1.881   4.906   7.457 -0.0808  0.1361 -0.7568
  836TIP3   OH224066   1.603   3.534   7.508 -0.1669 -0.0819 -0.0831
  836TIP3    H124067   1.527   3.537   7.566 -0.2800 -0.0435 -0.2311
  836TIP3    H224068   1.624   3.626   7.490 -0.1275 -0.0933 -0.0966
  837TIP3   OH224069   2.018   0.168   6.001  0.3839  0.1192 -0.0197
  837TIP3    H124070   2.035   0.077   6.027  0.3402  0.4743  1.2758
  837TIP3    H224071   1.930   0.166   5.963  0.3558 -0.3665  0.0631
  838TIP3   OH224072   2.491   3.390   7.712  0.6473 -0.3622  0.3451
  838TIP3    H124073   2.527   3.302   7.699  1.4470  0.0290 -0.1823
  838TIP3    H224074   2.404   3.375   7.747  0.2939 -1.4035 -0.8855
  839TIP3   OH224075   2.613   3.279   7.314 -0.6927 -0.4769 -0.1590
  839TIP3    H124076   2.547   3.270   7.383 -0.4292 -1.1099  0.0131
  839TIP3    H224077   2.666   3.200   7.320 -1.1472 -0.9301 -1.6080
  840TIP3   OH224078   1.379   3.768   0.407 -0.5359  0.0781 -0.4406
  840TIP3    H124079   1.405   3.724   0.326 -1.9622 -1.2591 -0.2336
  840TIP3    H224080   1.350   3.697   0.464  2.5787  0.6691  2.1935
  841TIP3   OH224081   6.074   0.050   6.768 -0.3208  0.1637 -0.7211
  841TIP3    H124082   6.058   0.004   6.850  0.0307 -0.5550 -1.0506
  841TIP3    H224083   6.015   0.009   6.705  0.9875 -0.8234 -1.3494
  842TIP3   OH224084   6.464   4.828   1.848  0.2246 -0.0922  0.6667
  842TIP3    H124085   6.435   4.908   1.804 -0.6678 -0.6553  0.2090
  842TIP3    H224086   6.494   4.858   1.934  3.3001  1.2125 -0.7273
  843TIP3   OH224087   2.632   2.477   7.506  0.1279  0.4369  0.7190
  843TIP3    H124088   2.614   2.393   7.463  1.5063  0.2372  0.4787
  843TIP3    H224089   2.584   2.473   7.588 -2.4312  0.7383 -0.6571
  844TIP3   OH224090   0.390   3.744   7.097 -0.5583 -0.1005  0.0440
  844TIP3    H124091   0.359   3.793   7.021 -1.2971 -0.7726 -0.1010
  844TIP3    H224092   0.442   3.807   7.147 -1.3086  0.7682 -0.2500
  845TIP3   OH224093   5.997   0.006   7.045 -0.3795 -0.0959 -0.2124
  845TIP3    H124094   5.976   0.079   7.103  1.8303 -0.6803  1.4581
  845TIP3    H224095   5.958  -0.070   7.089  0.3907 -0.3940 -0.0302
  846TIP3   OH224096   1.901   5.443   6.385  0.4043 -0.8336  0.7533
  846TIP3    H124097   1.816   5.473   6.355  0.3360 -0.4545  1.3255
  846TIP3    H224098   1.885   5.355   6.420 -0.2842  0.2260  3.3043
  847TIP3   OH224099   3.734   0.794   7.425 -0.2194  0.0972 -0.4610
  847TIP3    H124100   3.784   0.738   7.365 -0.0648 -1.4101  1.0022
  847TIP3    H224101   3.643   0.780   7.399 -0.1599 -0.5860 -0.3241
  848TIP3   OH224102   1.678   0.481   6.778  1.0578  0.4561 -0.3207
  848TIP3    H124103   1.770   0.501   6.760  1.5066  0.0096  1.2989
  848TIP3    H224104   1.666   0.505   6.870 -0.4025  0.3150 -0.4514
  849TIP3   OH224105   4.854   6.746   0.796  0.5127  0.1467 -0.3268
  849TIP3    H124106   4.765   6.739   0.763  0.1791 -0.0295  0.5712
  849TIP3    H224107   4.910   6.728   0.720 -0.2272 -1.2848 -0.5602
  850TIP3   OH224108   5.035   1.869   8.284 -0.3132 -0.2833  0.0719
  850TIP3    H124109   5.000   1.780   8.275 -2.7103  0.6663 -1.2086
  850TIP3    H224110   5.121   1.865   8.242  0.0450 -2.1643  0.8596
  851TIP3   OH224111   0.227   0.467   0.281 -0.1694 -0.2049  0.1236
  851TIP3    H124112   0.320   0.469   0.260 -0.2378 -1.5468 -0.4032
  851TIP3    H224113   0.183   0.487   0.199 -0.3623 -0.7586  0.0898
  852TIP3   OH224114   5.834   2.263   0.497  0.0020  0.0280  0.2313
  852TIP3    H124115   5.755   2.291   0.543  0.8853  1.8789  0.7365
  852TIP3    H224116   5.902   2.261   0.565  0.6525 -0.2730 -0.4150
  853TIP3   OH224117   0.239   6.517   2.177 -0.6709 -0.2741 -1.0004
  853TIP3    H124118   0.229   6.444   2.238  0.3444 -0.3014 -0.8560
  853TIP3    H224119   0.212   6.481   2.092 -1.3519 -0.4551 -0.7163
  854TIP3   OH224120   6.829   2.263   6.953 -0.1346  0.1687 -0.3088
  854TIP3    H124121   6.834   2.173   6.986  2.2029  0.1218 -0.6082
  854TIP3    H224122   6.782   2.256   6.870 -1.0048 -0.5824  0.2271
  855TIP3   OH224123   0.538   3.518   1.209 -0.2675 -0.1212  0.1935
  855TIP3    H124124   0.629   3.521   1.237  0.1892 -0.0698 -1.2291
  855TIP3    H224125   0.506   3.434   1.241  1.0175 -1.2627 -1.3817
  856TIP3   OH224126   6.345   6.882   8.524 -0.2921  0.8820 -0.1514
  856TIP3    H124127   6.418   6.904   8.467  1.7480 -0.8972  1.6021
  856TIP3    H224128   6.286   6.831   8.469  3.3712 -4.1111 -0.1837
  857TIP3   OH224129   5.304   5.698   0.249 -0.1094 -0.2657  0.1190
  857TIP3    H124130   5.288   5.700   0.344 -0.1237  2.6786  0.1252
  857TIP3    H224131   5.360   5.622   0.237  1.0604  0.0683  2.7159
  858TIP3   OH224132   5.923   6.851   1.694  0.3901  0.3082 -0.6558
  858TIP3    H124133   5.909   6.945   1.700 -3.6425  0.1320 -2.9401
  858TIP3    H224134   5.965   6.827   1.776  0.8553  3.9537  0.3471
  859TIP3   OH224135   1.443   5.900   1.806  0.1894 -0.2093  0.3642
  859TIP3    H124136   1.376   5.835   1.786  0.3242 -0.9224  2.0605
  859TIP3    H224137   1.477   5.874   1.891  2.1652  0.5290 -0.1360
  860TIP3   OH224138   2.532   4.429   8.512  0.5715  0.0915 -0.3162
  860TIP3    H124139   2.451   4.471   8.542  0.4534  0.4226 -1.0726
  860TIP3    H224140   2.581   4.412   8.592  0.0571  0.5208  0.0995
  861TIP3   OH224141   3.482   0.232   0.088  0.6357  0.6145  0.4738
  861TIP3    H124142   3.408   0.173   0.085  1.4790 -0.4035 -1.5783
  861TIP3    H224143   3.519   0.219   0.176 -1.7160  1.3879  1.6633
  862TIP3   OH224144   3.876   0.234   0.070 -0.1107 -0.0428  0.0384
  862TIP3    H124145   3.969   0.213   0.079  0.3185  1.5847 -0.2264
  862TIP3    H224146   3.875   0.308   0.008 -1.5508  0.1984  0.3292
  863TIP3   OH224147   4.098   1.532   8.319  0.0383  0.1731  0.0010
  863TIP3    H124148   4.093   1.619   8.279  0.1945  0.5386  0.7593
  863TIP3    H224149   4.188   1.525   8.350  0.3002 -0.6490 -0.8992
  864TIP3   OH224150   2.137   5.693   0.722 -0.2968 -0.0692  0.5356
  864TIP3    H124151   2.083   5.767   0.695 -0.1038 -0.7334 -1.9470
  864TIP3    H224152   2.203   5.731   0.780 -1.2591  1.3806  0.7244
  865TIP3   OH224153   1.114   2.781   0.462 -0.1580  0.1951 -0.2103
  865TIP3    H124154   1.056   2.854   0.440 -0.0957 -0.3646 -2.4437
  865TIP3    H224155   1.174   2.817   0.528 -0.2413  2.1057 -1.1100
  866TIP3   OH224156   3.571   3.557   0.026  0.6954 -0.3682  0.7047
  866TIP3    H124157   3.517   3.479   0.034 -1.0409  0.7315  0.1419
  866TIP3    H224158   3.583   3.569  -0.068  1.7093 -0.4314  0.8104
  867TIP3   OH224159   2.749   3.068   7.352 -0.3714 -0.1755 -0.0019
  867TIP3    H124160   2.740   2.978   7.383  0.6662  0.0116  0.9030
  867TIP3    H224161   2.843   3.079   7.336 -0.4084  0.8994  0.3959
  868TIP3   OH224162   5.968   0.841   6.891 -0.7859  0.0496 -0.4248
  868TIP3    H124163   5.988   0.751   6.864 -1.7622 -0.4787  0.5067
  868TIP3    H224164   5.873   0.849   6.879 -0.7134  0.9475 -0.4590
  869TIP3   OH224165   5.650   2.529   8.297 -0.0051  0.3631  0.6574
  869TIP3    H124166   5.604   2.578   8.228  0.5277  1.7690  1.2638
  869TIP3    H224167   5.677   2.596   8.360  1.7741 -0.5562  0.9487
  870TIP3   OH224168   2.285   2.424   0.294 -0.0824  0.3297 -0.1846
  870TIP3    H124169   2.282   2.380   0.209 -0.5179 -0.4647  0.2308
  870TIP3    H224170   2.289   2.352   0.357 -0.1657  0.9101  0.4830
  871TIP3   OH224171   1.617   5.629   8.359  0.4187 -0.0146  0.0314
  871TIP3    H124172   1.641   5.540   8.383  1.2265  0.1223 -0.2253
  871TIP3    H224173   1.667   5.684   8.420 -1.4864  0.2574  1.4380
  872TIP3   OH224174   6.490   0.529   1.103 -0.5461  0.0104 -0.0873
  872TIP3    H124175   6.462   0.495   1.018 -1.2582  0.2131  0.0561
  872TIP3    H224176   6.412   0.524   1.158 -0.1606  0.1114  0.4866
  873TIP3   OH224177   4.313   4.997   7.678  0.2534  0.3774  0.2672
  873TIP3    H124178   4.229   5.020   7.718 -0.2803  0.9150 -1.1090
  873TIP3    H224179   4.360   5.080   7.671  0.5186  0.2218  0.1839
  874TIP3   OH224180   3.137   3.337   6.826  0.4660  0.1519  0.5236
  874TIP3    H124181   3.130   3.416   6.879 -0.6633 -0.0249  0.6578
  874TIP3    H224182   3.048   3.322   6.794  1.3821  1.4586 -3.1692
  875TIP3   OH224183   3.701   6.505   8.616 -0.0738  0.5960  0.0685
  875TIP3    H124184   3.645   6.574   8.653  0.8411  4.0791 -4.1473
  875TIP3    H224185   3.640   6.439   8.585 -1.2396  0.9276  1.5240
  876TIP3   OH224186   3.124   5.895   0.607 -0.2145  0.0962 -0.7179
  876TIP3    H124187   3.055   5.873   0.544 -0.7117  1.3657 -0.6523
  876TIP3    H224188   3.095   5.856   0.689 -1.2319  1.1905 -0.5259
  877TIP3   OH224189   0.806   0.558   7.873  0.0224 -0.0194 -0.2210
  877TIP3    H124190   0.889   0.512   7.857 -0.3832 -0.6848 -0.4590
  877TIP3    H224191   0.749   0.491   7.911 -0.2354  0.5727  0.4619
  878TIP3   OH224192   1.519   0.165   1.064 -0.0405 -0.0945  0.4331
  878TIP3    H124193   1.482   0.251   1.045 -0.0171  0.2357  1.8055
  878TIP3    H224194   1.566   0.141   0.985 -0.6405  0.8364 -0.2234
  879TIP3   OH224195   3.593   0.336   8.017 -0.5424  0.0704 -0.2879
  879TIP3    H124196   3.548   0.418   8.037 -1.5874 -0.5444 -0.0371
  879TIP3    H224197   3.618   0.302   8.103  1.1331  0.7684 -0.4485
  880TIP3   OH224198   6.151   2.224   8.596  0.0667 -0.0507 -0.0139
  880TIP3    H124199   6.112   2.298   8.641 -0.8840 -1.3111  1.3138
  880TIP3    H224200   6.088   2.153   8.606  0.8811 -1.0257 -1.3677
  881TIP3   OH224201   5.340   6.784   8.415  0.8705  0.0868 -0.5415
  881TIP3    H124202   5.294   6.868   8.417 -0.0820 -0.4306  0.6682
  881TIP3    H224203   5.271   6.720   8.396  1.1470 -0.6430  0.7746
  882TIP3   OH224204   1.591   5.487   1.195 -0.5290 -0.4590 -0.1374
  882TIP3    H124205   1.603   5.547   1.121 -1.2063 -1.2828 -0.9454
  882TIP3    H224206   1.619   5.537   1.271  1.9876 -0.1762 -1.1436
  883TIP3   OH224207   1.304   6.472   8.290  0.1748 -0.0936 -0.2092
  883TIP3    H124208   1.301   6.521   8.373  0.0643 -0.1189 -0.1974
  883TIP3    H224209   1.375   6.409   8.302 -0.4872 -0.7857  0.2568
  884TIP3   OH224210   2.179   1.512   1.278  0.3201  0.5721  0.2775
  884TIP3    H124211   2.273   1.503   1.265  0.6135  2.5587  0.6940
  884TIP3    H224212   2.140   1.448   1.218  1.8532  2.0658 -2.5025
  885TIP3   OH224213   3.946   1.961   8.561 -0.1896  0.2648 -0.1286
  885TIP3    H124214   3.914   2.009   8.484 -0.6949 -0.0463 -0.1120
  885TIP3    H224215   3.938   1.869   8.537  1.3056  0.1742 -0.3768
  886TIP3   OH224216   1.963   6.001   0.045 -0.5457 -0.5013  0.1113
  886TIP3    H124217   2.008   5.951  -0.023  0.3691  0.9708 -0.4070
  886TIP3    H224218   1.932   6.080   0.001 -1.4338 -0.3120  1.0376
  887TIP3   OH224219   6.797   4.563   8.396  0.0770  0.0551 -0.1682
  887TIP3    H124220   6.771   4.500   8.328  0.6103 -1.1268  0.7092
  887TIP3    H224221   6.887   4.587   8.374 -0.1273  0.5382 -0.5051
  888TIP3   OH224222   5.668   5.669   7.517  0.0404 -0.1307 -0.2841
  888TIP3    H124223   5.646   5.608   7.587  0.4754 -1.0247 -0.9212
  888TIP3    H224224   5.619   5.749   7.539  0.3097 -0.3342  1.1221
  889TIP3   OH224225   4.009   3.105   0.608  0.3721 -0.1406  0.5733
  889TIP3    H124226   4.095   3.138   0.635  0.1646  4.1646 -2.8762
  889TIP3    H224227   4.026   3.062   0.524 -0.7084 -0.6067  0.5839
  890TIP3   OH224228   5.587   0.236   0.415  0.0546 -0.0604  0.5119
  890TIP3    H124229   5.511   0.237   0.356  1.1341  1.1899 -0.9333
  890TIP3    H224230   5.639   0.312   0.388  1.0977 -0.0309  2.4530
  891TIP3   OH224231   0.706   3.247   1.193 -0.1197 -0.1202  0.2397
  891TIP3    H124232   0.622   3.269   1.153 -0.0583  0.5426  0.4658
  891TIP3    H224233   0.683   3.187   1.264 -0.3151 -0.5735 -0.1949
  892TIP3   OH224234   2.248   0.653   7.538 -0.3312  0.0612  0.5083
  892TIP3    H124235   2.291   0.655   7.453 -0.7179  1.4844  0.3172
  892TIP3    H224236   2.310   0.607   7.595  0.0601 -0.6404 -0.4583
  893TIP3   OH224237   0.876   1.509   6.392 -0.0011  0.0729 -0.2100
  893TIP3    H124238   0.813   1.495   6.462 -1.4566  1.6938 -1.1293
  893TIP3    H224239   0.883   1.604   6.384  0.7148 -0.0752 -1.7578
  894TIP3   OH224240   2.822   6.642   8.330  0.2212  0.1733 -0.6706
  894TIP3    H124241   2.867   6.632   8.246  0.1304  0.6032 -0.7744
  894TIP3    H224242   2.828   6.736   8.349  0.7982 -0.0138  0.1115
  895TIP3   OH224243   5.723   1.001   2.256 -0.3768 -0.1159  0.2931
  895TIP3    H124244   5.794   1.062   2.278 -0.8799  0.9106 -0.7811
  895TIP3    H224245   5.762   0.914   2.265  0.7752  0.4037  0.5196
  896TIP3   OH224246   1.236   0.345   8.212 -0.2339  0.3590  0.2133
  896TIP3    H124247   1.142   0.340   8.195 -0.6564  0.9966  2.1024
  896TIP3    H224248   1.245   0.416   8.276  1.4349 -0.1989  0.6543
  897TIP3   OH224249   1.507   4.129   7.629  0.9474  0.3687  0.3183
  897TIP3    H124250   1.533   4.177   7.550  0.4625  0.7333  0.3762
  897TIP3    H224251   1.435   4.073   7.600  0.5920  0.6960  0.5523
  898TIP3   OH224252   0.536   5.730   1.313  0.6857  0.1786  0.5279
  898TIP3    H124253   0.606   5.703   1.254  1.3205 -0.5397  1.5811
  898TIP3    H224254   0.526   5.657   1.374 -0.9615  0.2799  0.4405
  899TIP3   OH224255   1.533   4.430   0.992 -0.6877 -0.7573 -0.2691
  899TIP3    H124256   1.534   4.374   0.914  0.0134  1.0835 -1.6630
  899TIP3    H224257   1.593   4.502   0.971 -1.6852  0.6285  1.3406
  900TIP3   OH224258   5.225   0.849   8.519 -0.1504  0.0317  0.5083
  900TIP3    H124259   5.279   0.778   8.486  0.0149  0.2784  0.2426
  900TIP3    H224260   5.161   0.864   8.450  0.5121  0.8922  0.0678
  901TIP3   OH224261   4.464   1.509   7.834 -0.4525 -0.2701 -0.4612
  901TIP3    H124262   4.532   1.442   7.832  0.1975  0.3546  0.0206
  901TIP3    H224263   4.480   1.557   7.916 -0.9264  0.4407 -0.7743
  902TIP3   OH224264   4.350   5.128   8.633 -0.6274  0.5902  0.1653
  902TIP3    H124265   4.278   5.073   8.664  0.5461 -0.9683  0.2690
  902TIP3    H224266   4.406   5.068   8.583 -0.3549  2.1637 -1.5282
  903TIP3   OH224267   2.812   3.968   0.653 -0.1070  0.1381 -0.3624
  903TIP3    H124268   2.792   3.934   0.566 -0.7621  0.7950 -0.4791
  903TIP3    H224269   2.793   3.895   0.712  0.9714 -0.5292 -0.8028
  904TIP3   OH224270   3.295   4.874   7.650  0.1923  0.0631  0.2106
  904TIP3    H124271   3.385   4.850   7.629  0.0652  0.0009 -0.2634
  904TIP3    H224272   3.246   4.792   7.646  0.4571 -0.2693  2.4184
  905TIP3   OH224273   5.965   4.184   0.016  0.4588  0.1163 -0.2160
  905TIP3    H124274   5.895   4.205   0.077 -1.9854 -2.5390 -1.8170
  905TIP3    H224275   6.005   4.105   0.052  0.0252 -0.5720 -1.1891
  906TIP3   OH224276   5.087   4.803   0.835 -0.5622  0.8596 -0.2272
  906TIP3    H124277   5.009   4.848   0.805 -2.8426 -1.5915  1.5915
  906TIP3    H224278   5.077   4.713   0.803  1.4179  0.4160  0.2441
  907TIP3   OH224279   2.470   1.558   8.566 -0.1424 -0.3590 -0.4378
  907TIP3    H124280   2.519   1.528   8.643 -1.6328 -1.5870  0.0850
  907TIP3    H224281   2.451   1.650   8.585  0.7262 -0.2524 -0.0144
  908TIP3   OH224282   0.386   2.434   0.447 -0.2507  0.7371 -0.0082
  908TIP3    H124283   0.378   2.468   0.536  2.1521  0.3096  0.4516
  908TIP3    H224284   0.478   2.412   0.439 -0.8916 -1.7195 -1.7033
  909TIP3   OH224285   1.058   6.871   1.798  0.3144  0.2870  0.2706
  909TIP3    H124286   1.025   6.930   1.866  2.2969 -0.8567  2.3527
  909TIP3    H224287   0.987   6.868   1.733 -1.1512  2.4099  1.6310
  910TIP3   OH224288   0.528   3.470   1.690  0.5552  0.2299 -0.7064
  910TIP3    H124289   0.606   3.437   1.735 -0.3305  0.9537  1.5276
  910TIP3    H224290   0.554   3.553   1.652  0.8850  0.4833  0.0617
  911TIP3   OH224291   3.556   4.382   6.280 -0.3694 -0.8468 -0.4156
  911TIP3    H124292   3.642   4.411   6.310 -0.7697 -0.1209  0.0459
  911TIP3    H224293   3.545   4.296   6.320 -1.3535  0.5175  2.5440
  912TIP3   OH224294   3.079   2.062   6.961  0.1518  0.4682 -0.0101
  912TIP3    H124295   3.046   2.056   6.872  0.8033  1.9850 -0.3873
  912TIP3    H224296   3.001   2.062   7.016 -0.3120  0.8454 -0.6636
  913TIP3   OH224297   5.374   0.681   0.975  0.4812  0.4397 -0.3344
  913TIP3    H124298   5.285   0.717   0.983  0.3679  0.2508 -0.7584
  913TIP3    H224299   5.410   0.690   1.063  0.4647  1.6221 -0.4215
  914TIP3   OH224300   1.124   5.398   1.521  0.2294  0.3239 -0.2554
  914TIP3    H124301   1.179   5.381   1.445  0.8949  0.0241  0.2907
  914TIP3    H224302   1.180   5.380   1.597 -0.2363  1.1864  0.3155
  915TIP3   OH224303   5.768   5.207   1.577 -0.0267  0.3994 -0.0568
  915TIP3    H124304   5.819   5.250   1.646 -2.8697  0.3642  2.2327
  915TIP3    H224305   5.768   5.269   1.505  2.9218  0.5082 -0.0766
  916TIP3   OH224306   6.417   1.702   7.590  0.6238 -0.6079  0.3710
  916TIP3    H124307   6.500   1.697   7.542  0.1669  0.3270 -0.5631
  916TIP3    H224308   6.443   1.719   7.681  1.4575 -0.0115  0.0364
  917TIP3   OH224309   5.474   5.321   1.678  0.3711  0.0389 -0.1671
  917TIP3    H124310   5.519   5.252   1.727  1.8451  0.7355 -0.4864
  917TIP3    H224311   5.499   5.402   1.722  2.5900  0.7950 -2.6064
  918TIP3   OH224312   4.388   1.252   1.027  0.1811 -0.5450 -0.3185
  918TIP3    H124313   4.380   1.239   1.122 -0.3486  0.0820 -0.2732
  918TIP3    H224314   4.298   1.261   0.997  0.4023  0.4579 -0.7077
  919TIP3   OH224315   4.363   5.101   8.318 -0.2431  0.3790 -0.1297
  919TIP3    H124316   4.421   5.142   8.383 -1.1315 -0.1284  1.0261
  919TIP3    H224317   4.296   5.167   8.300  0.2700  0.6973 -0.9158
  920TIP3   OH224318   2.184   6.859   7.586  0.1710 -0.0339  0.1595
  920TIP3    H124319   2.240   6.898   7.520  0.3038 -0.5727 -0.0470
  920TIP3    H224320   2.228   6.878   7.669  0.0479  0.5667  0.0928
  921TIP3   OH224321   6.419   1.353   8.642 -0.5871 -0.2436  0.3475
  921TIP3    H124322   6.501   1.400   8.656 -0.7975 -0.4920  2.9398
  921TIP3    H224323   6.368   1.409   8.584 -0.2872  2.1152  2.2166
  922TIP3   OH224324   2.454   1.917   7.695  0.5236  0.2967 -0.0639
  922TIP3    H124325   2.412   1.947   7.615  1.5846  1.8663 -0.0980
  922TIP3    H224326   2.471   1.997   7.745  2.4084 -0.3456  0.4360
  923TIP3   OH224327   4.315   6.423   8.560  0.0572 -0.3392 -0.1928
  923TIP3    H124328   4.366   6.349   8.593  0.5904 -0.5250 -1.3745
  923TIP3    H224329   4.228   6.387   8.542 -0.8169  0.1582  2.5962
  924TIP3   OH224330   0.948   1.173   7.508 -0.2066 -0.2393 -0.1327
  924TIP3    H124331   0.946   1.113   7.434 -0.7477 -2.3358  1.4585
  924TIP3    H224332   1.000   1.127   7.574 -0.4419  1.1675  1.0906
  925TIP3   OH224333   4.447   1.745   7.991  0.2346 -0.0965 -0.2255
  925TIP3    H124334   4.538   1.749   7.962  0.1206  1.3563 -0.4624
  925TIP3    H224335   4.444   1.800   8.069 -0.7973  1.4528 -1.3133
  926TIP3   OH224336   1.997   0.430   7.912 -0.1733  0.7898 -0.0738
  926TIP3    H124337   2.028   0.449   8.001 -0.5143 -0.1395  0.2549
  926TIP3    H224338   2.043   0.493   7.857 -0.4307  1.8040  0.8318
  927TIP3   OH224339   3.002   2.360   1.106 -0.3084  0.1361  0.0903
  927TIP3    H124340   2.941   2.302   1.061 -1.6681  1.7921 -0.2925
  927TIP3    H224341   3.021   2.315   1.188 -1.3834 -0.8096 -0.1540
  928TIP3   OH224342   6.453   2.523   8.369  0.1571  0.3406  0.2098
  928TIP3    H124343   6.428   2.613   8.348 -0.3125  0.2872  0.5230
  928TIP3    H224344   6.430   2.513   8.461 -0.2765 -0.2688  0.0378
  929TIP3   OH224345   2.202   3.128   7.774 -0.0634  0.1546  0.0179
  929TIP3    H124346   2.239   3.210   7.807 -0.9453  1.2744 -1.6497
  929TIP3    H224347   2.240   3.061   7.830 -0.8573  1.8364  2.7649
  930TIP3   OH224348   0.947   5.496   0.193  0.4902 -0.2166 -0.8115
  930TIP3    H124349   1.029   5.461   0.228  0.3351 -0.8108 -1.0409
  930TIP3    H224350   0.896   5.519   0.271 -0.5540 -3.1127 -0.5392
  931TIP3   OH224351   5.963   6.026   8.368  0.2273  0.1121  0.3678
  931TIP3    H124352   6.009   6.108   8.350  0.2910 -0.2400 -1.2017
  931TIP3    H224353   5.872   6.053   8.385  0.6942  0.6841  2.2067
  932TIP3   OH224354   2.459   6.204   0.014  0.4674 -0.0102  0.3042
  932TIP3    H124355   2.477   6.246   0.098  1.6597  0.7666 -0.2987
  932TIP3    H224356   2.494   6.266  -0.051  1.5812 -1.5844 -0.6630
  933TIP3   OH224357   5.484   4.383   1.229  0.0739  0.1489 -0.0425
  933TIP3    H124358   5.554   4.317   1.226  1.8201  1.9019  0.2931
  933TIP3    H224359   5.500   4.431   1.310 -2.0644  0.0988  0.4796
  934TIP3   OH224360   0.090   1.625   7.082  1.0523 -0.8119 -0.0100
  934TIP3    H124361   0.035   1.682   7.136  1.6690 -0.9104  0.7378
  934TIP3    H224362   0.105   1.675   7.002  1.8474  0.2171  0.7584
  935TIP3   OH224363   2.895   3.066   1.073  0.1220 -0.4776  0.1335
  935TIP3    H124364   2.892   2.996   1.138  1.4846 -1.6624 -1.0023
  935TIP3    H224365   2.827   3.128   1.100 -0.5388 -1.8182  1.6538
  936TIP3   OH224366   0.568   2.109   7.749 -0.1035 -0.3753  0.0894
  936TIP3    H124367   0.618   2.028   7.753  1.4059  0.5158  0.2090
  936TIP3    H224368   0.630   2.174   7.716 -1.7781  0.3635 -1.8452
  937TIP3   OH224369   4.153   6.261   7.464  0.7923 -0.7771 -0.1034
  937TIP3    H124370   4.098   6.326   7.420 -1.0947 -3.0416 -1.2918
  937TIP3    H224371   4.108   6.245   7.547  0.9444 -0.9568 -0.0560
  938TIP3   OH224372   3.092   1.597   1.046  0.5040 -0.0496 -0.3201
  938TIP3    H124373   3.170   1.560   1.003  0.4683 -1.8107  1.0400
  938TIP3    H224374   3.021   1.581   0.984  0.9507  0.2257 -0.9230
  939TIP3   OH224375   3.218   4.452   7.820  0.4129 -0.0518  0.2383
  939TIP3    H124376   3.155   4.481   7.886  0.2861 -0.9437  0.5213
  939TIP3    H224377   3.245   4.365   7.849  1.0014 -0.1030 -0.4351
  940TIP3   OH224378   0.215   3.051   0.564 -0.7887 -0.1447 -0.1771
  940TIP3    H124379   0.253   2.964   0.547 -0.6379 -0.3865  1.3017
  940TIP3    H224380   0.278   3.112   0.525 -0.1804 -0.6467  0.0065
  941TIP3   OH224381   0.392   1.048   1.387 -0.2549 -0.1113  0.1677
  941TIP3    H124382   0.333   1.036   1.313  0.4348 -1.6129 -0.1896
  941TIP3    H224383   0.479   1.061   1.348  0.0654 -0.5940  0.6839
  942TIP3   OH224384   6.660   5.623   7.964 -0.1227 -0.5997 -0.1497
  942TIP3    H124385   6.712   5.694   8.003  1.6527 -0.8793 -1.8268
  942TIP3    H224386   6.580   5.666   7.935  0.5428  0.5551 -0.3622
  943TIP3   OH224387   5.986   3.623   2.167  0.0254  0.0884 -0.2859
  943TIP3    H124388   5.934   3.577   2.101 -0.3584 -0.6361  0.5213
  943TIP3    H224389   5.927   3.634   2.241  0.8206 -0.1589  0.3933
  944TIP3   OH224390   2.227   6.113   7.952 -0.0745  0.0739  0.1198
  944TIP3    H124391   2.166   6.179   7.984  0.4800  1.6779 -1.9517
  944TIP3    H224392   2.197   6.093   7.864  0.8688 -1.0609  0.0377
  945TIP3   OH224393   0.479   0.397   0.726 -0.3229  0.4845  0.4325
  945TIP3    H124394   0.386   0.393   0.744 -0.2176 -0.3653  0.8172
  945TIP3    H224395   0.520   0.348   0.797  0.2007 -1.7130 -1.2791
  946TIP3   OH224396   5.795   4.625   2.463 -0.4268 -0.0292 -0.2556
  946TIP3    H124397   5.816   4.545   2.512  1.2465 -0.0474 -0.9206
  946TIP3    H224398   5.745   4.594   2.387  1.5115 -0.6943 -1.3254
  947TIP3   OH224399   4.520   5.591   1.135  0.7793  0.4565 -0.0963
  947TIP3    H124400   4.579   5.628   1.069 -0.1753 -1.2295 -1.9995
  947TIP3    H224401   4.436   5.633   1.119  0.5154 -0.0395 -0.0319
  948TIP3   OH224402   4.103   5.135   7.118 -0.0232 -0.0413  0.0403
  948TIP3    H124403   4.151   5.131   7.200 -0.5158  2.6590  0.5681
  948TIP3    H224404   4.012   5.125   7.142 -0.1134  0.0427 -0.2554
  949TIP3   OH224405   0.914   4.638   0.988 -0.3914 -0.6320 -0.0012
  949TIP3    H124406   0.935   4.600   0.903  0.7229 -0.0452  0.0077
  949TIP3    H224407   0.907   4.563   1.047 -0.9531 -1.0212 -0.5532
  950TIP3   OH224408   5.942   5.381   1.991  0.6085  0.3060 -0.0356
  950TIP3    H124409   6.019   5.351   2.040  0.4263  0.9175  0.6458
  950TIP3    H224410   5.877   5.312   2.003 -0.1921  1.4095  2.4418
  951TIP3   OH224411   6.680   4.189   1.337  0.6190 -0.1422  0.5931
  951TIP3    H124412   6.712   4.210   1.424  1.3567 -0.4153  0.3966
  951TIP3    H224413   6.673   4.273   1.292  0.6888 -0.0453  0.7652
  952TIP3   OH224414   6.238   5.463   1.948  0.2890 -0.3766  0.0835
  952TIP3    H124415   6.298   5.533   1.976  0.3853  0.0876 -1.1765
  952TIP3    H224416   6.191   5.438   2.027  1.0727  0.3144  0.7961
  953TIP3   OH224417   0.384   4.613   1.169  0.0215  0.3159 -0.1621
  953TIP3    H124418   0.312   4.563   1.130 -0.7123 -1.7132  3.3116
  953TIP3    H224419   0.463   4.565   1.143 -0.3176 -0.1833 -0.2900
  954TIP3   OH224420   3.033   3.586   2.290 -0.2697  0.1398 -0.4330
  954TIP3    H124421   2.943   3.604   2.264 -0.1397 -0.1598 -1.1024
  954TIP3    H224422   3.074   3.673   2.294 -0.9742  0.4465  1.4335
  955TIP3   OH224423   0.806   0.716   0.268 -0.4872 -0.5324 -0.3766
  955TIP3    H124424   0.801   0.772   0.191 -1.1041  1.3579  0.9680
  955TIP3    H224425   0.900   0.701   0.281 -0.4006 -1.9660 -2.1665
  956TIP3   OH224426   1.773   0.399   6.060  0.2736  0.0468  0.5270
  956TIP3    H124427   1.725   0.476   6.091 -0.5540 -0.7115  1.1621
  956TIP3    H224428   1.861   0.432   6.040 -0.3537  1.3610 -0.1744
  957TIP3   OH224429   5.304   4.343   8.510  0.1503 -0.2300  0.1654
  957TIP3    H124430   5.228   4.348   8.568 -1.1852 -2.0217 -1.3147
  957TIP3    H224431   5.266   4.347   8.422  2.1243  2.7241 -0.6898
  958TIP3   OH224432   1.076   3.013   6.290 -0.0540  0.7596 -0.8184
  958TIP3    H124433   0.989   2.983   6.317 -0.8426  1.9853 -1.9329
  958TIP3    H224434   1.060   3.091   6.238  1.4724 -0.6988 -3.7119
  959TIP3   OH224435   0.879   5.195   7.317  0.3991  0.8676  0.5837
  959TIP3    H124436   0.811   5.167   7.256  0.0710  2.3016  0.2577
  959TIP3    H224437   0.927   5.263   7.270  3.1998 -1.2197  0.1374
  960TIP3   OH224438   1.632   3.781   0.783 -0.6674  0.0832  0.4147
  960TIP3    H124439   1.672   3.742   0.706 -2.2280 -0.6095 -0.0745
  960TIP3    H224440   1.565   3.719   0.810 -2.1956  1.7063  0.5382
  961TIP3   OH224441   3.420   2.752   2.193  0.1529 -0.5388 -0.2088
  961TIP3    H124442   3.384   2.825   2.243 -0.2440 -0.8763  0.0031
  961TIP3    H224443   3.349   2.727   2.133  0.0823 -1.1013  0.0993
  962TIP3   OH224444   6.640   5.894   8.108 -0.5704 -0.6014  0.2088
  962TIP3    H124445   6.693   5.936   8.041 -1.4240  0.8354  0.3928
  962TIP3    H224446   6.698   5.885   8.184 -0.5263  0.8608  0.3747
  963TIP3   OH224447   4.534   5.063   0.764 -0.1053  0.5344  0.1091
  963TIP3    H124448   4.588   5.126   0.811 -0.1404  0.5525  0.1248
  963TIP3    H224449   4.496   5.113   0.692  1.4700  0.0805 -1.1031
  964TIP3   OH224450   1.957   5.132   1.681  0.1358 -0.4670 -0.0601
  964TIP3    H124451   1.986   5.062   1.738  2.0239 -0.2404 -0.6759
  964TIP3    H224452   1.861   5.129   1.685  0.2096 -2.0129  1.1681
  965TIP3   OH224453   5.934   1.522   6.633 -0.0382 -0.4800  0.4465
  965TIP3    H124454   5.961   1.557   6.548 -0.3696 -1.7284 -0.1834
  965TIP3    H224455   5.994   1.564   6.695 -1.1952  2.2027 -0.0848
  966TIP3   OH224456   2.046   3.821   8.266  0.1969 -0.2107  0.6350
  966TIP3    H124457   2.087   3.888   8.212 -2.1065  1.0072  0.2790
  966TIP3    H224458   2.115   3.755   8.278  1.5490  0.6341 -1.7172
  967TIP3   OH224459   2.834   6.867   7.847 -0.0201 -0.3303 -0.1270
  967TIP3    H124460   2.758   6.844   7.900  0.6637 -2.0382  0.1541
  967TIP3    H224461   2.840   6.797   7.782  2.4013 -1.2945  1.0389
  968TIP3   OH224462   3.049   4.745   2.265  1.2787 -0.2174 -0.1595
  968TIP3    H124463   3.061   4.764   2.172  2.3494  0.8516  0.1571
  968TIP3    H224464   3.084   4.823   2.310  0.6459 -0.6434  1.1289
  969TIP3   OH224465   2.041   0.654   0.165  0.5969 -0.8367  0.5322
  969TIP3    H124466   1.984   0.604   0.224  0.9602 -1.0879  0.6763
  969TIP3    H224467   2.129   0.635   0.196  0.8415 -1.5713 -0.5455
  970TIP3   OH224468   6.295   1.968   7.697 -0.4502  0.0668  0.1455
  970TIP3    H124469   6.253   1.958   7.783  1.3052  0.1787  1.0477
  970TIP3    H224470   6.377   1.919   7.704  0.3530  1.1859 -1.0210
  971TIP3   OH224471   3.046   6.176   7.122  0.1039 -0.0301 -0.2057
  971TIP3    H124472   3.113   6.221   7.070  0.6033 -0.1078  0.3637
  971TIP3    H224473   2.972   6.235   7.122  1.1017  1.3171  1.4120
  972TIP3   OH224474   4.953   0.929   8.572 -0.2975  0.3120  0.2547
  972TIP3    H124475   5.048   0.931   8.583 -0.0659  2.9302 -1.3309
  972TIP3    H224476   4.918   0.966   8.653  0.2620  1.9933 -0.2264
  973TIP3   OH224477   0.641   6.601   0.925  0.5595 -0.2512  0.0503
  973TIP3    H124478   0.554   6.642   0.920  1.2378  1.5711  1.7992
  973TIP3    H224479   0.640   6.553   1.007  1.5054  0.5907  0.5735
  974TIP3   OH224480   4.116   3.666   7.879 -0.0516  0.4393 -0.1752
  974TIP3    H124481   4.034   3.704   7.910  1.0416  2.0744  0.8510
  974TIP3    H224482   4.173   3.741   7.861  0.9332 -0.6195 -1.7622
  975TIP3   OH224483   4.732   6.842   0.528  0.4186 -0.0009  0.1696
  975TIP3    H124484   4.738   6.935   0.551  0.7117  0.2364 -0.8262
  975TIP3    H224485   4.657   6.810   0.578 -0.8962  1.2419 -0.9172
  976TIP3   OH224486   4.299   3.943   7.588 -0.3452 -0.2502  0.0755
  976TIP3    H124487   4.243   3.944   7.665  1.3613  0.4316  1.3800
  976TIP3    H224488   4.254   3.999   7.524 -1.4647 -0.2884  0.8219
  977TIP3   OH224489   1.781   1.877   1.258 -0.6590 -0.1811  0.4934
  977TIP3    H124490   1.833   1.824   1.318 -1.1175  0.6309  1.6458
  977TIP3    H224491   1.690   1.857   1.279 -0.9052  2.3325  2.2496
  978TIP3   OH224492   5.949   0.629   8.309  0.0440 -0.2581  0.5788
  978TIP3    H124493   5.922   0.593   8.224  0.3308  1.0310 -0.0928
  978TIP3    H224494   5.884   0.596   8.371  0.3085 -1.9176  0.0327
  979TIP3   OH224495   2.421   3.786   7.115  0.1507  0.3167 -0.8411
  979TIP3    H124496   2.335   3.773   7.156  0.4804 -0.0281 -0.2367
  979TIP3    H224497   2.415   3.740   7.032 -0.4970  0.9317 -1.1403
  980TIP3   OH224498   3.283   2.652   2.572 -0.1846  0.5327  0.2957
  980TIP3    H124499   3.261   2.666   2.665 -0.1073  1.3305  0.1923
  980TIP3    H224500   3.359   2.708   2.556  2.1274 -2.2485  0.6667
  981TIP3   OH224501   0.540   4.028   2.980  0.0850  0.1711 -0.2210
  981TIP3    H124502   0.527   3.939   2.947  1.2287 -0.1012  0.0153
  981TIP3    H224503   0.635   4.040   2.980 -0.0540  1.4504 -0.3806
  982TIP3   OH224504   5.069   2.004   7.911 -0.1187  0.7499 -0.2534
  982TIP3    H124505   5.004   2.024   7.844 -0.1173  0.2772 -0.3992
  982TIP3    H224506   5.101   1.917   7.888 -0.0209  0.6396  0.2867
  983TIP3   OH224507   4.024   2.910   1.599 -0.0582  0.1127 -0.0393
  983TIP3    H124508   4.016   2.917   1.504  1.7161  0.1969 -0.2212
  983TIP3    H224509   4.092   2.973   1.622 -1.1825  0.8502  1.4422
  984TIP3   OH224510   3.949   5.127   1.341  0.0265  0.7640 -0.1520
  984TIP3    H124511   3.938   5.165   1.428  0.4086 -0.7587  0.6126
  984TIP3    H224512   3.877   5.064   1.333  0.7038  0.0005 -0.4064
  985TIP3   OH224513   4.766   4.601   8.480 -0.5533  0.0352  0.2653
  985TIP3    H124514   4.861   4.616   8.478 -0.5833  0.2266  0.2968
  985TIP3    H224515   4.731   4.674   8.531 -0.9288  1.0532 -1.3991
  986TIP3   OH224516   4.521   1.567   6.983 -0.1923 -0.0198 -0.5190
  986TIP3    H124517   4.536   1.497   6.919  0.9377 -0.7577  0.5159
  986TIP3    H224518   4.551   1.646   6.939  3.9235 -0.9565  0.2060
  987TIP3   OH224519   6.815   4.697   6.880 -0.1655 -0.3745  0.2721
  987TIP3    H124520   6.749   4.766   6.891  1.9599  1.8676 -0.0736
  987TIP3    H224521   6.817   4.652   6.964 -2.2391 -0.6703  0.2178
  988TIP3   OH224522   6.289   0.647   1.488 -0.2603 -0.1482 -0.2746
  988TIP3    H124523   6.348   0.649   1.563 -1.4869  0.5181  0.7118
  988TIP3    H224524   6.307   0.728   1.441 -2.2792  1.4731  1.5877
  989TIP3   OH224525   6.823   2.951   6.987  0.0525 -0.1023 -0.0084
  989TIP3    H124526   6.836   2.860   6.960 -0.5888  0.6619 -3.2041
  989TIP3    H224527   6.910   2.991   6.980  0.0487 -0.1101 -0.1016
  990TIP3   OH224528   6.234   1.708   1.807  0.1084 -0.1651  0.4145
  990TIP3    H124529   6.247   1.749   1.893  0.0212  0.7946 -0.0101
  990TIP3    H224530   6.174   1.636   1.823  1.7186 -1.3253  1.5180
  991TIP3   OH224531   2.728   2.734   7.014  0.0420  0.3356 -0.2726
  991TIP3    H124532   2.755   2.685   6.936  1.2627  1.6614 -0.7405
  991TIP3    H224533   2.704   2.820   6.980 -1.0863  0.3950  0.6324
  992TIP3   OH224534   2.675   2.627   1.915  0.2070  0.1971 -0.1333
  992TIP3    H124535   2.651   2.629   1.823  2.4675  0.7295 -0.7703
  992TIP3    H224536   2.663   2.716   1.946 -1.2592 -0.1307  0.3342
  993TIP3   OH224537   4.712   1.320   1.165  0.2938 -0.1127 -0.0731
  993TIP3    H124538   4.777   1.388   1.151  4.2374 -2.9258  2.4518
  993TIP3    H224539   4.663   1.349   1.242  0.2419  0.9580 -0.4977
  994TIP3   OH224540   6.604   1.422   7.557  0.5810  0.2485  0.2658
  994TIP3    H124541   6.549   1.440   7.633  0.3947 -1.2704  0.5239
  994TIP3    H224542   6.589   1.329   7.538  2.6015 -0.0557 -0.0233
  995TIP3   OH224543   0.967   2.054   8.251  0.5291 -0.3663  0.2723
  995TIP3    H124544   0.895   2.001   8.285  1.9065 -2.6590 -0.1497
  995TIP3    H224545   0.924   2.125   8.202 -1.4333 -1.4784  0.2777
  996TIP3   OH224546   1.258   6.587   8.540 -0.6404  0.0563 -0.0140
  996TIP3    H124547   1.256   6.669   8.491 -1.3674  1.0145  1.5179
  996TIP3    H224548   1.318   6.604   8.613 -2.2660 -0.0720  1.4174
  997TIP3   OH224549   2.904   5.830   0.472  0.3557 -0.2862  0.2813
  997TIP3    H124550   2.849   5.861   0.544 -0.0468 -2.1299  0.8239
  997TIP3    H224551   2.852   5.761   0.431  1.9251 -1.5632  0.3280
  998TIP3   OH224552   4.969   3.742   7.615  0.3137  0.0713  0.3840
  998TIP3    H124553   4.941   3.736   7.523 -0.0429 -1.0039  0.5405
  998TIP3    H224554   5.063   3.725   7.613  0.0432 -1.6496  0.3485
  999TIP3   OH224555   1.516   5.219   0.484 -0.4632 -0.0715 -0.4607
  999TIP3    H124556   1.563   5.253   0.408  1.1072  1.8341  1.2334
  999TIP3    H224557   1.457   5.290   0.509  0.0424 -0.0886  0.8594
 1000TIP3   OH224558   3.635   1.821   7.023  0.0768 -0.5020  0.4983
 1000TIP3    H124559   3.555   1.811   7.075  0.4029 -2.5664  0.7144
 1000TIP3    H224560   3.698   1.860   7.083 -0.2573 -0.5852  0.9077
 1001TIP3   OH224561   1.897   3.811   2.039 -0.1509  0.5627  0.0361
 1001TIP3    H124562   1.892   3.836   2.131 -1.2744  2.5483 -0.5009
 1001TIP3    H224563   1.842   3.875   1.994  1.0304  0.1618 -2.1225
 1002TIP3   OH224564   3.678   2.058   0.386  0.0938  0.6877  0.6274
 1002TIP3    H124565   3.663   2.126   0.321 -1.3994  0.3672  0.6125
 1002TIP3    H224566   3.645   2.095   0.468  0.7969  0.5998  0.9641
 1003TIP3   OH224567   2.533   2.838   6.561 -0.6927 -0.0015 -0.2436
 1003TIP3    H124568   2.497   2.810   6.477 -0.8400 -1.3400  0.2382
 1003TIP3    H224569   2.457   2.851   6.617 -0.5801  0.5640 -0.2168
 1004TIP3   OH224570   0.432   5.912   7.950 -0.4728 -0.0448 -0.3845
 1004TIP3    H124571   0.517   5.910   7.993  0.6648  2.2263 -2.3105
 1004TIP3    H224572   0.381   5.976   7.999 -0.3107  0.1862 -0.5192
 1005TIP3   OH224573   4.067   5.432   0.878 -0.5562  0.3337 -0.4163
 1005TIP3    H124574   4.069   5.386   0.962 -0.0564  0.6266 -0.2667
 1005TIP3    H224575   3.983   5.407   0.840 -0.2359 -0.8474 -0.4095
 1006TIP3   OH224576   6.760   5.396   1.550  0.2898 -0.2720 -0.1400
 1006TIP3    H124577   6.846   5.404   1.509  0.0227  1.2550 -0.4678
 1006TIP3    H224578   6.745   5.481   1.592 -0.6004 -0.8894  0.8460
 1007TIP3   OH224579   5.244   1.957   6.743  0.0976 -0.8624  0.4371
 1007TIP3    H124580   5.242   2.048   6.771  1.2718 -0.4810 -0.6116
 1007TIP3    H224581   5.157   1.941   6.705  0.4366  0.3751 -0.9513
 1008TIP3   OH224582   5.917   3.011   0.939  0.6416 -0.2231 -0.2364
 1008TIP3    H124583   6.011   3.024   0.925  0.8426 -2.0243 -0.7386
 1008TIP3    H224584   5.907   3.009   1.034  0.4952  3.6759  0.0022
 1009TIP3   OH224585   5.012   4.246   2.063  0.0848 -0.0736  0.0745
 1009TIP3    H124586   5.065   4.265   2.140 -0.6373 -0.9287  0.8160
 1009TIP3    H224587   5.010   4.150   2.058  1.6854 -0.0652 -2.1534
 1010TIP3   OH224588   1.852   4.003   7.962  0.1767  0.0300  0.0625
 1010TIP3    H124589   1.773   4.041   7.923  0.6101 -0.3213 -1.1952
 1010TIP3    H224590   1.922   4.024   7.899  1.0415  0.1001  1.0263
 1011TIP3   OH224591   1.677   5.068   1.705 -0.4934 -0.4547 -0.4110
 1011TIP3    H124592   1.683   5.048   1.798 -0.1647 -0.9716 -0.5350
 1011TIP3    H224593   1.637   5.155   1.701 -1.1394 -0.7105  0.1920
 1012TIP3   OH224594   2.138   2.948   8.216 -0.0985  0.1095 -0.0769
 1012TIP3    H124595   2.231   2.929   8.207  0.7229  2.7826  1.7620
 1012TIP3    H224596   2.105   2.947   8.126  1.7092 -0.6961 -0.7788
 1013TIP3   OH224597   4.685   3.025   7.869 -0.0240  0.0321  0.2646
 1013TIP3    H124598   4.595   3.045   7.891  0.2392 -0.0186  1.4859
 1013TIP3    H224599   4.689   2.929   7.870  0.1299  0.0424  0.5767
 1014TIP3   OH224600   5.055   2.388   0.198 -0.0251 -0.0538  0.2230
 1014TIP3    H124601   5.117   2.409   0.268  1.2166  1.5230 -1.2665
 1014TIP3    H224602   5.070   2.295   0.180  0.9075 -0.0440  0.8636
 1015TIP3   OH224603   0.705   4.050   6.634  0.2923  0.5327  0.3023
 1015TIP3    H124604   0.736   3.968   6.594  0.8100 -0.2038  2.1341
 1015TIP3    H224605   0.751   4.119   6.586  3.3789 -0.4515  1.6594
 1016TIP3   OH224606   5.292   6.229   7.394 -0.2331  1.0895 -0.2739
 1016TIP3    H124607   5.246   6.215   7.311  1.0209 -0.2222 -0.7997
 1016TIP3    H224608   5.385   6.220   7.371  0.1095 -0.0077  1.3958
 1017TIP3   OH224609   3.432   6.349   2.438 -0.1188  0.7401 -0.1997
 1017TIP3    H124610   3.365   6.282   2.426 -0.4079  0.8455  0.7863
 1017TIP3    H224611   3.399   6.404   2.509  0.8051  1.0522  0.0014
 1018TIP3   OH224612   0.109   5.986   0.037 -0.7603  0.3801 -0.1819
 1018TIP3    H124613   0.181   6.045   0.057 -0.3951  0.0146 -0.4188
 1018TIP3    H224614   0.070   5.965   0.122 -0.3262  0.2467 -0.0175
 1019TIP3   OH224615   3.556   4.565   8.503  0.3094  0.2759 -0.3576
 1019TIP3    H124616   3.514   4.523   8.428 -0.7183  0.6021  0.0085
 1019TIP3    H224617   3.484   4.609   8.548  0.8771 -0.0770  0.9292
 1020TIP3   OH224618   6.124   4.133   6.856 -0.1185  0.5392  0.3597
 1020TIP3    H124619   6.135   4.038   6.861 -1.6255  0.2262 -1.1978
 1020TIP3    H224620   6.212   4.167   6.845  0.5969 -0.5363  2.2553
 1021TIP3   OH224621   4.113   0.710   1.607  0.3189 -0.3345  0.1107
 1021TIP3    H124622   4.135   0.629   1.561  2.0117 -0.2045  0.6245
 1021TIP3    H224623   4.156   0.779   1.556 -2.0229  0.4297 -0.9658
 1022TIP3   OH224624   0.862   0.064   0.738 -0.4789 -0.2369  0.5932
 1022TIP3    H124625   0.790   0.034   0.793 -0.0271 -2.1455  0.2216
 1022TIP3    H224626   0.929   0.093   0.800 -1.1720  0.5908  0.9634
 1023TIP3   OH224627   1.029   1.501   8.235 -0.2890 -0.0004 -0.1865
 1023TIP3    H124628   1.064   1.558   8.167  2.3736 -0.0333  1.0534
 1023TIP3    H224629   0.934   1.513   8.229 -0.0883  1.0948 -2.8933
 1024TIP3   OH224630   3.530   6.181   0.717  0.2832  0.0569 -0.2489
 1024TIP3    H124631   3.505   6.185   0.810  0.7058  0.2818 -0.1419
 1024TIP3    H224632   3.456   6.219   0.671 -0.2909 -0.8172 -0.0723
 1025TIP3   OH224633   4.167   1.434   7.498 -0.1378 -0.2310 -0.1171
 1025TIP3    H124634   4.212   1.424   7.582 -0.8504 -2.1378  0.0924
 1025TIP3    H224635   4.226   1.395   7.434  0.5282  1.4629 -0.6106
 1026TIP3   OH224636   3.243   6.356   2.160  0.5096  0.5786 -0.1135
 1026TIP3    H124637   3.167   6.325   2.210  0.4674  0.1630 -0.4342
 1026TIP3    H224638   3.298   6.278   2.148  0.0143  0.4316 -1.6289
 1027TIP3   OH224639   0.645   1.021   7.290 -0.5376  0.0817  0.1314
 1027TIP3    H124640   0.611   0.931   7.288  2.6658 -1.3667  2.3781
 1027TIP3    H224641   0.624   1.052   7.378 -0.5684  1.1109 -0.2286
 1028TIP3   OH224642   1.846   2.648   8.611  0.1154 -0.4641  0.3774
 1028TIP3    H124643   1.876   2.728   8.654  1.0910 -0.6418  0.0615
 1028TIP3    H224644   1.893   2.577   8.656  1.9024 -0.5859 -1.5197
 1029TIP3   OH224645   3.236   6.059   6.636  0.1843  0.3109  0.0389
 1029TIP3    H124646   3.162   6.071   6.696 -2.0361  0.9728 -2.5926
 1029TIP3    H224647   3.236   5.965   6.619  1.1363  0.0465  1.3721
 1030TIP3   OH224648   5.451   2.559   0.567  0.4487 -0.3224  0.1485
 1030TIP3    H124649   5.386   2.611   0.613 -1.9327  0.2791 -3.4385
 1030TIP3    H224650   5.515   2.622   0.534  0.0786 -0.2388 -0.4233
 1031TIP3   OH224651   6.317   6.483   7.471 -0.2324 -0.4232 -0.4453
 1031TIP3    H124652   6.385   6.544   7.500 -0.5331  0.2485 -1.1149
 1031TIP3    H224653   6.262   6.469   7.548  0.6134 -0.9250  0.0895
 1032TIP3   OH224654   5.915   0.472   7.032  0.0605  0.2223 -0.0098
 1032TIP3    H124655   5.937   0.412   6.961  0.0351  0.0440  0.1343
 1032TIP3    H224656   5.946   0.429   7.112 -1.3038 -0.2958  0.2675
 1033TIP3   OH224657   3.221   4.241   7.296  0.3645  0.3200 -0.3428
 1033TIP3    H124658   3.297   4.297   7.284  1.1098 -0.7308 -0.6413
 1033TIP3    H224659   3.146   4.296   7.272  0.8420  1.8969  1.5275
 1034TIP3   OH224660   3.273   5.046   1.275 -0.6135 -0.4188  0.6585
 1034TIP3    H124661   3.343   5.110   1.264 -0.0532 -0.8428  1.6136
 1034TIP3    H224662   3.262   5.039   1.370 -0.8849 -1.5019  0.5556
 1035TIP3   OH224663   3.391   5.056   6.820  0.0031 -0.3867 -0.6522
 1035TIP3    H124664   3.331   5.081   6.890 -0.4750  1.3114 -1.6293
 1035TIP3    H224665   3.343   4.990   6.770 -0.0143 -0.9146  0.0325
 1036TIP3   OH224666   3.940   3.136   0.903 -0.4103  0.3802  0.0696
 1036TIP3    H124667   3.861   3.170   0.862 -1.4621 -0.2614  1.5134
 1036TIP3    H224668   3.960   3.056   0.854  0.4651  1.4749 -1.4946
 1037TIP3   OH224669   2.222   4.009   8.130 -0.3067  0.3351 -0.7860
 1037TIP3    H124670   2.238   4.096   8.094  0.3400  0.7037  0.3284
 1037TIP3    H224671   2.255   3.948   8.064  1.6957  0.9995 -0.4634
 1038TIP3   OH224672   6.219   1.706   6.576 -0.5712 -0.2762  0.5398
 1038TIP3    H124673   6.249   1.621   6.543  0.2864  0.2180  0.0111
 1038TIP3    H224674   6.300   1.754   6.595 -1.0374  0.6670  0.1960
 1039TIP3   OH224675   5.769   1.073   6.804  0.4675  0.1406  0.0714
 1039TIP3    H124676   5.775   1.137   6.734  1.8042 -0.1349 -0.0824
 1039TIP3    H224677   5.750   0.990   6.759  1.2058 -0.0142  0.0373
 1040TIP3   OH224678   5.105   1.420   1.926  0.7142 -0.4289 -0.5142
 1040TIP3    H124679   5.192   1.458   1.911  0.8767 -0.7715 -0.4543
 1040TIP3    H224680   5.121   1.343   1.980  0.3239 -0.2515 -0.1417
 1041TIP3   OH224681   4.181   6.616   7.935 -0.4054 -0.2882 -0.1122
 1041TIP3    H124682   4.248   6.548   7.936 -0.5353 -0.4169  0.6566
 1041TIP3    H224683   4.205   6.675   8.006 -0.2091  0.5652 -0.8674
 1042TIP3   OH224684   3.668   1.251   0.934  0.4437  0.0460  0.1277
 1042TIP3    H124685   3.744   1.275   0.881 -1.3763 -0.3945 -2.9410
 1042TIP3    H224686   3.658   1.157   0.920  0.3562 -0.2749  2.0375
 1043TIP3   OH224687   4.814   2.566   0.992 -0.2463  0.1234  0.3536
 1043TIP3    H124688   4.727   2.565   0.951 -2.1522 -0.6673  3.9231
 1043TIP3    H224689   4.796   2.584   1.084  3.4083 -0.3186  1.2990
 1044TIP3   OH224690   0.278   1.040   7.844  0.4789 -0.3046  0.1389
 1044TIP3    H124691   0.255   1.014   7.933  1.9511  0.1162  0.6741
 1044TIP3    H224692   0.242   1.128   7.835 -1.3479 -1.0423 -0.4062
 1045TIP3   OH224693   4.213   0.308   0.944  0.0837 -0.0273 -0.2237
 1045TIP3    H124694   4.243   0.380   1.000  0.8334 -0.9332  0.5792
 1045TIP3    H224695   4.292   0.261   0.920 -0.0637  0.9955 -3.1034
 1046TIP3   OH224696   1.272   1.996   0.715  1.1008 -0.4554 -0.2199
 1046TIP3    H124697   1.189   1.976   0.758  1.7700 -1.4139  0.6780
 1046TIP3    H224698   1.262   2.086   0.683 -0.3813 -0.6657 -0.4143
 1047TIP3   OH224699   0.619   1.982   2.279 -1.1400  0.3455  0.0307
 1047TIP3    H124700   0.592   2.038   2.206 -0.4753 -0.4533 -0.8558
 1047TIP3    H224701   0.616   1.893   2.243  1.8135  0.1202  0.0800
 1048TIP3   OH224702   5.323   6.384   1.096 -0.6982  0.3480  0.5604
 1048TIP3    H124703   5.289   6.313   1.150  0.1956 -1.5177 -1.1924
 1048TIP3    H224704   5.247   6.418   1.049 -0.7684 -1.7457 -1.0390
 1049TIP3   OH224705   5.737   4.559   7.452 -0.0790  0.1035  0.1845
 1049TIP3    H124706   5.772   4.489   7.398 -0.2475 -0.1912  0.4520
 1049TIP3    H224707   5.642   4.547   7.447 -0.0892 -1.3519  2.3643
 1050TIP3   OH224708   4.004   4.131   0.233  0.2153 -0.5624 -0.4363
 1050TIP3    H124709   3.994   4.117   0.139  1.6112  1.0900 -0.8841
 1050TIP3    H224710   4.047   4.216   0.240  1.2841 -1.2028  1.6571
 1051TIP3   OH224711   3.364   3.574   0.452  0.0163 -0.3120 -0.0508
 1051TIP3    H124712   3.339   3.591   0.543 -1.4306 -2.5347  0.0503
 1051TIP3    H224713   3.346   3.656   0.406  1.1511  0.9874  1.6823
 1052TIP3   OH224714   4.169   0.672   6.185  0.2594 -0.0472 -0.1070
 1052TIP3    H124715   4.204   0.591   6.222  0.7481 -0.5336 -1.5651
 1052TIP3    H224716   4.083   0.648   6.152  0.3017  0.0847 -0.3162
 1053TIP3   OH224717   3.569   6.363   1.374 -0.0378 -0.2457  0.2783
 1053TIP3    H124718   3.630   6.421   1.329 -0.6502  0.9820  0.9754
 1053TIP3    H224719   3.485   6.381   1.332  0.0395 -1.8694 -0.6321
 1054TIP3   OH224720   0.970   6.164   0.786 -0.5603  0.2328  0.6480
 1054TIP3    H124721   0.879   6.192   0.795 -0.3634  1.3624 -0.4988
 1054TIP3    H224722   1.021   6.243   0.803  0.1384 -0.0734  0.0461
 1055TIP3   OH224723   2.124   4.689   7.679  0.5748  0.0647  0.0156
 1055TIP3    H124724   2.177   4.762   7.710 -0.6718  1.7967 -1.7254
 1055TIP3    H224725   2.102   4.712   7.589 -0.2371 -2.2766 -0.4432
 1056TIP3   OH224726   5.005   5.065   7.408  0.2053 -0.3304  0.8998
 1056TIP3    H124727   4.947   5.023   7.345  0.0895 -0.9304  1.4012
 1056TIP3    H224728   5.093   5.041   7.380  0.1357 -1.0123  1.2548
 1057TIP3   OH224729   2.589   2.012   6.263 -0.1210 -0.5557 -0.0770
 1057TIP3    H124730   2.583   2.092   6.315 -0.2950 -0.2014 -0.6429
 1057TIP3    H224731   2.654   2.032   6.196 -0.2019 -0.8735 -0.2509
 1058TIP3   OH224732   4.168   6.342   2.096  0.0204 -0.7163  0.4386
 1058TIP3    H124733   4.208   6.303   2.174 -0.5618 -0.9018  0.6519
 1058TIP3    H224734   4.126   6.268   2.052 -1.5060 -0.2832  1.1004
 1059TIP3   OH224735   4.476   1.649   7.479  0.2620  0.3614  0.2687
 1059TIP3    H124736   4.479   1.561   7.517 -0.5315  0.4195  0.5025
 1059TIP3    H224737   4.460   1.634   7.386  0.2033  0.2503  0.2955
 1060TIP3   OH224738   6.698   2.256   6.372  0.0185 -0.1498 -0.3754
 1060TIP3    H124739   6.695   2.325   6.439 -0.6360  0.6500 -1.1937
 1060TIP3    H224740   6.621   2.202   6.389  1.2614 -1.5557  1.1191
 1061TIP3   OH224741   5.563   0.834   0.625 -0.1972 -0.0233  0.1010
 1061TIP3    H124742   5.560   0.758   0.685 -1.1225 -1.0364 -1.1569
 1061TIP3    H224743   5.648   0.874   0.641  0.1589 -1.0981  1.0883
 1062TIP3   OH224744   0.088   5.632   7.138 -0.5432  0.7987  0.0991
 1062TIP3    H124745   0.103   5.560   7.200 -1.0554  0.4256 -0.1977
 1062TIP3    H224746   0.066   5.588   7.056 -1.1726  1.2910 -0.0051
 1063TIP3   OH224747   3.714   0.808   1.273 -0.0175 -0.0629 -0.5731
 1063TIP3    H124748   3.687   0.818   1.181  1.4910 -1.4712 -1.2049
 1063TIP3    H224749   3.774   0.881   1.288  1.2860 -0.9475 -1.3441
 1064TIP3   OH224750   1.095   2.839   1.533  0.0886  0.8714  0.7677
 1064TIP3    H124751   1.105   2.782   1.457 -0.8767  0.1793  1.1329
 1064TIP3    H224752   1.024   2.799   1.583 -0.5558  2.3712  1.0806
 1065TIP3   OH224753   3.292   6.411   1.250 -0.0170  0.4400 -0.2050
 1065TIP3    H124754   3.277   6.480   1.186 -0.0108  0.7721  0.1515
 1065TIP3    H224755   3.220   6.420   1.313  0.0516  0.1988 -0.0902
 1066TIP3   OH224756   0.970   4.723   2.009  0.1068 -0.4840  0.4062
 1066TIP3    H124757   0.980   4.629   2.026  1.3502 -0.6272 -0.9769
 1066TIP3    H224758   1.059   4.758   2.011 -0.2607  0.5077  0.0029
 1067TIP3   OH224759   1.881   0.197   8.003 -0.2138  0.3631 -0.0123
 1067TIP3    H124760   1.920   0.278   7.971 -0.6954 -0.2511 -2.3258
 1067TIP3    H224761   1.805   0.182   7.946 -0.8267 -1.1109  1.1127
 1068TIP3   OH224762   5.186   1.100   7.982 -0.3851  0.1580 -0.4290
 1068TIP3    H124763   5.091   1.090   7.984 -0.1550 -3.9875 -0.9497
 1068TIP3    H224764   5.205   1.138   7.896 -1.5169  0.9721 -0.3394
 1069TIP3   OH224765   6.847   3.477   2.172  0.1837 -0.0075 -0.5162
 1069TIP3    H124766   6.763   3.519   2.188  0.3444  0.2072 -0.2310
 1069TIP3    H224767   6.909   3.549   2.162  0.3473 -0.1650 -0.6573
 1070TIP3   OH224768   1.671   3.004   1.493 -0.3127 -0.3898  0.4088
 1070TIP3    H124769   1.649   3.013   1.586 -2.5324  0.4179 -0.1210
 1070TIP3    H224770   1.615   3.068   1.449  1.3020 -0.1403 -1.4431
 1071TIP3   OH224771   1.521   6.277   8.348 -0.3847  0.1144  0.4865
 1071TIP3    H124772   1.613   6.273   8.321 -0.2958 -0.4786  0.8655
 1071TIP3    H224773   1.487   6.190   8.330 -1.3819  0.8321 -1.3522
 1072TIP3   OH224774   4.733   0.367   1.694 -0.3748  0.0498 -0.1957
 1072TIP3    H124775   4.813   0.366   1.747 -0.0724 -0.9053 -0.6378
 1072TIP3    H224776   4.666   0.402   1.752  0.6595  2.3308 -0.2880
 1073TIP3   OH224777   5.735   2.415   7.131 -0.4641  0.0124 -0.3783
 1073TIP3    H124778   5.745   2.438   7.038 -1.8330  0.6428 -0.4047
 1073TIP3    H224779   5.795   2.342   7.144  0.9420  0.9297 -1.3547
 1074TIP3   OH224780   5.088   4.103   7.036  0.3438 -0.2531  0.2339
 1074TIP3    H124781   5.167   4.137   7.079 -0.5062 -1.1168  2.6194
 1074TIP3    H224782   5.120   4.036   6.977  1.4483 -0.2466  0.7939
 1075TIP3   OH224783   4.183   5.804   8.136  0.0370 -0.2031  0.1529
 1075TIP3    H124784   4.246   5.734   8.119 -1.5020 -1.6796  0.2462
 1075TIP3    H224785   4.118   5.764   8.195 -1.7776  0.7461 -1.0892
 1076TIP3   OH224786   3.611   3.523   0.850 -0.3446 -0.0109 -0.0781
 1076TIP3    H124787   3.531   3.499   0.803  0.0932 -0.6814 -0.4993
 1076TIP3    H224788   3.661   3.442   0.856 -1.0440 -0.3268  2.9623
 1077TIP3   OH224789   0.165   4.606   6.787  0.2246 -0.1172  0.5959
 1077TIP3    H124790   0.247   4.594   6.836  0.2801 -0.4925  0.4171
 1077TIP3    H224791   0.102   4.551   6.832  0.6494 -1.7097 -0.6382
 1078TIP3   OH224792   0.874   1.343   0.801  0.1846 -0.3470 -0.4861
 1078TIP3    H124793   0.951   1.323   0.747  0.6709 -0.3054  0.1873
 1078TIP3    H224794   0.850   1.260   0.841  0.2304 -0.2426 -0.2413
 1079TIP3   OH224795   4.084   3.502   6.735  0.2544 -0.5421  0.4878
 1079TIP3    H124796   4.014   3.438   6.723 -0.0423 -0.3060  0.9425
 1079TIP3    H224797   4.164   3.453   6.715 -0.0316 -0.8219 -0.0092
 1080TIP3   OH224798   1.499   5.309   0.939 -0.3023  0.0622  0.4682
 1080TIP3    H124799   1.501   5.358   0.857 -0.2749 -0.5359  0.1085
 1080TIP3    H224800   1.516   5.375   1.006 -1.2874  0.7348  0.0846
 1081TIP3   OH224801   4.306   5.627   7.241  0.0259  0.0902 -0.9266
 1081TIP3    H124802   4.378   5.572   7.270  0.7732  2.0268  1.1487
 1081TIP3    H224803   4.227   5.579   7.266  0.6324 -0.4995 -0.1253
 1082TIP3   OH224804   3.011   1.172   8.059  0.9186  0.0636  0.5715
 1082TIP3    H124805   2.934   1.229   8.054  1.0810  0.2564  0.2929
 1082TIP3    H224806   2.975   1.084   8.053  0.8660  0.1830 -1.4910
 1083TIP3   OH224807   5.605   2.680   8.636  0.1985 -0.4858  0.1185
 1083TIP3    H124808   5.559   2.758   8.664  0.0566 -0.8542  0.9497
 1083TIP3    H224809   5.544   2.636   8.576 -0.7869 -1.2301  1.5970
 1084TIP3   OH224810   6.615   5.536   7.529  0.0066  0.2495  0.3498
 1084TIP3    H124811   6.598   5.541   7.435  0.4013  2.2550  0.3393
 1084TIP3    H224812   6.700   5.492   7.536  0.4584  0.9945 -0.3058
 1085TIP3   OH224813   6.810   6.678   1.384 -0.3371  0.1764  0.2161
 1085TIP3    H124814   6.764   6.652   1.304 -1.5118  0.1200  0.8941
 1085TIP3    H224815   6.858   6.757   1.359 -1.5045  0.7521 -0.2812
 1086TIP3   OH224816   6.868   5.113   0.509 -0.7269 -0.5768  0.2465
 1086TIP3    H124817   6.865   5.176   0.438  0.9522 -0.4263  0.2805
 1086TIP3    H224818   6.777   5.106   0.539 -1.2162  0.4399 -0.9480
 1087TIP3   OH224819   5.612   5.423   1.897 -0.3380  0.1812 -0.2689
 1087TIP3    H124820   5.689   5.438   1.841 -0.3178 -1.0549 -0.5997
 1087TIP3    H224821   5.639   5.353   1.956 -0.7033  0.7938  0.6551
 1088TIP3   OH224822   4.000   6.631   0.613 -0.6878 -0.2328  0.1204
 1088TIP3    H124823   3.933   6.612   0.679  1.2579  0.8306  2.5626
 1088TIP3    H224824   4.030   6.719   0.634  3.1580 -1.5209  0.7987
 1089TIP3   OH224825   5.694   2.660   7.912 -0.2931 -0.0767 -0.1035
 1089TIP3    H124826   5.617   2.649   7.856  0.9558 -1.0676 -1.7084
 1089TIP3    H224827   5.659   2.659   8.001 -1.9935 -2.1256 -0.7169
 1090TIP3   OH224828   6.686   0.307   7.488  0.2568 -0.4788  0.3040
 1090TIP3    H124829   6.773   0.343   7.475  0.9641 -2.0916  0.3826
 1090TIP3    H224830   6.627   0.377   7.461  1.5834  0.2768 -0.7556
 1091TIP3   OH224831   1.950   3.263   8.403  0.0695  0.0807  0.4847
 1091TIP3    H124832   1.946   3.358   8.416  1.4289  0.1576  0.4624
 1091TIP3    H224833   1.984   3.229   8.486  0.3148 -0.3029  0.2273
 1092TIP3   OH224834   3.573   4.389   2.591  0.4549  0.1361  0.1636
 1092TIP3    H124835   3.496   4.444   2.577  0.7038  0.2495 -0.8878
 1092TIP3    H224836   3.538   4.304   2.615 -0.1180 -0.3785 -2.2212
 1093TIP3   OH224837   4.821   4.643   7.136  0.2258  0.0574  0.5080
 1093TIP3    H124838   4.836   4.548   7.136  1.5713  0.2467  1.1687
 1093TIP3    H224839   4.878   4.676   7.067 -0.4487  0.3751  0.0893
 1094TIP3   OH224840   1.023   1.866   2.243  0.5646  0.1144  0.0993
 1094TIP3    H124841   0.955   1.831   2.300 -0.3432  3.5441  1.3620
 1094TIP3    H224842   1.104   1.855   2.294  0.4040 -0.5153  0.2339
 1095TIP3   OH224843   4.385   0.042   1.363  0.4120  0.0955  0.2212
 1095TIP3    H124844   4.444  -0.028   1.392  0.2249  0.4966  1.6077
 1095TIP3    H224845   4.300  -0.001   1.353  1.1499 -0.8811 -3.4147
 1096TIP3   OH224846   1.109   3.396   6.396 -0.1800 -0.1209  0.2305
 1096TIP3    H124847   1.021   3.401   6.432 -0.2036 -0.5338  0.2383
 1096TIP3    H224848   1.102   3.335   6.323  0.1059 -0.1867  0.2555
 1097TIP3   OH224849   1.255   2.281   0.982  0.4810 -0.1947 -0.3302
 1097TIP3    H124850   1.190   2.246   1.043  0.0744  0.2843 -0.4882
 1097TIP3    H224851   1.300   2.204   0.948  0.7899 -0.4614  0.6612
 1098TIP3   OH224852   5.380   3.420   7.139  0.0920  0.3001  0.0424
 1098TIP3    H124853   5.387   3.334   7.097 -0.0532  1.0029 -1.4838
 1098TIP3    H224854   5.467   3.458   7.130  0.0422  0.4794  0.3200
 1099TIP3   OH224855   4.022   1.367   0.207 -0.3064  0.1242  0.3410
 1099TIP3    H124856   4.111   1.396   0.186 -0.3697  0.1516  0.0975
 1099TIP3    H224857   4.020   1.276   0.178 -0.7487  0.4951 -0.8856
 1100TIP3   OH224858   6.398   1.238   1.986  0.6306 -0.2890  0.5947
 1100TIP3    H124859   6.347   1.286   2.051 -1.0089 -1.2612  0.0945
 1100TIP3    H224860   6.367   1.271   1.902  1.2973 -0.4562  0.2758
 1101TIP3   OH224861   1.643   3.889   1.279 -0.1093 -0.7376  0.1492
 1101TIP3    H124862   1.578   3.957   1.297 -0.1668 -0.8156  0.2369
 1101TIP3    H224863   1.623   3.859   1.190 -0.5942 -1.2050  0.4083
 1102TIP3   OH224864   1.691   3.214   8.528 -0.6401 -0.7622  0.0759
 1102TIP3    H124865   1.758   3.241   8.466 -0.0186 -0.4287  0.8746
 1102TIP3    H224866   1.620   3.179   8.474  0.2366 -1.2595 -0.7739
 1103TIP3   OH224867   1.469   6.676   7.386 -0.1348  0.2835  0.0827
 1103TIP3    H124868   1.461   6.643   7.475  2.0716  0.1490  0.2765
 1103TIP3    H224869   1.453   6.599   7.330  0.1209 -0.0046  0.4058
 1104TIP3   OH224870   4.964   1.106   0.424  0.1613  0.2773  0.5193
 1104TIP3    H124871   5.047   1.150   0.404 -0.0552  0.8701  0.8919
 1104TIP3    H224872   4.967   1.025   0.373  0.1263  1.1839 -1.0057
 1105TIP3   OH224873   3.314   6.273   0.562  0.6109 -0.0292  0.2595
 1105TIP3    H124874   3.336   6.181   0.547 -1.0946 -0.4405  0.0514
 1105TIP3    H224875   3.233   6.287   0.512  1.0674  1.7157 -0.0621
 1106TIP3   OH224876   6.576   1.363   6.631 -0.6415  1.1856  0.3490
 1106TIP3    H124877   6.514   1.373   6.559  0.2967 -0.1644 -0.7011
 1106TIP3    H224878   6.619   1.448   6.639  0.3735  0.9326 -1.7991
 1107TIP3   OH224879   0.592   3.696   7.896  0.7348  0.0935  0.5118
 1107TIP3    H124880   0.540   3.627   7.936  1.8318 -0.7587  0.5231
 1107TIP3    H224881   0.571   3.774   7.946 -1.3073  0.0176 -0.1576
 1108TIP3   OH224882   0.252   4.898   1.549  0.4662  0.0715 -0.0453
 1108TIP3    H124883   0.276   4.807   1.538  2.0446  0.1513  2.0878
 1108TIP3    H224884   0.330   4.948   1.525  0.3727  0.7181  0.9134
 1109TIP3   OH224885   3.469   0.009   0.490 -0.3755 -0.1510 -0.2946
 1109TIP3    H124886   3.443   0.097   0.463 -0.7471  1.2488  3.8335
 1109TIP3    H224887   3.552  -0.007   0.446 -0.4527  2.1021 -1.3872
 1110TIP3   OH224888   3.121   4.545   8.057  0.2946 -0.1448  0.3858
 1110TIP3    H124889   3.058   4.616   8.043  0.0694  0.3015  3.1264
 1110TIP3    H224890   3.201   4.589   8.085  0.7670 -0.8961  0.2619
 1111TIP3   OH224891   1.487   2.378   8.140 -0.2676 -0.2740  0.1702
 1111TIP3    H124892   1.505   2.426   8.059  0.7065 -0.5984  0.1855
 1111TIP3    H224893   1.412   2.323   8.118 -1.1417  0.9224  0.0318
 1112TIP3   OH224894   4.976   3.771   2.369 -0.5691  0.1164  0.7009
 1112TIP3    H124895   4.920   3.841   2.338 -0.9814 -0.8338 -0.8172
 1112TIP3    H224896   4.965   3.701   2.305  2.6680  0.0084  0.0654
 1113TIP3   OH224897   1.699   6.803   7.712  0.1306  0.5779  1.1001
 1113TIP3    H124898   1.689   6.711   7.687  0.7620  1.1328 -1.5239
 1113TIP3    H224899   1.762   6.801   7.785 -1.0353 -1.1225  2.1322
 1114TIP3   OH224900   5.922   5.959   0.740  0.3056 -0.5978 -0.2151
 1114TIP3    H124901   5.886   6.044   0.766 -0.6653 -0.7623 -0.9486
 1114TIP3    H224902   5.846   5.902   0.735  0.4846 -0.7214 -2.7987
 1115TIP3   OH224903   5.430   2.812   0.330 -0.8501  0.3758  0.0518
 1115TIP3    H124904   5.344   2.817   0.372 -0.9661  0.3050 -0.1731
 1115TIP3    H224905   5.493   2.822   0.402 -1.0459  0.5328  0.2023
 1116TIP3   OH224906   2.875   5.647   0.876  0.2197 -0.8100 -0.4447
 1116TIP3    H124907   2.793   5.601   0.894  0.0249  0.1573  1.3700
 1116TIP3    H224908   2.943   5.582   0.890 -0.1342 -0.9859  0.5351
 1117TIP3   OH224909   6.370   3.433   8.552 -0.2442 -0.7391  0.0635
 1117TIP3    H124910   6.377   3.508   8.612  0.1178 -0.0378 -0.8267
 1117TIP3    H224911   6.316   3.466   8.480  0.3759 -1.1583 -0.6043
 1118TIP3   OH224912   3.766   3.250   1.114  0.0578 -0.4531 -0.1877
 1118TIP3    H124913   3.824   3.190   1.068 -0.7793 -0.3775 -1.3995
 1118TIP3    H224914   3.800   3.337   1.093  1.6786 -0.4449  2.1161
 1119TIP3   OH224915   4.102   4.541   1.281 -0.0486 -0.0670  0.1735
 1119TIP3    H124916   4.191   4.575   1.267  0.2437 -1.0030 -0.2749
 1119TIP3    H224917   4.045   4.611   1.249  0.5574 -0.5793 -2.2377
 1120TIP3   OH224918   3.814   2.099   8.360  0.4469 -0.0891 -0.3784
 1120TIP3    H124919   3.764   2.172   8.399 -0.4414 -1.3644  0.9942
 1120TIP3    H224920   3.804   2.110   8.266 -0.1353  1.2435 -0.1830
 1121TIP3   OH224921   2.613   2.739   7.476 -0.4715 -0.4308 -0.1715
 1121TIP3    H124922   2.616   2.643   7.480 -0.7738 -0.5176 -1.5511
 1121TIP3    H224923   2.698   2.767   7.509 -0.1004 -1.2059 -0.4347
 1122TIP3   OH224924   1.231   6.343   1.103 -0.2148  0.1839  0.4901
 1122TIP3    H124925   1.226   6.284   1.028  0.2025  0.5009  0.2069
 1122TIP3    H224926   1.224   6.431   1.065  1.3005  0.4129  0.6614
 1123TIP3   OH224927   3.073   6.642   1.543  0.0248  0.0212 -1.0022
 1123TIP3    H124928   3.092   6.552   1.515  2.8526  0.6045 -1.2521
 1123TIP3    H224929   3.092   6.695   1.465 -1.5998  0.8839 -0.8528
 1124TIP3   OH224930   2.862   4.416   7.020  0.0752  0.2164  0.2194
 1124TIP3    H124931   2.945   4.453   6.990 -0.0767  0.3920  0.0168
 1124TIP3    H224932   2.864   4.325   6.989  0.2218  0.1989  0.2767
 1125TIP3   OH224933   3.422   3.349   0.657 -0.4674 -0.5015  0.2971
 1125TIP3    H124934   3.418   3.344   0.561 -1.2622  0.0372  0.2942
 1125TIP3    H224935   3.394   3.438   0.677 -0.8908 -0.8031  1.0639
 1126TIP3   OH224936   6.509   3.396   0.151 -0.7141 -0.6415 -0.5599
 1126TIP3    H124937   6.453   3.360   0.083  0.7653 -4.6078 -0.0176
 1126TIP3    H224938   6.584   3.336   0.154  0.6225  0.9094  2.6918
 1127TIP3   OH224939   4.230   3.011   1.763  0.1301  0.3452 -0.1044
 1127TIP3    H124940   4.252   2.988   1.854 -1.0761  2.6984  0.8689
 1127TIP3    H224941   4.314   3.012   1.718  0.8246 -0.4264  1.1001
 1128TIP3   OH224942   5.286   6.403   1.390 -0.4581  0.1110 -0.2286
 1128TIP3    H124943   5.272   6.346   1.465  2.0962 -1.5041 -0.8475
 1128TIP3    H224944   5.372   6.442   1.405 -1.1380  2.0155 -0.9788
 1129TIP3   OH224945   6.597   2.849   0.414  0.8895 -0.0929 -0.9153
 1129TIP3    H124946   6.674   2.793   0.422  1.4212  0.4906 -1.8510
 1129TIP3    H224947   6.632   2.937   0.405  0.0675  0.7139  2.2604
 1130TIP3   OH224948   0.857   1.332   8.040  0.0222  0.0396  0.7142
 1130TIP3    H124949   0.924   1.324   7.972 -1.6621  1.2275 -1.1919
 1130TIP3    H224950   0.851   1.244   8.078  1.5645 -0.4569 -0.0765
 1131TIP3   OH224951   2.179   4.782   7.323 -1.4791  0.3280 -0.1690
 1131TIP3    H124952   2.089   4.804   7.346 -1.4855  2.3229 -1.8769
 1131TIP3    H224953   2.173   4.746   7.235 -0.5389  1.3142 -0.6579
 1132TIP3   OH224954   5.130   2.062   1.309  0.3899 -0.4398 -0.6801
 1132TIP3    H124955   5.066   2.083   1.241  1.0274  0.0172 -1.1423
 1132TIP3    H224956   5.211   2.045   1.262  0.5009 -1.5147 -0.1284
 1133TIP3   OH224957   4.095   6.257   1.336  0.2165 -0.1707  0.9788
 1133TIP3    H124958   4.061   6.344   1.316 -1.9622 -1.2328 -0.3332
 1133TIP3    H224959   4.018   6.201   1.337  1.7891 -2.6806 -1.6050
 1134TIP3   OH224960   2.975   3.831   8.124  0.7195 -0.0544  0.2169
 1134TIP3    H124961   3.054   3.807   8.077  1.5003  0.3654  1.2803
 1134TIP3    H224962   2.918   3.869   8.057  1.0386 -1.1898 -0.7269
 1135TIP3   OH224963   3.702   6.603   8.223 -0.0770  0.7645  0.3968
 1135TIP3    H124964   3.703   6.515   8.186  1.4454 -0.9357  4.0136
 1135TIP3    H224965   3.629   6.603   8.285 -0.3875  2.2689  0.0672
 1136TIP3   OH224966   5.296   3.171   1.509 -0.0866 -0.1283  0.1784
 1136TIP3    H124967   5.261   3.125   1.432 -0.1276  1.2592 -0.6806
 1136TIP3    H224968   5.335   3.103   1.563  1.0872 -1.0246 -1.7094
 1137TIP3   OH224969   2.544   6.438   6.659  0.3999  0.0117  0.0484
 1137TIP3    H124970   2.532   6.450   6.565 -0.5973  2.0091  0.3786
 1137TIP3    H224971   2.485   6.366   6.682  0.9194 -0.7294 -0.8953
 1138TIP3   OH224972   5.328   4.360   0.258 -0.2133  0.5589  0.1828
 1138TIP3    H124973   5.261   4.428   0.271  0.2359  0.9086  0.7109
 1138TIP3    H224974   5.296   4.285   0.307 -0.7070  0.3818 -0.3910
 1139TIP3   OH224975   2.000   0.353   8.533 -0.3242 -0.6468  0.3058
 1139TIP3    H124976   1.916   0.390   8.505  0.4518  0.6740 -0.3336
 1139TIP3    H224977   1.986   0.332   8.626 -1.6171 -1.2384  0.0025
 1140TIP3   OH224978   4.528   3.719   0.001  0.3707 -0.0570  0.2755
 1140TIP3    H124979   4.491   3.782   0.062 -3.2014  0.1989 -1.8726
 1140TIP3    H224980   4.540   3.767  -0.081  2.6744 -0.9562  0.0084
 1141TIP3   OH224981   4.599   6.171   8.002  0.1487 -0.1069 -0.2918
 1141TIP3    H124982   4.559   6.155   8.087 -0.3387  0.8451 -0.3281
 1141TIP3    H224983   4.544   6.124   7.940  1.0968 -1.6701 -0.0002
 1142TIP3   OH224984   0.704   1.850   7.665 -0.1941 -0.1322 -0.0935
 1142TIP3    H124985   0.762   1.877   7.594  0.6025 -0.0430  0.5841
 1142TIP3    H224986   0.620   1.833   7.622  0.0310  0.7721 -0.9335
 1143TIP3   OH224987   0.374   5.838   7.349  0.4566  1.0123  0.0047
 1143TIP3    H124988   0.373   5.787   7.430 -0.3153 -0.0213 -0.6422
 1143TIP3    H224989   0.417   5.920   7.374 -0.0625  0.8577  1.5377
 1144TIP3   OH224990   0.350   4.554   6.959  0.1677 -0.2231  1.1815
 1144TIP3    H124991   0.424   4.498   6.936 -0.8176 -1.6389  1.2827
 1144TIP3    H224992   0.305   4.506   7.029 -2.4675 -0.9309 -0.8113
 1145TIP3   OH224993   2.920   6.049   7.760 -0.1461  0.0633  0.3120
 1145TIP3    H124994   2.833   6.083   7.781 -1.4402 -1.8931 -1.4704
 1145TIP3    H224995   2.918   5.958   7.787  0.0657 -0.9849 -2.7838
 1146TIP3   OH224996   4.016   1.035   0.136 -0.6049 -0.6690 -0.2135
 1146TIP3    H124997   4.050   0.961   0.086  0.7808 -0.0009 -0.3011
 1146TIP3    H224998   3.943   1.067   0.084 -0.4486 -1.2271 -0.7878
 1147TIP3   OH224999   2.101   4.400   7.041  0.0475  0.2144 -0.6028
 1147TIP3    H125000   2.029   4.377   7.100 -0.1191  1.2052 -0.4011
 1147TIP3    H225001   2.082   4.352   6.961 -0.3239 -0.2829 -0.2192
 1148TIP3   OH225002   1.547   3.925   7.209 -0.4577  0.1676  0.2811
 1148TIP3    H125003   1.542   3.890   7.298  2.0929  0.1482  0.4780
 1148TIP3    H225004   1.607   3.999   7.216  1.6924 -1.2709 -1.7844
 1149TIP3   OH225005   5.498   5.881   7.528 -0.4352 -0.0246 -0.3892
 1149TIP3    H125006   5.437   5.863   7.456  0.6810  2.4683 -2.0840
 1149TIP3    H225007   5.466   5.962   7.567 -0.2094 -0.6036  1.0529
 1150TIP3   OH225008   3.019   5.501   7.686 -0.1518 -0.7155 -0.2612
 1150TIP3    H125009   3.070   5.441   7.631  2.1618 -0.8336  1.8180
 1150TIP3    H225010   2.949   5.446   7.722  1.1214 -1.8856  0.5402
 1151TIP3   OH225011   6.233   0.916   0.559  0.5644  0.6619 -0.9233
 1151TIP3    H125012   6.216   0.951   0.472 -1.7143  0.1394 -0.7554
 1151TIP3    H225013   6.217   0.822   0.551  0.2654  0.6151  0.0482
 1152TIP3   OH225014   2.029   5.049   8.313 -0.5036  0.3184  0.4383
 1152TIP3    H125015   2.014   5.045   8.218  0.0542 -0.8399  0.3745
 1152TIP3    H225016   2.043   5.142   8.331  0.3588  0.4520 -0.7807
 1153TIP3   OH225017   3.226   3.430   6.577  0.0803 -0.3260  0.0051
 1153TIP3    H125018   3.216   3.393   6.665 -0.6970 -0.2843 -0.0636
 1153TIP3    H225019   3.152   3.397   6.527 -1.1615  1.9490  0.1758
 1154TIP3   OH225020   4.389   1.919   8.183  0.1334  0.2860 -0.3140
 1154TIP3    H125021   4.403   1.970   8.263 -1.0673 -0.5854  0.5111
 1154TIP3    H225022   4.375   1.984   8.115  2.0280  1.0561 -0.0028
 1155TIP3   OH225023   1.044   6.873   7.179  0.2157 -0.6251 -0.2692
 1155TIP3    H125024   1.068   6.799   7.124 -0.9414 -1.6119  0.5052
 1155TIP3    H225025   1.110   6.940   7.160  0.9622 -1.6464 -1.3860
 1156TIP3   OH225026   5.531   5.462   6.741  0.5073 -0.0887  0.1285
 1156TIP3    H125027   5.566   5.468   6.651  0.4587  0.4343  0.1392
 1156TIP3    H225028   5.518   5.369   6.755  1.0930 -0.2254 -0.1917
 1157TIP3   OH225029   3.301   5.937   0.240 -0.2425  0.2174 -0.1786
 1157TIP3    H125030   3.208   5.957   0.228 -0.6746 -0.3647  1.7884
 1157TIP3    H225031   3.311   5.848   0.206 -0.3612  0.3528 -0.5698
 1158TIP3   OH225032   2.348   5.218   7.320 -0.2288 -0.7810 -0.5954
 1158TIP3    H125033   2.352   5.312   7.334  0.2991 -0.9051  0.1428
 1158TIP3    H225034   2.261   5.202   7.284 -0.5191 -0.0819 -0.2023
 1159TIP3   OH225035   3.689   5.967   6.515  0.0832 -0.7579  0.1927
 1159TIP3    H125036   3.767   6.019   6.537 -0.2906 -0.7980  1.7623
 1159TIP3    H225037   3.701   5.944   6.423 -0.3169  3.1454 -1.0352
 1160TIP3   OH225038   6.882   0.709   7.986  0.3327 -0.0929  0.3977
 1160TIP3    H125039   6.954   0.648   7.996  0.0548 -0.4243  0.3926
 1160TIP3    H225040   6.817   0.661   7.934  0.6428  0.6453 -0.7119
 1161TIP3   OH225041   5.548   1.028   1.679  0.0696  0.8259  0.0335
 1161TIP3    H125042   5.550   0.947   1.730  1.7554  1.0417  0.3691
 1161TIP3    H225043   5.605   1.088   1.728  1.7942  1.0287 -2.0969
 1162TIP3   OH225044   1.377   2.647   7.161  0.0710  0.0766  0.8688
 1162TIP3    H125045   1.469   2.666   7.143  0.0292 -0.3139  0.2235
 1162TIP3    H225046   1.369   2.552   7.148 -0.9241  0.4229 -1.4460
 1163TIP3   OH225047   2.747   0.392   6.869 -0.1624  0.1343 -0.5491
 1163TIP3    H125048   2.802   0.415   6.794 -0.2983  0.8975 -0.4167
 1163TIP3    H225049   2.741   0.296   6.865  3.3126 -0.3044  0.8861
 1164TIP3   OH225050   6.851   1.712   7.667  0.5630 -0.1313  0.0350
 1164TIP3    H125051   6.797   1.759   7.730  0.2094 -1.7224  0.9710
 1164TIP3    H225052   6.925   1.771   7.650  0.3494  0.6006  1.4669
 1165TIP3   OH225053   0.596   2.526   1.523  0.4071  0.1785  0.1107
 1165TIP3    H125054   0.542   2.511   1.601  1.4919  0.3367  0.9265
 1165TIP3    H225055   0.641   2.443   1.509  0.3900  0.2230 -0.2056
 1166TIP3   OH225056   4.925   4.844   1.410  0.3477 -0.3039  0.5906
 1166TIP3    H125057   4.980   4.841   1.488  3.0821 -1.6197 -1.2652
 1166TIP3    H225058   4.937   4.933   1.376  0.7085 -0.3496  0.6012
 1167TIP3   OH225059   4.282   2.786   1.381  0.3269 -0.2324  0.2683
 1167TIP3    H125060   4.261   2.695   1.402 -2.1298  0.3206  0.5233
 1167TIP3    H225061   4.226   2.808   1.307 -1.7264  1.9546  2.2565
 1168TIP3   OH225062   5.671   3.866   1.956 -0.1559  0.0190  0.0159
 1168TIP3    H125063   5.697   3.953   1.987  2.3817 -1.0212  1.0577
 1168TIP3    H225064   5.600   3.841   2.014  0.7452  0.4370  1.3606
 1169TIP3   OH225065   3.807   0.611   1.012  0.0363 -0.5947 -0.7153
 1169TIP3    H125066   3.773   0.681   0.956  0.8383 -0.5501 -1.1667
 1169TIP3    H225067   3.731   0.579   1.060 -0.5975 -0.3702 -1.5504
 1170TIP3   OH225068   5.627   2.345   2.051  0.0423  0.0271 -0.9088
 1170TIP3    H125069   5.721   2.364   2.058  0.3809 -1.7133 -0.2329
 1170TIP3    H225070   5.616   2.263   2.099 -2.1268  1.0269  0.4319
 1171TIP3   OH225071   3.655   1.189   7.857  0.2206 -0.4310  0.2655
 1171TIP3    H125072   3.735   1.143   7.833 -1.7875 -4.5686  0.5972
 1171TIP3    H225073   3.597   1.178   7.782 -1.6345 -1.9450  1.7974
 1172TIP3   OH225074   5.862   2.832   0.343 -0.0594 -0.0944 -0.1415
 1172TIP3    H125075   5.811   2.900   0.298 -0.3109 -0.8748 -1.0685
 1172TIP3    H225076   5.808   2.808   0.419  0.4680  1.3817  0.7373
 1173TIP3   OH225077   4.877   2.824   2.003  0.0429  0.2489  0.8114
 1173TIP3    H125078   4.961   2.785   2.024 -0.9933 -2.0394  1.0345
 1173TIP3    H225079   4.820   2.799   2.076 -1.0990  0.8114  0.1461
 1174TIP3   OH225080   5.253   2.358   8.645  0.8911 -0.5904 -0.0954
 1174TIP3    H125081   5.179   2.363   8.583  0.3054  0.1545  0.6337
 1174TIP3    H225082   5.220   2.400   8.724  2.0885 -0.2898  0.2648
 1175TIP3   OH225083   3.094   6.800   7.464  0.3975 -0.3726 -0.2682
 1175TIP3    H125084   3.018   6.819   7.410  0.5491  0.5430 -0.1671
 1175TIP3    H225085   3.169   6.818   7.408  0.5508  0.2328  0.1159
 1176TIP3   OH225086   4.765   5.083   6.824 -0.0371  0.0331  0.1408
 1176TIP3    H125087   4.805   5.168   6.807  0.8439 -0.8350 -2.5104
 1176TIP3    H225088   4.835   5.032   6.865  0.4210 -0.3139 -1.0370
 1177TIP3   OH225089   0.861   1.213   6.662  0.0588  0.0754  0.0241
 1177TIP3    H125090   0.797   1.142   6.670 -2.2569  1.9886 -0.2615
 1177TIP3    H225091   0.820   1.275   6.603  1.7308  1.9297  0.7099
 1178TIP3   OH225092   6.122   2.691   0.109 -0.1374 -0.1898  0.1821
 1178TIP3    H125093   6.038   2.712   0.068  0.2187 -2.6871 -2.0828
 1178TIP3    H225094   6.166   2.776   0.118 -1.4078  0.7933 -2.0999
 1179TIP3   OH225095   1.531   2.675   7.806 -0.1490 -0.5286  0.3019
 1179TIP3    H125096   1.484   2.596   7.782 -0.7725 -0.8856  2.5070
 1179TIP3    H225097   1.470   2.724   7.862  0.6919  0.8994  0.0419
 1180TIP3   OH225098   0.811   6.165   0.253 -0.1999  0.4553 -0.1789
 1180TIP3    H125099   0.863   6.085   0.256  0.1546  0.6999  1.2677
 1180TIP3    H225100   0.777   6.169   0.164  0.8848 -0.5862 -0.6639
 1181TIP3   OH225101   5.075   4.535   0.821  0.2188  0.0464  0.1226
 1181TIP3    H125102   5.166   4.506   0.824  0.1436 -0.2687 -0.4800
 1181TIP3    H225103   5.030   4.480   0.884 -0.0485 -1.6660 -1.4596
 1182TIP3   OH225104   6.260   2.987   1.890 -0.3321  0.3555 -0.0990
 1182TIP3    H125105   6.219   2.904   1.914  0.0746 -0.5471 -2.2294
 1182TIP3    H225106   6.353   2.967   1.881  0.0978  1.5610  1.3534
 1183TIP3   OH225107   0.140   5.876   7.227  0.4090  0.6975  0.0598
 1183TIP3    H125108   0.227   5.854   7.260 -0.0449  0.4894  1.1607
 1183TIP3    H225109   0.111   5.797   7.181  0.0491  0.0736  1.3203
 1184TIP3   OH225110   4.935   4.943   8.294 -0.4185  0.3443 -0.3423
 1184TIP3    H125111   4.943   5.001   8.218 -0.0476 -0.5051 -0.9666
 1184TIP3    H225112   4.888   4.866   8.261  0.4230 -0.3676  0.0926
 1185TIP3   OH225113   5.461   0.961   0.912 -0.1263  0.4432  0.6164
 1185TIP3    H125114   5.554   0.947   0.931 -0.5308 -1.9116  1.2668
 1185TIP3    H225115   5.426   0.872   0.901 -2.0393  1.3269 -0.9628
 1186TIP3   OH225116   0.698   4.933   0.025  0.1592 -0.4225 -0.1293
 1186TIP3    H125117   0.670   4.856   0.075 -1.0027 -0.6941 -1.1395
 1186TIP3    H225118   0.775   4.966   0.072 -1.7303  0.2544  2.7300
 1187TIP3   OH225119   6.841   2.965   1.320 -0.2217  0.3083  0.0973
 1187TIP3    H125120   6.906   2.909   1.277  1.4027  2.0886  0.1188
 1187TIP3    H225121   6.824   2.921   1.403 -2.0084 -2.1936 -1.4493
 1188TIP3   OH225122   3.963   6.437   7.944  0.4762 -0.1718  0.3433
 1188TIP3    H125123   3.886   6.486   7.973  1.9309  1.7353  1.2437
 1188TIP3    H225124   4.026   6.505   7.917  0.8799 -1.7070 -3.1175
 1189TIP3   OH225125   4.543   4.977   6.445  0.7763  0.3036 -0.3427
 1189TIP3    H125126   4.449   4.968   6.457  0.9675 -0.6250  0.6079
 1189TIP3    H225127   4.555   5.066   6.412 -0.3168  0.9855  0.9850
 1190TIP3   OH225128   4.469   1.300   8.224 -0.0561  0.2416  0.3839
 1190TIP3    H125129   4.523   1.251   8.286 -1.2499 -1.7396 -0.0438
 1190TIP3    H225130   4.531   1.357   8.178  1.1234  0.4011  2.0749
 1191TIP3   OH225131   5.476   3.626   1.001 -0.3585 -0.3907 -0.6713
 1191TIP3    H125132   5.407   3.676   1.045  0.3309 -0.2707  0.3031
 1191TIP3    H225133   5.533   3.693   0.964 -0.0143 -0.4701 -0.2849
 1192TIP3   OH225134   4.595   6.550   0.316 -0.4669 -0.3950  0.2524
 1192TIP3    H125135   4.552   6.611   0.377  1.8576  0.0603  1.5296
 1192TIP3    H225136   4.550   6.467   0.332 -1.9391  0.3831  0.3675
 1193TIP3   OH225137   4.107   6.289   8.436  0.1802 -0.1819  0.5848
 1193TIP3    H125138   4.029   6.342   8.424 -0.0238 -0.9591 -2.1294
 1193TIP3    H225139   4.076   6.199   8.430  1.1804 -0.5192  0.2248
 1194TIP3   OH225140   4.869   4.933   1.147 -1.2582 -0.5682 -0.5385
 1194TIP3    H125141   4.906   4.867   1.207 -1.6990  1.7178  2.4846
 1194TIP3    H225142   4.776   4.910   1.141 -0.7358 -2.5221 -2.9238
 1195TIP3   OH225143   2.501   5.416   0.783 -0.0340  0.0568  0.1982
 1195TIP3    H125144   2.579   5.423   0.727  1.3551  1.3298  2.1636
 1195TIP3    H225145   2.494   5.323   0.802  0.3647 -0.2063 -0.8471
 1196TIP3   OH225146   3.153   6.015   7.296 -0.1745 -0.8375  0.1871
 1196TIP3    H125147   3.086   6.060   7.244 -1.2357 -0.2151  2.0186
 1196TIP3    H225148   3.223   6.080   7.306 -0.5693 -0.4689  0.6469
 1197TIP3   OH225149   3.189   3.231   7.443  0.1148  0.5776  0.5007
 1197TIP3    H125150   3.124   3.167   7.474  0.5539  0.3687  1.0016
 1197TIP3    H225151   3.136   3.303   7.407 -0.4225 -0.9021 -1.9273
 1198TIP3   OH225152   1.078   6.378   8.187 -0.2621 -0.5153  0.0589
 1198TIP3    H125153   1.033   6.363   8.270  1.0901 -2.1794  0.5464
 1198TIP3    H225154   1.163   6.413   8.213  0.2829 -1.3267 -0.5814
 1199TIP3   OH225155   3.611   0.519   6.353 -0.3761  0.8381  0.1163
 1199TIP3    H125156   3.540   0.502   6.415  0.5871 -0.3290  0.9679
 1199TIP3    H225157   3.658   0.593   6.391 -0.3292  0.7119  0.3107
 1200TIP3   OH225158   2.156   1.153   0.638 -0.0897  0.0942  0.4344
 1200TIP3    H125159   2.243   1.125   0.665  0.1992  0.3425 -0.2138
 1200TIP3    H225160   2.136   1.099   0.562  0.5841  1.7560 -0.9931
 1201TIP3   OH225161   2.583   0.378   1.056  0.4631 -0.5847 -0.0394
 1201TIP3    H125162   2.606   0.406   1.145 -0.5857  1.6999 -0.4075
 1201TIP3    H225163   2.515   0.312   1.069 -0.8056  0.8301  0.9088
 1202TIP3   OH225164   6.066   3.547   0.479  0.0788 -0.2011  0.1812
 1202TIP3    H125165   6.077   3.456   0.506  0.4747 -0.4610 -0.7997
 1202TIP3    H225166   5.974   3.553   0.454  0.9867 -1.7543 -4.4711
 1203TIP3   OH225167   1.219   5.791   7.505 -0.3768 -0.3076  0.2711
 1203TIP3    H125168   1.279   5.730   7.462  1.0977  0.2384  1.4727
 1203TIP3    H225169   1.233   5.874   7.459 -0.8230 -0.3711  0.0182
 1204TIP3   OH225170   2.206   5.958   7.378 -0.1297  0.1423  0.6009
 1204TIP3    H125171   2.238   6.033   7.328  1.8648 -0.6274  0.6148
 1204TIP3    H225172   2.150   5.910   7.318 -0.6843  1.1456  0.2999
 1205TIP3   OH225173   6.879   1.728   8.018 -0.0647  0.1712  0.2476
 1205TIP3    H125174   6.802   1.679   7.988  0.1943 -0.8933  1.2188
 1205TIP3    H225175   6.943   1.660   8.040  1.5128  1.0592 -1.3999
 1206TIP3   OH225176   0.224   4.918   7.654  0.3517  0.1782  0.1047
 1206TIP3    H125177   0.278   4.993   7.678  3.6250 -1.6197 -1.0044
 1206TIP3    H225178   0.244   4.903   7.561 -1.5239 -1.0797 -0.1550
 1207TIP3   OH225179   4.615   3.378   6.676  1.1495 -0.2332  0.0129
 1207TIP3    H125180   4.649   3.414   6.594 -1.2401 -1.0007 -1.4575
 1207TIP3    H225181   4.646   3.437   6.744  2.2652  1.1222 -1.5882
 1208TIP3   OH225182   6.694   0.539   6.643 -0.6268 -0.0215 -0.1650
 1208TIP3    H125183   6.617   0.523   6.588 -1.4382 -1.4343  1.2924
 1208TIP3    H225184   6.756   0.471   6.617 -0.3655  0.3243 -0.4527
 1209TIP3   OH225185   3.280   4.418   0.190 -0.4778 -0.0246  0.3756
 1209TIP3    H125186   3.195   4.451   0.162 -1.6901 -2.2072  1.1968
 1209TIP3    H225187   3.319   4.379   0.112 -1.0665 -0.5918  0.3545
 1210TIP3   OH225188   3.093   6.018   6.868  0.2325  0.6390  0.4106
 1210TIP3    H125189   3.070   6.048   6.956 -1.2250 -1.5108  0.8482
 1210TIP3    H225190   3.029   5.949   6.849 -0.5996  2.1149 -3.0190
 1211TIP3   OH225191   1.194   6.491   7.427  0.4912 -0.2141 -0.1167
 1211TIP3    H125192   1.246   6.445   7.493 -0.5629 -0.8801  0.2719
 1211TIP3    H225193   1.184   6.579   7.462  0.2238 -0.4668  0.4676
 1212TIP3   OH225194   3.362   0.708   8.616  0.5549 -0.0925  0.2200
 1212TIP3    H125195   3.351   0.617   8.644  0.4002 -0.1453 -0.0065
 1212TIP3    H225196   3.450   0.732   8.644  1.2784 -0.8810 -1.2647
 1213TIP3   OH225197   6.310   3.819   0.218  0.6783 -0.3090 -0.2603
 1213TIP3    H125198   6.392   3.862   0.241 -0.0098  1.2000 -0.4906
 1213TIP3    H225199   6.322   3.728   0.244  1.2429  0.5298  2.7550
 1214TIP3   OH225200   4.124   0.623   1.276  0.0095  0.2502  0.0533
 1214TIP3    H125201   4.029   0.608   1.274 -0.2021  1.4846  0.1739
 1214TIP3    H225202   4.154   0.573   1.352 -0.6812  0.5317  0.5287
 1215TIP3   OH225203   0.979   0.353   8.140 -0.1665 -0.1886  0.3005
 1215TIP3    H125204   0.942   0.299   8.210 -0.1132 -0.4591  0.1247
 1215TIP3    H225205   0.928   0.329   8.063  0.3510 -0.5455  0.0608
 1216TIP3   OH225206   6.441   6.579   8.481 -0.9969  0.4274 -0.5660
 1216TIP3    H125207   6.426   6.561   8.388 -2.2252 -0.6137 -0.1988
 1216TIP3    H225208   6.484   6.499   8.514  0.9096  1.4061 -0.5316
 1217TIP3   OH225209   2.923   2.588   8.283 -0.6455 -0.3541 -0.2460
 1217TIP3    H125210   3.008   2.587   8.326  1.0666 -1.2731 -3.4004
 1217TIP3    H225211   2.889   2.499   8.294  1.1916 -1.5398 -3.1363
 1218TIP3   OH225212   2.924   4.749   7.999  0.3957  0.1353  0.2266
 1218TIP3    H125213   2.909   4.740   7.905  0.0694 -1.4673  0.4124
 1218TIP3    H225214   2.933   4.844   8.012 -2.2863  0.6466 -1.0049
 1219TIP3   OH225215   6.554   0.307   1.967 -0.3652  0.4176 -0.1978
 1219TIP3    H125216   6.503   0.388   1.964  1.2050  1.5380  1.6278
 1219TIP3    H225217   6.566   0.290   2.060  2.4926  0.1520 -0.5440
 1220TIP3   OH225218   5.478   1.247   0.041 -0.0208  0.0964  0.4970
 1220TIP3    H125219   5.505   1.265   0.131  0.6293  0.9580  0.1443
 1220TIP3    H225220   5.418   1.173   0.049  0.1351  0.0635  1.6220
 1221TIP3   OH225221   0.652   3.622   8.208  0.7216 -0.1358 -0.6112
 1221TIP3    H125222   0.704   3.567   8.266 -0.5758 -0.8460 -0.0847
 1221TIP3    H225223   0.676   3.712   8.232  0.6829 -0.4321  0.5996
 1222TIP3   OH225224   0.322   3.377   8.587 -0.1435  0.7002 -0.0451
 1222TIP3    H125225   0.389   3.438   8.619  0.4093  0.0177  0.1172
 1222TIP3    H225226   0.362   3.334   8.512  0.7599 -1.7992  1.7522
 1223TIP3   OH225227   5.347   2.264   6.528  0.5392 -0.5864 -0.2093
 1223TIP3    H125228   5.302   2.223   6.602  1.1550  0.6855  0.9191
 1223TIP3    H225229   5.321   2.356   6.532  0.8384 -0.4353 -1.3974
 1224TIP3   OH225230   0.938   3.278   0.352  0.0893 -0.0620  0.1471
 1224TIP3    H125231   0.925   3.338   0.278  0.1859 -0.6535 -0.3610
 1224TIP3    H225232   0.850   3.265   0.387 -0.4792 -2.1460 -1.7769
 1225TIP3   OH225233   1.690   1.537   8.018 -0.1569 -0.1606  0.4058
 1225TIP3    H125234   1.685   1.456   8.069 -0.2320  0.2362  1.0378
 1225TIP3    H225235   1.762   1.522   7.956 -0.1658 -0.7074  0.5233
 1226TIP3   OH225236   6.303   1.423   0.267 -0.4398 -0.4306  0.5207
 1226TIP3    H125237   6.319   1.510   0.231 -0.9631 -0.4671  0.2000
 1226TIP3    H225238   6.254   1.439   0.348 -0.1518 -0.4062  0.6924
 1227TIP3   OH225239   6.030   1.671   0.006 -0.1677  0.2922  0.5379
 1227TIP3    H125240   6.012   1.578   0.001 -1.9245  0.6672 -1.4849
 1227TIP3    H225241   5.955   1.708   0.052 -1.3673  1.0462 -1.8197
 1228TIP3   OH225242   0.193   1.565   8.148  0.5274 -0.2564 -0.0711
 1228TIP3    H125243   0.154   1.502   8.208 -0.4797  0.1263 -0.3109
 1228TIP3    H225244   0.286   1.567   8.173  0.5105 -1.5578  0.1708
 1229TIP3   OH225245   6.705   2.068   0.885  0.0902 -0.1736 -0.2236
 1229TIP3    H125246   6.771   2.014   0.842  0.9802  1.0827 -0.4843
 1229TIP3    H225247   6.711   2.043   0.978  1.7847  0.7388 -0.0495
 1230TIP3   OH225248   1.121   1.121   0.964 -0.5139  0.3896  0.1949
 1230TIP3    H125249   1.113   1.049   1.027  0.4452 -0.3714 -0.5278
 1230TIP3    H225250   1.155   1.195   1.016  1.7970 -0.6767  0.3194
 1231TIP3   OH225251   6.125   3.223   0.420  0.0611  0.3866 -0.2080
 1231TIP3    H125252   6.208   3.254   0.457  0.7688  1.0899 -2.2345
 1231TIP3    H225253   6.135   3.128   0.416  0.4353  0.3990  0.2847
 1232TIP3   OH225254   6.326   5.447   0.867 -0.3303 -0.1167 -0.0116
 1232TIP3    H125255   6.408   5.489   0.893 -0.4670  0.3045 -0.2502
 1232TIP3    H225256   6.350   5.356   0.851 -0.2643 -0.4326  1.6960
 1233TIP3   OH225257   3.300   5.078   7.471 -0.2533 -0.2560  0.1239
 1233TIP3    H125258   3.303   4.984   7.492 -1.2418 -0.0736  1.2206
 1233TIP3    H225259   3.340   5.085   7.385  0.9128 -1.5303  0.5268
 1234TIP3   OH225260   3.146   6.283   1.835  0.0189  0.7412  0.0955
 1234TIP3    H125261   3.114   6.289   1.925  0.7265  0.3829  0.3783
 1234TIP3    H225262   3.068   6.292   1.781 -0.7479 -1.2600  0.7818
 1235TIP3   OH225263   6.423   5.567   1.564 -0.2885 -0.0528 -0.5715
 1235TIP3    H125264   6.383   5.647   1.598  1.0821  0.0021  1.0814
 1235TIP3    H225265   6.438   5.513   1.642  0.9732 -0.8985 -1.3628
 1236TIP3   OH225266   6.091   4.313   7.489  0.1425  0.2738 -0.3728
 1236TIP3    H125267   6.026   4.257   7.446 -1.4141 -0.2731  2.4156
 1236TIP3    H225268   6.136   4.255   7.550  1.9872  1.0818 -0.8960
 1237TIP3   OH225269   6.696   3.602   0.256  0.5695 -0.2337 -0.4727
 1237TIP3    H125270   6.780   3.555   0.260  0.7315  0.1596  1.0878
 1237TIP3    H225271   6.635   3.536   0.222  0.7838 -1.6648  1.6848
 1238TIP3   OH225272   4.152   0.858   0.812 -0.2582  0.0290 -0.1937
 1238TIP3    H125273   4.214   0.879   0.882 -0.2183 -1.8144  0.3629
 1238TIP3    H225274   4.168   0.766   0.791 -0.9979  0.2398 -1.9105
 1239TIP3   OH225275   0.847   5.493   7.792 -0.4945 -0.0414  0.0720
 1239TIP3    H125276   0.928   5.448   7.767 -0.7988  0.7910 -2.6853
 1239TIP3    H225277   0.787   5.422   7.816  0.1157 -0.8787 -0.7968
 1240TIP3   OH225278   2.474   4.316   2.734  0.0431  0.6756  0.1475
 1240TIP3    H125279   2.419   4.334   2.810  0.8652  0.9538  0.6847
 1240TIP3    H225280   2.416   4.269   2.673 -1.0212  1.6563  0.3574
 1241TIP3   OH225281   6.558   6.355   1.261 -0.1994  0.0727 -0.0472
 1241TIP3    H125282   6.565   6.267   1.224  1.4133  0.7040 -1.3594
 1241TIP3    H225283   6.496   6.345   1.334  0.7425 -2.3582  0.5288
 1242TIP3   OH225284   4.418   5.044   2.417  0.0812 -0.3307  0.1013
 1242TIP3    H125285   4.359   5.080   2.350 -0.1908 -2.5126 -0.9158
 1242TIP3    H225286   4.505   5.046   2.376  0.2114 -0.0191  0.3869
 1243TIP3   OH225287   4.387   0.615   0.457 -0.4944  0.0515 -0.0603
 1243TIP3    H125288   4.373   0.686   0.519 -1.6441 -1.4637  1.5188
 1243TIP3    H225289   4.320   0.628   0.389 -0.8820  0.3101  0.3721
 1244TIP3   OH225290   0.190   3.469   6.383  0.4658  0.0593 -0.0767
 1244TIP3    H125291   0.111   3.466   6.330 -0.4627  2.2287  1.0701
 1244TIP3    H225292   0.225   3.557   6.370 -0.0935  0.9042  3.1827
 1245TIP3   OH225293   0.990   0.361   6.523 -0.2875 -0.0894 -0.2433
 1245TIP3    H125294   1.047   0.304   6.574 -1.0279  0.0924  0.8250
 1245TIP3    H225295   1.006   0.336   6.432  0.2380 -1.1988  0.1349
 1246TIP3   OH225296   1.733   1.803   0.404 -0.0920  0.1047  0.3399
 1246TIP3    H125297   1.747   1.748   0.481 -0.0439 -0.2321  0.0929
 1246TIP3    H225298   1.645   1.780   0.374  0.4711 -0.8785 -0.5962
 1247TIP3   OH225299   5.419   4.731   2.309 -0.0415 -0.8356  0.2399
 1247TIP3    H125300   5.342   4.676   2.322 -1.3015  0.8184  0.0681
 1247TIP3    H225301   5.459   4.735   2.396 -0.8074 -0.7710  0.5992
 1248TIP3   OH225302   2.268   4.859   7.826  0.3995  0.0559 -0.2735
 1248TIP3    H125303   2.304   4.947   7.825  2.7787 -0.8197 -0.2014
 1248TIP3    H225304   2.272   4.833   7.918 -0.0210 -0.2242 -0.3311
 1249TIP3   OH225305   3.790   2.388   7.374 -0.3666 -0.0603  0.0924
 1249TIP3    H125306   3.723   2.430   7.320 -1.7674 -0.3271  1.5613
 1249TIP3    H225307   3.825   2.459   7.428 -1.3869 -0.3956  1.2244
 1250TIP3   OH225308   5.535   6.162   0.963 -0.2976  0.4072  0.3721
 1250TIP3    H125309   5.507   6.213   0.887 -0.3377 -2.7371 -1.9663
 1250TIP3    H225310   5.626   6.189   0.977  0.0538  0.3737 -1.5244
 1251TIP3   OH225311   5.913   6.597   8.533  0.0622 -0.2748  0.1748
 1251TIP3    H125312   5.830   6.618   8.491  0.3826 -0.1751 -0.4200
 1251TIP3    H225313   5.890   6.577   8.624 -0.8668 -2.0818 -0.4107
 1252TIP3   OH225314   5.514   5.811   1.371  0.1464  0.4914 -0.0404
 1252TIP3    H125315   5.472   5.737   1.414 -1.3916  0.2195 -1.8716
 1252TIP3    H225316   5.607   5.802   1.394 -0.3249 -0.6734  1.6128
 1253TIP3   OH225317   1.339   6.042   7.385  0.4792  0.1102 -0.0305
 1253TIP3    H125318   1.257   6.074   7.422  0.3008  0.2412 -0.5311
 1253TIP3    H225319   1.407   6.088   7.434  0.2663 -0.2668  0.6345
 1254TIP3   OH225320   0.149   3.884   1.208  0.2966  0.0789 -0.0559
 1254TIP3    H125321   0.103   3.802   1.224  0.1051  0.1942 -0.0118
 1254TIP3    H225322   0.228   3.858   1.160  0.1104 -0.1052 -0.2673
 1255TIP3   OH225323   3.970   0.906   8.078 -0.1100  0.4620 -0.4061
 1255TIP3    H125324   4.038   0.918   8.012 -0.2316 -0.1472 -0.6548
 1255TIP3    H225325   3.983   0.816   8.109 -1.0288  0.2018 -0.7338
 1256TIP3   OH225326   4.550   0.783   1.140  0.0926  0.2415 -0.4158
 1256TIP3    H125327   4.480   0.764   1.203  1.5448 -0.9960  0.9229
 1256TIP3    H225328   4.581   0.870   1.164  0.1762  0.0609  0.1370
 1257TIP3   OH225329   6.294   1.931   6.856  0.1708 -0.6580  0.1540
 1257TIP3    H125330   6.371   1.903   6.905  0.8454  1.4636  0.4165
 1257TIP3    H225331   6.320   1.925   6.764 -0.4719 -2.9085  0.0708
 1258TIP3   OH225332   6.650   5.029   0.205 -0.1051 -0.2822 -0.1292
 1258TIP3    H125333   6.676   5.112   0.165 -1.1175 -0.2896 -0.8574
 1258TIP3    H225334   6.688   4.962   0.148  0.5105 -0.3165  0.3212
 1259TIP3   OH225335   5.875   0.871   8.161  0.4386  0.2498  0.2313
 1259TIP3    H125336   5.834   0.944   8.206 -1.8209 -0.4502 -0.5627
 1259TIP3    H225337   5.895   0.807   8.230 -0.6829  0.2293  0.5498
 1260TIP3   OH225338   1.219   1.048   7.208 -0.4246 -0.0779 -0.5716
 1260TIP3    H125339   1.272   1.068   7.130 -0.2003 -0.6943 -0.5802
 1260TIP3    H225340   1.129   1.058   7.178 -0.5131 -3.4096 -1.8670
 1261TIP3   OH225341   2.617   4.504   0.456 -0.5639 -0.4299 -0.4747
 1261TIP3    H125342   2.614   4.437   0.524 -1.0850 -0.4015 -0.4662
 1261TIP3    H225343   2.631   4.586   0.503  3.7257 -0.8224 -0.6679
 1262TIP3   OH225344   6.317   0.982   8.274 -0.1192 -0.2161 -0.4279
 1262TIP3    H125345   6.245   0.944   8.225 -1.2014 -0.3107  1.1573
 1262TIP3    H225346   6.275   1.035   8.342  1.3197  0.6519 -0.1579
 1263TIP3   OH225347   6.316   0.790   8.649 -0.1681  0.0583  0.4090
 1263TIP3    H125348   6.263   0.723   8.606 -2.7691  2.3976 -0.3534
 1263TIP3    H225349   6.298   0.870   8.599  1.1699  1.7564  2.4759
 1264TIP3   OH225350   2.319   6.476   1.085  0.1563  0.0158 -0.0224
 1264TIP3    H125351   2.272   6.403   1.126  0.0515  0.8070  1.3537
 1264TIP3    H225352   2.251   6.524   1.037  0.0032 -0.1457  0.0312
 1265TIP3   OH225353   0.508   1.643   0.962 -0.0893  0.0352 -0.0627
 1265TIP3    H125354   0.413   1.649   0.976 -0.1903  1.6038 -1.1199
 1265TIP3    H225355   0.516   1.608   0.873  0.3856 -1.6629  0.6087
 1266TIP3   OH225356   2.923   6.190   0.464  0.4693 -0.4915 -0.1038
 1266TIP3    H125357   2.966   6.156   0.542 -0.6095 -4.1996 -0.9050
 1266TIP3    H225358   2.994   6.213   0.404  1.3016 -0.9526  0.6963
 1267TIP3   OH225359   3.634   2.910   1.678 -0.1179 -0.1350 -0.5284
 1267TIP3    H125360   3.611   2.913   1.771 -1.9915  1.4783 -0.9847
 1267TIP3    H225361   3.648   3.001   1.654 -1.4716 -0.3391 -2.2191
 1268TIP3   OH225362   4.887   4.259   8.370 -0.7852 -0.1417  1.1504
 1268TIP3    H125363   4.838   4.176   8.365 -1.2209  0.1539  0.0495
 1268TIP3    H225364   4.832   4.316   8.423 -0.1065 -0.7786  2.5992
 1269TIP3   OH225365   1.487   5.950   0.592  0.2887 -1.1370 -0.1267
 1269TIP3    H125366   1.524   5.979   0.509  0.1410  0.4156  0.3269
 1269TIP3    H225367   1.408   6.003   0.603 -0.1499 -1.9112  0.6204
 1270TIP3   OH225368   1.968   2.448   8.334 -0.3194  0.6556  0.0265
 1270TIP3    H125369   2.042   2.416   8.385 -0.8111  1.2715  1.1827
 1270TIP3    H225370   2.004   2.469   8.248  0.9744  1.4636  0.7324
 1271TIP3   OH225371   3.380   3.247   1.629 -0.0463  0.3898 -0.0984
 1271TIP3    H125372   3.331   3.288   1.700 -1.0708  0.7241 -0.9883
 1271TIP3    H225373   3.472   3.258   1.655 -0.4153 -0.9168  1.9527
 1272TIP3   OH225374   1.181   3.068   1.055  0.2357 -0.1144 -0.2539
 1272TIP3    H125375   1.159   3.101   0.968  0.2376  0.1164 -0.1672
 1272TIP3    H225376   1.100   3.075   1.105  0.7333  1.7898  0.3958
 1273TIP3   OH225377   6.219   1.656   1.514  0.0365  0.2372 -0.9669
 1273TIP3    H125378   6.191   1.678   1.603  2.2254 -1.4531  0.2200
 1273TIP3    H225379   6.148   1.601   1.480  0.4058 -1.4500  0.8243
 1274TIP3   OH225380   6.879   0.690   8.507 -0.1595 -0.4475 -0.0145
 1274TIP3    H125381   6.883   0.784   8.487 -1.4346 -0.3761  0.0036
 1274TIP3    H225382   6.806   0.657   8.455 -2.3275 -0.6485  2.8850
 1275TIP3   OH225383   4.929   3.819   7.358  0.8042  0.2202 -0.0105
 1275TIP3    H125384   5.013   3.822   7.312  0.8029  1.2045  0.0198
 1275TIP3    H225385   4.884   3.899   7.330 -0.0641 -0.2217  0.0884
 1276TIP3   OH225386   0.649   6.668   8.257  0.0571  0.2332  0.4388
 1276TIP3    H125387   0.609   6.741   8.304  2.0539  2.1176 -0.6141
 1276TIP3    H225388   0.742   6.688   8.256  0.2350  0.0226 -3.6883
 1277TIP3   OH225389   6.374   1.261   0.510  0.3462 -0.3354  0.3292
 1277TIP3    H125390   6.333   1.342   0.543 -0.1888 -1.4091  2.4847
 1277TIP3    H225391   6.303   1.213   0.470  0.5280 -0.0656 -0.3333
 1278TIP3   OH225392   3.709   4.205   0.723  0.7516 -0.1253  0.1267
 1278TIP3    H125393   3.635   4.252   0.684  0.1880  1.4244  2.7954
 1278TIP3    H225394   3.786   4.252   0.692  0.3178  1.1517  0.9163
 1279TIP3   OH225395   5.277   0.408   6.742 -0.3069 -0.3069  0.6656
 1279TIP3    H125396   5.210   0.439   6.681 -0.7360 -3.8001 -0.9004
 1279TIP3    H225397   5.352   0.387   6.686  0.5930 -0.3604  1.8460
 1280TIP3   OH225398   4.098   5.448   7.214  0.7015  0.0255  0.0696
 1280TIP3    H125399   4.111   5.387   7.141  2.7412 -0.0130  0.4036
 1280TIP3    H225400   4.048   5.397   7.278 -1.7223  0.2711 -1.4714
 1281TIP3   OH225401   2.272   6.298   6.438 -0.5209  0.7454  0.2845
 1281TIP3    H125402   2.312   6.240   6.503  0.6328 -0.2654 -1.2700
 1281TIP3    H225403   2.193   6.251   6.410 -0.7216  0.9233  0.5485
 1282TIP3   OH225404   2.997   5.299   1.458 -0.2558  0.6939 -0.2238
 1282TIP3    H125405   2.966   5.209   1.464  1.0752  0.1786 -0.7314
 1282TIP3    H225406   3.005   5.316   1.364  0.8926  0.8064 -0.1280
 1283TIP3   OH225407   5.047   0.786   1.681  0.3196 -0.0936  0.0913
 1283TIP3    H125408   4.986   0.811   1.612  0.4761 -0.2242 -0.0951
 1283TIP3    H225409   5.022   0.697   1.705 -0.7888  0.5287  1.3549
 1284TIP3   OH225410   3.585   0.076   7.868  0.3383  0.1280  0.4655
 1284TIP3    H125411   3.648   0.133   7.823  1.3118  1.3467  3.1298
 1284TIP3    H225412   3.635   0.038   7.941 -1.2885 -1.2209  0.9394
 1285TIP3   OH225413   4.523   0.710   0.870 -0.1102  0.7535 -0.2563
 1285TIP3    H125414   4.524   0.787   0.813  1.1160  1.1297  0.2373
 1285TIP3    H225415   4.514   0.745   0.958  2.5196  0.5374  0.1767
 1286TIP3   OH225416   3.783   0.110   1.828 -0.1745  0.5371 -0.2921
 1286TIP3    H125417   3.709   0.164   1.853 -0.3905 -0.3163  1.0190
 1286TIP3    H225418   3.859   0.151   1.870 -0.0737  0.7996 -0.7317
 1287TIP3   OH225419   5.953   4.702   7.561  0.3988  0.3356  0.0946
 1287TIP3    H125420   5.932   4.723   7.652 -0.5271  1.2756 -0.3160
 1287TIP3    H225421   5.879   4.651   7.530  1.1782 -0.8610  0.1434
 1288TIP3   OH225422   3.126   1.124   7.744  0.2414  0.1344  0.0904
 1288TIP3    H125423   3.101   1.031   7.745  1.3854 -0.1878  1.4412
 1288TIP3    H225424   3.146   1.144   7.835 -0.4631  1.8661 -0.1027
 1289TIP3   OH225425   4.507   1.532   0.538  0.3473  0.1579  0.4170
 1289TIP3    H125426   4.559   1.594   0.488  2.3222 -1.4815  0.3077
 1289TIP3    H225427   4.446   1.494   0.475  1.1499 -0.1324 -0.1925
 1290TIP3   OH225428   4.447   1.402   0.760  0.1801  0.3244 -0.7654
 1290TIP3    H125429   4.362   1.443   0.775  0.1734 -0.2255  0.9493
 1290TIP3    H225430   4.476   1.436   0.675 -0.5075  2.6645 -0.1454
 1291TIP3   OH225431   2.390   4.557   0.062  0.0492  0.2593  0.3077
 1291TIP3    H125432   2.448   4.632   0.044 -1.3098  0.6761 -3.0436
 1291TIP3    H225433   2.303   4.596   0.074 -0.8160 -0.6836 -2.1972
 1292TIP3   OH225434   4.416   3.687   1.507  0.2055  0.3039 -0.4791
 1292TIP3    H125435   4.370   3.695   1.590 -2.9879 -1.4786 -1.8610
 1292TIP3    H225436   4.376   3.754   1.451  0.0382 -0.5468 -1.4143
 1293TIP3   OH225437   0.612   6.183   7.919 -0.2575 -0.0499 -0.5352
 1293TIP3    H125438   0.609   6.236   7.839 -1.0106  0.5720 -0.1172
 1293TIP3    H225439   0.681   6.223   7.971 -0.9125  0.6323 -0.1650
 1294TIP3   OH225440   0.654   0.859   1.160 -0.0007  0.4774  0.0205
 1294TIP3    H125441   0.725   0.844   1.098 -1.2364 -1.5597 -1.0326
 1294TIP3    H225442   0.630   0.951   1.149  3.1479  1.5589  1.2375
 1295TIP3   OH225443   4.731   1.580   7.663 -0.3612 -0.3802  0.3517
 1295TIP3    H125444   4.681   1.498   7.659 -0.0824 -0.5244 -0.8302
 1295TIP3    H225445   4.666   1.648   7.676 -0.8875 -0.5827 -1.0234
 1296TIP3   OH225446   2.550   3.987   0.763 -0.2346  0.2430 -0.6587
 1296TIP3    H125447   2.548   3.942   0.847 -4.4667  1.7275  0.2812
 1296TIP3    H225448   2.533   3.918   0.699  0.7775 -0.5711 -0.0754
 1297TIP3   OH225449   6.170   4.566   7.480 -0.3221  0.2029 -0.1171
 1297TIP3    H125450   6.136   4.478   7.462  0.8637 -0.4263  0.6108
 1297TIP3    H225451   6.092   4.620   7.491 -1.0732 -0.8315 -0.2014
 1298TIP3   OH225452   1.478   4.193   8.649 -0.0872 -0.0667  0.3467
 1298TIP3    H125453   1.421   4.131   8.603 -0.1412 -0.2419  0.6439
 1298TIP3    H225454   1.544   4.218   8.585  1.8916 -2.8628  1.0604
 1299TIP3   OH225455   2.485   4.987   7.904 -0.6064  0.2070  0.0243
 1299TIP3    H125456   2.518   5.075   7.884 -1.0634  1.4166  3.7338
 1299TIP3    H225457   2.532   4.930   7.843  1.2690  2.7968 -1.1791
 1300TIP3   OH225458   6.016   0.630   6.580 -0.2402  0.2614 -0.3348
 1300TIP3    H125459   5.998   0.705   6.523  0.8767 -0.0820 -1.1788
 1300TIP3    H225460   6.106   0.604   6.558  1.3984  1.7975  3.4848
 1301TIP3   OH225461   5.371   1.570   8.123  0.0973  0.0971  0.1379
 1301TIP3    H125462   5.341   1.661   8.120 -1.8935 -0.5069  0.1153
 1301TIP3    H225463   5.436   1.568   8.193  1.9961  1.9923 -1.4453
 1302TIP3   OH225464   0.310   0.192   1.448  0.6494  0.6788 -0.4140
 1302TIP3    H125465   0.328   0.114   1.501  0.3746  1.7382  1.3224
 1302TIP3    H225466   0.236   0.234   1.491 -0.5125  0.8950 -2.4810
 1303TIP3   OH225467   2.155   0.805   8.316 -0.3401  0.3359 -0.5009
 1303TIP3    H125468   2.143   0.863   8.392  1.5266  2.4871 -1.7270
 1303TIP3    H225469   2.207   0.732   8.350  1.2484  1.7159  0.1756
 1304TIP3   OH225470   2.694   0.918   6.345  0.6198 -0.5402  0.2205
 1304TIP3    H125471   2.662   0.841   6.391  1.3486 -0.9242  0.0942
 1304TIP3    H225472   2.683   0.990   6.408  0.2571 -0.7992  0.4585
 1305TIP3   OH225473   0.466   0.096   0.378 -0.4177 -0.5529 -0.2638
 1305TIP3    H125474   0.521   0.125   0.451 -2.6580 -1.7005  2.0107
 1305TIP3    H225475   0.493   0.005   0.362 -1.1710 -0.9102  0.4303
 1306TIP3   OH225476   1.331   6.614   6.854 -0.0062  0.6839  0.7395
 1306TIP3    H125477   1.306   6.521   6.846  0.4908  0.5513  0.6854
 1306TIP3    H225478   1.426   6.613   6.853  0.0306  1.3713 -1.3236
 1307TIP3   OH225479   2.814   5.113   1.782 -0.3453  0.2858  0.5174
 1307TIP3    H125480   2.721   5.134   1.792 -0.8471 -1.6145  0.2056
 1307TIP3    H225481   2.842   5.083   1.868  0.2417  1.6798  0.8407
 1308TIP3   OH225482   2.316   6.613   8.441  0.0271  0.2728  0.1313
 1308TIP3    H125483   2.280   6.666   8.369 -2.5307 -0.5783  0.6657
 1308TIP3    H225484   2.375   6.551   8.398 -1.1919  0.0057 -1.2475
 1309TIP3   OH225485   6.593   3.270   8.434 -0.4594  0.2920  0.4289
 1309TIP3    H125486   6.677   3.301   8.469 -0.3388 -0.4379  0.7957
 1309TIP3    H225487   6.535   3.346   8.442  0.4992  1.2520 -1.0791
 1310TIP3   OH225488   6.441   6.384   1.546  0.0913 -0.1131 -0.0020
 1310TIP3    H125489   6.353   6.368   1.581 -0.4095  2.1620 -0.0601
 1310TIP3    H225490   6.469   6.464   1.590  2.2486 -0.8867  0.1429
 1311TIP3   OH225491   5.023   1.220   7.251 -0.1460  0.6756  0.6435
 1311TIP3    H125492   4.987   1.308   7.262 -1.3847  0.2454  0.2431
 1311TIP3    H225493   4.948   1.162   7.263  0.4495 -0.2714 -0.0570
 1312TIP3   OH225494   3.388   4.408   7.035  0.0131 -0.5025 -0.1000
 1312TIP3    H125495   3.437   4.470   6.981  1.6479 -1.6100  0.0571
 1312TIP3    H225496   3.451   4.379   7.101 -1.0162 -1.5705  0.4398
 1313TIP3   OH225497   1.289   3.209   0.077 -0.0525  0.3003 -0.1928
 1313TIP3    H125498   1.305   3.234  -0.014 -1.0064  0.1498 -0.4167
 1313TIP3    H225499   1.363   3.153   0.101 -0.3290 -0.5338 -1.2244
 1314TIP3   OH225500   4.685   5.752   0.890 -0.2065  0.4154  0.4688
 1314TIP3    H125501   4.604   5.803   0.887 -0.5276 -0.0811  0.4640
 1314TIP3    H225502   4.700   5.725   0.799 -0.2011  0.2570  0.5158
 1315TIP3   OH225503   5.292   0.060   2.420  0.1645 -0.9587  0.0460
 1315TIP3    H125504   5.358   0.049   2.488 -0.2971  1.2254  0.9102
 1315TIP3    H225505   5.212   0.021   2.456  0.2729 -1.0637  0.1701
 1316TIP3   OH225506   5.569   2.105   0.359  0.0864 -0.2182  0.0576
 1316TIP3    H125507   5.576   2.169   0.287 -0.2693  0.1615  0.3588
 1316TIP3    H225508   5.653   2.059   0.358  0.0614 -0.2633 -0.6452
 1317TIP3   OH225509   0.206   4.779   2.494 -0.0648  0.2911  0.7585
 1317TIP3    H125510   0.292   4.740   2.476  0.1769  1.3564 -0.5667
 1317TIP3    H225511   0.186   4.831   2.416 -1.3288  1.1166  1.5874
 1318TIP3   OH225512   5.425   3.233   7.453  0.4984 -0.3740 -0.5537
 1318TIP3    H125513   5.397   3.150   7.414 -0.7569 -0.9067  1.3613
 1318TIP3    H225514   5.449   3.287   7.378  1.1808 -2.3809 -1.8696
 1319TIP3   OH225515   3.508   1.170   7.324  0.2010 -0.1642  0.4446
 1319TIP3    H125516   3.491   1.264   7.327  1.4820  0.0764  0.7994
 1319TIP3    H225517   3.576   1.155   7.390  1.1932 -1.0716 -0.7217
 1320TIP3   OH225518   5.547   1.609   0.777 -0.0232 -0.1635 -0.2363
 1320TIP3    H125519   5.547   1.547   0.850 -0.2252 -0.4470 -0.4720
 1320TIP3    H225520   5.616   1.672   0.798  0.2038 -0.4870 -0.0095
 1321TIP3   OH225521   2.636   2.174   8.325 -0.8101 -0.2021  0.1109
 1321TIP3    H125522   2.563   2.231   8.305 -0.4005  0.4272  0.3668
 1321TIP3    H225523   2.618   2.141   8.413 -0.8410 -0.1295  0.1321
 1322TIP3   OH225524   4.989   2.816   1.231 -0.1578  0.1240 -0.2101
 1322TIP3    H125525   4.928   2.744   1.217 -0.7348  0.4985  0.3192
 1322TIP3    H225526   4.978   2.839   1.323 -0.1442  1.0376 -0.4298
 1323TIP3   OH225527   3.894   5.677   8.004 -0.0972  0.0412 -0.2041
 1323TIP3    H125528   3.930   5.589   7.999 -0.8166 -0.2896  0.2886
 1323TIP3    H225529   3.854   5.682   8.091 -0.3940  0.7229 -0.3721
 1324TIP3   OH225530   0.371   6.669   0.887  0.3077  0.0888 -0.7712
 1324TIP3    H125531   0.350   6.707   0.801 -0.0308 -2.1295 -1.7537
 1324TIP3    H225532   0.285   6.643   0.922  0.5545 -0.1537 -0.3455
 1325TIP3   OH225533   2.608   2.158   1.188 -0.1716  0.2722 -0.0085
 1325TIP3    H125534   2.533   2.190   1.238 -0.2777  0.8978 -0.5490
 1325TIP3    H225535   2.573   2.139   1.101 -0.7282 -3.9173  0.8971
 1326TIP3   OH225536   4.615   1.724   7.205  0.3604 -0.0458 -0.2811
 1326TIP3    H125537   4.665   1.662   7.258  0.8333  0.4944 -0.0815
 1326TIP3    H225538   4.587   1.674   7.129 -0.8049 -1.0008  0.7247
 1327TIP3   OH225539   2.193   1.693   8.299 -0.2953  0.1128 -0.0598
 1327TIP3    H125540   2.165   1.751   8.228 -2.6128 -1.2727 -0.3792
 1327TIP3    H225541   2.136   1.715   8.372  1.2209  0.6411  1.0095
 1328TIP3   OH225542   5.331   0.969   2.110 -0.3291  0.2296  0.3124
 1328TIP3    H125543   5.293   0.892   2.068 -0.2892  0.3157  0.1185
 1328TIP3    H225544   5.346   0.942   2.200  1.0956 -0.4897 -0.1204
 1329TIP3   OH225545   1.373   1.330   8.459  0.0155 -0.1025  0.3908
 1329TIP3    H125546   1.294   1.383   8.462  1.1787  1.7463 -0.1886
 1329TIP3    H225547   1.443   1.391   8.437  1.7363 -1.5478  1.5338
 1330TIP3   OH225548   0.091   6.752   8.038 -0.0007 -0.1536  0.1669
 1330TIP3    H125549   0.032   6.709   8.099 -0.1453  0.3411  0.3762
 1330TIP3    H225550   0.178   6.721   8.063 -0.1186 -0.4544  0.2090
 1331TIP3   OH225551   1.502   1.329   8.095 -0.1178  0.3619 -0.0843
 1331TIP3    H125552   1.530   1.253   8.147 -0.2215 -0.0249 -0.5848
 1331TIP3    H225553   1.472   1.291   8.012  1.1422  1.0617 -0.8803
 1332TIP3   OH225554   0.484   5.465   7.648  0.1290 -0.0616  0.1362
 1332TIP3    H125555   0.538   5.422   7.715 -0.7187 -1.0033  0.2305
 1332TIP3    H225556   0.445   5.540   7.693  1.5730  0.8179 -0.0151
 1333TIP3   OH225557   0.474   3.032   6.892 -0.1911 -0.3160  0.3655
 1333TIP3    H125558   0.538   2.961   6.892  1.4455  1.0709  1.6726
 1333TIP3    H225559   0.466   3.057   6.985 -1.8501  0.2419  0.1095
 1334TIP3   OH225560   3.945   1.653   7.982  0.4950  0.1746  0.2404
 1334TIP3    H125561   4.030   1.612   8.001 -0.2053 -0.3288  2.7097
 1334TIP3    H225562   3.884   1.609   8.041 -1.3142  1.2444 -0.7395
 1335TIP3   OH225563   6.831   5.899   8.315 -0.3416 -0.3337  0.4139
 1335TIP3    H125564   6.858   5.819   8.361  1.1985  0.2620  0.5784
 1335TIP3    H225565   6.814   5.963   8.384  0.9048  0.2312  0.2165
 1336TIP3   OH225566   5.917   0.270   1.474 -0.5789 -0.6907 -0.3031
 1336TIP3    H125567   5.878   0.285   1.561 -0.4083  1.3216 -0.5213
 1336TIP3    H225568   5.859   0.317   1.414 -0.6747 -2.0368 -1.3094
 1337TIP3   OH225569   1.670   0.511   1.359  0.4767 -0.5123 -0.1960
 1337TIP3    H125570   1.641   0.516   1.450  1.4271 -2.6395  0.2698
 1337TIP3    H225571   1.590   0.488   1.310  0.4838 -2.0994  0.4948
 1338TIP3   OH225572   5.467   0.785   7.737  0.9936  0.1239  0.1469
 1338TIP3    H125573   5.406   0.745   7.675  0.4295  0.4701  0.4642
 1338TIP3    H225574   5.551   0.785   7.692  1.1125 -1.7402  0.2586
 1339TIP3   OH225575   1.051   6.714   1.512  0.0714 -0.2142  0.3625
 1339TIP3    H125576   0.963   6.749   1.527  0.3885  0.2175  1.2791
 1339TIP3    H225577   1.043   6.665   1.430 -1.7121 -2.4760  1.7666
 1340TIP3   OH225578   3.214   1.900   1.394 -0.4370  0.6462  0.3813
 1340TIP3    H125579   3.207   1.857   1.480  0.6120  2.4757  1.4520
 1340TIP3    H225580   3.184   1.834   1.332 -2.4311 -0.3268  2.2412
 1341TIP3   OH225581   2.928   1.792   1.275 -0.2788  0.0494 -0.0577
 1341TIP3    H125582   2.953   1.847   1.200  2.5298 -0.6611  0.2602
 1341TIP3    H225583   2.896   1.853   1.340  1.2180  1.1655 -0.3242
 1342TIP3   OH225584   2.426   0.956   6.964  0.1775  0.2509 -0.9001
 1342TIP3    H125585   2.365   0.945   6.891  0.2439 -2.5836 -0.6513
 1342TIP3    H225586   2.370   0.960   7.042  0.2229 -0.0227 -0.8530
 1343TIP3   OH225587   3.187   5.074   7.795  0.1594 -0.1092 -0.7791
 1343TIP3    H125588   3.223   5.010   7.734  0.0471 -0.1046 -0.8498
 1343TIP3    H225589   3.233   5.057   7.878 -1.2563 -1.5822 -0.2433
 1344TIP3   OH225590   5.783   6.216   1.000 -0.2641 -0.2209 -0.6228
 1344TIP3    H125591   5.865   6.262   1.014 -0.4865  0.0766 -0.2977
 1344TIP3    H225592   5.794   6.132   1.045 -0.2912 -0.0123 -0.2227
 1345TIP3   OH225593   0.392   4.239   7.371  0.0661  0.1098 -0.0389
 1345TIP3    H125594   0.390   4.173   7.441  0.9808  0.5667  0.4225
 1345TIP3    H225595   0.319   4.297   7.391 -0.1638 -0.2160  0.0815
 1346TIP3   OH225596   1.850   6.099   0.822 -0.5141 -0.4464 -0.1739
 1346TIP3    H125597   1.845   6.164   0.751  0.1182  0.6035  0.7186
 1346TIP3    H225598   1.764   6.104   0.865  0.2982  1.6046  1.3914
 1347TIP3   OH225599   0.145   3.881   2.660  0.3422 -0.2938 -0.3167
 1347TIP3    H125600   0.207   3.953   2.649  0.6480 -0.7536 -1.8646
 1347TIP3    H225601   0.091   3.884   2.581  0.2372 -1.6342 -0.3125
 1348TIP3   OH225602   0.264   4.241   0.838  0.6213  0.3622 -0.7308
 1348TIP3    H125603   0.282   4.149   0.858 -1.8438  0.2435  1.4694
 1348TIP3    H225604   0.302   4.290   0.911  0.1813  0.9051 -0.8542
 1349TIP3   OH225605   4.774   6.504   8.102 -0.1138 -0.5115  0.1475
 1349TIP3    H125606   4.838   6.517   8.032 -0.4818  1.0777  0.0737
 1349TIP3    H225607   4.822   6.456   8.169  0.8483 -0.2724 -0.3472
 1350TIP3   OH225608   2.662   1.596   0.692 -0.3760 -0.0827  0.0520
 1350TIP3    H125609   2.730   1.638   0.639 -0.0334 -1.6898 -0.8284
 1350TIP3    H225610   2.689   1.613   0.783 -0.8605  2.5263 -0.1969
 1351TIP3   OH225611   2.744   3.667   1.061 -0.3132 -0.0078  0.4644
 1351TIP3    H125612   2.815   3.732   1.058 -2.3598  2.3538 -1.6173
 1351TIP3    H225613   2.752   3.627   1.148  2.1869  1.7394  1.1491
 1352TIP3   OH225614   2.539   1.873   6.842  0.4472  0.4877 -0.6096
 1352TIP3    H125615   2.497   1.921   6.914  2.1175  0.8072  0.2048
 1352TIP3    H225616   2.467   1.828   6.798 -0.5323 -0.9149  2.1629
 1353TIP3   OH225617   0.526   2.776   1.393 -0.8307 -0.2125 -0.4205
 1353TIP3    H125618   0.556   2.686   1.408  0.7748  0.3943  0.2036
 1353TIP3    H225619   0.485   2.801   1.475  1.4206  0.6164  0.5089
 1354TIP3   OH225620   1.343   1.121   0.581 -0.9178 -0.6786 -0.0471
 1354TIP3    H125621   1.394   1.193   0.618 -0.7461 -0.7385 -0.1649
 1354TIP3    H225622   1.301   1.158   0.503 -1.1756 -0.5878  0.1348
 1355TIP3   OH225623   2.968   1.071   6.521 -0.0418  0.5415  0.3184
 1355TIP3    H125624   2.877   1.096   6.506  0.1051  0.4342 -0.8878
 1355TIP3    H225625   3.019   1.135   6.472  0.5885  1.0520  1.5844
 1356TIP3   OH225626   6.279   3.007   8.083 -0.0664 -0.3114  1.1383
 1356TIP3    H125627   6.312   3.095   8.066 -0.5409 -0.1507  1.0307
 1356TIP3    H225628   6.319   2.982   8.166  0.8212 -0.3782  0.6970
 1357TIP3   OH225629   6.181   2.147   0.437 -0.2789  0.2236  0.3672
 1357TIP3    H125630   6.130   2.114   0.363 -1.1585  0.5969  0.7924
 1357TIP3    H225631   6.120   2.203   0.485  0.6463  0.9703  0.6925
 1358TIP3   OH225632   2.259   4.233   7.958 -0.1458  0.3927 -0.2405
 1358TIP3    H125633   2.266   4.286   8.038  0.1126  0.0722 -0.0510
 1358TIP3    H225634   2.349   4.224   7.927 -0.2664  0.6906 -0.6846
 1359TIP3   OH225635   1.996   1.267   7.882  0.0678  0.1651 -0.4028
 1359TIP3    H125636   1.904   1.264   7.857  0.4442 -1.7415 -1.7961
 1359TIP3    H225637   2.003   1.205   7.955  0.2332  0.3511 -0.2608
 1360TIP3   OH225638   6.533   3.043   8.588  0.4743 -0.0610  0.5353
 1360TIP3    H125639   6.545   3.106   8.516  0.4908 -1.5853 -0.8531
 1360TIP3    H225640   6.622   3.021   8.616  0.5060 -0.3312  0.2277
 1361TIP3   OH225641   5.147   0.527   1.222 -0.1859 -0.6601 -0.0813
 1361TIP3    H125642   5.077   0.580   1.184 -0.1480 -1.2229 -0.9900
 1361TIP3    H225643   5.102   0.466   1.281 -0.4896 -1.0583 -0.7058
 1362TIP3   OH225644   4.786   4.411   7.365  0.2407  0.3569  0.0282
 1362TIP3    H125645   4.746   4.341   7.416 -1.2333  1.3560  0.2923
 1362TIP3    H225646   4.776   4.489   7.419  0.5214  1.0581 -0.9086
 1363TIP3   OH225647   4.482   5.226   6.932  0.5470  0.7910  0.1527
 1363TIP3    H125648   4.389   5.206   6.922  0.6954  0.1913 -0.1046
 1363TIP3    H225649   4.516   5.226   6.842  1.0571 -0.3589  0.3205
 1364TIP3   OH225650   5.327   4.063   1.810 -0.0527  0.3219 -0.1007
 1364TIP3    H125651   5.420   4.082   1.827 -0.0939  0.1342  0.3755
 1364TIP3    H225652   5.328   3.980   1.762 -0.0169 -0.5889  1.3747
 1365TIP3   OH225653   3.828   3.543   1.405 -0.3357  0.6752  0.2382
 1365TIP3    H125654   3.866   3.472   1.456 -1.1902  0.4834  0.6241
 1365TIP3    H225655   3.899   3.606   1.395 -0.2747  0.9448  2.0867
 1366TIP3   OH225656   4.206   6.585   7.377  0.3647 -0.7901  0.0321
 1366TIP3    H125657   4.132   6.526   7.393 -0.3356  0.1869  0.4967
 1366TIP3    H225658   4.166   6.662   7.336  1.1048 -0.1714  0.4687
 1367TIP3   OH225659   5.140   5.878   1.069  0.7948 -0.4357  0.5490
 1367TIP3    H125660   5.231   5.905   1.067  0.7197 -0.2212  0.0341
 1367TIP3    H225661   5.140   5.789   1.031  0.7071 -0.1855 -0.0505
 1368TIP3   OH225662   4.610   1.744   0.378  0.1674  0.0496  0.3124
 1368TIP3    H125663   4.598   1.835   0.406  0.6479 -0.2798  1.6653
 1368TIP3    H225664   4.661   1.750   0.298 -0.6950  1.0095 -0.1892
 1369TIP3   OH225665   1.176   2.010   7.579 -0.2871  0.5344  0.0890
 1369TIP3    H125666   1.179   1.920   7.610 -1.7647  0.9366  1.5760
 1369TIP3    H225667   1.224   2.060   7.646 -0.1206  0.9596 -0.3376
 1370TIP3   OH225668   2.059   1.274   0.385 -0.1645  0.3028  0.2069
 1370TIP3    H125669   1.978   1.224   0.382 -0.8827  1.4335 -0.0170
 1370TIP3    H225670   2.129   1.208   0.378 -1.0246 -0.7630  1.3554
 1371TIP3   OH225671   6.562   1.252   0.281 -0.0158 -0.5108  0.0725
 1371TIP3    H125672   6.570   1.299   0.198 -1.0762  1.3306  0.9502
 1371TIP3    H225673   6.484   1.289   0.322 -1.3157 -3.5308  0.5871
 1372TIP3   OH225674   4.526   4.913   0.510  0.4439 -0.6412 -0.0358
 1372TIP3    H125675   4.556   4.823   0.523  2.1781 -0.2961 -1.3699
 1372TIP3    H225676   4.597   4.967   0.545 -0.8705  0.2500  1.3774
 1373TIP3   OH225677   3.988   2.407   1.036  0.2180  0.4101  0.1081
 1373TIP3    H125678   4.003   2.325   1.083  1.4061  0.8407  0.5032
 1373TIP3    H225679   3.922   2.385   0.971 -1.8633 -0.1084  2.2385
 1374TIP3   OH225680   4.902   0.598   1.140 -0.2835  0.5501  0.7947
 1374TIP3    H125681   4.904   0.634   1.052 -0.6411  0.2482  0.6640
 1374TIP3    H225682   4.836   0.529   1.137 -0.7179  0.9213  1.4449
 1375TIP3   OH225683   6.115   5.755   1.173  0.1182 -0.2308  0.6886
 1375TIP3    H125684   6.114   5.660   1.180 -2.2674 -0.2246  1.2836
 1375TIP3    H225685   6.062   5.774   1.096 -0.2396  0.6255  1.1347
 1376TIP3   OH225686   4.978   5.796   7.652 -0.0774  0.4627 -0.5748
 1376TIP3    H125687   4.895   5.822   7.610  0.8342  1.9740 -1.5620
 1376TIP3    H225688   4.997   5.868   7.712 -0.4583 -0.8458  1.2063
 1377TIP3   OH225689   1.329   3.723   1.293 -0.0187 -0.4108  0.1133
 1377TIP3    H125690   1.379   3.762   1.364 -0.3770  0.7922 -0.2790
 1377TIP3    H225691   1.387   3.727   1.217  0.0632 -0.9577  0.1403
 1378TIP3   OH225692   4.056   6.387   7.065  0.0685  0.3395 -0.0619
 1378TIP3    H125693   4.112   6.386   6.987 -1.0168 -0.1830 -0.8627
 1378TIP3    H225694   4.051   6.295   7.092  0.6739  0.5499  0.8271
 1379TIP3   OH225695   0.778   4.355   1.684 -0.2871  0.4223  0.1931
 1379TIP3    H125696   0.809   4.268   1.707 -0.4616 -0.2580 -1.9416
 1379TIP3    H225697   0.708   4.373   1.747 -0.2476 -0.9721  0.6693
 1380TIP3   OH225698   4.056   0.023   0.713 -0.5387  0.1405 -0.7783
 1380TIP3    H125699   4.144   0.027   0.674  0.0166  0.0660  0.3943
 1380TIP3    H225700   4.026   0.114   0.712  1.7772  1.2311  3.4659
 1381TIP3   OH225701   3.150   1.772   8.228  0.2129 -0.0433 -0.3606
 1381TIP3    H125702   3.155   1.682   8.195 -0.0436 -1.2611  2.6228
 1381TIP3    H225703   3.227   1.781   8.285 -0.5618  1.1080  0.5399
 1382TIP3   OH225704   5.910   5.207   7.210  0.8287  0.1947 -0.1902
 1382TIP3    H125705   5.829   5.189   7.163  0.4188  0.1847  0.5054
 1382TIP3    H225706   5.882   5.239   7.295  1.5232 -1.3033  0.6568
 1383TIP3   OH225707   6.808   5.041   6.968 -0.3060  0.0153 -0.2491
 1383TIP3    H125708   6.723   4.997   6.968  0.4171 -1.5252  1.9321
 1383TIP3    H225709   6.797   5.114   7.028  0.2532 -1.0277  1.1742
 1384TIP3   OH225710   2.401   5.996   6.555 -0.0832 -0.0156  0.2217
 1384TIP3    H125711   2.446   5.965   6.476  0.6189 -0.1033  0.6510
 1384TIP3    H225712   2.365   5.917   6.595  0.7798 -0.1536  0.7402
 1385TIP3   OH225713   5.786   2.760   7.225 -0.3016  0.8735 -0.1425
 1385TIP3    H125714   5.848   2.768   7.297  0.6687  0.8411 -0.9413
 1385TIP3    H225715   5.737   2.679   7.243 -1.4009  1.8518  1.4392
 1386TIP3   OH225716   3.444   4.047   7.450  0.3716  0.4423 -0.8258
 1386TIP3    H125717   3.517   4.099   7.483  0.7993  0.6258 -1.9921
 1386TIP3    H225718   3.384   4.111   7.411  0.6006  0.1358 -1.7084
 1387TIP3   OH225719   0.836   3.179   1.988 -0.3725  0.6188  0.1096
 1387TIP3    H125720   0.908   3.116   1.985 -0.2824  0.7720 -1.3955
 1387TIP3    H225721   0.860   3.238   2.059  1.4174  1.1534 -0.8836
 1388TIP3   OH225722   2.750   4.205   0.806  0.0773  0.0923 -0.8797
 1388TIP3    H125723   2.794   4.193   0.890 -2.7002  1.0396  0.8547
 1388TIP3    H225724   2.756   4.119   0.763 -1.6759 -1.6677  2.0560
 1389TIP3   OH225725   2.482   5.913   0.072 -0.1290  0.0350 -0.1581
 1389TIP3    H125726   2.516   5.860  -0.000 -0.9012 -0.4652 -0.1771
 1389TIP3    H225727   2.488   6.003   0.041  1.8410  0.0368  0.1408
 1390TIP3   OH225728   1.993   2.903   7.977 -0.0321  0.0075 -0.5653
 1390TIP3    H125729   1.948   2.958   7.913 -1.6163  0.2647  0.6758
 1390TIP3    H225730   1.949   2.818   7.970 -1.1581  0.4118  1.0339
 1391TIP3   OH225731   6.446   2.679   7.105  0.0378  0.4340  0.0028
 1391TIP3    H125732   6.520   2.675   7.165 -0.8284  0.7078  1.1271
 1391TIP3    H225733   6.485   2.689   7.019  1.3045  0.9955  0.6185
 1392TIP3   OH225734   5.028   4.451   7.632  0.2163  0.0591  0.3073
 1392TIP3    H125735   5.069   4.413   7.710  1.0640  1.6533  0.6819
 1392TIP3    H225736   4.941   4.477   7.661  0.5910  0.8085  0.7987
 1393TIP3   OH225737   3.970   6.704   0.914  0.1891  0.2175  0.2089
 1393TIP3    H125738   3.955   6.609   0.922  1.0416  0.0993  0.5553
 1393TIP3    H225739   4.065   6.714   0.925  0.1067  1.1157  0.1665
 1394TIP3   OH225740   3.857   5.199   2.473  0.7879  0.0298 -0.1737
 1394TIP3    H125741   3.791   5.192   2.542  2.0915  1.0045  1.2432
 1394TIP3    H225742   3.827   5.272   2.418  0.8810  0.7401  0.6975
 1395TIP3   OH225743   3.499   5.478   7.421  0.4561  0.1702 -0.5436
 1395TIP3    H125744   3.449   5.512   7.347 -1.2332 -1.0363 -0.0284
 1395TIP3    H225745   3.526   5.556   7.469 -2.5787  0.9179  0.1547
 1396TIP3   OH225746   5.354   2.841   6.602 -0.0984  0.2229  0.3104
 1396TIP3    H125747   5.279   2.783   6.601 -0.8256  1.1423  0.1844
 1396TIP3    H225748   5.380   2.848   6.510  0.7681 -0.8672  0.4571
 1397TIP3   OH225749   1.610   0.982   8.513  0.2394  0.5796  0.0862
 1397TIP3    H125750   1.670   1.057   8.521 -1.6284  2.2831 -0.9006
 1397TIP3    H225751   1.667   0.907   8.499  2.4179  1.1623  4.4029
 1398TIP3   OH225752   4.169   6.830   8.366 -0.4381 -0.0186  0.0899
 1398TIP3    H125753   4.161   6.757   8.427  0.1124 -0.1769 -0.0211
 1398TIP3    H225754   4.158   6.908   8.420  0.9726 -0.1281  0.5630
 1399TIP3   OH225755   5.233   5.782   1.649  0.3006 -0.4065 -0.3192
 1399TIP3    H125756   5.312   5.757   1.697 -0.3615 -0.2699  0.8876
 1399TIP3    H225757   5.194   5.851   1.702 -1.1186 -1.1198 -0.3834
 1400TIP3   OH225758   5.309   6.473   2.305 -0.0240  0.2429  0.4021
 1400TIP3    H125759   5.358   6.462   2.387 -0.3051  0.5302  0.6060
 1400TIP3    H225760   5.269   6.387   2.289  0.1066  0.1613  0.5148
 1401TIP3   OH225761   4.328   4.307   1.785  0.1064  0.0308 -0.5851
 1401TIP3    H125762   4.350   4.249   1.858 -0.9360  1.9320  1.3518
 1401TIP3    H225763   4.294   4.249   1.718  1.1811 -1.8177  0.3787
 1402TIP3   OH225764   3.634   0.412   1.686  1.0039  0.3236  0.2522
 1402TIP3    H125765   3.620   0.500   1.723  1.7058  0.0367  1.2415
 1402TIP3    H225766   3.659   0.428   1.595 -1.3737  1.0261 -0.3348
 1403TIP3   OH225767   2.302   2.374   7.015 -0.2021  0.4336 -0.3342
 1403TIP3    H125768   2.294   2.300   6.955  1.4417 -0.8071  0.8700
 1403TIP3    H225769   2.374   2.426   6.980  0.2836  0.0953  0.1439
 1404TIP3   OH225770   5.524   0.147   7.588 -0.1254  0.3485  0.1584
 1404TIP3    H125771   5.572   0.136   7.505 -0.5045 -1.3458  0.1230
 1404TIP3    H225772   5.593   0.165   7.652  0.4630 -0.7841 -0.1176
 1405TIP3   OH225773   0.178   2.099   7.029  0.3208  0.1863  0.7179
 1405TIP3    H125774   0.151   2.049   7.107 -1.6391  1.5776  1.0086
 1405TIP3    H225775   0.163   2.190   7.053  0.3893  0.6975 -1.0548
 1406TIP3   OH225776   5.774   5.539   1.109 -0.2887 -0.1561  0.0347
 1406TIP3    H125777   5.827   5.618   1.118 -0.7009  0.1515 -0.2130
 1406TIP3    H225778   5.834   5.473   1.076  0.7218 -0.6936  2.6869
 1407TIP3   OH225779   2.146   2.804   7.079  0.1677 -0.2780  0.3751
 1407TIP3    H125780   2.176   2.883   7.125  1.3373 -0.3380 -0.2480
 1407TIP3    H225781   2.226   2.765   7.044 -0.7625  0.5854 -3.0138
 1408TIP3   OH225782   0.910   6.749   8.194  0.2600  0.5667  0.2402
 1408TIP3    H125783   0.924   6.816   8.127 -0.4131 -0.4735 -1.0138
 1408TIP3    H225784   0.997   6.717   8.216  0.4626  0.2699 -0.8937
 1409TIP3   OH225785   3.416   2.724   0.970 -0.6520 -0.4053  0.0776
 1409TIP3    H125786   3.399   2.769   1.053 -2.0867  0.5314 -0.6848
 1409TIP3    H225787   3.372   2.640   0.978  0.7092 -1.0837  0.9026
 1410TIP3   OH225788   1.877   3.944   2.626 -0.1819  0.0400  0.1439
 1410TIP3    H125789   1.802   4.003   2.624 -1.4936 -1.5362  0.2928
 1410TIP3    H225790   1.951   3.997   2.598 -1.2826  1.7443  0.3423
 1411TIP3   OH225791   5.181   5.823   2.279  0.2712  0.1724  0.6882
 1411TIP3    H125792   5.241   5.855   2.346 -0.2070  1.3758  0.5548
 1411TIP3    H225793   5.136   5.901   2.247 -1.9495 -0.7715  1.3219
 1412TIP3   OH225794   3.606   5.669   7.575  0.4859  0.1960  0.4460
 1412TIP3    H125795   3.599   5.758   7.610  1.9428  0.8972 -0.9076
 1412TIP3    H225796   3.666   5.625   7.635 -1.8465 -0.5894  2.3310
 1413TIP3   OH225797   0.016   4.967   8.373 -0.9376 -0.1915  0.0402
 1413TIP3    H125798   0.096   4.984   8.423 -1.6758  1.8276  0.6428
 1413TIP3    H225799   0.046   4.940   8.286  0.3657 -1.5765  0.8740
 1414TIP3   OH225800   4.014   4.776   0.706 -0.6714  0.0188  0.1018
 1414TIP3    H125801   3.984   4.840   0.641  0.6752  0.6565  0.0763
 1414TIP3    H225802   3.969   4.695   0.682  0.0022  0.1579 -1.8033
 1415TIP3   OH225803   4.656   3.064   6.368  0.1569 -0.0127  0.4486
 1415TIP3    H125804   4.729   3.005   6.351  0.1757 -0.0963  0.8261
 1415TIP3    H225805   4.581   3.022   6.327  0.6615  0.9860 -1.6473
 1416TIP3   OH225806   1.592   4.965   8.351  0.0047  0.3160 -0.0576
 1416TIP3    H125807   1.506   5.006   8.350 -0.3132 -0.3432 -0.1109
 1416TIP3    H225808   1.586   4.897   8.418 -0.6107 -1.9710 -2.2554
 1417TIP3   OH225809   3.361   1.789   7.108  0.2145 -0.4409 -0.1707
 1417TIP3    H125810   3.358   1.727   7.035 -2.2130  0.5493 -0.9836
 1417TIP3    H225811   3.300   1.752   7.172 -1.6770  1.2675 -0.8843
 1418TIP3   OH225812   3.676   2.562   1.636 -0.1836  0.1651 -0.3185
 1418TIP3    H125813   3.630   2.635   1.594 -2.8234 -1.4030 -0.3759
 1418TIP3    H225814   3.655   2.572   1.729  0.6859  0.2957 -0.1344
 1419TIP3   OH225815   2.362   4.143   0.495  0.0321 -0.9370 -0.0829
 1419TIP3    H125816   2.451   4.146   0.532 -0.1916  1.1100  0.4145
 1419TIP3    H225817   2.306   4.118   0.568  0.0839 -1.1559 -0.1193
 1420TIP3   OH225818   6.244   5.948   1.924 -0.2728 -0.1130 -0.4489
 1420TIP3    H125819   6.263   6.025   1.978 -0.0541 -0.4904  0.0263
 1420TIP3    H225820   6.253   5.874   1.985 -0.5048 -0.5091 -0.8928
 1421TIP3   OH225821   0.270   3.257   2.097 -0.0446  0.2931  0.1384
 1421TIP3    H125822   0.319   3.265   2.015  0.4398  0.7140  0.4662
 1421TIP3    H225823   0.276   3.164   2.119 -1.6895 -0.2012 -1.2192
 1422TIP3   OH225824   4.621   2.983   8.372 -0.3745  0.3116  0.4424
 1422TIP3    H125825   4.629   2.998   8.278  0.3777  0.0507  0.4635
 1422TIP3    H225826   4.679   2.910   8.390 -2.3924 -1.3140  0.6974
 1423TIP3   OH225827   0.174   4.007   0.019 -0.4720 -0.6264 -0.0777
 1423TIP3    H125828   0.235   4.081   0.022 -1.9638  0.7201 -1.0802
 1423TIP3    H225829   0.229   3.930   0.030  1.1696  0.6053  0.8874
 1424TIP3   OH225830   4.746   1.460   0.346 -0.0730 -0.5646  0.3272
 1424TIP3    H125831   4.674   1.396   0.340 -0.2772 -0.4190  1.0679
 1424TIP3    H225832   4.710   1.531   0.399  0.6572 -0.5360  0.7924
 1425TIP3   OH225833   4.655   1.026   7.536 -0.3654 -0.2278  0.3556
 1425TIP3    H125834   4.704   1.060   7.461 -1.7911  0.3092 -0.3477
 1425TIP3    H225835   4.708   1.050   7.612  1.0818 -0.7481 -0.4492
 1426TIP3   OH225836   3.396   6.764   0.265 -0.1099 -0.2594 -0.0148
 1426TIP3    H125837   3.358   6.681   0.296 -2.5840  0.6584 -0.3779
 1426TIP3    H225838   3.422   6.810   0.345  1.2292 -1.2967  0.1942
 1427TIP3   OH225839   2.708   2.805   8.029  0.0203 -0.3067 -0.5216
 1427TIP3    H125840   2.632   2.857   8.003 -0.3745 -0.3712  0.4584
 1427TIP3    H225841   2.751   2.857   8.097  1.1118 -0.0711 -1.3671
 1428TIP3   OH225842   4.410   4.350   0.355  0.0578 -0.3116 -0.5813
 1428TIP3    H125843   4.344   4.412   0.388  0.1052  0.0937 -1.2353
 1428TIP3    H225844   4.414   4.367   0.261  0.7045 -0.7091 -0.6309
 1429TIP3   OH225845   2.813   5.924   2.917  0.1843 -0.1013 -0.9437
 1429TIP3    H125846   2.772   5.838   2.929 -0.3562  0.0206 -1.8126
 1429TIP3    H225847   2.876   5.910   2.846  0.6732  0.0322 -0.5367
 1430TIP3   OH225848   5.464   5.036   1.882  0.2971 -0.0143  0.5870
 1430TIP3    H125849   5.514   5.039   1.963 -0.0808 -0.0389  0.8210
 1430TIP3    H225850   5.515   4.979   1.824 -0.7232 -2.0882  1.6636
 1431TIP3   OH225851   1.646   2.694   7.021 -0.3054 -0.1602 -0.3029
 1431TIP3    H125852   1.722   2.672   7.075  0.7491 -0.1184 -1.6796
 1431TIP3    H225853   1.641   2.622   6.958 -0.9583  0.2053 -0.6719
 1432TIP3   OH225854   2.613   4.765   8.320  0.2496  0.0459 -0.0549
 1432TIP3    H125855   2.652   4.847   8.292  2.3750 -1.1537 -0.8529
 1432TIP3    H225856   2.645   4.752   8.409 -0.6712  0.3907  0.3438
 1433TIP3   OH225857   6.187   5.461   8.253 -0.2501  0.0418  0.7920
 1433TIP3    H125858   6.201   5.368   8.235  1.8073 -0.2012  3.2002
 1433TIP3    H225859   6.233   5.506   8.182 -2.7469 -0.6241 -1.4307
 1434TIP3   OH225860   3.739   3.373   8.483 -0.1119 -0.4096  0.3020
 1434TIP3    H125861   3.684   3.366   8.561 -0.2579 -1.5144  0.1075
 1434TIP3    H225862   3.806   3.437   8.507 -0.4890 -0.3180  1.1315
 1435TIP3   OH225863   4.824   3.516   2.744 -0.1534 -0.1765 -0.9064
 1435TIP3    H125864   4.897   3.572   2.716  1.1624 -2.1129 -1.5816
 1435TIP3    H225865   4.777   3.569   2.808  0.4472  2.0350 -2.1862
 1436TIP3   OH225866   4.393   6.432   7.232  0.0016 -0.4946  0.8288
 1436TIP3    H125867   4.361   6.347   7.263  0.3254 -2.0179 -2.5199
 1436TIP3    H225868   4.328   6.495   7.262 -2.4908 -2.5106  0.0534
 1437TIP3   OH225869   4.097   3.573   1.558 -0.3810 -0.1174  0.6340
 1437TIP3    H125870   4.071   3.482   1.566  0.0990 -0.2247  1.0131
 1437TIP3    H225871   4.187   3.576   1.591 -0.9748  0.7966  2.2707
 1438TIP3   OH225872   5.025   3.393   2.567 -0.0900 -0.5269  0.5211
 1438TIP3    H125873   4.932   3.402   2.585  0.1178 -0.4630  1.6226
 1438TIP3    H225874   5.061   3.481   2.577 -0.2238 -0.1000 -2.0269
 1439TIP3   OH225875   5.202   6.580   6.872  0.1940 -0.2532  0.5445
 1439TIP3    H125876   5.222   6.664   6.914 -2.2956  0.3662  0.6588
 1439TIP3    H225877   5.229   6.592   6.781  0.8397  0.2950  0.8006
 1440TIP3   OH225878   2.551   1.590   8.294 -0.4921 -0.7712  0.3026
 1440TIP3    H125879   2.618   1.652   8.322 -0.1524  0.3029 -2.5949
 1440TIP3    H225880   2.538   1.534   8.370  1.7569  0.6329  1.8545
 1441TIP3   OH225881   6.860   2.914   0.635 -0.6951 -0.7237  0.0737
 1441TIP3    H125882   6.907   2.964   0.568 -2.4211  0.2144 -0.4757
 1441TIP3    H225883   6.849   2.827   0.596 -0.6480 -0.5326 -0.3721
 1442TIP3   OH225884   0.902   4.767   1.442  0.1640 -0.2370 -0.5062
 1442TIP3    H125885   0.906   4.688   1.495 -0.2741  0.5200  0.6897
 1442TIP3    H225886   0.817   4.763   1.398 -2.5705  2.1066  3.8147
 1443TIP3   OH225887   5.937   1.275   1.339  0.2016 -0.4350  0.4219
 1443TIP3    H125888   5.891   1.287   1.256  1.9703 -0.6378 -0.6455
 1443TIP3    H225889   5.892   1.202   1.381 -1.2351  0.2016  0.0382
 1444TIP3   OH225890   0.308   6.183   8.445  0.4415 -0.0302 -0.1231
 1444TIP3    H125891   0.396   6.219   8.434  0.0358  1.0182 -0.0389
 1444TIP3    H225892   0.297   6.175   8.539  0.3646  0.0496 -0.1252
 1445TIP3   OH225893   1.707   3.887   7.675  0.1847  0.0949 -0.3171
 1445TIP3    H125894   1.715   3.935   7.757  0.2758 -2.5904  1.3564
 1445TIP3    H225895   1.788   3.906   7.628  1.1781 -0.1046  1.2574
 1446TIP3   OH225896   5.823   6.586   1.381 -0.9469 -0.3323 -0.2925
 1446TIP3    H125897   5.775   6.574   1.300 -1.5743  0.6389 -0.0812
 1446TIP3    H225898   5.852   6.678   1.378  0.7628 -0.8395 -0.3404
 1447TIP3   OH225899   5.014   2.334   7.641  0.5758 -0.4044 -0.2836
 1447TIP3    H125900   5.102   2.365   7.620  0.0596 -0.0942 -2.1356
 1447TIP3    H225901   5.023   2.239   7.649  0.9824 -0.4355 -1.0437
 1448TIP3   OH225902   3.298   2.375   1.322 -0.3557 -0.1231  0.6401
 1448TIP3    H125903   3.230   2.373   1.390  0.1380  0.1380  1.1445
 1448TIP3    H225904   3.314   2.468   1.307 -2.4678 -0.0428 -1.8811
 1449TIP3   OH225905   2.415   5.750   1.582 -0.0831 -0.1513  0.0754
 1449TIP3    H125906   2.416   5.811   1.508  1.0152 -0.5053 -0.2341
 1449TIP3    H225907   2.398   5.665   1.541  2.1092 -0.6016 -0.0353
 1450TIP3   OH225908   6.741   2.000   7.572  0.0868 -0.4353  0.1243
 1450TIP3    H125909   6.798   2.062   7.618  0.8934 -0.5495 -0.6782
 1450TIP3    H225910   6.699   2.051   7.503 -1.3639 -0.1943  1.1633
 1451TIP3   OH225911   4.916   1.773   0.453  0.4268 -0.2862 -0.3722
 1451TIP3    H125912   5.008   1.766   0.425  0.5384 -2.1329  0.3276
 1451TIP3    H225913   4.869   1.798   0.374  1.3999 -0.2827 -0.9675
 1452TIP3   OH225914   3.407   5.436   0.358 -0.5190 -0.1538  0.3037
 1452TIP3    H125915   3.348   5.502   0.320  1.2044 -0.2403 -2.8449
 1452TIP3    H225916   3.462   5.407   0.284 -0.1607 -4.0457  1.8470
 1453TIP3   OH225917   3.267   5.455   7.269 -0.0915  0.3492 -0.2349
 1453TIP3    H125918   3.271   5.546   7.298  0.4123  0.7904 -1.6130
 1453TIP3    H225919   3.207   5.455   7.194  0.3468 -0.3391 -0.6064
 1454TIP3   OH225920   6.156   5.054   1.459 -0.0884  0.2967  0.6080
 1454TIP3    H125921   6.073   5.033   1.416  0.0176 -0.4937  0.7791
 1454TIP3    H225922   6.132   5.113   1.530 -0.7122 -1.0544  1.5625
 1455TIP3   OH225923   0.012   5.345   0.373 -0.2620  0.4842 -0.0535
 1455TIP3    H125924   0.083   5.401   0.404  0.8217 -1.6427  1.4777
 1455TIP3    H225925   0.053   5.290   0.306 -0.3609 -0.9078  0.9973
 1456TIP3   OH225926   5.332   1.215   7.761 -0.8437  0.4999 -0.0674
 1456TIP3    H125927   5.269   1.167   7.706 -0.2767  0.7862 -0.9878
 1456TIP3    H225928   5.389   1.147   7.796 -1.0755  0.3326 -0.0143
 1457TIP3   OH225929   0.644   0.214   1.457 -0.1030 -0.4075  0.7916
 1457TIP3    H125930   0.615   0.207   1.548 -1.7570 -1.4964  0.2229
 1457TIP3    H225931   0.634   0.307   1.436  0.2600 -0.1541  1.7006
 1458TIP3   OH225932   6.725   1.743   0.934  0.7305  0.1130  0.5891
 1458TIP3    H125933   6.788   1.673   0.916  0.8222 -0.6239  3.3622
 1458TIP3    H225934   6.695   1.726   1.023 -2.7676  0.9623 -0.2803
 1459TIP3   OH225935   2.957   1.152   6.109 -0.0146 -0.1822  0.2372
 1459TIP3    H125936   2.885   1.209   6.081  0.7877  1.0571  0.6247
 1459TIP3    H225937   2.918   1.065   6.113 -1.1158  0.2269 -0.9765
 1460TIP3   OH225938   2.587   6.093   6.947 -0.2665  0.2233 -0.4412
 1460TIP3    H125939   2.630   6.037   7.012  0.4467  0.3187 -0.8282
 1460TIP3    H225940   2.538   6.033   6.892 -0.3461  0.0793 -0.2126
 1461TIP3   OH225941   2.457   4.293   0.913 -0.2823 -0.2879 -0.5309
 1461TIP3    H125942   2.430   4.212   0.868 -0.0715 -0.2560 -0.7171
 1461TIP3    H225943   2.541   4.316   0.873  0.0909 -0.4613  0.1510
 1462TIP3   OH225944   5.255   1.437   7.611 -0.3524  0.5228 -0.4421
 1462TIP3    H125945   5.252   1.524   7.652 -3.0040  0.5245 -0.4897
 1462TIP3    H225946   5.262   1.376   7.684 -0.0501  0.6935 -0.3235
 1463TIP3   OH225947   6.603   4.718   0.967 -0.2086  0.7164  0.3031
 1463TIP3    H125948   6.512   4.736   0.946 -0.1847  0.0913 -0.3729
 1463TIP3    H225949   6.601   4.685   1.057 -0.7742 -0.2724 -0.0577
 1464TIP3   OH225950   0.482   0.094   7.297  0.1747  0.5666 -0.6997
 1464TIP3    H125951   0.399   0.052   7.272  1.9963 -2.1608 -2.7399
 1464TIP3    H225952   0.519   0.126   7.215  1.9966 -0.0050 -0.1431
 1465TIP3   OH225953   1.312   1.579   7.908 -0.1167 -0.0578  0.7732
 1465TIP3    H125954   1.353   1.529   7.838 -0.8684  1.5209 -0.9031
 1465TIP3    H225955   1.383   1.598   7.969  0.4057 -2.1131  0.8810
 1466TIP3   OH225956   4.012   0.517   7.450 -0.1605 -0.5516  0.2329
 1466TIP3    H125957   4.107   0.526   7.461  0.1514 -2.9203  0.0911
 1466TIP3    H225958   3.975   0.556   7.529  0.8392  1.4082 -0.2144
 1467TIP3   OH225959   2.442   2.254   0.779 -0.0581 -0.1867 -0.0676
 1467TIP3    H125960   2.361   2.221   0.818  0.1366 -1.4055 -0.6568
 1467TIP3    H225961   2.419   2.341   0.746  0.3035  1.9655  4.5873
 1468TIP3   OH225962   2.368   5.317   8.166 -0.1211  0.4030  0.2773
 1468TIP3    H125963   2.463   5.329   8.174  0.0679 -0.1617 -0.9035
 1468TIP3    H225964   2.356   5.222   8.159 -0.7461  0.4859  0.1365
 1469TIP3   OH225965   5.141   2.382   7.213 -0.6201 -0.0339  0.1369
 1469TIP3    H125966   5.171   2.390   7.122 -1.4604 -0.5485 -0.1956
 1469TIP3    H225967   5.059   2.334   7.207  0.2932 -1.8740  1.3335
 1470TIP3   OH225968   6.090   0.678   0.236 -0.5976  0.6950  0.0655
 1470TIP3    H125969   6.073   0.696   0.143  0.0649  1.9226  0.1602
 1470TIP3    H225970   6.181   0.705   0.249 -0.6098  0.3043  1.0279
 1471TIP3   OH225971   5.009   2.699   7.706  0.2141  0.4933  0.3678
 1471TIP3    H125972   4.976   2.644   7.777 -1.6457  1.7286  0.5274
 1471TIP3    H225973   5.030   2.782   7.748 -0.9399  1.2514 -0.5065
 1472TIP3   OH225974   1.108   1.375   0.684 -0.6656 -0.2078 -0.1268
 1472TIP3    H125975   1.084   1.433   0.612  1.1985 -2.3760 -2.6969
 1472TIP3    H225976   1.178   1.422   0.731  0.6165 -0.1662 -1.9779
 1473TIP3   OH225977   2.938   4.157   7.968 -0.0491  0.1595  0.2249
 1473TIP3    H125978   2.873   4.226   7.982  0.9735  1.7466 -2.2212
 1473TIP3    H225979   2.885   4.078   7.953 -1.4082  1.1360 -0.3927
 1474TIP3   OH225980   0.956   6.357   1.226 -0.3061  0.5139  0.0328
 1474TIP3    H125981   0.902   6.331   1.151  0.3095  0.3402 -0.3520
 1474TIP3    H225982   1.046   6.339   1.199 -0.1670 -1.0814  1.4153
 1475TIP3   OH225983   3.272   3.095   8.397  0.0389 -0.2621  0.6344
 1475TIP3    H125984   3.315   3.177   8.419  3.4437 -1.6973 -0.1300
 1475TIP3    H225985   3.289   3.038   8.471 -1.8606 -0.5291  0.9345
 1476TIP3   OH225986   5.997   5.694   1.650 -0.2621  0.2040 -0.4764
 1476TIP3    H125987   6.092   5.694   1.664  0.2059 -0.0024 -3.1082
 1476TIP3    H225988   5.978   5.781   1.614 -1.4511  0.9563  1.7755
 1477TIP3   OH225989   4.921   5.362   7.221  0.0752 -0.0493 -0.2049
 1477TIP3    H125990   4.906   5.295   7.288 -1.2940  0.5852  0.1632
 1477TIP3    H225991   4.835   5.377   7.182  0.7906 -0.1609 -1.8992
 1478TIP3   OH225992   0.536   5.468   8.185  0.3505 -0.2931  1.1735
 1478TIP3    H125993   0.589   5.430   8.255  0.7354 -2.0445  0.0004
 1478TIP3    H225994   0.448   5.436   8.200  0.7801 -2.2611 -0.1378
 1479TIP3   OH225995   3.264   1.495   7.374  0.1497 -0.1793  0.1720
 1479TIP3    H125996   3.353   1.530   7.376  0.6688 -1.3876 -0.4575
 1479TIP3    H225997   3.254   1.448   7.456  0.2734 -0.4576  0.0287
 1480TIP3   OH225998   4.163   3.861   1.503  0.8052  0.1052 -0.1602
 1480TIP3    H125999   4.189   3.891   1.590 -0.4482  2.2663 -0.4467
 1480TIP3    H226000   4.122   3.776   1.518  1.3869  0.0321  1.2184
 1481TIP3   OH226001   6.647   4.629   1.975 -0.1662  0.3990  0.6540
 1481TIP3    H126002   6.613   4.703   1.925 -0.7656  1.1570  2.1130
 1481TIP3    H226003   6.681   4.668   2.056  0.6691 -0.7860  0.9067
 1482TIP3   OH226004   1.781   3.568   2.169  0.0615 -0.6755 -0.1136
 1482TIP3    H126005   1.801   3.620   2.091 -0.0940  2.3879  1.7207
 1482TIP3    H226006   1.687   3.551   2.163 -0.4584  1.6422  0.4664
 1483TIP3   OH226007   4.698   5.806   6.883 -0.4498 -0.5640 -0.3914
 1483TIP3    H126008   4.653   5.744   6.825  2.0538 -1.3276 -1.6280
 1483TIP3    H226009   4.745   5.865   6.824  2.4869 -1.5836  0.7686
 1484TIP3   OH226010   1.777   3.883   8.206  0.5378 -0.1966 -0.2279
 1484TIP3    H126011   1.778   3.884   8.110  0.2951 -0.8177 -0.2449
 1484TIP3    H226012   1.863   3.852   8.231  0.4795 -0.3771 -0.2530
 1485TIP3   OH226013   6.360   0.936   6.957  0.1742  0.0773 -0.0984
 1485TIP3    H126014   6.367   0.873   7.029  0.8604 -0.8789 -0.9827
 1485TIP3    H226015   6.349   0.883   6.879  2.8884  0.8818 -1.1577
 1486TIP3   OH226016   0.911   6.221   6.790  0.0993  0.0790 -0.0084
 1486TIP3    H126017   0.927   6.314   6.780  1.3197  0.2284  2.4345
 1486TIP3    H226018   0.816   6.213   6.803  0.0132  0.9979 -0.0416
 1487TIP3   OH226019   4.424   6.109   8.192 -0.3849  0.0191 -0.2388
 1487TIP3    H126020   4.331   6.088   8.191 -0.1227 -1.2220 -0.9889
 1487TIP3    H226021   4.453   6.088   8.280 -0.8890  0.8208  0.1297
 1488TIP3   OH226022   0.314   6.419   7.729 -0.1066 -0.3321  0.3640
 1488TIP3    H126023   0.311   6.500   7.780 -0.0703 -0.8765  1.2493
 1488TIP3    H226024   0.302   6.447   7.638  0.3722  0.7128  0.6086
 1489TIP3   OH226025   4.647   1.054   1.213 -0.2534  0.2069 -0.7181
 1489TIP3    H126026   4.671   1.139   1.175 -0.4623  0.8156  0.4862
 1489TIP3    H226027   4.728   1.003   1.210  0.0284  0.6614 -0.8886
 1490TIP3   OH226028   4.453   1.901   7.342  0.4690  0.1826 -0.0571
 1490TIP3    H126029   4.506   1.980   7.339 -0.4400  0.7819 -1.5620
 1490TIP3    H226030   4.497   1.840   7.283  0.3108  0.1448 -0.1380
 1491TIP3   OH226031   1.483   5.526   7.012 -0.3798  0.1958 -0.0178
 1491TIP3    H126032   1.409   5.585   7.029  0.7770  1.9375 -0.6895
 1491TIP3    H226033   1.488   5.521   6.917  0.7414  0.6413  0.0020
 1492TIP3   OH226034   1.219   4.489   7.281 -0.0935 -0.2896 -0.7967
 1492TIP3    H126035   1.199   4.397   7.299  0.7136 -0.6854 -1.8080
 1492TIP3    H226036   1.308   4.501   7.313 -0.4321  0.3346 -0.0585
 1493TIP3   OH226037   6.155   3.063   0.772 -0.0128 -0.4608 -0.2242
 1493TIP3    H126038   6.207   3.022   0.842 -1.2983 -0.0976  0.9884
 1493TIP3    H226039   6.220   3.108   0.718  1.1599 -1.9252 -0.1108
 1494TIP3   OH226040   4.657   4.355   8.559  0.0368  1.1081 -0.4176
 1494TIP3    H126041   4.702   4.429   8.518  0.5558  1.0925  0.1094
 1494TIP3    H226042   4.673   4.366   8.652 -1.3734  1.2981 -0.1809
 1495TIP3   OH226043   6.373   6.466   8.092  0.3562  0.7882  0.6238
 1495TIP3    H126044   6.318   6.503   8.024  2.2423  1.9381 -0.3505
 1495TIP3    H226045   6.329   6.490   8.174 -0.9048  1.0801 -0.1128
 1496TIP3   OH226046   4.466   3.893   0.424  0.1700  0.2110  0.6982
 1496TIP3    H126047   4.457   3.988   0.435  0.9271  0.3557  0.1361
 1496TIP3    H226048   4.559   3.880   0.408  0.2497 -0.7526  1.8708
 1497TIP3   OH226049   5.870   3.307   0.333  0.0688  0.1883 -0.6102
 1497TIP3    H126050   5.845   3.249   0.261 -1.1361 -0.8626  0.6022
 1497TIP3    H226051   5.961   3.284   0.351 -0.3496 -1.3064 -0.2202
 1498TIP3   OH226052   1.883   0.682   6.493  0.3838  0.1533  0.0812
 1498TIP3    H126053   1.799   0.712   6.527 -1.5823 -1.7358 -2.5674
 1498TIP3    H226054   1.917   0.624   6.561 -0.7859  0.4425  0.9472
 1499TIP3   OH226055   5.325   4.939   2.719 -0.1875 -0.4617 -0.4533
 1499TIP3    H126056   5.345   4.866   2.661 -1.3112 -1.5379  0.4522
 1499TIP3    H226057   5.238   4.919   2.754  0.0764  0.5922  0.9018
 1500TIP3   OH226058   3.706   4.661   0.947  0.0515 -0.2007 -0.3801
 1500TIP3    H126059   3.698   4.677   1.041 -0.3980 -0.8453 -0.2977
 1500TIP3    H226060   3.704   4.748   0.907  1.0728  0.1343  0.2542
 1501TIP3   OH226061   6.880   0.904   7.743  0.1167  0.4270  0.0467
 1501TIP3    H126062   6.923   0.830   7.786  1.4206  0.9280 -0.3315
 1501TIP3    H226063   6.876   0.972   7.809  0.3588  0.5447 -0.0577
 1502TIP3   OH226064   0.383   6.852   8.044 -0.4679 -0.0000  0.0318
 1502TIP3    H126065   0.387   6.919   7.976 -0.6112 -1.1807 -1.1887
 1502TIP3    H226066   0.473   6.844   8.076  0.2271 -1.4095 -2.0599
 1503TIP3   OH226067   1.966   2.409   6.522  0.4272 -0.4338 -0.1408
 1503TIP3    H126068   1.885   2.448   6.488  0.0075 -0.8444  0.3777
 1503TIP3    H226069   1.950   2.315   6.520  0.4726 -0.4783  0.9751
 1504TIP3   OH226070   4.686   3.453   2.270  0.4908 -0.3058  0.0344
 1504TIP3    H126071   4.618   3.386   2.261 -0.6414  0.8559 -0.3363
 1504TIP3    H226072   4.672   3.489   2.358 -0.3901  0.9871 -0.6140
 1505TIP3   OH226073   4.191   2.851   7.134 -0.7018  0.4519 -0.4165
 1505TIP3    H126074   4.243   2.805   7.068  1.1475  3.0246 -0.9604
 1505TIP3    H226075   4.187   2.791   7.208 -0.4068 -1.4212 -1.8562
 1506TIP3   OH226076   0.213   6.222   1.641 -0.9258  0.0387 -0.0963
 1506TIP3    H126077   0.203   6.159   1.712  1.8358 -0.2021  0.1950
 1506TIP3    H226078   0.293   6.195   1.596 -1.1200  1.7967 -1.6284
 1507TIP3   OH226079   5.267   2.702   8.082  0.0276  0.8414  0.5829
 1507TIP3    H126080   5.193   2.688   8.023 -1.4603  0.2327  2.4877
 1507TIP3    H226081   5.235   2.767   8.145  1.8433  2.0700  0.3045
 1508TIP3   OH226082   5.960   5.281   7.707 -0.0713  0.1778  0.0331
 1508TIP3    H126083   6.045   5.284   7.752 -0.0044 -1.5953  0.0826
 1508TIP3    H226084   5.979   5.316   7.619  0.4757  0.7426  0.3665
 1509TIP3   OH226085   1.723   2.858   1.021  0.2681 -0.2029 -0.1514
 1509TIP3    H126086   1.779   2.898   0.956  0.1355 -0.7730 -0.6260
 1509TIP3    H226087   1.736   2.764   1.009 -0.3729 -0.3284  0.0952
 1510TIP3   OH226088   0.664   4.707   7.989 -0.2950  0.1204  0.5013
 1510TIP3    H126089   0.720   4.784   7.995 -0.1754  0.0143  0.7693
 1510TIP3    H226090   0.698   4.648   8.057 -0.0631 -0.3768 -0.0420
 1511TIP3   OH226091   3.559   0.150   6.204 -0.3274 -0.2804 -0.1336
 1511TIP3    H126092   3.468   0.179   6.208 -0.6527 -1.2513 -0.0590
 1511TIP3    H226093   3.554   0.061   6.167  0.6699 -0.0161 -0.9677
 1512TIP3   OH226094   1.312   0.551   0.774  0.1673 -0.1724 -0.3762
 1512TIP3    H126095   1.233   0.604   0.766 -1.2531 -2.0542  0.2487
 1512TIP3    H226096   1.360   0.590   0.846  0.2450  1.4884 -1.2837
 1513TIP3   OH226097   3.429   0.987   6.891 -0.3191 -0.4272 -0.4100
 1513TIP3    H126098   3.464   0.970   6.804  0.4428 -1.1055  0.0152
 1513TIP3    H226099   3.345   1.031   6.875  0.4874  0.8002 -1.4566
 1514TIP3   OH226100   3.907   3.151   0.091 -0.4770 -0.3141  0.3471
 1514TIP3    H126101   3.901   3.244   0.111 -0.6053 -0.1134 -0.5695
 1514TIP3    H226102   3.818   3.118   0.105 -0.6329 -0.1174 -0.1667
 1515TIP3   OH226103   3.120   6.751   1.292 -0.4541  0.6907 -0.1828
 1515TIP3    H126104   3.212   6.772   1.312 -0.2185  0.3244 -0.8569
 1515TIP3    H226105   3.123   6.713   1.204 -0.9340 -1.5829  0.7229
 1516TIP3   OH226106   6.288   2.098   1.119 -0.4474  0.1136 -0.0043
 1516TIP3    H126107   6.340   2.069   1.194 -1.2030  1.2176  0.9829
 1516TIP3    H226108   6.321   2.186   1.100 -1.3873  0.4929  0.0977
 1517TIP3   OH226109   5.011   3.066   1.128 -0.4813 -0.2580 -0.4888
 1517TIP3    H126110   5.007   3.032   1.039 -0.8439 -3.1789  0.5532
 1517TIP3    H226111   4.971   2.998   1.182 -0.0080  1.2787  1.9717
 1518TIP3   OH226112   3.304   0.058   1.120  0.3627  0.1942  0.3223
 1518TIP3    H126113   3.278   0.082   1.031 -1.0311  0.3154  0.7344
 1518TIP3    H226114   3.386   0.009   1.109 -1.2885 -2.4334 -1.3301
 1519TIP3   OH226115   4.732   0.927   8.153  0.2879  0.1044 -0.2984
 1519TIP3    H126116   4.806   0.974   8.114  0.8325  0.4970  1.1707
 1519TIP3    H226117   4.767   0.840   8.172  0.5230  0.4357  0.8228
 1520TIP3   OH226118   0.795   6.292   7.176  0.3329 -0.4000 -0.3564
 1520TIP3    H126119   0.819   6.374   7.133  2.1455 -1.0344 -0.6740
 1520TIP3    H226120   0.870   6.235   7.160 -0.4734 -1.8031  0.6852
 1521TIP3   OH226121   1.297   1.283   1.185 -0.6875 -0.1732 -0.4161
 1521TIP3    H126122   1.375   1.330   1.154 -0.4320  0.4505  1.1082
 1521TIP3    H226123   1.328   1.193   1.199 -1.0156 -0.6979 -2.6955
 1522TIP3   OH226124   6.082   5.538   0.791 -0.0039 -0.2469 -0.1728
 1522TIP3    H126125   6.164   5.500   0.823 -1.5214 -1.6267  2.3425
 1522TIP3    H226126   6.097   5.632   0.791  1.8105 -0.4993 -0.5343
 1523TIP3   OH226127   2.478   4.119   8.517 -0.0577  0.4863 -0.1246
 1523TIP3    H126128   2.562   4.074   8.532  0.3606  1.1320 -0.4798
 1523TIP3    H226129   2.503   4.210   8.498 -0.6722  0.2028 -2.5914
 1524TIP3   OH226130   2.569   0.328   0.117  0.7141  0.0724  0.1541
 1524TIP3    H126131   2.538   0.237   0.121  0.6782  0.0548 -0.4371
 1524TIP3    H226132   2.498   0.379   0.154  0.0702  0.0066 -0.9526
 1525TIP3   OH226133   5.170   0.715   7.167  0.2691  0.1341  0.0449
 1525TIP3    H126134   5.229   0.720   7.092 -1.9688  0.4015 -1.8014
 1525TIP3    H226135   5.173   0.624   7.194  1.3057  0.0872 -0.1610
 1526TIP3   OH226136   2.155   3.972   7.293  0.0371 -0.9554 -0.2771
 1526TIP3    H126137   2.160   4.065   7.313  0.4177 -1.1393  0.5463
 1526TIP3    H226138   2.091   3.965   7.223  0.0984 -0.0605 -0.4259
 1527TIP3   OH226139   0.714   2.889   6.937 -0.1510 -0.4638 -0.3215
 1527TIP3    H126140   0.765   2.863   7.014 -0.6073  0.0664  0.1685
 1527TIP3    H226141   0.758   2.967   6.903  0.4865 -1.1232 -1.0526
 1528TIP3   OH226142   5.462   0.853   6.516  0.0152 -0.0682  0.2779
 1528TIP3    H126143   5.417   0.770   6.503  0.8121 -0.7945  1.8246
 1528TIP3    H226144   5.455   0.898   6.432 -0.1621 -1.8322 -0.7049
 1529TIP3   OH226145   3.549   1.646   8.217 -0.2210 -0.2351 -0.1610
 1529TIP3    H126146   3.492   1.646   8.141 -2.3482  2.6884  1.2560
 1529TIP3    H226147   3.521   1.571   8.269 -0.4134 -0.8089 -1.0847
 1530TIP3   OH226148   5.187   5.926   1.933 -0.1523  0.2030  0.2597
 1530TIP3    H126149   5.159   5.835   1.936 -1.1536  0.5105  1.0957
 1530TIP3    H226150   5.142   5.967   2.007 -0.3515  1.5437 -0.5712
 1531TIP3   OH226151   6.120   0.567   7.635 -0.1989  0.2679  0.1127
 1531TIP3    H126152   6.131   0.501   7.703  0.1693 -0.3717 -0.5534
 1531TIP3    H226153   6.205   0.571   7.592 -1.0889 -1.1646 -1.9299
 1532TIP3   OH226154   1.318   5.142   1.066 -0.2176  0.5834 -0.5060
 1532TIP3    H126155   1.236   5.184   1.039  0.0687  1.4582 -0.0100
 1532TIP3    H226156   1.387   5.200   1.034  0.1968  0.1986 -0.3200
 1533TIP3   OH226157   5.614   6.723   7.361 -0.0843 -0.0772 -0.1292
 1533TIP3    H126158   5.638   6.739   7.452  1.4686 -0.8929 -0.3546
 1533TIP3    H226159   5.564   6.800   7.335  0.7615  0.8750  0.9567
 1534TIP3   OH226160   0.585   5.430   7.914  0.1714 -0.0063  0.1939
 1534TIP3    H126161   0.490   5.427   7.903  0.3468 -0.2850 -1.5153
 1534TIP3    H226162   0.598   5.459   8.004 -1.5306  1.1879  0.1014
 1535TIP3   OH226163   3.673   5.894   1.072 -0.9136  0.8302  0.0194
 1535TIP3    H126164   3.765   5.894   1.099 -0.8149 -1.9004  0.0144
 1535TIP3    H226165   3.673   5.938   0.987  0.7301 -0.6022 -0.7930
 1536TIP3   OH226166   6.177   6.075   1.698 -0.3177  0.4606  0.5599
 1536TIP3    H126167   6.098   6.067   1.750 -0.2398 -1.5354  0.4688
 1536TIP3    H226168   6.239   6.014   1.739  1.0491  1.6750  0.3895
 1537TIP3   OH226169   4.503   0.320   6.280 -0.1875 -0.5402  0.7743
 1537TIP3    H126170   4.577   0.260   6.266 -1.3292 -1.9580  0.5054
 1537TIP3    H226171   4.517   0.390   6.216  1.4978 -0.1759  1.4996
 1538TIP3   OH226172   4.260   0.910   1.843 -0.4989  0.3658  0.1103
 1538TIP3    H126173   4.329   0.849   1.869 -0.0903  1.3407  1.4162
 1538TIP3    H226174   4.196   0.855   1.796  0.5956 -0.7574 -0.1307
 1539TIP3   OH226175   0.013   0.120   7.998  0.3719  0.6866  0.0687
 1539TIP3    H126176   0.037   0.029   8.017 -1.6792  0.2256  0.6400
 1539TIP3    H226177  -0.033   0.116   7.914 -0.3923  1.0807  0.4617
 1540TIP3   OH226178   1.980   3.945   7.089 -0.6279 -0.8206  0.5844
 1540TIP3    H126179   1.915   3.884   7.055  1.3211 -2.5765 -0.2173
 1540TIP3    H226180   2.036   3.965   7.014  0.1738  0.0971  1.3883
 1541TIP3   OH226181   0.541   3.569   8.574 -0.5556 -0.0511 -0.0328
 1541TIP3    H126182   0.572   3.652   8.611  0.3690 -1.0552  1.5625
 1541TIP3    H226183   0.601   3.551   8.503 -0.7219  0.6096 -0.3490
 1542TIP3   OH226184   4.826   0.974   6.615  0.2957  0.5763  0.5116
 1542TIP3    H126185   4.770   0.944   6.544  2.1037 -1.9056 -0.0237
 1542TIP3    H226186   4.848   1.064   6.592  0.0374  0.1477 -1.5870
 1543TIP3   OH226187   4.795   4.722   8.232  0.2258  0.1810 -0.0458
 1543TIP3    H126188   4.705   4.713   8.201  0.0141 -0.9185  0.8443
 1543TIP3    H226189   4.800   4.666   8.309  1.9567 -0.5558 -0.6503
 1544TIP3   OH226190   2.922   3.528   0.235  0.5194 -0.2197 -0.2470
 1544TIP3    H126191   2.976   3.582   0.177 -0.1269  0.4813 -0.2116
 1544TIP3    H226192   2.833   3.534   0.198  0.5959 -2.0860 -0.8341
 1545TIP3   OH226193   2.828   3.823   0.250 -0.4271  0.0738  0.2437
 1545TIP3    H126194   2.841   3.738   0.292  0.7239  1.1909  2.3205
 1545TIP3    H226195   2.772   3.872   0.311 -1.0959  0.8095 -0.9191
 1546TIP3   OH226196   6.622   2.457   7.005 -0.0074 -0.7071  0.2272
 1546TIP3    H126197   6.559   2.407   7.056 -0.4500 -0.1494  0.2329
 1546TIP3    H226198   6.691   2.393   6.983  1.0309 -0.6150  2.8774
 1547TIP3   OH226199   5.116   0.220   0.935  0.0954 -0.3763 -1.1721
 1547TIP3    H126200   5.116   0.181   0.848 -2.0668 -0.1812 -1.3119
 1547TIP3    H226201   5.055   0.166   0.985  1.5455 -0.6910  0.3553
 1548TIP3   OH226202   4.425   1.036   8.377  0.1056 -0.5433  0.4040
 1548TIP3    H126203   4.382   1.055   8.294  1.5015  0.5456 -0.1108
 1548TIP3    H226204   4.378   1.089   8.442 -0.9383 -1.3427  0.3175
 1549TIP3   OH226205   2.774   5.753   7.332  0.4582  0.3120 -0.1716
 1549TIP3    H126206   2.817   5.761   7.246 -0.7247 -0.6079 -0.8814
 1549TIP3    H226207   2.685   5.723   7.311  0.4002 -0.7114  1.4390
 1550TIP3   OH226208   5.674   5.336   7.099  0.0275 -0.0068 -0.2010
 1550TIP3    H126209   5.678   5.291   7.015 -1.3553  2.2608 -1.5792
 1550TIP3    H226210   5.588   5.315   7.135 -0.4023  0.9921 -0.5917
 1551TIP3   OH226211   5.133   5.007   7.059  0.5861  0.2974  0.2587
 1551TIP3    H126212   5.066   4.942   7.080 -0.3329  0.9127 -0.6757
 1551TIP3    H226213   5.179   4.969   6.983  1.8842 -0.5075  1.3946
 1552TIP3   OH226214   2.912   1.518   1.240 -0.2635  0.0396 -0.3788
 1552TIP3    H126215   2.955   1.494   1.158 -0.9802 -0.8408 -0.5043
 1552TIP3    H226216   2.934   1.611   1.252  1.3814 -0.2953 -0.6033
 1553TIP3   OH226217   2.584   6.725   8.496  0.1548  0.0664 -0.1739
 1553TIP3    H126218   2.508   6.683   8.456  0.3409 -1.2134  0.7455
 1553TIP3    H226219   2.648   6.730   8.426 -1.2452  2.5908 -1.4109
 1554TIP3   OH226220   2.164   2.600   0.030  0.4988  0.1555  0.2195
 1554TIP3    H126221   2.194   2.510   0.025  1.7177  0.6044 -1.6718
 1554TIP3    H226222   2.084   2.596   0.082  0.5805 -1.9846  0.2670
 1555TIP3   OH226223   1.064   0.141   0.121 -0.0225 -0.5858  0.3177
 1555TIP3    H126224   1.072   0.070   0.058 -0.9651 -0.8632  0.4936
 1555TIP3    H226225   0.971   0.141   0.146  0.2624 -0.2512  1.4281
 1556TIP3   OH226226   1.510   6.003   7.894  0.6794  0.5619 -0.4181
 1556TIP3    H126227   1.515   5.911   7.866  1.0867  0.1069  1.0667
 1556TIP3    H226228   1.423   6.012   7.933  0.8390  0.6442 -0.0708
 1557TIP3   OH226229   4.445   6.470   0.749 -0.4466  0.2792  0.1638
 1557TIP3    H126230   4.494   6.389   0.732 -0.4525 -0.5963  3.5103
 1557TIP3    H226231   4.361   6.457   0.704  0.2547 -0.7069 -0.9312
 1558TIP3   OH226232   0.637   1.234   0.007  0.0116 -0.1111  0.2945
 1558TIP3    H126233   0.608   1.261   0.095 -0.2278  1.3079 -0.1789
 1558TIP3    H226234   0.732   1.230   0.013  0.3627  3.5159 -0.1859
 1559TIP3   OH226235   2.862   0.889   6.139 -0.0521  0.4322  1.0211
 1559TIP3    H126236   2.854   0.796   6.119  2.5735 -0.2486  2.7648
 1559TIP3    H226237   2.796   0.904   6.208 -1.1753  0.1564  0.0465
 1560TIP3   OH226238   4.253   1.600   1.378  0.1679 -0.0262  0.1807
 1560TIP3    H126239   4.180   1.543   1.354 -0.5039  1.6637 -2.2685
 1560TIP3    H226240   4.265   1.587   1.472 -3.1501 -0.5542  0.6376
 1561TIP3   OH226241   1.706   2.605   1.618  0.1565  0.4136 -0.6444
 1561TIP3    H126242   1.748   2.670   1.673  0.7218  0.0260 -0.6131
 1561TIP3    H226243   1.681   2.652   1.539  0.6813  0.6388 -0.6765
 1562TIP3   OH226244   2.979   3.818   1.105 -0.6552  0.6026 -0.5022
 1562TIP3    H126245   3.005   3.868   1.028  0.6558  0.4279 -0.2053
 1562TIP3    H226246   2.931   3.881   1.159  0.7855  1.5224 -0.2299
 1563TIP3   OH226247   3.109   0.607   1.982 -0.5803  0.4315 -0.1707
 1563TIP3    H126248   3.070   0.639   2.063 -2.0907 -1.9870  0.1914
 1563TIP3    H226249   3.201   0.592   2.003 -0.9283 -0.0527  1.0875
 1564TIP3   OH226250   3.915   1.252   8.389 -0.2343 -0.0903  0.0645
 1564TIP3    H126251   3.887   1.343   8.391  1.4050  0.5077 -1.5366
 1564TIP3    H226252   3.946   1.238   8.300 -2.4771 -2.9093 -0.3853
 1565TIP3   OH226253   5.097   0.807   0.540  0.2688  0.0359  0.1506
 1565TIP3    H126254   5.006   0.806   0.570  0.6140  0.5682  1.3118
 1565TIP3    H226255   5.140   0.869   0.599  1.6262 -1.0519  0.3653
 1566TIP3   OH226256   5.631   6.612   8.427 -0.0508 -0.2353 -0.3813
 1566TIP3    H126257   5.603   6.642   8.341 -0.8914 -1.3945 -0.5490
 1566TIP3    H226258   5.580   6.665   8.488 -0.0779  0.0161 -0.6194
 1567TIP3   OH226259   2.905   3.338   0.906 -0.4524  0.7133 -0.4591
 1567TIP3    H126260   2.993   3.341   0.945 -0.3505 -1.2668 -0.4227
 1567TIP3    H226261   2.852   3.293   0.971 -1.3112  1.1724 -0.8350
 1568TIP3   OH226262   5.929   0.354   7.550  0.2151 -0.5212 -0.3434
 1568TIP3    H126263   6.014   0.311   7.565  0.9688  0.3499 -1.8845
 1568TIP3    H226264   5.950   0.431   7.497 -1.5088 -0.0845 -0.4488
 1569TIP3   OH226265   1.719   2.272   8.320  0.2308 -0.6774 -0.0807
 1569TIP3    H126266   1.651   2.321   8.274 -1.4641 -0.4028  2.5256
 1569TIP3    H226267   1.792   2.334   8.327 -0.3877  0.0977 -0.3323
 1570TIP3   OH226268   1.540   6.269   1.271 -0.4033  0.2210  0.0286
 1570TIP3    H126269   1.522   6.341   1.210  0.1118 -1.3789 -2.1112
 1570TIP3    H226270   1.491   6.195   1.236 -0.8490 -0.5543  2.1432
 1571TIP3   OH226271   4.414   5.973   7.794  0.5985  0.0624 -0.1438
 1571TIP3    H126272   4.376   6.059   7.814 -0.8573 -0.4633 -0.4647
 1571TIP3    H226273   4.464   5.986   7.714 -1.4619  0.1918 -1.4854
 1572TIP3   OH226274   6.803   6.464   7.033  0.2245  1.1135  0.1701
 1572TIP3    H126275   6.809   6.494   6.942  0.5239  0.6430  0.0302
 1572TIP3    H226276   6.894   6.452   7.060  0.1285 -1.3730 -0.3679
 1573TIP3   OH226277   3.044   2.615   7.400 -0.1276  0.1281 -0.1222
 1573TIP3    H126278   2.997   2.680   7.348 -0.7564  0.2771  0.6090
 1573TIP3    H226279   3.107   2.576   7.340 -1.0541  0.0750 -1.0789
 1574TIP3   OH226280   2.571   3.072   1.636  0.0587 -0.7100  0.0592
 1574TIP3    H126281   2.600   3.036   1.552  0.1063 -0.5643  0.0132
 1574TIP3    H226282   2.623   3.151   1.647 -0.6668 -0.1712 -0.2592
 1575TIP3   OH226283   4.486   4.666   7.574 -0.0362  0.0624 -0.3126
 1575TIP3    H126284   4.566   4.696   7.531 -0.1054 -0.7627 -1.0346
 1575TIP3    H226285   4.510   4.660   7.667  0.7069 -0.0642 -0.5019
 1576TIP3   OH226286   4.492   2.544   1.842 -0.6256  1.1398  0.0389
 1576TIP3    H126287   4.538   2.625   1.823 -0.7551  1.5185  1.2291
 1576TIP3    H226288   4.545   2.501   1.909 -2.1151  1.7559  1.6913
 1577TIP3   OH226289   4.536   0.856   1.529  0.1130 -0.4739  0.0022
 1577TIP3    H126290   4.617   0.907   1.517 -0.5558  0.5916 -0.0903
 1577TIP3    H226291   4.565   0.777   1.574  1.5195 -1.0690 -1.8176
 1578TIP3   OH226292   1.912   2.741   0.205 -0.2551  0.3708  0.0769
 1578TIP3    H126293   1.849   2.744   0.277 -0.0643  1.5258  0.2016
 1578TIP3    H226294   1.916   2.648   0.182 -2.6298  0.3500 -0.5012
 1579TIP3   OH226295   0.590   6.393   8.150  0.0185 -0.4845  0.1593
 1579TIP3    H126296   0.674   6.383   8.104 -0.4515 -0.2924 -0.7492
 1579TIP3    H226297   0.568   6.485   8.142 -1.4533 -0.9404 -1.7323
 1580TIP3   OH226298   1.380   0.636   0.521 -0.2291 -0.1288 -0.5162
 1580TIP3    H126299   1.412   0.581   0.451  0.0320 -0.9014  0.1952
 1580TIP3    H226300   1.361   0.576   0.593 -0.7334  0.6113 -0.0087
 1581TIP3   OH226301   1.304   4.419   0.141 -0.3958 -0.3187  0.5430
 1581TIP3    H126302   1.280   4.328   0.125  0.4714 -0.4220 -0.3013
 1581TIP3    H226303   1.245   4.470   0.086 -1.2566 -0.3143  1.4349
 1582TIP3   OH226304   0.788   4.249   7.720 -0.5962  0.5324  0.2138
 1582TIP3    H126305   0.745   4.211   7.797 -0.2398 -1.7265 -0.6107
 1582TIP3    H226306   0.773   4.185   7.650  0.5810  1.6729 -1.1541
 1583TIP3   OH226307   4.067   0.199   1.414 -0.0488  0.3823 -0.2589
 1583TIP3    H126308   4.006   0.151   1.470  1.8750 -2.3103 -0.3040
 1583TIP3    H226309   4.058   0.158   1.328  0.1445  1.5509 -0.8559
 1584TIP3   OH226310   4.043   2.688   8.136  0.5346  0.0328  0.1673
 1584TIP3    H126311   4.012   2.748   8.203 -2.3012  0.2366 -1.1914
 1584TIP3    H226312   4.089   2.744   8.073 -0.6266  0.5794 -0.2304
 1585TIP3   OH226313   3.223   4.007   0.082  0.5157  0.3485 -0.1130
 1585TIP3    H126314   3.161   3.985   0.012  0.0876  0.5992  0.1836
 1585TIP3    H226315   3.280   3.930   0.089  1.7802  1.0530 -2.0310
 1586TIP3   OH226316   2.290   1.087   6.372 -0.1555  0.2686 -0.0090
 1586TIP3    H126317   2.289   1.051   6.461  0.3868  1.4092  0.4695
 1586TIP3    H226318   2.382   1.102   6.352 -0.0247 -2.1762 -1.7221
 1587TIP3   OH226319   5.293   5.571   6.675  0.1805 -0.0743  0.5395
 1587TIP3    H126320   5.376   5.523   6.682 -0.5115 -1.4251 -0.1702
 1587TIP3    H226321   5.303   5.626   6.598  0.5853  0.1205  0.7281
 1588TIP3   OH226322   1.588   4.790   1.720 -0.5492  0.0991  0.0528
 1588TIP3    H126323   1.497   4.794   1.750 -0.7733 -0.0009 -0.5990
 1588TIP3    H226324   1.615   4.882   1.715 -1.0160  0.1992 -0.9203
 1589TIP3   OH226325   6.116   2.566   8.486  0.0169  0.2249 -0.3192
 1589TIP3    H126326   6.024   2.555   8.510  0.0884 -0.5867 -0.4134
 1589TIP3    H226327   6.129   2.661   8.485 -0.8673  0.3498 -0.4901
 1590TIP3   OH226328   3.865   5.632   6.664  0.6411  0.1151 -0.3502
 1590TIP3    H126329   3.946   5.585   6.648  1.3362  0.5866  1.4935
 1590TIP3    H226330   3.881   5.720   6.630  1.5658  0.6940  1.4649
 1591TIP3   OH226331   1.889   0.274   0.854 -0.4239 -0.0982  0.2443
 1591TIP3    H126332   1.919   0.355   0.895  0.8287 -0.5899  0.3533
 1591TIP3    H226333   1.962   0.246   0.799 -0.9460 -1.0061 -0.0124
 1592TIP3   OH226334   0.940   2.788   1.881  0.4848 -0.6215 -0.2065
 1592TIP3    H126335   0.862   2.800   1.827  0.0815  1.1967  0.7061
 1592TIP3    H226336   0.908   2.743   1.959  0.7371 -1.6203 -0.6605
 1593TIP3   OH226337   2.520   0.548   6.897  0.2879  0.1559 -0.2670
 1593TIP3    H126338   2.561   0.463   6.879 -0.9615 -0.8428  1.3146
 1593TIP3    H226339   2.579   0.591   6.958 -0.1906 -0.6077  0.7664
 1594TIP3   OH226340   1.383   0.351   6.416 -0.1975 -0.0823  0.2287
 1594TIP3    H126341   1.347   0.394   6.339  0.0867  0.6286  0.4867
 1594TIP3    H226342   1.366   0.258   6.402 -0.4276  0.0731 -0.5402
 1595TIP3   OH226343   4.880   0.714   8.094 -0.1258 -0.0420 -0.4614
 1595TIP3    H126344   4.800   0.668   8.068 -0.3310  0.2657 -0.3840
 1595TIP3    H226345   4.923   0.737   8.012 -0.5760  0.5862 -0.5283
 1596TIP3   OH226346   5.397   1.281   8.312  0.2157  0.1531  0.1685
 1596TIP3    H126347   5.442   1.342   8.370 -0.8193  2.5639 -1.3706
 1596TIP3    H226348   5.306   1.281   8.344  0.3690 -1.2531  0.6389
 1597TIP3   OH226349   1.096   5.899   1.969  0.1222 -0.1407 -0.3400
 1597TIP3    H126350   1.059   5.980   1.933  0.3763  0.2395  0.2332
 1597TIP3    H226351   1.118   5.921   2.059 -1.0553 -1.2383  0.2450
 1598TIP3   OH226352   1.261   5.946   7.967 -0.3970  0.1861  0.5973
 1598TIP3    H126353   1.225   5.936   7.879  1.6400 -0.2698 -0.2524
 1598TIP3    H226354   1.225   5.872   8.016 -0.9823  0.0240 -0.0543
 1599TIP3   OH226355   4.160   0.404   6.842  0.4404  0.1013 -0.8241
 1599TIP3    H126356   4.204   0.341   6.900  0.1311  0.9623  0.3744
 1599TIP3    H226357   4.146   0.355   6.761  0.0174 -1.4644  0.1428
 1600TIP3   OH226358   2.801   3.000   8.215 -0.4225  0.3766  0.5920
 1600TIP3    H126359   2.897   2.998   8.214 -0.4349 -0.2795  0.2806
 1600TIP3    H226360   2.779   3.084   8.175  0.0058 -0.4682 -1.5478
 1601TIP3   OH226361   5.365   5.959   1.199 -0.0845 -0.0229 -0.0756
 1601TIP3    H126362   5.431   5.933   1.262 -0.8843  0.4971  1.0190
 1601TIP3    H226363   5.283   5.958   1.248 -0.5209  1.9939 -0.6295
 1602TIP3   OH226364   5.297   4.770   7.264 -0.3291  0.0794 -0.0541
 1602TIP3    H126365   5.345   4.845   7.298  3.1744 -2.1534  0.4556
 1602TIP3    H226366   5.232   4.749   7.331  1.3851  0.2919  1.7593
 1603TIP3   OH226367   5.496   1.904   0.513  0.0595  0.2828 -0.6840
 1603TIP3    H126368   5.570   1.864   0.558  0.1116  0.2869 -0.7648
 1603TIP3    H226369   5.536   1.973   0.459  0.2557 -1.0068 -2.2836
 1604TIP3   OH226370   3.473   6.478   1.802 -0.1819 -0.3424 -0.1977
 1604TIP3    H126371   3.490   6.458   1.894 -0.7113 -0.7399 -0.1816
 1604TIP3    H226372   3.522   6.559   1.786  0.5191 -0.6781  0.2234
 1605TIP3   OH226373   5.742   5.243   7.501  0.0022  0.0639  0.1026
 1605TIP3    H126374   5.812   5.302   7.475  0.5244 -0.7271 -0.3508
 1605TIP3    H226375   5.729   5.259   7.594  1.1893 -0.1744  0.3208
 1606TIP3   OH226376   1.184   0.463   1.978 -0.1057  0.2991  0.0447
 1606TIP3    H126377   1.141   0.538   1.937 -0.6809 -1.0287 -1.8984
 1606TIP3    H226378   1.277   0.487   1.980 -0.2755  1.0535 -0.5813
 1607TIP3   OH226379   2.041   4.977   0.228 -0.9482 -0.2438 -0.0280
 1607TIP3    H126380   1.987   5.018   0.159 -1.6390 -1.8689 -0.5036
 1607TIP3    H226381   2.130   4.978   0.193 -1.0609  0.2476 -0.3090
 1608TIP3   OH226382   4.360   0.299   1.727 -0.0442 -0.0980 -0.1097
 1608TIP3    H126383   4.429   0.233   1.736  0.0676 -0.7517 -3.9542
 1608TIP3    H226384   4.399   0.369   1.675 -0.8345  2.0673  2.0409
 1609TIP3   OH226385   4.012   6.205   0.639 -0.2017  0.2671  1.1070
 1609TIP3    H126386   3.933   6.254   0.663  0.1541  1.2059  0.4190
 1609TIP3    H226387   4.079   6.272   0.629 -0.1696 -0.0886 -1.8593
 1610TIP3   OH226388   3.870   2.197   0.129  0.6688 -0.4935 -0.3950
 1610TIP3    H126389   3.894   2.276   0.080  1.6549 -1.6308 -1.7897
 1610TIP3    H226390   3.953   2.152   0.145 -0.0807 -2.5156 -1.8359
 1611TIP3   OH226391   6.466   1.316   8.221  0.2102  0.2538 -0.2088
 1611TIP3    H126392   6.470   1.274   8.307  1.7310 -1.6250 -1.1195
 1611TIP3    H226393   6.415   1.256   8.167 -0.4465  1.2584 -0.7584
 1612TIP3   OH226394   4.856   0.302   7.658 -0.1397 -0.0562 -0.1687
 1612TIP3    H126395   4.914   0.314   7.583 -0.0065 -0.1015 -0.0727
 1612TIP3    H226396   4.769   0.292   7.619 -0.3212  1.5353 -0.2474
 1613TIP3   OH226397   5.568   5.572   2.364  0.3073  0.2031  0.1586
 1613TIP3    H126398   5.505   5.501   2.370 -1.0474  1.3037 -0.5799
 1613TIP3    H226399   5.643   5.534   2.318 -0.0592 -0.9512  0.4908
 1614TIP3   OH226400   4.205   4.120   7.421 -0.0967  0.1934  0.5123
 1614TIP3    H126401   4.221   4.118   7.327  0.6741 -0.1834  0.6396
 1614TIP3    H226402   4.170   4.207   7.438 -0.6033  0.1275 -0.1740
 1615TIP3   OH226403   6.200   6.786   1.212 -0.1298  0.5123 -0.1990
 1615TIP3    H126404   6.293   6.798   1.192 -0.2150  0.1811 -0.7992
 1615TIP3    H226405   6.199   6.721   1.282  0.1181  0.9341  0.1998
 1616TIP3   OH226406   4.967   5.239   6.960 -0.1737 -0.4626 -0.6580
 1616TIP3    H126407   5.027   5.174   6.996  0.4166  0.4225 -0.0027
 1616TIP3    H226408   4.949   5.298   7.034 -1.0323 -0.1251 -1.1270
 1617TIP3   OH226409   1.155   5.984   8.252 -0.3145  0.3194  0.6860
 1617TIP3    H126410   1.148   5.961   8.345  2.0532 -0.6852  0.6897
 1617TIP3    H226411   1.141   5.901   8.206 -2.3307  0.9637  0.0374
 1618TIP3   OH226412   0.379   5.232   8.375 -0.4830  0.3316  0.1729
 1618TIP3    H126413   0.303   5.242   8.317 -0.7230  0.7806  0.5585
 1618TIP3    H226414   0.446   5.190   8.320 -1.0192 -0.1076 -0.1602
 1619TIP3   OH226415   0.022   0.051   0.714  0.1859 -0.3856  0.3727
 1619TIP3    H126416   0.061   0.085   0.633 -1.3454  0.3009 -0.1030
 1619TIP3    H226417   0.085  -0.015   0.744  1.1228 -0.1701 -0.9960
 1620TIP3   OH226418   1.149   3.171   2.751 -0.0762  0.4639  0.7719
 1620TIP3    H126419   1.223   3.140   2.699  2.9214  0.4797  4.5911
 1620TIP3    H226420   1.091   3.095   2.757  1.3126 -0.6825  0.3648
 1621TIP3   OH226421   0.828   5.870   7.252  0.1631 -0.2671 -0.2431
 1621TIP3    H126422   0.900   5.807   7.258 -0.4846 -1.0206 -0.2830
 1621TIP3    H226423   0.869   5.949   7.217  0.5711 -1.3432 -2.3119
 1622TIP3   OH226424   2.646   5.930   0.985  0.6485 -0.2690  0.3996
 1622TIP3    H126425   2.598   5.851   1.009 -0.1656 -0.0611 -0.4593
 1622TIP3    H226426   2.587   6.002   1.008 -0.1843 -0.0572 -2.0903
 1623TIP3   OH226427   5.317   3.679   0.303 -0.4896 -0.1808 -0.1418
 1623TIP3    H126428   5.343   3.656   0.392  1.0163 -1.9551 -0.9660
 1623TIP3    H226429   5.290   3.595   0.265 -0.3416  0.4097 -1.5896
 1624TIP3   OH226430   0.379   1.036   7.067 -0.6009  0.4660  0.5780
 1624TIP3    H126431   0.457   1.084   7.043 -0.7140  0.0598 -0.7043
 1624TIP3    H226432   0.397   0.946   7.039 -1.5263  0.3809  0.1951
 1625TIP3   OH226433   0.455   3.230   6.697 -0.3428 -0.3670  0.2299
 1625TIP3    H126434   0.449   3.148   6.746  0.3116 -0.6122 -0.0914
 1625TIP3    H226435   0.541   3.227   6.655 -0.4497  0.3338 -0.0541
 1626TIP3   OH226436   4.908   6.339   7.719  0.6421 -0.4853  0.5373
 1626TIP3    H126437   4.872   6.300   7.799 -1.6749  0.4253  0.0322
 1626TIP3    H226438   4.983   6.390   7.750  0.7233 -1.3557  1.8931
 1627TIP3   OH226439   0.787   4.962   7.784 -0.0228 -0.8208  0.1065
 1627TIP3    H126440   0.759   5.005   7.703  0.5233 -0.2743  0.1999
 1627TIP3    H226441   0.883   4.962   7.780  0.0325 -0.2478  1.0151
 1628TIP3   OH226442   6.862   3.934   7.794 -0.6351 -0.0682  0.5754
 1628TIP3    H126443   6.890   3.855   7.840  1.0539 -0.2016 -0.5930
 1628TIP3    H226444   6.936   3.994   7.800 -1.7078  1.2682  1.0214
 1629TIP3   OH226445   1.520   5.977   1.172 -0.3043 -0.1389  0.1119
 1629TIP3    H126446   1.605   5.936   1.155  0.3976  1.4687 -0.4641
 1629TIP3    H226447   1.477   5.919   1.235  0.9149 -1.3621 -0.1453
 1630TIP3   OH226448   6.645   2.519   7.441  0.0051  0.0283 -0.0191
 1630TIP3    H126449   6.665   2.427   7.429  2.4245  0.6776 -1.5709
 1630TIP3    H226450   6.612   2.525   7.531  0.0581 -2.2664  0.2034
 1631TIP3   OH226451   4.471   6.821   8.465  0.0118  0.1298  0.2948
 1631TIP3    H126452   4.409   6.762   8.507 -0.8997  1.3000  0.6694
 1631TIP3    H226453   4.461   6.803   8.371 -0.4775 -0.0977  0.3879
 1632TIP3   OH226454   1.627   4.595   1.542 -0.3670  0.4871  0.0390
 1632TIP3    H126455   1.622   4.667   1.605 -1.3822  1.7883 -1.4907
 1632TIP3    H226456   1.645   4.637   1.458 -1.7322 -0.9689 -1.0292
 1633TIP3   OH226457   3.127   3.633   1.262 -0.1961  0.0238 -0.2760
 1633TIP3    H126458   3.216   3.667   1.261 -0.7757  1.6941  0.2487
 1633TIP3    H226459   3.077   3.694   1.207 -0.7178 -1.9205 -2.0838
 1634TIP3   OH226460   3.656   3.373   6.404  1.3209 -0.0132  0.1116
 1634TIP3    H126461   3.665   3.354   6.310  3.5604 -0.6142  0.3816
 1634TIP3    H226462   3.742   3.407   6.429  0.6765  0.3730  1.9188
 1635TIP3   OH226463   5.045   3.995   1.492  0.1978 -0.4008  0.3971
 1635TIP3    H126464   4.953   3.969   1.498 -0.4471  1.6070 -0.1254
 1635TIP3    H226465   5.045   4.069   1.431  2.0685  0.0936  0.9415
 1636TIP3   OH226466   4.907   1.646   1.842 -0.1045  0.7367 -0.4884
 1636TIP3    H126467   4.894   1.726   1.892 -0.3885 -0.1220  0.8605
 1636TIP3    H226468   4.960   1.590   1.898 -2.2396 -1.1077 -0.1367
 1637TIP3   OH226469   1.451   0.825   7.305  0.3987 -0.3925  0.4740
 1637TIP3    H126470   1.371   0.868   7.334  0.2628 -0.2780 -0.0581
 1637TIP3    H226471   1.516   0.847   7.372  0.8728  2.3529 -0.7749
 1638TIP3   OH226472   0.497   3.066   2.545 -0.1144  0.4821 -0.2688
 1638TIP3    H126473   0.494   3.081   2.640  1.3498 -0.9711  0.0690
 1638TIP3    H226474   0.505   3.153   2.507 -3.0542  1.3293  0.7355
 1639TIP3   OH226475   2.268   1.047   1.279 -0.1593 -0.2217 -0.4747
 1639TIP3    H126476   2.240   0.965   1.239 -1.9511 -0.2112  0.6378
 1639TIP3    H226477   2.186   1.095   1.295  0.8000  1.5593 -0.5927
 1640TIP3   OH226478   1.701   4.073   2.084  0.0013 -0.4835 -0.2419
 1640TIP3    H126479   1.621   4.076   2.032  0.2490 -0.6107 -0.6402
 1640TIP3    H226480   1.680   4.018   2.159 -0.3944 -0.2074 -0.1482
 1641TIP3   OH226481   6.486   1.815   7.855 -0.4636 -0.1234 -0.3126
 1641TIP3    H126482   6.457   1.752   7.920 -0.3112 -0.2132 -0.3308
 1641TIP3    H226483   6.537   1.879   7.904 -0.6085 -0.0212 -0.2961
 1642TIP3   OH226484   3.898   6.104   0.336 -0.2212 -0.4326 -0.0311
 1642TIP3    H126485   3.821   6.149   0.370 -0.7268 -1.8911  0.8748
 1642TIP3    H226486   3.938   6.063   0.413  1.7059  0.5881 -0.4242
 1643TIP3   OH226487   3.698   0.248   0.285  0.3274  0.0618  0.2434
 1643TIP3    H126488   3.759   0.252   0.212  1.5020  1.2522  1.2422
 1643TIP3    H226489   3.728   0.174   0.338  0.3659  0.1102  0.2888
 1644TIP3   OH226490   1.289   2.118   7.240  0.5232  0.3449  0.3214
 1644TIP3    H126491   1.240   2.201   7.244 -1.2246 -0.6677  0.9057
 1644TIP3    H226492   1.281   2.090   7.149 -0.9659 -0.3457  0.6390
 1645TIP3   OH226493   5.212   3.738   0.882 -0.0844  0.4871  0.2896
 1645TIP3    H126494   5.289   3.770   0.836 -0.7439  0.7079 -0.6858
 1645TIP3    H226495   5.181   3.814   0.931 -1.1815  1.1845 -1.3889
 1646TIP3   OH226496   6.027   5.978   7.848  0.4662  0.4742 -0.2517
 1646TIP3    H126497   6.045   5.902   7.903 -0.8203  0.4377  0.1378
 1646TIP3    H226498   6.006   6.048   7.909 -2.3305  0.0957 -0.6518
 1647TIP3   OH226499   4.020   1.991   1.381 -0.3060 -0.6754  0.5787
 1647TIP3    H126500   4.111   1.980   1.410  0.4994  0.6490 -1.2345
 1647TIP3    H226501   3.984   1.903   1.380  1.8391 -1.6120 -1.2911
 1648TIP3   OH226502   1.084   4.922   1.724 -0.1675 -0.0778 -0.8370
 1648TIP3    H126503   1.067   4.951   1.813 -0.9026  1.0306 -1.3158
 1648TIP3    H226504   1.023   4.850   1.710  1.1693 -1.4432  0.1229
 1649TIP3   OH226505   6.013   3.434   1.855  0.4032  0.7959 -0.6718
 1649TIP3    H126506   6.022   3.468   1.766 -1.2122  1.0286 -0.7893
 1649TIP3    H226507   5.929   3.388   1.854  1.8028 -2.0242 -0.1255
 1650TIP3   OH226508   4.961   5.039   0.193  0.0357 -0.1508 -0.1350
 1650TIP3    H126509   4.893   5.021   0.128 -0.4748 -0.0608  0.3617
 1650TIP3    H226510   4.933   5.122   0.234  0.2048 -0.3402  0.3751
 1651TIP3   OH226511   3.832   3.810   0.754 -0.4034 -0.1223 -0.6531
 1651TIP3    H126512   3.885   3.739   0.790  0.6843  0.2034 -1.5653
 1651TIP3    H226513   3.880   3.890   0.777 -0.8434  0.2334 -0.9343
 1652TIP3   OH226514   4.873   5.748   2.345  0.0694  0.1176 -0.3268
 1652TIP3    H126515   4.963   5.738   2.377  0.8271  1.1047 -2.0052
 1652TIP3    H226516   4.819   5.711   2.414  1.7664 -0.5623  0.7064
 1653TIP3   OH226517   5.356   1.509   1.400  0.4190  0.7704  0.0191
 1653TIP3    H126518   5.409   1.574   1.446  0.7767  0.7759 -0.3886
 1653TIP3    H226519   5.419   1.442   1.374 -0.1615 -0.5295  1.7533
 1654TIP3   OH226520   3.222   4.997   1.521  0.5222 -0.8415 -0.4772
 1654TIP3    H126521   3.216   5.069   1.585  1.5621 -1.3985  0.2994
 1654TIP3    H226522   3.216   4.918   1.575  2.5203 -1.3328 -0.8968
 1655TIP3   OH226523   5.764   0.390   1.289 -0.2150 -0.1483  0.1845
 1655TIP3    H126524   5.724   0.398   1.375  0.4195 -1.5091  0.6220
 1655TIP3    H226525   5.699   0.343   1.236 -0.0907 -0.4247  0.2772
 1656TIP3   OH226526   5.537   1.894   8.456 -0.2597  0.1289 -1.3098
 1656TIP3    H126527   5.594   1.879   8.532 -1.3820  1.3475 -0.1721
 1656TIP3    H226528   5.455   1.926   8.494  0.1281  3.8067 -3.1575
 1657TIP3   OH226529   6.435   2.823   8.446 -0.2707 -0.0968  0.0217
 1657TIP3    H126530   6.525   2.837   8.418 -0.6089 -1.5645 -2.0389
 1657TIP3    H226531   6.409   2.907   8.485  1.4950  0.8301 -0.6756
 1658TIP3   OH226532   2.364   2.906   6.778 -0.4263 -0.6569 -0.1489
 1658TIP3    H126533   2.412   2.932   6.857 -0.1857 -1.0307 -0.1722
 1658TIP3    H226534   2.326   2.988   6.746 -0.7649 -0.5444  0.5115
 1659TIP3   OH226535   4.488   0.519   6.925  0.0583 -0.8452  0.3757
 1659TIP3    H126536   4.508   0.578   6.998  0.5666 -0.9376  0.3161
 1659TIP3    H226537   4.448   0.576   6.858  1.8142 -0.2758 -0.2430
 1660TIP3   OH226538   3.475   1.450   7.208 -0.1637 -0.7239  0.1143
 1660TIP3    H126539   3.457   1.454   7.114 -0.5633  0.3194  0.2167
 1660TIP3    H226540   3.390   1.436   7.248  0.0397 -1.4111  0.3175
 1661TIP3   OH226541   4.323   0.634   7.731  0.3190 -0.2013 -0.8615
 1661TIP3    H126542   4.409   0.593   7.729  0.1943 -0.4401 -1.7258
 1661TIP3    H226543   4.342   0.728   7.732  0.5879 -0.2475 -1.3792
 1662TIP3   OH226544   1.144   5.877   2.236  0.5438  0.1815  0.2064
 1662TIP3    H126545   1.176   5.790   2.260  0.1443  0.4098  1.6959
 1662TIP3    H226546   1.107   5.912   2.317 -2.2361  0.4832 -1.0700
 1663TIP3   OH226547   3.486   1.955   1.415  0.1370  0.0473  0.0178
 1663TIP3    H126548   3.504   2.034   1.364 -2.0685 -0.5117 -1.8091
 1663TIP3    H226549   3.393   1.961   1.437  0.0616 -1.7308  0.3675
 1664TIP3   OH226550   6.122   0.912   1.836 -0.6746 -0.1584  0.0573
 1664TIP3    H126551   6.179   0.838   1.859 -1.1210 -1.8604 -3.6013
 1664TIP3    H226552   6.033   0.879   1.851 -0.8361  0.4821  0.5315
 1665TIP3   OH226553   5.804   5.253   0.642  0.1692  0.6405 -0.5565
 1665TIP3    H126554   5.717   5.212   0.639 -0.2776  1.4904  0.1936
 1665TIP3    H226555   5.810   5.302   0.560  0.7594 -0.9532 -1.5239
 1666TIP3   OH226556   0.254   0.607   7.400  0.2081 -0.0580 -0.1096
 1666TIP3    H126557   0.215   0.686   7.437 -1.5922 -0.7574 -0.4234
 1666TIP3    H226558   0.325   0.584   7.461  0.5075  1.5551  0.1897
 1667TIP3   OH226559   3.369   5.144   1.730 -0.0131  0.3305 -0.2588
 1667TIP3    H126560   3.450   5.190   1.751 -0.8206  1.3079  0.8859
 1667TIP3    H226561   3.302   5.213   1.732 -1.3237 -0.9259  1.8589
 1668TIP3   OH226562   1.566   0.220   6.185  0.2297 -0.0584  0.7346
 1668TIP3    H126563   1.651   0.249   6.154  0.8332 -0.6074  1.8413
 1668TIP3    H226564   1.566   0.125   6.172 -0.3968 -0.0090  0.3150
 1669TIP3   OH226565   6.655   4.018   2.304  0.2376  0.4450  0.3111
 1669TIP3    H126566   6.666   3.923   2.306 -0.2718  0.3182  3.6991
 1669TIP3    H226567   6.734   4.051   2.262  0.1509 -1.4492 -1.5040
 1670TIP3   OH226568   0.899   2.419   1.635  0.0624 -0.1292 -0.1976
 1670TIP3    H126569   0.862   2.450   1.718 -0.8305 -0.1667 -0.5698
 1670TIP3    H226570   0.967   2.357   1.661  0.4189  0.5452  0.5184
 1671TIP3   OH226571   6.864   2.222   8.100  0.3835  0.0302 -0.6775
 1671TIP3    H126572   6.816   2.279   8.161 -1.0294 -0.4175 -1.3345
 1671TIP3    H226573   6.930   2.279   8.061 -1.5546  1.4989 -1.9590
 1672TIP3   OH226574   0.812   6.455   8.412  0.4193  0.0712 -0.1736
 1672TIP3    H126575   0.751   6.502   8.469 -1.4983 -1.0141 -1.1982
 1672TIP3    H226576   0.818   6.509   8.334 -0.5001 -0.5376 -0.6911
 1673TIP3   OH226577   6.724   1.753   0.575 -0.3345  0.4732 -0.6222
 1673TIP3    H126578   6.767   1.829   0.537  0.0619  0.0482 -1.0334
 1673TIP3    H226579   6.662   1.724   0.507 -0.8098  0.6907 -0.2913
 1674TIP3   OH226580   1.187   3.465   2.394 -0.2656 -0.8356 -0.0475
 1674TIP3    H126581   1.264   3.520   2.382  0.5203 -1.8695  0.1285
 1674TIP3    H226582   1.150   3.493   2.478 -1.2505  1.0062 -1.0244
 1675TIP3   OH226583   3.283   2.587   6.733 -0.0247  0.1034  0.3032
 1675TIP3    H126584   3.222   2.591   6.660 -0.4659 -0.0320  0.6553
 1675TIP3    H226585   3.335   2.508   6.719  3.9555  2.8811 -2.9905
 1676TIP3   OH226586   4.930   6.542   6.847  0.0196 -0.1837  0.2932
 1676TIP3    H126587   5.024   6.553   6.862  0.2537 -1.0034 -0.4724
 1676TIP3    H226588   4.917   6.575   6.758 -0.2013 -1.1495 -0.0391
 1677TIP3   OH226589   1.232   0.063   6.399  0.0765 -0.6713 -0.2990
 1677TIP3    H126590   1.163   0.001   6.377 -1.2432  0.5394  0.3126
 1677TIP3    H226591   1.283   0.071   6.318 -2.2863  0.6304 -1.7702
 1678TIP3   OH226592   6.598   5.118   0.544 -0.0691 -0.0932 -0.3772
 1678TIP3    H126593   6.548   5.057   0.490  0.6197 -0.4736 -0.6009
 1678TIP3    H226594   6.609   5.195   0.489  1.6517 -0.9266 -1.2740
 1679TIP3   OH226595   3.444   1.388   2.001  0.2923  0.1274 -0.0081
 1679TIP3    H126596   3.378   1.342   1.950 -1.0526 -0.9958  2.5447
 1679TIP3    H226597   3.517   1.326   2.007 -0.8502 -1.1319  2.0270
 1680TIP3   OH226598   4.488   1.124   6.534  0.0288 -0.2976 -0.1546
 1680TIP3    H126599   4.546   1.060   6.494 -0.4150 -0.4855 -0.5051
 1680TIP3    H226600   4.404   1.111   6.490  0.0225  0.7620 -0.4801
 1681TIP3   OH226601   6.012   0.072   2.061 -0.0110 -0.8423 -0.7436
 1681TIP3    H126602   5.916   0.074   2.057  0.0122  1.9364 -2.1497
 1681TIP3    H226603   6.033   0.113   2.145 -0.1233  1.4002 -1.7317
 1682TIP3   OH226604   0.684   5.195   0.450  0.0794  0.3074 -0.1142
 1682TIP3    H126605   0.695   5.101   0.440  1.2792  0.5397 -1.2486
 1682TIP3    H226606   0.602   5.215   0.406  0.2070 -0.1149 -0.5467
 1683TIP3   OH226607   5.616   3.203   1.354 -0.7979 -0.4043  0.0305
 1683TIP3    H126608   5.624   3.275   1.290 -0.1249  0.1237  0.6887
 1683TIP3    H226609   5.534   3.160   1.331  0.1224 -1.1425 -2.1185
 1684TIP3   OH226610   5.315   6.028   6.361  0.0125  0.1075 -0.5313
 1684TIP3    H126611   5.369   6.099   6.326  0.4096 -0.6161 -1.4070
 1684TIP3    H226612   5.234   6.033   6.309  0.0074 -0.0280 -0.5355
 1685TIP3   OH226613   3.277   2.645   0.723 -0.1964 -0.1037  0.3587
 1685TIP3    H126614   3.301   2.588   0.796  1.0055  0.0523  0.1159
 1685TIP3    H226615   3.343   2.715   0.725  0.7094 -0.8154 -1.6826
 1686TIP3   OH226616   4.143   0.185   0.140  0.1883  0.3408 -0.4474
 1686TIP3    H126617   4.176   0.096   0.150 -1.8449 -0.3077  1.0967
 1686TIP3    H226618   4.165   0.228   0.223 -1.1954  0.4157 -0.0920
 1687TIP3   OH226619   2.739   5.863   1.361 -0.5911  0.0623 -0.0562
 1687TIP3    H126620   2.670   5.818   1.313 -0.2223 -0.7070  0.1172
 1687TIP3    H226621   2.710   5.954   1.365 -0.8296  0.0720 -1.3722
 1688TIP3   OH226622   5.168   3.478   0.894 -0.1752  0.1136 -0.4064
 1688TIP3    H126623   5.225   3.447   0.965 -0.6373  1.1752  0.4463
 1688TIP3    H226624   5.195   3.568   0.880 -1.4376  0.5385 -0.1880
 1689TIP3   OH226625   1.177   4.155   0.130 -0.0423 -0.7343  0.4869
 1689TIP3    H126626   1.233   4.113   0.195 -0.2388 -0.5020  0.8061
 1689TIP3    H226627   1.098   4.101   0.129 -0.6956  0.1738  1.6003
 1690TIP3   OH226628   5.679   3.920   0.049 -0.3215  0.0206 -0.5290
 1690TIP3    H126629   5.673   4.014   0.067  0.2753 -0.1449  0.5884
 1690TIP3    H226630   5.641   3.911  -0.039  0.3434  1.4074 -0.9912
 1691TIP3   OH226631   3.299   6.576   0.426 -0.2529  0.5306 -0.1976
 1691TIP3    H126632   3.271   6.571   0.517  1.9636 -1.7843  0.4680
 1691TIP3    H226633   3.225   6.540   0.376 -0.3338 -1.1305  1.0313
 1692TIP3   OH226634   4.623   5.059   0.249  0.4948  0.4705 -0.2078
 1692TIP3    H126635   4.535   5.089   0.273  0.1784 -2.1395  2.5368
 1692TIP3    H226636   4.681   5.106   0.309  0.3025 -1.6648  1.8236
 1693TIP3   OH226637   5.983   6.820   1.426  0.4993  0.4273  0.4324
 1693TIP3    H126638   6.060   6.764   1.440 -0.0759 -0.9321 -1.3892
 1693TIP3    H226639   5.943   6.827   1.512  1.6465 -0.3765  1.0682
 1694TIP3   OH226640   6.350   4.580   8.452  0.1971 -0.3062 -0.0192
 1694TIP3    H126641   6.353   4.622   8.366 -0.0848 -1.4388 -0.6105
 1694TIP3    H226642   6.299   4.639   8.507 -2.2087 -0.9310 -1.4534
 1695TIP3   OH226643   0.555   1.095   1.081  0.3332  0.6463 -0.5094
 1695TIP3    H126644   0.503   1.165   1.121 -1.9289  0.2925 -2.6044
 1695TIP3    H226645   0.585   1.132   0.998 -0.0090 -0.4891 -1.1639
 1696TIP3   OH226646   2.303   3.365   0.458 -0.0311 -0.0702  0.1008
 1696TIP3    H126647   2.264   3.290   0.414  0.5646 -0.4422  0.1995
 1696TIP3    H226648   2.285   3.351   0.551  1.3198 -0.8515  0.2741
 1697TIP3   OH226649   5.044   1.268   0.147  0.0904 -0.1613 -0.4353
 1697TIP3    H126650   5.086   1.260   0.061 -1.5880  0.9233 -1.4187
 1697TIP3    H226651   5.117   1.268   0.209  1.4112 -0.1862 -1.9058
 1698TIP3   OH226652   2.414   5.333   6.642  0.1067  0.3497 -0.2302
 1698TIP3    H126653   2.503   5.339   6.606  0.2292 -0.9742 -0.1824
 1698TIP3    H226654   2.362   5.297   6.570 -0.2273  0.3619  0.0035
 1699TIP3   OH226655   5.165   1.772   2.114 -0.2002 -0.0632 -0.2575
 1699TIP3    H126656   5.161   1.829   2.191  0.5416 -0.1986 -0.1083
 1699TIP3    H226657   5.073   1.756   2.091 -0.4163  0.6795  0.0728
 1700TIP3   OH226658   0.436   0.874   7.695 -0.1656 -0.3824  0.6552
 1700TIP3    H126659   0.487   0.950   7.665 -0.9543 -0.5451 -1.2027
 1700TIP3    H226660   0.368   0.912   7.750 -0.5832  0.2985 -0.3000
 1701TIP3   OH226661   1.842   6.818   7.935  0.1874  0.0816 -0.3564
 1701TIP3    H126662   1.848   6.744   7.995 -0.1939  0.8381  0.6402
 1701TIP3    H226663   1.871   6.894   7.986 -0.3992  0.7874 -1.0319
 1702TIP3   OH226664   5.268   3.023   7.686 -0.2786 -0.7334 -0.5803
 1702TIP3    H126665   5.209   2.973   7.743  0.7176 -1.7858 -0.4524
 1702TIP3    H226666   5.222   3.106   7.671 -0.3723 -0.1997  2.1524
 1703TIP3   OH226667   5.278   2.283   7.629 -0.6904 -0.0694 -0.1045
 1703TIP3    H126668   5.270   2.273   7.724  0.7717  2.2068  0.3363
 1703TIP3    H226669   5.317   2.201   7.599 -0.0751 -0.3758  1.4449
 1704TIP3   OH226670   1.882   1.168   1.046  0.2546  0.1603  0.4674
 1704TIP3    H126671   1.852   1.080   1.069 -2.3408  0.6014 -0.7659
 1704TIP3    H226672   1.812   1.202   0.989  2.7166  1.8013 -1.8209
 1705TIP3   OH226673   3.146   5.141   2.589  0.1582 -0.2630  0.1809
 1705TIP3    H126674   3.142   5.237   2.583  2.9320 -0.0350  0.5598
 1705TIP3    H226675   3.057   5.115   2.613 -0.6636  2.2087  0.1483
 1706TIP3   OH226676   5.456   2.921   0.076  0.1425 -0.0873 -0.4444
 1706TIP3    H126677   5.399   2.875   0.014  1.3719 -2.4867  0.1018
 1706TIP3    H226678   5.438   2.881   0.161  1.0861  0.6151  0.1088
 1707TIP3   OH226679   1.022   0.613   0.540 -0.0264 -0.2079  0.4482
 1707TIP3    H126680   1.088   0.580   0.478  0.6768  1.3142  0.3440
 1707TIP3    H226681   1.072   0.666   0.602 -1.2128  1.4728  0.0214
 1708TIP3   OH226682   2.734   4.459   1.112 -0.2716 -0.1490  0.3107
 1708TIP3    H126683   2.794   4.387   1.092 -0.7698 -0.5168  0.1310
 1708TIP3    H226684   2.780   4.538   1.082  0.0857 -0.4366  0.0961
 1709TIP3   OH226685   1.264   6.055   1.477  0.4842 -0.5669  0.4114
 1709TIP3    H126686   1.194   6.028   1.418  0.6777 -0.9042  0.3300
 1709TIP3    H226687   1.287   6.143   1.448  0.8007 -0.8555 -0.2421
 1710TIP3   OH226688   2.203   2.823   0.925 -0.3368  0.5174 -0.9966
 1710TIP3    H126689   2.288   2.860   0.903  1.1232 -1.1058  1.4287
 1710TIP3    H226690   2.157   2.894   0.971  1.3606  0.3267  1.1891
 1711TIP3   OH226691   5.819   3.100   0.575 -0.6308  0.0695  0.0907
 1711TIP3    H126692   5.871   3.178   0.554 -1.6919  0.6442 -0.4869
 1711TIP3    H226693   5.762   3.128   0.647 -0.6215 -0.3449  0.2590
 1712TIP3   OH226694   5.236   1.842   0.532 -0.1856 -0.1371 -0.0175
 1712TIP3    H126695   5.217   1.760   0.486 -0.6167  0.9621 -1.9397
 1712TIP3    H226696   5.332   1.846   0.534 -0.1531 -0.2775 -0.7472
 1713TIP3   OH226697   5.342   0.148   8.168 -0.3631 -0.1125  0.9117
 1713TIP3    H126698   5.356   0.239   8.193  0.6808 -0.6280  2.3572
 1713TIP3    H226699   5.268   0.120   8.222 -0.9151 -0.0367  0.2080
 1714TIP3   OH226700   5.323   5.688   7.908  0.1709 -0.3678  0.4315
 1714TIP3    H126701   5.259   5.645   7.851 -0.9520  0.7877  0.7937
 1714TIP3    H226702   5.292   5.777   7.918  1.2026 -0.0976  1.5860
 1715TIP3   OH226703   5.044   4.710   1.099  0.6115 -0.0447 -0.4596
 1715TIP3    H126704   5.082   4.632   1.058  1.8815  0.9036 -1.1549
 1715TIP3    H226705   5.057   4.779   1.035  1.3355  1.1720  0.9527
 1716TIP3   OH226706   4.569   1.788   0.009  0.0491 -0.1185 -0.3278
 1716TIP3    H126707   4.662   1.802  -0.010  0.6740 -0.9513  1.7459
 1716TIP3    H226708   4.553   1.697  -0.016 -0.1562 -0.0304 -0.5133
 1717TIP3   OH226709   4.667   2.857   0.578 -0.1109 -0.3662 -0.0358
 1717TIP3    H126710   4.670   2.810   0.494 -1.2667 -1.5482  0.5564
 1717TIP3    H226711   4.737   2.817   0.630  0.1042 -0.1541 -0.1560
 1718TIP3   OH226712   4.654   4.719   6.718  0.4613  0.6610 -0.1921
 1718TIP3    H126713   4.583   4.776   6.748  0.2610  0.7500 -0.8302
 1718TIP3    H226714   4.642   4.638   6.768 -1.0146  0.1056 -1.3656
 1719TIP3   OH226715   4.430   5.256   7.673 -0.5917 -0.3090  0.0318
 1719TIP3    H126716   4.439   5.338   7.721  1.8919 -1.1159  1.1555
 1719TIP3    H226717   4.426   5.281   7.581 -0.7008  1.0767  0.3973
 1720TIP3   OH226718   0.811   2.551   0.408  0.3238  0.7280 -0.1410
 1720TIP3    H126719   0.728   2.502   0.411 -0.1016  1.4691  0.4509
 1720TIP3    H226720   0.875   2.490   0.445  0.0803  0.1033 -0.7138
 1721TIP3   OH226721   3.800   3.719   6.572  0.0893 -0.0752  0.4454
 1721TIP3    H126722   3.875   3.685   6.522 -0.4672 -0.4338 -0.1524
 1721TIP3    H226723   3.832   3.802   6.608  0.9178 -0.4222  0.5543
 1722TIP3   OH226724   0.483   6.363   0.425 -0.1995  0.1805 -0.5180
 1722TIP3    H126725   0.564   6.365   0.374 -0.3197  1.9023 -0.7002
 1722TIP3    H226726   0.429   6.433   0.388 -1.1179  0.1247  0.6416
 1723TIP3   OH226727   3.055   3.681   0.030  0.1628  0.0467  0.1416
 1723TIP3    H126728   3.143   3.657   0.001  0.1817  0.3655 -0.0699
 1723TIP3    H226729   3.035   3.761  -0.018 -0.3613 -0.1817 -0.0273
 1724TIP3   OH226730   3.444   1.435   8.359  0.3771 -0.0265 -0.5937
 1724TIP3    H126731   3.372   1.390   8.314 -0.0123 -1.2813  1.1453
 1724TIP3    H226732   3.433   1.410   8.451  0.9086  2.6953  0.2910
 1725TIP3   OH226733   3.540   0.974   0.227  0.1560 -0.3887 -0.3952
 1725TIP3    H126734   3.578   0.911   0.166  0.5859  0.7882 -1.4018
 1725TIP3    H226735   3.615   1.017   0.268  0.0582  1.9946 -2.4342
 1726TIP3   OH226736   6.316   5.590   0.148 -0.2433 -0.1028 -0.0125
 1726TIP3    H126737   6.271   5.603   0.065 -0.9213 -1.0556  0.1832
 1726TIP3    H226738   6.399   5.549   0.125 -0.9817 -1.6029 -0.1713
 1727TIP3   OH226739   4.718   4.056   0.159 -0.1256  0.0018  0.2656
 1727TIP3    H126740   4.806   4.073   0.192 -0.2930  0.1165  0.6584
 1727TIP3    H226741   4.695   3.970   0.195  0.1029 -0.3509 -0.4215
 1728TIP3   OH226742   3.308   2.689   6.315 -0.1307 -0.1865  0.1886
 1728TIP3    H126743   3.248   2.721   6.248  1.3226  2.4166 -0.0088
 1728TIP3    H226744   3.254   2.675   6.392 -1.1092  1.4950 -0.1505
 1729TIP3   OH226745   0.828   4.624   8.303  0.1678  0.4858 -0.2720
 1729TIP3    H126746   0.882   4.552   8.270 -0.3696 -0.0128 -0.0756
 1729TIP3    H226747   0.891   4.687   8.337  0.6961  0.5514 -1.3040
 1730TIP3   OH226748   6.198   2.606   7.187 -0.3599  0.1160  0.3548
 1730TIP3    H126749   6.281   2.596   7.140 -1.1219 -2.9188 -0.5771
 1730TIP3    H226750   6.132   2.574   7.125 -1.9770  0.3712  1.8690
 1731TIP3   OH226751   6.020   3.651   0.930 -0.3129  0.2749 -0.3265
 1731TIP3    H126752   6.009   3.720   0.995  0.7121  1.1278 -1.0078
 1731TIP3    H226753   6.076   3.587   0.972 -1.8203 -0.5160  0.5560
 1732TIP3   OH226754   6.293   2.884   1.338  0.0443  0.2440 -0.0261
 1732TIP3    H126755   6.342   2.807   1.310  1.5550  0.5410  1.5977
 1732TIP3    H226756   6.201   2.862   1.322  0.5962 -0.9031 -1.8173
 1733TIP3   OH226757   4.556   3.161   8.579 -0.2194 -0.4015  0.3261
 1733TIP3    H126758   4.568   3.089   8.517 -1.6081  0.2936 -0.8103
 1733TIP3    H226759   4.494   3.127   8.643  0.4933 -0.7933  0.8322
 1734TIP3   OH226760   0.807   1.090   0.853  0.8040 -0.4447 -0.1781
 1734TIP3    H126761   0.781   1.000   0.875 -1.1360 -0.4958 -2.3786
 1734TIP3    H226762   0.892   1.080   0.810  0.6011 -1.2323 -0.4186
 1735TIP3   OH226763   0.708   6.760   0.081 -0.4107  0.1665  0.3701
 1735TIP3    H126764   0.723   6.799  -0.006  2.0069  0.3689  0.8029
 1735TIP3    H226765   0.729   6.668   0.069 -0.8418  0.0400  0.5773
 1736TIP3   OH226766   4.381   2.788   0.146 -0.4073 -0.1914 -0.8386
 1736TIP3    H126767   4.360   2.835   0.066 -0.9988  1.3650  0.1714
 1736TIP3    H226768   4.300   2.743   0.169 -0.0407 -1.1825 -1.4469
 1737TIP3   OH226769   1.813   2.086   8.650  0.0005 -0.5098  0.3640
 1737TIP3    H126770   1.856   2.058   8.732 -1.0202 -0.9067  0.7784
 1737TIP3    H226771   1.738   2.028   8.641 -0.1056 -0.2326 -0.6837
 1738TIP3   OH226772   1.355   0.363   0.448 -0.2154 -0.6108 -0.2308
 1738TIP3    H126773   1.274   0.342   0.494 -0.0052 -1.6682 -0.3371
 1738TIP3    H226774   1.408   0.284   0.453  0.8550  0.0908 -0.0921
 1739TIP3   OH226775   0.496   2.971   0.253  0.1340 -0.2674  0.0558
 1739TIP3    H126776   0.539   2.975   0.168  1.0480  1.2484  0.5701
 1739TIP3    H226777   0.567   2.968   0.317 -0.5373 -1.2992  0.7940
 1740TIP3   OH226778   6.863   3.965   8.163  0.4930  0.0557  0.8748
 1740TIP3    H126779   6.787   3.949   8.219  0.5634  1.1166  1.3151
 1740TIP3    H226780   6.873   3.886   8.111 -1.1392  0.0441  0.5493
 1741TIP3   OH226781   6.207   1.590   7.861 -0.3372  0.0121  0.1776
 1741TIP3    H126782   6.114   1.602   7.841 -0.3661  0.3850  0.5247
 1741TIP3    H226783   6.232   1.669   7.910  0.7094  0.9789 -1.7941
 1742TIP3   OH226784   0.252   2.506   0.236 -0.7774  0.4111  0.4478
 1742TIP3    H126785   0.309   2.485   0.310 -1.1924 -0.9077  0.4190
 1742TIP3    H226786   0.277   2.444   0.168 -0.0129  1.9722 -0.7518
 1743TIP3   OH226787   6.288   6.806   7.691 -0.7078 -0.0857 -0.2825
 1743TIP3    H126788   6.347   6.834   7.762 -0.5307  0.2907 -0.5727
 1743TIP3    H226789   6.344   6.802   7.614 -0.9352 -0.3398 -0.4335
 1744TIP3   OH226790   1.157   1.372   7.612 -0.3917 -0.1887  0.2678
 1744TIP3    H126791   1.110   1.442   7.567  1.5298  2.2938  1.8588
 1744TIP3    H226792   1.227   1.347   7.552 -0.6660 -0.2695 -0.0202
 1745TIP3   OH226793   3.233   4.710   6.304 -0.1634  0.0507 -0.8579
 1745TIP3    H126794   3.309   4.765   6.285  0.9693 -0.0414  2.6678
 1745TIP3    H226795   3.173   4.768   6.350 -1.6356 -0.2488 -2.3456
 1746TIP3   OH226796   5.846   3.182   7.020  0.1331 -1.0557 -0.1641
 1746TIP3    H126797   5.788   3.254   6.994  0.4605 -0.4666  0.6979
 1746TIP3    H226798   5.789   3.105   7.024 -0.0966 -1.0025 -1.7558
 1747TIP3   OH226799   0.340   1.453   6.505 -0.0976  0.3800  0.1507
 1747TIP3    H126800   0.279   1.523   6.527 -0.5134 -0.3355  1.3889
 1747TIP3    H226801   0.412   1.463   6.568 -0.8711 -1.1683  1.3448
 1748TIP3   OH226802   4.309   5.613   2.436 -0.3850  0.2683  0.3777
 1748TIP3    H126803   4.233   5.564   2.466 -1.1790  1.3942  0.2744
 1748TIP3    H226804   4.378   5.593   2.499 -1.1199  0.1877  1.1664
 1749TIP3   OH226805   0.766   0.301   7.947  0.2974  0.4072 -0.5503
 1749TIP3    H126806   0.681   0.258   7.963  0.1576  0.7011 -0.4855
 1749TIP3    H226807   0.804   0.253   7.874 -0.1437  0.5736 -0.8978
 1750TIP3   OH226808   1.990   0.097   7.315  0.5053 -0.1439  0.4502
 1750TIP3    H126809   1.998   0.182   7.358  1.3985 -0.5918  1.2096
 1750TIP3    H226810   1.896   0.081   7.310  0.3458  0.6771  0.7202
 1751TIP3   OH226811   6.123   3.848   7.651 -0.2691  0.3123  0.1299
 1751TIP3    H126812   6.081   3.762   7.653 -0.4548  0.3152 -1.7929
 1751TIP3    H226813   6.178   3.846   7.573 -0.3879  1.9957 -0.0282
 1752TIP3   OH226814   3.648   4.455   0.118 -0.4584 -0.6262  0.4811
 1752TIP3    H126815   3.700   4.402   0.057 -1.9523 -1.3601 -0.2159
 1752TIP3    H226816   3.573   4.484   0.066 -0.0432  1.6402  1.0400
 1753TIP3   OH226817   6.764   5.986   7.893  0.2371  0.3020 -0.3952
 1753TIP3    H126818   6.855   5.962   7.875  0.6857  1.6002  0.0422
 1753TIP3    H226819   6.713   5.943   7.824  1.3800  1.0536 -1.7569
 1754TIP3   OH226820   3.809   4.706   8.528  0.4144  0.2868  0.0546
 1754TIP3    H126821   3.847   4.728   8.613  1.3041  0.7393 -0.4438
 1754TIP3    H226822   3.733   4.651   8.549  0.2869  0.8548  1.1612
 1755TIP3   OH226823   3.212   1.612   1.307 -0.5682  0.3600  0.2763
 1755TIP3    H126824   3.178   1.585   1.393  1.1708 -1.7135  0.4004
 1755TIP3    H226825   3.165   1.559   1.244 -0.1089  0.0721  0.1677
 1756TIP3   OH226826   4.811   4.052   0.784 -0.0746 -0.5868  0.0556
 1756TIP3    H126827   4.838   4.107   0.711  1.7294  0.0827  1.1713
 1756TIP3    H226828   4.850   3.967   0.766  1.8698  0.0366  1.0249
 1757TIP3   OH226829   3.320   2.662   0.118  0.5033  0.2778 -0.0738
 1757TIP3    H126830   3.270   2.741   0.099  1.2409  1.0099  0.9450
 1757TIP3    H226831   3.284   2.596   0.057 -0.6188  1.1786 -0.4299
 1758TIP3   OH226832   1.524   6.229   7.517 -0.3196  0.3310 -0.1786
 1758TIP3    H126833   1.576   6.233   7.597 -3.8918 -1.0216  2.4868
 1758TIP3    H226834   1.473   6.309   7.517  1.1223  1.3516 -2.4200
 1759TIP3   OH226835   5.049   0.947   6.850 -0.1191 -0.5727 -0.1110
 1759TIP3    H126836   4.956   0.951   6.828 -0.8781 -1.4286  2.5638
 1759TIP3    H226837   5.062   1.018   6.913  0.8102 -1.0294  0.2379
 1760TIP3   OH226838   5.032   0.770   8.316 -0.5727 -0.8337 -0.1225
 1760TIP3    H126839   5.028   0.686   8.362 -1.3261 -0.6504  0.1573
 1760TIP3    H226840   4.967   0.763   8.246 -1.9103  0.1262  0.9662
 1761TIP3   OH226841   5.276   6.472   1.926  0.0718  0.3945 -0.9238
 1761TIP3    H126842   5.251   6.471   1.833  0.0129  1.7373 -0.9450
 1761TIP3    H226843   5.325   6.553   1.937  1.2041 -0.3741 -0.0412
 1762TIP3   OH226844   4.556   2.180   1.669  0.8404  0.0030 -0.0517
 1762TIP3    H126845   4.506   2.247   1.622  2.0012  1.0863  0.2034
 1762TIP3    H226846   4.554   2.104   1.611 -1.1620 -0.0388  0.0033
 1763TIP3   OH226847   0.946   3.951   2.000 -0.3530  0.0558 -0.5907
 1763TIP3    H126848   0.980   3.948   2.089  1.1520 -0.6454 -1.1366
 1763TIP3    H226849   0.891   3.873   1.992  0.7265 -0.7206 -0.6956
 1764TIP3   OH226850   3.497   1.042   0.531 -0.2489 -0.1307  0.5058
 1764TIP3    H126851   3.495   1.133   0.503  0.7175  0.0248  0.9128
 1764TIP3    H226852   3.437   0.997   0.471 -0.4565  0.7059  0.0764
 1765TIP3   OH226853   3.632   2.655   7.290 -0.1156 -0.4501  0.5577
 1765TIP3    H126854   3.721   2.630   7.265 -0.1100  0.5158 -0.4716
 1765TIP3    H226855   3.615   2.736   7.241 -0.2114  1.4680  3.4728
 1766TIP3   OH226856   1.317   4.313   1.586 -0.8148  0.5057  0.2594
 1766TIP3    H126857   1.310   4.402   1.621  3.3666  0.5189  1.6607
 1766TIP3    H226858   1.280   4.258   1.655 -1.9571  1.0413  0.0950
 1767TIP3   OH226859   2.059   1.443   8.642 -0.0046  0.0964  0.8237
 1767TIP3    H126860   2.116   1.438   8.719 -1.3916 -0.4877  1.8693
 1767TIP3    H226861   1.998   1.514   8.662 -0.2276  0.1090  0.1331
 1768TIP3   OH226862   3.945   0.367   7.229  0.1092  0.6371  0.0502
 1768TIP3    H126863   3.936   0.442   7.170  1.1740  0.7648  0.0302
 1768TIP3    H226864   3.977   0.406   7.311  2.0280  0.0642 -0.3862
 1769TIP3   OH226865   5.833   0.922   0.643 -0.3511  0.3503  0.0001
 1769TIP3    H126866   5.876   0.842   0.614  1.1980  1.4307 -0.8325
 1769TIP3    H226867   5.898   0.966   0.698 -0.9364  1.3173 -0.0617
 1770TIP3   OH226868   6.350   2.854   7.299  0.3677  0.8192  0.4369
 1770TIP3    H126869   6.263   2.877   7.266  0.3956  1.6997  0.9470
 1770TIP3    H226870   6.382   2.787   7.238 -0.4742  0.8115 -0.0178
 1771TIP3   OH226871   6.356   3.523   0.339  0.0122 -0.1908 -0.3129
 1771TIP3    H126872   6.263   3.532   0.318 -0.0799 -2.2598 -1.0684
 1771TIP3    H226873   6.392   3.472   0.266  1.1714 -1.6012  1.1731
 1772TIP3   OH226874   4.682   3.593   1.808  0.1103  0.0963 -0.1544
 1772TIP3    H126875   4.713   3.640   1.886  0.4325 -0.5235  0.0985
 1772TIP3    H226876   4.595   3.630   1.791  0.1354  0.4051  0.3619
 1773TIP3   OH226877   5.605   5.690   8.019  0.7449 -0.1732  0.3485
 1773TIP3    H126878   5.521   5.726   7.992 -0.0027 -1.4589  0.8529
 1773TIP3    H226879   5.653   5.764   8.055 -1.2400  0.1648  2.5655
 1774TIP3   OH226880   1.023   3.174   1.280  0.1884 -0.6889 -0.4681
 1774TIP3    H126881   0.951   3.219   1.235 -1.0663 -1.6090  0.5464
 1774TIP3    H226882   0.990   3.160   1.369  1.4070 -1.6360 -0.1441
 1775TIP3   OH226883   0.481   0.669   0.609  0.5811 -0.1757 -0.0991
 1775TIP3    H126884   0.532   0.644   0.686  0.3405 -0.1127  0.0844
 1775TIP3    H226885   0.390   0.664   0.639  0.5149  0.6436 -0.1324
 1776TIP3   OH226886   2.510   0.663   0.796 -0.0538  0.0472 -0.1113
 1776TIP3    H126887   2.515   0.568   0.787  0.3182  0.0971 -0.4456
 1776TIP3    H226888   2.429   0.688   0.751 -0.6563 -0.2057  0.7911
 1777TIP3   OH226889   2.681   4.117   0.232  0.6112  0.1056  0.0881
 1777TIP3    H126890   2.741   4.121   0.306  1.4234 -1.2958 -0.4616
 1777TIP3    H226891   2.602   4.162   0.263  1.9004  1.9603  0.8365
 1778TIP3   OH226892   6.523   2.578   6.397 -0.1877 -0.3930 -0.2136
 1778TIP3    H126893   6.565   2.564   6.482 -1.7859  0.7410  0.8281
 1778TIP3    H226894   6.468   2.500   6.385  0.2036 -0.6557 -0.3260
 1779TIP3   OH226895   3.905   4.204   1.626  0.0178  0.5015  0.0935
 1779TIP3    H126896   3.986   4.197   1.575  0.4586 -0.9095  0.9135
 1779TIP3    H226897   3.931   4.179   1.715 -1.3240 -0.0139  0.3677
 1780TIP3   OH226898   4.471   0.497   1.477  0.2490  0.0575  1.1064
 1780TIP3    H126899   4.504   0.408   1.472 -0.3140 -0.1334  0.7114
 1780TIP3    H226900   4.548   0.551   1.497  0.9042 -0.2911 -0.3941
 1781TIP3   OH226901   3.887   2.486   7.634  0.6059  0.3556  0.7125
 1781TIP3    H126902   3.795   2.472   7.657  0.5180 -0.4453 -0.1072
 1781TIP3    H226903   3.932   2.407   7.663  0.8343  0.2313  0.0331
 1782TIP3   OH226904   3.191   1.829   6.032 -0.5656  0.4250  0.6369
 1782TIP3    H126905   3.258   1.853   6.096  0.3854  0.2564 -0.2708
 1782TIP3    H226906   3.240   1.793   5.958 -1.7415 -1.0915  0.5434
 1783TIP3   OH226907   6.583   4.079   7.784 -0.5303 -0.1574  0.0315
 1783TIP3    H126908   6.669   4.052   7.752 -0.8625 -1.1542 -0.0747
 1783TIP3    H226909   6.523   4.055   7.713 -0.7115  2.3147 -0.7526
 1784TIP3   OH226910   0.800   2.246   7.631  0.1162  0.0383 -0.6016
 1784TIP3    H126911   0.844   2.269   7.713  0.0465 -1.2692 -0.1604
 1784TIP3    H226912   0.867   2.201   7.579 -0.3517 -0.9246 -0.4071
 1785TIP3   OH226913   4.748   3.479   7.656  0.2131 -0.2576 -0.6081
 1785TIP3    H126914   4.704   3.561   7.632  0.2525 -0.5900 -1.9241
 1785TIP3    H226915   4.761   3.485   7.750  2.0518  2.1801 -0.9164
 1786TIP3   OH226916   0.023   4.399   0.523 -0.5588 -0.0353 -0.2802
 1786TIP3    H126917   0.070   4.332   0.474  1.8242  1.3181  0.0009
 1786TIP3    H226918   0.090   4.441   0.577 -2.5803  0.3045  2.1573
 1787TIP3   OH226919   5.312   1.799   7.313 -0.1932  0.2100  0.8101
 1787TIP3    H126920   5.366   1.727   7.280 -0.4147  1.0725 -1.6492
 1787TIP3    H226921   5.367   1.877   7.302 -1.1442  0.8209  0.2904
 1788TIP3   OH226922   1.308   3.200   8.220  0.9712  0.0287  0.2211
 1788TIP3    H126923   1.321   3.289   8.186  0.0456  0.3137  0.5638
 1788TIP3    H226924   1.360   3.197   8.300  1.1714  0.1989  0.0969
 1789TIP3   OH226925   6.296   2.615   7.461  0.6935 -0.3277  0.2029
 1789TIP3    H126926   6.345   2.692   7.434  0.4733  0.0676  0.9030
 1789TIP3    H226927   6.245   2.591   7.384  1.3418 -0.2390 -0.2607
 1790TIP3   OH226928   6.640   2.983   7.461  0.2930 -0.0184  0.4875
 1790TIP3    H126929   6.651   2.904   7.409 -1.0639 -1.1106  1.7642
 1790TIP3    H226930   6.648   2.953   7.552  3.5794  1.9651  1.0128
 1791TIP3   OH226931   0.173   0.203   6.830 -0.2577 -0.3495  0.1360
 1791TIP3    H126932   0.159   0.210   6.736  0.5651 -1.1363 -0.0565
 1791TIP3    H226933   0.148   0.113   6.852 -0.0311 -0.3071  0.5911
 1792TIP3   OH226934   6.888   2.589   0.142  0.0862  0.4199 -0.2658
 1792TIP3    H126935   6.973   2.571   0.181 -0.1931 -1.3942 -0.4069
 1792TIP3    H226936   6.836   2.510   0.159 -1.1021  0.9055 -1.4238
 1793TIP3   OH226937   6.293   3.890   6.515 -0.2116 -0.6354  0.1900
 1793TIP3    H126938   6.207   3.857   6.490 -0.7308  1.0233 -0.3707
 1793TIP3    H226939   6.295   3.882   6.610 -0.8025 -1.0795  0.1696
 1794TIP3   OH226940   3.007   5.986   8.576  0.7971  0.3321  0.3863
 1794TIP3    H126941   3.074   6.041   8.615  3.4677 -2.2222 -0.2338
 1794TIP3    H226942   3.019   5.900   8.617 -3.9804  0.2405  2.2473
 1795TIP3   OH226943   6.672   2.760   7.294  0.2305 -0.0689 -0.1445
 1795TIP3    H126944   6.768   2.754   7.289  0.3626  0.2539  1.4648
 1795TIP3    H226945   6.646   2.679   7.338 -0.2246 -0.0080 -0.2985
 1796TIP3   OH226946   0.339   0.912   2.182  0.3209  0.5151  0.7498
 1796TIP3    H126947   0.274   0.872   2.241 -1.1651  0.6082 -0.7465
 1796TIP3    H226948   0.381   0.837   2.139  1.8191  0.4240  2.2782
 1797TIP3   OH226949   3.762   3.187   0.541 -0.1917 -0.4392  0.0437
 1797TIP3    H126950   3.839   3.143   0.577  0.4159  0.7700  0.2812
 1797TIP3    H226951   3.793   3.227   0.460 -0.7337 -0.4588 -0.1762
 1798TIP3   OH226952   6.409   4.758   8.260 -0.8923  0.1187  0.3353
 1798TIP3    H126953   6.332   4.786   8.211 -1.6589  1.7565  2.3353
 1798TIP3    H226954   6.466   4.835   8.260 -0.4731 -0.1766  1.1442
 1799TIP3   OH226955   3.959   5.891   6.697 -0.0213 -0.3437 -0.0315
 1799TIP3    H126956   4.004   5.956   6.751 -1.6613 -0.9263  2.1813
 1799TIP3    H226957   3.871   5.885   6.735 -1.4483 -0.5232 -3.0648
 1800TIP3   OH226958   0.031   0.495   7.535 -0.2689 -0.2877  0.0326
 1800TIP3    H126959   0.078   0.488   7.452  1.1940 -0.4953  0.8452
 1800TIP3    H226960   0.084   0.556   7.587  1.3293 -3.3672  2.3723
 1801TIP3   OH226961   2.934   5.581   1.497  0.6161  0.3663 -0.1642
 1801TIP3    H126962   2.968   5.492   1.486  2.1752  0.9419 -0.3449
 1801TIP3    H226963   3.001   5.625   1.549 -1.4426  0.7087  2.3485
 1802TIP3   OH226964   5.046   6.442   1.257 -0.0428  0.3448 -0.2114
 1802TIP3    H126965   5.126   6.451   1.309 -0.2932 -0.6198  0.3689
 1802TIP3    H226966   5.050   6.352   1.223 -1.7474 -0.3819  1.3350
 1803TIP3   OH226967   1.768   1.240   6.814  0.5697  0.0394  0.0188
 1803TIP3    H126968   1.746   1.167   6.756  0.3604 -1.0094  1.3553
 1803TIP3    H226969   1.690   1.296   6.812  0.1500 -0.5278  0.0716
 1804TIP3   OH226970   0.852   6.170   7.634  0.4745 -0.1707 -0.0457
 1804TIP3    H126971   0.853   6.088   7.684 -1.4108 -0.1639  0.0828
 1804TIP3    H226972   0.762   6.203   7.644  1.7403  3.2419  2.0555
 1805TIP3   OH226973   5.646   4.500   2.270 -0.3743  0.4666 -0.1185
 1805TIP3    H126974   5.556   4.468   2.257 -0.3734 -0.1137  1.1271
 1805TIP3    H226975   5.700   4.441   2.217 -0.7135  0.8317 -0.8936
 1806TIP3   OH226976   2.770   2.366   7.824  0.3165  0.6566 -0.5328
 1806TIP3    H126977   2.832   2.357   7.752  0.8126 -0.2139 -0.0159
 1806TIP3    H226978   2.742   2.458   7.820  1.1461  0.8972 -1.1699
 1807TIP3   OH226979   6.103   2.526   2.182 -0.3493  0.2725  0.3465
 1807TIP3    H126980   6.035   2.472   2.141  0.8331 -2.1604  1.3649
 1807TIP3    H226981   6.099   2.504   2.275  1.9672 -0.1794  0.4079
 1808TIP3   OH226982   4.100   2.539   1.326 -0.4465 -0.1945 -0.6322
 1808TIP3    H126983   4.085   2.470   1.261 -0.0790 -1.1072  0.2236
 1808TIP3    H226984   4.018   2.545   1.374  0.4322 -2.2178  1.2807
 1809TIP3   OH226985   1.011   2.724   0.981  0.1593 -0.1886 -0.2937
 1809TIP3    H126986   1.030   2.631   0.966  0.3325 -0.4519  1.3804
 1809TIP3    H226987   0.974   2.727   1.070 -1.3373  1.1518 -0.9047
 1810TIP3   OH226988   0.842   3.896   7.688  0.2425 -0.3745 -0.0249
 1810TIP3    H126989   0.801   3.814   7.662 -2.0651  0.5275  0.4968
 1810TIP3    H226990   0.812   3.911   7.778  0.0368  1.3381 -0.3366
 1811TIP3   OH226991   1.334   0.632   7.994 -0.0919 -0.5992  0.2410
 1811TIP3    H126992   1.244   0.664   7.994  0.8263  2.4030 -1.8315
 1811TIP3    H226993   1.372   0.666   8.075 -0.1009  0.6403 -0.2517
 1812TIP3   OH226994   3.969   4.905   0.938 -0.1175  0.4125  0.2532
 1812TIP3    H126995   4.001   4.839   0.876 -0.8427 -1.1993  1.5218
 1812TIP3    H226996   3.877   4.917   0.914 -0.5678 -0.6717  1.3420
 1813TIP3   OH226997   0.864   2.378   6.692  0.2263  0.2135 -0.1498
 1813TIP3    H126998   0.846   2.314   6.761  1.2485 -1.0533 -0.9961
 1813TIP3    H226999   0.856   2.463   6.735 -2.0587 -0.4075  0.8126
 1814TIP3   OH227000   5.705   0.882   8.643  0.4908  0.3251 -0.0822
 1814TIP3    H127001   5.699   0.827   8.564  0.3790 -0.0073  0.1584
 1814TIP3    H227002   5.677   0.969   8.613 -0.2448  0.0396 -0.2412
 1815TIP3   OH227003   1.995   5.006   1.160  0.3163 -0.3215  0.2445
 1815TIP3    H127004   2.040   4.972   1.238  1.3920 -0.4182 -0.3932
 1815TIP3    H227005   1.986   5.100   1.177 -0.6270 -0.5349  1.0312
 1816TIP3   OH227006   1.247   4.137   7.508  0.0413  0.3352  0.0215
 1816TIP3    H127007   1.207   4.071   7.564  1.3721 -0.0219  0.5973
 1816TIP3    H227008   1.186   4.146   7.434 -1.2850  0.1589  1.0582
 1817TIP3   OH227009   2.308   5.663   0.395 -0.5846 -0.2430 -0.0995
 1817TIP3    H127010   2.378   5.726   0.413  0.3426 -1.0323 -0.8754
 1817TIP3    H227011   2.253   5.667   0.474  1.7213 -1.4346  1.7012
 1818TIP3   OH227012   3.065   5.150   1.095 -0.5648  0.5138  0.4777
 1818TIP3    H127013   3.033   5.232   1.132  0.6427  1.3010 -0.1424
 1818TIP3    H227014   3.131   5.120   1.158 -0.8014  0.1606  0.5602
 1819TIP3   OH227015   3.639   2.413   7.703 -0.3126  0.0111  0.7967
 1819TIP3    H127016   3.627   2.319   7.694 -2.8439  0.1659  1.7376
 1819TIP3    H227017   3.558   2.444   7.743  0.6706  2.5278  1.0413
 1820TIP3   OH227018   4.968   6.611   0.194  0.8183 -0.1406  0.5452
 1820TIP3    H127019   5.037   6.638   0.133  1.7090 -1.6466  0.8444
 1820TIP3    H227020   4.967   6.680   0.260  0.7803  0.8171 -0.4267
 1821TIP3   OH227021   0.288   2.498   0.740  0.1504 -0.7261  0.5416
 1821TIP3    H127022   0.281   2.413   0.783 -1.6457 -1.2481 -0.6548
 1821TIP3    H227023   0.333   2.553   0.804  2.4044 -2.8235  0.9195
 1822TIP3   OH227024   0.785   3.301   0.668  0.8504  0.1599  0.1808
 1822TIP3    H127025   0.722   3.233   0.690 -0.0975  0.1762 -2.1445
 1822TIP3    H227026   0.731   3.379   0.653  1.4502  0.3486 -1.1661
 1823TIP3   OH227027   4.157   1.880   6.864 -0.5486 -0.3189 -0.8437
 1823TIP3    H127028   4.123   1.874   6.954 -1.1342 -1.4428 -1.1159
 1823TIP3    H227029   4.244   1.917   6.874 -0.6939 -0.2109  0.1744
 1824TIP3   OH227030   0.985   2.606   6.843 -0.0368  0.0216  0.3906
 1824TIP3    H127031   1.079   2.594   6.857  0.0896  0.5812  0.0734
 1824TIP3    H227032   0.980   2.670   6.771 -0.6490 -1.1237 -0.6206
 1825TIP3   OH227033   4.347   1.850   0.425  0.0142  0.4323 -0.3067
 1825TIP3    H127034   4.266   1.800   0.415 -0.0407  0.1283  1.3056
 1825TIP3    H227035   4.412   1.800   0.376 -0.5685  0.1631 -0.8202
 1826TIP3   OH227036   5.232   6.453   0.648 -0.1693 -0.2835  0.1472
 1826TIP3    H127037   5.165   6.505   0.604 -1.1388 -2.1355 -0.6965
 1826TIP3    H227038   5.182   6.386   0.696  1.0322 -0.9385  0.5213
 1827TIP3   OH227039   6.063   5.029   8.004  0.0171 -0.5115 -0.3440
 1827TIP3    H127040   6.025   5.112   8.032  1.0990 -0.0384 -0.2108
 1827TIP3    H227041   6.029   5.015   7.916 -0.1895  0.0625 -0.3564
 1828TIP3   OH227042   3.132   3.677   6.685 -0.0765  0.5077  0.4996
 1828TIP3    H127043   3.163   3.665   6.775  0.0898  1.6056  0.5981
 1828TIP3    H227044   3.132   3.589   6.648  0.7318  0.1616  1.2872
 1829TIP3   OH227045   6.248   5.603   7.986 -0.5869 -0.0728  0.6764
 1829TIP3    H127046   6.154   5.614   7.994 -0.3765  1.0547  1.8484
 1829TIP3    H227047   6.271   5.650   7.905 -0.9945 -0.2275  0.4669
 1830TIP3   OH227048   6.609   6.589   0.773 -0.2290  0.5820  0.3464
 1830TIP3    H127049   6.588   6.501   0.805 -2.2733  0.8417 -0.1328
 1830TIP3    H227050   6.561   6.648   0.831 -1.8460  1.1686 -1.4640
 1831TIP3   OH227051   4.101   6.680   1.636  0.0531 -0.1463  0.4410
 1831TIP3    H127052   4.181   6.636   1.666  1.1297  1.7178  0.4444
 1831TIP3    H227053   4.110   6.770   1.667 -1.0196  0.6623 -1.4109
 1832TIP3   OH227054   1.029   0.096   7.583  0.3032 -0.4014 -0.0045
 1832TIP3    H127055   1.109   0.140   7.555  0.0004  2.2901  2.8806
 1832TIP3    H227056   1.038   0.007   7.548  2.7840  0.7774 -2.8592
 1833TIP3   OH227057   3.386   4.486   8.189 -0.5367 -0.2641  0.1649
 1833TIP3    H127058   3.351   4.398   8.173 -0.8947 -0.5345  2.1846
 1833TIP3    H227059   3.337   4.519   8.264 -0.8626  1.9641 -0.9517
 1834TIP3   OH227060   1.282   0.422   0.058  0.1746 -0.5985 -0.5085
 1834TIP3    H127061   1.232   0.369   0.121  1.5548 -0.0860  1.1046
 1834TIP3    H227062   1.361   0.371   0.042  0.0870 -0.4580 -1.4109
 1835TIP3   OH227063   5.559   4.051   7.258 -0.3259 -1.5683 -0.0027
 1835TIP3    H127064   5.474   4.007   7.254 -1.1242 -0.0815  0.0371
 1835TIP3    H227065   5.538   4.144   7.262  1.3264 -0.9955 -2.2957
 1836TIP3   OH227066   0.951   3.354   2.630 -0.0130 -0.0190 -0.0391
 1836TIP3    H127067   1.034   3.325   2.668  0.4341  1.6553  0.3319
 1836TIP3    H227068   0.941   3.301   2.551  0.7729 -1.1184  0.5649
 1837TIP3   OH227069   3.897   0.379   0.907 -0.2694 -0.6995  0.0636
 1837TIP3    H127070   3.865   0.463   0.940 -1.8903 -2.1599  2.5915
 1837TIP3    H227071   3.992   0.386   0.910 -0.3500  0.3287  2.4181
 1838TIP3   OH227072   4.741   0.192   6.294 -0.1318 -0.2486 -0.4445
 1838TIP3    H127073   4.812   0.213   6.355  0.7055  0.7649 -1.7153
 1838TIP3    H227074   4.779   0.129   6.233 -0.2562  0.4018 -1.2143
 1839TIP3   OH227075   3.358   2.617   7.417 -0.4415 -0.0801 -0.0287
 1839TIP3    H127076   3.415   2.618   7.341 -0.4837  0.2043 -0.0561
 1839TIP3    H227077   3.349   2.709   7.442 -1.7273 -0.0211 -0.6538
 1840TIP3   OH227078   0.264   3.705   6.263  0.7379 -0.1397  0.1233
 1840TIP3    H127079   0.309   3.685   6.181  0.5776  1.3871 -0.3814
 1840TIP3    H227080   0.315   3.775   6.302 -0.7388  1.1338 -0.1074
 1841TIP3   OH227081   6.578   6.747   1.940 -0.3374  0.4646 -0.5065
 1841TIP3    H127082   6.632   6.788   1.873  1.5498 -0.9605  0.0518
 1841TIP3    H227083   6.578   6.809   2.013  0.4784  0.5292 -0.5562
 1842TIP3   OH227084   3.457   4.029   0.541  0.9527  0.1299  0.1418
 1842TIP3    H127085   3.464   4.055   0.450 -0.4828  0.1594  0.0185
 1842TIP3    H227086   3.462   4.111   0.590 -1.8173  0.5564 -0.1488
 1843TIP3   OH227087   5.290   4.310   1.544  0.5857  0.0075 -0.1680
 1843TIP3    H127088   5.240   4.248   1.597 -0.5389  1.3153  0.3564
 1843TIP3    H227089   5.224   4.371   1.509  1.6168  0.7400 -0.9065
 1844TIP3   OH227090   2.310   3.015   1.604 -0.5852 -0.4017 -0.3073
 1844TIP3    H127091   2.399   3.050   1.604 -1.4477  1.9603  0.7820
 1844TIP3    H227092   2.289   3.003   1.697 -1.1620 -1.7194 -0.5778
 1845TIP3   OH227093   6.131   2.745   1.763 -0.0792 -0.7014  0.0136
 1845TIP3    H127094   6.082   2.810   1.712 -0.1480 -1.2971 -0.7051
 1845TIP3    H227095   6.078   2.732   1.842 -0.3209 -0.2615 -0.0683
 1846TIP3   OH227096   5.372   5.094   1.051  0.3649 -0.7636 -0.1451
 1846TIP3    H127097   5.415   5.176   1.028  0.8453 -1.7275 -3.0895
 1846TIP3    H227098   5.314   5.117   1.124  0.6998  2.0927 -0.6757
 1847TIP3   OH227099   6.539   4.394   2.035 -0.3701  0.1341 -0.1279
 1847TIP3    H127100   6.513   4.407   2.126 -0.2055  0.4535 -0.1262
 1847TIP3    H227101   6.583   4.475   2.010  0.9839 -0.5308 -0.0064
 1848TIP3   OH227102   4.931   2.905   0.058 -0.0253 -0.5959 -0.3496
 1848TIP3    H127103   4.996   2.973   0.072  0.6758 -1.2397 -0.4066
 1848TIP3    H227104   4.971   2.826   0.094 -0.8288 -0.9764 -0.2720
 1849TIP3   OH227105   0.602   2.335   1.286  0.3324  0.1098  0.5715
 1849TIP3    H127106   0.507   2.348   1.285  0.3226  0.3130  1.7666
 1849TIP3    H227107   0.614   2.240   1.288  0.2184  0.0247 -1.1666
 1850TIP3   OH227108   2.823   3.350   8.277 -0.4066  0.4025 -0.0833
 1850TIP3    H127109   2.780   3.315   8.198 -1.2104 -1.5900  1.1742
 1850TIP3    H227110   2.777   3.309   8.350  0.3978  2.1090  1.4662
 1851TIP3   OH227111   4.234   6.599   6.769 -0.1912 -0.3326 -0.4533
 1851TIP3    H127112   4.147   6.640   6.775  0.3366  0.9878 -1.3759
 1851TIP3    H227113   4.218   6.506   6.788 -1.3289  0.3413  2.5746
 1852TIP3   OH227114   3.776   5.476   1.673 -0.2479  0.0797  0.3487
 1852TIP3    H127115   3.759   5.555   1.621  2.3096  1.0652  0.8620
 1852TIP3    H227116   3.821   5.508   1.751  0.6293 -1.8656  0.7003
 1853TIP3   OH227117   1.088   0.800   0.274 -0.0517 -0.1484 -0.0459
 1853TIP3    H127118   1.038   0.867   0.226  0.4400  0.1425 -0.1594
 1853TIP3    H227119   1.126   0.848   0.348 -0.1149 -0.4157  0.1591
 1854TIP3   OH227120   4.105   3.417   2.172 -0.2102 -0.2267  0.2165
 1854TIP3    H127121   4.101   3.355   2.245 -0.6294 -1.0072 -0.4587
 1854TIP3    H227122   4.013   3.436   2.152 -0.1041  1.8164  1.3997
 1855TIP3   OH227123   5.351   3.294   8.439  0.3784  0.2283  0.0481
 1855TIP3    H127124   5.295   3.241   8.382 -0.9922  0.9049  0.7064
 1855TIP3    H227125   5.292   3.326   8.507  1.8692 -0.1795  1.6041
 1856TIP3   OH227126   6.186   4.306   8.222  0.3641 -0.2593  0.0992
 1856TIP3    H127127   6.171   4.307   8.317 -0.5630 -2.3086  0.0355
 1856TIP3    H227128   6.171   4.396   8.195  1.5645  0.5820  2.0072
 1857TIP3   OH227129   2.603   1.489   1.075  0.2546 -0.4213 -0.9595
 1857TIP3    H127130   2.672   1.530   1.126 -0.2451  0.1479 -0.7278
 1857TIP3    H227131   2.643   1.410   1.038  0.9013 -0.3096 -0.4998
 1858TIP3   OH227132   4.977   6.808   8.010 -0.4145 -0.1083  0.5034
 1858TIP3    H127133   4.966   6.865   7.934 -2.9549 -3.1053 -1.6466
 1858TIP3    H227134   4.904   6.830   8.068  0.4076  0.8317  1.2344
 1859TIP3   OH227135   2.145   2.483   7.610 -0.0721  0.3147 -0.6035
 1859TIP3    H127136   2.063   2.486   7.660 -0.7477 -0.7725 -1.6029
 1859TIP3    H227137   2.170   2.575   7.600  0.0265  0.5974  1.5909
 1860TIP3   OH227138   5.398   6.752   0.889 -0.5199  0.4623  0.0684
 1860TIP3    H127139   5.427   6.780   0.976  2.2165  1.3985 -1.0222
 1860TIP3    H227140   5.424   6.660   0.883 -2.1344 -0.0652  0.7523
 1861TIP3   OH227141   6.407   5.685   1.202  0.2723  0.4304 -0.4418
 1861TIP3    H127142   6.471   5.755   1.195 -0.5576  1.1173 -1.4103
 1861TIP3    H227143   6.324   5.725   1.175 -0.3629 -0.7211 -0.2703
 1862TIP3   OH227144   2.263   5.205   1.248  0.1347  0.3776  0.4082
 1862TIP3    H127145   2.202   5.239   1.182  0.8620 -0.4551 -0.7247
 1862TIP3    H227146   2.209   5.189   1.325 -0.9976  0.0753 -0.4244
 1863TIP3   OH227147   1.032   0.449   7.798  0.6533 -0.0288  0.0686
 1863TIP3    H127148   1.098   0.383   7.820 -0.3324 -0.8371  0.6974
 1863TIP3    H227149   1.026   0.446   7.702 -0.1054 -1.6238  0.1321
 1864TIP3   OH227150   0.988   5.327   6.962  0.3272  0.3602  0.0294
 1864TIP3    H127151   1.012   5.296   6.874 -2.2360 -0.6214 -0.4139
 1864TIP3    H227152   0.895   5.347   6.956  0.0483  0.1739  2.5549
 1865TIP3   OH227153   0.059   4.500   2.317 -0.2710 -0.2917  0.0987
 1865TIP3    H127154   0.155   4.503   2.311 -0.2949 -0.5027 -0.4080
 1865TIP3    H227155   0.041   4.521   2.409  0.2535 -0.1072  0.1683
 1866TIP3   OH227156   1.091   5.929   8.539  0.1538 -0.4156  0.4143
 1866TIP3    H127157   0.996   5.924   8.532 -0.3777  2.6133  3.0807
 1866TIP3    H227158   1.116   5.851   8.589 -1.6835  0.8819  3.6923
 1867TIP3   OH227159   5.535   2.971   8.385  0.0067  0.3002  0.6233
 1867TIP3    H127160   5.451   2.963   8.339  0.0401 -0.2217  0.6430
 1867TIP3    H227161   5.567   2.881   8.391  0.2121  0.4140  1.2789
 1868TIP3   OH227162   3.872   2.759   6.904 -0.2997 -0.4974  0.3679
 1868TIP3    H127163   3.855   2.714   6.988 -0.3822 -1.5746 -0.2076
 1868TIP3    H227164   3.905   2.690   6.847 -2.0980 -0.2045 -1.0884
 1869TIP3   OH227165   6.322   3.242   7.048  0.1190 -0.1858 -0.0458
 1869TIP3    H127166   6.244   3.237   7.104  0.2891 -2.0567  0.1075
 1869TIP3    H227167   6.326   3.156   7.006  2.2214 -0.2295  0.1481
 1870TIP3   OH227168   6.253   5.677   7.669 -0.2509  0.3224 -0.2422
 1870TIP3    H127169   6.157   5.679   7.661 -0.1765  1.5869 -1.0881
 1870TIP3    H227170   6.285   5.669   7.579  0.4535 -1.7093  0.1380
 1871TIP3   OH227171   0.186   3.124   6.927  0.0132  0.2370  0.0937
 1871TIP3    H127172   0.274   3.118   6.965  0.3642  1.7215 -0.4132
 1871TIP3    H227173   0.139   3.183   6.986 -0.6993 -0.6563  0.4373
 1872TIP3   OH227174   3.884   0.101   7.788  0.0378 -0.1386  0.6772
 1872TIP3    H127175   3.924   0.187   7.777 -0.4275 -0.0236 -0.1133
 1872TIP3    H227176   3.954   0.048   7.827  1.6229 -0.4181 -2.2795
 1873TIP3   OH227177   4.641   0.523   1.088  0.0518  0.0464  0.3839
 1873TIP3    H127178   4.599   0.608   1.097 -2.0836 -0.6538 -1.7079
 1873TIP3    H227179   4.606   0.470   1.160 -0.5775  0.2315  0.2120
 1874TIP3   OH227180   2.904   1.930   8.287  0.0069 -0.1426  0.1886
 1874TIP3    H127181   2.969   1.867   8.257 -0.0059 -0.3174  0.5221
 1874TIP3    H227182   2.953   1.988   8.346  0.5419  1.5185 -1.7905
 1875TIP3   OH227183   2.111   5.462   1.592  1.2397 -0.4587 -0.0465
 1875TIP3    H127184   2.029   5.415   1.603  1.1762 -0.2194  0.5907
 1875TIP3    H227185   2.120   5.475   1.498 -0.1899  0.8045 -0.0374
 1876TIP3   OH227186   0.577   1.266   6.324  0.3670  0.3726 -0.1143
 1876TIP3    H127187   0.524   1.222   6.390  0.3614 -0.6487 -0.7683
 1876TIP3    H227188   0.515   1.284   6.253  1.0354 -1.7612 -1.3247
 1877TIP3   OH227189   5.920   0.549   8.052  0.1103  0.2076  0.3817
 1877TIP3    H127190   5.993   0.542   7.991 -1.2040  0.1745 -1.2646
 1877TIP3    H227191   5.853   0.598   8.004 -0.2058  2.1502  2.5933
 1878TIP3   OH227192   6.303   2.468   0.861 -0.0401 -0.0931 -0.1066
 1878TIP3    H127193   6.316   2.423   0.777 -0.8740 -0.6511  0.0485
 1878TIP3    H227194   6.309   2.561   0.841 -0.4653 -0.2217 -0.8213
 1879TIP3   OH227195   5.095   5.706   7.424  0.6342 -0.0142 -0.3946
 1879TIP3    H127196   5.055   5.774   7.369  0.3465 -0.3968 -0.6627
 1879TIP3    H227197   5.075   5.734   7.513  0.5629  0.2845 -0.5027
 1880TIP3   OH227198   1.891   6.217   8.533 -0.4280 -0.0119  0.0075
 1880TIP3    H127199   1.944   6.292   8.559 -2.0225  0.5125  2.0680
 1880TIP3    H227200   1.859   6.238   8.446  0.9768  0.6258 -0.3794
 1881TIP3   OH227201   1.689   0.631   7.292 -0.2597  0.7012  0.4957
 1881TIP3    H127202   1.621   0.698   7.286 -1.9062 -0.8849  0.6473
 1881TIP3    H227203   1.680   0.595   7.380 -0.3516 -0.6503 -0.0439
 1882TIP3   OH227204   4.955   5.609   8.181 -0.2395 -0.1397 -0.2113
 1882TIP3    H127205   4.970   5.606   8.087  0.7048 -1.9825 -0.0327
 1882TIP3    H227206   4.877   5.555   8.195  0.8928 -1.7287  0.2473
 1883TIP3   OH227207   4.105   4.383   7.420 -0.0194 -0.1588 -0.0047
 1883TIP3    H127208   4.054   4.440   7.362 -0.3457  1.3705  1.7169
 1883TIP3    H227209   4.194   4.419   7.416 -0.1706  0.3435  0.8802
 1884TIP3   OH227210   4.377   1.085   7.090  0.5554 -0.3233 -0.3624
 1884TIP3    H127211   4.383   1.012   7.151  0.6448  0.2885  0.3790
 1884TIP3    H227212   4.447   1.071   7.027 -0.4416 -1.7509 -1.2167
 1885TIP3   OH227213   5.426   1.615   7.156 -0.0649  0.0422  0.1715
 1885TIP3    H127214   5.521   1.622   7.148  0.0422 -2.1534 -1.8838
 1885TIP3    H227215   5.398   1.580   7.071 -2.9734  2.4024  0.0081
 1886TIP3   OH227216   6.532   6.098   1.219  0.1180  0.2200 -0.5668
 1886TIP3    H127217   6.476   6.108   1.296  0.3186  0.4560 -0.4492
 1886TIP3    H227218   6.592   6.026   1.242  1.3230  1.4331  0.2012
 1887TIP3   OH227219   5.282   6.376   8.135  0.1905 -0.4568 -0.3708
 1887TIP3    H127220   5.323   6.394   8.219  0.4442 -0.0005 -0.5866
 1887TIP3    H227221   5.242   6.459   8.110 -1.5230 -1.0683  0.1804
 1888TIP3   OH227222   4.285   0.176   6.936  0.1840 -0.6081 -0.2274
 1888TIP3    H127223   4.347   0.148   6.869 -0.1234 -0.6791 -0.4843
 1888TIP3    H227224   4.217   0.109   6.935 -0.7838  0.3475 -1.1411
 1889TIP3   OH227225   3.532   5.285   0.950 -0.1347 -0.3133  0.0013
 1889TIP3    H127226   3.598   5.311   0.886 -0.2479 -0.2034 -0.0716
 1889TIP3    H227227   3.516   5.365   1.001 -2.0602  0.4083 -1.5962
 1890TIP3   OH227228   4.623   5.672   8.434 -0.5946 -0.2295 -0.3437
 1890TIP3    H127229   4.624   5.651   8.528 -1.6672 -0.0171 -0.2757
 1890TIP3    H227230   4.695   5.621   8.398 -0.5265 -0.7625  0.5084
 1891TIP3   OH227231   2.300   2.658   8.135  0.5224 -0.0966 -0.6973
 1891TIP3    H127232   2.357   2.726   8.172 -0.1074  1.0111 -1.6817
 1891TIP3    H227233   2.268   2.610   8.211  3.8405 -1.7262 -0.1518
 1892TIP3   OH227234   4.833   3.311   1.919  0.4805  0.3656  0.0043
 1892TIP3    H127235   4.780   3.286   1.995  2.1619  0.8413  1.4067
 1892TIP3    H227236   4.770   3.328   1.850 -1.2454  1.3745  1.7294
 1893TIP3   OH227237   4.644   5.908   2.344  0.6691 -0.0909 -0.2740
 1893TIP3    H127238   4.738   5.894   2.335  0.8770  1.6507 -1.1295
 1893TIP3    H227239   4.612   5.827   2.384  2.5156 -0.7184  0.0460
 1894TIP3   OH227240   5.998   1.977   8.623 -0.7491  0.7612  0.0351
 1894TIP3    H127241   6.033   1.947   8.539  2.0116  1.1529  0.9578
 1894TIP3    H227242   5.932   1.911   8.646  0.8825 -1.2815 -0.8226
 1895TIP3   OH227243   0.768   5.491   7.370  0.0431 -0.1469  0.2275
 1895TIP3    H127244   0.839   5.553   7.387 -0.0580 -0.0277  0.2216
 1895TIP3    H227245   0.812   5.407   7.357  0.2021 -0.0285 -0.0222
 1896TIP3   OH227246   1.076   6.301   7.229 -0.1113  1.0730  0.4268
 1896TIP3    H127247   1.050   6.215   7.261  0.2029  0.4572 -0.9079
 1896TIP3    H227248   1.080   6.356   7.308 -0.7292 -0.0134  1.2397
 1897TIP3   OH227249   5.426   5.734   0.736 -0.1520  0.2190 -0.2663
 1897TIP3    H127250   5.429   5.812   0.790 -0.3571  0.4685 -0.6156
 1897TIP3    H227251   5.412   5.662   0.798 -3.8091  0.7916 -0.2081
 1898TIP3   OH227252   3.667   2.808   8.372 -1.3256  0.4582  0.1887
 1898TIP3    H127253   3.761   2.826   8.369 -0.8244 -1.5765  1.6932
 1898TIP3    H227254   3.628   2.890   8.402  0.0094  1.2067 -0.0597
 1899TIP3   OH227255   0.092   3.376   7.427 -0.1872 -0.0612  0.0477
 1899TIP3    H127256   0.050   3.456   7.456  0.9510  1.1225 -1.4059
 1899TIP3    H227257   0.026   3.308   7.439 -1.7442  1.3637 -0.1419
 1900TIP3   OH227258   0.202   0.241   8.167  0.0145 -0.2411 -0.0480
 1900TIP3    H127259   0.174   0.199   8.248  0.7558 -0.3763  0.1433
 1900TIP3    H227260   0.162   0.189   8.098 -0.3013 -0.3575  0.2222
 1901TIP3   OH227261   4.659   0.013   7.187 -0.2391 -0.5778 -0.0236
 1901TIP3    H127262   4.662   0.094   7.135  1.1581 -0.4178  0.2736
 1901TIP3    H227263   4.675  -0.056   7.123  1.8992 -0.3526  0.1884
 1902TIP3   OH227264   5.936   6.865   7.392  0.2746 -1.0139  0.3611
 1902TIP3    H127265   5.975   6.782   7.364 -2.6268 -2.1826 -0.6651
 1902TIP3    H227266   5.953   6.869   7.486 -0.8794 -3.6702  0.7787
 1903TIP3   OH227267   4.450   6.206   1.045 -0.7195  0.5894 -0.4944
 1903TIP3    H127268   4.450   6.296   1.078  2.6951  0.7041 -0.3717
 1903TIP3    H227269   4.411   6.154   1.115  2.9939  1.2960  2.4173
 1904TIP3   OH227270   6.545   6.293   6.791 -0.5123  0.5939 -0.1474
 1904TIP3    H127271   6.570   6.239   6.866 -1.4385  0.5274  0.1301
 1904TIP3    H227272   6.622   6.292   6.734 -0.3353 -0.6035  0.0907
 1905TIP3   OH227273   6.865   6.836   0.147  0.1619  0.2617 -0.0254
 1905TIP3    H127274   6.896   6.797   0.065  1.0414 -1.8290  1.2516
 1905TIP3    H227275   6.772   6.812   0.151 -0.0096  0.7796 -0.5984
 1906TIP3   OH227276   4.042   3.323   1.298 -0.0053 -0.3556  0.1009
 1906TIP3    H127277   4.126   3.365   1.315 -1.2517  2.5092 -0.1493
 1906TIP3    H227278   3.999   3.380   1.235 -2.5077 -1.2047  0.9024
 1907TIP3   OH227279   0.996   3.373   8.547 -0.2442 -0.2302  0.0550
 1907TIP3    H127280   0.982   3.415   8.632  0.4714  2.0800 -0.9200
 1907TIP3    H227281   1.066   3.423   8.506  0.5204 -2.2828 -1.2958
 1908TIP3   OH227282   6.718   5.312   1.045 -0.2606 -0.3585  0.4577
 1908TIP3    H127283   6.677   5.233   1.009  0.0189 -1.3138  2.1212
 1908TIP3    H227284   6.796   5.280   1.090  0.3216  0.9895  0.4521
 1909TIP3   OH227285   0.452   2.631   7.271 -0.7005  0.1723 -0.2303
 1909TIP3    H127286   0.511   2.613   7.198 -1.1823 -1.8473 -0.1906
 1909TIP3    H227287   0.510   2.638   7.347 -0.3479  0.2569 -0.5057
 1910TIP3   OH227288   4.635   3.888   1.860  0.4729  0.2371  0.5125
 1910TIP3    H127289   4.565   3.845   1.908  0.1388  0.7368  0.4762
 1910TIP3    H227290   4.715   3.864   1.907  0.2679 -0.2473  0.6119
 1911TIP3   OH227291   6.580   3.204   2.168 -0.2892  0.2644 -0.0309
 1911TIP3    H127292   6.499   3.153   2.168 -0.5248  0.5997  0.9814
 1911TIP3    H227293   6.554   3.290   2.201  0.4060  0.5030 -0.0796
 1912TIP3   OH227294   3.883   1.163   8.138  0.8949  0.2249  0.2395
 1912TIP3    H127295   3.791   1.162   8.164  0.0011 -0.2386 -2.5585
 1912TIP3    H227296   3.906   1.071   8.128  1.3119  0.3658 -0.1361
 1913TIP3   OH227297   2.743   5.144   0.236  0.5076 -0.4543 -0.2951
 1913TIP3    H127298   2.809   5.083   0.203  1.3869  0.6840 -0.7486
 1913TIP3    H227299   2.662   5.118   0.192  0.9820 -0.9441 -0.8994
 1914TIP3   OH227300   1.078   2.379   1.958 -0.3910  0.0563 -0.2058
 1914TIP3    H127301   1.160   2.348   1.919 -0.8514 -0.3051 -0.9118
 1914TIP3    H227302   1.076   2.472   1.938 -0.4363 -0.0512 -0.7186
 1915TIP3   OH227303   0.275   6.571   8.409  0.3185 -0.9309  0.5646
 1915TIP3    H127304   0.283   6.507   8.338 -2.8171 -1.0153  0.1661
 1915TIP3    H227305   0.270   6.656   8.364 -1.8022 -0.9953  0.6107
 1916TIP3   OH227306   0.341   1.722   1.524 -0.4207 -0.3109  0.3122
 1916TIP3    H127307   0.325   1.709   1.617 -0.3583  2.5664  0.8075
 1916TIP3    H227308   0.254   1.739   1.486 -0.3190 -0.3265  0.0664
 1917TIP3   OH227309   1.125   5.909   7.064 -0.3943  1.3558 -0.2019
 1917TIP3    H127310   1.119   5.876   6.974  2.0822 -0.2011  0.1137
 1917TIP3    H227311   1.068   5.986   7.065 -2.8402 -0.2767 -2.2505
 1918TIP3   OH227312   0.570   5.147   7.882  0.2254  0.2906  0.7395
 1918TIP3    H127313   0.582   5.240   7.903 -0.6310  0.5817  0.0202
 1918TIP3    H227314   0.589   5.141   7.788  0.0573 -0.2180  0.7338
 1919TIP3   OH227315   2.977   1.034   7.426  0.0834 -0.2074  0.4955
 1919TIP3    H127316   2.977   1.117   7.472 -1.1065 -0.5632  1.1673
 1919TIP3    H227317   2.885   1.017   7.406  0.4281 -0.7802 -0.7130
 1920TIP3   OH227318   6.040   0.353   6.828 -0.6365  0.0058 -0.3303
 1920TIP3    H127319   5.971   0.336   6.764 -0.5005  0.8203 -0.6977
 1920TIP3    H227320   6.097   0.277   6.822 -1.8098 -0.9837  0.4134
 1921TIP3   OH227321   5.443   5.676   2.591 -0.1294  0.4317 -1.0052
 1921TIP3    H127322   5.516   5.696   2.650 -1.2609  2.3064 -0.1522
 1921TIP3    H227323   5.484   5.662   2.506  1.2263  1.4853 -0.5534
 1922TIP3   OH227324   2.304   3.290   1.502  0.0348  0.1961 -0.0082
 1922TIP3    H127325   2.329   3.209   1.458 -2.6869 -1.6943  1.5935
 1922TIP3    H227326   2.296   3.266   1.595  0.4505  2.6799  0.7523
 1923TIP3   OH227327   6.458   0.205   1.263 -0.6099 -0.3555 -0.1230
 1923TIP3    H127328   6.384   0.234   1.210 -0.0215 -1.4383 -1.6077
 1923TIP3    H227329   6.469   0.274   1.329 -2.4642  0.1728 -0.3185
 1924TIP3   OH227330   5.000   1.605   6.614  0.3151 -0.3548 -0.5444
 1924TIP3    H127331   4.928   1.570   6.667 -0.1365  0.1322 -0.8164
 1924TIP3    H227332   4.986   1.569   6.527 -1.6883  2.4133 -1.5235
 1925TIP3   OH227333   0.460   0.199   7.034 -0.0716  0.4268  0.5037
 1925TIP3    H127334   0.385   0.246   7.070  1.0235  1.8225  1.0546
 1925TIP3    H227335   0.449   0.205   6.939 -1.1711 -0.2684  0.5724
 1926TIP3   OH227336   6.776   2.833   6.371  0.0676  0.0982  0.1472
 1926TIP3    H127337   6.710   2.853   6.438 -0.1281 -0.9409  0.2693
 1926TIP3    H227338   6.728   2.841   6.288 -0.3687 -1.1586  0.2555
 1927TIP3   OH227339   5.670   6.438   1.733  0.2391 -0.1130  0.3538
 1927TIP3    H127340   5.600   6.373   1.727  0.5525 -0.3493 -2.0782
 1927TIP3    H227341   5.627   6.518   1.761 -1.2761 -0.0095 -2.0273
 1928TIP3   OH227342   3.666   5.545   0.260 -0.2106  0.1988  0.1479
 1928TIP3    H127343   3.618   5.503   0.189 -0.4361 -0.5299  0.7116
 1928TIP3    H227344   3.745   5.580   0.220 -0.2859 -0.2967 -0.4377
 1929TIP3   OH227345   2.674   6.305   0.980  0.5201  0.0132 -0.0684
 1929TIP3    H127346   2.615   6.367   1.023 -0.7715 -1.1556 -0.0948
 1929TIP3    H227347   2.736   6.279   1.048  0.2937  0.3789  0.2802
 1930TIP3   OH227348   1.618   2.904   0.626  0.2688  0.2025 -0.4257
 1930TIP3    H127349   1.573   2.987   0.614  0.5936  0.4738  0.2422
 1930TIP3    H227350   1.701   2.926   0.666  0.7145 -0.3683 -1.0111
 1931TIP3   OH227351   4.915   5.572   0.192 -0.2549 -0.1218 -0.0464
 1931TIP3    H127352   4.873   5.488   0.210  0.2797 -0.4543 -0.3256
 1931TIP3    H227353   4.989   5.550   0.136 -0.2547  0.5687 -0.3241
 1932TIP3   OH227354   4.498   1.670   1.315  0.1167  0.2193 -0.6706
 1932TIP3    H127355   4.408   1.645   1.337 -0.0149  1.0104 -0.2677
 1932TIP3    H227356   4.488   1.734   1.245  0.4973 -1.6392 -2.5519
 1933TIP3   OH227357   3.355   6.011   0.532 -0.4967 -0.5785 -0.2303
 1933TIP3    H127358   3.275   5.972   0.568 -0.2087 -0.7807  0.1870
 1933TIP3    H227359   3.372   5.960   0.452 -1.4158  0.2017 -0.9440
 1934TIP3   OH227360   3.976   1.483   6.264 -0.1698  0.7965 -0.4804
 1934TIP3    H127361   4.027   1.402   6.266 -1.3572 -0.0230 -1.6081
 1934TIP3    H227362   3.937   1.490   6.351 -1.2001 -0.6528 -0.7803
 1935TIP3   OH227363   2.596   6.185   7.377  0.0420 -0.1065 -0.0093
 1935TIP3    H127364   2.590   6.121   7.448 -1.5021 -0.2110 -0.1914
 1935TIP3    H227365   2.682   6.170   7.338  0.0403 -1.5168  0.4764
 1936TIP3   OH227366   2.053   4.633   7.930 -0.1614  0.4621 -0.6390
 1936TIP3    H127367   2.080   4.698   7.864 -1.8945  0.0139 -1.8740
 1936TIP3    H227368   2.045   4.552   7.880  0.2266 -0.2947  0.5193
 1937TIP3   OH227369   1.760   2.443   1.941 -0.6268  0.0374  0.6687
 1937TIP3    H127370   1.696   2.449   2.012 -0.3653 -0.5542  0.9563
 1937TIP3    H227371   1.837   2.488   1.975 -0.2021 -0.9961  1.1035
 1938TIP3   OH227372   5.776   5.742   1.864  0.3663  0.1215  0.3486
 1938TIP3    H127373   5.871   5.740   1.862  0.3990  0.9004 -1.7651
 1938TIP3    H227374   5.751   5.769   1.775 -1.8208 -0.1037  0.8418
 1939TIP3   OH227375   4.004   2.487   7.944  0.1102  0.2828 -0.7720
 1939TIP3    H127376   4.002   2.560   8.005  0.5243 -1.0922  0.9804
 1939TIP3    H227377   3.917   2.448   7.949 -0.1410  0.6918 -1.7668
 1940TIP3   OH227378   3.850   2.904   1.169  0.2311  0.5456 -0.3129
 1940TIP3    H127379   3.772   2.879   1.120 -0.7012  2.3425  0.1585
 1940TIP3    H227380   3.848   2.850   1.248  0.5151 -0.7418 -1.1591
 1941TIP3   OH227381   5.612   4.888   1.701  0.3780 -0.5371 -0.5096
 1941TIP3    H127382   5.617   4.793   1.698  0.6504 -0.6024  1.2961
 1941TIP3    H227383   5.703   4.917   1.697  0.3486 -0.3939 -0.1627
 1942TIP3   OH227384   2.937   2.904   8.530 -0.6774  0.2218  0.3972
 1942TIP3    H127385   2.877   2.837   8.565 -1.8836  0.3119 -1.3447
 1942TIP3    H227386   2.890   2.987   8.543 -1.4948  0.1905 -1.9548
 1943TIP3   OH227387   5.593   0.308   2.219  0.0999  0.1354  0.5360
 1943TIP3    H127388   5.573   0.353   2.301  0.1009 -1.3575  1.3880
 1943TIP3    H227389   5.537   0.231   2.219 -0.8934  0.7657 -1.5365
 1944TIP3   OH227390   4.914   2.471   2.020 -0.3564  0.0750  0.1109
 1944TIP3    H127391   4.980   2.536   2.046 -0.4822  1.2552 -2.2428
 1944TIP3    H227392   4.965   2.396   1.988 -0.1490  0.3970 -0.3291
 1945TIP3   OH227393   1.465   3.500   0.537  0.3385 -0.5889  0.0786
 1945TIP3    H127394   1.545   3.535   0.498 -0.5622 -0.4283 -1.7128
 1945TIP3    H227395   1.449   3.418   0.490 -0.7746 -0.3992  0.0974
 1946TIP3   OH227396   2.287   1.449   8.401  0.3920  0.5155  0.3669
 1946TIP3    H127397   2.257   1.537   8.378  0.0289  0.0347 -1.1548
 1946TIP3    H227398   2.361   1.463   8.460 -0.2935  1.8078  0.9315
 1947TIP3   OH227399   1.716   3.360   1.373  0.4342 -0.3048  0.0347
 1947TIP3    H127400   1.689   3.443   1.412  1.1392 -0.4369  0.8459
 1947TIP3    H227401   1.636   3.307   1.373 -0.6567  1.1471 -2.7655
 1948TIP3   OH227402   4.141   2.150   0.573 -0.0481 -0.3509  0.3633
 1948TIP3    H127403   4.078   2.079   0.560  0.9220 -1.3909  1.1505
 1948TIP3    H227404   4.221   2.107   0.601  0.7639  1.0208  0.2735
 1949TIP3   OH227405   4.926   3.561   2.215 -0.0025 -0.3300  0.5126
 1949TIP3    H127406   4.995   3.510   2.172 -1.1441 -1.4038 -0.1287
 1949TIP3    H227407   4.849   3.505   2.210 -0.7131  0.4565  2.0332
 1950TIP3   OH227408   6.058   0.902   6.222  0.1210  0.0123 -0.0391
 1950TIP3    H127409   5.994   0.853   6.172 -0.7518  1.5256 -0.4693
 1950TIP3    H227410   6.069   0.984   6.173  1.5423  0.2509  0.6245
 1951TIP3   OH227411   3.292   4.458   6.236  0.2699  0.1395  0.2984
 1951TIP3    H127412   3.289   4.549   6.264  0.0154  0.5850 -1.0853
 1951TIP3    H227413   3.384   4.433   6.242  0.0933 -0.1599  2.5526
 1952TIP3   OH227414   4.676   5.398   7.050 -0.4646  0.4601  0.1031
 1952TIP3    H127415   4.589   5.369   7.022 -0.3899 -0.2395  0.5537
 1952TIP3    H227416   4.730   5.393   6.971 -0.4773 -0.5947  0.1397
 1953TIP3   OH227417   2.646   4.221   0.535  1.0956  0.1055  0.1316
 1953TIP3    H127418   2.658   4.174   0.618  0.3171  1.1153  0.8401
 1953TIP3    H227419   2.719   4.191   0.480 -0.0063 -2.8625  0.0862
 1954TIP3   OH227420   4.421   5.874   7.250 -0.0666 -0.0762 -0.2110
 1954TIP3    H127421   4.345   5.929   7.234 -0.0213 -0.1356 -0.6478
 1954TIP3    H227422   4.390   5.785   7.234 -0.3205 -0.2574  1.1407
 1955TIP3   OH227423   3.673   1.705   1.909 -0.2524  0.1665 -0.4776
 1955TIP3    H127424   3.579   1.689   1.919  0.1121 -1.1973  1.2126
 1955TIP3    H227425   3.689   1.785   1.958 -0.3732 -0.2153  0.2011
 1956TIP3   OH227426   0.835   1.667   0.509 -0.4815  0.4017 -0.1355
 1956TIP3    H127427   0.808   1.601   0.572 -1.5871  0.8633 -0.0994
 1956TIP3    H227428   0.754   1.694   0.466  0.0039  1.4077 -0.4576
 1957TIP3   OH227429   3.967   5.260   8.574  0.0776  0.1234  0.4009
 1957TIP3    H127430   4.025   5.334   8.595  1.1188 -0.7518  0.7092
 1957TIP3    H227431   3.926   5.285   8.491  2.0161  0.1703 -0.6088
 1958TIP3   OH227432   6.363   4.163   7.258  0.1769 -0.1053 -0.2921
 1958TIP3    H127433   6.354   4.078   7.299 -0.8611 -0.7871 -1.8393
 1958TIP3    H227434   6.450   4.161   7.218 -0.1019 -0.7206 -0.8880
 1959TIP3   OH227435   4.330   4.416   0.080 -0.3836  0.6571 -0.0141
 1959TIP3    H127436   4.401   4.478   0.065  0.6579 -1.0714 -2.9974
 1959TIP3    H227437   4.273   4.425   0.003  0.7032 -3.0668 -1.4832
 1960TIP3   OH227438   6.554   3.837   0.708  0.3844 -0.3603 -0.0277
 1960TIP3    H127439   6.531   3.820   0.800  2.3030 -0.3169  0.4880
 1960TIP3    H227440   6.490   3.786   0.658  0.1899 -1.5407  1.3552
 1961TIP3   OH227441   5.958   3.411   8.471  0.3055 -0.3313  0.7540
 1961TIP3    H127442   5.965   3.440   8.562 -0.6175 -0.0398  0.7393
 1961TIP3    H227443   6.047   3.419   8.436  0.7637 -0.9012  1.7576
 1962TIP3   OH227444   4.897   1.293   6.804  0.4387  0.2733  0.2901
 1962TIP3    H127445   4.902   1.261   6.715  1.2382 -0.0763  0.4601
 1962TIP3    H227446   4.818   1.347   6.805  0.6466  0.6151 -0.7294
 1963TIP3   OH227447   4.812   3.476   0.646  0.7535 -0.3186 -0.3638
 1963TIP3    H127448   4.729   3.433   0.623 -0.0017  0.3866  0.9334
 1963TIP3    H227449   4.850   3.500   0.562  0.4504 -2.1094 -1.0651
 1964TIP3   OH227450   5.013   0.269   8.121 -0.1218  0.1033  0.2087
 1964TIP3    H127451   4.965   0.241   8.043 -0.0380  1.2549 -0.2681
 1964TIP3    H227452   5.103   0.278   8.092  0.1382 -0.6682  0.7550
 1965TIP3   OH227453   0.434   4.831   0.287 -0.2953  0.7056  0.3159
 1965TIP3    H127454   0.512   4.868   0.329  0.7633 -1.1790  0.1113
 1965TIP3    H227455   0.368   4.828   0.357  0.8167 -0.5489  1.3683
 1966TIP3   OH227456   5.186   2.455   7.911 -1.3832  0.3472 -0.3747
 1966TIP3    H127457   5.224   2.385   7.964  0.2456  2.0957  0.9361
 1966TIP3    H227458   5.092   2.451   7.928 -0.9745  0.4748  2.2475
 1967TIP3   OH227459   4.125   0.034   1.768  0.2117  0.2650 -0.0325
 1967TIP3    H127460   4.155   0.108   1.716  2.0827  0.6283  1.4423
 1967TIP3    H227461   4.089   0.072   1.847  2.7745 -0.2892  1.5508
 1968TIP3   OH227462   2.132   0.797   8.054  0.2849 -0.2170  0.3316
 1968TIP3    H127463   2.162   0.813   8.144 -0.7605  0.3519  0.6009
 1968TIP3    H227464   2.064   0.730   8.064  0.2049 -0.1903 -0.0477
 1969TIP3   OH227465   0.274   3.583   1.566 -0.4150  0.4073  0.2251
 1969TIP3    H127466   0.250   3.526   1.493  1.6453 -0.0380 -0.1517
 1969TIP3    H227467   0.339   3.534   1.616 -0.7110  1.2969  1.5465
 1970TIP3   OH227468   2.954   2.405   8.632  0.0000 -0.1127  0.1427
 1970TIP3    H127469   2.896   2.368   8.699  0.7828 -1.2524  0.2290
 1970TIP3    H227470   2.927   2.362   8.551 -0.8672  1.1778 -0.2928
 1971TIP3   OH227471   1.432   3.040   0.936 -0.3212 -0.2908 -0.2290
 1971TIP3    H127472   1.338   3.041   0.954 -0.2394 -1.8074  0.4602
 1971TIP3    H227473   1.446   2.959   0.886  1.0433 -1.8840  2.5113
 1972TIP3   OH227474   2.053   4.336   8.633  0.6516 -0.1285 -0.6266
 1972TIP3    H127475   1.975   4.291   8.601 -1.0364  1.2901  1.2660
 1972TIP3    H227476   2.090   4.377   8.555 -0.5867 -0.6738 -1.5313
 1973TIP3   OH227477   4.158   5.903   2.473 -0.1152 -0.0760  0.1634
 1973TIP3    H127478   4.196   5.862   2.551 -1.0898 -2.0535 -0.3491
 1973TIP3    H227479   4.228   5.899   2.408  0.6368  1.4058  0.8309
 1974TIP3   OH227480   0.460   0.199   8.566 -0.2487 -0.0075  0.4217
 1974TIP3    H127481   0.428   0.290   8.569 -0.1812  0.0405  4.3847
 1974TIP3    H227482   0.392   0.148   8.611  0.4491 -1.6956 -0.3676
 1975TIP3   OH227483   0.570   2.074   0.023 -0.0166  0.1549 -0.6616
 1975TIP3    H127484   0.657   2.045   0.051 -0.1686 -0.1805 -0.5355
 1975TIP3    H227485   0.553   2.025  -0.057 -0.1085  0.1872 -0.6621
 1976TIP3   OH227486   1.912   6.359   7.815  0.5225  0.3756 -0.2618
 1976TIP3    H127487   1.947   6.269   7.813  0.6234  0.4060  0.1744
 1976TIP3    H227488   1.880   6.373   7.726  0.4190 -0.1299 -0.3102
 1977TIP3   OH227489   4.458   3.516   6.391 -0.5690  0.4604 -0.2077
 1977TIP3    H127490   4.461   3.612   6.398  0.2457  0.6145 -2.0366
 1977TIP3    H227491   4.370   3.497   6.357 -0.3142  0.6994 -1.0472
 1978TIP3   OH227492   5.581   2.171   7.843 -0.0272 -0.3424 -0.3792
 1978TIP3    H127493   5.602   2.181   7.751 -0.4129 -0.0751 -0.4393
 1978TIP3    H227494   5.657   2.126   7.880  0.8625  1.0233 -0.4996
 1979TIP3   OH227495   5.067   3.223   7.674  0.0676  0.8245  0.1765
 1979TIP3    H127496   5.086   3.316   7.660  0.9335  0.8641  1.4668
 1979TIP3    H227497   4.973   3.220   7.689  0.0358  1.4928  0.1670
 1980TIP3   OH227498   1.958   3.810   6.413  0.0278  0.6232  0.0194
 1980TIP3    H127499   1.888   3.769   6.363 -0.9654  1.8084  0.3715
 1980TIP3    H227500   2.009   3.858   6.348 -0.0109  0.4521 -0.1355
 1981TIP3   OH227501   1.624   4.790   7.383 -0.3083 -0.5178  0.0932
 1981TIP3    H127502   1.551   4.850   7.399  0.6160  0.2026  1.9087
 1981TIP3    H227503   1.693   4.847   7.347  0.5946 -0.4330  1.8775
 1982TIP3   OH227504   3.046   4.108   2.302 -0.2404 -0.0752  0.0058
 1982TIP3    H127505   3.110   4.138   2.365  0.5017  1.8442 -1.5543
 1982TIP3    H227506   3.030   4.184   2.245 -2.5930 -1.0033 -0.7260
 1983TIP3   OH227507   3.117   0.768   7.247  0.3554  0.4888  0.0212
 1983TIP3    H127508   3.165   0.687   7.267  0.1031  0.5500  0.9383
 1983TIP3    H227509   3.184   0.836   7.251  0.5978  0.3172 -0.9067
 1984TIP3   OH227510   5.476   6.681   1.937  0.8795 -0.2354  0.5277
 1984TIP3    H127511   5.416   6.711   2.005  4.3668  0.5903  3.5429
 1984TIP3    H227512   5.554   6.651   1.985  2.5160 -2.3122 -3.0222
 1985TIP3   OH227513   3.151   6.254   0.309 -0.2199 -0.3011 -0.3947
 1985TIP3    H127514   3.177   6.313   0.239  1.4245 -0.4633  0.0455
 1985TIP3    H227515   3.154   6.166   0.270 -0.5412 -0.2932 -0.4465
 1986TIP3   OH227516   5.993   5.392   7.442  0.5260 -0.5395 -0.1027
 1986TIP3    H127517   5.968   5.482   7.425  0.4992 -0.5183  0.0421
 1986TIP3    H227518   6.088   5.392   7.442  0.5300 -0.3602  0.6607
 1987TIP3   OH227519   2.230   4.880   8.418 -0.0463 -0.1579 -0.6074
 1987TIP3    H127520   2.220   4.960   8.366  0.2136  1.8677  2.2223
 1987TIP3    H227521   2.145   4.868   8.460  0.2815 -0.6898 -0.0839
 1988TIP3   OH227522   2.528   0.207   7.882 -0.7435  0.3308 -0.0156
 1988TIP3    H127523   2.515   0.302   7.876  0.2886  0.7868  2.9640
 1988TIP3    H227524   2.601   0.189   7.824  0.9167  1.9283  1.4421
 1989TIP3   OH227525   3.172   4.608   7.608  0.5462  0.5870  0.5212
 1989TIP3    H127526   3.103   4.559   7.565 -0.9524  0.6559  2.7157
 1989TIP3    H227527   3.191   4.559   7.688  2.6213  0.9189  0.3072
 1990TIP3   OH227528   4.363   4.280   7.748 -0.4590 -0.0074 -0.5965
 1990TIP3    H127529   4.278   4.236   7.761 -0.8806  0.9023 -0.2025
 1990TIP3    H227530   4.421   4.238   7.812 -0.7384 -0.2999 -0.5292
 1991TIP3   OH227531   0.282   4.650   1.492 -0.0582  0.0641 -0.3706
 1991TIP3    H127532   0.304   4.584   1.557 -0.2291  0.3459 -0.0272
 1991TIP3    H227533   0.210   4.612   1.442  0.9114 -0.6951 -1.2362
 1992TIP3   OH227534   2.190   3.796   0.453  0.5816  0.0201 -0.1205
 1992TIP3    H127535   2.189   3.727   0.387 -0.8603 -0.8110  0.7239
 1992TIP3    H227536   2.196   3.877   0.403 -0.3884 -0.5965 -1.2845
 1993TIP3   OH227537   5.877   2.643   0.688  0.0531 -0.6359 -0.6175
 1993TIP3    H127538   5.809   2.596   0.640  0.6548 -1.6243 -0.5395
 1993TIP3    H227539   5.902   2.716   0.632 -0.2120 -0.9827 -1.1852
 1994TIP3   OH227540   3.084   3.670   0.788  0.4960  0.4488 -0.0521
 1994TIP3    H127541   3.055   3.747   0.837 -1.2361 -0.1065 -0.1389
 1994TIP3    H227542   3.019   3.603   0.809  0.8838 -0.4107 -1.5023
 1995TIP3   OH227543   1.862   0.822   7.627 -0.5389 -0.0942  0.0712
 1995TIP3    H127544   1.785   0.844   7.575  0.2295 -0.1946 -1.1272
 1995TIP3    H227545   1.907   0.906   7.639 -0.4491 -0.1531  0.1476
 1996TIP3   OH227546   4.107   6.532   1.264  0.1863 -0.0005 -0.4568
 1996TIP3    H127547   4.133   6.544   1.173  1.4793 -0.4579 -0.1696
 1996TIP3    H227548   4.189   6.540   1.313 -0.6007  1.0398  0.7536
 1997TIP3   OH227549   5.378   3.174   0.202  0.2421  0.2134  0.7384
 1997TIP3    H127550   5.413   3.167   0.291 -2.1994 -1.5346  1.6786
 1997TIP3    H227551   5.408   3.094   0.158 -0.9212 -0.3678  0.9608
 1998TIP3   OH227552   0.381   4.261   1.858 -0.0147 -0.0575  0.0724
 1998TIP3    H127553   0.351   4.306   1.937 -1.3798 -0.6710 -0.0521
 1998TIP3    H227554   0.359   4.169   1.874  0.8545 -0.3751 -0.5093
 1999TIP3   OH227555   1.700   2.643   8.368  0.5512 -0.1990  0.6308
 1999TIP3    H127556   1.747   2.609   8.444  3.0413 -3.5024 -2.0990
 1999TIP3    H227557   1.768   2.679   8.311 -1.2614  2.5183 -0.0556
 2000TIP3   OH227558   0.648   2.229   6.555  0.2977  0.1786  0.1279
 2000TIP3    H127559   0.670   2.239   6.462 -0.0396 -0.2446  0.0030
 2000TIP3    H227560   0.721   2.271   6.601  0.0213  1.2132 -0.3454
 2001TIP3   OH227561   2.458   1.971   0.342 -0.0240 -0.3822 -0.4056
 2001TIP3    H127562   2.394   1.985   0.273 -0.6954 -1.1835  0.0348
 2001TIP3    H227563   2.406   1.950   0.419  0.7783 -2.9328 -0.4587
 2002TIP3   OH227564   6.673   0.756   0.144  0.3710 -0.5385  0.0625
 2002TIP3    H127565   6.672   0.764   0.239  0.0215 -0.3009  0.0420
 2002TIP3    H227566   6.636   0.669   0.127 -1.5019  0.2079  0.0808
 2003TIP3   OH227567   3.792   6.103   1.356 -0.0350 -0.1148 -0.0151
 2003TIP3    H127568   3.820   6.112   1.265  0.2531 -1.8064 -0.1227
 2003TIP3    H227569   3.697   6.093   1.351 -0.0112 -0.2749 -0.1266
 2004TIP3   OH227570   1.941   3.520   0.731 -0.3114  0.2417 -0.5248
 2004TIP3    H127571   1.903   3.470   0.803 -1.9196  1.7915 -0.2326
 2004TIP3    H227572   1.953   3.456   0.661 -1.1738 -0.7779  0.2318
 2005TIP3   OH227573   1.050   2.012   7.992  0.4558 -0.2329 -0.0637
 2005TIP3    H127574   1.032   2.023   8.085  2.6819 -1.2682  0.5700
 2005TIP3    H227575   0.991   1.942   7.964 -1.4657  1.2440  0.0713
 2006TIP3   OH227576   5.454   0.685   8.546  0.5725 -0.6105  0.0769
 2006TIP3    H127577   5.530   0.721   8.502  0.2162 -0.3567 -0.3362
 2006TIP3    H227578   5.488   0.612   8.598  1.2474  0.1143  0.6771
 2007TIP3   OH227579   4.454   3.696   7.231 -0.0318  0.1945  0.3678
 2007TIP3    H127580   4.483   3.655   7.150  1.2651  3.4389 -1.0093
 2007TIP3    H227581   4.493   3.644   7.301  1.9729 -0.5747 -1.2413
 2008TIP3   OH227582   1.049   3.290   7.542 -0.1475 -0.0863 -0.4197
 2008TIP3    H127583   0.972   3.333   7.578  0.6393  1.3539 -0.3782
 2008TIP3    H227584   1.072   3.342   7.465  0.3778 -0.9113 -0.8388
 2009TIP3   OH227585   0.559   4.726   6.803  0.5659 -0.0256 -0.3482
 2009TIP3    H127586   0.495   4.680   6.748 -1.6847  1.9305  0.4818
 2009TIP3    H227587   0.587   4.800   6.750 -0.1180  0.7598  0.3584
 2010TIP3   OH227588   3.661   3.266   7.465  0.0664 -0.2096 -0.0317
 2010TIP3    H127589   3.721   3.339   7.478  0.4289 -0.5563  0.2613
 2010TIP3    H227590   3.617   3.255   7.550  0.3981 -0.6675  0.0864
 2011TIP3   OH227591   6.353   0.354   0.906 -0.2264 -0.3742  0.0821
 2011TIP3    H127592   6.306   0.271   0.909 -1.2342  0.1286 -1.0339
 2011TIP3    H227593   6.418   0.342   0.837 -0.1386 -0.3591  0.1625
 2012TIP3   OH227594   3.701   0.788   7.723 -0.2155  0.1672 -0.3238
 2012TIP3    H127595   3.746   0.872   7.722 -0.1683  0.1720  0.7980
 2012TIP3    H227596   3.626   0.800   7.665 -0.0086  0.8739 -0.4523
 2013TIP3   OH227597   3.433   2.768   6.972 -0.2130 -0.0007 -0.1092
 2013TIP3    H127598   3.446   2.726   6.887  1.4609 -1.2997  0.7356
 2013TIP3    H227599   3.440   2.697   7.036  0.7749  1.2410  1.2529
 2014TIP3   OH227600   6.853   4.615   1.154 -0.2135 -0.1056 -0.0304
 2014TIP3    H127601   6.866   4.684   1.089 -2.9411  0.1362 -0.4559
 2014TIP3    H227602   6.867   4.659   1.238  2.3367 -0.1702 -0.3522
 2015TIP3   OH227603   5.577   3.445   1.222 -0.2073  0.2824 -0.4793
 2015TIP3    H127604   5.519   3.463   1.148 -2.4979 -1.9263  0.6081
 2015TIP3    H227605   5.549   3.505   1.290  1.9539  2.3692 -1.2948
 2016TIP3   OH227606   1.536   5.199   7.645  0.0167 -0.6394  0.3945
 2016TIP3    H127607   1.499   5.145   7.715  0.7720 -0.4614  0.9538
 2016TIP3    H227608   1.460   5.236   7.601 -0.5048  0.4800  2.1059
 2017TIP3   OH227609   1.576   3.513   1.814 -0.3730 -0.1624  0.4302
 2017TIP3    H127610   1.667   3.543   1.812 -0.4632  0.2095  1.2573
 2017TIP3    H227611   1.549   3.527   1.905 -1.4763  0.3579  0.0281
 2018TIP3   OH227612   2.351   1.746   6.709  0.0010 -0.3198 -0.9028
 2018TIP3    H127613   2.324   1.658   6.736 -0.2257  0.1872  0.6454
 2018TIP3    H227614   2.269   1.794   6.699  0.1585 -0.0183 -0.7479
 2019TIP3   OH227615   5.051   6.678   0.575 -1.0609 -0.3681 -0.1335
 2019TIP3    H127616   5.115   6.740   0.612  0.6197 -1.4903 -1.0236
 2019TIP3    H227617   5.030   6.715   0.489  0.0990 -1.0796 -0.7511
 2020TIP3   OH227618   1.103   5.223   1.886  0.1954 -0.1571 -0.2982
 2020TIP3    H127619   1.194   5.208   1.914  0.5698  3.7234  1.1740
 2020TIP3    H227620   1.111   5.249   1.794  0.3130 -1.4413 -0.6752
 2021TIP3   OH227621   1.303   3.080   7.554 -0.1715 -0.0437 -0.4102
 2021TIP3    H127622   1.271   3.097   7.643 -3.3474 -2.7189 -0.8241
 2021TIP3    H227623   1.274   3.157   7.503 -1.2631  0.0291  0.2867
 2022TIP3   OH227624   2.994   3.267   2.297 -0.6044 -0.4092  0.1025
 2022TIP3    H127625   3.060   3.214   2.342  1.0556  0.9639 -0.5770
 2022TIP3    H227626   3.016   3.357   2.321 -0.2087  0.3172 -2.6575
 2023TIP3   OH227627   1.353   5.210   2.663  0.2054  0.1480 -0.0404
 2023TIP3    H127628   1.313   5.228   2.748 -0.5791  1.4256 -0.6554
 2023TIP3    H227629   1.281   5.176   2.609  0.0726  1.7141 -0.9168
 2024TIP3   OH227630   0.132   2.417   7.952  0.0905 -0.6928  0.0367
 2024TIP3    H127631   0.163   2.370   7.875 -0.1571  1.3224 -1.3778
 2024TIP3    H227632   0.211   2.439   8.000  0.6424  1.0988 -1.5565
 2025TIP3   OH227633   5.851   3.411   1.132  0.0898  0.5240 -0.3251
 2025TIP3    H127634   5.761   3.409   1.165  0.1732 -0.6977 -0.1256
 2025TIP3    H227635   5.843   3.391   1.038  0.3231 -2.8525  0.2304
 2026TIP3   OH227636   4.709   4.986   0.008 -0.4111  0.0519  0.0047
 2026TIP3    H127637   4.681   5.004   0.098 -2.7950 -0.2681 -0.6030
 2026TIP3    H227638   4.714   5.073  -0.032  0.4179  0.1785  0.3646
 2027TIP3   OH227639   0.809   4.298   1.408 -0.0567  0.1624 -0.2810
 2027TIP3    H127640   0.789   4.303   1.502 -0.6034 -1.7966 -0.2310
 2027TIP3    H227641   0.723   4.290   1.366  0.2315  0.0570 -0.8552
 2028TIP3   OH227642   6.030   5.696   2.042 -0.5958  0.3904 -0.2064
 2028TIP3    H127643   6.007   5.605   2.057  0.6199  0.0924 -0.0360
 2028TIP3    H227644   6.125   5.699   2.053 -0.2650  1.1857 -2.6971
 2029TIP3   OH227645   0.627   0.573   7.057 -0.2583  0.2637 -0.2062
 2029TIP3    H127646   0.721   0.558   7.061 -0.2052  0.3595 -0.9836
 2029TIP3    H227647   0.588   0.494   7.094  0.0770 -0.7675 -1.9389
 2030TIP3   OH227648   1.439   6.819   7.043 -0.0482 -0.4114  0.0560
 2030TIP3    H127649   1.416   6.879   7.113  0.3862  1.9007 -1.6692
 2030TIP3    H227650   1.532   6.800   7.058 -0.1714 -0.6438  0.5704
 2031TIP3   OH227651   2.333   0.832   2.314 -0.0044  0.2605  0.2872
 2031TIP3    H127652   2.373   0.794   2.236  0.9047 -2.1354  1.8143
 2031TIP3    H227653   2.402   0.887   2.352 -0.5072  1.5750 -0.6173
 2032TIP3   OH227654   3.277   0.316   0.655  0.6680 -0.0023 -0.2658
 2032TIP3    H127655   3.190   0.335   0.620  0.8562 -0.3848 -0.9753
 2032TIP3    H227656   3.309   0.400   0.686  1.0850  0.6966 -2.4066
 2033TIP3   OH227657   2.563   3.505   1.773  0.2080 -0.0811  0.6791
 2033TIP3    H127658   2.641   3.483   1.824  1.1196  1.7072  0.1347
 2033TIP3    H227659   2.490   3.489   1.834  1.1944  0.9161  2.1955
 2034TIP3   OH227660   1.408   3.530   8.572 -0.1463 -0.0387 -0.2121
 2034TIP3    H127661   1.458   3.597   8.524 -0.3820 -0.6563 -1.3506
 2034TIP3    H227662   1.318   3.542   8.542 -0.3544 -0.2464  0.3195
 2035TIP3   OH227663   6.621   2.846   7.717  0.0647 -0.6744 -0.4235
 2035TIP3    H127664   6.586   2.759   7.697  2.2671 -1.1237 -3.0112
 2035TIP3    H227665   6.697   2.829   7.773 -1.0411 -0.1153  1.3216
 2036TIP3   OH227666   4.650   4.982   2.264  0.1868  0.6678 -0.6347
 2036TIP3    H127667   4.725   5.002   2.208  1.1360  0.4795  0.5176
 2036TIP3    H227668   4.688   4.939   2.340 -1.1155  0.4813 -0.0609
 2037TIP3   OH227669   2.420   4.266   0.259  0.3504 -0.3909 -0.1008
 2037TIP3    H127670   2.369   4.250   0.339  0.0844  0.5645 -0.0684
 2037TIP3    H227671   2.366   4.232   0.189  0.4521 -0.9674  0.0950
 2038TIP3   OH227672   6.690   1.618   6.528 -0.4304 -0.6638  0.5122
 2038TIP3    H127673   6.643   1.572   6.458 -0.3550  0.0488 -0.0122
 2038TIP3    H227674   6.705   1.706   6.494  1.3991 -0.8910  0.5911
 2039TIP3   OH227675   3.852   2.789   1.422  0.0245  0.3374  0.4322
 2039TIP3    H127676   3.761   2.812   1.441  0.3377  0.8128  1.4066
 2039TIP3    H227677   3.889   2.767   1.507  0.6747 -0.4230 -0.0345
 2040TIP3   OH227678   0.841   0.858   7.890  0.4181 -0.7434  0.2970
 2040TIP3    H127679   0.810   0.773   7.858  1.4047 -0.5107 -1.4445
 2040TIP3    H227680   0.761   0.908   7.907 -0.1740 -2.0304  1.4334
 2041TIP3   OH227681   5.149   3.831   0.183 -0.0336 -0.7668 -0.1469
 2041TIP3    H127682   5.236   3.813   0.220  1.2103  1.4881 -1.7305
 2041TIP3    H227683   5.112   3.896   0.243  0.2740 -0.1521 -0.6175
 2042TIP3   OH227684   5.073   1.185   6.982 -0.1908 -0.5000 -0.0671
 2042TIP3    H127685   5.055   1.215   7.071  1.7639  0.6907 -0.0082
 2042TIP3    H227686   5.023   1.245   6.926 -0.5267 -0.5254  0.2039
 2043TIP3   OH227687   1.947   1.538   0.348  0.2705  0.2517  0.5032
 2043TIP3    H127688   1.867   1.558   0.397  0.6976  0.1516  1.2525
 2043TIP3    H227689   1.981   1.459   0.390 -0.3772 -0.9780 -1.1796
 2044TIP3   OH227690   1.131   1.236   6.543 -0.1932  0.0062  1.2000
 2044TIP3    H127691   1.203   1.266   6.598 -0.5125  0.7726  1.2116
 2044TIP3    H227692   1.061   1.217   6.604  0.0961 -1.0562  1.2157
 2045TIP3   OH227693   2.844   0.768   7.276  0.2839 -0.5125 -0.6020
 2045TIP3    H127694   2.936   0.777   7.252  0.1754  0.4977 -0.6769
 2045TIP3    H227695   2.842   0.782   7.371  0.1662 -0.2439 -0.6451
 2046TIP3   OH227696   5.066   4.882   2.816 -0.5108  0.6849  0.6180
 2046TIP3    H127697   5.059   4.801   2.865 -2.7633  0.8860  0.7227
 2046TIP3    H227698   5.020   4.865   2.734 -1.9876  2.1206  1.0782
 2047TIP3   OH227699   3.948   6.050   8.491 -0.3212 -0.3075  0.2696
 2047TIP3    H127700   3.912   5.981   8.435  0.9693 -0.1543 -0.8124
 2047TIP3    H227701   4.026   6.011   8.531  0.5736  0.5630 -0.5592
 2048TIP3   OH227702   4.930   2.050   7.680 -0.4877 -0.4383  0.0638
 2048TIP3    H127703   4.851   1.996   7.672 -0.8713 -0.1088  1.3794
 2048TIP3    H227704   4.998   1.998   7.638 -0.8537 -1.9715  1.2608
 2049TIP3   OH227705   3.638   3.377   1.756 -0.1041  0.0015  0.3529
 2049TIP3    H127706   3.709   3.322   1.724 -1.3210 -1.3267 -0.1913
 2049TIP3    H227707   3.636   3.361   1.851 -0.8032 -1.3850  0.1275
 2050TIP3   OH227708   1.178   6.555   1.701  0.0456 -0.5457  0.0504
 2050TIP3    H127709   1.241   6.535   1.632  0.5841  0.8406  0.1073
 2050TIP3    H227710   1.110   6.605   1.656  0.4511  0.4511  0.5196
 2051TIP3   OH227711   2.060   0.547   8.179 -0.6017  0.4449  0.1669
 2051TIP3    H127712   2.002   0.546   8.256 -1.4161 -0.1851 -0.4399
 2051TIP3    H227713   2.143   0.514   8.212 -1.2031 -0.7145  0.5870
 2052TIP3   OH227714   3.560   0.676   6.683  0.2752 -0.0773 -0.6142
 2052TIP3    H127715   3.549   0.769   6.665  1.6240 -0.0556 -1.4823
 2052TIP3    H227716   3.513   0.632   6.612 -1.2875 -0.1060  0.3894
 2053TIP3   OH227717   2.830   2.652   0.012  0.5373  0.2380 -0.2810
 2053TIP3    H127718   2.916   2.611   0.025 -0.3378 -1.5488  0.1660
 2053TIP3    H227719   2.768   2.580   0.018 -0.9904  1.4475 -0.9326
 2054TIP3   OH227720   1.467   3.089   6.746 -0.7473 -0.2945 -0.3476
 2054TIP3    H127721   1.435   3.082   6.836  2.5391 -1.9560  0.8273
 2054TIP3    H227722   1.489   3.181   6.735  0.3821 -0.3518  1.1938
 2055TIP3   OH227723   3.851   5.470   7.452 -0.5846 -0.4103 -0.2380
 2055TIP3    H127724   3.808   5.395   7.410 -2.1753  0.1223  0.3550
 2055TIP3    H227725   3.781   5.535   7.462 -0.0397 -0.0955  2.2174
 2056TIP3   OH227726   4.261   4.806   0.456 -0.2493  0.0136  0.6925
 2056TIP3    H127727   4.301   4.815   0.543  0.7318  0.9805  0.1782
 2056TIP3    H227728   4.332   4.771   0.401  0.0221  1.9460 -0.2867
 2057TIP3   OH227729   5.608   0.746   0.364 -0.1592 -0.0422 -0.5897
 2057TIP3    H127730   5.697   0.783   0.366  0.2499 -0.9594 -1.1633
 2057TIP3    H227731   5.571   0.769   0.449  1.5237 -1.7485  0.6980
 2058TIP3   OH227732   4.962   1.407   1.447 -0.6477  0.3598  0.0200
 2058TIP3    H127733   4.985   1.482   1.393 -0.5886  0.7853  0.6327
 2058TIP3    H227734   4.966   1.439   1.537 -2.7034  0.2061  0.2197
 2059TIP3   OH227735   2.240   3.116   0.326  0.0469  0.3315  0.5072
 2059TIP3    H127736   2.199   3.068   0.255  1.1086 -2.5845  1.7079
 2059TIP3    H227737   2.327   3.139   0.293 -0.3554  1.2476  0.0385
 2060TIP3   OH227738   2.652   0.293   8.113 -0.5455 -0.0529  0.5998
 2060TIP3    H127739   2.616   0.239   8.042 -0.0616  1.3603 -0.8033
 2060TIP3    H227740   2.746   0.296   8.094 -0.2496 -0.4823  1.9264
 2061TIP3   OH227741   2.976   2.272   7.238  0.1383 -0.5407  0.7574
 2061TIP3    H127742   2.908   2.219   7.197  1.7515 -0.6975 -1.9644
 2061TIP3    H227743   3.015   2.214   7.304 -0.5165 -1.4125  0.4001
 2062TIP3   OH227744   3.287   4.537   2.056  0.2349  0.2108 -0.6694
 2062TIP3    H127745   3.195   4.561   2.069  0.5743  2.3223 -1.6720
 2062TIP3    H227746   3.309   4.483   2.132 -1.2881  1.3785  0.6762
 2063TIP3   OH227747   0.868   2.102   0.068  0.1745 -0.0477 -0.2186
 2063TIP3    H127748   0.942   2.132   0.017  0.6690 -0.3934  0.2784
 2063TIP3    H227749   0.887   2.129   0.158  0.5350 -1.5938  0.2100
 2064TIP3   OH227750   2.889   2.575   0.271 -0.1875  0.1590  0.1124
 2064TIP3    H127751   2.892   2.645   0.205  0.2865  0.2504  0.2278
 2064TIP3    H227752   2.836   2.506   0.230  0.5111  0.0110 -0.5703
 2065TIP3   OH227753   3.185   1.369   0.326 -0.1202  0.2291 -0.4401
 2065TIP3    H127754   3.177   1.464   0.336  0.7526  0.4587 -1.7059
 2065TIP3    H227755   3.109   1.344   0.274  0.0895  0.3567 -0.8073
 2066TIP3   OH227756   6.460   6.787   0.922 -0.1417  0.2333 -0.3061
 2066TIP3    H127757   6.510   6.859   0.959  0.6614 -0.1786 -0.5581
 2066TIP3    H227758   6.463   6.718   0.989 -2.2743  0.9696  0.6310
 2067TIP3   OH227759   1.407   2.268   0.113 -0.1479  0.3131  0.0345
 2067TIP3    H127760   1.460   2.253   0.035 -0.8837  1.3384 -0.6950
 2067TIP3    H227761   1.370   2.183   0.135 -2.5587  0.5265 -2.7029
 2068TIP3   OH227762   4.145   5.074   2.814 -0.1561  0.3114  0.2843
 2068TIP3    H127763   4.144   5.109   2.725 -0.6628  0.2270  0.2531
 2068TIP3    H227764   4.060   5.099   2.850 -0.3401 -0.4859  0.4173
 2069TIP3   OH227765   1.707   4.474   7.539 -0.5278  0.0198 -0.1169
 2069TIP3    H127766   1.720   4.401   7.599 -0.1504  0.5164  0.4146
 2069TIP3    H227767   1.750   4.548   7.581 -0.6439  0.4820 -0.7913
 2070TIP3   OH227768   3.377   2.947   8.627  0.2481 -0.3243  0.0113
 2070TIP3    H127769   3.380   2.885   8.554  0.1902  0.3568 -0.5854
 2070TIP3    H227770   3.465   2.945   8.664  0.7152  0.3820 -0.9983
 2071TIP3   OH227771   2.950   2.939   1.846 -0.1207 -0.1443 -0.3602
 2071TIP3    H127772   2.934   2.959   1.939  0.7851  1.4749 -0.5147
 2071TIP3    H227773   2.957   2.844   1.843 -2.3280 -0.4144  0.8577
 2072TIP3   OH227774   0.302   2.157   8.127  0.1346  0.4985  0.2203
 2072TIP3    H127775   0.244   2.083   8.111  1.7195 -0.6929 -0.2004
 2072TIP3    H227776   0.325   2.150   8.220  0.1699  0.5532  0.2160
 2073TIP3   OH227777   0.029   2.467   0.604  0.4104 -0.1763 -0.3292
 2073TIP3    H127778   0.121   2.444   0.610  0.2849 -0.3261  1.4741
 2073TIP3    H227779  -0.015   2.408   0.664 -0.7975  0.2693 -0.7349
 2074TIP3   OH227780   6.449   4.589   2.278  0.1577 -0.5571  0.2490
 2074TIP3    H127781   6.385   4.643   2.232  0.7159  0.5044  0.6684
 2074TIP3    H227782   6.529   4.643   2.278  0.0486 -0.2928  2.8489
 2075TIP3   OH227783   2.654   4.061   1.983 -0.2697  0.3156 -0.0508
 2075TIP3    H127784   2.676   4.009   1.906 -0.8240 -0.5170  0.3425
 2075TIP3    H227785   2.727   4.047   2.043 -0.9367 -0.9285  0.5000
 2076TIP3   OH227786   3.735   3.718   2.680 -0.3021 -0.2658 -0.6957
 2076TIP3    H127787   3.729   3.623   2.690 -0.8929 -0.3583 -1.8008
 2076TIP3    H227788   3.817   3.732   2.632 -1.2578 -0.4037 -2.4532
 2077TIP3   OH227789   0.482   1.280   1.516 -0.1206  0.1512  0.2094
 2077TIP3    H127790   0.523   1.266   1.601 -1.0870 -1.4637  0.4442
 2077TIP3    H227791   0.441   1.196   1.495 -0.7095  0.8077 -1.4153
 2078TIP3   OH227792   5.276   0.030   7.896 -0.3272  0.1088  0.1496
 2078TIP3    H127793   5.327   0.006   7.974 -2.0690 -0.3229  1.1980
 2078TIP3    H227794   5.263   0.125   7.905  4.4635  1.4192 -2.7490
 2079TIP3   OH227795   5.145   0.182   1.437 -0.1246 -0.2104 -0.0014
 2079TIP3    H127796   5.235   0.203   1.410 -0.7291  0.2655 -1.7622
 2079TIP3    H227797   5.138   0.087   1.424  0.1967 -0.2950  0.4096
 2080TIP3   OH227798   5.043   4.304   7.864 -0.4720  0.2843  0.2932
 2080TIP3    H127799   5.004   4.289   7.950  0.3813 -0.1072  0.6280
 2080TIP3    H227800   5.062   4.217   7.830 -0.7498  0.4371 -0.2800
 2081TIP3   OH227801   2.065   3.887   1.105  0.0388  0.5320  0.0798
 2081TIP3    H127802   2.046   3.933   1.188 -0.7813 -0.8959  0.7133
 2081TIP3    H227803   1.979   3.867   1.069  0.3426  2.5560 -2.0084
 2082TIP3   OH227804   6.214   0.026   7.219 -0.2196  0.4025 -0.1949
 2082TIP3    H127805   6.234  -0.067   7.207  2.2427  0.2243  3.5847
 2082TIP3    H227806   6.134   0.027   7.272 -1.6431  0.6224 -2.2436
 2083TIP3   OH227807   5.917   2.600   1.115 -0.6958 -0.4252 -0.2612
 2083TIP3    H127808   5.856   2.673   1.115 -0.1163  0.0634  0.2197
 2083TIP3    H227809   5.930   2.580   1.022 -1.0816 -0.1169 -0.3839
 2084TIP3   OH227810   1.498   2.032   7.698 -0.0499  0.1826  0.3955
 2084TIP3    H127811   1.575   2.024   7.754  0.4013  0.0332 -0.2426
 2084TIP3    H227812   1.425   2.044   7.760  0.1119 -2.1383  1.1542
 2085TIP3   OH227813   0.575   6.628   1.882  0.3325 -0.0045 -0.2483
 2085TIP3    H127814   0.499   6.581   1.847 -1.1493  0.2177  2.3569
 2085TIP3    H227815   0.578   6.709   1.831 -1.2089 -0.0195 -0.4293
 2086TIP3   OH227816   6.410   0.039   0.575  0.0248  0.1961  0.0604
 2086TIP3    H127817   6.453  -0.041   0.546  1.1327  1.4604 -2.0476
 2086TIP3    H227818   6.327   0.010   0.613  0.1576 -1.9009 -1.0993
 2087TIP3   OH227819   1.568   6.026   8.523  0.1409 -0.2755 -0.7049
 2087TIP3    H127820   1.633   5.959   8.501  0.7571  0.0679  0.0127
 2087TIP3    H227821   1.517   6.037   8.443 -1.6853 -3.4482 -0.1324
 2088TIP3   OH227822   6.555   5.250   1.997  0.7767  0.1037  0.3749
 2088TIP3    H127823   6.524   5.171   2.041  0.4933  0.4604  0.8227
 2088TIP3    H227824   6.563   5.315   2.067  2.2205  0.1227  0.2250
 2089TIP3   OH227825   6.370   2.632   1.256 -0.0039 -0.2608  0.0110
 2089TIP3    H127826   6.367   2.542   1.290  1.5144 -0.4290 -0.2138
 2089TIP3    H227827   6.463   2.648   1.240 -0.4754  0.3577 -2.6239
 2090TIP3   OH227828   1.255   6.888   6.820 -0.3455 -0.1202 -0.1196
 2090TIP3    H127829   1.289   6.932   6.898 -2.1728  1.7382 -0.3032
 2090TIP3    H227830   1.298   6.802   6.821  0.1669  0.0658  2.5947
 2091TIP3   OH227831   4.344   2.926   1.113  0.2493 -0.0295  0.1654
 2091TIP3    H127832   4.288   3.004   1.111  1.2298  0.8679  3.0281
 2091TIP3    H227833   4.282   2.853   1.123 -0.5703  0.5295 -0.5774
 2092TIP3   OH227834   1.684   3.243   6.306 -0.5815 -0.2733 -0.6183
 2092TIP3    H127835   1.764   3.224   6.257 -0.3951  0.7562 -0.7338
 2092TIP3    H227836   1.693   3.335   6.332 -1.1670 -0.4955  0.4242
 2093TIP3   OH227837   1.017   6.371   7.769 -0.3377 -0.1267 -0.0999
 2093TIP3    H127838   1.042   6.319   7.845  0.0545 -0.3630 -0.3828
 2093TIP3    H227839   0.969   6.309   7.713  3.5756 -1.4863 -2.3748
 2094TIP3   OH227840   0.138   3.523   7.802  0.4703  0.5108  0.4604
 2094TIP3    H127841   0.212   3.580   7.780  1.8918 -0.9797  1.1790
 2094TIP3    H227842   0.162   3.437   7.767 -1.0161  0.0205  0.5604
 2095TIP3   OH227843   3.338   2.931   0.306 -0.0921  0.2550  0.0626
 2095TIP3    H127844   3.276   2.937   0.234  1.2329  0.1506 -1.1143
 2095TIP3    H227845   3.338   2.839   0.331  0.4722  0.0294 -0.7464
 2096TIP3   OH227846   3.968   3.325   1.581 -0.0032 -0.1211  0.9054
 2096TIP3    H127847   4.014   3.276   1.513  0.0490  0.5450  0.4546
 2096TIP3    H227848   3.972   3.268   1.658 -1.2391 -1.5155  0.0120
 2097TIP3   OH227849   6.637   3.594   2.644 -0.3166  0.0812  0.4800
 2097TIP3    H127850   6.653   3.673   2.696 -1.3832  0.2088  0.6388
 2097TIP3    H227851   6.640   3.523   2.707  0.2179  0.0374  0.4078
 2098TIP3   OH227852   5.901   1.625   7.901 -0.0035  0.2301 -0.2988
 2098TIP3    H127853   5.903   1.688   7.973  2.3797 -0.5933  0.4609
 2098TIP3    H227854   5.816   1.582   7.909 -1.1498  2.4111 -0.0666
 2099TIP3   OH227855   5.381   1.021   7.304 -0.5399 -0.5571  0.0116
 2099TIP3    H127856   5.339   1.100   7.340 -2.0736 -0.3564 -2.0337
 2099TIP3    H227857   5.345   0.949   7.356 -0.9994 -0.0907  0.3542
 2100TIP3   OH227858   0.651   5.638   1.650 -0.1098 -0.0714  0.0720
 2100TIP3    H127859   0.569   5.610   1.689 -0.7521  0.4372 -0.8675
 2100TIP3    H227860   0.708   5.561   1.655 -0.9466 -0.7120 -0.0687
 2101TIP3   OH227861   1.106   0.317   1.193 -0.5615  0.0836 -0.9038
 2101TIP3    H127862   1.097   0.247   1.129  1.0866 -0.8619 -0.1759
 2101TIP3    H227863   1.099   0.274   1.278 -3.9273  1.4891 -0.3232
 2102TIP3   OH227864   6.400   4.337   7.918 -0.0526 -0.0358  0.3523
 2102TIP3    H127865   6.360   4.284   7.988 -1.5994  0.6879  0.0575
 2102TIP3    H227866   6.328   4.390   7.884  1.0193  0.7649 -0.7515
 2103TIP3   OH227867   4.127   1.101   1.973 -0.0803  0.4811  0.5049
 2103TIP3    H127868   4.100   1.028   2.029 -1.2333 -0.6664 -1.4216
 2103TIP3    H227869   4.213   1.075   1.940 -0.6533 -0.2537 -0.4806
 2104TIP3   OH227870   5.724   0.077   0.580 -0.3529  0.5386 -0.0893
 2104TIP3    H127871   5.691  -0.013   0.581  1.2191 -0.0761 -0.6078
 2104TIP3    H227872   5.676   0.120   0.509 -0.6070 -0.0883 -0.3034
 2105TIP3   OH227873   6.789   0.206   0.894 -0.3773 -0.0723  0.2461
 2105TIP3    H127874   6.713   0.226   0.840  0.3733  1.7135 -0.2360
 2105TIP3    H227875   6.850   0.163   0.835 -0.4819 -0.2939  0.2969
 2106TIP3   OH227876   4.404   2.838   1.987  0.5144  0.7626 -0.1698
 2106TIP3    H127877   4.394   2.904   2.055  0.8048 -0.5210  1.1576
 2106TIP3    H227878   4.362   2.760   2.022  0.6965  0.0559 -1.4522
 2107TIP3   OH227879   4.665   5.205   1.172  0.3192  0.2672 -0.8225
 2107TIP3    H127880   4.653   5.230   1.081 -1.3665  1.8610 -0.2197
 2107TIP3    H227881   4.582   5.228   1.215  0.9524 -0.7179  1.0490
 2108TIP3   OH227882   1.760   4.191   8.139  0.2546 -0.1760  0.0215
 2108TIP3    H127883   1.672   4.171   8.171  0.2357 -0.5994 -0.2859
 2108TIP3    H227884   1.779   4.121   8.077  0.8019 -0.0764  0.0723
 2109TIP3   OH227885   6.230   0.419   8.518 -0.0967  0.1132 -0.0461
 2109TIP3    H127886   6.258   0.337   8.558 -2.0979 -1.3621 -1.5056
 2109TIP3    H227887   6.310   0.455   8.479  0.4098 -2.5033 -1.6419
 2110TIP3   OH227888   5.105   4.521   0.283  0.2808 -0.4730 -0.0261
 2110TIP3    H127889   5.035   4.525   0.348  1.0802 -1.7663  0.9776
 2110TIP3    H227890   5.115   4.611   0.252 -1.0451 -0.0803  0.6374
 2111TIP3   OH227891   1.936   4.913   7.108  0.5031 -0.3995  0.4886
 2111TIP3    H127892   1.936   4.840   7.047  1.5796  0.1669 -0.2224
 2111TIP3    H227893   1.870   4.973   7.075  0.1448 -0.7035  0.6492
 2112TIP3   OH227894   4.917   1.334   7.973 -0.2608 -0.0468  0.2456
 2112TIP3    H127895   4.976   1.379   8.034 -0.1688  0.6579 -0.3445
 2112TIP3    H227896   4.947   1.361   7.886 -0.7293 -0.6052 -0.1015
 2113TIP3   OH227897   5.325   4.923   7.705 -0.8535  0.1570 -0.4239
 2113TIP3    H127898   5.387   4.991   7.734 -2.4908  0.9859  1.3818
 2113TIP3    H227899   5.365   4.885   7.627  1.2763  1.5525 -0.0839
 2114TIP3   OH227900   1.804   4.022   0.706  0.0444 -0.6997 -0.0853
 2114TIP3    H127901   1.788   3.931   0.681 -1.4275 -0.4600 -0.0791
 2114TIP3    H227902   1.899   4.029   0.707  0.1915 -1.7564 -1.8484
 2115TIP3   OH227903   4.541   0.981   7.952  0.4780 -0.8300 -0.6088
 2115TIP3    H127904   4.481   1.045   7.992  0.3767 -1.0216 -0.4503
 2115TIP3    H227905   4.588   0.943   8.026  2.9960  1.4681 -0.9198
 2116TIP3   OH227906   2.213   5.858   8.063 -0.6367  0.4139  0.1654
 2116TIP3    H127907   2.140   5.878   8.121 -1.8031 -0.9091 -0.8019
 2116TIP3    H227908   2.226   5.939   8.012 -0.9074  0.9029  0.8564
 2117TIP3   OH227909   5.577   3.234   8.308  0.1329  0.2939  0.0103
 2117TIP3    H127910   5.514   3.290   8.353  1.1432  1.1154  0.4396
 2117TIP3    H227911   5.540   3.146   8.315 -0.4961  0.6288  1.0683
 2118TIP3   OH227912   1.927   5.895   2.214 -0.1800 -0.3430 -0.2428
 2118TIP3    H127913   2.007   5.844   2.222  0.1799  0.3334  0.6175
 2118TIP3    H227914   1.858   5.830   2.201  0.6699 -0.8834 -2.7759
 2119TIP3   OH227915   0.008   2.175   7.392 -0.3940  0.3939  0.4650
 2119TIP3    H127916   0.024   2.139   7.479 -1.5243 -0.3583  0.3765
 2119TIP3    H227917  -0.086   2.193   7.391 -0.7948 -1.4759 -1.2739
 2120TIP3   OH227918   3.670   2.670   2.265  0.6019 -0.3553  0.5811
 2120TIP3    H127919   3.591   2.717   2.238  0.8983  0.2009  0.6797
 2120TIP3    H227920   3.656   2.581   2.232 -0.5902 -0.5746  1.5980
 2121TIP3   OH227921   3.884   6.150   6.474 -0.8269  0.4466 -0.4235
 2121TIP3    H127922   3.950   6.107   6.420 -1.5211 -1.5724  0.2222
 2121TIP3    H227923   3.932   6.217   6.523  0.3724  0.2784 -1.3284
 2122TIP3   OH227924   5.568   5.675   0.425 -0.0217 -0.0404  0.8451
 2122TIP3    H127925   5.601   5.635   0.345  0.1917 -0.0085  0.9176
 2122TIP3    H227926   5.529   5.602   0.474  0.3804 -0.1651  0.9840
 2123TIP3   OH227927   4.543   4.364   0.733  0.4029  0.4791 -0.2993
 2123TIP3    H127928   4.480   4.436   0.735  0.2803  0.3695 -0.1526
 2123TIP3    H227929   4.522   4.313   0.811 -0.1989 -0.3036 -0.9564
 2124TIP3   OH227930   6.693   3.918   1.284 -0.2358  0.3799  0.5042
 2124TIP3    H127931   6.638   3.850   1.325  1.0095  1.4400  4.4269
 2124TIP3    H227932   6.645   3.999   1.300 -0.7042  0.7338 -2.2781
 2125TIP3   OH227933   1.162   3.037   6.949 -0.4796  0.5972  0.4541
 2125TIP3    H127934   1.253   3.062   6.965 -0.7644  1.4552  0.7802
 2125TIP3    H227935   1.159   3.011   6.857 -0.1015  1.4626  0.1951
 2126TIP3   OH227936   5.808   2.658   1.448  0.1136  0.0422 -0.4332
 2126TIP3    H127937   5.777   2.647   1.538 -0.0126 -1.3590 -0.6362
 2126TIP3    H227938   5.737   2.707   1.405  0.4396  1.2586  0.3583
 2127TIP3   OH227939   2.891   0.904   7.985 -0.3338  0.4113 -0.0940
 2127TIP3    H127940   2.916   0.825   8.034 -0.0107 -0.0752 -1.0270
 2127TIP3    H227941   2.798   0.916   8.006 -0.0979  0.4684  0.9808
 2128TIP3   OH227942   0.250   4.773   0.483  0.4414 -0.4035 -0.3943
 2128TIP3    H127943   0.176   4.746   0.429 -0.1370  0.1443  0.1007
 2128TIP3    H227944   0.256   4.706   0.551  1.2724 -1.1808 -1.2149
 2129TIP3   OH227945   3.767   3.523   0.476 -0.2097  0.0880  0.0836
 2129TIP3    H127946   3.714   3.490   0.549 -0.6168 -0.7420 -0.5677
 2129TIP3    H227947   3.754   3.618   0.479 -1.5448 -0.0676  0.1166
 2130TIP3   OH227948   2.895   2.678   6.749  0.2328  0.3256  0.1691
 2130TIP3    H127949   2.868   2.621   6.677 -0.8313 -0.0276  0.8239
 2130TIP3    H227950   2.961   2.628   6.796  0.8087  0.4901 -0.4526
 2131TIP3   OH227951   4.995   2.908   7.376  0.8609 -0.0223 -0.0680
 2131TIP3    H127952   4.954   2.889   7.460 -2.1771  1.6848 -1.0054
 2131TIP3    H227953   4.965   2.839   7.318  0.0663  0.6941 -0.5323
 2132TIP3   OH227954   3.457   4.032   8.403  0.5327 -0.5870 -0.4525
 2132TIP3    H127955   3.502   4.117   8.402 -0.9625  0.2325 -1.2790
 2132TIP3    H227956   3.481   3.993   8.487  1.7149  0.3870 -0.3113
 2133TIP3   OH227957   1.980   3.403   7.776  0.5541 -0.5937  0.4115
 2133TIP3    H127958   2.074   3.384   7.765  0.8522  1.1942 -0.6288
 2133TIP3    H227959   1.948   3.413   7.686 -0.5353 -0.7181  0.7816
 2134TIP3   OH227960   2.594   3.527   6.831  0.0967 -0.1155 -0.3400
 2134TIP3    H127961   2.512   3.480   6.821  0.2236 -0.5084  0.4231
 2134TIP3    H227962   2.644   3.476   6.894 -0.4642  1.9406  1.9027
 2135TIP3   OH227963   6.565   1.198   7.859  0.1868 -0.1777  0.1806
 2135TIP3    H127964   6.512   1.177   7.935  2.0430 -0.4904  1.4533
 2135TIP3    H227965   6.513   1.263   7.810 -2.1963 -1.8975  0.2676
 2136TIP3   OH227966   4.217   2.311   1.562 -0.2748  0.6072 -0.1535
 2136TIP3    H127967   4.187   2.248   1.627  0.2108  2.3305  1.8690
 2136TIP3    H227968   4.146   2.316   1.498 -0.8679 -0.9744  0.3462
 2137TIP3   OH227969   0.107   5.598   6.588 -0.1261 -0.0399 -0.0982
 2137TIP3    H127970   0.025   5.646   6.578 -0.0491  0.2909  0.7353
 2137TIP3    H227971   0.080   5.507   6.606 -0.2840 -0.1564 -0.9029
 2138TIP3   OH227972   3.638   6.237   1.119  0.1851  0.3951 -0.6999
 2138TIP3    H127973   3.570   6.277   1.065  1.3778  1.4554 -1.4901
 2138TIP3    H227974   3.625   6.275   1.206  0.1809  1.1278 -1.0138
 2139TIP3   OH227975   3.388   6.005   1.517  0.8868  0.0586  0.3063
 2139TIP3    H127976   3.310   5.957   1.491 -0.1497  1.7088  0.1884
 2139TIP3    H227977   3.455   5.978   1.455  0.5508 -1.6920  0.6528
 2140TIP3   OH227978   6.402   4.152   0.371 -0.2837 -0.6000 -0.4549
 2140TIP3    H127979   6.417   4.137   0.465 -0.5407  1.1903 -0.0854
 2140TIP3    H227980   6.435   4.073   0.328  1.7698 -0.6011  0.9792
 2141TIP3   OH227981   5.144   1.902   7.548 -0.0450  0.3193 -0.2337
 2141TIP3    H127982   5.176   1.832   7.491  0.2425  0.7219 -0.5688
 2141TIP3    H227983   5.126   1.975   7.489 -0.8323  0.3607  0.0531
 2142TIP3   OH227984   5.780   3.584   1.998 -0.3454  0.1972 -0.3215
 2142TIP3    H127985   5.755   3.553   1.912 -2.2962  0.7933 -0.0261
 2142TIP3    H227986   5.742   3.672   2.004  0.5590  0.5459  0.8003
 2143TIP3   OH227987   2.547   0.928   7.302  0.4462  0.2496 -0.4068
 2143TIP3    H127988   2.612   0.954   7.237  0.0885  2.0394 -0.0859
 2143TIP3    H227989   2.593   0.934   7.386  0.8798 -1.9656 -0.4226
 2144TIP3   OH227990   6.370   1.025   6.482  0.1161  0.0932 -0.3342
 2144TIP3    H127991   6.462   1.020   6.510  0.4268 -1.1824 -1.4455
 2144TIP3    H227992   6.321   0.985   6.555  0.4506  0.6496  0.2025
 2145TIP3   OH227993   0.027   6.819   6.856  0.0972  0.2670 -0.0861
 2145TIP3    H127994   0.017   6.866   6.773 -3.6134 -0.3830 -0.1977
 2145TIP3    H227995  -0.004   6.730   6.837 -0.3501 -0.0372  1.8749
 2146TIP3   OH227996   1.548   3.042   6.427  0.4340 -0.2062  0.2397
 2146TIP3    H127997   1.580   3.118   6.380 -1.3170  1.0073  0.9005
 2146TIP3    H227998   1.490   2.998   6.364  0.0859  0.0022  0.4073
 2147TIP3   OH227999   1.524   4.327   1.853  0.4882  0.1211  0.0052
 2147TIP3    H128000   1.514   4.235   1.827 -0.0061 -0.5145  2.2310
 2147TIP3    H228001   1.442   4.349   1.896  1.7201  0.6089  2.2481
 2148TIP3   OH228002   5.722   2.274   1.413  0.0533  0.0450 -0.0644
 2148TIP3    H128003   5.682   2.331   1.479 -3.0715 -1.8353 -0.1179
 2148TIP3    H228004   5.715   2.186   1.450 -0.4531 -0.9009 -2.2638
 2149TIP3   OH228005   5.861   6.833   6.240 -0.2850  0.0295 -0.3500
 2149TIP3    H128006   5.943   6.818   6.193 -0.3103  0.1352 -0.4296
 2149TIP3    H228007   5.887   6.888   6.315 -0.3022  0.1626 -0.4417
 2150TIP3   OH228008   3.592   0.201   7.530  0.0323  0.4133 -0.3003
 2150TIP3    H128009   3.594   0.253   7.610 -2.7122  1.9680 -1.1187
 2150TIP3    H228010   3.585   0.266   7.459  0.2534 -0.9809 -1.6530
 2151TIP3   OH228011   3.177   0.093   0.888  0.4135 -0.3044 -0.8467
 2151TIP3    H128012   3.183   0.045   0.805 -1.5830 -1.1247 -0.5682
 2151TIP3    H228013   3.209   0.181   0.867  2.4588 -1.1976 -1.8169
 2152TIP3   OH228014   6.116   4.869   7.300 -0.1920 -0.4394  0.5048
 2152TIP3    H128015   6.133   4.956   7.338 -1.3247  0.8190 -1.6874
 2152TIP3    H228016   6.021   4.867   7.288 -0.1883 -2.0578  0.6566
 2153TIP3   OH228017   5.929   5.564   7.043  0.0595  1.0379  0.1762
 2153TIP3    H128018   6.009   5.514   7.027 -0.0816  0.5590  0.9071
 2153TIP3    H228019   5.870   5.502   7.085 -0.5603  1.4964  0.0000
 2154TIP3   OH228020   4.993   0.368   1.807 -0.2447 -0.1010 -0.2759
 2154TIP3    H128021   5.033   0.446   1.769  0.7782 -1.0878 -1.3333
 2154TIP3    H228022   5.010   0.375   1.901  1.6994 -0.0456 -0.5911
 2155TIP3   OH228023   2.358   5.536   0.976 -0.1483 -0.1180  0.0922
 2155TIP3    H128024   2.401   5.492   1.049  0.0532 -0.3671 -0.1788
 2155TIP3    H228025   2.409   5.511   0.899 -1.6774 -1.6766 -0.4711
 2156TIP3   OH228026   2.825   5.290   7.747  0.0615 -0.3359 -0.0109
 2156TIP3    H128027   2.875   5.213   7.720 -0.6410 -0.8960  0.2575
 2156TIP3    H228028   2.770   5.259   7.818 -0.4292  0.3546 -0.0805
 2157TIP3   OH228029   4.280   3.109   0.694  0.4677 -0.2401 -1.0035
 2157TIP3    H128030   4.366   3.152   0.686 -0.0945  1.4495  1.0075
 2157TIP3    H228031   4.300   3.021   0.724  1.5200  0.1398 -0.5339
 2158TIP3   OH228032   2.232   3.686   1.246 -0.5619  0.5446 -0.1216
 2158TIP3    H128033   2.147   3.722   1.224 -0.1691  2.2627  0.9731
 2158TIP3    H228034   2.276   3.672   1.162 -1.2187  1.4507 -0.6217
 2159TIP3   OH228035   6.119   1.620   2.093 -0.1355 -0.4479 -0.3887
 2159TIP3    H128036   6.187   1.686   2.085 -1.2283  0.7908  0.1082
 2159TIP3    H228037   6.045   1.655   2.042 -0.6844 -1.3720 -0.2612
 2160TIP3   OH228038   5.671   3.479   7.669  0.8681  0.0485  0.2136
 2160TIP3    H128039   5.754   3.462   7.624  1.1525  2.3580 -0.2370
 2160TIP3    H228040   5.692   3.474   7.762  1.3779  0.0657  0.1000
 2161TIP3   OH228041   6.591   3.827   7.942  0.3175 -0.2780  0.6426
 2161TIP3    H128042   6.676   3.783   7.940  0.6753  0.3418  1.9405
 2161TIP3    H228043   6.592   3.884   7.865  0.5309 -1.2406 -0.0924
 2162TIP3   OH228044   1.956   1.963   7.243 -0.1208  0.3421 -0.5335
 2162TIP3    H128045   1.949   2.033   7.177  0.2143  0.2747 -0.6428
 2162TIP3    H228046   2.043   1.926   7.229 -0.5567 -0.5506 -0.9203
 2163TIP3   OH228047   6.031   3.269   2.096  0.5538 -0.0801  0.6740
 2163TIP3    H128048   6.085   3.346   2.082  0.6441 -0.3704 -0.7164
 2163TIP3    H228049   5.983   3.258   2.014 -1.2328 -0.1416  1.6916
 2164TIP3   OH228050   3.202   3.797   7.977 -0.3511 -0.4295 -0.7771
 2164TIP3    H128051   3.218   3.703   7.990 -0.0783 -0.1845  0.7969
 2164TIP3    H228052   3.223   3.811   7.884  0.4107 -1.7697 -0.8459
 2165TIP3   OH228053   5.516   3.429   0.421 -0.0704  0.0972 -0.5012
 2165TIP3    H128054   5.539   3.374   0.346 -0.7896 -2.0327  0.7695
 2165TIP3    H228055   5.585   3.496   0.424  1.0092 -0.8969 -1.9295
 2166TIP3   OH228056   4.434   2.475   1.145  0.2941  0.1675 -0.1789
 2166TIP3    H128057   4.393   2.444   1.064 -1.9793 -0.9565  1.2864
 2166TIP3    H228058   4.467   2.562   1.124 -1.4943  0.4944 -1.9637
 2167TIP3   OH228059   3.365   1.458   1.709  0.5931 -0.6400 -0.6239
 2167TIP3    H128060   3.341   1.404   1.634 -0.4545  0.0395 -0.8004
 2167TIP3    H228061   3.288   1.456   1.766  1.0306 -0.3901 -0.0092
 2168TIP3   OH228062   5.185   4.620   7.056  0.2463 -1.1372 -0.1950
 2168TIP3    H128063   5.237   4.624   6.976 -0.9327  1.3333 -0.9142
 2168TIP3    H228064   5.229   4.679   7.116 -0.4664 -0.7695 -0.0301
 2169TIP3   OH228065   1.688   3.636   0.435 -0.1826  0.0620 -0.1439
 2169TIP3    H128066   1.750   3.678   0.495 -1.1130  1.1274  0.1018
 2169TIP3    H228067   1.687   3.692   0.358 -0.9031  0.1098 -0.1047
 2170TIP3   OH228068   0.383   3.574   8.257 -0.3567  0.3786 -0.2308
 2170TIP3    H128069   0.474   3.593   8.235 -0.7119  0.4542 -1.7004
 2170TIP3    H228070   0.377   3.592   8.351  1.1096  0.4706 -0.1337
 2171TIP3   OH228071   6.530   5.384   2.242  0.2625  0.1126 -0.1447
 2171TIP3    H128072   6.541   5.399   2.336 -2.5731 -1.6413  0.5839
 2171TIP3    H228073   6.505   5.470   2.207 -0.8731  0.3412  1.1391
 2172TIP3   OH228074   3.899   2.420   8.275 -0.6431 -0.4733  0.1915
 2172TIP3    H128075   3.937   2.503   8.304  0.9761 -0.9459 -0.4793
 2172TIP3    H228076   3.805   2.435   8.279 -0.4403  1.9323 -1.2830
 2173TIP3   OH228077   0.760   0.235   8.309 -0.0083 -0.1556  0.1750
 2173TIP3    H128078   0.798   0.188   8.384  0.0507 -1.2842 -0.5270
 2173TIP3    H228079   0.669   0.249   8.333  0.1774  0.1141  0.7402
 2174TIP3   OH228080   2.265   6.845   0.696  0.1958  0.5568 -0.3279
 2174TIP3    H128081   2.338   6.835   0.636  0.8319  1.3456  0.2885
 2174TIP3    H228082   2.304   6.882   0.775 -0.5828 -0.6360  0.6531
 2175TIP3   OH228083   4.352   3.081   2.099 -0.2684 -0.4478  0.6581
 2175TIP3    H128084   4.392   3.115   2.180  1.6740  0.0024 -0.4282
 2175TIP3    H228085   4.258   3.093   2.113  0.0701  0.6750  2.3957
 2176TIP3   OH228086   2.492   5.099   6.945  0.0266  0.4425 -0.7282
 2176TIP3    H128087   2.423   5.044   6.982 -1.5956  2.1919 -0.9579
 2176TIP3    H228088   2.508   5.063   6.858 -1.7477  0.8861 -1.2820
 2177TIP3   OH228089   4.331   4.685   6.282  0.4729 -0.1028 -0.3043
 2177TIP3    H128090   4.350   4.746   6.353 -2.5591  0.4828  0.1692
 2177TIP3    H228091   4.236   4.693   6.268  0.6213 -1.6659 -3.0873
 2178TIP3   OH228092   0.316   6.828   8.310 -0.3265 -0.3039  0.7430
 2178TIP3    H128093   0.251   6.893   8.337  0.2417 -0.3059  2.2570
 2178TIP3    H228094   0.318   6.833   8.215 -0.5283  1.6780  0.8073
 2179TIP3   OH228095   2.142   4.384   1.220 -0.1601 -0.3420 -0.3508
 2179TIP3    H128096   2.212   4.448   1.216  0.4831 -0.9005  1.1247
 2179TIP3    H228097   2.186   4.302   1.243 -1.3909 -0.4318  1.9745
 2180TIP3   OH228098   4.344   3.067   8.379 -0.1437  0.2252 -0.2990
 2180TIP3    H128099   4.340   3.152   8.422 -0.1522 -0.4506  1.0764
 2180TIP3    H228100   4.437   3.050   8.368  0.0007 -0.7862  1.9619
 2181TIP3   OH228101   4.166   5.334   2.352 -0.1394  0.8492  0.5892
 2181TIP3    H128102   4.215   5.269   2.302  0.8806  1.9618  0.0656
 2181TIP3    H228103   4.104   5.371   2.289 -1.5276 -0.4005  1.1941
 2182TIP3   OH228104   5.698   1.427   1.428 -0.3258 -0.0827 -0.1761
 2182TIP3    H128105   5.708   1.415   1.522 -0.3654  2.0374  0.1584
 2182TIP3    H228106   5.737   1.513   1.411  0.1539 -0.6467 -2.1885
 2183TIP3   OH228107   4.996   2.709   0.567  0.0518 -0.9777 -0.0497
 2183TIP3    H128108   4.967   2.730   0.656 -1.6277 -0.4498 -0.6824
 2183TIP3    H228109   4.920   2.667   0.527  0.5544 -0.5860 -1.4561
 2184TIP3   OH228110   2.661   0.902   8.597  0.0274 -0.1329  0.5921
 2184TIP3    H128111   2.566   0.892   8.596  0.0072 -0.3198  1.8263
 2184TIP3    H228112   2.680   0.934   8.685  0.7627  3.9955 -0.8568
 2185TIP3   OH228113   0.479   6.662   7.196  0.1822 -0.4086 -0.0865
 2185TIP3    H128114   0.410   6.727   7.213  1.7309  1.2851  0.1249
 2185TIP3    H228115   0.474   6.645   7.102  0.6462  1.1726 -0.4301
 2186TIP3   OH228116   5.151   6.231   8.432  0.0961  0.3097 -0.0848
 2186TIP3    H128117   5.098   6.248   8.354 -0.4744  0.6594  0.3692
 2186TIP3    H228118   5.230   6.188   8.398 -0.4782 -0.2330 -0.7702
 2187TIP3   OH228119   6.441   3.412   2.457 -0.6848 -0.1792 -0.1318
 2187TIP3    H128120   6.458   3.439   2.548 -0.6728  0.0845 -0.2110
 2187TIP3    H228121   6.477   3.483   2.404  0.1454 -0.7628 -0.3749
 2188TIP3   OH228122   6.492   0.540   0.058  0.3467 -0.0726 -0.8318
 2188TIP3    H128123   6.455   0.627   0.075 -0.5023 -0.4387 -0.7290
 2188TIP3    H228124   6.526   0.546  -0.031  0.8516  0.5417 -0.6076
 2189TIP3   OH228125   5.566   4.335   7.290 -0.2318  0.7506  0.5763
 2189TIP3    H128126   5.503   4.338   7.362 -0.3087  0.3285  0.5255
 2189TIP3    H228127   5.544   4.411   7.236 -0.5415  0.7388  0.6853
 2190TIP3   OH228128   4.749   4.871   7.955  0.0349  0.4001 -0.1420
 2190TIP3    H128129   4.654   4.859   7.953  0.0414 -0.5574  2.1569
 2190TIP3    H228130   4.778   4.847   7.867 -1.7953  0.2663 -0.7535
 2191TIP3   OH228131   3.959   5.809   1.160 -0.1084  0.2636  0.2910
 2191TIP3    H128132   4.013   5.732   1.145 -0.4949 -0.1144  0.8104
 2191TIP3    H228133   3.979   5.867   1.087  0.5711 -0.1098  0.1722
 2192TIP3   OH228134   5.550   6.373   6.820  0.0802  0.4346 -0.4390
 2192TIP3    H128135   5.568   6.279   6.828  0.6762  0.6629  1.3450
 2192TIP3    H228136   5.560   6.392   6.727  0.4086 -1.1799 -0.7586
 2193TIP3   OH228137   0.655   1.347   1.333 -0.0243  0.0384 -0.0116
 2193TIP3    H128138   0.584   1.320   1.392  0.2735 -0.0189  0.3222
 2193TIP3    H228139   0.724   1.281   1.346  0.2695  0.3466  0.0025
 2194TIP3   OH228140   0.573   4.044   1.873  0.1227  0.2596 -0.1133
 2194TIP3    H128141   0.576   3.960   1.826  1.1909 -0.2072  0.7618
 2194TIP3    H228142   0.509   4.030   1.942 -1.9271  1.1475 -1.7240
 2195TIP3   OH228143   5.738   5.815   2.331 -0.0648  0.0056 -0.0257
 2195TIP3    H128144   5.686   5.735   2.329 -3.3357  1.9650 -0.1303
 2195TIP3    H228145   5.774   5.823   2.243 -2.2666  0.1269 -0.9798
 2196TIP3   OH228146   3.113   3.436   1.091 -0.3790  0.2171  0.0249
 2196TIP3    H128147   3.194   3.456   1.045 -0.3794  0.6854  0.2246
 2196TIP3    H228148   3.112   3.495   1.166 -0.4198 -0.4779  0.5863
 2197TIP3   OH228149   0.268   4.043   7.210  0.5798 -0.0052 -0.0041
 2197TIP3    H128150   0.343   4.089   7.249  1.4007 -1.1326 -0.1882
 2197TIP3    H228151   0.288   4.041   7.116 -0.6281  1.3416 -0.3134
 2198TIP3   OH228152   1.950   1.621   0.896  0.2075 -0.1792  0.2007
 2198TIP3    H128153   2.022   1.680   0.917  0.1546  0.4216 -1.1594
 2198TIP3    H228154   1.992   1.538   0.875  1.0527  1.1693 -4.5615
 2199TIP3   OH228155   3.348   6.559   7.872 -0.3316  0.2168  0.0711
 2199TIP3    H128156   3.345   6.471   7.834  0.0427 -0.6421  1.8813
 2199TIP3    H228157   3.420   6.603   7.826  1.3166 -1.4006  0.9555
 2200TIP3   OH228158   3.172   5.304   7.932 -0.2626 -0.2115  0.8090
 2200TIP3    H128159   3.167   5.233   7.868  1.4385  0.2865  0.0362
 2200TIP3    H228160   3.260   5.297   7.969  1.5143  3.5299 -1.9573
 2201TIP3   OH228161   6.371   1.150   8.034  0.2736 -0.2516 -0.3876
 2201TIP3    H128162   6.314   1.201   7.977 -1.3788 -1.0921  0.4466
 2201TIP3    H228163   6.313   1.085   8.074  1.4321  0.1161  2.0126
 2202TIP3   OH228164   1.749   2.696   0.447  0.1787  0.0900 -0.0017
 2202TIP3    H128165   1.673   2.741   0.483 -1.6081 -1.2048 -1.8503
 2202TIP3    H228166   1.749   2.611   0.491 -1.3963 -1.0931 -2.0672
 2203TIP3   OH228167   1.053   4.063   7.290 -0.3187 -0.0798  0.4336
 2203TIP3    H128168   1.038   4.150   7.254  1.4801  0.2039  0.2444
 2203TIP3    H228169   0.983   4.050   7.353 -0.9287  1.2788  0.0693
 2204TIP3   OH228170   3.640   3.926   7.127 -0.5704  0.6175 -0.0142
 2204TIP3    H128171   3.613   3.988   7.059 -1.8297 -2.0246 -2.1489
 2204TIP3    H228172   3.704   3.870   7.083  0.7638  0.5537  1.9285
 2205TIP3   OH228173   3.022   0.961   0.232 -0.1100  0.3030 -0.1415
 2205TIP3    H128174   3.018   0.962   0.328 -0.9302  0.9408 -0.1677
 2205TIP3    H228175   3.031   1.053   0.207 -0.5383  0.2012 -0.6953
 2206TIP3   OH228176   6.371   5.163   2.246 -0.0121 -0.4094 -0.7363
 2206TIP3    H128177   6.303   5.190   2.307  0.8613 -0.0053  0.1009
 2206TIP3    H228178   6.432   5.237   2.243  2.3590 -2.0678  1.4929
 2207TIP3   OH228179   0.509   2.860   8.465 -0.0665  0.0840  0.9103
 2207TIP3    H128180   0.565   2.824   8.535  1.6631  0.7940 -0.0386
 2207TIP3    H228181   0.553   2.941   8.439 -0.8673  0.0287 -0.7326
 2208TIP3   OH228182   0.935   3.745   6.230 -0.2110 -0.2848 -0.1686
 2208TIP3    H128183   1.023   3.764   6.263  0.0211 -0.8316 -0.4582
 2208TIP3    H228184   0.882   3.732   6.308 -0.1679  0.5881  0.0211
 2209TIP3   OH228185   3.562   5.423   8.438  0.6699  0.4229  0.1379
 2209TIP3    H128186   3.616   5.379   8.373  1.4951  0.0418  1.0674
 2209TIP3    H228187   3.570   5.370   8.517  0.4371  1.3896  0.8333
 2210TIP3   OH228188   5.310   1.634   6.861 -0.0627 -0.0380 -0.1415
 2210TIP3    H128189   5.220   1.666   6.854 -0.2090 -0.4877 -0.3467
 2210TIP3    H228190   5.354   1.669   6.784  0.4969  1.9168  0.9948
 2211TIP3   OH228191   3.230   6.616   8.549 -0.6972 -0.5559 -0.3254
 2211TIP3    H128192   3.152   6.656   8.586 -1.5543 -2.2917 -0.1326
 2211TIP3    H228193   3.197   6.543   8.497  0.7895 -1.3185 -0.2450
 2212TIP3   OH228194   0.952   3.755   0.031  0.0168 -0.5806  0.3617
 2212TIP3    H128195   1.000   3.772   0.112 -0.4627 -2.3378  1.0614
 2212TIP3    H228196   1.008   3.792  -0.038  0.5025  0.8101  1.4623
 2213TIP3   OH228197   3.024   4.411   6.333  0.1460  0.0339  0.2998
 2213TIP3    H128198   3.113   4.426   6.300 -1.1498  1.9015 -2.6987
 2213TIP3    H228199   2.998   4.495   6.370 -0.7635 -0.1364  0.0623
 2214TIP3   OH228200   0.371   3.729   1.994  0.1551  0.9309  0.9555
 2214TIP3    H128201   0.391   3.673   2.069 -0.2237 -2.3017 -1.1840
 2214TIP3    H228202   0.447   3.719   1.936  0.7460  3.8789  1.0369
 2215TIP3   OH228203   2.627   4.147   1.652  0.2288 -0.2010 -0.0178
 2215TIP3    H128204   2.689   4.200   1.702  1.6052 -0.4872 -1.3718
 2215TIP3    H228205   2.550   4.203   1.643  1.7166  1.7345 -1.6253
 2216TIP3   OH228206   3.584   4.436   7.506  0.1584 -0.1428 -0.0496
 2216TIP3    H128207   3.672   4.404   7.487  0.2716  0.8022 -1.2332
 2216TIP3    H228208   3.582   4.444   7.602  1.7329  0.8248 -0.0562
 2217TIP3   OH228209   0.832   6.489   0.058  0.5068 -0.2461 -0.2553
 2217TIP3    H128210   0.837   6.394   0.065  2.8827 -0.1013  1.3392
 2217TIP3    H228211   0.790   6.518   0.139  0.1798  0.0995 -0.5413
 2218TIP3   OH228212   1.613   0.075   8.208 -0.4968 -0.2230  0.1456
 2218TIP3    H128213   1.627   0.163   8.173  1.5743 -0.4400  0.2873
 2218TIP3    H228214   1.526   0.078   8.248 -0.5407  1.6976 -0.0179
 2219TIP3   OH228215   3.238   5.420   8.496 -0.3128  0.0885 -0.4361
 2219TIP3    H128216   3.174   5.480   8.457 -0.7577  0.4394  0.7569
 2219TIP3    H228217   3.193   5.387   8.574  1.1497  0.7787  0.7478
 2220TIP3   OH228218   1.179   4.172   1.905 -0.0918  0.0932  0.3075
 2220TIP3    H128219   1.173   4.076   1.905 -0.3970  0.0761 -1.6934
 2220TIP3    H228220   1.088   4.202   1.895 -0.2699  0.6970  2.9727
 2221TIP3   OH228221   1.740   1.552   7.230 -0.0061 -0.8163  0.0335
 2221TIP3    H128222   1.824   1.515   7.203  0.3930 -0.2459  0.4886
 2221TIP3    H228223   1.724   1.624   7.169  0.5278 -0.0166  0.8190
 2222TIP3   OH228224   4.425   3.917   8.049 -0.2051 -0.0128 -0.3575
 2222TIP3    H128225   4.430   3.950   8.139  1.5037 -1.0311 -0.0371
 2222TIP3    H228226   4.489   3.846   8.046 -0.5858 -0.3218 -2.2531
 2223TIP3   OH228227   2.250   3.364   7.913  0.0611 -0.4464  0.3301
 2223TIP3    H128228   2.224   3.455   7.926 -0.3480 -0.6771  1.1784
 2223TIP3    H228229   2.295   3.339   7.994  0.7045 -0.8217 -0.1299
 2224TIP3   OH228230   0.216   5.415   7.251 -0.0871  0.0719  0.1236
 2224TIP3    H128231   0.288   5.467   7.286 -0.2559 -0.0015  0.5826
 2224TIP3    H228232   0.188   5.360   7.324 -2.5594  2.1615  0.8907
 2225TIP3   OH228233   0.916   4.036   1.532 -0.0960 -0.2414 -0.6459
 2225TIP3    H128234   0.919   4.089   1.452  1.6329  1.5381  0.5162
 2225TIP3    H228235   1.004   3.998   1.539 -0.4830 -1.0474 -0.0238
 2226TIP3   OH228236   1.499   2.806   1.183 -0.6682 -0.2459 -0.0402
 2226TIP3    H128237   1.572   2.801   1.121 -1.0673 -0.3758 -0.5035
 2226TIP3    H228238   1.455   2.888   1.162  0.4513  0.8274  1.5025
 2227TIP3   OH228239   6.173   2.678   1.057 -0.2219  0.4784  0.1124
 2227TIP3    H128240   6.098   2.677   1.116 -1.5353  1.2623 -1.4846
 2227TIP3    H228241   6.248   2.662   1.114 -1.4404  1.1187  1.9783
 2228TIP3   OH228242   6.192   5.162   7.257 -0.3449  0.0105 -0.1459
 2228TIP3    H128243   6.103   5.194   7.274 -0.9870 -1.9364  0.3602
 2228TIP3    H228244   6.229   5.227   7.198 -2.0495  0.9432 -0.2707
 2229TIP3   OH228245   6.860   3.618   7.397 -0.1901 -0.4758  0.4797
 2229TIP3    H128246   6.832   3.612   7.305 -1.8352  1.1970  0.8016
 2229TIP3    H228247   6.915   3.697   7.399  0.1144 -0.6949  0.8987
 2230TIP3   OH228248   3.642   4.878   6.825 -0.1269  0.1976 -0.3700
 2230TIP3    H128249   3.548   4.881   6.809 -0.5277 -1.7790  1.1652
 2230TIP3    H228250   3.651   4.830   6.908  2.2188  0.5549 -0.3430
 2231TIP3   OH228251   1.204   2.548   7.727  0.1992 -0.5758 -0.1193
 2231TIP3    H128252   1.259   2.517   7.656 -0.4029 -0.2063 -0.7541
 2231TIP3    H228253   1.116   2.550   7.691 -0.0702 -0.0882  0.5371
 2232TIP3   OH228254   2.672   2.629   7.817  0.0439  0.0118 -0.0715
 2232TIP3    H128255   2.606   2.689   7.784  1.2246  1.8981  0.8347
 2232TIP3    H228256   2.711   2.674   7.892  1.2798 -1.7037  0.3923
 2233TIP3   OH228257   4.854   5.508   0.977  0.5797 -0.3470  0.1888
 2233TIP3    H128258   4.800   5.587   0.968  1.6984  0.2389 -1.9217
 2233TIP3    H228259   4.936   5.540   1.017  0.9082 -0.4881 -0.3658
 2234TIP3   OH228260   6.319   1.411   1.761  0.1109 -0.0978 -0.1390
 2234TIP3    H128261   6.255   1.451   1.702  0.0263 -1.4355 -0.9929
 2234TIP3    H228262   6.321   1.469   1.837 -0.5702  1.0851 -0.9922
 2235TIP3   OH228263   2.757   2.745   6.428  0.3860 -0.2360  0.4103
 2235TIP3    H128264   2.770   2.671   6.488 -0.2852 -1.7312 -1.1957
 2235TIP3    H228265   2.695   2.801   6.473 -1.7134 -2.3541  0.3526
 2236TIP3   OH228266   0.563   5.604   8.519 -0.1077 -0.0967  0.3123
 2236TIP3    H128267   0.601   5.647   8.443  0.6224 -0.2589  0.5723
 2236TIP3    H228268   0.471   5.630   8.518  0.1983  1.0572  0.1766
 2237TIP3   OH228269   0.385   1.294   1.150 -0.0211  0.2272 -0.3309
 2237TIP3    H128270   0.356   1.368   1.204  1.8540 -1.0264  2.6481
 2237TIP3    H228271   0.306   1.241   1.137 -0.8424  1.3963 -0.2392
 2238TIP3   OH228272   5.620   0.446   8.227 -0.1115  0.0811  0.2981
 2238TIP3    H128273   5.535   0.423   8.190  2.2339 -2.1696 -4.7447
 2238TIP3    H228274   5.626   0.396   8.308 -2.3759 -2.4089 -0.9065
 2239TIP3   OH228275   3.200   4.502   5.932 -0.0823  0.3070  0.9822
 2239TIP3    H128276   3.181   4.436   5.998 -0.2641 -0.3618  0.2711
 2239TIP3    H228277   3.215   4.582   5.982  0.4052 -0.3252  1.8752
 2240TIP3   OH228278   4.591   5.628   0.069  0.1127  0.5116 -0.5538
 2240TIP3    H128279   4.561   5.546   0.110  0.3749  0.9407  0.5403
 2240TIP3    H228280   4.675   5.646   0.112  0.7398  0.6209 -1.7986
 2241TIP3   OH228281   4.298   1.656   6.744 -0.2932 -0.2608  0.2369
 2241TIP3    H128282   4.289   1.568   6.782  0.0396  0.0285  1.0130
 2241TIP3    H228283   4.257   1.714   6.809 -0.5824  0.1522 -0.3076
 2242TIP3   OH228284   0.860   6.525   7.031  0.0906 -0.0127  0.4683
 2242TIP3    H128285   0.947   6.532   6.992  0.0409 -2.1085 -0.1553
 2242TIP3    H228286   0.846   6.610   7.074  1.2205  1.4542 -1.8420
 2243TIP3   OH228287   5.502   6.233   1.698 -0.1512 -0.2479  0.0782
 2243TIP3    H128288   5.409   6.227   1.718  0.4018 -1.6534  2.5826
 2243TIP3    H228289   5.513   6.185   1.616 -1.9948  2.5587 -2.0076
 2244TIP3   OH228290   0.228   3.645   3.151  0.4842 -0.1148  0.2053
 2244TIP3    H128291   0.286   3.721   3.161  1.6463 -0.7127 -1.7341
 2244TIP3    H228292   0.286   3.570   3.149 -0.3421 -0.7471 -1.5894
 2245TIP3   OH228293   5.668   3.544   1.746 -0.3137  0.0221 -0.5529
 2245TIP3    H128294   5.649   3.474   1.683  0.3197 -0.4931 -0.1860
 2245TIP3    H228295   5.674   3.623   1.693 -0.7035 -0.2571 -1.0212
 2246TIP3   OH228296   0.864   5.826   6.826  0.2187  0.0328  0.6318
 2246TIP3    H128297   0.802   5.807   6.755 -0.7540  0.2539  1.3984
 2246TIP3    H228298   0.941   5.860   6.782 -0.4697  0.4113 -0.3075
 2247TIP3   OH228299   2.073   5.610   0.203 -0.5397 -0.3901  0.0590
 2247TIP3    H128300   2.151   5.652   0.239 -1.1932 -0.8075  2.0701
 2247TIP3    H228301   2.085   5.614   0.108  2.5343 -1.5310  0.2798
 2248TIP3   OH228302   6.521   0.112   6.481 -0.5499  0.0552 -0.8327
 2248TIP3    H128303   6.465   0.189   6.493 -0.5481 -0.2913  2.3692
 2248TIP3    H228304   6.606   0.139   6.516  0.2738 -0.5681 -2.2805
 2249TIP3   OH228305   3.269   1.228   1.870 -0.4087  0.0377 -0.2821
 2249TIP3    H128306   3.231   1.181   1.796 -0.0835 -1.5363  0.5001
 2249TIP3    H228307   3.212   1.303   1.883 -0.4010  0.4183 -2.1919
 2250TIP3   OH228308   6.447   1.000   0.958 -0.0212  0.4690 -0.1264
 2250TIP3    H128309   6.517   1.061   0.981  0.9567  0.3216 -2.4355
 2250TIP3    H228310   6.474   0.963   0.874 -1.4872 -1.7737  0.2940
 2251TIP3   OH228311   3.731   6.513   1.235 -0.5096 -0.3392  0.8360
 2251TIP3    H128312   3.770   6.506   1.148 -1.3348  0.5161  0.3714
 2251TIP3    H228313   3.795   6.561   1.287 -0.2752 -0.3233  0.5321
 2252TIP3   OH228314   0.874   1.041   8.514  0.4895  0.5182  0.0964
 2252TIP3    H128315   0.946   1.092   8.477  0.6146 -0.8441 -1.6801
 2252TIP3    H228316   0.827   1.007   8.438 -0.4810 -0.7715  1.2198
 2253TIP3   OH228317   3.829   2.221   1.440 -0.0731 -0.0985 -0.4900
 2253TIP3    H128318   3.898   2.154   1.441 -0.1352 -0.1654 -0.6785
 2253TIP3    H228319   3.776   2.200   1.363 -1.1190 -0.8863  0.4116
 2254TIP3   OH228320   4.271   0.837   0.185 -0.0476  0.1302  0.6172
 2254TIP3    H128321   4.364   0.817   0.176  0.1553  0.9428  0.7643
 2254TIP3    H228322   4.227   0.754   0.172  0.5802  0.0631 -1.5575
 2255TIP3   OH228323   4.919   5.983   8.538 -0.3189 -0.6528 -0.1987
 2255TIP3    H128324   5.014   5.984   8.530 -0.0152  0.2650  2.4513
 2255TIP3    H228325   4.901   5.933   8.618 -2.1135 -1.1553 -0.8519
 2256TIP3   OH228326   0.243   5.152   1.325  0.4579  0.0406  0.0453
 2256TIP3    H128327   0.322   5.188   1.284 -0.7294  0.6873 -1.8306
 2256TIP3    H228328   0.253   5.058   1.315  0.5757  0.1503 -1.0856
 2257TIP3   OH228329   3.346   6.537   7.110 -0.4021 -0.3805  0.2280
 2257TIP3    H128330   3.424   6.481   7.105  0.9246  1.4467 -1.4232
 2257TIP3    H228331   3.272   6.476   7.109  0.9736 -2.1519  1.0831
 2258TIP3   OH228332   0.744   6.827   6.474 -0.0273  0.4446 -0.2335
 2258TIP3    H128333   0.663   6.867   6.508 -0.1475  0.4982 -0.5860
 2258TIP3    H228334   0.761   6.754   6.534  0.0622  0.8738  0.2780
 2259TIP3   OH228335   0.918   1.011   7.268  0.1098 -0.3888 -0.4768
 2259TIP3    H128336   0.825   1.019   7.287  0.3869 -0.0698  0.8147
 2259TIP3    H228337   0.930   0.920   7.241 -0.1490 -1.2247  2.0138
 2260TIP3   OH228338   0.314   2.726   8.222 -0.1336 -0.7830  0.0178
 2260TIP3    H128339   0.316   2.642   8.176  0.6181  0.6785 -2.9108
 2260TIP3    H228340   0.373   2.715   8.296  0.2673 -2.6968 -0.5263
 2261TIP3   OH228341   4.283   4.969   6.420  0.1249  0.0084  0.3836
 2261TIP3    H128342   4.240   4.982   6.335 -1.0122 -0.8546  0.8078
 2261TIP3    H228343   4.211   4.953   6.481  1.0551 -1.8853  1.0518
 2262TIP3   OH228344   2.571   4.501   1.703  0.2354 -0.4210 -0.1193
 2262TIP3    H128345   2.577   4.440   1.777  0.3213 -0.3132 -0.0383
 2262TIP3    H228346   2.658   4.503   1.665  0.3780  0.0900  0.2261
 2263TIP3   OH228347   2.653   4.322   1.879 -0.8018 -0.1614  0.4871
 2263TIP3    H128348   2.637   4.243   1.930 -0.2323 -0.0878  0.7958
 2263TIP3    H228349   2.708   4.376   1.936 -0.9653  0.3415  0.1749
 2264TIP3   OH228350   3.396   2.556   7.145 -0.1165  0.6949  0.2420
 2264TIP3    H128351   3.302   2.544   7.138 -0.0817  1.2695 -2.5687
 2264TIP3    H228352   3.429   2.471   7.176 -1.4180 -0.1845 -0.6574
 2265TIP3   OH228353   2.097   6.350   6.742 -0.0988 -0.1488 -0.1157
 2265TIP3    H128354   2.071   6.259   6.762 -1.1732 -0.1965 -1.5807
 2265TIP3    H228355   2.020   6.388   6.699  1.0123  0.8609 -1.2947
 2266TIP3   OH228356   4.580   2.703   8.605  0.5627  0.5347 -0.5816
 2266TIP3    H128357   4.521   2.709   8.680  1.3086  1.3024 -0.0511
 2266TIP3    H228358   4.566   2.614   8.571  2.5893 -1.1225  2.4795
 2267TIP3   OH228359   2.746   5.838   1.674 -0.1555  0.2778 -0.0409
 2267TIP3    H128360   2.744   5.934   1.679  1.9208  0.3824 -0.2576
 2267TIP3    H228361   2.692   5.817   1.598 -1.6513  1.1704  0.7425
 2268TIP3   OH228362   4.173   1.140   8.482 -0.2789 -0.3917 -0.9281
 2268TIP3    H128363   4.093   1.170   8.438 -0.2250 -0.6731 -1.2190
 2268TIP3    H228364   4.182   1.199   8.556 -1.1524 -0.7972 -0.4780
 2269TIP3   OH228365   1.685   1.802   8.249 -0.7311 -0.3213 -0.0499
 2269TIP3    H128366   1.638   1.789   8.167 -1.4572  0.5729  0.1967
 2269TIP3    H228367   1.738   1.880   8.234  0.0506 -0.8511 -0.0560
 2270TIP3   OH228368   2.764   2.013   6.633  0.3804  0.2085 -0.2542
 2270TIP3    H128369   2.809   2.084   6.588 -0.0913 -0.0684 -1.1999
 2270TIP3    H228370   2.789   2.023   6.724  1.8411  0.4374 -0.6506
 2271TIP3   OH228371   0.946   6.216   0.484 -0.1042  0.1673 -0.5196
 2271TIP3    H128372   0.939   6.121   0.476 -1.1973  0.2053 -0.1265
 2271TIP3    H228373   0.963   6.232   0.576 -0.1377  0.3590 -0.5458
 2272TIP3   OH228374   4.956   0.381   1.401  0.0675 -0.6071 -0.0814
 2272TIP3    H128375   4.877   0.341   1.366 -0.2171 -0.8425  0.8112
 2272TIP3    H228376   5.018   0.309   1.409  0.7588 -0.2604 -1.7475
 2273TIP3   OH228377   5.401   3.800   0.677  0.7800  0.0318  0.8609
 2273TIP3    H128378   5.464   3.870   0.693  0.5297  0.4829  0.0011
 2273TIP3    H228379   5.446   3.741   0.616  0.9404 -0.4927  1.4804
 2274TIP3   OH228380   5.200   3.895   0.493  0.7105  0.1768  0.6046
 2274TIP3    H128381   5.274   3.890   0.554  1.5343 -0.1940 -0.3906
 2274TIP3    H228382   5.143   3.823   0.519  2.2570 -1.5606 -0.5250
 2275TIP3   OH228383   6.351   2.396   6.810  0.3126  0.2461 -0.2298
 2275TIP3    H128384   6.261   2.375   6.834  0.2278  0.7975 -0.0550
 2275TIP3    H228385   6.351   2.398   6.714  0.1019  0.4050 -0.2262
 2276TIP3   OH228386   4.239   5.381   7.949 -0.6134  0.1849 -0.1811
 2276TIP3    H128387   4.286   5.464   7.948 -2.1097  1.0860 -1.8747
 2276TIP3    H228388   4.173   5.390   7.881 -0.6287 -2.5402 -0.6437
 2277TIP3   OH228389   0.259   4.470   7.870 -0.4445 -0.2435  0.3727
 2277TIP3    H128390   0.349   4.497   7.886 -0.7193  1.6264 -0.8350
 2277TIP3    H228391   0.265   4.398   7.808  0.2745  2.5181 -3.1321
 2278TIP3   OH228392   4.939   5.219   7.805 -0.0494  0.3996  0.0806
 2278TIP3    H128393   4.851   5.211   7.769  0.7435 -0.8616 -1.7349
 2278TIP3    H228394   4.985   5.140   7.776  1.5764  0.7958  1.3445
 2279TIP3   OH228395   2.459   1.037   0.587  0.0527  0.0419  0.0217
 2279TIP3    H128396   2.530   1.021   0.523  0.3415 -1.8743  0.7469
 2279TIP3    H228397   2.502   1.028   0.672 -0.8678 -0.1354  0.4734
 2280TIP3   OH228398   5.294   2.536   0.357 -0.2129  0.5092 -0.0220
 2280TIP3    H128399   5.246   2.619   0.362 -0.4806  0.3142  0.7248
 2280TIP3    H228400   5.344   2.532   0.438  0.1818  0.1627 -0.2782
 2281TIP3   OH228401   5.583   6.370   0.274 -0.4515 -0.6912 -0.3380
 2281TIP3    H128402   5.518   6.418   0.224  0.4081  0.5458 -0.3161
 2281TIP3    H228403   5.544   6.358   0.360 -0.2451  1.0088  0.0180
 2282TIP3   OH228404   0.019   6.354   2.039 -0.0411 -0.4403 -0.6041
 2282TIP3    H128405  -0.008   6.275   1.991 -2.6806  1.9026 -3.3469
 2282TIP3    H228406   0.064   6.408   1.974 -0.6500  1.4089  0.4367
 2283TIP3   OH228407   1.721   4.167   0.930 -0.0093  0.3747 -0.6876
 2283TIP3    H128408   1.734   4.260   0.910  3.0268  0.0417 -0.7135
 2283TIP3    H228409   1.721   4.123   0.845  0.9726  0.1312 -0.5689
 2284TIP3   OH228410   0.185   3.147   0.065  0.0036  0.0160  0.5327
 2284TIP3    H128411   0.136   3.219   0.025 -2.3406 -1.6283  0.2237
 2284TIP3    H228412   0.217   3.096  -0.009  2.5577  1.2109  0.7271
 2285TIP3   OH228413   3.628   6.852   7.347  0.2428  0.5155  0.2299
 2285TIP3    H128414   3.688   6.897   7.287 -1.1668  0.2807 -1.4631
 2285TIP3    H228415   3.604   6.917   7.412  1.1072  1.0621  0.0165
 2286TIP3   OH228416   4.576   3.114   6.909  0.0188 -0.1161  0.2534
 2286TIP3    H128417   4.645   3.049   6.924  1.7316  1.4901 -0.3193
 2286TIP3    H228418   4.558   3.108   6.816  1.6007  1.4899 -0.2132
 2287TIP3   OH228419   6.595   2.992   7.140  0.2317 -0.1036  0.1844
 2287TIP3    H128420   6.684   2.989   7.104  0.3608  0.1852  0.4761
 2287TIP3    H228421   6.582   2.906   7.179  0.3971 -0.1352  0.1699
 2288TIP3   OH228422   3.291   5.924   1.753 -0.6248  0.1669 -0.1635
 2288TIP3    H128423   3.355   5.930   1.683 -0.6036 -2.6421 -0.5094
 2288TIP3    H228424   3.340   5.948   1.833 -0.1656  1.5515 -0.8217
 2289TIP3   OH228425   3.924   0.517   1.650 -0.2057  0.3359  0.1592
 2289TIP3    H128426   3.899   0.427   1.670 -1.8872  0.6242 -0.4479
 2289TIP3    H228427   4.001   0.509   1.594 -1.6424 -0.8546 -1.7712
 2290TIP3   OH228428   4.792   6.241   0.510  0.0021 -0.0082  0.0905
 2290TIP3    H128429   4.805   6.310   0.576  0.6220 -0.9122  0.9474
 2290TIP3    H228430   4.822   6.279   0.428 -0.7890  1.1465  0.3092
 2291TIP3   OH228431   1.137   5.648   1.328  0.8856  0.5959 -0.2836
 2291TIP3    H128432   1.132   5.676   1.420  1.3169 -0.0762 -0.0391
 2291TIP3    H228433   1.116   5.726   1.277  0.6728  0.9862  0.3904
 2292TIP3   OH228434   3.648   4.473   8.103 -0.7168  0.3555  0.7798
 2292TIP3    H128435   3.559   4.478   8.138 -0.9458 -0.6031  0.3439
 2292TIP3    H228436   3.680   4.563   8.109 -2.3169  1.0908 -0.6423
 2293TIP3   OH228437   4.102   4.204   7.840  0.5665 -0.2026 -0.4389
 2293TIP3    H128438   4.037   4.191   7.770  0.1180 -0.8168  0.0841
 2293TIP3    H228439   4.051   4.237   7.914  0.8312 -0.8197  0.0179
 2294TIP3   OH228440   5.370   2.107   8.579  0.3202  0.2114  0.1307
 2294TIP3    H128441   5.351   2.196   8.609 -0.7334 -0.2534  0.9174
 2294TIP3    H228442   5.321   2.051   8.639  1.5309 -0.9441  0.0879
 2295TIP3   OH228443   2.368   3.903   7.889  0.1052 -0.3207  0.2685
 2295TIP3    H128444   2.410   3.982   7.855  0.3056 -0.5433 -0.0066
 2295TIP3    H228445   2.376   3.839   7.818  0.0902 -0.6383  0.5492
 2296TIP3   OH228446   5.786   5.021   0.050  0.1448  0.3594  0.2395
 2296TIP3    H128447   5.757   4.952  -0.010  2.9223 -0.7354  0.0301
 2296TIP3    H228448   5.725   5.016   0.124 -0.7650 -1.1182 -0.5671
 2297TIP3   OH228449   1.368   5.131   1.910 -0.1092 -0.0651  0.0974
 2297TIP3    H128450   1.383   5.070   1.983  0.0933  0.0225  0.1279
 2297TIP3    H228451   1.401   5.084   1.833 -2.1825 -1.0324 -0.2856
 2298TIP3   OH228452   0.234   5.337   0.616 -0.1029  0.0834  0.1083
 2298TIP3    H128453   0.205   5.246   0.618 -0.1521  0.1043  0.7081
 2298TIP3    H228454   0.154   5.388   0.633 -0.1740  0.2675 -0.7360
 2299TIP3   OH228455   2.222   2.720   7.436 -0.2520 -0.3470  0.0548
 2299TIP3    H128456   2.203   2.757   7.350  3.0563  0.5524 -0.4059
 2299TIP3    H228457   2.173   2.775   7.497 -3.2097 -1.4092 -1.1501
 2300TIP3   OH228458   1.812   6.084   7.039 -0.3823 -0.2023 -0.1943
 2300TIP3    H128459   1.890   6.070   6.987  0.6533  2.5009  0.4713
 2300TIP3    H228460   1.764   6.001   7.034  1.4271 -1.2067 -2.3968
 2301TIP3   OH228461   0.904   4.148   1.811  0.2541 -0.0924  0.4925
 2301TIP3    H128462   0.902   4.076   1.874 -0.7896  1.0503  1.8282
 2301TIP3    H228463   0.890   4.105   1.726  2.3236 -1.7457  0.8976
 2302TIP3   OH228464   4.485   4.905   6.850  0.6665 -0.7227 -0.0792
 2302TIP3    H128465   4.556   4.953   6.807  0.7691 -0.6718  0.1464
 2302TIP3    H228466   4.503   4.913   6.943 -0.7482  1.0736  0.1067
 2303TIP3   OH228467   6.136   0.138   0.989 -0.3815  0.0562 -0.3559
 2303TIP3    H128468   6.044   0.165   0.997 -0.0839  0.9407  0.2044
 2303TIP3    H228469   6.150   0.081   1.064 -0.8606 -1.2788 -1.2435
 2304TIP3   OH228470   4.344   4.642   8.147  0.7092 -0.6678  0.2449
 2304TIP3    H128471   4.289   4.647   8.069  0.9365 -0.1899  0.1139
 2304TIP3    H228472   4.399   4.720   8.144 -0.2400  0.0860  1.6143
 2305TIP3   OH228473   2.518   4.649   1.977 -0.3120  0.1739  0.0703
 2305TIP3    H128474   2.440   4.598   1.956 -0.1665  0.0234 -0.1168
 2305TIP3    H228475   2.583   4.584   2.002 -0.0502  0.2439 -0.4094
 2306TIP3   OH228476   1.232   0.730   8.587  0.1677  0.0146  0.4039
 2306TIP3    H128477   1.231   0.826   8.580 -0.2208 -0.0712 -1.1400
 2306TIP3    H228478   1.162   0.701   8.529  3.1396 -1.3506 -2.8660
 2307TIP3   OH228479   6.698   3.543   7.101  0.1216  0.5266 -0.4000
 2307TIP3    H128480   6.611   3.578   7.115 -0.5402 -0.8540 -0.9039
 2307TIP3    H228481   6.714   3.554   7.007 -0.4047 -1.0914 -0.7229
 2308TIP3   OH228482   5.472   0.105   7.087 -0.3767  0.3119 -0.4524
 2308TIP3    H128483   5.563   0.097   7.115  0.0326 -0.3583 -1.8788
 2308TIP3    H228484   5.470   0.184   7.033 -1.3407  2.0873  2.0085
 2309TIP3   OH228485   4.172   0.573   0.255 -0.5350 -0.3534 -0.2133
 2309TIP3    H128486   4.163   0.484   0.290  0.9500 -0.9533 -1.2579
 2309TIP3    H228487   4.220   0.562   0.173  1.5659  1.6077  0.6582
 2310TIP3   OH228488   1.660   1.043   0.507 -0.4598 -0.0756  0.5199
 2310TIP3    H128489   1.715   1.110   0.547  1.8228 -1.2453 -0.4756
 2310TIP3    H228490   1.611   1.088   0.438 -0.0929  0.8218  0.8443
 2311TIP3   OH228491   3.195   6.533   7.476  0.3439 -0.2390  0.1820
 2311TIP3    H128492   3.271   6.583   7.446 -0.2529  0.6186  0.0569
 2311TIP3    H228493   3.120   6.588   7.452 -0.2421 -0.3968  1.6005
 2312TIP3   OH228494   6.485   0.211   7.669  0.3087 -0.1425  0.1031
 2312TIP3    H128495   6.434   0.143   7.623 -0.3971  1.5817 -1.8230
 2312TIP3    H228496   6.561   0.225   7.613 -0.3780  1.7489 -0.4182
 2313TIP3   OH228497   4.601   3.186   0.379  0.3421 -1.1754 -0.0660
 2313TIP3    H128498   4.537   3.117   0.399  0.5331 -1.4884 -0.5299
 2313TIP3    H228499   4.664   3.144   0.320  0.6241 -0.6872 -0.1135
 2314TIP3   OH228500   3.568   5.365   0.673 -0.5924  0.5664  0.1980
 2314TIP3    H128501   3.531   5.449   0.648 -3.0462 -0.3481  0.4573
 2314TIP3    H228502   3.608   5.331   0.592  1.6028  2.4514  0.3912
 2315TIP3   OH228503   6.851   3.130   2.086 -0.0254 -0.2736 -1.0766
 2315TIP3    H128504   6.833   3.113   1.993  0.2782  1.5946 -1.5074
 2315TIP3    H228505   6.768   3.164   2.120  0.0179 -0.4608 -0.7829
 2316TIP3   OH228506   1.943   6.872   2.300 -0.5297 -0.3939 -0.2722
 2316TIP3    H128507   1.879   6.938   2.275 -1.6550 -0.5417  1.9683
 2316TIP3    H228508   1.933   6.803   2.235  0.0535  1.1768 -2.1540
 2317TIP3   OH228509   1.448   4.974   0.901 -0.0425 -0.4860  0.0143
 2317TIP3    H128510   1.395   5.028   0.960 -1.3740 -1.7825  0.0594
 2317TIP3    H228511   1.395   4.968   0.821  0.8950 -0.3026 -0.6355
 2318TIP3   OH228512   3.310   0.229   1.969 -0.6869 -0.1573  0.4787
 2318TIP3    H128513   3.214   0.235   1.965 -0.5963  2.8121  0.8739
 2318TIP3    H228514   3.328   0.135   1.956 -3.6701 -1.0157  1.5816
 2319TIP3   OH228515   5.353   0.319   1.038 -0.1353 -0.2291  0.5292
 2319TIP3    H128516   5.305   0.401   1.053  1.4905  0.6951  0.9454
 2319TIP3    H228517   5.285   0.253   1.025 -1.4998  1.0305  1.0198
 2320TIP3   OH228518   4.924   1.618   8.214  0.2550 -0.3360 -0.0282
 2320TIP3    H128519   5.004   1.569   8.194 -0.5959 -2.2360  0.9255
 2320TIP3    H228520   4.862   1.551   8.242 -2.0880  0.9052 -1.8918
 2321TIP3   OH228521   5.786   2.739   8.365 -0.4208 -0.4351  0.2950
 2321TIP3    H128522   5.855   2.687   8.324 -1.7358 -1.8487 -0.1798
 2321TIP3    H228523   5.783   2.820   8.313  1.2114 -0.1011  0.6574
 2322TIP3   OH228524   1.717   2.375   0.029 -0.2473 -0.5093  0.3563
 2322TIP3    H128525   1.736   2.288  -0.007  0.1262 -0.7246  1.0580
 2322TIP3    H228526   1.642   2.406  -0.022  0.6962 -0.5013 -1.1030
 2323TIP3   OH228527   3.986   1.045   1.086 -0.2570 -0.1188  0.4823
 2323TIP3    H128528   3.930   1.015   1.157 -1.1846  0.3126 -0.0371
 2323TIP3    H228529   3.948   1.005   1.007  0.3835 -0.1081  0.1617
 2324TIP3   OH228530   6.537   0.033   1.623  0.0680 -0.3523  0.1175
 2324TIP3    H128531   6.626   0.065   1.609  0.2138 -1.3993 -1.6432
 2324TIP3    H228532   6.493   0.104   1.671  1.5030  0.7065 -0.0778
 2325TIP3   OH228533   2.403   5.034   8.163  0.4159  0.4984 -0.8731
 2325TIP3    H128534   2.364   4.952   8.194 -0.3332  1.2186  0.1536
 2325TIP3    H228535   2.439   5.013   8.077 -1.9077 -0.3208 -1.7090
 2326TIP3   OH228536   0.908   5.865   1.635 -0.2187  0.1947 -0.2804
 2326TIP3    H128537   0.886   5.772   1.638  1.7159 -0.2759  0.8926
 2326TIP3    H228538   0.892   5.896   1.724  3.1830 -0.0968  0.5555
 2327TIP3   OH228539   6.070   2.280   1.038 -0.0324 -0.3681  0.0516
 2327TIP3    H128540   6.082   2.336   1.114 -0.3822 -1.5370  0.9963
 2327TIP3    H228541   6.037   2.339   0.970 -1.4941  0.3916  1.3468
 2328TIP3   OH228542   5.541   0.324   6.928  0.0993 -0.1141 -0.2014
 2328TIP3    H128543   5.515   0.400   6.979  1.1010 -0.6703  1.1997
 2328TIP3    H228544   5.522   0.348   6.837  1.2515  2.1791  0.1038
 2329TIP3   OH228545   0.517   5.264   6.493 -0.1804 -0.3234  0.0797
 2329TIP3    H128546   0.577   5.307   6.432 -0.4918  0.3511  0.2417
 2329TIP3    H228547   0.556   5.278   6.579 -0.1602 -0.5748  0.1130
 2330TIP3   OH228548   1.091   0.307   2.199 -0.2020 -0.2337  0.7769
 2330TIP3    H128549   1.101   0.382   2.140  0.1974 -0.5883  0.3926
 2330TIP3    H228550   1.012   0.262   2.168 -0.8503  0.4161  1.4452
 2331TIP3   OH228551   3.804   5.760   6.281  0.0265  0.0952  0.0507
 2331TIP3    H128552   3.732   5.704   6.307 -0.4246  1.3440  1.7033
 2331TIP3    H228553   3.883   5.715   6.313 -0.3523  0.5038  1.6469
 2332TIP3   OH228554   2.382   1.942   1.373 -0.0376 -0.1688 -0.0794
 2332TIP3    H128555   2.310   1.926   1.313 -0.0492 -1.6727  0.3015
 2332TIP3    H228556   2.458   1.902   1.332  0.3115  0.2493  0.1427
 2333TIP3   OH228557   1.067   4.476   1.410 -0.2018  0.0423 -0.4747
 2333TIP3    H128558   1.005   4.409   1.383  0.4070  0.1006 -2.1598
 2333TIP3    H228559   1.103   4.510   1.328  0.3610  1.6218  0.3695
 2334TIP3   OH228560   2.476   4.770   1.632  0.5832  0.3286 -0.0331
 2334TIP3    H128561   2.540   4.704   1.659 -0.2343  0.2807  1.9276
 2334TIP3    H228562   2.459   4.750   1.540  2.1363 -0.6737 -0.1468
 2335TIP3   OH228563   5.711   3.646   0.127 -0.3398 -0.6241  0.1252
 2335TIP3    H128564   5.703   3.741   0.114  0.1111 -0.5176  0.6206
 2335TIP3    H228565   5.625   3.612   0.100 -0.3739 -0.1214 -0.4307
 2336TIP3   OH228566   3.820   1.345   0.530  0.5069  0.1793 -0.0387
 2336TIP3    H128567   3.908   1.344   0.490  0.4022 -0.4823 -0.2636
 2336TIP3    H228568   3.779   1.424   0.494  0.4701 -0.3208 -1.1450
 2337TIP3   OH228569   1.094   0.736   1.600 -0.4094 -0.5597  0.0647
 2337TIP3    H128570   1.096   0.663   1.662  1.0414 -0.3705  0.2733
 2337TIP3    H228571   1.037   0.800   1.642 -0.4209 -0.9310  0.6365
 2338TIP3   OH228572   5.192   4.201   6.484  0.0088 -0.3370 -0.2775
 2338TIP3    H128573   5.152   4.246   6.410 -1.7209  0.9370  1.3258
 2338TIP3    H228574   5.128   4.134   6.509  0.3345 -0.4308  0.3277
 2339TIP3   OH228575   5.523   2.005   1.401 -0.7509 -0.1589 -0.0446
 2339TIP3    H128576   5.530   1.938   1.469  0.0758  0.4061  0.4532
 2339TIP3    H228577   5.611   2.011   1.364 -1.1196 -0.2366 -0.9588
 2340TIP3   OH228578   4.099   4.950   8.336  0.4052  0.0503  0.2875
 2340TIP3    H128579   4.166   4.947   8.405  0.3674  1.8615  0.4617
 2340TIP3    H228580   4.123   5.026   8.284 -0.8934  0.0673 -0.3198
 2341TIP3   OH228581   1.767   0.407   8.346 -0.4167  0.2450 -0.4079
 2341TIP3    H128582   1.733   0.497   8.340  0.5547  0.5607 -1.4928
 2341TIP3    H228583   1.693   0.352   8.320 -1.3581  0.6354  1.3103
 2342TIP3   OH228584   4.068   0.064   8.049 -0.5096 -0.0696  0.2138
 2342TIP3    H128585   4.047   0.145   8.095 -2.0476  1.0999 -2.3011
 2342TIP3    H228586   4.155   0.040   8.081 -0.6577  1.6918  2.1727
 2343TIP3   OH228587   1.070   6.047   6.588  0.3373  0.2214 -0.0912
 2343TIP3    H128588   1.124   5.991   6.644  0.0270 -0.2428 -0.2541
 2343TIP3    H228589   1.019   6.100   6.649 -0.5571 -0.8160  0.0799
 2344TIP3   OH228590   2.700   4.887   1.920  0.5713 -0.2434 -0.0774
 2344TIP3    H128591   2.709   4.961   1.980 -1.9201  0.8670 -0.9595
 2344TIP3    H228592   2.621   4.842   1.949  1.4557 -1.9989 -0.2172
 2345TIP3   OH228593   6.493   1.174   8.471  0.0757  0.1228 -0.3438
 2345TIP3    H128594   6.539   1.102   8.515 -1.0860 -0.6802 -0.3873
 2345TIP3    H228595   6.475   1.237   8.540  0.1429 -0.1395 -0.0829
 2346TIP3   OH228596   3.207   3.298   1.308 -0.7921  0.2676 -0.1461
 2346TIP3    H128597   3.176   3.323   1.222  0.3975 -0.6238 -0.8737
 2346TIP3    H228598   3.294   3.337   1.315  0.0028 -1.3648 -0.2480
 2347TIP3   OH228599   4.726   3.198   1.005  0.3769  0.4616  0.3092
 2347TIP3    H128600   4.645   3.225   0.962  0.1222  1.2358  1.2219
 2347TIP3    H228601   4.728   3.250   1.086  1.1972 -0.4101  0.8655
 2348TIP3   OH228602   0.628   0.054   7.866 -0.1017 -0.2231  0.1506
 2348TIP3    H128603   0.653   0.038   7.957  1.3682 -0.7307 -0.3052
 2348TIP3    H228604   0.706   0.030   7.816 -0.9829 -0.2207 -1.2673
 2349TIP3   OH228605   3.900   4.555   6.172  0.2172  0.3490 -0.1810
 2349TIP3    H128606   3.966   4.618   6.201 -0.8769  0.3372  2.6445
 2349TIP3    H228607   3.841   4.605   6.116  0.8601  1.1276 -0.1804
 2350TIP3   OH228608   0.248   5.681   8.302 -0.0230  0.4952 -0.2103
 2350TIP3    H128609   0.242   5.591   8.267 -0.6939  0.4143  0.0990
 2350TIP3    H228610   0.342   5.699   8.304  0.0548  0.4405 -1.9020
 2351TIP3   OH228611   0.732   4.123   0.123  0.7906 -0.1616  0.5875
 2351TIP3    H128612   0.785   4.073   0.186  0.4299  0.8478  1.7206
 2351TIP3    H228613   0.669   4.170   0.177 -0.4100 -0.2960 -0.6438
 2352TIP3   OH228614   0.256   2.985   8.491  1.0184 -0.4936 -0.0343
 2352TIP3    H128615   0.341   2.941   8.490  1.3079  0.0420 -1.2327
 2352TIP3    H228616   0.250   3.026   8.404  0.3771  1.0764  0.7182
 2353TIP3   OH228617   5.248   3.783   1.492 -0.1471 -0.2738 -0.1667
 2353TIP3    H128618   5.172   3.840   1.487 -1.1097 -1.3829  1.0890
 2353TIP3    H228619   5.292   3.810   1.573 -0.2084 -0.8366  0.0538
 2354TIP3   OH228620   1.530   5.108   8.058 -0.5644 -0.2559 -0.1182
 2354TIP3    H128621   1.482   5.080   8.136 -2.1043  0.6170 -0.6937
 2354TIP3    H228622   1.548   5.027   8.011  1.6632 -0.9674  1.7679
 2355TIP3   OH228623   0.979   0.081   8.008  0.2499 -0.4823  0.4300
 2355TIP3    H128624   1.064   0.112   7.977  0.5682 -1.1294  0.6557
 2355TIP3    H228625   0.934   0.052   7.928 -0.5462  1.6660  0.0244
 2356TIP3   OH228626   2.617   2.905   1.423 -0.3317 -0.0873 -0.0740
 2356TIP3    H128627   2.691   2.885   1.366 -0.1311  2.6492 -0.9563
 2356TIP3    H228628   2.541   2.866   1.379  0.2933 -1.1236 -0.2623
 2357TIP3   OH228629   3.274   1.892   0.290  0.1404 -0.3283 -0.4149
 2357TIP3    H128630   3.296   1.959   0.355  0.5814 -0.9540  0.0919
 2357TIP3    H228631   3.315   1.812   0.323 -1.9859 -1.3036  0.0081
 2358TIP3   OH228632   6.478   3.510   8.143  0.0371  0.1558 -0.3399
 2358TIP3    H128633   6.392   3.522   8.184 -0.8668 -0.6805 -1.8778
 2358TIP3    H228634   6.458   3.495   8.050  1.8567 -0.0445 -0.7399
 2359TIP3   OH228635   2.871   2.824   7.502 -0.0603 -0.2530 -0.6681
 2359TIP3    H128636   2.924   2.884   7.449  0.0985 -0.5551 -0.8499
 2359TIP3    H228637   2.928   2.800   7.575 -0.1694 -0.0847 -0.5254
 2360TIP3   OH228638   4.577   4.642   7.840 -0.3162  0.4439  0.0798
 2360TIP3    H128639   4.522   4.708   7.880 -2.9659 -1.5308  0.0052
 2360TIP3    H228640   4.580   4.570   7.903 -1.1498 -1.0656 -1.4858
 2361TIP3   OH228641   6.712   1.248   6.894  0.0572  1.1056 -0.3684
 2361TIP3    H128642   6.644   1.263   6.959  0.5383 -0.1688  0.4580
 2361TIP3    H228643   6.686   1.167   6.850  0.5111  1.1554 -0.7364
 2362TIP3   OH228644   1.869   4.392   8.375 -0.4805  0.6318  0.2899
 2362TIP3    H128645   1.776   4.392   8.396 -0.6315 -0.1870 -0.3735
 2362TIP3    H228646   1.896   4.301   8.383  0.0971  0.7451 -0.2873
 2363TIP3   OH228647   6.866   4.217   2.482 -0.0682  0.2667  0.0071
 2363TIP3    H128648   6.875   4.308   2.508 -0.8650  0.2594  0.3579
 2363TIP3    H228649   6.887   4.216   2.389  0.5810  0.6914  0.1487
 2364TIP3   OH228650   2.558   2.190   7.415 -0.4105 -0.0527  0.5184
 2364TIP3    H128651   2.480   2.169   7.467 -0.4663 -1.8801 -0.2233
 2364TIP3    H228652   2.523   2.224   7.332 -0.3244  2.5462  1.4570
 2365TIP3   OH228653   5.722   0.045   2.116 -0.0533 -0.6717 -0.0976
 2365TIP3    H128654   5.708  -0.049   2.112 -2.5514 -0.3336 -1.0268
 2365TIP3    H228655   5.640   0.081   2.149  0.8670  1.1999  0.3489
 2366TIP3   OH228656   5.112   1.457   8.203  0.0997 -0.0643 -0.1137
 2366TIP3    H128657   5.201   1.474   8.175 -0.1760 -0.3471 -1.2008
 2366TIP3    H228658   5.121   1.417   8.290  0.9994  0.1687 -0.0895
 2367TIP3   OH228659   1.057   6.373   8.507 -0.3355  0.2347  0.0186
 2367TIP3    H128660   0.977   6.424   8.498 -0.2707  0.6006  1.3126
 2367TIP3    H228661   1.127   6.439   8.514 -0.0655 -0.0643  0.1435
 2368TIP3   OH228662   5.327   1.283   0.604  0.0477 -0.3006 -1.2828
 2368TIP3    H128663   5.418   1.308   0.589  0.0503  0.0451 -0.7151
 2368TIP3    H228664   5.304   1.325   0.687 -0.8821  0.2779 -1.8168
 2369TIP3   OH228665   4.097   0.388   0.471  0.7358 -0.3736 -0.1761
 2369TIP3    H128666   4.064   0.336   0.544 -1.9234  0.5883 -0.5884
 2369TIP3    H228667   4.024   0.443   0.445  1.0827 -1.5223 -4.3767
 2370TIP3   OH228668   4.833   4.844   0.499  0.0873 -0.4797 -0.3537
 2370TIP3    H128669   4.769   4.823   0.567  1.5155 -0.6848  0.9892
 2370TIP3    H228670   4.864   4.932   0.521  0.5691 -0.5487 -0.7313
 2371TIP3   OH228671   3.588   1.677   7.728  0.2107 -0.5954 -0.0551
 2371TIP3    H128672   3.511   1.699   7.675  1.5120 -2.6861 -3.1336
 2371TIP3    H228673   3.662   1.698   7.671  1.8306 -1.1083  1.7850
 2372TIP3   OH228674   1.608   3.716   8.476  0.3763  0.4524  0.5232
 2372TIP3    H128675   1.682   3.743   8.530  0.5612  0.2467  0.3742
 2372TIP3    H228676   1.646   3.693   8.392  0.1503  0.2893  0.4642
 2373TIP3   OH228677   0.142   6.424   1.793 -0.2458  0.2987  0.4720
 2373TIP3    H128678   0.048   6.406   1.798 -0.1707 -0.2075  0.1280
 2373TIP3    H228679   0.178   6.350   1.744  0.4029  0.2364  1.0226
 2374TIP3   OH228680   1.649   4.141   7.857 -0.1566 -0.8977  0.0155
 2374TIP3    H128681   1.605   4.134   7.772 -0.6797 -0.9623  0.2847
 2374TIP3    H228682   1.665   4.235   7.868 -2.2486 -0.5883  0.8961
 2375TIP3   OH228683   6.392   2.261   0.570 -0.4177 -0.2173 -0.2176
 2375TIP3    H128684   6.329   2.232   0.505  0.4519 -0.1276 -1.1237
 2375TIP3    H228685   6.461   2.194   0.568  1.7560  1.8531 -2.5331
 2376TIP3   OH228686   1.533   0.282   8.616 -0.2437 -1.0820  0.2656
 2376TIP3    H128687   1.623   0.309   8.638 -0.1964 -0.7524 -0.3252
 2376TIP3    H228688   1.524   0.195   8.656  0.4237 -1.2272  0.1105
 2377TIP3   OH228689   3.457   2.925   1.281 -0.1723  0.3337  0.1478
 2377TIP3    H128690   3.435   2.960   1.367 -0.6733  0.2287  0.0665
 2377TIP3    H228691   3.527   2.982   1.249 -2.0339  2.3424 -0.6763
 2378TIP3   OH228692   3.047   2.763   8.077 -0.1199  0.3084  0.7894
 2378TIP3    H128693   3.076   2.835   8.133  0.2014  0.7427  0.0776
 2378TIP3    H228694   2.986   2.713   8.132  0.4567  0.5175  1.6419
 2379TIP3   OH228695   2.845   2.447   1.832 -0.6938  0.1290 -0.0225
 2379TIP3    H128696   2.774   2.483   1.885 -0.7984 -3.4148  2.6445
 2379TIP3    H228697   2.915   2.429   1.895 -0.4156 -3.3828 -1.0964
 2380TIP3   OH228698   4.490   4.890   7.915  0.2259  0.5334 -0.1742
 2380TIP3    H128699   4.479   4.971   7.966  1.3858  1.8333 -1.8703
 2380TIP3    H228700   4.445   4.907   7.833  0.3591 -0.6291 -0.5060
 2381TIP3   OH228701   2.877   4.585   2.576 -0.0092  0.2280  0.0896
 2381TIP3    H128702   2.811   4.655   2.581 -1.2093 -0.7823 -0.8472
 2381TIP3    H228703   2.833   4.508   2.611 -0.3397 -1.1227 -2.9218
 2382TIP3   OH228704   0.119   6.328   7.985 -0.6815 -0.2916  0.1031
 2382TIP3    H128705   0.173   6.298   7.911 -2.3189 -1.5051 -0.6769
 2382TIP3    H228706   0.071   6.403   7.950 -2.1430 -1.4225 -0.4374
 2383TIP3   OH228707   0.627   1.286   0.547 -0.2686 -0.9360  0.0285
 2383TIP3    H128708   0.589   1.200   0.560 -0.4034 -1.4917 -3.3758
 2383TIP3    H228709   0.717   1.270   0.517 -0.6931 -0.0223 -1.9150
 2384TIP3   OH228710   3.837   1.621   0.630  0.1247 -0.2556 -0.2947
 2384TIP3    H128711   3.789   1.690   0.677 -0.7932 -0.6297 -0.6594
 2384TIP3    H228712   3.831   1.647   0.538  1.6276  0.2954 -0.2686
 2385TIP3   OH228713   0.942   5.404   8.266 -0.0072 -0.0828 -0.4909
 2385TIP3    H128714   0.861   5.381   8.313  1.1234 -2.1870  0.5806
 2385TIP3    H228715   0.928   5.374   8.177 -0.2286 -0.9566 -0.1736
 2386TIP3   OH228716   4.437   5.375   0.137 -0.2372 -0.2061  0.1516
 2386TIP3    H128717   4.347   5.407   0.134 -0.2569 -0.1518  1.0001
 2386TIP3    H228718   4.430   5.281   0.120 -0.2518  0.0858 -1.6382
 2387TIP3   OH228719   4.916   1.516   0.100  0.3199  0.3946 -0.0918
 2387TIP3    H128720   4.956   1.430   0.081  0.3084  0.5123 -0.6550
 2387TIP3    H228721   4.871   1.503   0.183 -0.5657 -0.4444 -0.6870
 2388TIP3   OH228722   4.532   5.288   6.358 -0.5890  0.1742 -0.1982
 2388TIP3    H128723   4.608   5.257   6.309  0.5493  1.2339  0.8242
 2388TIP3    H228724   4.568   5.327   6.437 -2.1862  0.9869  0.1857
 2389TIP3   OH228725   0.079   1.061   1.520 -0.6692 -0.3734 -0.0282
 2389TIP3    H128726   0.145   1.128   1.503  0.5919 -1.0974  1.6817
 2389TIP3    H228727   0.016   1.102   1.579 -0.0630 -0.5563  0.7720
 2390TIP3   OH228728   1.365   0.603   1.242  0.0725 -0.1960  0.0279
 2390TIP3    H128729   1.357   0.538   1.312 -0.4222 -0.3195 -0.1424
 2390TIP3    H228730   1.338   0.557   1.163  0.5169 -0.0210 -0.2304
 2391TIP3   OH228731   3.833   3.833   8.591  0.5376  0.0936 -0.8756
 2391TIP3    H128732   3.909   3.880   8.625 -1.3993  1.2601  2.2570
 2391TIP3    H228733   3.839   3.745   8.629  0.8757 -0.2085 -1.5967
 2392TIP3   OH228734   4.480   5.972   6.950 -0.2380 -0.3892 -0.1581
 2392TIP3    H128735   4.537   5.943   7.022 -1.7136  0.3675  1.3810
 2392TIP3    H228736   4.535   5.965   6.872  2.1567  0.8346  1.2905
 2393TIP3   OH228737   0.035   6.812   6.535 -0.5899  0.0470 -0.0448
 2393TIP3    H128738   0.020   6.718   6.527  0.2450 -0.0308 -1.0070
 2393TIP3    H228739   0.128   6.819   6.560  0.1848  0.6357 -2.7635
 2394TIP3   OH228740   2.873   6.392   7.107 -0.6079 -0.3178  0.2459
 2394TIP3    H128741   2.885   6.423   7.197 -0.8288  0.4212  0.0218
 2394TIP3    H228742   2.780   6.405   7.090 -0.8262 -1.5874  0.3190
 2395TIP3   OH228743   3.544   0.256   7.257 -0.2013  0.0348  0.7179
 2395TIP3    H128744   3.574   0.345   7.236  2.2002 -0.6777  0.8098
 2395TIP3    H228745   3.452   0.255   7.231  0.0129  2.1898 -0.3741
 2396TIP3   OH228746   2.892   4.238   1.055 -0.5364  0.9451 -0.4818
 2396TIP3    H128747   2.860   4.167   1.111 -0.1891  0.3773 -0.9929
 2396TIP3    H228748   2.980   4.256   1.086 -0.3900  0.7160 -0.7667
 2397TIP3   OH228749   0.259   4.652   7.671  0.6150 -0.2454 -0.2934
 2397TIP3    H128750   0.251   4.747   7.683 -0.3545 -0.1918 -1.2282
 2397TIP3    H228751   0.258   4.617   7.760  1.1327  0.6188  0.0736
 2398TIP3   OH228752   5.777   2.134   6.340  0.1455 -0.6351 -0.4615
 2398TIP3    H128753   5.714   2.069   6.372 -0.8241  0.3363 -0.3417
 2398TIP3    H228754   5.862   2.090   6.348 -0.2708 -1.2253  1.4357
 2399TIP3   OH228755   1.082   0.465   0.299  0.1726 -0.1570  0.0053
 2399TIP3    H128756   1.023   0.455   0.224  0.4010  1.3252 -0.4013
 2399TIP3    H228757   1.023   0.483   0.373  0.0360  0.1542 -0.1748
 2400TIP3   OH228758   2.396   0.065   7.451 -0.1152 -0.6409 -0.2854
 2400TIP3    H128759   2.374   0.153   7.482 -0.4044 -0.2258 -1.5920
 2400TIP3    H228760   2.491   0.066   7.442 -0.2774  0.3917 -2.5805
 2401TIP3   OH228761   3.884   6.109   1.075  0.6445 -0.6155  0.2295
 2401TIP3    H128762   3.803   6.159   1.064 -0.3652 -2.5108 -1.6168
 2401TIP3    H228763   3.952   6.164   1.034  0.1821  0.6374  1.0891
 2402TIP3   OH228764   3.267   6.271   7.476 -0.2279 -0.0816 -0.0524
 2402TIP3    H128765   3.237   6.362   7.472  1.7190  0.6987  1.3159
 2402TIP3    H228766   3.189   6.220   7.496 -1.3139  1.3124 -0.5825
 2403TIP3   OH228767   3.460   1.801   1.115  0.8986  0.4886  0.6115
 2403TIP3    H128768   3.494   1.729   1.063 -1.7501  0.8624 -1.9106
 2403TIP3    H228769   3.389   1.762   1.167  0.9205  0.8779  0.9437
 2404TIP3   OH228770   2.922   5.016   7.977 -0.2706  0.1593 -0.1514
 2404TIP3    H128771   2.975   5.073   8.032 -0.6990  0.9543 -0.5483
 2404TIP3    H228772   2.922   5.058   7.891  0.0469 -0.8484 -0.6585
 2405TIP3   OH228773   4.060   2.950   6.839 -0.4693  0.1466  0.4388
 2405TIP3    H128774   4.141   2.911   6.873 -0.7027  0.4635  1.3703
 2405TIP3    H228775   3.993   2.883   6.854 -0.1081 -0.8356 -1.9002
 2406TIP3   OH228776   4.998   0.913   7.251  0.0048  0.1354 -0.0176
 2406TIP3    H128777   5.066   0.854   7.221  0.2019  0.2956  0.1109
 2406TIP3    H228778   4.932   0.912   7.181  0.1954  0.0756 -0.1966
 2407TIP3   OH228779   3.431   1.310   6.875 -0.2739 -0.2116  0.1618
 2407TIP3    H128780   3.400   1.291   6.786  0.1343  1.5134 -0.3923
 2407TIP3    H228781   3.398   1.237   6.928 -1.3432 -0.7870 -1.2258
 2408TIP3   OH228782   1.017   5.862   2.495  1.1457  0.5646 -0.0199
 2408TIP3    H128783   1.075   5.876   2.570  3.6825 -0.7317 -1.5879
 2408TIP3    H228784   0.962   5.788   2.520  2.0640  0.0547  0.5231
 2409TIP3   OH228785   6.357   6.719   0.109 -0.5145  0.0028 -0.5989
 2409TIP3    H128786   6.448   6.740   0.130 -0.5450 -1.4761  1.2813
 2409TIP3    H228787   6.352   6.728   0.014  1.7899 -0.5123 -0.8324
 2410TIP3   OH228788   4.252   3.945   1.773 -0.2294 -0.2622 -0.0679
 2410TIP3    H128789   4.222   3.991   1.852  0.5338 -1.6024  1.0650
 2410TIP3    H228790   4.347   3.957   1.773 -0.2286 -0.2148 -0.8434
 2411TIP3   OH228791   1.414   5.841   7.190  0.3621 -0.1437  0.0119
 2411TIP3    H128792   1.402   5.926   7.231  0.6843  1.0286 -2.1683
 2411TIP3    H228793   1.336   5.829   7.137 -0.4842 -2.0444  1.5527
 2412TIP3   OH228794   3.655   0.546   7.203  0.6116 -0.3725  0.6592
 2412TIP3    H128795   3.718   0.591   7.259  0.0101  0.1505  0.9254
 2412TIP3    H228796   3.606   0.616   7.160  0.5590 -0.7728  0.0504
 2413TIP3   OH228797   0.458   3.714   0.777  0.0816 -0.0402  0.3215
 2413TIP3    H128798   0.534   3.655   0.778  1.4196  1.5693 -0.8508
 2413TIP3    H228799   0.403   3.680   0.706  1.3579  0.6870 -1.0529
 2414TIP3   OH228800   1.032   5.661   1.858 -0.1184 -0.3255  0.2029
 2414TIP3    H128801   1.032   5.588   1.920 -1.2650  0.4539  1.1760
 2414TIP3    H228802   1.058   5.737   1.911 -1.9901  0.5189 -0.0023
 2415TIP3   OH228803   3.957   1.164   1.568  0.0141 -0.5867  0.3026
 2415TIP3    H128804   4.033   1.151   1.511 -0.8566  0.0209 -1.0489
 2415TIP3    H228805   3.987   1.226   1.634  1.2744 -1.8943  1.0109
 2416TIP3   OH228806   6.608   5.496   1.326 -0.1020 -0.1305 -0.4295
 2416TIP3    H128807   6.657   5.428   1.372 -1.7472 -0.7971  0.3963
 2416TIP3    H228808   6.669   5.528   1.259  0.7814 -2.3071 -0.7471
 2417TIP3   OH228809   3.253   4.255   8.133 -0.5525  0.5769  0.2760
 2417TIP3    H128810   3.228   4.226   8.045  1.1626 -0.4753  0.0901
 2417TIP3    H228811   3.197   4.204   8.192  0.1710 -0.7723 -0.1581
 2418TIP3   OH228812   6.620   2.232   7.409 -0.0788 -0.4336  0.2009
 2418TIP3    H128813   6.551   2.202   7.468 -0.0245 -2.0223 -0.4932
 2418TIP3    H228814   6.576   2.246   7.325  0.1202  0.3151  0.2192
 2419TIP3   OH228815   2.660   5.241   1.068  0.7424  0.1577  0.2209
 2419TIP3    H128816   2.730   5.274   1.013  1.0852  0.0028  0.5609
 2419TIP3    H228817   2.627   5.164   1.021 -0.3910  1.2383 -0.8201
 2420TIP3   OH228818   2.308   6.361   1.563 -0.1424 -0.0236  0.1784
 2420TIP3    H128819   2.338   6.298   1.628  1.1070 -0.3284 -0.6470
 2420TIP3    H228820   2.316   6.314   1.479 -1.4633  0.4391 -0.2278
 2421TIP3   OH228821   3.234   2.329   6.438 -0.1731 -0.1345  0.4927
 2421TIP3    H128822   3.215   2.246   6.394  0.6443 -0.8089  1.3666
 2421TIP3    H228823   3.185   2.394   6.388  0.5309 -0.8865 -1.2474
 2422TIP3   OH228824   4.117   1.543   0.588  0.6162 -0.0941  0.1197
 2422TIP3    H128825   4.036   1.586   0.615  1.3819  1.3871  0.1248
 2422TIP3    H228826   4.153   1.507   0.669  0.9576  0.9745  0.4509
 2423TIP3   OH228827   5.647   2.495   1.257  0.2113  0.2370 -0.0069
 2423TIP3    H128828   5.702   2.554   1.308 -1.9990 -0.1690  3.1564
 2423TIP3    H228829   5.666   2.408   1.292 -1.0183 -0.1388 -0.2312
 2424TIP3   OH228830   6.837   4.183   6.631  0.0007  0.1737 -0.1731
 2424TIP3    H128831   6.918   4.178   6.580 -0.4304  1.0186 -0.9698
 2424TIP3    H228832   6.864   4.165   6.721  0.6036 -2.5586 -0.8187
 2425TIP3   OH228833   2.352   4.433   1.476  0.0946 -0.4402  0.6355
 2425TIP3    H128834   2.346   4.389   1.392 -0.1562  0.4045  0.1922
 2425TIP3    H228835   2.443   4.464   1.482 -0.6608  2.5196 -0.9626
 2426TIP3   OH228836   5.278   0.987   0.671 -0.5800 -0.2454  0.1056
 2426TIP3    H128837   5.371   0.966   0.661 -0.4803 -0.4462  1.3755
 2426TIP3    H228838   5.270   1.077   0.639  0.1000 -0.1362  0.2380
 2427TIP3   OH228839   4.087   1.112   0.734  0.2529 -0.1975  0.1848
 2427TIP3    H128840   4.025   1.168   0.780 -0.2510 -0.0660 -0.6283
 2427TIP3    H228841   4.065   1.024   0.762  2.1118  0.0405  2.7637
 2428TIP3   OH228842   3.250   5.791   6.926  0.2577  0.0063  0.1766
 2428TIP3    H128843   3.193   5.860   6.892 -1.0870 -1.7797 -1.4142
 2428TIP3    H228844   3.214   5.771   7.013  0.1393  0.7011  0.2961
 2429TIP3   OH228845   2.870   1.346   6.627  0.1981 -0.6247  0.2736
 2429TIP3    H128846   2.871   1.358   6.532 -0.3724 -1.2705  0.1752
 2429TIP3    H228847   2.829   1.260   6.640  1.4943 -1.1641  1.0388
 2430TIP3   OH228848   1.107   2.632   6.290  0.4483 -0.6264 -0.5505
 2430TIP3    H128849   1.026   2.682   6.287 -0.3497 -1.7165  1.1610
 2430TIP3    H228850   1.093   2.568   6.360  2.6468 -1.0956 -0.4695
 2431TIP3   OH228851   5.011   1.985   0.621 -0.2280 -0.0383 -0.2177
 2431TIP3    H128852   5.101   1.955   0.623 -0.1801  0.1386  0.6553
 2431TIP3    H228853   4.961   1.911   0.587 -0.1976 -1.3895  2.4404
 2432TIP3   OH228854   0.379   1.553   7.394  0.7036 -0.4555  0.2414
 2432TIP3    H128855   0.318   1.533   7.323  0.3734 -1.4276  0.7875
 2432TIP3    H228856   0.433   1.624   7.359  0.2091 -0.5629 -0.7859
 2433TIP3   OH228857   3.202   5.779   6.609  0.1331  0.5211  0.3305
 2433TIP3    H128858   3.118   5.824   6.598  0.0776  0.2783 -0.2888
 2433TIP3    H228859   3.180   5.697   6.653 -0.1872 -0.2558 -1.2052
 2434TIP3   OH228860   5.358   2.905   7.460 -0.1836 -0.3087  0.7307
 2434TIP3    H128861   5.313   2.821   7.458 -1.1885  0.2294  0.2621
 2434TIP3    H228862   5.309   2.957   7.523 -0.7532  0.5756 -0.4243
 2435TIP3   OH228863   4.949   4.405   1.056 -0.0288  0.6403 -0.2511
 2435TIP3    H128864   4.965   4.312   1.040 -1.1260  0.2788  0.6302
 2435TIP3    H228865   4.854   4.414   1.052 -0.0077  1.4894  0.8836
 2436TIP3   OH228866   1.062   6.541   0.463 -0.2117  0.2665 -0.3338
 2436TIP3    H128867   1.134   6.492   0.503  0.9176  1.9727 -0.1449
 2436TIP3    H228868   1.038   6.489   0.386 -0.1581 -1.3495  0.6914
 2437TIP3   OH228869   6.524   0.339   7.916  0.1232  0.1573  0.2773
 2437TIP3    H128870   6.606   0.381   7.887 -1.8967  3.6337 -1.0831
 2437TIP3    H228871   6.501   0.281   7.844  0.2943  0.8922 -0.3870
 2438TIP3   OH228872   3.403   3.690   1.957  0.3015  0.4239  0.1029
 2438TIP3    H128873   3.311   3.714   1.946 -0.4871 -2.0494  0.6820
 2438TIP3    H228874   3.449   3.774   1.962 -1.8738  1.7340 -0.3730
 2439TIP3   OH228875   4.194   5.314   8.230  0.3226  0.8048  0.6281
 2439TIP3    H128876   4.107   5.347   8.254  0.2294  1.2234 -0.2259
 2439TIP3    H228877   4.198   5.325   8.135  1.5757  1.4528  0.7333
 2440TIP3   OH228878   2.272   4.166   0.059 -0.2413  0.1712 -0.0850
 2440TIP3    H128879   2.187   4.202   0.031 -0.3648  0.3196  0.4717
 2440TIP3    H228880   2.316   4.144  -0.023  0.2033  2.3861 -0.5121
 2441TIP3   OH228881   4.190   4.003   7.104  0.0443 -0.3378 -0.4070
 2441TIP3    H128882   4.202   4.061   7.029 -3.3262  0.5935 -0.3912
 2441TIP3    H228883   4.154   3.923   7.066 -1.4404  0.0482  0.1263
 2442TIP3   OH228884   5.704   6.635   7.026 -0.4599 -0.2657 -0.3009
 2442TIP3    H128885   5.773   6.572   7.006 -0.5943  0.3552 -3.3612
 2442TIP3    H228886   5.626   6.582   7.043 -0.0547 -0.9400 -0.5287
 2443TIP3   OH228887   0.901   0.378   0.901  0.2599  0.8085 -0.8159
 2443TIP3    H128888   0.960   0.305   0.922 -0.7507  0.0722 -0.4464
 2443TIP3    H228889   0.886   0.369   0.806  0.2920  0.6516 -0.8067
 2444TIP3   OH228890   4.727   0.129   0.856 -0.3887 -0.1717 -0.0366
 2444TIP3    H128891   4.701   0.204   0.803  0.9851 -0.7483 -1.6038
 2444TIP3    H228892   4.795   0.085   0.805  0.8857 -0.8839  2.1194
 2445TIP3   OH228893   1.433   0.812   7.776 -0.3621  0.2623  0.2329
 2445TIP3    H128894   1.418   0.764   7.857  0.0770 -0.6407 -0.2013
 2445TIP3    H228895   1.376   0.769   7.712 -2.7679  2.6439  0.5959
 2446TIP3   OH228896   2.201   3.548   0.824  0.1090  0.1783 -0.0987
 2446TIP3    H128897   2.193   3.455   0.805 -2.0049 -0.0256  1.3942
 2446TIP3    H228898   2.112   3.582   0.813  1.0972  2.3448 -2.0316
 2447TIP3   OH228899   3.205   2.079   6.336  0.0580  0.7170  0.1807
 2447TIP3    H128900   3.249   2.006   6.294 -0.1137  0.4466  0.4609
 2447TIP3    H228901   3.128   2.040   6.377  0.0524  1.0256  0.4717
 2448TIP3   OH228902   1.333   1.813   8.195 -0.0178 -0.5107 -0.3446
 2448TIP3    H128903   1.253   1.781   8.154  0.1544 -2.7067  0.8636
 2448TIP3    H228904   1.401   1.795   8.131 -0.3932  0.8694 -1.1581
 2449TIP3   OH228905   5.325   4.891   6.908 -0.2187 -0.4953  0.0245
 2449TIP3    H128906   5.412   4.929   6.922 -0.1554 -0.5379 -0.2432
 2449TIP3    H228907   5.342   4.809   6.861 -0.3235 -1.0481  0.9187
 2450TIP3   OH228908   5.763   1.999   7.330 -0.0464  0.3371  0.0153
 2450TIP3    H128909   5.845   1.962   7.298 -0.5167 -0.3808 -0.3831
 2450TIP3    H228910   5.738   1.942   7.403  1.0970  2.0426  1.8640
 2451TIP3   OH228911   6.137   0.662   0.525  0.2389  0.9889 -0.0687
 2451TIP3    H128912   6.123   0.643   0.433  0.8652  1.5054 -0.2751
 2451TIP3    H228913   6.083   0.598   0.571  1.5649 -0.7043 -0.7433
 2452TIP3   OH228914   4.961   6.026   1.685 -0.1467 -0.0549  0.3874
 2452TIP3    H128915   5.055   6.016   1.695  0.0233 -0.1744 -1.1502
 2452TIP3    H228916   4.925   5.939   1.706  0.2396 -0.4577 -0.5583
 2453TIP3   OH228917   2.196   1.367   7.737 -0.4177  0.4093 -0.3676
 2453TIP3    H128918   2.181   1.460   7.753 -1.2274  0.1203  0.7026
 2453TIP3    H228919   2.119   1.324   7.776  0.2960 -0.7498 -0.2040
 2454TIP3   OH228920   2.671   0.783   0.438 -0.2859 -0.5345  0.5206
 2454TIP3    H128921   2.676   0.733   0.356 -0.1018 -0.2036  0.3247
 2454TIP3    H228922   2.743   0.749   0.491  1.8544  1.5796 -0.8013
 2455TIP3   OH228923   6.273   4.726   1.368 -0.1886  1.0855  0.4431
 2455TIP3    H128924   6.266   4.821   1.376  2.0349  1.1926  2.4712
 2455TIP3    H228925   6.358   4.705   1.408 -0.6779 -1.7805  0.2154
 2456TIP3   OH228926   4.935   6.231   0.049 -0.1091 -0.6872 -0.1491
 2456TIP3    H128927   4.952   6.143   0.015 -2.5372 -2.8064  3.4467
 2456TIP3    H228928   4.841   6.244   0.037  0.2264  1.5948 -0.7828
 2457TIP3   OH228929   2.334   1.676   6.401  0.2020  0.2160 -0.0923
 2457TIP3    H128930   2.263   1.723   6.443  0.0086  1.9266 -2.1715
 2457TIP3    H228931   2.413   1.707   6.445 -0.1782 -0.8024  1.4125
 2458TIP3   OH228932   2.657   2.735   0.710  0.8252 -0.7983  0.6628
 2458TIP3    H128933   2.726   2.768   0.653 -0.9039  0.3094 -0.9105
 2458TIP3    H228934   2.674   2.641   0.718  1.3851 -0.9001 -1.3382
 2459TIP3   OH228935   1.210   5.314   8.402 -0.0435  0.4329 -0.0084
 2459TIP3    H128936   1.123   5.339   8.369 -0.0215 -0.2436 -0.5968
 2459TIP3    H228937   1.206   5.334   8.496 -0.0140  2.6659 -0.4332
 2460TIP3   OH228938   6.329   6.169   6.969  0.3046 -0.4526 -0.2489
 2460TIP3    H128939   6.349   6.187   7.061 -0.7120  0.4909 -0.1827
 2460TIP3    H228940   6.377   6.237   6.921 -0.7358  0.2881 -0.2614
 2461TIP3   OH228941   5.569   4.342   1.551  0.6043 -0.1281 -0.3419
 2461TIP3    H128942   5.474   4.355   1.546  0.4862 -0.5226  0.6710
 2461TIP3    H228943   5.593   4.309   1.464  0.1158  1.7229 -1.2321
 2462TIP3   OH228944   1.720   1.809   7.125 -0.0277  0.2477  0.7861
 2462TIP3    H128945   1.693   1.846   7.041 -0.9720 -1.6284  0.2049
 2462TIP3    H228946   1.783   1.873   7.160  2.6071 -0.1739 -2.6098
 2463TIP3   OH228947   0.187   1.011   0.581 -0.6887  0.3781  0.2112
 2463TIP3    H128948   0.158   0.936   0.529  0.2287  0.3236 -0.2567
 2463TIP3    H228949   0.198   0.977   0.669  0.9229 -0.3961 -0.2340
 2464TIP3   OH228950   1.845   4.688   1.098 -0.1670 -0.1275  0.4725
 2464TIP3    H128951   1.758   4.694   1.138  0.1615  2.7239  0.9345
 2464TIP3    H228952   1.906   4.694   1.172  0.5138 -2.3111  0.1781
 2465TIP3   OH228953   6.754   6.419   1.758 -0.1364  0.9048  0.0574
 2465TIP3    H128954   6.783   6.505   1.726 -1.4868  1.2857 -0.2331
 2465TIP3    H228955   6.763   6.362   1.682  0.3462  0.8856  0.1249
 2466TIP3   OH228956   2.015   0.815   0.686  0.0048 -0.1207  0.0843
 2466TIP3    H128957   2.018   0.888   0.748  1.2378  1.5998 -1.8453
 2466TIP3    H228958   2.104   0.810   0.651 -0.1470 -2.3741 -0.0996
 2467TIP3   OH228959   1.545   6.769   1.614  0.5992 -0.3234  0.0874
 2467TIP3    H128960   1.470   6.799   1.665  0.5763 -1.6469  0.8803
 2467TIP3    H228961   1.594   6.849   1.594  0.2429  0.3111  1.6107
 2468TIP3   OH228962   0.701   5.385   8.388 -0.5398 -0.0937  0.1343
 2468TIP3    H128963   0.699   5.464   8.442  1.4185 -0.1349  0.3561
 2468TIP3    H228964   0.676   5.314   8.447  1.9375 -0.1928  1.1895
 2469TIP3   OH228965   3.173   1.154   6.778  0.4338 -0.0490 -0.0132
 2469TIP3    H128966   3.092   1.116   6.744 -0.2199  1.4056 -0.1929
 2469TIP3    H228967   3.156   1.248   6.779  1.6010  0.1894  1.3261
 2470TIP3   OH228968   4.531   0.048   1.749 -0.3205 -1.1041 -0.2533
 2470TIP3    H128969   4.615   0.057   1.794 -0.4655 -1.3135  0.0592
 2470TIP3    H228970   4.471   0.015   1.816 -0.7404 -0.6115 -0.3764
 2471TIP3   OH228971   2.081   4.256   0.939 -0.3944 -0.0325  0.2160
 2471TIP3    H128972   2.040   4.202   1.007 -0.6004 -0.1606 -0.0105
 2471TIP3    H228973   2.112   4.334   0.986  0.9784 -0.8638  0.7653
 2472TIP3   OH228974   1.529   4.636   0.539  0.5537 -0.0640 -0.2246
 2472TIP3    H128975   1.588   4.710   0.552 -1.7298  1.6711  1.0284
 2472TIP3    H228976   1.558   4.571   0.604  1.0685  0.7741  0.4017
 2473TIP3   OH228977   4.114   4.335   2.236 -0.2458 -0.0122  0.1225
 2473TIP3    H128978   4.082   4.289   2.313  0.2423  1.3354  1.1748
 2473TIP3    H228979   4.042   4.331   2.173 -0.6719 -1.0664  0.6619
 2474TIP3   OH228980   0.941   6.857   6.864 -0.0323 -0.3172  0.3607
 2474TIP3    H128981   1.032   6.828   6.864  0.4053  0.9994  0.5872
 2474TIP3    H228982   0.907   6.827   6.780  1.4661  1.6525 -1.0598
 2475TIP3   OH228983   1.728   2.406   0.559  0.1050 -0.7084  0.1576
 2475TIP3    H128984   1.750   2.321   0.523 -0.6258 -0.9751  0.3191
 2475TIP3    H228985   1.659   2.439   0.501 -0.2145 -0.6051  0.5939
 2476TIP3   OH228986   2.763   3.451   8.580 -0.3951  0.0929  0.6888
 2476TIP3    H128987   2.719   3.528   8.543 -2.8764 -1.0589  1.0680
 2476TIP3    H228988   2.696   3.384   8.582  1.4839 -1.8680  1.1784
 2477TIP3   OH228989   5.107   0.264   7.509 -0.0238 -1.2024  0.1094
 2477TIP3    H128990   5.116   0.330   7.440 -0.3749  0.9965  2.0186
 2477TIP3    H228991   5.100   0.181   7.463  1.3042 -0.0231 -2.4197
 2478TIP3   OH228992   0.090   2.339   1.399 -0.0391 -0.2579  0.1268
 2478TIP3    H128993   0.148   2.410   1.428 -1.0372  1.0826 -1.0196
 2478TIP3    H228994   0.038   2.319   1.477  2.1968 -1.8375  1.3309
 2479TIP3   OH228995   6.843   0.455   6.997  0.0664  0.0909 -0.1314
 2479TIP3    H128996   6.796   0.460   6.914 -1.0164  0.0969  0.4776
 2479TIP3    H228997   6.807   0.377   7.040  1.5970 -0.7280 -0.2438
 2480TIP3   OH228998   2.132   2.877   1.431 -0.0351  0.1548 -0.3367
 2480TIP3    H128999   2.169   2.934   1.498 -0.1945 -0.8689  0.6561
 2480TIP3    H229000   2.041   2.864   1.457  0.4804 -2.1198  0.6195
 2481TIP3   OH229001   2.720   2.904   0.312  0.2018 -0.1829  0.3420
 2481TIP3    H129002   2.748   2.829   0.364  3.1718  0.8121  0.3428
 2481TIP3    H229003   2.801   2.951   0.292 -1.3165  1.8155 -1.5490
 2482TIP3   OH229004   4.564   1.544   1.028  0.7810 -0.9034  0.5170
 2482TIP3    H129005   4.554   1.612   0.962  1.0627 -1.8971 -0.5814
 2482TIP3    H229006   4.481   1.543   1.075  0.4126 -0.4783 -0.1160
 2483TIP3   OH229007   1.216   0.261   1.787 -0.4762 -0.6201  0.3308
 2483TIP3    H129008   1.311   0.267   1.795 -0.2204 -1.6324 -1.4846
 2483TIP3    H229009   1.183   0.321   1.854  1.4281  0.8641  0.0301
 2484TIP3   OH229010   0.627   1.930   6.924 -0.4279 -0.3042  0.5055
 2484TIP3    H129011   0.580   1.851   6.899 -3.4558  1.3302  0.5405
 2484TIP3    H229012   0.660   1.912   7.012 -0.2274 -1.8370  0.1333
 2485TIP3   OH229013   2.845   1.738   2.063  0.0962  0.0413  0.6249
 2485TIP3    H129014   2.867   1.759   2.154  0.7923 -0.0543  0.4892
 2485TIP3    H229015   2.902   1.664   2.041  1.5592  1.4274 -0.5527
 2486TIP3   OH229016   1.762   5.812   8.505 -0.0695 -0.0743 -0.1045
 2486TIP3    H129017   1.784   5.800   8.597  0.5807 -0.8210 -0.3447
 2486TIP3    H229018   1.838   5.857   8.467 -0.5074  0.6011 -0.1946
 2487TIP3   OH229019   6.670   1.099   8.266  0.4329  0.3034 -0.5726
 2487TIP3    H129020   6.660   1.159   8.191 -0.8631  0.7834 -0.0372
 2487TIP3    H229021   6.592   1.113   8.319  0.9999 -0.5413  0.5290
 2488TIP3   OH229022   4.019   1.282   1.795  0.0786  0.4134  0.2679
 2488TIP3    H129023   4.031   1.221   1.868 -2.2077 -1.1953 -0.5690
 2488TIP3    H229024   3.978   1.359   1.834  1.9892  1.0461  1.1625
 2489TIP3   OH229025   1.865   0.776   0.467  0.2399  0.0002 -0.0115
 2489TIP3    H129026   1.923   0.782   0.543  1.3691  0.6451 -0.8811
 2489TIP3    H229027   1.780   0.805   0.498  0.4277 -0.7111  1.2411
 2490TIP3   OH229028   0.931   1.537   6.724 -0.0458 -0.4931  0.3831
 2490TIP3    H129029   0.868   1.471   6.755  0.1342  0.9355  4.5001
 2490TIP3    H229030   1.010   1.520   6.776  1.2209  0.8171 -1.0280
 2491TIP3   OH229031   6.618   5.856   0.813  0.0745 -0.2822 -0.0502
 2491TIP3    H129032   6.681   5.874   0.743  1.3402  0.0611  1.1288
 2491TIP3    H229033   6.544   5.814   0.769  1.4113 -1.3299 -1.3951
 2492TIP3   OH229034   5.150   3.790   7.216  0.2974 -0.0090  0.0754
 2492TIP3    H129035   5.177   3.776   7.125 -0.4542  2.1242 -0.5437
 2492TIP3    H229036   5.219   3.844   7.253 -0.5845  1.2324 -0.0170
 2493TIP3   OH229037   4.203   3.793   7.347 -0.6295  0.3321  0.4946
 2493TIP3    H129038   4.278   3.772   7.291 -1.8326  0.7723 -1.3999
 2493TIP3    H229039   4.239   3.800   7.435  1.5025  0.3397 -0.3231
 2494TIP3   OH229040   1.023   0.519   1.738 -0.0046 -0.1342 -0.5194
 2494TIP3    H129041   0.960   0.457   1.773  1.4945 -1.1197  0.5277
 2494TIP3    H229042   1.082   0.467   1.684  0.0707  0.7247 -1.2975
 2495TIP3   OH229043   5.126   3.848   8.336  0.0595 -0.1258  0.8355
 2495TIP3    H129044   5.077   3.801   8.404  0.2803 -0.6760  0.6222
 2495TIP3    H229045   5.133   3.938   8.369  2.2121 -0.8591  2.7171
 2496TIP3   OH229046   0.778   5.118   0.763 -0.4104 -0.7942  0.4865
 2496TIP3    H129047   0.702   5.063   0.785 -1.1717 -1.0356 -2.2901
 2496TIP3    H229048   0.744   5.179   0.697  1.4249  0.2593  0.4638
 2497TIP3   OH229049   2.292   0.405   8.229 -0.5350 -0.0924  0.2738
 2497TIP3    H129050   2.319   0.336   8.290 -0.2770  0.8321  1.2337
 2497TIP3    H229051   2.300   0.365   8.142 -0.1599 -1.1869  0.7938
 2498TIP3   OH229052   3.809   1.474   7.169  0.2519 -0.4170 -0.1648
 2498TIP3    H129053   3.778   1.445   7.255 -2.7890  1.0339 -0.6521
 2498TIP3    H229054   3.735   1.460   7.110  1.3354  1.0189 -1.9907
 2499TIP3   OH229055   0.445   3.990   0.073  0.4387  0.0812  0.0360
 2499TIP3    H129056   0.443   4.041   0.154  3.4844  0.3324  0.0863
 2499TIP3    H229057   0.517   3.928   0.086  0.0607 -0.8616 -1.9532
 2500TIP3   OH229058   2.959   2.970   2.103 -0.2215 -0.1745 -0.0854
 2500TIP3    H129059   2.972   2.883   2.141  0.4610 -0.5675 -1.1753
 2500TIP3    H229060   3.040   3.017   2.122 -0.4529  0.1152  0.1992
 2501TIP3   OH229061   4.633   1.787   6.822 -0.0406  0.4783 -0.1895
 2501TIP3    H129062   4.691   1.712   6.828 -0.0254  0.6086  2.8106
 2501TIP3    H229063   4.675   1.846   6.759  3.0595  0.4986  1.7170
 2502TIP3   OH229064   4.064   3.073   7.097  0.1691  0.6405  0.1401
 2502TIP3    H129065   3.996   3.058   7.030  1.4596 -0.2635 -1.0170
 2502TIP3    H229066   4.107   2.988   7.106  1.6588  1.3880  0.2589
 2503TIP3   OH229067   2.151   5.611   7.910  0.7375 -0.1021 -0.5023
 2503TIP3    H129068   2.081   5.609   7.844  0.8188 -1.5782 -0.5901
 2503TIP3    H229069   2.150   5.700   7.943 -2.9839 -0.6181  1.3574
 2504TIP3   OH229070   4.247   4.809   6.732  0.0455 -0.0830 -0.3827
 2504TIP3    H129071   4.165   4.854   6.752  0.6012  0.7757 -0.0022
 2504TIP3    H229072   4.315   4.862   6.773  0.9253 -0.0712 -1.7767
 2505TIP3   OH229073   2.575   6.480   1.179  0.1555 -0.5363 -0.4236
 2505TIP3    H129074   2.594   6.516   1.266  0.7999 -0.9858 -0.3733
 2505TIP3    H229075   2.482   6.498   1.166 -0.2549 -1.5644  0.8884
 2506TIP3   OH229076   4.229   1.513   0.848  0.4429 -0.1197  0.6886
 2506TIP3    H129077   4.270   1.503   0.933 -1.4820  1.1820  1.8457
 2506TIP3    H229078   4.137   1.529   0.867  0.3112  2.5225 -1.4886
 2507TIP3   OH229079   4.531   4.108   8.453  0.1756 -0.3740 -0.3914
 2507TIP3    H129080   4.560   4.179   8.509  1.9469 -0.8113 -0.6874
 2507TIP3    H229081   4.461   4.145   8.400  0.0260  0.6849  0.5216
 2508TIP3   OH229082   2.539   2.943   7.083 -0.3493 -0.0581 -0.2519
 2508TIP3    H129083   2.514   2.927   7.174 -0.5641  2.8993  0.3228
 2508TIP3    H229084   2.598   3.018   7.087 -1.7211  1.2845 -2.6267
 2509TIP3   OH229085   3.173   5.133   6.980 -0.0249 -0.1109 -0.4877
 2509TIP3    H129086   3.124   5.105   6.903  0.4007  0.5708 -1.0174
 2509TIP3    H229087   3.106   5.160   7.043 -0.3624  1.8340 -1.5916
 2510TIP3   OH229088   4.390   3.956   2.168  0.4255  0.2537  0.4572
 2510TIP3    H129089   4.470   4.002   2.193  0.8883 -0.2068 -0.1506
 2510TIP3    H229090   4.343   3.943   2.250  1.5614 -0.5688  1.0065
 2511TIP3   OH229091   2.029   5.810   1.382 -0.1321  0.1475  0.1665
 2511TIP3    H129092   1.960   5.862   1.423  1.0116 -0.0692  2.5796
 2511TIP3    H229093   2.006   5.719   1.402 -1.1126 -0.2272 -2.3707
 2512TIP3   OH229094   0.394   0.457   8.617  0.1154 -0.0630  0.3795
 2512TIP3    H129095   0.475   0.497   8.648  0.8515 -1.9895  1.1173
 2512TIP3    H229096   0.349   0.527   8.571  0.7731  1.9208  2.5397
 2513TIP3   OH229097   2.752   1.051   0.466  0.5013  0.1274 -0.4445
 2513TIP3    H129098   2.846   1.036   0.467  0.8378  1.9262  0.4307
 2513TIP3    H229099   2.713   0.964   0.476  2.0125 -0.7554 -1.8042
 2514TIP3   OH229100   4.494   3.293   1.390  0.4299  0.5338  0.1487
 2514TIP3    H129101   4.463   3.202   1.391  0.8321  0.3903  0.0566
 2514TIP3    H229102   4.419   3.344   1.361  0.6699  0.0251 -1.5327
 2515TIP3   OH229103   0.615   4.306   0.970 -0.6785  0.2324 -0.5001
 2515TIP3    H129104   0.549   4.246   0.936 -0.5926 -0.3550  0.3507
 2515TIP3    H229105   0.617   4.377   0.907 -0.0697 -1.1252 -2.0966
 2516TIP3   OH229106   3.543   0.052   0.840  0.0825  0.2592 -0.0961
 2516TIP3    H129107   3.497  -0.031   0.833 -0.6898  0.7903 -1.9108
 2516TIP3    H229108   3.633   0.028   0.861 -0.3600 -0.9643  0.4443
 2517TIP3   OH229109   1.355   6.828   0.992 -0.1355 -0.5349  0.0756
 2517TIP3    H129110   1.429   6.867   1.039  1.8497 -3.9982  0.1504
 2517TIP3    H229111   1.283   6.890   1.006  1.3225  0.5574  4.4934
 2518TIP3   OH229112   5.741   5.664   1.460 -0.1294 -0.3693  0.4628
 2518TIP3    H129113   5.806   5.720   1.418  0.1372  0.6003  2.0820
 2518TIP3    H229114   5.731   5.701   1.548 -0.4184 -2.5071  1.3805
 2519TIP3   OH229115   5.997   0.723   0.844  0.0368  0.2052 -0.2314
 2519TIP3    H129116   6.003   0.628   0.840 -0.0261  0.2043 -0.3012
 2519TIP3    H229117   6.085   0.751   0.868  0.1116  0.1411 -0.4291
 2520TIP3   OH229118   2.336   0.045   7.797  0.1343 -0.5995  0.0035
 2520TIP3    H129119   2.318  -0.012   7.872 -3.7059  1.1418  0.7011
 2520TIP3    H229120   2.404   0.105   7.828  0.1009 -1.2281  1.3660
 2521TIP3   OH229121   0.255   4.941   7.384  0.1349  0.5498  0.5278
 2521TIP3    H129122   0.191   4.942   7.313 -0.3203 -2.0592  0.8112
 2521TIP3    H229123   0.339   4.934   7.341 -0.1196 -0.6658  0.1852
 2522TIP3   OH229124   0.701   6.083   1.320 -0.1436  0.2668 -0.3607
 2522TIP3    H129125   0.618   6.067   1.274 -0.5587  0.9036  0.1410
 2522TIP3    H229126   0.692   6.035   1.403  1.2239 -2.1773 -1.5163
 2523TIP3   OH229127   4.344   1.550   8.460 -0.3559  0.8373  0.5445
 2523TIP3    H129128   4.335   1.555   8.556 -0.0127 -0.0443  0.6333
 2523TIP3    H229129   4.434   1.576   8.443 -0.1883  0.2513  0.5305
 2524TIP3   OH229130   5.467   5.171   7.690 -0.6386 -0.9065  0.8525
 2524TIP3    H129131   5.552   5.208   7.712 -1.1087 -1.1611  3.3721
 2524TIP3    H229132   5.407   5.245   7.694 -0.8548 -1.0979  1.2176
 2525TIP3   OH229133   0.140   6.310   0.053 -0.7371  0.2832  0.0484
 2525TIP3    H129134   0.119   6.350  -0.031  0.6699  1.3228  0.1587
 2525TIP3    H229135   0.057   6.309   0.100 -1.3804  0.4166 -1.0451
 2526TIP3   OH229136   6.659   6.208   7.035 -0.4448  0.4465  0.6301
 2526TIP3    H129137   6.697   6.296   7.031 -0.4125  0.3996 -1.8349
 2526TIP3    H229138   6.673   6.180   7.125  1.4468  2.1431  0.9393
 2527TIP3   OH229139   1.566   1.195   7.297 -0.2566  0.1255  0.0805
 2527TIP3    H129140   1.625   1.148   7.357 -0.7556 -0.6937 -0.0494
 2527TIP3    H229141   1.579   1.152   7.212 -1.0153 -0.0486  0.0455
 2528TIP3   OH229142   4.200   4.498   0.943 -0.1084 -0.9659 -0.1515
 2528TIP3    H129143   4.239   4.529   1.024 -1.2043 -0.4965  0.2200
 2528TIP3    H229144   4.106   4.495   0.961 -0.1911 -2.8266 -0.7529
 2529TIP3   OH229145   3.580   3.882   6.702  0.1542  0.6070 -0.5017
 2529TIP3    H129146   3.573   3.794   6.664 -2.3221  0.9514 -1.0324
 2529TIP3    H229147   3.518   3.935   6.652  0.6235  2.3516  0.6666
 2530TIP3   OH229148   1.049   4.229   1.243 -0.2548  0.2142 -0.1660
 2530TIP3    H129149   1.015   4.141   1.259  0.3218  0.0713  0.3333
 2530TIP3    H229150   1.140   4.225   1.272 -0.2637  1.0150 -0.0004
 2531TIP3   OH229151   4.811   2.389   8.402  0.3165 -0.5832 -0.6646
 2531TIP3    H129152   4.905   2.385   8.418  0.1435 -1.1034  0.2655
 2531TIP3    H229153   4.788   2.481   8.411  1.1779  0.0378 -3.6245
 2532TIP3   OH229154   0.708   3.361   1.860 -0.1765  0.5576 -0.5213
 2532TIP3    H129155   0.751   3.439   1.895  0.2489  0.2771 -0.4081
 2532TIP3    H229156   0.751   3.288   1.905 -0.8953  0.2775 -0.2658
 2533TIP3   OH229157   3.583   4.822   1.159  0.4662 -1.0561  0.6787
 2533TIP3    H129158   3.586   4.889   1.227 -0.6852 -1.2862  0.9744
 2533TIP3    H229159   3.530   4.860   1.089  0.2365 -1.4648  0.6284
 2534TIP3   OH229160   6.831   4.270   8.265 -0.1558  0.1831 -0.0784
 2534TIP3    H129161   6.902   4.206   8.262 -0.6874 -0.4063 -0.1768
 2534TIP3    H229162   6.794   4.268   8.177  0.5168  1.4321 -0.4172
 2535TIP3   OH229163   1.811   1.918   0.986 -0.7928  0.3301  0.1303
 2535TIP3    H129164   1.729   1.868   0.980 -0.2405 -0.4677 -1.3252
 2535TIP3    H229165   1.827   1.928   1.080 -1.2685 -1.6694  0.4597
 2536TIP3   OH229166   1.527   3.027   1.721  0.2738 -0.4695  0.0006
 2536TIP3    H129167   1.478   3.051   1.799  1.4807  1.1663  0.3048
 2536TIP3    H229168   1.482   2.950   1.687 -2.1483  0.6383  0.5320
 2537TIP3   OH229169   0.372   3.662   0.195 -0.1112 -0.3829 -0.0515
 2537TIP3    H129170   0.325   3.645   0.113 -0.2160 -1.9479  0.3017
 2537TIP3    H229171   0.305   3.653   0.263  0.2681 -0.5479  0.3048
 2538TIP3   OH229172   2.631   3.821   8.156  0.3549  0.6013  0.6061
 2538TIP3    H129173   2.542   3.803   8.188 -0.7656  1.6417 -1.7224
 2538TIP3    H229174   2.679   3.740   8.173 -1.8417 -1.0689 -0.6768
 2539TIP3   OH229175   2.073   5.461   7.476  0.4881 -0.1085  0.6688
 2539TIP3    H129176   2.031   5.533   7.524 -1.0160  1.0357 -2.0534
 2539TIP3    H229177   2.037   5.382   7.515  1.0302  0.6335  2.7891
 2540TIP3   OH229178   2.792   4.124   7.717  0.1410  0.3031  0.5195
 2540TIP3    H129179   2.820   4.061   7.651  0.0755  0.0906  0.6922
 2540TIP3    H229180   2.862   4.189   7.719 -0.0889  0.5766 -0.1024
 2541TIP3   OH229181   3.798   5.425   7.114 -0.1300  0.1619 -0.4827
 2541TIP3    H129182   3.734   5.494   7.098 -0.8477  0.0189  1.5059
 2541TIP3    H229183   3.854   5.426   7.037 -1.9376  0.9405 -1.8606
 2542TIP3   OH229184   4.055   0.652   8.453 -0.4808 -0.2540 -0.4416
 2542TIP3    H129185   4.034   0.611   8.370 -0.9807 -0.8229 -0.0427
 2542TIP3    H229186   4.024   0.742   8.444 -2.3999 -0.8347 -0.1710
 2543TIP3   OH229187   6.630   5.839   1.239 -0.0853 -0.5900  0.3839
 2543TIP3    H129188   6.586   5.843   1.324  0.5763 -2.3815  0.8555
 2543TIP3    H229189   6.719   5.811   1.259 -0.1894 -1.9952 -0.9539
 2544TIP3   OH229190   1.705   1.494   0.759  0.5016 -0.3199 -0.0193
 2544TIP3    H129191   1.728   1.556   0.689 -0.9680  0.6206  0.3011
 2544TIP3    H229192   1.692   1.549   0.836 -0.0972 -1.1153  0.4553
 2545TIP3   OH229193   0.059   4.114   1.427 -0.0071 -0.3989 -0.5861
 2545TIP3    H129194   0.032   4.205   1.439  0.6228 -0.2234 -0.4575
 2545TIP3    H229195   0.027   4.069   1.505 -1.3998 -0.5494 -1.2254
 2546TIP3   OH229196   1.276   0.829   1.407  0.1074 -0.0306 -0.0672
 2546TIP3    H129197   1.293   0.755   1.349 -1.2888 -1.8088  1.6483
 2546TIP3    H229198   1.220   0.793   1.476 -0.0745  2.4865  1.2181
 2547TIP3   OH229199   5.376   1.030   8.195  0.0332  0.5591  0.4030
 2547TIP3    H129200   5.385   1.106   8.254  0.3682  1.5604 -0.8853
 2547TIP3    H229201   5.327   1.064   8.120  0.0282 -0.5629 -0.1214
 2548TIP3   OH229202   3.533   2.622   1.879  0.0343 -0.0356 -0.1378
 2548TIP3    H129203   3.533   2.711   1.915 -0.0633 -0.0691 -0.0544
 2548TIP3    H229204   3.600   2.576   1.929 -1.2661 -0.5684  1.2181
 2549TIP3   OH229205   4.340   0.277   7.197 -0.2302  0.5087  0.0438
 2549TIP3    H129206   4.311   0.241   7.114 -0.7115  2.1057 -0.5230
 2549TIP3    H229207   4.318   0.370   7.192 -0.1482  0.6765  1.8994
 2550TIP3   OH229208   2.812   6.519   0.175 -0.0640 -0.5216  0.0706
 2550TIP3    H129209   2.831   6.475   0.092 -2.5248 -2.4986  0.4198
 2550TIP3    H229210   2.833   6.453   0.242  1.3105  0.8304  1.0239
 2551TIP3   OH229211   5.711   1.874   0.679  0.3389 -0.0789 -0.0150
 2551TIP3    H129212   5.645   1.936   0.711  1.2603  0.0746  1.7696
 2551TIP3    H229213   5.750   1.838   0.759  1.0405 -1.6611 -1.0179
 2552TIP3   OH229214   6.633   0.083   7.320  0.3632  0.0180  0.8916
 2552TIP3    H129215   6.639   0.109   7.228 -0.6890 -1.6212  0.3046
 2552TIP3    H229216   6.667   0.158   7.369  2.1175  0.4510 -0.8769
 2553TIP3   OH229217   3.257   0.297   7.904 -0.2782  0.2232 -0.4204
 2553TIP3    H129218   3.297   0.242   7.970  2.2636 -0.4007 -2.3170
 2553TIP3    H229219   3.202   0.238   7.853  0.4583 -0.0761 -0.8961
 2554TIP3   OH229220   3.964   6.233   0.040  0.3563 -0.0803 -0.3401
 2554TIP3    H129221   3.894   6.224   0.105  1.4207 -0.2803  0.8095
 2554TIP3    H229222   3.925   6.201  -0.041 -1.3241  1.1182 -0.0499
 2555TIP3   OH229223   4.542   0.233   1.475 -0.3955  0.5485 -0.5952
 2555TIP3    H129224   4.493   0.186   1.408  1.4932 -1.5363 -0.6570
 2555TIP3    H229225   4.526   0.184   1.556 -0.4883  1.4067 -0.0773
 2556TIP3   OH229226   0.308   1.112   7.405  0.1243  0.4106  0.2527
 2556TIP3    H129227   0.338   1.130   7.316 -0.7643  1.8468  0.2042
 2556TIP3    H229228   0.387   1.092   7.454  0.4839 -2.0408 -1.1726
 2557TIP3   OH229229   4.388   6.270   1.404  0.2723  0.3064  0.2805
 2557TIP3    H129230   4.385   6.190   1.457  1.9933  0.1085  0.1319
 2557TIP3    H229231   4.297   6.285   1.379  0.0747 -2.6290 -1.2102
 2558TIP3   OH229232   6.458   4.361   6.580 -0.2399  0.1983  0.8145
 2558TIP3    H129233   6.437   4.425   6.512 -1.9325 -0.1463  0.9713
 2558TIP3    H229234   6.523   4.404   6.635 -0.8144  1.5057  0.4958
 2559TIP3   OH229235   0.171   6.249   7.486  0.3794 -0.0856  0.4801
 2559TIP3    H129236   0.103   6.189   7.455 -0.7585  0.5457  1.6762
 2559TIP3    H229237   0.226   6.194   7.543  1.2228 -0.7202 -0.8839
 2560TIP3   OH229238   1.500   1.410   1.025  0.0343  0.3894 -0.1914
 2560TIP3    H129239   1.571   1.462   1.061  0.9277 -1.2072  0.4710
 2560TIP3    H229240   1.540   1.325   1.005 -1.6248 -0.4932  0.0108
 2561TIP3   OH229241   1.916   5.267   8.590 -0.3207  0.1476  0.2820
 2561TIP3    H129242   1.999   5.226   8.567 -0.3264  0.1226  0.3060
 2561TIP3    H229243   1.870   5.202   8.643  0.2546  0.7052  1.4963
 2562TIP3   OH229244   5.938   2.444   0.881 -0.1995  0.2322  0.6780
 2562TIP3    H129245   5.854   2.399   0.890 -0.3100  0.1371 -0.5717
 2562TIP3    H229246   5.926   2.502   0.806  0.9501 -0.0550  0.2457
 2563TIP3   OH229247   6.784   1.385   0.403  0.1556  0.5241  0.2689
 2563TIP3    H129248   6.706   1.333   0.382 -0.0927  0.8368  0.4052
 2563TIP3    H229249   6.857   1.329   0.378 -0.0943 -0.2008  1.1030
 2564TIP3   OH229250   5.744   2.415   7.405  0.0282  0.7977  0.5253
 2564TIP3    H129251   5.675   2.482   7.406 -0.8424 -0.0741  0.6898
 2564TIP3    H229252   5.764   2.402   7.312 -0.5530  0.5435  0.4315
 2565TIP3   OH229253   2.587   4.313   7.103 -0.1138 -0.1105  0.0676
 2565TIP3    H129254   2.524   4.353   7.163  0.1361 -1.8440  1.6050
 2565TIP3    H229255   2.643   4.385   7.075 -1.4259  1.0835  0.4175
 2566TIP3   OH229256   6.490   0.265   0.129  0.9999 -0.1748  0.3468
 2566TIP3    H129257   6.469   0.356   0.148  0.2412 -0.4513  0.8925
 2566TIP3    H229258   6.585   0.263   0.120  0.9470  0.8487 -0.6605
 2567TIP3   OH229259   1.428   0.352   7.039  0.4486 -0.2570 -0.0548
 2567TIP3    H129260   1.481   0.426   7.013  0.1136 -0.6557 -2.0423
 2567TIP3    H229261   1.428   0.354   7.134  0.9115  1.9391 -0.0639
 2568TIP3   OH229262   2.294   3.998   0.272  0.0353  0.0991  0.5628
 2568TIP3    H129263   2.339   4.055   0.334 -0.7306  0.4383  0.8234
 2568TIP3    H229264   2.273   4.055   0.198  1.1371 -0.3554 -0.1133
 2569TIP3   OH229265   6.346   5.296   1.373  0.7267  0.3866 -0.4109
 2569TIP3    H129266   6.322   5.276   1.463  0.8730 -0.2591 -0.5052
 2569TIP3    H229267   6.367   5.210   1.335 -1.5832  0.3177 -1.7333
 2570TIP3   OH229268   5.677   1.769   7.448  0.0716  0.6664  0.4515
 2570TIP3    H129269   5.680   1.735   7.359  1.1467  0.1789  0.6684
 2570TIP3    H229270   5.622   1.707   7.496  0.7095  0.1022  0.4686
 2571TIP3   OH229271   2.053   0.984   0.423  0.0573 -0.1618  0.0053
 2571TIP3    H129272   2.066   0.985   0.328 -0.7508  0.0868 -0.1125
 2571TIP3    H229273   1.980   0.923   0.436  0.0299 -0.0357  0.4450
 2572TIP3   OH229274   2.730   4.962   0.793  0.0777 -0.5571 -0.0362
 2572TIP3    H129275   2.748   4.940   0.884 -0.3309 -0.0925  0.1619
 2572TIP3    H229276   2.643   5.001   0.794  0.0514 -0.5873 -0.6313
 2573TIP3   OH229277   3.272   2.065   8.188  0.2366  0.3908  0.3679
 2573TIP3    H129278   3.260   1.997   8.253  1.1419  1.0373  1.2372
 2573TIP3    H229279   3.366   2.065   8.169  0.2241  1.2386  0.2303
 2574TIP3   OH229280   5.548   6.201   7.277 -0.2727 -0.3063  0.8090
 2574TIP3    H129281   5.608   6.127   7.283  0.2152 -0.2479 -1.8328
 2574TIP3    H229282   5.602   6.272   7.243 -1.5125  0.1283 -0.3529
 2575TIP3   OH229283   4.303   0.286   7.883  0.4825 -0.5218  0.1136
 2575TIP3    H129284   4.379   0.311   7.831  0.2569 -2.0087 -1.0064
 2575TIP3    H229285   4.310   0.191   7.891 -1.3655 -0.7296 -0.2263
 2576TIP3   OH229286   3.900   2.212   7.204 -0.0283  0.6189 -0.3005
 2576TIP3    H129287   3.915   2.276   7.273 -0.4920  2.2314 -1.6310
 2576TIP3    H229288   3.841   2.148   7.244 -0.4443  1.6071  0.7321
 2577TIP3   OH229289   6.618   2.195   6.778  0.4328 -0.3544 -0.3401
 2577TIP3    H129290   6.559   2.163   6.846  0.9275 -0.2662  0.1379
 2577TIP3    H229291   6.589   2.151   6.698 -0.2263 -0.3716 -0.0998
 2578TIP3   OH229292   5.436   0.588   1.234 -0.0510 -0.2596 -0.6578
 2578TIP3    H129293   5.465   0.541   1.312  1.2629  1.3690 -0.1085
 2578TIP3    H229294   5.343   0.567   1.226 -0.0896 -0.8581  1.0404
 2579TIP3   OH229295   3.213   0.625   0.581 -0.1231 -0.0954 -0.0597
 2579TIP3    H129296   3.239   0.597   0.669 -0.4053  0.7459  0.3056
 2579TIP3    H229297   3.296   0.644   0.537 -0.0181  0.9598  0.5478
 2580TIP3   OH229298   0.210   5.631   1.620 -0.3685 -0.4274  0.2033
 2580TIP3    H129299   0.301   5.604   1.631 -0.4512 -0.7920 -0.0146
 2580TIP3    H229300   0.176   5.574   1.552  0.0642  1.6036 -1.8529
 2581TIP3   OH229301   0.451   1.070   6.493 -0.1569 -0.0753 -0.5210
 2581TIP3    H129302   0.494   0.985   6.482  0.5008  0.0572  0.8366
 2581TIP3    H229303   0.447   1.083   6.587 -2.3814  0.3586 -0.6337
 2582TIP3   OH229304   3.051   3.332   8.120  0.3412 -0.2431  0.1452
 2582TIP3    H129305   2.967   3.349   8.162  0.2269 -0.4765  0.0121
 2582TIP3    H229306   3.115   3.344   8.190  0.3470  1.5692 -0.1228
 2583TIP3   OH229307   4.006   5.705   8.319 -0.0808 -0.1343 -0.1582
 2583TIP3    H129308   4.020   5.752   8.401 -0.5750 -0.2430 -0.0084
 2583TIP3    H229309   3.941   5.637   8.341  1.9537 -2.1239  0.1115
 2584TIP3   OH229310   0.438   5.974   6.852  0.1882  0.5887 -0.4669
 2584TIP3    H129311   0.391   6.049   6.889 -2.3746 -1.5458  0.9764
 2584TIP3    H229312   0.369   5.917   6.818  1.8587 -1.8623 -0.0077
 2585TIP3   OH229313   3.420   3.150   0.455  0.2828  0.1943 -1.1225
 2585TIP3    H129314   3.512   3.137   0.479  0.1920  2.3341  0.7086
 2585TIP3    H229315   3.398   3.073   0.402  2.5467 -1.3877  0.0687
 2586TIP3   OH229316   4.599   0.291   7.542 -0.1035  0.9595 -0.0720
 2586TIP3    H129317   4.577   0.371   7.494 -2.2728 -0.6789 -2.0389
 2586TIP3    H229318   4.517   0.242   7.546  1.5290 -2.1411 -0.8990
 2587TIP3   OH229319   1.173   3.295   6.670  0.5160 -0.5149  0.2945
 2587TIP3    H129320   1.189   3.201   6.672  0.6306 -0.5252 -0.8079
 2587TIP3    H229321   1.089   3.304   6.625 -0.2024 -0.1588  1.6297
 2588TIP3   OH229322   0.281   5.844   1.181 -0.5269 -0.0289  0.1508
 2588TIP3    H129323   0.344   5.800   1.238 -1.6585 -1.9741  0.0063
 2588TIP3    H229324   0.332   5.870   1.104  0.8311  1.8378  1.6045
 2589TIP3   OH229325   2.938   3.029   1.578 -0.1189 -0.2379 -0.4461
 2589TIP3    H129326   2.931   2.968   1.651 -1.7847 -0.0253 -0.3809
 2589TIP3    H229327   2.868   3.001   1.518  1.4456 -0.6460 -2.1493
 2590TIP3   OH229328   0.693   5.986   6.959  0.6588 -0.5425  0.0554
 2590TIP3    H129329   0.614   6.005   6.909 -0.5071 -2.3062  1.1460
 2590TIP3    H229330   0.732   5.910   6.915  0.2204 -1.4142  1.1419
 2591TIP3   OH229331   5.540   0.307   7.967 -1.1444 -0.1435 -0.0532
 2591TIP3    H129332   5.451   0.317   8.003  0.0548  1.9954  2.6853
 2591TIP3    H229333   5.553   0.384   7.913 -0.7661 -0.1895 -0.0278
 2592TIP3   OH229334   5.422   2.558   7.806  0.4148 -0.1303  0.0958
 2592TIP3    H129335   5.335   2.553   7.845  1.7686  0.9610  3.6687
 2592TIP3    H229336   5.429   2.649   7.776  0.9261  0.3730  1.6315
 2593TIP3   OH229337   2.323   0.636   1.738 -0.5655 -0.1600 -0.0424
 2593TIP3    H129338   2.334   0.551   1.780 -0.7177  0.5575  1.5153
 2593TIP3    H229339   2.326   0.699   1.810  1.6527  1.3417 -1.3271
 2594TIP3   OH229340   2.657   0.171   1.410  0.6031 -0.5157  0.1870
 2594TIP3    H129341   2.684   0.174   1.502 -1.1266  0.3148  0.6940
 2594TIP3    H229342   2.692   0.252   1.372  1.6476 -1.0387 -0.0180
 2595TIP3   OH229343   1.231   1.007   8.483  0.2869 -0.6322 -0.0185
 2595TIP3    H129344   1.280   1.069   8.428 -0.0554  0.9254  1.3304
 2595TIP3    H229345   1.148   0.994   8.437  0.7485 -0.8576 -0.7955
 2596TIP3   OH229346   6.878   0.487   1.734 -0.2371 -0.2415  0.2619
 2596TIP3    H129347   6.956   0.507   1.787  0.4363 -1.9613 -0.0305
 2596TIP3    H229348   6.911   0.434   1.662 -1.6700 -0.8906  0.0566
 2597TIP3   OH229349   0.473   0.092   6.445 -0.6315 -0.0470 -0.2730
 2597TIP3    H129350   0.485   0.140   6.363 -1.2497 -0.1378 -0.4167
 2597TIP3    H229351   0.388   0.050   6.437 -1.0354  0.5380  0.7220
 2598TIP3   OH229352   4.856   2.338   1.307  0.0621  0.1892  0.7813
 2598TIP3    H129353   4.943   2.374   1.286 -0.2318 -0.0523 -0.9432
 2598TIP3    H229354   4.830   2.384   1.387  0.5975  2.3057 -0.1978
 2599TIP3   OH229355   3.527   4.289   7.248 -0.2665 -0.2129  0.2673
 2599TIP3    H129356   3.563   4.347   7.315 -0.7137 -0.6806  0.9435
 2599TIP3    H229357   3.603   4.246   7.209 -0.0214 -0.4105  0.9428
 2600TIP3   OH229358   6.379   2.999   7.624 -0.1437  0.7559  0.0137
 2600TIP3    H129359   6.464   2.956   7.631 -1.1700 -1.6024 -0.9890
 2600TIP3    H229360   6.387   3.055   7.547  0.6261  0.9465  0.2187
 2601TIP3   OH229361   0.683   1.665   7.998  0.0012 -0.5819 -0.3427
 2601TIP3    H129362   0.674   1.593   8.061 -2.1524  0.5350  0.7129
 2601TIP3    H229363   0.599   1.711   8.001  1.0172  1.5014 -1.5951
 2602TIP3   OH229364   5.982   1.305   0.517  0.3972  0.0895  0.5488
 2602TIP3    H129365   6.031   1.255   0.583 -0.3554  0.3164  1.2989
 2602TIP3    H229366   5.902   1.254   0.503  0.3810  0.2401  0.0938
 2603TIP3   OH229367   0.943   2.274   7.879 -0.2366  0.0614 -0.4103
 2603TIP3    H129368   0.888   2.273   7.957  1.4821  0.4561  0.8792
 2603TIP3    H229369   1.015   2.214   7.901  0.2162  0.0886 -1.7455
 2604TIP3   OH229370   3.230   1.535   8.109  0.0231 -0.2538  0.7289
 2604TIP3    H129371   3.204   1.459   8.161  0.4842 -0.8222  0.1509
 2604TIP3    H229372   3.323   1.520   8.091  0.2028  0.6182  0.8874
 2605TIP3   OH229373   3.167   4.455   1.627 -0.0404  0.5098 -0.1775
 2605TIP3    H129374   3.190   4.545   1.652 -2.1560  1.1354 -0.2794
 2605TIP3    H229375   3.138   4.462   1.536 -1.6687  0.0359  0.2740
 2606TIP3   OH229376   6.542   4.913   0.725 -0.2689  0.6123  0.1398
 2606TIP3    H129377   6.574   4.967   0.653  2.1457  0.3188  0.8827
 2606TIP3    H229378   6.547   4.823   0.691 -0.5724  0.5767  0.1857
 2607TIP3   OH229379   3.093   5.679   8.233  0.0955 -0.0435  0.3176
 2607TIP3    H129380   3.081   5.628   8.154  0.1622  1.5057 -0.7441
 2607TIP3    H229381   3.057   5.625   8.303 -0.8503 -1.0393 -0.8994
 2608TIP3   OH229382   5.364   5.913   0.046 -0.3133  0.2081 -0.3544
 2608TIP3    H129383   5.440   5.969   0.032 -0.0046 -0.1527 -0.1608
 2608TIP3    H229384   5.392   5.852   0.114 -0.3069 -0.7808 -1.2128
 2609TIP3   OH229385   4.896   4.228   0.546 -0.7436 -0.2394  0.2662
 2609TIP3    H129386   4.939   4.313   0.544 -0.6566 -0.2882 -0.6503
 2609TIP3    H229387   4.807   4.246   0.514 -1.2402 -0.2345  1.5877
 2610TIP3   OH229388   0.474   0.415   7.950  0.7095 -0.1029  0.2368
 2610TIP3    H129389   0.468   0.464   7.868  0.0262  0.1217  0.4149
 2610TIP3    H229390   0.514   0.477   8.011 -0.7767  0.4980  0.6452
 2611TIP3   OH229391   1.372   5.464   0.695  0.3616  0.4531 -0.1179
 2611TIP3    H129392   1.407   5.543   0.654  1.5578  1.0583  1.9137
 2611TIP3    H229393   1.288   5.491   0.732 -1.0065 -0.2483 -2.5444
 2612TIP3   OH229394   2.776   3.063   7.003  0.2138  0.1157 -0.1256
 2612TIP3    H129395   2.731   3.042   6.921 -0.0476 -4.7871  0.9670
 2612TIP3    H229396   2.867   3.038   6.988  0.8121  1.8688  0.3161
 2613TIP3   OH229397   4.924   5.839   2.050  0.3547  0.3232  0.0273
 2613TIP3    H129398   4.949   5.774   2.116 -1.4330 -0.6869 -0.2450
 2613TIP3    H229399   4.970   5.919   2.077  1.8563 -0.7708  0.9034
 2614TIP3   OH229400   1.602   4.349   8.465  0.4605  0.1643  0.0045
 2614TIP3    H129401   1.529   4.356   8.404  2.5554  0.9535 -2.6204
 2614TIP3    H229402   1.592   4.424   8.524 -2.3681 -1.3841  1.6853
 2615TIP3   OH229403   4.582   5.798   7.952  0.9831 -0.3457  0.1155
 2615TIP3    H129404   4.660   5.828   7.998  0.9011 -1.0308  0.7024
 2615TIP3    H229405   4.567   5.866   7.885  1.1607  0.6007  1.0063
 2616TIP3   OH229406   6.573   6.872   2.197  0.3919  0.5048 -0.0206
 2616TIP3    H129407   6.479   6.868   2.213  0.4486  0.6569  0.3596
 2616TIP3    H229408   6.613   6.846   2.280  0.6781 -1.3669 -0.7053
 2617TIP3   OH229409   1.704   3.418   6.945 -0.3862 -0.3899 -0.3602
 2617TIP3    H129410   1.789   3.463   6.953 -0.3535 -0.3409 -0.9195
 2617TIP3    H229411   1.727   3.325   6.942 -0.3292 -0.3692 -0.6969
 2618TIP3   OH229412   3.201   5.927   1.064 -0.2576  0.2342 -0.2239
 2618TIP3    H129413   3.241   5.928   0.977 -1.8824 -1.0537 -1.0503
 2618TIP3    H229414   3.107   5.927   1.046 -0.6244 -1.4904  1.4773
 2619TIP3   OH229415   2.813   2.103   7.517 -0.8006 -0.1032  0.0225
 2619TIP3    H129416   2.811   2.123   7.423 -0.0503 -1.1839 -0.2488
 2619TIP3    H229417   2.722   2.113   7.545 -0.6091  3.0592 -0.1477
 2620TIP3   OH229418   5.060   4.214   2.838  0.2465 -0.0220 -0.5644
 2620TIP3    H129419   5.142   4.171   2.861 -0.9537 -3.3221 -1.7109
 2620TIP3    H229420   5.068   4.233   2.744  0.3284  1.2318 -0.3075
 2621TIP3   OH229421   6.476   0.982   0.253  1.2202  0.3276 -0.2761
 2621TIP3    H129422   6.415   1.015   0.187 -0.4488 -0.6934  0.6843
 2621TIP3    H229423   6.539   1.053   0.266  0.4964  1.2445 -1.6211
 2622TIP3   OH229424   5.759   2.840   1.169  0.6234 -0.5637  0.1515
 2622TIP3    H129425   5.725   2.853   1.257  2.8122  0.6678  0.8749
 2622TIP3    H229426   5.684   2.857   1.112 -0.1820  1.3407  1.6694
 2623TIP3   OH229427   4.325   4.411   8.298  0.1825 -0.2075 -0.1324
 2623TIP3    H129428   4.405   4.368   8.266 -1.2789 -1.8576 -1.7471
 2623TIP3    H229429   4.316   4.488   8.242 -0.6376 -1.3555 -1.6334
 2624TIP3   OH229430   3.614   0.968   0.977  0.2973  0.3970  0.6696
 2624TIP3    H129431   3.703   0.978   0.942  0.1186  0.6615  0.2855
 2624TIP3    H229432   3.592   0.877   0.960  0.1311  0.5808 -0.1029
 2625TIP3   OH229433   2.092   0.943   8.566  0.0804 -0.2011  0.1224
 2625TIP3    H129434   2.037   0.915   8.640  1.1579 -1.1497  0.5864
 2625TIP3    H229435   2.107   1.036   8.581 -1.8253  0.2308 -0.3095
 2626TIP3   OH229436   4.219   2.545   0.933 -0.6651  0.0929 -0.0652
 2626TIP3    H129437   4.219   2.488   0.856 -0.7338  1.5922 -1.2292
 2626TIP3    H229438   4.137   2.525   0.977 -0.0666 -1.6697  0.3513
 2627TIP3   OH229439   3.090   0.447   0.038  0.0259 -0.2489  0.5568
 2627TIP3    H129440   3.111   0.465   0.130  0.6153  0.2065  0.3307
 2627TIP3    H229441   3.084   0.533  -0.003 -1.2551 -0.3988  0.3772
 2628TIP3   OH229442   1.522   3.349   7.916  0.0819  0.2844 -0.0605
 2628TIP3    H129443   1.562   3.262   7.924  2.7584  1.2339 -1.7572
 2628TIP3    H229444   1.444   3.336   7.862 -0.8358 -1.3387  1.5579
 2629TIP3   OH229445   2.996   2.443   2.084 -0.3144 -0.6840  0.8712
 2629TIP3    H129446   3.013   2.349   2.093 -1.3726 -0.8409  1.3790
 2629TIP3    H229447   3.050   2.484   2.151  0.4900 -0.8806  0.3594
 2630TIP3   OH229448   4.132   4.406   1.549  0.0084 -0.3241  0.0107
 2630TIP3    H129449   4.178   4.329   1.518  2.8971  1.7075 -1.2526
 2630TIP3    H229450   4.103   4.451   1.469 -0.6092  0.4469  0.6453
 2631TIP3   OH229451   5.698   4.730   0.589 -0.0804 -0.4711 -0.0761
 2631TIP3    H129452   5.613   4.766   0.562 -1.1602 -2.3934  0.5915
 2631TIP3    H229453   5.703   4.748   0.682  0.0359 -0.7451 -0.0293
 2632TIP3   OH229454   2.785   1.291   1.002 -0.5494  0.3915 -0.2175
 2632TIP3    H129455   2.849   1.331   0.943  0.1311  1.0137  0.9064
 2632TIP3    H229456   2.810   1.199   1.006  0.0577  0.5618 -0.0694
 2633TIP3   OH229457   5.677   0.536   7.822 -0.1537  0.0697  0.2151
 2633TIP3    H129458   5.675   0.536   7.726  0.3389 -0.7481  0.1944
 2633TIP3    H229459   5.728   0.613   7.845  2.4573 -1.3735 -0.2948
 2634TIP3   OH229460   0.784   4.463   7.532  0.1184 -0.1748  0.4137
 2634TIP3    H129461   0.796   4.398   7.601 -1.2728  0.7955  1.6309
 2634TIP3    H229462   0.873   4.488   7.506  0.6753 -0.6310  1.7950
 2635TIP3   OH229463   1.714   3.704   6.326 -0.5190 -0.5109 -0.1308
 2635TIP3    H129464   1.703   3.624   6.378 -1.1226 -0.0714  0.4367
 2635TIP3    H229465   1.647   3.698   6.258  0.1281 -0.9821 -0.7371
 2636TIP3   OH229466   2.217   2.140   6.877  0.2289  0.0623 -0.2784
 2636TIP3    H129467   2.245   2.156   6.787  0.2870 -1.1097 -0.4790
 2636TIP3    H229468   2.122   2.133   6.872  0.2772 -0.5647 -0.3405
 2637TIP3   OH229469   5.957   0.288   8.637  0.0883  0.6157 -0.5285
 2637TIP3    H129470   6.053   0.294   8.631  0.3525 -1.0355  1.1157
 2637TIP3    H229471   5.940   0.195   8.654 -1.9117  0.6544 -2.0099
 2638TIP3   OH229472   1.268   5.363   1.737  0.4997  0.2749  0.0572
 2638TIP3    H129473   1.329   5.311   1.789 -0.5046  0.3866  1.4007
 2638TIP3    H229474   1.292   5.454   1.757  0.2937  0.3168  0.1234
 2639TIP3   OH229475   2.612   5.258   7.217 -0.3009  0.1625  0.0776
 2639TIP3    H129476   2.517   5.267   7.227 -0.3688  1.3619 -1.2733
 2639TIP3    H229477   2.648   5.325   7.275 -0.3666  0.9619 -0.7829
 2640TIP3   OH229478   0.997   3.693   1.434 -0.0855  0.4672  0.0225
 2640TIP3    H129479   0.927   3.639   1.472  0.0610 -0.7112 -1.2910
 2640TIP3    H229480   1.060   3.705   1.506 -1.2830  0.9542  1.0185
 2641TIP3   OH229481   5.985   3.612   1.254 -0.0762  0.5821 -0.1056
 2641TIP3    H129482   6.072   3.572   1.265 -0.2138  0.5439  1.0163
 2641TIP3    H229483   5.932   3.543   1.212  0.2353  0.3312 -0.0904
 2642TIP3   OH229484   6.114   0.112   8.268 -0.0309  0.3424  0.4584
 2642TIP3    H129485   6.042   0.166   8.236  0.4763  2.0306  2.0313
 2642TIP3    H229486   6.192   0.147   8.224  0.1580  0.1551  0.6435
 2643TIP3   OH229487   1.513   2.814   8.418 -0.2011  0.2679 -0.0983
 2643TIP3    H129488   1.576   2.749   8.388  1.1968  1.6898 -0.3585
 2643TIP3    H229489   1.533   2.826   8.511 -0.2447  0.5605 -0.1252
 2644TIP3   OH229490   1.541   0.334   0.832 -0.9251  0.3949  0.1241
 2644TIP3    H129491   1.618   0.390   0.819 -1.4311  1.1810  0.4303
 2644TIP3    H229492   1.488   0.347   0.754  0.0717 -1.5750 -0.9767
 2645TIP3   OH229493   5.134   0.101   8.369 -0.2500 -0.3208  0.5144
 2645TIP3    H129494   5.072   0.117   8.441  1.0548 -1.4881  1.9574
 2645TIP3    H229495   5.078   0.094   8.291 -1.6541  1.6188  1.2626
 2646TIP3   OH229496   3.579   2.544   1.261 -0.1472  0.8705  0.2369
 2646TIP3    H129497   3.610   2.574   1.346 -2.2685  0.5711  1.1966
 2646TIP3    H229498   3.486   2.568   1.260 -0.3425  0.2207 -1.7075
 2647TIP3   OH229499   3.810   3.472   8.037 -0.2414 -0.3142  0.5143
 2647TIP3    H129500   3.717   3.477   8.061 -0.2753 -0.4573  0.4198
 2647TIP3    H229501   3.852   3.541   8.087 -0.4311 -0.1223  0.4108
 2648TIP3   OH229502   1.810   4.803   0.307 -0.2416 -0.0492  0.6167
 2648TIP3    H129503   1.830   4.868   0.240  1.4469 -0.9574  0.1898
 2648TIP3    H229504   1.894   4.762   0.327 -0.7155  0.0117  3.1276
 2649TIP3   OH229505   3.654   0.209   0.608  0.1521  0.3428 -0.7603
 2649TIP3    H129506   3.577   0.206   0.551 -0.5442  1.3931  0.0669
 2649TIP3    H229507   3.622   0.180   0.693  1.3431 -1.9240 -0.9989
 2650TIP3   OH229508   4.714   5.477   8.269 -0.7442 -0.2187  0.4259
 2650TIP3    H129509   4.620   5.494   8.271 -0.8919 -1.0413  1.4621
 2650TIP3    H229510   4.723   5.395   8.222 -0.3291  0.9090 -1.5598
 2651TIP3   OH229511   4.681   1.885   6.391  0.4693 -0.4804  0.3463
 2651TIP3    H129512   4.711   1.913   6.477  0.3981 -0.4755  0.3692
 2651TIP3    H229513   4.761   1.857   6.346  0.4887 -0.5989  0.4564
 2652TIP3   OH229514   1.010   1.170   8.328 -0.5381  0.2074 -0.2634
 2652TIP3    H129515   1.042   1.257   8.306 -1.6638  0.0927 -2.6136
 2652TIP3    H229516   1.002   1.125   8.244  0.6395 -2.4414  0.9151
 2653TIP3   OH229517   6.356   2.488   8.635 -0.0654  0.5589  0.3622
 2653TIP3    H129518   6.373   2.555   8.702 -2.5169 -0.1071  1.7864
 2653TIP3    H229519   6.282   2.523   8.585  0.8840  0.4315 -1.2057
 2654TIP3   OH229520   3.517   3.505   7.449  0.1547  0.2015 -0.4935
 2654TIP3    H129521   3.604   3.511   7.487 -0.3055 -1.1929  0.8850
 2654TIP3    H229522   3.476   3.589   7.469  0.4586  0.0708  0.7899
 2655TIP3   OH229523   1.180   1.958   1.187  0.1595 -0.0925 -0.1598
 2655TIP3    H129524   1.148   1.960   1.277  0.1742  0.8777 -0.1706
 2655TIP3    H229525   1.254   2.018   1.185 -1.0885  1.5213 -1.2555
 2656TIP3   OH229526   1.745   6.532   6.750  0.2545 -0.5663  0.2748
 2656TIP3    H129527   1.771   6.499   6.836 -1.1148 -1.7605  0.2671
 2656TIP3    H229528   1.781   6.620   6.746  0.1576 -0.4101  2.1633
 2657TIP3   OH229529   2.406   2.277   1.332 -0.0984 -0.5084 -0.3252
 2657TIP3    H129530   2.389   2.257   1.424  1.3379 -1.7192 -0.2763
 2657TIP3    H229531   2.470   2.348   1.334  0.3504 -0.9105 -0.3784
 2658TIP3   OH229532   0.917   4.016   0.285  0.4217  0.5117  0.5085
 2658TIP3    H129533   0.936   3.924   0.304  1.8652  0.7484  0.2731
 2658TIP3    H229534   0.937   4.062   0.366 -2.4399  0.3966  1.3808
 2659TIP3   OH229535   3.963   4.056   2.306  0.4966  0.2556  0.0932
 2659TIP3    H129536   3.983   3.979   2.253  1.4548  1.3781 -1.2584
 2659TIP3    H229537   3.925   4.118   2.244  0.5001  1.1646  0.9768
 2660TIP3   OH229538   3.614   2.102   0.654 -0.1759 -0.0293  0.0392
 2660TIP3    H129539   3.683   2.146   0.703  0.6576 -2.1946  0.9173
 2660TIP3    H229540   3.567   2.050   0.719  0.2362 -2.0764 -1.2005
 2661TIP3   OH229541   4.100   1.434   7.201  0.3342  0.3186 -1.1901
 2661TIP3    H129542   4.006   1.415   7.203  0.7526 -2.0764 -0.1487
 2661TIP3    H229543   4.111   1.509   7.259 -0.6348 -1.5946  1.7175
 2662TIP3   OH229544   0.985   2.999   7.532  0.6818 -0.5162 -0.2707
 2662TIP3    H129545   1.028   3.084   7.545 -0.1422 -0.3403  1.7668
 2662TIP3    H229546   0.948   2.978   7.618 -2.1202 -1.2801 -1.5505
 2663TIP3   OH229547   5.460   5.569   1.509 -0.2996  0.2988  0.4050
 2663TIP3    H129548   5.457   5.473   1.512  2.9077  0.0697 -0.3557
 2663TIP3    H229549   5.492   5.595   1.595  0.0600  0.5817  0.1904
 2664TIP3   OH229550   2.478   6.722   0.419 -0.0903 -0.1331 -0.2977
 2664TIP3    H129551   2.544   6.679   0.365 -0.3056 -0.6882 -0.1250
 2664TIP3    H229552   2.517   6.726   0.507 -1.4285 -3.2609  0.5706
 2665TIP3   OH229553   3.356   0.534   2.036  0.5328  0.4407  0.5862
 2665TIP3    H129554   3.390   0.607   1.984 -3.1746 -0.0925 -3.1728
 2665TIP3    H229555   3.401   0.457   2.002 -1.5668  0.1509 -1.8706
 2666TIP3   OH229556   0.972   4.561   7.180 -0.4038  0.6392 -0.2370
 2666TIP3    H129557   1.062   4.548   7.210  0.3336  1.1013 -2.1397
 2666TIP3    H229558   0.980   4.617   7.104 -2.4109  1.4860  0.1160
 2667TIP3   OH229559   4.439   5.503   8.264 -0.0159 -0.1513  0.0748
 2667TIP3    H129560   4.377   5.451   8.316  1.1990 -1.2649  0.4612
 2667TIP3    H229561   4.460   5.577   8.321 -0.9564  0.2319 -0.0540
 2668TIP3   OH229562   6.768   6.702   1.097 -0.0969  0.2185  0.2054
 2668TIP3    H129563   6.692   6.755   1.122  0.0755  0.0885  1.0347
 2668TIP3    H229564   6.822   6.761   1.044 -1.1345  0.0764 -1.0430
 2669TIP3   OH229565   1.275   0.614   6.936  0.2730  0.4318  0.6605
 2669TIP3    H129566   1.244   0.524   6.932  0.4331  0.4023  0.0922
 2669TIP3    H229567   1.370   0.607   6.942  0.6269  0.5879 -2.9888
 2670TIP3   OH229568   6.544   5.447   7.783 -0.0663  0.2508 -0.1673
 2670TIP3    H129569   6.590   5.456   7.700  0.6973  0.5252  0.2777
 2670TIP3    H229570   6.567   5.526   7.832 -0.9171  0.3373  0.1192
 2671TIP3   OH229571   3.085   5.509   2.137  0.6821 -0.3477 -0.5476
 2671TIP3    H129572   2.995   5.499   2.105 -0.9463 -0.8873  3.5915
 2671TIP3    H229573   3.112   5.420   2.161  1.2485  0.1358  0.6801
 2672TIP3   OH229574   1.481   4.473   1.345  0.4237 -0.3133  0.0559
 2672TIP3    H129575   1.508   4.502   1.432 -0.1069 -3.0526  1.2334
 2672TIP3    H229576   1.517   4.539   1.285  1.6586  1.1120  2.2482
 2673TIP3   OH229577   5.415   3.823   7.319 -0.1249 -1.1810  0.5410
 2673TIP3    H129578   5.406   3.775   7.400  0.3647 -1.6035  0.3489
 2673TIP3    H229579   5.503   3.801   7.287 -0.7181 -1.9197 -0.6724
 2674TIP3   OH229580   1.182   1.512   8.460 -0.1046 -0.3963  0.6773
 2674TIP3    H129581   1.111   1.511   8.396  0.4274 -3.0645  0.0146
 2674TIP3    H229582   1.227   1.596   8.445 -0.2210 -0.7665 -2.2031
 2675TIP3   OH229583   5.949   4.682   0.988 -0.1851 -0.3192 -0.3783
 2675TIP3    H129584   5.904   4.620   0.930  2.0475 -1.6048 -0.8535
 2675TIP3    H229585   6.037   4.645   0.999  0.1862  1.0914  2.0115
 2676TIP3   OH229586   1.054   1.499   0.443  0.5336  0.0781 -0.3020
 2676TIP3    H129587   1.029   1.440   0.372  0.0096 -1.2901  0.9639
 2676TIP3    H229588   0.973   1.546   0.465  0.8042  0.8459 -0.8918
 2677TIP3   OH229589   1.902   3.115   7.784 -0.1404  0.0795  0.5663
 2677TIP3    H129590   1.988   3.156   7.768 -0.3954  1.0152  1.4852
 2677TIP3    H229591   1.843   3.188   7.799 -0.8882 -0.6035  1.0130
 2678TIP3   OH229592   0.974   4.271   8.377 -0.0608  0.2075  0.2953
 2678TIP3    H129593   1.050   4.268   8.436  0.2042  1.7205  0.0665
 2678TIP3    H229594   0.898   4.259   8.435  0.3364 -1.8766  0.4563
 2679TIP3   OH229595   4.226   3.291   8.127 -0.3068 -0.1691  0.4173
 2679TIP3    H129596   4.281   3.292   8.206  0.8979 -1.8922 -0.3358
 2679TIP3    H229597   4.277   3.340   8.063 -0.8851  0.4879  0.4577
 2680TIP3   OH229598   4.989   2.174   6.121  0.0880 -0.1653  0.5028
 2680TIP3    H129599   4.905   2.174   6.075  0.1320 -0.6190  0.4145
 2680TIP3    H229600   4.967   2.196   6.211 -0.1319 -0.3269  0.4885
 2681TIP3   OH229601   3.882   0.928   0.864 -0.1834  0.3550  0.1248
 2681TIP3    H129602   3.842   0.976   0.791 -1.5467  0.4507  0.8965
 2681TIP3    H229603   3.924   0.853   0.823 -0.4206  0.7192 -0.8154
 2682TIP3   OH229604   5.675   2.319   0.208 -0.0515 -0.0804  0.1115
 2682TIP3    H129605   5.755   2.328   0.260  0.1091 -0.7953 -0.0003
 2682TIP3    H229606   5.633   2.404   0.213  1.1669  0.5931 -0.5442
 2683TIP3   OH229607   6.003   3.778   8.438  0.0269  0.2842 -0.5715
 2683TIP3    H129608   5.974   3.869   8.431 -0.2443  0.1603 -1.0809
 2683TIP3    H229609   5.973   3.750   8.524  0.2789  0.7351 -0.3319
 2684TIP3   OH229610   2.760   3.389   7.856 -0.0487  0.5867 -0.3667
 2684TIP3    H129611   2.840   3.438   7.879  0.0915  0.1154  0.1897
 2684TIP3    H229612   2.704   3.454   7.813  0.5517  0.9742 -0.5841
 2685TIP3   OH229613   2.786   5.911   0.178  0.2479  0.3091  0.5990
 2685TIP3    H129614   2.697   5.946   0.178  0.5814  1.1548  0.2299
 2685TIP3    H229615   2.775   5.820   0.150 -0.1654  1.2667 -2.8101
 2686TIP3   OH229616   4.458   4.433   1.394  0.2594  0.1667 -0.0292
 2686TIP3    H129617   4.500   4.490   1.458  0.0578  0.4193 -0.1209
 2686TIP3    H229618   4.400   4.376   1.446 -2.3366  2.4376 -0.2106
 2687TIP3   OH229619   1.663   2.915   8.146  0.3885 -0.4597 -0.2977
 2687TIP3    H129620   1.694   3.004   8.125 -1.1006 -0.4334 -2.6976
 2687TIP3    H229621   1.735   2.876   8.195  1.5318  1.7089 -0.1249
 2688TIP3   OH229622   6.424   6.237   7.494  0.2548 -0.1128  0.5445
 2688TIP3    H129623   6.397   6.205   7.581 -2.1399  0.8743  0.2463
 2688TIP3    H229624   6.390   6.327   7.490  1.8503  0.4763 -0.7795
 2689TIP3   OH229625   2.223   6.306   2.496 -0.1576  0.9720 -0.1814
 2689TIP3    H129626   2.150   6.311   2.558  0.7367 -0.4567  1.0538
 2689TIP3    H229627   2.186   6.337   2.414 -1.9551  1.0123  0.5832
 2690TIP3   OH229628   1.316   4.659   8.646 -0.3611  0.2124  0.4807
 2690TIP3    H129629   1.286   4.639   8.734  0.2723  0.6981  0.8091
 2690TIP3    H229630   1.402   4.619   8.639  0.4424  1.8164  0.7662
 2691TIP3   OH229631   0.745   0.951   8.283  0.2396 -0.3725  0.1871
 2691TIP3    H129632   0.669   0.987   8.238 -0.0786 -0.1291  0.9015
 2691TIP3    H229633   0.810   0.938   8.214 -0.9619 -2.0458 -0.6899
 2692TIP3   OH229634   5.329   0.300   7.684 -0.0323 -0.2594 -0.3064
 2692TIP3    H129635   5.381   0.235   7.636 -1.7279 -1.8206 -0.1431
 2692TIP3    H229636   5.253   0.317   7.628  1.1491  2.9731 -1.1517
 2693TIP3   OH229637   4.629   3.478   2.543  0.0118  0.6555 -0.1460
 2693TIP3    H129638   4.560   3.439   2.597  1.4803 -3.1817 -0.7216
 2693TIP3    H229639   4.704   3.486   2.601 -0.0638  2.1927 -0.2170
 2694TIP3   OH229640   4.960   1.105   8.356  0.1894 -0.6409 -0.1252
 2694TIP3    H129641   4.942   1.040   8.423 -0.2978 -1.0783 -0.6641
 2694TIP3    H229642   5.043   1.145   8.382  0.2342 -1.1181  0.4842
 2695TIP3   OH229643   4.023   4.097   8.619  0.0965  0.1980 -0.0056
 2695TIP3    H129644   3.985   4.085   8.532 -0.2250 -2.0793  0.3716
 2695TIP3    H229645   4.091   4.030   8.625  0.8133  0.9953  1.1287
 2696TIP3   OH229646   4.649   4.532   1.832 -0.4274  0.2470  0.0887
 2696TIP3    H129647   4.605   4.530   1.917 -0.6271  0.3091 -0.0122
 2696TIP3    H229648   4.585   4.571   1.773 -0.8170 -1.0918 -0.3926
 2697TIP3   OH229649   4.409   3.007   1.461 -0.3426 -0.0488  0.1412
 2697TIP3    H129650   4.388   2.914   1.452 -1.5966  0.3589 -1.3846
 2697TIP3    H229651   4.436   3.016   1.553 -0.8599 -1.7809  0.5018
 2698TIP3   OH229652   4.572   0.098   0.319  0.0246  0.8168 -0.7930
 2698TIP3    H129653   4.560   0.178   0.369  0.5398  0.7887 -0.6136
 2698TIP3    H229654   4.635   0.047   0.370  0.9234  0.9829 -1.6862
 2699TIP3   OH229655   2.126   1.589   7.897  0.3432 -0.0478 -0.2498
 2699TIP3    H129656   2.220   1.604   7.889  0.5180 -1.0642 -0.2257
 2699TIP3    H229657   2.115   1.551   7.984 -0.2716  1.2771  0.2898
 2700TIP3   OH229658   2.501   0.921   6.647 -0.5868  0.0357  0.6282
 2700TIP3    H129659   2.410   0.920   6.676 -0.4411 -0.4397  1.0857
 2700TIP3    H229660   2.510   0.841   6.595 -0.4991  0.2176  0.3623
 2701TIP3   OH229661   4.722   6.556   0.046  0.3178 -0.7100 -0.2461
 2701TIP3    H129662   4.809   6.577   0.080 -0.2752  0.8047  0.3952
 2701TIP3    H229663   4.665   6.556   0.122 -0.1649 -2.3290 -0.5736
 2702TIP3   OH229664   3.276   4.748   8.195 -0.2075  0.1521  0.2402
 2702TIP3    H129665   3.343   4.752   8.263 -0.4984 -1.4304  0.6652
 2702TIP3    H229666   3.324   4.726   8.115 -0.2106 -1.3050  0.6062
 2703TIP3   OH229667   0.229   4.344   8.327 -0.1877 -0.1097  0.2555
 2703TIP3    H129668   0.241   4.422   8.273 -0.0276 -0.5231 -0.3094
 2703TIP3    H229669   0.175   4.374   8.400  1.5454  1.0376  1.1463
 2704TIP3   OH229670   1.883   0.473   2.231  0.3423  0.3751  0.3752
 2704TIP3    H129671   1.827   0.457   2.306  1.0019  0.0856  0.8176
 2704TIP3    H229672   1.962   0.514   2.267 -0.1536  2.1368 -0.4023
 2705TIP3   OH229673   4.366   6.092   0.389 -0.1481 -0.4278 -0.3915
 2705TIP3    H129674   4.431   6.022   0.393 -1.9851 -2.1915  1.3834
 2705TIP3    H229675   4.307   6.065   0.318 -0.4835 -0.3324 -0.1503
 2706TIP3   OH229676   3.099   0.552   7.669 -0.3341  0.0115  0.1347
 2706TIP3    H129677   3.015   0.555   7.623 -0.0529 -0.1995 -0.4031
 2706TIP3    H229678   3.139   0.470   7.641  2.0943  2.0906 -3.3327
 2707TIP3   OH229679   2.370   5.331   2.079 -0.0332 -0.1622 -0.2671
 2707TIP3    H129680   2.321   5.323   2.161  1.5550  0.6685  0.8244
 2707TIP3    H229681   2.448   5.278   2.093  0.5084  0.4131 -1.0474
 2708TIP3   OH229682   4.326   5.929   1.958 -0.1465  0.7344  0.0342
 2708TIP3    H129683   4.354   5.861   2.019  2.1671  0.0466 -1.6288
 2708TIP3    H229684   4.373   6.007   1.985 -0.1775  0.7821 -0.0483
 2709TIP3   OH229685   3.327   1.569   6.949  0.1122 -0.3417 -0.7063
 2709TIP3    H129686   3.336   1.480   6.916  0.2100 -0.1220 -1.2864
 2709TIP3    H229687   3.291   1.618   6.875  0.7143  0.2451 -0.6139
 2710TIP3   OH229688   0.740   6.422   0.344  0.1375 -0.3538 -0.4250
 2710TIP3    H129689   0.801   6.349   0.359  0.2097 -0.3429 -0.6575
 2710TIP3    H229690   0.744   6.474   0.424 -0.1339 -0.7648 -0.1443
 2711TIP3   OH229691   4.656   2.530   7.982  0.1432 -0.5423 -0.2960
 2711TIP3    H129692   4.655   2.471   8.057 -2.5676 -1.5719 -1.0040
 2711TIP3    H229693   4.690   2.476   7.910 -3.2870 -1.8038 -1.1867
 2712TIP3   OH229694   6.370   1.302   7.098  0.1115 -0.0026 -0.4155
 2712TIP3    H129695   6.380   1.355   7.178 -1.0991  0.9728 -0.8850
 2712TIP3    H229696   6.409   1.356   7.029 -0.1497 -0.2041 -0.7211
 2713TIP3   OH229697   3.467   6.776   7.730 -0.9647  0.3583 -0.1398
 2713TIP3    H129698   3.376   6.800   7.712 -0.9340  0.5591 -0.0348
 2713TIP3    H229699   3.500   6.848   7.783 -0.4407  0.7897 -1.0411
 2714TIP3   OH229700   1.845   0.947   7.949 -0.2934  0.5019  0.1415
 2714TIP3    H129701   1.785   0.959   8.023 -0.6196 -0.2525  0.0105
 2714TIP3    H229702   1.837   1.028   7.899  0.2245  1.1861  1.1329
 2715TIP3   OH229703   6.618   2.513   1.107  0.1645  0.0021  0.6096
 2715TIP3    H129704   6.683   2.574   1.073  0.0087 -0.4865 -0.6287
 2715TIP3    H229705   6.670   2.443   1.146  0.4516 -0.7643 -1.0415
 2716TIP3   OH229706   4.201   0.457   8.095  0.3182  0.4367  0.0508
 2716TIP3    H129707   4.242   0.457   8.182 -0.9224 -0.3170  0.6721
 2716TIP3    H229708   4.240   0.384   8.049  0.8667  0.7420  0.0252
 2717TIP3   OH229709   0.408   2.120   6.866  0.1987  0.5434 -0.3950
 2717TIP3    H129710   0.470   2.058   6.905  1.6311  0.7940 -2.1349
 2717TIP3    H229711   0.343   2.136   6.934  1.3201 -0.7665  1.0357
 2718TIP3   OH229712   4.315   5.451   6.402 -0.4901  0.2100 -0.0379
 2718TIP3    H129713   4.236   5.398   6.410 -0.6830  0.5811  0.5327
 2718TIP3    H229714   4.382   5.389   6.373 -0.8310 -0.2424  0.1300
 2719TIP3   OH229715   3.459   1.130   7.685 -0.4932  0.3791  0.1325
 2719TIP3    H129716   3.503   1.127   7.599 -2.6042  1.8884 -1.0904
 2719TIP3    H229717   3.438   1.039   7.704  0.3982 -0.0374 -0.7262
 2720TIP3   OH229718   4.344   6.875   0.658  0.6712 -0.0784  0.6225
 2720TIP3    H129719   4.385   6.960   0.643 -0.9534  0.7058  0.3900
 2720TIP3    H229720   4.344   6.833   0.572 -1.3735  1.0483  0.0228
 2721TIP3   OH229721   0.505   6.441   2.307 -0.0014 -0.7840 -0.2573
 2721TIP3    H129722   0.445   6.463   2.236 -1.9741  2.4293  2.1116
 2721TIP3    H229723   0.449   6.407   2.377  1.0945  0.6243  1.3941
 2722TIP3   OH229724   4.654   0.529   0.037  0.2048  0.0888  0.1497
 2722TIP3    H129725   4.569   0.561   0.065 -0.4554 -1.8569  0.4913
 2722TIP3    H229726   4.716   0.566   0.101 -0.6908 -0.4546  1.3613
 2723TIP3   OH229727   5.841   3.858   1.566 -0.8130  0.1007  0.2248
 2723TIP3    H129728   5.753   3.884   1.593 -0.2286  0.9076  1.4627
 2723TIP3    H229729   5.834   3.764   1.550 -2.1744  0.3734 -0.9468
 2724TIP3   OH229730   4.609   2.079   2.262  0.5409  0.6614 -0.7240
 2724TIP3    H129731   4.681   2.055   2.203  1.6202  0.0006  0.8075
 2724TIP3    H229732   4.643   2.152   2.314 -0.7598  1.9119 -1.5433
 2725TIP3   OH229733   1.346   2.686   6.167 -0.1023 -0.3921 -0.0878
 2725TIP3    H129734   1.348   2.774   6.206  2.9035 -1.9087  3.8707
 2725TIP3    H229735   1.270   2.644   6.207  0.6414 -0.7004  1.0314
 2726TIP3   OH229736   3.405   3.041   7.842 -0.0943  0.3714 -0.1189
 2726TIP3    H129737   3.336   3.013   7.782  0.9213  0.3869 -1.3450
 2726TIP3    H229738   3.451   2.961   7.865  0.1293  0.4921 -0.1459
 2727TIP3   OH229739   3.770   4.095   0.373  0.3107  0.3597  0.4704
 2727TIP3    H129740   3.853   4.113   0.329 -0.3913  0.4084 -0.8955
 2727TIP3    H229741   3.762   4.164   0.439  1.0752  0.6893  0.2276
 2728TIP3   OH229742   6.269   1.505   8.392  0.4392  0.1682  0.3298
 2728TIP3    H129743   6.345   1.503   8.334  0.9104  1.5958  0.8384
 2728TIP3    H229744   6.206   1.563   8.347 -0.3943 -1.0311 -0.1066
 2729TIP3   OH229745   1.282   2.779   0.905 -0.0130 -0.3156  0.3051
 2729TIP3    H129746   1.328   2.707   0.947  0.2921 -0.8511 -0.8981
 2729TIP3    H229747   1.194   2.776   0.942  0.3111 -0.6108  1.0719
 2730TIP3   OH229748   1.338   3.538   6.798  0.4789 -0.3396 -0.2762
 2730TIP3    H129749   1.296   3.570   6.718  0.2475  0.2282  0.0694
 2730TIP3    H229750   1.289   3.579   6.869  1.6289  0.3696  0.1337
 2731TIP3   OH229751   1.616   2.297   7.532 -0.7979 -0.1381 -0.3146
 2731TIP3    H129752   1.530   2.336   7.517 -1.1162 -0.6295  0.1959
 2731TIP3    H229753   1.618   2.221   7.474  0.0890  0.9807 -1.8202
 2732TIP3   OH229754   4.843   1.428   8.438  0.4861 -0.2783  0.2972
 2732TIP3    H129755   4.934   1.404   8.420  0.6390 -0.9484  1.8198
 2732TIP3    H229756   4.815   1.369   8.508 -1.3308 -0.4904 -0.5466
 2733TIP3   OH229757   4.017   1.876   7.168 -0.0391 -0.1606 -0.9309
 2733TIP3    H129758   3.935   1.883   7.216 -0.1188 -0.2854 -1.0480
 2733TIP3    H229759   4.058   1.962   7.179  0.5778 -0.5983  0.5003
 2734TIP3   OH229760   5.902   6.317   0.365  0.2230 -0.1314  0.4472
 2734TIP3    H129761   5.926   6.303   0.274  1.7485 -0.3254  0.8466
 2734TIP3    H229762   5.807   6.312   0.366  0.1954 -0.3627 -1.0869
 2735TIP3   OH229763   6.626   5.265   8.159  0.0870  0.2118 -0.0968
 2735TIP3    H129764   6.562   5.336   8.150 -0.7278 -0.7022 -2.4122
 2735TIP3    H229765   6.668   5.280   8.243 -1.1011  2.5682  0.1434
 2736TIP3   OH229766   3.144   2.530   1.716 -0.3435 -0.3162  0.0559
 2736TIP3    H129767   3.155   2.543   1.810  0.7379 -0.5709 -0.0260
 2736TIP3    H229768   3.226   2.490   1.687 -1.7997 -3.2797 -0.4293
 2737TIP3   OH229769   1.257   4.103   1.387  0.1855 -0.6167 -0.2282
 2737TIP3    H129770   1.206   4.022   1.384 -0.0192 -0.4834 -0.3488
 2737TIP3    H229771   1.292   4.106   1.476 -1.4622  0.1850  0.4317
 2738TIP3   OH229772   5.274   6.502   1.640  0.2299  0.0718  0.0545
 2738TIP3    H129773   5.355   6.526   1.594  1.3334 -1.5561  1.0418
 2738TIP3    H229774   5.208   6.561   1.605  1.8127  1.3496 -0.9081
 2739TIP3   OH229775   3.897   2.665   7.190  0.1535  0.2065  0.0590
 2739TIP3    H129776   3.959   2.615   7.137 -0.3823 -0.4560  0.0506
 2739TIP3    H229777   3.948   2.693   7.267  0.6147  0.1724 -0.2328
 2740TIP3   OH229778   5.191   4.787   1.349 -0.6596  0.6485  0.6008
 2740TIP3    H129779   5.272   4.832   1.324  1.1048 -2.0573  1.0595
 2740TIP3    H229780   5.152   4.760   1.266  1.4379 -2.0416  0.3377
 2741TIP3   OH229781   1.641   6.798   0.448  0.0720 -0.0926  0.2512
 2741TIP3    H129782   1.668   6.760   0.365  1.7261  1.7835 -0.1772
 2741TIP3    H229783   1.657   6.730   0.513  2.6737 -0.3122 -0.5003
 2742TIP3   OH229784   2.219   0.713   1.468  0.5385  0.0893  0.0626
 2742TIP3    H129785   2.147   0.764   1.506 -0.3953 -0.0758 -1.3956
 2742TIP3    H229786   2.271   0.685   1.543 -0.1181  1.4034  1.0540
 2743TIP3   OH229787   2.937   5.934   2.663 -0.5098 -0.0535  0.6219
 2743TIP3    H129788   2.877   5.958   2.592 -0.4321  0.4945  0.7366
 2743TIP3    H229789   3.010   5.995   2.653 -0.5110  0.0401  1.1870
 2744TIP3   OH229790   0.672   2.229   7.149 -0.1458  0.0831 -0.3304
 2744TIP3    H129791   0.587   2.273   7.149 -0.3551 -0.3072 -1.0366
 2744TIP3    H229792   0.683   2.197   7.059  1.1751  0.9397 -0.5052
 2745TIP3   OH229793   1.290   1.490   0.838 -0.4245  0.0663 -0.3996
 2745TIP3    H129794   1.334   1.485   0.923  0.3840  0.5768 -0.7823
 2745TIP3    H229795   1.311   1.577   0.805 -0.1648 -0.3823 -1.4361
 2746TIP3   OH229796   0.648   2.576   7.071  0.2326 -0.7354  0.1910
 2746TIP3    H129797   0.679   2.650   7.018  0.4988  0.2714  1.6733
 2746TIP3    H229798   0.725   2.521   7.083  0.3367 -0.6136  0.0944
 2747TIP3   OH229799   5.791   4.320   1.714 -0.4587 -0.0041 -0.4323
 2747TIP3    H129800   5.846   4.286   1.644  0.2702  1.3954 -0.5693
 2747TIP3    H229801   5.711   4.350   1.669 -0.2214  0.3837 -0.6045
 2748TIP3   OH229802   4.662   3.574   1.450  0.1061 -0.6130 -0.3233
 2748TIP3    H129803   4.584   3.622   1.475  0.0912  0.1726 -1.7841
 2748TIP3    H229804   4.730   3.607   1.509  0.0235  0.9999 -1.0701
 2749TIP3   OH229805   1.222   5.706   1.662  0.7886  0.5158  0.1609
 2749TIP3    H129806   1.133   5.727   1.689  0.4865 -0.0938 -0.3381
 2749TIP3    H229807   1.258   5.655   1.735  0.4343  0.0230 -0.0072
 2750TIP3   OH229808   4.140   4.037   1.146 -0.9282 -0.2278  0.3736
 2750TIP3    H129809   4.056   4.010   1.108  0.2405 -0.8179 -1.9076
 2750TIP3    H229810   4.147   4.130   1.126 -0.7139 -0.3408 -0.0794
 2751TIP3   OH229811   3.369   2.516   7.803  0.3448 -0.0973  0.0545
 2751TIP3    H129812   3.402   2.602   7.776 -0.3819  0.1613 -0.0219
 2751TIP3    H229813   3.274   2.526   7.805  0.1291 -1.4196 -1.7334
 2752TIP3   OH229814   1.760   5.056   7.327 -0.0599  0.0066 -0.2056
 2752TIP3    H129815   1.703   5.076   7.253  1.7988  2.3059 -1.1433
 2752TIP3    H229816   1.733   5.116   7.396 -0.6987 -0.9831  0.4250
 2753TIP3   OH229817   5.871   6.815   1.145  0.0015 -0.6773  0.0708
 2753TIP3    H129818   5.901   6.846   1.231  0.3263 -0.0394 -0.2648
 2753TIP3    H229819   5.880   6.891   1.088 -0.6745 -0.9598 -0.4256
 2754TIP3   OH229820   2.325   2.623   1.129  0.1633 -0.3609 -0.8846
 2754TIP3    H129821   2.390   2.565   1.090  1.5333  0.8918 -0.5786
 2754TIP3    H229822   2.321   2.698   1.070  1.2759  0.9418  0.5868
 2755TIP3   OH229823   1.181   3.875   1.067  0.0943 -0.1882  0.0945
 2755TIP3    H129824   1.168   3.780   1.076  1.9839 -0.4886 -0.0513
 2755TIP3    H229825   1.123   3.912   1.134 -1.0760 -1.3853 -0.1885
 2756TIP3   OH229826   0.875   6.860   7.772  0.2256 -0.3781 -0.8570
 2756TIP3    H129827   0.914   6.922   7.710  2.6709 -0.1542  0.7656
 2756TIP3    H229828   0.887   6.775   7.731  1.1122 -0.1679 -1.0591
 2757TIP3   OH229829   4.324   1.107   0.227 -0.7556 -0.7223 -0.1289
 2757TIP3    H129830   4.279   1.024   0.209  0.3067 -0.8306 -2.7654
 2757TIP3    H229831   4.291   1.167   0.160  0.4591  0.2069  0.0719
 2758TIP3   OH229832   2.376   1.430   6.233 -0.5807 -0.1838  0.3351
 2758TIP3    H129833   2.303   1.472   6.187 -0.8753 -0.1233  0.8477
 2758TIP3    H229834   2.425   1.502   6.271 -0.3723 -0.2364  0.1641
 2759TIP3   OH229835   5.822   5.486   0.125  0.1497  0.4388 -0.1979
 2759TIP3    H129836   5.902   5.435   0.114 -0.9716 -1.3801 -0.4687
 2759TIP3    H229837   5.817   5.540   0.046  0.8839  0.2320 -0.3898
 2760TIP3   OH229838   5.553   2.547   0.250 -0.2497 -0.2955 -0.4194
 2760TIP3    H129839   5.561   2.636   0.215  0.2238 -0.4737 -0.7584
 2760TIP3    H229840   5.459   2.536   0.265 -0.2835  0.3675 -0.0984
 2761TIP3   OH229841   2.376   3.079   8.401 -0.4643  0.0656 -0.1891
 2761TIP3    H129842   2.423   3.053   8.480  0.1619  0.1505 -0.5293
 2761TIP3    H229843   2.291   3.035   8.409  0.1379 -1.1336 -0.1867
 2762TIP3   OH229844   6.488   1.568   1.522 -0.3831 -0.3319 -0.3368
 2762TIP3    H129845   6.555   1.630   1.550 -0.9459  0.8050 -1.4015
 2762TIP3    H229846   6.408   1.620   1.515 -1.3272 -1.5979  0.6120
 2763TIP3   OH229847   2.593   4.155   1.130 -0.0778  0.4951 -0.8875
 2763TIP3    H129848   2.580   4.220   1.061  1.8489 -0.8629 -2.6328
 2763TIP3    H229849   2.594   4.071   1.084  1.6762 -0.4273  0.7154
 2764TIP3   OH229850   2.996   3.968   0.877  0.1816 -0.2086 -0.0064
 2764TIP3    H129851   2.940   3.977   0.800  1.5022 -1.4588 -1.1549
 2764TIP3    H229852   3.083   3.997   0.848  0.4011  0.7258  1.4538
 2765TIP3   OH229853   1.597   1.707   1.947  0.2638  0.1891  0.0197
 2765TIP3    H129854   1.519   1.658   1.921 -0.1052  1.1944 -0.8812
 2765TIP3    H229855   1.617   1.677   2.036 -0.4502 -0.9270 -0.1784
 2766TIP3   OH229856   4.832   2.858   8.087  0.0428  0.2989  0.2684
 2766TIP3    H129857   4.781   2.855   8.007 -0.9935 -1.0924  0.9463
 2766TIP3    H229858   4.868   2.947   8.089 -0.6746  0.6523 -1.2437
 2767TIP3   OH229859   5.113   5.817   0.774  0.5199 -0.5078  0.3500
 2767TIP3    H129860   5.144   5.727   0.776 -1.4753 -1.3091 -1.3329
 2767TIP3    H229861   5.193   5.870   0.779  1.9234 -2.3770 -0.9581
 2768TIP3   OH229862   5.900   1.394   7.145 -0.4183 -0.3046 -0.0941
 2768TIP3    H129863   5.835   1.350   7.091 -0.5670  0.0395 -0.1951
 2768TIP3    H229864   5.866   1.389   7.234 -0.5765 -0.1356 -0.1451
 2769TIP3   OH229865   4.808   6.479   0.627 -0.8501  0.3838 -0.3797
 2769TIP3    H129866   4.857   6.541   0.573 -0.5949  0.5706  0.0569
 2769TIP3    H229867   4.750   6.535   0.680 -0.8403  0.2310 -0.2069
 2770TIP3   OH229868   4.370   4.569   0.740  0.4392 -0.0469 -0.2239
 2770TIP3    H129869   4.384   4.663   0.752 -0.6983  0.0428  0.6362
 2770TIP3    H229870   4.312   4.544   0.812  0.4549 -1.3434 -0.6303
 2771TIP3   OH229871   2.546   1.908   7.257  0.0343  0.6414  0.0715
 2771TIP3    H129872   2.474   1.889   7.196  1.3171  1.1564 -1.6869
 2771TIP3    H229873   2.504   1.952   7.331 -1.7333 -1.0111  0.1147
 2772TIP3   OH229874   1.638   1.722   8.504 -0.1434  0.6023 -0.3519
 2772TIP3    H129875   1.599   1.789   8.560 -0.0691  0.2015  0.1841
 2772TIP3    H229876   1.655   1.767   8.421 -0.5250  1.1213 -0.1515
 2773TIP3   OH229877   2.535   3.525   0.452 -0.0250  0.3037  0.2175
 2773TIP3    H129878   2.443   3.500   0.463 -0.0252  0.5841  0.9142
 2773TIP3    H229879   2.548   3.529   0.358 -0.5663 -0.3303  0.1082
 2774TIP3   OH229880   1.791   2.868   2.176 -0.2808 -0.4396  0.1353
 2774TIP3    H129881   1.743   2.846   2.096 -0.7734 -0.7480  0.5125
 2774TIP3    H229882   1.879   2.892   2.145  0.2738 -2.8130 -0.3220
 2775TIP3   OH229883   0.384   2.149   1.092 -0.6617 -0.1936  0.7068
 2775TIP3    H129884   0.479   2.139   1.085 -0.6772 -0.9215  1.4730
 2775TIP3    H229885   0.352   2.062   1.116 -1.3841  0.3390  1.7512
 2776TIP3   OH229886   0.658   3.839   8.636  0.0891  0.1487  0.2705
 2776TIP3    H129887   0.662   3.935   8.636 -0.0265  0.1652  1.1621
 2776TIP3    H229888   0.749   3.811   8.645  0.1237  0.1809  0.0009
 2777TIP3   OH229889   3.811   3.821   6.889 -0.1506  0.6417 -0.4009
 2777TIP3    H129890   3.850   3.852   6.807 -0.3441  1.5986 -0.1433
 2777TIP3    H229891   3.732   3.774   6.863  0.8529 -0.8515 -0.8938
 2778TIP3   OH229892   0.305   4.818   6.352  0.4107 -0.3031  0.5271
 2778TIP3    H129893   0.355   4.892   6.384  1.0198 -0.0143 -1.0186
 2778TIP3    H229894   0.349   4.741   6.389 -0.1446  0.0508  2.0191
 2779TIP3   OH229895   2.245   0.428   8.618  0.5674 -0.2255 -0.4182
 2779TIP3    H129896   2.153   0.438   8.595  0.1378  1.2919  1.6167
 2779TIP3    H229897   2.253   0.337   8.646 -0.2103 -0.4802 -1.0007
 2780TIP3   OH229898   3.237   1.269   8.210  0.0238 -0.1389  0.5321
 2780TIP3    H129899   3.153   1.262   8.166  0.2454 -1.0806  0.2211
 2780TIP3    H229900   3.280   1.185   8.193  1.9191  1.0699 -1.1022
 2781TIP3   OH229901   2.885   3.847   7.519  0.5096 -0.0366 -0.1076
 2781TIP3    H129902   2.959   3.796   7.488  3.5641  2.5585  2.2452
 2781TIP3    H229903   2.908   3.938   7.499 -1.7468  0.9284  1.2510
 2782TIP3   OH229904   2.221   4.148   1.898  0.0633 -0.0868 -0.3968
 2782TIP3    H129905   2.215   4.169   1.805 -0.1174 -0.2178 -0.4137
 2782TIP3    H229906   2.134   4.117   1.922  0.2192 -0.4240 -0.2709
 2783TIP3   OH229907   0.365   3.448   7.100  0.3510  0.3995 -0.3182
 2783TIP3    H129908   0.269   3.447   7.093  0.4309  0.9426 -2.0290
 2783TIP3    H229909   0.388   3.541   7.102  0.8688  0.2740 -0.2929
 2784TIP3   OH229910   0.502   4.196   8.540  0.2600  0.5729 -0.1506
 2784TIP3    H129911   0.418   4.231   8.509 -0.1512  2.7500  2.9042
 2784TIP3    H229912   0.478   4.130   8.605  0.8412  1.2898  0.8323
 2785TIP3   OH229913   3.157   2.808   6.881  0.0914  0.2220  0.5219
 2785TIP3    H129914   3.220   2.833   6.949  0.6861  0.6364 -0.1658
 2785TIP3    H229915   3.179   2.717   6.861  0.1051  0.1902  0.6785
 2786TIP3   OH229916   3.338   2.262   0.732 -0.2540  0.0355 -0.1372
 2786TIP3    H129917   3.425   2.300   0.721 -0.6154  1.4497  1.4813
 2786TIP3    H229918   3.325   2.209   0.653  1.5049  0.8905 -1.0652
 2787TIP3   OH229919   2.911   5.627   2.620  0.3932 -0.1788  0.0338
 2787TIP3    H129920   2.838   5.688   2.625 -1.4730 -2.1788 -1.0679
 2787TIP3    H229921   2.986   5.681   2.597 -0.9992  1.7668 -0.1590
 2788TIP3   OH229922   6.052   0.433   1.075  0.6182 -0.2644 -0.9882
 2788TIP3    H129923   6.125   0.430   1.138 -0.1915  1.2959  0.1016
 2788TIP3    H229924   6.094   0.432   0.989  1.8710 -0.3497 -0.3971
 2789TIP3   OH229925   2.733   5.743   7.643 -0.4086 -0.2196 -0.4407
 2789TIP3    H129926   2.816   5.757   7.690 -0.5511 -2.7351  0.6928
 2789TIP3    H229927   2.759   5.732   7.552  0.1953  1.5707 -0.5311
 2790TIP3   OH229928   0.689   5.710   7.765 -0.2284 -0.3070  0.3812
 2790TIP3    H129929   0.676   5.718   7.670 -0.7656  0.0424  0.4839
 2790TIP3    H229930   0.741   5.630   7.775 -1.3402 -1.1226 -0.1178
 2791TIP3   OH229931   2.551   1.298   7.251  0.2852  0.1789  0.6177
 2791TIP3    H129932   2.544   1.386   7.288 -0.7677  1.4624 -2.2855
 2791TIP3    H229933   2.482   1.249   7.295 -2.1353  2.1305 -0.6700
 2792TIP3   OH229934   4.226   2.037   7.520  0.3363  0.2583 -0.1022
 2792TIP3    H129935   4.254   2.127   7.537  1.2694 -0.1312  0.4854
 2792TIP3    H229936   4.132   2.044   7.505  0.0548  1.1142  1.7334
 2793TIP3   OH229937   6.804   0.986   6.843  0.0831 -0.1214  0.6316
 2793TIP3    H129938   6.802   0.907   6.898 -0.4804  0.2220  1.1124
 2793TIP3    H229939   6.830   1.056   6.903  0.0212  0.1559  0.3332
 2794TIP3   OH229940   3.040   4.715   1.695  0.2037 -0.4834  0.0617
 2794TIP3    H129941   2.958   4.714   1.644  0.2752 -0.8814 -0.0495
 2794TIP3    H229942   3.048   4.805   1.726 -0.3822 -0.4870  0.2376
 2795TIP3   OH229943   3.736   3.818   0.493 -0.5268  0.5857  0.1834
 2795TIP3    H129944   3.734   3.832   0.588 -0.3814  1.5388  0.0581
 2795TIP3    H229945   3.749   3.906   0.456  0.1552  0.1266 -0.6930
 2796TIP3   OH229946   4.785   6.424   1.508  0.2780  1.0509  0.1285
 2796TIP3    H129947   4.848   6.470   1.452  1.3003 -0.3193  0.1057
 2796TIP3    H229948   4.738   6.366   1.448  1.0328 -0.0598  0.5892
 2797TIP3   OH229949   4.101   5.190   2.578 -0.2907  0.0876 -0.1489
 2797TIP3    H129950   4.016   5.227   2.554 -0.7327 -1.2887 -0.8081
 2797TIP3    H229951   4.165   5.238   2.525 -0.7654  0.3934 -0.4427
 2798TIP3   OH229952   3.315   5.206   0.502 -0.3674 -0.3374  0.4887
 2798TIP3    H129953   3.349   5.287   0.466 -0.0497 -0.0768  1.3472
 2798TIP3    H229954   3.220   5.212   0.491 -0.2250 -0.8286 -1.4243
 2799TIP3   OH229955   2.284   3.707   2.419 -0.4155 -0.6154  0.5678
 2799TIP3    H129956   2.295   3.757   2.499  1.2498 -1.3420  0.8246
 2799TIP3    H229957   2.348   3.636   2.426  1.3626  0.5396 -2.3888
 2800TIP3   OH229958   4.583   0.433   0.800 -0.4500 -0.2022  0.3069
 2800TIP3    H129959   4.530   0.512   0.798  0.0441  0.1539  1.0675
 2800TIP3    H229960   4.621   0.431   0.888 -3.1631 -3.0794  1.5842
 2801TIP3   OH229961   3.547   4.058   1.460  0.1189 -0.1016  0.0674
 2801TIP3    H129962   3.621   4.104   1.422  1.4921 -2.9255 -0.9494
 2801TIP3    H229963   3.577   4.032   1.547  1.7205 -3.8430 -1.3881
 2802TIP3   OH229964   1.769   3.170   8.231  0.0121 -0.7463  0.1361
 2802TIP3    H129965   1.787   3.224   8.154 -2.3203 -0.1983 -0.0994
 2802TIP3    H229966   1.850   3.172   8.282  1.4370 -0.6739 -2.0100
 2803TIP3   OH229967   2.782   1.761   6.854 -0.2182 -0.7940  0.0265
 2803TIP3    H129968   2.788   1.720   6.941  0.2378 -1.1275 -0.1573
 2803TIP3    H229969   2.688   1.773   6.839 -0.3410  3.0612  2.3314
 2804TIP3   OH229970   3.668   1.850   8.381  0.3037 -0.1322  0.2128
 2804TIP3    H129971   3.646   1.805   8.299  0.1190  1.0014 -0.3765
 2804TIP3    H229972   3.707   1.932   8.353 -0.1438  0.4519  1.2663
 2805TIP3   OH229973   5.433   6.747   0.308  0.2853 -0.1804  0.4051
 2805TIP3    H129974   5.380   6.668   0.304 -1.7782  1.1317  0.4194
 2805TIP3    H229975   5.513   6.720   0.354  0.6007 -2.7038 -1.4177
 2806TIP3   OH229976   1.031   4.453   1.692  0.0315 -0.2989 -0.2505
 2806TIP3    H129977   0.940   4.429   1.671 -1.0357  3.0912 -0.0391
 2806TIP3    H229978   1.073   4.464   1.606  0.6125 -2.6625 -0.3637
 2807TIP3   OH229979   3.398   3.120   0.806  0.0276  0.5195 -0.2951
 2807TIP3    H129980   3.382   3.150   0.896 -1.0166 -0.3258 -0.1793
 2807TIP3    H229981   3.417   3.200   0.757  0.2196  1.0340  0.5969
 2808TIP3   OH229982   4.224   1.907   1.548 -0.1287  0.1094 -0.1046
 2808TIP3    H129983   4.214   1.954   1.631  0.2467 -2.2365  1.3747
 2808TIP3    H229984   4.196   1.818   1.568 -0.8631 -0.3394 -2.7746
 2809TIP3   OH229985   1.442   3.984   0.738 -0.2546 -0.0078 -0.0324
 2809TIP3    H129986   1.480   4.006   0.653 -0.0817  0.6434  0.2074
 2809TIP3    H229987   1.501   3.917   0.773 -1.5156 -1.8953 -1.3318
 2810TIP3   OH229988   3.888   3.958   1.099 -0.2813  0.4903  0.6885
 2810TIP3    H129989   3.847   3.964   1.012 -0.2001  1.4276  0.6959
 2810TIP3    H229990   3.817   3.935   1.158 -0.5760  0.9715  0.5301
 2811TIP3   OH229991   6.484   3.457   1.035  0.1711  0.0503 -0.1335
 2811TIP3    H129992   6.464   3.365   1.021  1.5334 -0.3418  0.2857
 2811TIP3    H229993   6.576   3.466   1.009  0.7023  0.8098  1.7679
 2812TIP3   OH229994   6.451   3.835   1.378  0.5892  0.2858  0.1991
 2812TIP3    H129995   6.406   3.859   1.297  1.2954 -0.1548 -0.3396
 2812TIP3    H229996   6.492   3.750   1.358  1.3637  0.5125  0.7810
 2813TIP3   OH229997   5.431   2.987   1.671 -0.2813  0.4008 -0.2664
 2813TIP3    H129998   5.500   2.924   1.692  0.1290  0.9902  0.1885
 2813TIP3    H229999   5.366   2.937   1.622  0.6838 -0.0657 -1.0924
 2814TIP3   OH230000   3.099   6.675   7.898  0.0951  0.6677  0.0119
 2814TIP3    H130001   3.118   6.740   7.830  1.8321  1.8175  1.4695
 2814TIP3    H230002   3.178   6.622   7.902 -1.2181 -1.4609 -0.9887
 2815TIP3   OH230003   1.245   2.492   7.987 -0.6622 -0.4468 -0.2524
 2815TIP3    H130004   1.207   2.494   7.899 -1.6145 -1.7700  0.1078
 2815TIP3    H230005   1.239   2.582   8.018 -2.6866 -0.4433 -0.5600
 2816TIP3   OH230006   0.500   2.323   8.623  0.4050  0.2718  0.1356
 2816TIP3    H130007   0.528   2.234   8.643 -0.4723  0.1127  0.6869
 2816TIP3    H230008   0.408   2.326   8.649  0.6676  1.6169  0.9967
 2817TIP3   OH230009   1.891   5.555   8.621  0.5362 -0.9090  0.2844
 2817TIP3    H130010   1.923   5.601   8.544 -0.8420 -2.3828 -1.2476
 2817TIP3    H230011   1.900   5.462   8.599 -3.7541 -1.4464  0.0792
 2818TIP3   OH230012   1.888   1.615   0.077  0.5875  0.0333 -0.2420
 2818TIP3    H130013   1.908   1.567   0.157  1.9261 -2.3001 -1.8511
 2818TIP3    H230014   1.793   1.612   0.070  0.3915  0.8992  1.5787
 2819TIP3   OH230015   3.227   3.069   1.469  0.9128 -0.6653 -0.1517
 2819TIP3    H130016   3.277   3.130   1.523  0.3365 -0.4272  0.1154
 2819TIP3    H230017   3.188   3.122   1.401 -0.4392 -0.5410  0.6786
 2820TIP3   OH230018   5.723   2.851   0.778 -0.1778 -0.5062  0.4681
 2820TIP3    H130019   5.783   2.776   0.778 -0.4397 -0.7195  1.0730
 2820TIP3    H230020   5.770   2.918   0.827 -0.0843 -0.3895  0.2188
 2821TIP3   OH230021   3.396   3.382   0.230  0.3566 -0.1547 -0.6052
 2821TIP3    H130022   3.418   3.453   0.290 -0.5095  1.6032 -2.2665
 2821TIP3    H230023   3.366   3.311   0.286  0.1907  1.1786  1.0625
 2822TIP3   OH230024   3.130   3.039   6.029  0.4357  0.8301 -0.0992
 2822TIP3    H130025   3.039   3.023   6.053  1.3307 -2.7590  1.4801
 2822TIP3    H230026   3.127   3.052   5.934 -1.5382 -1.6418 -0.4803
 2823TIP3   OH230027   3.824   0.548   0.656 -0.2129  0.7392 -0.2835
 2823TIP3    H130028   3.896   0.486   0.644 -0.2596  0.0922  2.2701
 2823TIP3    H230029   3.862   0.633   0.633  1.0221  0.2602 -0.0825
 2824TIP3   OH230030   2.438   6.739   6.978  0.1433  0.1240 -0.1110
 2824TIP3    H130031   2.411   6.809   7.037  0.5766 -0.4881  0.8469
 2824TIP3    H230032   2.406   6.659   7.019  0.2362 -0.2950 -0.8394
 2825TIP3   OH230033   0.140   6.570   1.030  0.2790  0.4572  0.3405
 2825TIP3    H130034   0.099   6.604   0.951  0.3517  1.8033  0.8639
 2825TIP3    H230035   0.076   6.508   1.066  0.5449 -0.7246 -1.1322
 2826TIP3   OH230036   3.229   3.342   7.686 -0.5283  0.0135 -0.2174
 2826TIP3    H130037   3.193   3.424   7.652  0.5443  0.7085  0.2569
 2826TIP3    H230038   3.245   3.288   7.609  2.8738  1.9656 -1.0613
 2827TIP3   OH230039   5.366   5.001   2.254  0.2860  0.2144  0.0729
 2827TIP3    H130040   5.433   5.015   2.187 -0.9869  1.1978 -1.0649
 2827TIP3    H230041   5.380   4.912   2.284  1.5188  0.0868 -0.7871
 2828TIP3   OH230042   0.032   0.620   1.240  0.3634  0.4088  0.2403
 2828TIP3    H130043   0.012   0.699   1.190 -0.0110 -0.7175 -1.4725
 2828TIP3    H230044  -0.049   0.568   1.237  0.4012  0.2026  1.8565
 2829TIP3   OH230045   2.827   6.867   0.124  0.0247  0.3083  0.0269
 2829TIP3    H130046   2.864   6.947   0.085 -0.2748  0.7377  0.5986
 2829TIP3    H230047   2.752   6.898   0.175 -0.5352 -0.4362 -0.3224
 2830TIP3   OH230048   4.355   4.999   1.648 -0.1645 -0.5226  0.0879
 2830TIP3    H130049   4.348   5.083   1.604 -0.3368 -0.0711  0.9666
 2830TIP3    H230050   4.383   4.938   1.579 -2.1209 -0.1946 -1.0577
 2831TIP3   OH230051   4.321   5.076   1.921  0.1801  0.2521  0.2407
 2831TIP3    H130052   4.416   5.066   1.926  0.5881  2.8412 -0.6934
 2831TIP3    H230053   4.299   5.051   1.832 -0.3671 -2.1349  0.9693
 2832TIP3   OH230054   4.891   4.620   1.672  0.7799  0.0194  0.0777
 2832TIP3    H130055   4.818   4.626   1.733 -0.0775  0.5999 -0.9853
 2832TIP3    H230056   4.926   4.709   1.667 -0.0470  0.2851 -1.3334
 2833TIP3   OH230057   1.230   2.256   8.115 -0.7428  0.3157 -0.0133
 2833TIP3    H130058   1.177   2.254   8.194 -1.4514 -0.8627 -0.5026
 2833TIP3    H230059   1.231   2.349   8.090  0.5860  0.9147  2.0608
 2834TIP3   OH230060   0.229   1.647   0.665  0.1454 -0.1452 -0.6143
 2834TIP3    H130061   0.148   1.603   0.643  1.9009 -3.5216 -0.9909
 2834TIP3    H230062   0.269   1.592   0.732  1.8235  1.7763  0.0696
 2835TIP3   OH230063   2.620   6.475   2.188 -0.2154 -0.0874  0.5919
 2835TIP3    H130064   2.555   6.543   2.199  0.4054  0.8582 -1.2239
 2835TIP3    H230065   2.703   6.515   2.213  0.2831  0.1740 -1.2637
 2836TIP3   OH230066   1.794   5.780   7.991  0.5840 -0.1362  0.3436
 2836TIP3    H130067   1.784   5.702   8.045 -0.6850 -1.0624 -1.1575
 2836TIP3    H230068   1.793   5.748   7.901  0.6034  1.5598 -0.3028
 2837TIP3   OH230069   5.085   0.861   7.507  0.0586 -0.3956 -0.0123
 2837TIP3    H130070   5.036   0.873   7.426  0.2639 -1.3019 -0.2797
 2837TIP3    H230071   5.175   0.843   7.479 -0.0217 -1.4748  0.3792
 2838TIP3   OH230072   4.138   5.420   6.697 -0.1988 -0.1233 -0.0642
 2838TIP3    H130073   4.198   5.368   6.751 -0.1188 -1.0558 -1.0045
 2838TIP3    H230074   4.134   5.372   6.614  0.1741  1.5752 -1.1145
 2839TIP3   OH230075   5.503   4.111   6.445 -0.2627 -0.1945  0.9316
 2839TIP3    H130076   5.545   4.030   6.414  0.4610  0.5171 -0.0033
 2839TIP3    H230077   5.410   4.096   6.430  0.0286  0.1285 -1.7823
 2840TIP3   OH230078   0.393   2.188   8.376  0.0838  0.6011 -0.3361
 2840TIP3    H130079   0.428   2.246   8.444 -1.9463  0.8801  0.5421
 2840TIP3    H230080   0.422   2.101   8.403 -1.5430  0.5707  1.5438
 2841TIP3   OH230081   0.623   4.475   1.196  0.7051 -0.5270 -0.1406
 2841TIP3    H130082   0.627   4.408   1.265 -1.6945 -0.1815  0.4149
 2841TIP3    H230083   0.627   4.425   1.114  2.9758 -0.9840  0.1878
 2842TIP3   OH230084   6.161   6.881   0.714 -0.2988  0.0533 -0.3604
 2842TIP3    H130085   6.148   6.825   0.791  1.5017 -0.4964 -0.4094
 2842TIP3    H230086   6.122   6.965   0.739 -2.4916 -0.9870 -0.0367
 2843TIP3   OH230087   2.170   5.334   7.912 -0.0391 -0.5538  0.4315
 2843TIP3    H130088   2.263   5.316   7.910  0.0242 -0.1411 -0.7192
 2843TIP3    H230089   2.164   5.429   7.925 -0.3439 -0.8218  2.8433
 2844TIP3   OH230090   6.408   3.527   0.604 -1.0621  0.5117 -0.0894
 2844TIP3    H130091   6.501   3.517   0.584 -1.1452 -1.0966  0.1915
 2844TIP3    H230092   6.364   3.520   0.519 -0.9625  0.6483 -0.1510
 2845TIP3   OH230093   4.712   0.321   1.288 -0.3399 -0.2527  0.2594
 2845TIP3    H130094   4.729   0.242   1.237 -0.1341 -0.4515  0.6375
 2845TIP3    H230095   4.657   0.292   1.361  1.0474 -0.3512  1.3027
 2846TIP3   OH230096   5.628   3.926   0.330  0.8570  0.3610 -0.2196
 2846TIP3    H130097   5.598   3.916   0.239 -0.5771 -2.4166  0.4619
 2846TIP3    H230098   5.723   3.926   0.323  0.7856  0.9600 -1.7589
 2847TIP3   OH230099   2.984   6.122   0.750  0.0843 -0.1289  0.4106
 2847TIP3    H130100   2.974   6.143   0.842 -1.9671  3.6050 -0.4567
 2847TIP3    H230101   2.915   6.058   0.733  0.6634 -1.0672  1.4517
 2848TIP3   OH230102   4.530   5.949   8.393  0.2172 -0.5172  0.6659
 2848TIP3    H130103   4.533   5.854   8.400 -0.8486 -0.4688  2.3507
 2848TIP3    H230104   4.609   5.973   8.345 -0.2709 -2.3393 -1.1858
 2849TIP3   OH230105   0.819   2.268   8.124  0.6244 -0.5059 -0.1806
 2849TIP3    H130106   0.733   2.240   8.155  1.9583 -2.0592  2.5912
 2849TIP3    H230107   0.830   2.356   8.161 -0.3754  0.4319 -1.9988
 2850TIP3   OH230108   6.549   1.678   6.758  0.4084  0.6933 -0.4570
 2850TIP3    H130109   6.598   1.651   6.681 -1.2643  1.5967 -1.9133
 2850TIP3    H230110   6.487   1.744   6.726 -0.1294  1.3646  1.7223
 2851TIP3   OH230111   6.315   6.426   0.929 -0.0376  0.0163 -0.7125
 2851TIP3    H130112   6.363   6.489   0.983 -0.4330 -0.1279 -0.1891
 2851TIP3    H230113   6.290   6.475   0.851 -1.3808  0.8529  0.2122
 2852TIP3   OH230114   5.368   1.144   7.012 -0.3588 -0.0702 -0.0494
 2852TIP3    H130115   5.279   1.172   7.031 -0.1911  1.4217 -1.3032
 2852TIP3    H230116   5.360   1.088   6.934 -0.0756  1.3706 -1.1621
 2853TIP3   OH230117   3.361   6.601   6.823 -0.7490  0.2996  0.4713
 2853TIP3    H130118   3.304   6.541   6.871 -1.5783  0.1385 -0.6663
 2853TIP3    H230119   3.402   6.655   6.891 -1.8303  0.0432  1.3593
 2854TIP3   OH230120   6.182   0.193   1.423 -0.6393 -0.2351  0.0391
 2854TIP3    H130121   6.087   0.201   1.431 -0.6207 -0.9141  1.1085
 2854TIP3    H230122   6.197   0.099   1.410  0.0040 -0.4819  2.2035
 2855TIP3   OH230123   4.150   5.977   0.969 -0.2189 -0.5050  0.3528
 2855TIP3    H130124   4.181   6.031   0.896  0.5479 -1.3864  0.0193
 2855TIP3    H230125   4.192   6.015   1.047 -0.8389  0.2762  0.3267
 2856TIP3   OH230126   5.329   6.819   1.517 -0.2025  0.2873  0.5517
 2856TIP3    H130127   5.347   6.783   1.430 -1.0524 -0.9842  0.8693
 2856TIP3    H230128   5.413   6.817   1.561  0.2690  1.0778 -0.2797
 2857TIP3   OH230129   3.685   3.256   0.817  0.2926 -0.1208 -0.4079
 2857TIP3    H130130   3.636   3.214   0.887 -0.7120 -0.3749 -1.2359
 2857TIP3    H230131   3.653   3.215   0.736  1.2572  0.3176 -1.0439
 2858TIP3   OH230132   6.352   3.067   2.136  0.1627  0.5151  0.3559
 2858TIP3    H130133   6.262   3.044   2.112  0.0144  1.3129  0.1156
 2858TIP3    H230134   6.405   2.994   2.103 -0.1398  1.1381 -1.6058
 2859TIP3   OH230135   6.502   6.360   0.224  0.4233 -0.1103 -0.3394
 2859TIP3    H130136   6.407   6.348   0.224  0.4064  0.0236 -0.3149
 2859TIP3    H230137   6.534   6.298   0.289  0.0986  1.9539  1.9189
 2860TIP3   OH230138   1.108   2.642   0.230 -0.1241 -0.1984  0.2869
 2860TIP3    H130139   1.093   2.669   0.320 -1.1233 -4.0764  1.4618
 2860TIP3    H230140   1.194   2.600   0.232 -0.8473 -1.7583 -0.1212
 2861TIP3   OH230141   4.109   4.598   7.970 -0.0763  0.3048  0.3933
 2861TIP3    H130142   4.023   4.556   7.980  0.2122 -1.5167 -3.1302
 2861TIP3    H230143   4.164   4.531   7.931  2.6882  1.8063  1.4297
 2862TIP3   OH230144   5.366   5.293   7.990  0.3274 -0.1108  0.2157
 2862TIP3    H130145   5.398   5.213   8.030  2.5593  0.3482 -0.5180
 2862TIP3    H230146   5.424   5.362   8.023 -0.9447  1.0670  0.0932
 2863TIP3   OH230147   5.124   2.818   0.359 -0.1639 -0.6442  0.2748
 2863TIP3    H130148   5.076   2.777   0.431 -0.9089 -1.3787 -0.6308
 2863TIP3    H230149   5.080   2.788   0.280  0.4931  0.3578 -0.4898
 2864TIP3   OH230150   3.151   4.458   2.328 -0.0307  0.4490  0.1054
 2864TIP3    H130151   3.182   4.548   2.329  1.7377 -0.0930 -0.9251
 2864TIP3    H230152   3.231   4.405   2.336 -1.0726 -1.0419  1.3768
 2865TIP3   OH230153   4.601   5.928   1.152 -0.5249 -0.0451  0.2262
 2865TIP3    H130154   4.688   5.890   1.164 -1.9188 -3.4915  0.7040
 2865TIP3    H230155   4.557   5.917   1.237 -1.9893 -0.1217 -0.4988
 2866TIP3   OH230156   4.275   6.734   2.302 -0.5465 -0.5057 -0.1710
 2866TIP3    H130157   4.370   6.722   2.292 -0.3811  1.3155 -1.0833
 2866TIP3    H230158   4.267   6.806   2.364 -1.2483  0.9206 -1.8389
 2867TIP3   OH230159   5.615   2.246   8.604  0.1170  0.0096  0.4517
 2867TIP3    H130160   5.632   2.264   8.697  2.0606 -0.8121  0.3123
 2867TIP3    H230161   5.538   2.189   8.604  1.2492 -1.6226  1.7344
 2868TIP3   OH230162   3.823   1.112   8.609  0.0981 -0.0387  0.1048
 2868TIP3    H130163   3.729   1.097   8.597 -0.1370 -0.0225  1.7389
 2868TIP3    H230164   3.849   1.161   8.531 -1.0149 -0.9669 -0.8886
 2869TIP3   OH230165   2.952   6.570   8.103 -0.7805  0.5738  0.1718
 2869TIP3    H130166   2.990   6.594   8.019  1.9985  0.3289  1.2628
 2869TIP3    H230167   2.892   6.499   8.083 -0.3993  0.7170 -1.6375
 2870TIP3   OH230168   6.034   2.460   6.989 -0.0358 -0.0223  0.5939
 2870TIP3    H130169   6.086   2.389   6.952  0.3958 -1.1484  3.1677
 2870TIP3    H230170   5.961   2.471   6.927  1.2016 -0.9843 -1.1173
 2871TIP3   OH230171   3.078   5.368   6.659 -0.1061 -0.1061  0.8422
 2871TIP3    H130172   3.047   5.456   6.636  0.7922  0.5772  2.1414
 2871TIP3    H230173   3.009   5.333   6.716  0.3545  0.4623  1.7630
 2872TIP3   OH230174   6.398   1.216   6.798 -0.2396  0.2387 -0.0371
 2872TIP3    H130175   6.466   1.243   6.736  0.6360 -0.2063  0.7076
 2872TIP3    H230176   6.420   1.126   6.821 -0.8760  0.2043  0.4893
 2873TIP3   OH230177   6.768   0.582   7.217 -0.5345 -0.1048  0.6549
 2873TIP3    H130178   6.696   0.525   7.244 -1.5841  0.7422 -0.2273
 2873TIP3    H230179   6.812   0.535   7.146 -0.8091 -0.2289  0.5667
 2874TIP3   OH230180   2.223   1.220   8.558 -0.2896 -0.2862 -0.1902
 2874TIP3    H130181   2.279   1.259   8.491 -0.4902 -0.3679 -0.4057
 2874TIP3    H230182   2.156   1.286   8.574 -1.0775 -0.8425 -1.1079
 2875TIP3   OH230183   6.431   3.306   1.385 -0.1553 -0.2713  0.5173
 2875TIP3    H130184   6.432   3.273   1.475  3.4334 -0.8655  0.4244
 2875TIP3    H230185   6.454   3.230   1.331  1.3226  0.8029 -0.4588
 2876TIP3   OH230186   3.319   2.928   7.165  0.5069 -0.3829 -0.0235
 2876TIP3    H130187   3.375   3.003   7.185  0.5785 -0.2036 -0.8812
 2876TIP3    H230188   3.373   2.872   7.109 -0.8435  0.8021 -2.6832
 2877TIP3   OH230189   6.202   6.128   1.221 -0.1266 -0.4689  0.4756
 2877TIP3    H130190   6.275   6.128   1.282  0.2967 -2.3065  0.0403
 2877TIP3    H230191   6.124   6.123   1.277  0.0837  0.8459  0.9182
 2878TIP3   OH230192   6.470   3.813   8.421  0.3529 -0.4773  0.5514
 2878TIP3    H130193   6.536   3.803   8.490  1.1793  3.5729  0.6000
 2878TIP3    H230194   6.517   3.853   8.348 -1.6534  0.9461 -0.0576
 2879TIP3   OH230195   1.256   6.329   1.379 -0.0872 -0.1995 -0.1101
 2879TIP3    H130196   1.243   6.338   1.285 -2.1389  1.0685  0.2206
 2879TIP3    H230197   1.315   6.401   1.402  0.8139 -0.8058 -0.4596
 2880TIP3   OH230198   0.323   3.563   7.445 -0.3475 -0.0419 -0.1908
 2880TIP3    H130199   0.267   3.486   7.436  0.1413 -0.3881 -0.2927
 2880TIP3    H230200   0.281   3.630   7.391 -0.7702 -0.2375 -0.1050
 2881TIP3   OH230201   4.788   4.654   0.136  0.2129 -0.1726 -0.4806
 2881TIP3    H130202   4.858   4.617   0.083  0.1648 -0.4622 -0.3465
 2881TIP3    H230203   4.824   4.736   0.171  0.8577 -0.8223  0.4211
 2882TIP3   OH230204   2.014   4.885   8.570 -0.2581  0.3967  0.2250
 2882TIP3    H130205   1.936   4.906   8.622 -0.3600 -0.1871  0.3079
 2882TIP3    H230206   2.009   4.946   8.496  0.1033  1.5069  1.0931
 2883TIP3   OH230207   3.455   6.642   8.347  0.0237 -0.4036  0.5331
 2883TIP3    H130208   3.365   6.623   8.374 -0.1842 -0.8160 -0.4122
 2883TIP3    H230209   3.478   6.722   8.394 -1.2556  0.3638 -0.0980
 2884TIP3   OH230210   3.238   3.420   8.307  0.1696 -0.2330  0.2121
 2884TIP3    H130211   3.173   3.437   8.376  0.0655  0.9660 -0.1596
 2884TIP3    H230212   3.310   3.480   8.327  0.4727 -0.4343 -0.2737
 2885TIP3   OH230213   6.759   0.139   6.598 -0.0400  0.2026 -0.1533
 2885TIP3    H130214   6.812   0.067   6.563 -0.2335 -0.8111  1.5137
 2885TIP3    H230215   6.814   0.217   6.586  1.7105 -0.7608  1.1777
 2886TIP3   OH230216   5.888   4.093   1.210  0.1620  0.1484 -0.2339
 2886TIP3    H130217   5.927   4.027   1.152  1.4974  0.6255  0.0727
 2886TIP3    H230218   5.959   4.156   1.224 -0.9692  1.4553 -0.2235
 2887TIP3   OH230219   3.211   0.513   1.318 -0.0682 -0.1226 -0.0671
 2887TIP3    H130220   3.271   0.447   1.285  1.4103  1.9341 -1.8078
 2887TIP3    H230221   3.254   0.547   1.397 -1.3431 -1.8620  1.4500
 2888TIP3   OH230222   1.086   5.452   0.568 -0.2191  0.0297  0.0636
 2888TIP3    H130223   1.138   5.428   0.645 -0.2691 -0.8152 -0.1592
 2888TIP3    H230224   1.102   5.546   0.557 -1.8966  0.7241  2.4193
 2889TIP3   OH230225   3.850   1.496   1.879  0.3630  0.5102  0.3296
 2889TIP3    H130226   3.803   1.497   1.796  0.1677  0.7658  0.4450
 2889TIP3    H230227   3.815   1.570   1.928 -0.3888 -0.3527  1.1240
 2890TIP3   OH230228   5.005   0.143   1.664  0.7259 -0.0524  0.2860
 2890TIP3    H130229   5.028   0.161   1.573 -0.5496 -0.3785 -0.1157
 2890TIP3    H230230   5.005   0.228   1.706 -0.9323  0.4189 -0.5777
 2891TIP3   OH230231   3.637   6.761   1.791 -0.4822  0.3841 -0.1290
 2891TIP3    H130232   3.684   6.843   1.805  1.8968 -1.0701  1.1464
 2891TIP3    H230233   3.662   6.706   1.866 -1.0268 -1.8982 -1.5157
 2892TIP3   OH230234   0.469   6.056   1.193 -0.3149  0.5254 -0.8519
 2892TIP3    H130235   0.396   6.046   1.253 -0.8024  0.1373 -1.4948
 2892TIP3    H230236   0.433   6.107   1.120  0.1621  0.6728 -0.9881
 2893TIP3   OH230237   2.054   0.967   2.219 -0.1698 -0.3563 -0.4219
 2893TIP3    H130238   2.145   0.941   2.229 -0.0185  0.6101  1.2375
 2893TIP3    H230239   2.053   1.024   2.142  0.6632 -0.2566 -0.3623
 2894TIP3   OH230240   2.053   4.359   7.831  0.1950  0.0562 -0.1136
 2894TIP3    H130241   2.114   4.290   7.858 -1.2739 -1.0346  0.5780
 2894TIP3    H230242   2.018   4.393   7.913 -1.1349 -0.2958 -0.5170
 2895TIP3   OH230243   1.740   5.844   0.413  0.0789  0.4801 -0.1313
 2895TIP3    H130244   1.693   5.762   0.397  0.9455 -0.3196  1.2210
 2895TIP3    H230245   1.706   5.904   0.348 -0.1395 -1.1345 -1.5748
 2896TIP3   OH230246   4.138   1.186   1.364  0.1199 -0.3465  0.1322
 2896TIP3    H130247   4.233   1.199   1.359 -0.1887  1.9447 -0.8712
 2896TIP3    H230248   4.117   1.131   1.289  0.3641  1.5314 -1.3926
 2897TIP3   OH230249   4.929   6.017   6.950 -0.0955 -0.1518 -0.5468
 2897TIP3    H130250   4.842   6.009   6.989 -0.8955 -0.0332 -2.2300
 2897TIP3    H230251   4.917   5.990   6.859  1.7635 -0.7065 -0.6749
 2898TIP3   OH230252   3.211   1.835   2.170 -0.1155  0.3035  0.8475
 2898TIP3    H130253   3.225   1.756   2.223 -0.6947 -1.1331 -1.0004
 2898TIP3    H230254   3.273   1.899   2.204  0.8521 -1.1709  1.9803
 2899TIP3   OH230255   0.549   6.565   8.539 -0.4586 -0.0864  0.7224
 2899TIP3    H130256   0.460   6.598   8.527 -0.2075  0.1694 -0.6081
 2899TIP3    H230257   0.537   6.474   8.565 -1.1151 -0.1991  0.0651
 2900TIP3   OH230258   6.624   1.631   0.350  0.4118 -0.3614 -0.5797
 2900TIP3    H130259   6.594   1.621   0.260 -0.3167  1.8937 -0.6402
 2900TIP3    H230260   6.672   1.550   0.368  0.6610 -0.8307 -3.0061
 2901TIP3   OH230261   0.823   3.862   6.458 -0.6191  0.3294 -0.0917
 2901TIP3    H130262   0.891   3.899   6.402  0.4837 -0.5441  0.6260
 2901TIP3    H230263   0.862   3.861   6.546 -1.2923 -0.8138  0.2140
 2902TIP3   OH230264   3.841   0.329   1.193 -0.3368  0.3020  0.5938
 2902TIP3    H130265   3.842   0.348   1.099 -0.4445 -1.3767  0.2173
 2902TIP3    H230266   3.866   0.411   1.234  5.4808 -0.1431 -1.1268
 2903TIP3   OH230267   0.588   3.989   1.247 -0.1022  0.0178  0.6004
 2903TIP3    H130268   0.584   4.084   1.235  0.2441  0.0890  1.0451
 2903TIP3    H230269   0.610   3.977   1.339  0.2675 -0.4894  0.4508
 2904TIP3   OH230270   0.826   3.754   2.145 -0.6016  0.3321 -0.4480
 2904TIP3    H130271   0.820   3.661   2.121  0.9909  0.5728 -1.9904
 2904TIP3    H230272   0.852   3.752   2.238 -2.4466 -0.7025  0.0954
 2905TIP3   OH230273   6.630   6.685   0.037 -0.1050 -0.4977  0.4684
 2905TIP3    H130274   6.630   6.721  -0.051  2.8133 -3.0741 -0.7836
 2905TIP3    H230275   6.589   6.599   0.027 -2.5616  0.3631  2.3479
 2906TIP3   OH230276   4.690   2.766   7.839  0.9167 -0.2027 -0.0003
 2906TIP3    H130277   4.685   2.714   7.759  1.7375 -0.9634  0.4154
 2906TIP3    H230278   4.654   2.708   7.907  1.3382 -0.0311  0.3770
 2907TIP3   OH230279   3.654   3.255   7.140  0.2143 -0.0864 -0.0032
 2907TIP3    H130280   3.668   3.245   7.234  2.9491 -2.9933 -0.5307
 2907TIP3    H230281   3.649   3.165   7.107  1.7997  0.7408 -2.8822
 2908TIP3   OH230282   0.770   6.474   7.389  0.8583  0.1197  0.3138
 2908TIP3    H130283   0.724   6.409   7.336  3.3266 -1.5577  0.0586
 2908TIP3    H230284   0.774   6.552   7.333 -0.6238 -0.0504 -0.0653
 2909TIP3   OH230285   5.150   5.529   0.694  0.0514  0.5669 -0.7311
 2909TIP3    H130286   5.077   5.469   0.684  1.1883 -1.2512  0.9916
 2909TIP3    H230287   5.224   5.473   0.718  1.4402  2.5523 -0.0624
 2910TIP3   OH230288   4.430   2.258   0.865  0.5732  0.1721 -0.0796
 2910TIP3    H130289   4.523   2.237   0.859  0.8980  0.8116  1.8448
 2910TIP3    H230290   4.400   2.214   0.945 -0.8222 -0.1607 -0.7600
 2911TIP3   OH230291   4.944   2.101   8.644  0.2814  0.7921  0.1176
 2911TIP3    H130292   4.993   2.106   8.562  1.3658 -2.1990  0.4702
 2911TIP3    H230293   5.010   2.109   8.713  0.3314 -2.4140  0.6019
 2912TIP3   OH230294   5.094   1.597   6.270 -0.1003 -0.5827  0.1044
 2912TIP3    H130295   5.048   1.539   6.329 -0.0308  0.6054  1.3769
 2912TIP3    H230296   5.137   1.661   6.327 -0.4309  0.8989 -1.2254
 2913TIP3   OH230297   2.625   6.161   1.417 -0.0326 -0.2492  0.0201
 2913TIP3    H130298   2.538   6.198   1.400  0.6893  1.5397 -0.0265
 2913TIP3    H230299   2.637   6.170   1.512  0.4040  0.2348 -0.0779
 2914TIP3   OH230300   4.734   4.951   1.658  0.1221  0.1090 -0.1353
 2914TIP3    H130301   4.690   4.904   1.587 -0.3615  0.3296  0.0133
 2914TIP3    H230302   4.808   4.993   1.616 -1.2231  1.8026 -0.9181
 2915TIP3   OH230303   1.688   3.366   7.330 -0.1111  0.2854  0.0557
 2915TIP3    H130304   1.672   3.407   7.414 -0.9827 -0.1991  0.1361
 2915TIP3    H230305   1.621   3.298   7.323  0.0407  0.2240 -0.9613
 2916TIP3   OH230306   3.655   0.257   6.971 -0.5330  0.2431  0.6351
 2916TIP3    H130307   3.670   0.230   7.062 -1.0141  0.7573  0.8757
 2916TIP3    H230308   3.732   0.310   6.950  1.6800 -3.1459 -0.6594
 2917TIP3   OH230309   5.667   3.928   0.678  0.2606 -0.0565  0.2380
 2917TIP3    H130310   5.654   3.861   0.611 -0.3758 -2.8069  2.8669
 2917TIP3    H230311   5.754   3.962   0.662  0.9572 -2.1508 -0.7830
 2918TIP3   OH230312   5.061   3.274   1.309  0.5737 -0.3866  0.8947
 2918TIP3    H130313   5.148   3.310   1.293  0.2296  0.3907  0.7251
 2918TIP3    H230314   5.045   3.215   1.235 -1.2025  3.5080 -2.2338
 2919TIP3   OH230315   6.821   4.553   7.384 -0.3002 -0.0051  0.2876
 2919TIP3    H130316   6.774   4.631   7.413  0.9700  0.5760  0.8573
 2919TIP3    H230317   6.752   4.493   7.357 -1.3107  1.4163 -0.4592
 2920TIP3   OH230318   4.796   1.092   0.106  0.4967 -0.8040  0.5003
 2920TIP3    H130319   4.853   1.158   0.146  1.5850 -1.1973 -0.3349
 2920TIP3    H230320   4.762   1.042   0.180 -1.1145  1.2577  1.2121
 2921TIP3   OH230321   2.027   1.248   7.411  1.0298 -0.6062 -0.3272
 2921TIP3    H130322   2.001   1.334   7.379 -1.6577 -0.7205  1.3369
 2921TIP3    H230323   2.114   1.262   7.448  0.9918  1.1807 -0.8239
 2922TIP3   OH230324   0.552   3.780   1.092  0.3959  0.0364  0.5982
 2922TIP3    H130325   0.536   3.703   1.146 -0.8903  1.4901  2.3931
 2922TIP3    H230326   0.568   3.850   1.154  1.3460  1.2955 -0.9961
 2923TIP3   OH230327   3.947   3.187   1.814 -0.3691  0.5090  0.0891
 2923TIP3    H130328   3.906   3.212   1.897 -2.7675  0.8628 -1.1159
 2923TIP3    H230329   3.938   3.092   1.810  0.8973  0.3368  0.7557
 2924TIP3   OH230330   0.596   1.488   7.787  0.8740 -0.2718 -0.4550
 2924TIP3    H130331   0.639   1.535   7.859  2.3017 -2.1816  0.0285
 2924TIP3    H230332   0.534   1.551   7.751  2.6350  1.9512  0.1582
 2925TIP3   OH230333   5.354   2.318   1.407 -0.2326 -0.2165  0.0379
 2925TIP3    H130334   5.374   2.305   1.315  1.9734 -0.0353  0.4347
 2925TIP3    H230335   5.265   2.354   1.408 -1.8943 -3.7687 -1.7327
 2926TIP3   OH230336   4.152   4.903   2.536 -0.0591 -0.3402 -0.2229
 2926TIP3    H130337   4.109   4.987   2.522 -0.6578 -0.9136 -2.0351
 2926TIP3    H230338   4.161   4.897   2.631  0.1177  1.8110 -0.0526
 2927TIP3   OH230339   5.939   3.992   0.755 -0.5225  0.2373 -0.1656
 2927TIP3    H130340   6.008   4.014   0.817 -1.5092 -1.3383  1.6215
 2927TIP3    H230341   5.970   3.913   0.712 -1.4844 -1.0293  1.3146
 2928TIP3   OH230342   5.232   5.721   0.518 -0.0552  0.9781  0.6694
 2928TIP3    H130343   5.172   5.672   0.574 -0.3882  0.7159  0.0911
 2928TIP3    H230344   5.308   5.738   0.574  0.0004 -0.0563  0.9322
 2929TIP3   OH230345   3.312   5.489   6.890  0.2652 -0.1845  0.6457
 2929TIP3    H130346   3.297   5.581   6.867 -0.7508 -0.3637  0.5505
 2929TIP3    H230347   3.342   5.449   6.809  0.7358  0.0671  0.6936
 2930TIP3   OH230348   6.794   1.993   8.221  0.0919 -0.2053 -0.7631
 2930TIP3    H130349   6.835   1.941   8.291 -0.3237 -0.3583 -0.6307
 2930TIP3    H230350   6.840   2.077   8.224  0.1186 -0.2321 -0.3410
 2931TIP3   OH230351   5.746   0.357   1.990 -0.0281  0.2529  0.5276
 2931TIP3    H130352   5.707   0.331   2.074  1.6256 -1.4859  0.8408
 2931TIP3    H230353   5.723   0.449   1.980 -0.8733  0.3178  2.5390
 2932TIP3   OH230354   6.063   3.481   7.088 -0.4266  0.4406 -0.0535
 2932TIP3    H130355   6.091   3.478   6.997 -0.8848  0.1298 -0.1892
 2932TIP3    H230356   6.040   3.390   7.108  0.3621  0.3692  0.5926
 2933TIP3   OH230357   2.679   3.150   0.720 -0.4395  0.2768  0.0019
 2933TIP3    H130358   2.773   3.166   0.711 -0.5638  0.7976 -0.3760
 2933TIP3    H230359   2.638   3.210   0.659 -0.8828 -2.3945 -2.5440
 2934TIP3   OH230360   2.995   0.047   1.524  0.0502  0.5476 -0.9565
 2934TIP3    H130361   3.057   0.090   1.583 -1.5658  1.4554  0.1614
 2934TIP3    H230362   3.042   0.040   1.441  1.7012  1.0250 -0.1076
 2935TIP3   OH230363   4.619   3.510   7.407 -0.1266 -0.1423  0.0124
 2935TIP3    H130364   4.552   3.443   7.423 -0.2127 -0.6038 -2.0294
 2935TIP3    H230365   4.676   3.505   7.484  1.2245 -4.2248 -0.9731
 2936TIP3   OH230366   4.644   5.045   7.093  0.1933 -0.3481  0.1702
 2936TIP3    H130367   4.656   5.092   7.010 -0.2832  1.3109  0.9933
 2936TIP3    H230368   4.595   5.106   7.148 -0.6758 -1.9416  1.2376
 2937TIP3   OH230369   4.282   5.441   1.794  0.2967 -0.1842 -0.1783
 2937TIP3    H130370   4.222   5.409   1.862  0.1307 -0.7399 -0.5796
 2937TIP3    H230371   4.232   5.436   1.713  0.6192  0.1232 -0.4002
 2938TIP3   OH230372   6.131   3.582   7.579  0.5032 -0.0474  0.1812
 2938TIP3    H130373   6.145   3.518   7.509 -1.1044  0.6757 -0.8670
 2938TIP3    H230374   6.217   3.621   7.593  0.8808 -0.2261 -1.4108
 2939TIP3   OH230375   0.548   0.211   6.753  0.0315  0.3081  0.7126
 2939TIP3    H130376   0.563   0.117   6.750 -0.2053  0.3006 -0.8864
 2939TIP3    H230377   0.604   0.247   6.685 -0.4843  1.2375  0.7560
 2940TIP3   OH230378   0.815   3.932   1.070  0.0692  0.2622  0.2892
 2940TIP3    H130379   0.733   3.921   1.120 -0.1481  0.5870  0.0074
 2940TIP3    H230380   0.797   3.893   0.985  0.2813  0.1442  0.2972
 2941TIP3   OH230381   5.785   0.521   0.974  0.1548 -0.2587 -0.2020
 2941TIP3    H130382   5.711   0.581   0.975  1.1269  1.0030  1.8436
 2941TIP3    H230383   5.780   0.479   0.888 -3.3588 -0.8264  0.1298
 2942TIP3   OH230384   1.666   3.437   0.045 -0.0154 -0.0462  0.4974
 2942TIP3    H130385   1.679   3.372  -0.024  0.1825  0.4587  0.0539
 2942TIP3    H230386   1.587   3.484   0.019 -0.0239  0.0483  0.6928
 2943TIP3   OH230387   2.031   1.814   6.870 -0.2861 -0.0503 -0.2207
 2943TIP3    H130388   1.975   1.886   6.900 -1.0543 -0.2401 -1.1467
 2943TIP3    H230389   2.002   1.798   6.780  2.4526  1.0470 -1.3945
 2944TIP3   OH230390   4.927   4.165   7.552  0.2532  0.7676 -0.5324
 2944TIP3    H130391   4.946   4.256   7.574 -0.5073  1.4824 -2.5646
 2944TIP3    H230392   4.869   4.134   7.622  1.8470  1.2700  1.0752
 2945TIP3   OH230393   6.120   2.787   2.057 -0.4698  0.5541  0.5380
 2945TIP3    H130394   6.061   2.858   2.082 -3.1139 -1.0066 -0.8468
 2945TIP3    H230395   6.129   2.734   2.137  2.0770  2.6113  1.7908
 2946TIP3   OH230396   3.128   5.712   2.377 -0.1592  0.1263 -0.2861
 2946TIP3    H130397   3.090   5.645   2.319  0.1864 -0.9714  0.6958
 2946TIP3    H230398   3.215   5.679   2.398  0.2417  1.1898 -0.2391
 2947TIP3   OH230399   1.542   6.518   8.485  0.5601  0.2774 -0.3912
 2947TIP3    H130400   1.519   6.489   8.573  0.9693  0.5338 -0.1910
 2947TIP3    H230401   1.510   6.449   8.427  1.2371 -0.4195  0.0444
 2948TIP3   OH230402   0.645   3.034   6.426  0.0015  0.2198  0.5578
 2948TIP3    H130403   0.550   3.048   6.427 -0.1554 -0.7412  1.3032
 2948TIP3    H230404   0.680   3.106   6.478 -0.0688  1.9002 -1.5892
 2949TIP3   OH230405   6.260   5.425   7.203 -1.0088  0.2070  0.0659
 2949TIP3    H130406   6.355   5.415   7.198 -0.8510  0.1439  2.1756
 2949TIP3    H230407   6.231   5.426   7.112  0.9587 -0.2066 -0.6174
 2950TIP3   OH230408   2.152   3.348   8.248 -0.3315  0.5685 -0.1414
 2950TIP3    H130409   2.208   3.283   8.205 -2.3227 -2.1124  0.9730
 2950TIP3    H230410   2.067   3.303   8.257 -1.5539  3.0225  1.5927
 2951TIP3   OH230411   4.155   0.540   0.775 -0.3363  0.0049  0.0767
 2951TIP3    H130412   4.202   0.468   0.733 -0.1357 -0.7847  1.5628
 2951TIP3    H230413   4.194   0.545   0.863 -1.7547  0.5643  0.6973
 2952TIP3   OH230414   3.644   2.922   7.722 -0.1532 -0.1542  0.8154
 2952TIP3    H130415   3.657   2.865   7.646  1.1338 -0.2709  1.0901
 2952TIP3    H230416   3.615   2.863   7.792  0.4471 -0.3723  0.8940
 2953TIP3   OH230417   1.969   1.238   8.171  0.5715  0.5057  0.2593
 2953TIP3    H130418   1.985   1.329   8.197  1.9153  0.3872 -0.0719
 2953TIP3    H230419   2.053   1.194   8.186  0.5661 -0.1968 -1.5942
 2954TIP3   OH230420   3.697   4.584   6.957 -0.0312 -0.1211  0.0618
 2954TIP3    H130421   3.746   4.529   7.018  1.9771 -0.7345 -1.9482
 2954TIP3    H230422   3.709   4.543   6.872 -1.9522  1.1904 -0.9406
 2955TIP3   OH230423   0.992   0.291   6.262 -0.3451  0.0082 -0.1531
 2955TIP3    H130424   0.942   0.210   6.259 -1.2797  0.4095  2.1813
 2955TIP3    H230425   1.066   0.276   6.204 -1.2300 -1.9751 -0.8543
 2956TIP3   OH230426   5.065   6.182   1.099 -0.5841  0.2257 -0.0479
 2956TIP3    H130427   5.066   6.165   1.005 -1.2263  0.7305 -0.1520
 2956TIP3    H230428   5.089   6.098   1.139 -2.3670 -0.5867 -0.5868
 2957TIP3   OH230429   5.958   2.912   1.645 -0.0644  0.0821 -0.0947
 2957TIP3    H130430   5.935   2.974   1.576 -1.1355  0.6571  0.7491
 2957TIP3    H230431   5.874   2.878   1.676  0.3365  0.3917  1.4165
 2958TIP3   OH230432   3.715   0.792   7.034  0.0172 -0.2596  0.1996
 2958TIP3    H130433   3.647   0.737   6.995 -0.3440 -0.4315  1.0490
 2958TIP3    H230434   3.670   0.873   7.057  0.1321 -0.3039  0.5947
 2959TIP3   OH230435   1.046   3.093   0.075  0.1294 -0.0525 -0.4486
 2959TIP3    H130436   0.996   3.163   0.117 -1.9670 -1.5223 -0.3623
 2959TIP3    H230437   1.137   3.117   0.089 -0.5288  1.8823  0.8774
 2960TIP3   OH230438   2.547   0.181   0.576  0.0503 -0.0378 -0.3324
 2960TIP3    H130439   2.552   0.263   0.625 -3.2382 -0.2141  0.5396
 2960TIP3    H230440   2.624   0.131   0.604  0.4434  1.5046  1.5203
 2961TIP3   OH230441   6.043   5.118   8.637 -0.3208  0.2389  0.6342
 2961TIP3    H130442   6.032   5.124   8.542 -0.8351 -0.5926  0.6261
 2961TIP3    H230443   5.964   5.073   8.668  0.1456 -0.1074  1.3717
 2962TIP3   OH230444   1.473   5.680   0.596  0.6507  0.2668 -0.7048
 2962TIP3    H130445   1.474   5.775   0.583  1.2080  0.4534  0.5411
 2962TIP3    H230446   1.563   5.653   0.575  0.2259 -0.1534 -2.0692
 2963TIP3   OH230447   3.351   4.880   1.750 -0.2149  0.0516 -0.1111
 2963TIP3    H130448   3.385   4.872   1.839 -0.4977 -1.3626 -0.1162
 2963TIP3    H230449   3.336   4.974   1.739 -1.6353  0.1105  1.8812
 2964TIP3   OH230450   4.410   1.183   1.284 -0.0030  0.4647 -0.1264
 2964TIP3    H130451   4.477   1.115   1.280  0.2373  0.5575  1.5615
 2964TIP3    H230452   4.453   1.256   1.328 -0.8798  0.9355 -0.0353
 2965TIP3   OH230453   6.452   2.011   7.103  0.3551 -0.5691  0.2294
 2965TIP3    H130454   6.357   2.023   7.109  0.6225  1.6942  0.8420
 2965TIP3    H230455   6.477   1.974   7.187  0.0790 -0.7347  0.2406
 2966TIP3   OH230456   3.200   0.215   8.276 -0.3001  0.9207 -0.1105
 2966TIP3    H130457   3.290   0.195   8.250 -0.6204 -0.9669  0.0730
 2966TIP3    H230458   3.163   0.130   8.300 -1.3235  2.0070  2.4691
 2967TIP3   OH230459   1.457   2.084   1.233 -0.3995  0.2003 -0.3474
 2967TIP3    H130460   1.483   2.064   1.142 -0.4205  0.4685 -0.4127
 2967TIP3    H230461   1.488   2.008   1.283 -1.1571 -0.3667 -0.7042
 2968TIP3   OH230462   1.052   4.964   1.331  0.3440 -0.7418 -0.1019
 2968TIP3    H130463   0.992   4.898   1.365 -0.5165 -0.9694 -1.9274
 2968TIP3    H230464   1.063   4.942   1.238  3.1454 -0.6023  0.1001
 2969TIP3   OH230465   0.347   0.535   8.207 -0.0565  0.3500  0.0573
 2969TIP3    H130466   0.286   0.563   8.275  0.7739  0.8842  0.6001
 2969TIP3    H230467   0.382   0.452   8.238 -0.6787 -0.0912 -0.3806
 2970TIP3   OH230468   5.217   4.222   0.864  0.3123  0.8835 -0.2178
 2970TIP3    H130469   5.131   4.198   0.898  0.8467 -0.6299  0.1471
 2970TIP3    H230470   5.264   4.257   0.940  0.4031  0.5947 -0.1381
 2971TIP3   OH230471   0.111   1.845   6.920  0.0936 -0.3767 -0.1279
 2971TIP3    H130472   0.114   1.933   6.958 -1.3141 -0.2676 -0.2148
 2971TIP3    H230473   0.195   1.835   6.875 -0.0160  1.1934 -0.7207
 2972TIP3   OH230474   6.606   0.967   6.646  0.0464  0.3693  0.1062
 2972TIP3    H130475   6.535   0.908   6.674  1.1581 -1.4530 -0.7509
 2972TIP3    H230476   6.664   0.972   6.722  0.6687 -0.8177 -0.2671
 2973TIP3   OH230477   0.159   3.217   7.738  0.5237 -0.2848  0.2714
 2973TIP3    H130478   0.095   3.213   7.809 -0.1228 -1.3782 -0.3488
 2973TIP3    H230479   0.195   3.129   7.732  0.7851 -0.1333 -0.5612
 2974TIP3   OH230480   2.871   5.259   0.619  0.3003  0.0067  0.1564
 2974TIP3    H130481   2.897   5.249   0.710 -0.6244 -0.2778  0.3963
 2974TIP3    H230482   2.837   5.173   0.593  3.2623 -0.8393 -1.3868
 2975TIP3   OH230483   6.641   2.978   1.130  0.1508  0.4505  0.0678
 2975TIP3    H130484   6.676   2.958   1.044  2.7439 -0.2384  1.1824
 2975TIP3    H230485   6.714   3.017   1.178 -1.0802  0.4510  2.0749
 2976TIP3   OH230486   3.530   5.992   1.275 -0.1585 -0.8418  0.1416
 2976TIP3    H130487   3.568   6.000   1.188  1.6090  0.2825  0.9595
 2976TIP3    H230488   3.444   6.034   1.267  0.5786  0.5925 -0.7333
 2977TIP3   OH230489   5.120   1.712   5.888 -0.3902  0.2776  0.5870
 2977TIP3    H130490   5.123   1.763   5.969 -1.0509  1.0623  0.1381
 2977TIP3    H230491   5.029   1.683   5.881 -0.0762 -0.7631  0.7076
 2978TIP3   OH230492   5.728   4.840   0.863  0.0744  0.7886 -0.4355
 2978TIP3    H130493   5.776   4.776   0.916  0.9724 -0.5566 -2.7010
 2978TIP3    H230494   5.712   4.914   0.922  2.7176  0.2171  1.1622
 2979TIP3   OH230495   3.521   5.530   1.078 -0.0243 -0.6802  0.1869
 2979TIP3    H130496   3.486   5.560   1.162 -1.0088  1.0019 -0.7768
 2979TIP3    H230497   3.473   5.581   1.013  1.4908 -1.1736 -1.3661
 2980TIP3   OH230498   1.262   2.567   6.757  0.1167 -0.1047 -0.4264
 2980TIP3    H130499   1.354   2.590   6.748  0.3347 -0.3167  1.0077
 2980TIP3    H230500   1.257   2.476   6.726  0.6794 -0.5604  0.7387
 2981TIP3   OH230501   1.626   0.562   1.659  0.4370  0.1981 -0.1833
 2981TIP3    H130502   1.531   0.574   1.669  0.1029 -1.3127 -1.1502
 2981TIP3    H230503   1.652   0.514   1.738  0.6112  1.5340  0.5921
 2982TIP3   OH230504   4.899   4.229   8.078  0.1680 -0.2192  0.0936
 2982TIP3    H130505   4.879   4.238   8.171  0.4682  0.6452  0.0771
 2982TIP3    H230506   4.883   4.136   8.059  2.7397 -1.0691  1.6204
 2983TIP3   OH230507   3.945   4.788   1.211 -0.6012 -0.1885 -0.5838
 2983TIP3    H130508   3.935   4.834   1.128 -1.8053  1.0328  0.1835
 2983TIP3    H230509   3.871   4.728   1.215  0.4065 -1.5251 -1.1244
 2984TIP3   OH230510   3.688   4.321   1.717  0.3215 -0.3363  0.0368
 2984TIP3    H130511   3.773   4.283   1.694 -0.1100 -1.8050  0.6860
 2984TIP3    H230512   3.686   4.317   1.813 -0.0289  0.7496  0.0850
 2985TIP3   OH230513   4.486   5.846   7.521 -0.1215 -0.5704  0.3136
 2985TIP3    H130514   4.529   5.853   7.436  0.2112 -1.4905  0.3977
 2985TIP3    H230515   4.459   5.755   7.528 -0.4609 -0.4255  1.0479
 2986TIP3   OH230516   0.111   4.150   7.439  0.3356 -0.4732  0.0154
 2986TIP3    H130517   0.196   4.109   7.424 -0.0284 -0.8213 -1.2357
 2986TIP3    H230518   0.132   4.242   7.457  1.0125 -0.6979  0.4187
 2987TIP3   OH230519   3.815   2.623   0.775 -0.5024  0.2879  0.4968
 2987TIP3    H130520   3.807   2.587   0.863  0.4729 -0.7472  0.1871
 2987TIP3    H230521   3.848   2.712   0.788  0.3016 -0.0983  1.1612
 2988TIP3   OH230522   6.079   6.184   7.304 -0.2139  0.0470 -0.3755
 2988TIP3    H130523   6.004   6.176   7.362 -0.7060  0.6142 -0.9234
 2988TIP3    H230524   6.129   6.103   7.318 -0.5972 -0.0545  0.4384
 2989TIP3   OH230525   3.334   5.693   0.887  0.2242  0.0297  0.7172
 2989TIP3    H130526   3.358   5.682   0.795 -0.2534  1.4142  0.3927
 2989TIP3    H230527   3.319   5.787   0.896 -0.7633 -0.2269  1.9597
 2990TIP3   OH230528   4.763   6.007   0.342  0.3646 -0.4064  0.1352
 2990TIP3    H130529   4.843   5.960   0.366 -0.5490 -2.0702  0.0769
 2990TIP3    H230530   4.759   6.080   0.405  0.8117 -1.5558  1.5582
 2991TIP3   OH230531   5.597   4.075   7.790  0.0639 -0.0921  0.5209
 2991TIP3    H130532   5.612   3.990   7.748  0.3368 -0.0019  0.4357
 2991TIP3    H230533   5.627   4.063   7.880 -0.1214 -0.1572  0.5738
 2992TIP3   OH230534   3.349   4.808   7.219 -0.3341  0.3786  0.7504
 2992TIP3    H130535   3.377   4.754   7.293  0.3353  1.3242  1.2141
 2992TIP3    H230536   3.383   4.763   7.142 -1.7138 -1.0386  0.9260
 2993TIP3   OH230537   1.226   0.185   7.139 -0.5125  0.0149  0.1574
 2993TIP3    H130538   1.275   0.247   7.085 -0.0246 -1.7211 -1.5269
 2993TIP3    H230539   1.293   0.141   7.191 -0.3086 -1.6862 -1.4416
 2994TIP3   OH230540   6.581   6.086   0.942  0.4324  0.0492  0.1199
 2994TIP3    H130541   6.564   6.093   1.036  2.0497 -1.3663  0.5681
 2994TIP3    H230542   6.578   5.992   0.925 -0.6605  0.3388 -1.4344
 2995TIP3   OH230543   1.591   2.088   0.449 -0.8483 -0.1590 -0.0579
 2995TIP3    H130544   1.526   2.078   0.380 -0.9025  0.8582 -0.1694
 2995TIP3    H230545   1.646   2.161   0.419 -0.7985  0.2083  0.9160
 2996TIP3   OH230546   6.526   3.903   1.697 -0.0677 -0.4987 -0.3016
 2996TIP3    H130547   6.579   3.844   1.644 -1.8048 -2.1697 -0.2621
 2996TIP3    H230548   6.500   3.973   1.636  2.3829  0.5969 -0.2305
 2997TIP3   OH230549   6.216   6.017   0.973  0.1342 -0.6978  0.4775
 2997TIP3    H130550   6.161   6.093   0.955 -0.3969 -1.2016 -0.0585
 2997TIP3    H230551   6.249   6.031   1.062  0.7409  0.5743  0.0762
 2998TIP3   OH230552   1.429   1.116   8.304 -0.5107 -0.6821  0.2697
 2998TIP3    H130553   1.496   1.072   8.356  0.3614 -1.4334 -1.4407
 2998TIP3    H230554   1.421   1.203   8.345  2.7970  0.1088 -0.4802
 2999TIP3   OH230555   2.051   5.379   7.224 -0.0648 -0.1534  0.4378
 2999TIP3    H130556   1.959   5.405   7.215  0.1305  0.5850  0.5252
 2999TIP3    H230557   2.080   5.423   7.304  0.5438  0.1157  0.0673
 3000TIP3   OH230558   5.724   0.681   7.046  0.0590  0.0886  0.1115
 3000TIP3    H130559   5.795   0.617   7.051  0.6109  0.7728  1.2770
 3000TIP3    H230560   5.688   0.684   7.135 -2.2853 -1.1490 -0.6957
 3001TIP3   OH230561   6.402   2.209   7.605  0.0123  0.3262  0.4618
 3001TIP3    H130562   6.322   2.256   7.580  0.9760  1.4184 -0.6973
 3001TIP3    H230563   6.370   2.125   7.639 -1.6635  1.0428  0.8026
 3002TIP3   OH230564   6.102   6.709   0.966  0.3513  0.6870  0.1859
 3002TIP3    H130565   6.191   6.681   0.948  0.8531  2.2919 -0.0009
 3002TIP3    H230566   6.107   6.758   1.048  0.0608  2.4752 -0.8027
 3003TIP3   OH230567   2.928   6.221   8.440 -0.1289  0.1543  0.7442
 3003TIP3    H130568   2.879   6.184   8.367  1.2283 -1.1822  0.4787
 3003TIP3    H230569   2.950   6.146   8.495  0.7603  0.8505  1.3761
 3004TIP3   OH230570   0.100   5.964   7.489 -0.0888  0.1152 -0.4735
 3004TIP3    H130571   0.119   5.882   7.534 -2.7117  0.7011  1.9747
 3004TIP3    H230572   0.093   5.940   7.397 -0.7528 -2.3979  0.1634
 3005TIP3   OH230573   6.152   5.106   0.288 -0.1809  0.0445 -0.3862
 3005TIP3    H130574   6.244   5.131   0.279 -0.1793 -0.1861 -1.0781
 3005TIP3    H230575   6.108   5.152   0.216 -0.8621  1.3628  0.8247
 3006TIP3   OH230576   2.430   4.056   1.481 -0.1010 -0.9480  0.4750
 3006TIP3    H130577   2.524   4.050   1.468 -0.0291 -0.0890  0.5513
 3006TIP3    H230578   2.410   3.993   1.550  0.3533 -1.4180  0.1812
 3007TIP3   OH230579   5.033   0.241   6.111 -0.2793  0.1342 -0.0535
 3007TIP3    H130580   5.006   0.246   6.203 -0.5319  0.5844 -0.1477
 3007TIP3    H230581   5.083   0.322   6.096 -0.4086  0.1608 -0.3619
 3008TIP3   OH230582   4.610   0.275   6.943  0.0721 -0.2842 -0.1015
 3008TIP3    H130583   4.572   0.358   6.972  1.6132  0.7638 -0.8852
 3008TIP3    H230584   4.560   0.251   6.865  0.5018  0.6576 -0.6766
 3009TIP3   OH230585   1.946   5.257   1.238 -0.3910  0.0336  0.8002
 3009TIP3    H130586   1.851   5.261   1.233 -0.3760 -0.7295 -0.8559
 3009TIP3    H230587   1.972   5.341   1.277 -1.7378  0.1600  1.4633
 3010TIP3   OH230588   5.203   6.660   7.183  0.3995  1.0850 -0.5561
 3010TIP3    H130589   5.211   6.735   7.124  1.7277  0.0847 -1.7147
 3010TIP3    H230590   5.254   6.686   7.260 -0.8186  2.1449 -0.0713
 3011TIP3   OH230591   0.510   0.479   6.137  0.0977 -0.1172  0.4646
 3011TIP3    H130592   0.553   0.529   6.068 -0.7603 -1.7731 -1.3647
 3011TIP3    H230593   0.580   0.458   6.199  0.9537  1.1231 -0.0532
 3012TIP3   OH230594   3.761   4.230   7.749  0.0391  0.1081  0.3039
 3012TIP3    H130595   3.830   4.209   7.685  0.6350  1.2000  0.5664
 3012TIP3    H230596   3.692   4.167   7.730  0.0166  0.6687 -1.7301
 3013TIP3   OH230597   3.850   5.060   1.785 -0.2565  0.0348  1.0277
 3013TIP3    H130598   3.777   5.047   1.845  0.2070 -0.7634  1.4240
 3013TIP3    H230599   3.928   5.065   1.841 -0.0846  1.9469  0.7163
 3014TIP3   OH230600   6.471   2.524   7.959 -0.0751 -0.3087  0.1132
 3014TIP3    H130601   6.421   2.452   7.998  0.0005 -1.2846 -1.4773
 3014TIP3    H230602   6.534   2.550   8.026  0.2911 -2.1586  0.5369
 3015TIP3   OH230603   3.816   5.604   7.754 -0.0061 -0.0857  0.2820
 3015TIP3    H130604   3.861   5.625   7.836 -0.0694 -2.0110  0.8558
 3015TIP3    H230605   3.887   5.589   7.692  0.0645  0.0981  0.3154
 3016TIP3   OH230606   4.232   5.875   7.566 -0.8887  0.1838 -0.1611
 3016TIP3    H130607   4.218   5.898   7.658 -0.7733  0.2073 -0.1483
 3016TIP3    H230608   4.323   5.900   7.550 -0.8395 -0.0354 -0.2178
 3017TIP3   OH230609   0.188   0.110   1.779  0.0340  0.6357  0.3203
 3017TIP3    H130610   0.239   0.072   1.707  0.0194  1.9171 -0.4136
 3017TIP3    H230611   0.221   0.199   1.787  0.0011  0.5264  1.9030
 3018TIP3   OH230612   5.093   6.884   2.102 -0.4989  0.1469  0.3737
 3018TIP3    H130613   5.063   6.949   2.166 -0.4638  0.3089  0.2268
 3018TIP3    H230614   5.013   6.857   2.056 -0.2345  2.0474 -1.3989
 3019TIP3   OH230615   1.796   1.075   7.421  0.2712  0.0849  0.2088
 3019TIP3    H130616   1.823   1.065   7.512  0.0910  0.5772  0.3187
 3019TIP3    H230617   1.857   1.139   7.384  0.0423  0.2522  0.1163
 3020TIP3   OH230618   3.100   2.504   7.114 -0.1081  0.5531  0.0528
 3020TIP3    H130619   3.069   2.501   7.023  1.2144 -0.4695 -0.4055
 3020TIP3    H230620   3.074   2.419   7.150  1.8441 -0.2282 -0.2724
 3021TIP3   OH230621   3.364   4.644   0.038  0.5658  0.4387 -0.0399
 3021TIP3    H130622   3.302   4.713   0.063  1.7352  0.7985  2.0064
 3021TIP3    H230623   3.357   4.579   0.108  2.1432  0.2635 -0.0201
 3022TIP3   OH230624   0.679   5.806   6.302  0.3776  0.2031  0.3258
 3022TIP3    H130625   0.757   5.862   6.305  1.4671 -1.1296 -1.2914
 3022TIP3    H230626   0.713   5.717   6.301 -1.1004 -0.4093 -1.2437
 3023TIP3   OH230627   3.513   0.949   6.631  0.6058  0.1902 -0.0051
 3023TIP3    H130628   3.540   0.926   6.542  1.6731  2.0347 -0.2045
 3023TIP3    H230629   3.534   1.042   6.639 -1.6553  0.6359  1.3923
 3024TIP3   OH230630   3.497   6.760   7.049  0.4988  0.3066 -0.0560
 3024TIP3    H130631   3.502   6.674   7.091  0.8493 -0.6036 -1.8750
 3024TIP3    H230632   3.586   6.794   7.054  0.8278 -0.3543 -1.1285
 3025TIP3   OH230633   0.312   2.792   0.437  0.2904 -0.1070  0.2724
 3025TIP3    H130634   0.278   2.709   0.403  0.1069  0.2952 -0.5706
 3025TIP3    H230635   0.377   2.819   0.372 -0.3486  0.8790  0.0273
 3026TIP3   OH230636   0.024   4.524   8.030  0.3104  0.4037 -0.1620
 3026TIP3    H130637   0.070   4.550   8.110  1.8433 -0.8366 -0.5878
 3026TIP3    H230638   0.093   4.493   7.972 -1.1186 -2.2642 -0.5772
 3027TIP3   OH230639   0.662   5.131   7.159 -0.2904  0.1505 -0.1076
 3027TIP3    H130640   0.644   5.149   7.067 -0.2707 -1.0266 -0.3677
 3027TIP3    H230641   0.613   5.050   7.177 -0.2096  0.3099  0.8845
 3028TIP3   OH230642   6.773   1.159   1.676 -0.5325  0.3014  0.0408
 3028TIP3    H130643   6.744   1.192   1.761 -1.2872 -0.1339 -0.0385
 3028TIP3    H230644   6.718   1.204   1.613 -0.3843  0.1741 -0.1795
 3029TIP3   OH230645   1.142   5.515   0.855 -0.1634 -0.0677  0.2920
 3029TIP3    H130646   1.058   5.482   0.885  0.2984 -1.2429  0.3351
 3029TIP3    H230647   1.198   5.514   0.933 -0.3753  1.7033  0.5102
 3030TIP3   OH230648   1.654   0.149   7.842 -0.0837  0.6187  0.2978
 3030TIP3    H130649   1.679   0.068   7.798  0.5698  0.3843  1.0654
 3030TIP3    H230650   1.565   0.134   7.874 -0.0020  0.2363  0.3458
 3031TIP3   OH230651   3.635   6.484   7.856  0.1481 -0.2914  0.1255
 3031TIP3    H130652   3.583   6.425   7.801 -0.3580 -0.7616  1.0798
 3031TIP3    H230653   3.619   6.454   7.945  1.2448  0.2207  0.5157
 3032TIP3   OH230654   1.715   0.558   0.743  0.1833 -0.3853 -0.2942
 3032TIP3    H130655   1.665   0.614   0.684 -2.5181 -1.5109  0.7790
 3032TIP3    H230656   1.752   0.618   0.808 -0.4808  0.4170 -0.6433
 3033TIP3   OH230657   0.615   6.797   1.667  0.6906  0.3068  0.2603
 3033TIP3    H130658   0.678   6.794   1.594 -0.0968 -0.0733 -0.4217
 3033TIP3    H230659   0.588   6.888   1.672  0.1705  0.1994 -0.4427
 3034TIP3   OH230660   5.883   2.210   7.179  0.0301  0.4090  0.0313
 3034TIP3    H130661   5.828   2.139   7.213 -0.8104  1.3502  0.7029
 3034TIP3    H230662   5.959   2.166   7.141 -0.2553 -0.8217  0.8355
 3035TIP3   OH230663   1.100   3.941   7.608  0.6314  0.3421 -0.3635
 3035TIP3    H130664   1.015   3.946   7.652  1.9952 -0.0821  2.5123
 3035TIP3    H230665   1.101   3.853   7.569 -0.9169  1.0217 -2.1434
 3036TIP3   OH230666   6.037   6.163   8.069 -0.4164 -0.6754  0.4903
 3036TIP3    H130667   6.089   6.144   8.147  0.7714  1.1579  0.2338
 3036TIP3    H230668   6.003   6.251   8.085  0.9624  0.3166 -1.5412
 3037TIP3   OH230669   4.163   0.200   8.486 -0.8743  0.1041 -0.0041
 3037TIP3    H130670   4.254   0.216   8.460 -0.9507  1.7325  0.6500
 3037TIP3    H230671   4.161   0.214   8.580 -1.8859  0.5551 -0.0746
 3038TIP3   OH230672   3.876   6.846   8.328 -0.0146  0.6569 -0.3467
 3038TIP3    H130673   3.926   6.779   8.373 -1.3393 -1.2138 -1.5016
 3038TIP3    H230674   3.922   6.928   8.347  3.7561 -0.9224 -1.7121
 3039TIP3   OH230675   3.438   3.564   1.697 -0.1599 -0.5426  0.0705
 3039TIP3    H130676   3.357   3.530   1.733 -0.5440 -0.0931 -0.3521
 3039TIP3    H230677   3.497   3.488   1.694 -0.1671 -0.6222  1.4519
 3040TIP3   OH230678   0.907   2.058   6.608 -0.6201  0.3716  0.0434
 3040TIP3    H130679   0.887   2.098   6.693  0.2429 -0.1948  0.5326
 3040TIP3    H230680   0.857   1.976   6.608  1.9124 -1.3085  1.4938
 3041TIP3   OH230681   5.843   3.705   7.828 -0.0268 -0.3908 -0.0896
 3041TIP3    H130682   5.850   3.610   7.822  0.7747 -0.3137 -0.6806
 3041TIP3    H230683   5.918   3.732   7.881  0.5843  0.0005 -1.1056
 3042TIP3   OH230684   1.351   2.573   1.254 -0.3245  0.3126 -0.1431
 3042TIP3    H130685   1.418   2.642   1.253  0.7061 -0.6081 -3.1019
 3042TIP3    H230686   1.392   2.503   1.305  0.5841  0.1387 -1.0782
 3043TIP3   OH230687   3.867   5.092   2.822  0.2459 -0.4577  0.2463
 3043TIP3    H130688   3.857   5.032   2.749 -0.9920  0.0056  0.0081
 3043TIP3    H230689   3.783   5.138   2.827 -0.2975 -1.5328  2.9008
 3044TIP3   OH230690   4.732   1.761   1.506 -0.5004  0.1170 -0.6999
 3044TIP3    H130691   4.648   1.733   1.541 -0.9786  1.0828 -1.0448
 3044TIP3    H230692   4.715   1.846   1.466  0.4628 -0.0504 -1.5212
 3045TIP3   OH230693   6.592   0.951   7.731  0.1579 -0.1520  0.1542
 3045TIP3    H130694   6.683   0.925   7.724  0.0858 -0.5734  0.6720
 3045TIP3    H230695   6.593   1.027   7.791  0.0974 -0.6316  0.7758
 3046TIP3   OH230696   0.368   5.914   0.669 -0.0518  0.1843  0.0548
 3046TIP3    H130697   0.446   5.876   0.628 -0.0522 -1.4827  1.5047
 3046TIP3    H230698   0.296   5.884   0.613  0.0131 -1.5304  0.8045
 3047TIP3   OH230699   2.605   0.701   7.117 -0.3734 -0.5598  0.4584
 3047TIP3    H130700   2.600   0.787   7.075 -1.1663 -1.2214 -0.8882
 3047TIP3    H230701   2.660   0.715   7.194 -1.1052  1.3058  0.6966
 3048TIP3   OH230702   1.708   0.001   6.049 -0.0909 -0.7619  0.6713
 3048TIP3    H130703   1.726   0.064   5.979  0.6576 -1.8932 -0.1972
 3048TIP3    H230704   1.794  -0.014   6.089 -0.1582 -1.6286  0.5035
 3049TIP3   OH230705   0.605   0.968   0.370  0.2547  0.8549  0.0013
 3049TIP3    H130706   0.691   0.996   0.401  1.0034 -1.0784 -0.1926
 3049TIP3    H230707   0.624   0.900   0.305 -1.4086  0.5243 -0.1773
 3050TIP3   OH230708   6.201   3.496   2.260 -0.4255 -0.4676 -0.5158
 3050TIP3    H130709   6.126   3.553   2.242 -0.9984  0.0894  3.0290
 3050TIP3    H230710   6.270   3.556   2.290  0.1369 -1.3195 -0.0608
 3051TIP3   OH230711   4.112   5.553   1.172 -0.5201  0.1071 -0.0170
 3051TIP3    H130712   4.120   5.459   1.161 -0.2497  0.1110  0.1359
 3051TIP3    H230713   4.041   5.564   1.235 -1.2315  0.0441 -0.7931
 3052TIP3   OH230714   1.224   5.606   2.672 -0.6368 -0.5582 -0.9487
 3052TIP3    H130715   1.192   5.517   2.685 -1.0177 -0.4264 -0.9712
 3052TIP3    H230716   1.293   5.597   2.606  0.2888 -1.0239  0.0355
 3053TIP3   OH230717   1.206   6.737   7.547  0.0716  0.0422 -0.4939
 3053TIP3    H130718   1.261   6.814   7.561  0.2162 -0.1659  0.1050
 3053TIP3    H230719   1.204   6.693   7.632 -2.2261  0.8267 -0.0404
 3054TIP3   OH230720   4.228   5.965   8.477 -0.0766  0.4106  0.1349
 3054TIP3    H130721   4.222   5.991   8.385 -0.6067  0.6682  0.2325
 3054TIP3    H230722   4.318   5.938   8.489 -0.6267 -2.3545 -1.1836
 3055TIP3   OH230723   2.203   4.402   7.550  0.0850  0.4074 -0.2946
 3055TIP3    H130724   2.191   4.340   7.623  1.6594  1.0321  0.5263
 3055TIP3    H230725   2.140   4.472   7.569  0.1834  0.3579  0.2522
 3056TIP3   OH230726   6.282   2.516   0.396 -0.3234  0.2589 -0.2012
 3056TIP3    H130727   6.213   2.570   0.433 -0.1956 -0.6736  1.4926
 3056TIP3    H230728   6.255   2.426   0.414  1.3948 -0.1336  0.6947
 3057TIP3   OH230729   5.486   2.826   6.365 -0.9011  0.6803  0.2937
 3057TIP3    H130730   5.495   2.732   6.352  1.1180  0.8781 -0.0671
 3057TIP3    H230731   5.567   2.863   6.330 -1.4912  2.5265  0.7614
 3058TIP3   OH230732   5.024   4.290   6.797  0.3146  0.0911  0.1126
 3058TIP3    H130733   5.071   4.224   6.747  0.4058  0.0704  0.2232
 3058TIP3    H230734   4.991   4.244   6.874 -0.5448 -0.0635 -0.3406
 3059TIP3   OH230735   6.072   6.639   6.425 -0.1666  0.0625 -0.6379
 3059TIP3    H130736   5.990   6.591   6.416 -0.3114  0.0179  0.6826
 3059TIP3    H230737   6.139   6.571   6.429 -0.2558  0.0020  0.0386
 3060TIP3   OH230738   1.617   0.172   1.614  0.3621 -0.0250  1.0873
 3060TIP3    H130739   1.601   0.224   1.535  0.4834 -1.5325  0.0444
 3060TIP3    H230740   1.553   0.206   1.678 -0.3816  0.5707  0.0517
 3061TIP3   OH230741   1.407   3.866   1.523  0.2756 -0.0017 -0.3470
 3061TIP3    H130742   1.432   3.777   1.547  1.5424 -0.1095 -1.9588
 3061TIP3    H230743   1.488   3.916   1.525 -0.1691  0.7733 -0.9286
 3062TIP3   OH230744   6.124   0.253   1.747 -0.3711 -0.1282 -0.5883
 3062TIP3    H130745   6.139   0.346   1.732  1.1039 -0.5111 -1.6770
 3062TIP3    H230746   6.039   0.249   1.792 -0.2700  1.7514 -0.1680
 3063TIP3   OH230747   0.306   3.981   0.948  0.2612 -0.6010  0.1414
 3063TIP3    H130748   0.297   3.893   0.911  0.4050 -0.5821  0.0586
 3063TIP3    H230749   0.399   4.003   0.935  0.3419 -0.6475  0.6385
 3064TIP3   OH230750   5.988   0.755   1.161  0.3474 -0.2704 -0.3403
 3064TIP3    H130751   6.083   0.756   1.151  0.4605 -0.4690  0.5580
 3064TIP3    H230752   5.959   0.841   1.133  0.8866  0.0705  0.1339
 3065TIP3   OH230753   5.111   1.612   1.315  0.1697  0.3694 -0.5743
 3065TIP3    H130754   5.096   1.646   1.404 -0.9943  1.1032 -1.0183
 3065TIP3    H230755   5.198   1.574   1.318  0.4718  1.0911  0.6764
 3066TIP3   OH230756   4.351   2.007   0.664 -0.3128  0.5333  0.4894
 3066TIP3    H130757   4.434   2.056   0.670 -1.0880  1.8039  1.4051
 3066TIP3    H230758   4.365   1.945   0.593  0.8910  1.7730 -0.4046
 3067TIP3   OH230759   4.923   2.242   6.375 -0.0576 -0.0018 -0.4715
 3067TIP3    H130760   4.987   2.181   6.413 -0.3343 -0.3270 -0.5285
 3067TIP3    H230761   4.841   2.221   6.418 -0.1470  0.3569 -0.4680
 3068TIP3   OH230762   5.835   1.973   0.318  0.3331  0.2500  0.0673
 3068TIP3    H130763   5.881   1.921   0.384 -1.7313  0.8406  2.0721
 3068TIP3    H230764   5.905   2.023   0.275  1.9888 -1.7286  0.2573
 3069TIP3   OH230765   1.865   6.621   1.745  0.6266 -0.4512  0.8880
 3069TIP3    H130766   1.806   6.606   1.819  0.0232 -0.0078  0.5047
 3069TIP3    H230767   1.861   6.716   1.730  0.7260 -0.5386  0.2848
 3070TIP3   OH230768   3.501   5.365   0.088  0.0393 -0.0773  0.7144
 3070TIP3    H130769   3.579   5.310   0.074  1.0698  1.7657 -1.5148
 3070TIP3    H230770   3.429   5.302   0.096  1.3127 -1.8047 -0.4993
 3071TIP3   OH230771   1.082   2.624   1.319  0.2142  0.2939 -0.0085
 3071TIP3    H130772   1.169   2.588   1.301  0.1682  0.0729  0.2101
 3071TIP3    H230773   1.024   2.549   1.317 -0.3545  0.7136 -2.5095
 3072TIP3   OH230774   0.740   6.814   7.023  0.0294  0.0227  0.0883
 3072TIP3    H130775   0.817   6.821   6.967 -0.4667 -1.1745 -0.7923
 3072TIP3    H230776   0.668   6.851   6.972 -0.1621  0.2812  0.5316
 3073TIP3   OH230777   1.557   4.472   8.067 -0.2334 -0.1090 -0.1630
 3073TIP3    H130778   1.625   4.524   8.110 -0.8537  1.2169 -0.7142
 3073TIP3    H230779   1.478   4.490   8.117 -0.2625 -1.3593  0.2596
 3074TIP3   OH230780   0.338   6.843   1.598 -0.3359 -0.0383  0.2465
 3074TIP3    H130781   0.428   6.809   1.594 -0.3526 -0.0714 -2.8388
 3074TIP3    H230782   0.283   6.765   1.606 -0.1422 -0.3087 -0.8048
 3075TIP3   OH230783   3.374   3.956   8.091  0.3394 -0.4893  0.0836
 3075TIP3    H130784   3.306   3.907   8.045  0.8050  1.3724 -2.9389
 3075TIP3    H230785   3.326   4.012   8.152 -0.2813 -3.3908  2.4869
 3076TIP3   OH230786   2.389   0.290   6.742  0.3119 -0.1497 -0.3431
 3076TIP3    H130787   2.390   0.386   6.749 -1.6768 -0.0166 -1.2405
 3076TIP3    H230788   2.425   0.272   6.656 -0.2633 -0.1358 -0.5899
 3077TIP3   OH230789   0.562   1.082   7.558 -0.4139  0.0356  0.7747
 3077TIP3    H130790   0.644   1.097   7.604  0.3740 -0.4277 -0.4287
 3077TIP3    H230791   0.518   1.167   7.557  0.9908  0.7880 -0.3183
 3078TIP3   OH230792   4.792   0.679   0.219 -0.2087 -0.0182 -0.1848
 3078TIP3    H130793   4.754   0.663   0.305  1.4186  0.6756  0.6938
 3078TIP3    H230794   4.859   0.746   0.233  0.2941 -0.0906 -1.9346
 3079TIP3   OH230795   0.206   1.661   1.022 -0.2303 -0.0845  0.5180
 3079TIP3    H130796   0.139   1.598   0.994 -0.2921  0.9003 -1.7574
 3079TIP3    H230797   0.181   1.743   0.979  1.3377  0.8240  1.2449
 3080TIP3   OH230798   2.758   3.152   7.710 -0.2237  0.7086  0.4108
 3080TIP3    H130799   2.773   3.221   7.775  1.6304  0.1143  0.6572
 3080TIP3    H230800   2.833   3.158   7.651  0.1336 -1.2943  0.6139
 3081TIP3   OH230801   1.757   3.574   1.567  0.0741 -0.2516  0.0210
 3081TIP3    H130802   1.835   3.597   1.618  0.0379  0.0813 -0.0695
 3081TIP3    H230803   1.726   3.658   1.533 -0.2990 -0.3894  0.0212
 3082TIP3   OH230804   4.281   4.839   0.113 -0.4591  0.6238  0.5076
 3082TIP3    H130805   4.205   4.897   0.120 -2.2565 -1.5215  0.0887
 3082TIP3    H230806   4.266   4.791   0.032  1.1860 -0.1205  0.6195
 3083TIP3   OH230807   6.555   4.150   8.369 -0.8666 -0.0231  0.0391
 3083TIP3    H130808   6.620   4.221   8.376  0.7922 -1.5000  0.2495
 3083TIP3    H230809   6.538   4.124   8.459 -1.5611  0.1449 -0.0335
 3084TIP3   OH230810   2.694   0.467   0.336  0.5690  0.1186  0.4709
 3084TIP3    H130811   2.680   0.400   0.269 -0.6463  1.2918 -0.4877
 3084TIP3    H230812   2.748   0.533   0.293  1.6266 -0.1308  1.3633
 3085TIP3   OH230813   0.243   2.692   7.459  0.0308 -0.0273 -0.4188
 3085TIP3    H130814   0.173   2.713   7.397 -0.3562 -0.5893 -0.1769
 3085TIP3    H230815   0.302   2.635   7.409 -1.1981 -1.9789  0.2107
 3086TIP3   OH230816   1.817   0.932   1.150 -0.4557  0.2930 -0.0347
 3086TIP3    H130817   1.895   0.885   1.177  0.6050  1.2142 -1.3644
 3086TIP3    H230818   1.774   0.957   1.232  1.2439  0.7566  0.7582
 3087TIP3   OH230819   5.568   3.492   7.999  0.2262 -0.2810 -0.3624
 3087TIP3    H130820   5.574   3.587   7.992  0.3338 -0.2947 -0.4538
 3087TIP3    H230821   5.656   3.463   8.024 -0.0443 -0.2729  0.6353
 3088TIP3   OH230822   5.584   1.921   6.400 -0.3418 -0.3059  0.8038
 3088TIP3    H130823   5.632   1.925   6.483 -0.3276  0.4222  0.7723
 3088TIP3    H230824   5.587   1.829   6.375  0.2079 -0.4296  1.2867
 3089TIP3   OH230825   5.781   2.169   6.877 -0.0008  0.0279  0.0369
 3089TIP3    H130826   5.690   2.173   6.846 -0.2727  0.0534  0.8201
 3089TIP3    H230827   5.807   2.260   6.890  0.3196  0.0463 -0.6858
 3090TIP3   OH230828   2.820   3.629   8.193  0.0218  0.3160  0.3934
 3090TIP3    H130829   2.881   3.702   8.188 -0.1641  0.4031 -1.5419
 3090TIP3    H230830   2.876   3.553   8.211  0.5043  0.6296  0.2465
 3091TIP3   OH230831   0.994   3.966   8.305  0.1871 -0.6428 -0.0792
 3091TIP3    H130832   0.920   3.907   8.297  0.6053 -1.5894  2.3206
 3091TIP3    H230833   0.955   4.051   8.327 -0.2374 -1.1971  1.4499
 3092TIP3   OH230834   0.778   2.703   7.968 -0.7736  0.7468  0.0353
 3092TIP3    H130835   0.703   2.654   8.004 -2.9248  3.1340 -0.8872
 3092TIP3    H230836   0.810   2.755   8.041 -0.4183  0.1997  0.2729
 3093TIP3   OH230837   0.932   0.234   6.867 -1.0069  0.2416  0.4278
 3093TIP3    H130838   0.923   0.139   6.856 -1.8653  0.3881 -0.2206
 3093TIP3    H230839   0.874   0.255   6.941 -1.3201  0.3380  0.1610
 3094TIP3   OH230840   0.268   2.741   7.069 -0.6893 -0.4118 -0.3117
 3094TIP3    H130841   0.338   2.730   7.134 -0.7036 -1.2260 -0.4260
 3094TIP3    H230842   0.312   2.729   6.985 -0.8069 -0.0583 -0.4244
 3095TIP3   OH230843   6.556   4.475   7.637  0.2052  0.2752  0.8032
 3095TIP3    H130844   6.599   4.510   7.559  0.0156  1.2056  1.1093
 3095TIP3    H230845   6.487   4.418   7.602  0.9454 -0.3429  0.3078
 3096TIP3   OH230846   0.179   5.402   2.432 -0.5988  0.3090 -0.2317
 3096TIP3    H130847   0.167   5.332   2.369  0.2695  0.7258 -0.8813
 3096TIP3    H230848   0.240   5.366   2.497  1.9542  1.2474 -1.9460
 3097TIP3   OH230849   6.076   6.762   8.375 -0.3049  0.1781  0.0853
 3097TIP3    H130850   6.063   6.852   8.347  0.4204  0.3785  0.3679
 3097TIP3    H230851   6.029   6.755   8.458  0.9233  0.7581  0.8588
 3098TIP3   OH230852   3.051   6.844   8.134  0.3943  0.1726  0.2432
 3098TIP3    H130853   3.112   6.850   8.207  0.5927 -0.9457  0.1733
 3098TIP3    H230854   3.086   6.776   8.077 -0.7986 -0.3430  0.0942
 3099TIP3   OH230855   6.482   3.478   7.867 -0.1631  0.3065 -0.3406
 3099TIP3    H130856   6.443   3.417   7.804  1.3476 -1.4602  0.3232
 3099TIP3    H230857   6.576   3.472   7.849  0.0958  1.6392  0.4937
 3100TIP3   OH230858   6.547   1.109   7.060  0.2834 -0.8114  0.1185
 3100TIP3    H130859   6.506   1.029   7.027 -0.9079 -0.5779  0.9656
 3100TIP3    H230860   6.473   1.168   7.077  1.1818  0.7745 -1.2277
 3101TIP3   OH230861   4.067   1.828   0.801 -0.0651 -0.3075  0.0165
 3101TIP3    H130862   4.062   1.860   0.711 -0.4065  0.8279  0.4154
 3101TIP3    H230863   4.149   1.866   0.835 -0.3986  0.0369  0.4535
 3102TIP3   OH230864   1.533   3.070   8.361  0.1175  0.2565 -0.3336
 3102TIP3    H130865   1.563   3.062   8.271  0.1469  0.7981 -0.3747
 3102TIP3    H230866   1.528   2.980   8.393  0.7076  0.0980 -0.6798
 3103TIP3   OH230867   0.713   2.160   0.771 -0.6492 -0.5027 -0.0441
 3103TIP3    H130868   0.685   2.165   0.862 -0.8006  2.0977 -0.1501
 3103TIP3    H230869   0.726   2.251   0.745  1.7638 -1.2623 -1.9224
 3104TIP3   OH230870   0.136   0.135   8.391  0.3914  0.6451 -0.5887
 3104TIP3    H130871   0.132   0.216   8.442 -1.4279  0.6018 -0.5932
 3104TIP3    H230872   0.112   0.066   8.453  1.0463  0.2130 -0.8040
 3105TIP3   OH230873   5.864   1.025   1.425  0.3331  0.2326  0.2881
 3105TIP3    H130874   5.840   1.067   1.508  1.2395  2.8682 -0.6675
 3105TIP3    H230875   5.935   0.966   1.448  0.1894  0.4844  1.4661
 3106TIP3   OH230876   5.018   6.874   6.419 -0.2572  0.7259  0.3837
 3106TIP3    H130877   5.101   6.919   6.406 -0.7690  1.7716  0.6641
 3106TIP3    H230878   5.040   6.781   6.409  0.9621  0.9708  0.5541
 3107TIP3   OH230879   6.202   4.769   0.008  0.0748 -0.4055 -0.6945
 3107TIP3    H130880   6.157   4.809  -0.067 -0.0385 -3.7120 -2.5580
 3107TIP3    H230881   6.163   4.812   0.085 -1.4706  1.4721 -2.4181
 3108TIP3   OH230882   3.488   0.719   7.360  0.3287 -0.2816 -0.4131
 3108TIP3    H130883   3.433   0.786   7.320  1.0422 -0.5822 -1.9419
 3108TIP3    H230884   3.430   0.643   7.368 -0.2132  0.2007  0.4766
 3109TIP3   OH230885   0.192   0.342   0.724 -0.8198  0.4841 -0.0868
 3109TIP3    H130886   0.127   0.355   0.655 -0.4266  0.3352 -0.4930
 3109TIP3    H230887   0.175   0.412   0.787 -0.9972  0.7962 -0.4817
 3110TIP3   OH230888   1.406   6.621   2.382 -0.2528  0.2876  0.1105
 3110TIP3    H130889   1.498   6.620   2.407 -0.1334 -1.2351 -0.2996
 3110TIP3    H230890   1.358   6.599   2.462 -0.2870  1.1502  0.3411
 3111TIP3   OH230891   5.223   5.502   2.609 -0.5999 -0.0716 -0.7039
 3111TIP3    H130892   5.299   5.553   2.637  0.0707 -1.8474  0.8958
 3111TIP3    H230893   5.148   5.559   2.626  0.2821  1.4697 -1.7361
 3112TIP3   OH230894   6.737   3.612   6.464  0.3206  0.1133  0.2059
 3112TIP3    H130895   6.767   3.557   6.392  1.3858 -2.5430  2.5106
 3112TIP3    H230896   6.648   3.581   6.482  0.4202  0.0887  0.6570
 3113TIP3   OH230897   2.419   1.705   1.006  0.7936  0.0340  0.3803
 3113TIP3    H130898   2.455   1.619   1.024  1.8475  0.4531  0.3785
 3113TIP3    H230899   2.496   1.762   0.998  0.3029  0.4850 -2.2701
 3114TIP3   OH230900   5.060   6.151   7.570 -0.2007  0.2706  0.2226
 3114TIP3    H130901   5.063   6.246   7.586 -0.1195  0.3594 -0.2915
 3114TIP3    H230902   5.022   6.143   7.483  1.4056 -0.0799 -0.4889
 3115TIP3   OH230903   0.800   3.522   1.277 -0.2884 -0.3055  0.4721
 3115TIP3    H130904   0.825   3.481   1.360 -0.7318 -0.2517  0.6318
 3115TIP3    H230905   0.882   3.526   1.228  0.0049 -0.2315  0.9529
 3116TIP3   OH230906   2.099   3.961   2.227 -0.0930  0.0144 -0.1650
 3116TIP3    H130907   2.162   3.893   2.200  0.0146 -0.0775  0.2998
 3116TIP3    H230908   2.153   4.029   2.268 -0.2487  0.1558 -0.1937
 3117TIP3   OH230909   4.248   0.771   6.955 -0.7928  0.3236 -0.1792
 3117TIP3    H130910   4.280   0.761   6.865  2.0086  0.3479  0.7354
 3117TIP3    H230911   4.153   0.763   6.947 -0.6765  0.7408 -3.1880
 3118TIP3   OH230912   0.641   4.293   7.323  0.1532  0.1049 -0.9525
 3118TIP3    H130913   0.546   4.284   7.330  0.3353 -1.0091  0.5481
 3118TIP3    H230914   0.667   4.335   7.405  1.1165 -1.2233 -0.5437
 3119TIP3   OH230915   0.869   3.690   1.813 -0.4024 -0.8290  0.1349
 3119TIP3    H130916   0.873   3.640   1.894 -1.2274  1.5491  1.7344
 3119TIP3    H230917   0.956   3.680   1.774 -0.3591 -2.9498  0.6765
 3120TIP3   OH230918   3.122   1.464   1.514  0.3409 -0.2443  0.3484
 3120TIP3    H130919   3.046   1.409   1.498 -0.0566  0.5920 -0.8142
 3120TIP3    H230920   3.197   1.404   1.513 -0.0053 -0.7156 -1.5858
 3121TIP3   OH230921   5.602   2.341   0.606  0.1377  0.1477  0.3499
 3121TIP3    H130922   5.539   2.408   0.582  1.6618  0.8995 -1.7339
 3121TIP3    H230923   5.581   2.266   0.550 -1.2006 -1.0354  2.2730
 3122TIP3   OH230924   5.110   4.893   8.498 -0.1796 -0.6519  0.0872
 3122TIP3    H130925   5.171   4.854   8.435 -0.5111 -0.6006 -0.2629
 3122TIP3    H230926   5.031   4.910   8.448 -0.1733  0.1129  0.3373
 3123TIP3   OH230927   6.209   1.794   8.502  0.0716 -0.8046  0.2204
 3123TIP3    H130928   6.191   1.773   8.411  0.7288 -0.6128  0.0425
 3123TIP3    H230929   6.138   1.752   8.551 -0.6738 -0.3356 -0.4258
 3124TIP3   OH230930   4.500   3.551   8.226  0.2514  0.3727  0.0233
 3124TIP3    H130931   4.547   3.634   8.230  0.7489  0.0877  0.1511
 3124TIP3    H230932   4.450   3.556   8.144  0.6802  0.5849 -0.2272
 3125TIP3   OH230933   4.743   4.037   7.738  0.4045  0.2411  0.1517
 3125TIP3    H130934   4.684   3.977   7.692  0.9202  0.3112 -0.6185
 3125TIP3    H230935   4.814   3.981   7.769  1.0617  0.5017 -0.8689
 3126TIP3   OH230936   4.793   6.777   6.960  0.0979  0.2679  0.2824
 3126TIP3    H130937   4.773   6.832   6.885 -0.4571  0.3030  0.4558
 3126TIP3    H230938   4.818   6.692   6.923  1.0185  0.6392  0.0091
 3127TIP3   OH230939   2.520   1.219   6.293 -0.2746 -0.0724  0.5177
 3127TIP3    H130940   2.588   1.245   6.231  0.8295  1.9181  2.3788
 3127TIP3    H230941   2.447   1.279   6.276 -1.0591 -1.2915 -0.5609
 3128TIP3   OH230942   6.264   1.786   1.266  0.0620 -0.3426  0.1227
 3128TIP3    H130943   6.344   1.828   1.298 -0.6227  1.4022 -0.3529
 3128TIP3    H230944   6.233   1.736   1.341  0.0021  1.4209  1.3528
 3129TIP3   OH230945   2.449   3.765   1.828 -0.4713  0.0859 -0.2607
 3129TIP3    H130946   2.417   3.682   1.864  1.0902  0.3140  1.8424
 3129TIP3    H230947   2.544   3.754   1.824 -0.0620  2.2297  1.4630
 3130TIP3   OH230948   6.016   2.575   0.341 -0.2726 -0.7214 -0.1140
 3130TIP3    H130949   5.974   2.655   0.371 -1.0690 -0.5874 -1.4971
 3130TIP3    H230950   6.070   2.603   0.267 -0.3568 -1.4148 -0.4454
 3131TIP3   OH230951   4.896   2.956   7.620  0.6241 -0.4015  0.2234
 3131TIP3    H130952   4.970   2.962   7.681  0.0127 -0.4463  0.9860
 3131TIP3    H230953   4.840   3.030   7.643  0.0712 -0.7900  0.1441
 3132TIP3   OH230954   3.913   3.306   7.064  0.1069  0.3612 -0.2054
 3132TIP3    H130955   3.966   3.253   7.123  1.0283  1.1280 -0.3170
 3132TIP3    H230956   3.824   3.272   7.074  0.3137  0.1900  1.2898
 3133TIP3   OH230957   2.397   6.624   7.743 -0.4718  0.0757  0.3614
 3133TIP3    H130958   2.389   6.595   7.652 -2.0164 -2.3894  1.1799
 3133TIP3    H230959   2.485   6.663   7.748 -0.7737  1.3234 -2.4041
 3134TIP3   OH230960   3.578   5.604   7.913  0.0554  0.1213  0.7463
 3134TIP3    H130961   3.605   5.634   8.000  0.3665  2.6178 -0.1418
 3134TIP3    H230962   3.656   5.562   7.876 -0.0663 -0.9103  1.6174
 3135TIP3   OH230963   6.625   1.035   6.243 -0.2074  0.6707  0.5692
 3135TIP3    H130964   6.548   0.984   6.219  0.6733 -0.3028 -0.2542
 3135TIP3    H230965   6.603   1.125   6.217 -1.3675  0.5527  1.0912
 3136TIP3   OH230966   2.366   2.744   1.727  0.1359  0.1453  0.2674
 3136TIP3    H130967   2.319   2.811   1.677 -0.3248  0.0642  0.5850
 3136TIP3    H230968   2.303   2.714   1.792  1.4227  1.8566  2.4073
 3137TIP3   OH230969   3.271   0.979   8.204 -0.2473  0.0851  0.2341
 3137TIP3    H130970   3.216   0.925   8.261 -2.0008  1.3645 -0.1450
 3137TIP3    H230971   3.247   0.953   8.115  0.1105  0.3475  0.0573
 3138TIP3   OH230972   3.885   1.324   0.793 -0.0557  0.1492 -0.0827
 3138TIP3    H130973   3.849   1.324   0.705  0.5331 -1.4774 -0.3457
 3138TIP3    H230974   3.901   1.417   0.812 -1.9908  0.6869 -0.9096
 3139TIP3   OH230975   4.776   0.107   1.122  0.1275 -0.2404 -1.1484
 3139TIP3    H130976   4.765   0.134   1.031  1.0934  3.7361 -0.3027
 3139TIP3    H230977   4.864   0.069   1.124  0.2061 -0.1177 -1.8200
 3140TIP3   OH230978   4.993   1.875   6.646  0.1342 -0.6118  0.5515
 3140TIP3    H130979   4.981   1.780   6.649  0.3969 -0.6317  1.4399
 3140TIP3    H230980   4.904   1.910   6.640  0.0458 -0.9181  0.0500
 3141TIP3   OH230981   3.794   0.108   8.098  0.4096 -0.3055  0.2434
 3141TIP3    H130982   3.789   0.151   8.183  1.5788  0.7716 -0.1997
 3141TIP3    H230983   3.857   0.160   8.048 -0.8512 -0.4286 -1.5656
 3142TIP3   OH230984   0.187   6.284   1.353  0.3200 -0.6150 -0.2455
 3142TIP3    H130985   0.206   6.254   1.442  1.2100 -0.4079 -0.3561
 3142TIP3    H230986   0.168   6.204   1.304 -1.6846 -0.6135  0.4625
 3143TIP3   OH230987   6.627   4.878   7.733  0.0496  0.2592 -0.7550
 3143TIP3    H130988   6.600   4.862   7.823  1.3357 -1.9076 -0.6959
 3143TIP3    H230989   6.662   4.967   7.734 -0.5592  0.5098  0.7114
 3144TIP3   OH230990   2.666   3.638   7.556  0.0670 -0.3465 -0.4873
 3144TIP3    H130991   2.690   3.564   7.500 -0.4504  0.0466 -1.2451
 3144TIP3    H230992   2.739   3.699   7.549 -0.1860 -0.1115 -1.0681
 3145TIP3   OH230993   0.460   3.979   2.143 -0.1055 -0.0844 -0.3552
 3145TIP3    H130994   0.424   3.912   2.084 -0.4272  1.9988 -2.6946
 3145TIP3    H230995   0.385   4.010   2.193  0.1842 -1.9372  1.3250
 3146TIP3   OH230996   0.036   0.544   0.088 -0.3991  0.0024  0.3589
 3146TIP3    H130997  -0.049   0.529   0.130 -1.2085 -0.8695 -1.4938
 3146TIP3    H230998   0.015   0.582   0.003  1.0332 -0.5814 -0.2967
 3147TIP3   OH230999   0.223   2.691   1.243  0.2997  0.2950 -0.0852
 3147TIP3    H131000   0.224   2.625   1.313  0.2703  0.5315  0.1407
 3147TIP3    H231001   0.311   2.729   1.244  1.2413 -1.6139 -2.0321
 3148TIP3   OH231002   3.378   4.731   0.641 -0.1562 -0.1799  0.4802
 3148TIP3    H131003   3.352   4.712   0.731  0.1077  1.3987  0.9166
 3148TIP3    H231004   3.303   4.775   0.602 -0.4600 -1.2936 -0.2560
 3149TIP3   OH231005   6.508   3.922   6.335 -0.0096  0.5307  0.3033
 3149TIP3    H131006   6.545   4.006   6.363 -1.9402  1.9315 -1.0172
 3149TIP3    H231007   6.432   3.909   6.393  0.1801 -0.2431  0.3931
 3150TIP3   OH231008   0.524   5.951   8.514 -0.1878 -0.2495  0.2494
 3150TIP3    H131009   0.619   5.961   8.511 -0.0971 -1.2850 -1.2001
 3150TIP3    H231010   0.492   5.999   8.438 -0.7393 -0.7443  0.1619
 3151TIP3   OH231011   2.762   4.855   1.647  0.0938  0.0081  0.1603
 3151TIP3    H131012   2.772   4.879   1.739 -1.9103  0.7817  0.2341
 3151TIP3    H231013   2.667   4.845   1.636  0.3525 -0.6854 -1.6781
 3152TIP3   OH231014   6.840   4.901   6.518 -0.0759 -0.2782 -0.1279
 3152TIP3    H131015   6.893   4.905   6.439  2.3211  0.0063  1.4132
 3152TIP3    H231016   6.814   4.992   6.535  1.3772  0.0174  0.6373
 3153TIP3   OH231017   6.312   0.846   7.222 -0.7744 -0.0628  0.0524
 3153TIP3    H131018   6.235   0.789   7.225  0.4327 -2.0972 -2.8322
 3153TIP3    H231019   6.379   0.799   7.271 -0.8945  0.9436  1.2194
 3154TIP3   OH231020   4.330   3.582   1.744  0.3054  0.5110  0.2339
 3154TIP3    H131021   4.322   3.501   1.793  1.0198  0.9159  1.0381
 3154TIP3    H231022   4.347   3.649   1.810 -1.1576  1.4900 -0.3059
 3155TIP3   OH231023   2.350   6.406   7.998  0.1565 -0.5090  1.0182
 3155TIP3    H131024   2.349   6.421   7.904 -0.8020  0.2058  1.1217
 3155TIP3    H231025   2.368   6.313   8.008  0.3989 -0.5622  0.1396
 3156TIP3   OH231026   0.196   3.786   7.315  0.3052 -0.0945  0.7527
 3156TIP3    H131027   0.219   3.769   7.223  1.8452 -0.0575  1.1044
 3156TIP3    H231028   0.224   3.876   7.330  0.8254 -0.3686  1.4771
 3157TIP3   OH231029   5.083   3.195   2.374  0.0101  0.2047 -0.2457
 3157TIP3    H131030   5.138   3.142   2.432  0.2965  0.7146 -0.0471
 3157TIP3    H231031   5.066   3.275   2.423  0.5001  0.7645 -0.9838
 3158TIP3   OH231032   3.764   5.367   0.442  0.0754  0.5194 -0.0692
 3158TIP3    H131033   3.749   5.433   0.375  0.8226  0.8422  0.0769
 3158TIP3    H231034   3.855   5.378   0.468 -0.1921  0.3854  0.9841
 3159TIP3   OH231035   1.352   0.063   0.641 -0.1238  0.3434 -0.4940
 3159TIP3    H131036   1.289   0.064   0.569 -0.5048 -3.0669 -0.3592
 3159TIP3    H231037   1.300   0.082   0.719  0.2947  4.0839 -0.9621
 3160TIP3   OH231038   1.361   5.204   2.219 -0.0788  0.1863  0.3689
 3160TIP3    H131039   1.401   5.165   2.296  2.3648  0.3831 -0.6911
 3160TIP3    H231040   1.351   5.131   2.157 -0.2643  0.3528  0.1990
 3161TIP3   OH231041   4.902   4.088   7.279  0.4458 -0.1913 -0.5372
 3161TIP3    H131042   4.926   4.085   7.372  0.5244  2.1048 -0.4066
 3161TIP3    H231043   4.987   4.093   7.234  0.3883 -0.5459 -0.6850
 3162TIP3   OH231044   3.008   3.504   7.844 -0.0772  0.0542 -0.1218
 3162TIP3    H131045   3.090   3.505   7.894 -0.1756  2.1298  0.0627
 3162TIP3    H231046   3.035   3.495   7.753  0.3328  0.3889 -0.0341
 3163TIP3   OH231047   6.394   5.719   0.732 -0.1415  1.0745  0.7502
 3163TIP3    H131048   6.325   5.776   0.766 -2.1379 -0.4681 -0.4353
 3163TIP3    H231049   6.391   5.642   0.789 -1.1908 -0.0632 -0.7388
 3164TIP3   OH231050   3.634   1.691   0.879  0.1258 -0.3142  1.0179
 3164TIP3    H131051   3.626   1.643   0.962 -0.0421 -0.9691  0.6269
 3164TIP3    H231052   3.666   1.778   0.905  1.0222 -0.8238  1.6747
 3165TIP3   OH231053   6.251   0.764   0.962 -0.2262  0.3713  0.4112
 3165TIP3    H131054   6.262   0.732   1.051 -1.1843  1.7884  1.0739
 3165TIP3    H231055   6.275   0.857   0.967 -0.5328  0.5341 -0.7505
 3166TIP3   OH231056   0.668   5.189   8.575 -0.2884 -0.2448  0.0574
 3166TIP3    H131057   0.720   5.208   8.653  0.3953  1.9964 -0.8723
 3166TIP3    H231058   0.683   5.095   8.560  2.7581  0.0553  0.4330
 3167TIP3   OH231059   5.697   6.776   7.613 -0.1589  0.2994  0.2119
 3167TIP3    H131060   5.768   6.840   7.604 -0.0333  0.2450  0.7606
 3167TIP3    H231061   5.624   6.827   7.649  0.1473  0.0117  1.2760
 3168TIP3   OH231062   0.462   1.780   7.229  0.3066  0.1357  0.1255
 3168TIP3    H131063   0.552   1.811   7.222 -0.0783  1.0738 -1.0501
 3168TIP3    H231064   0.436   1.761   7.139 -0.5178 -0.6010  0.5013
 3169TIP3   OH231065   6.017   0.390   2.055 -0.1750  0.3840 -0.0734
 3169TIP3    H131066   5.931   0.355   2.034  0.4275 -0.8174 -0.6946
 3169TIP3    H231067   6.030   0.370   2.148 -0.9734  1.5287  0.3049
 3170TIP3   OH231068   4.287   0.120   2.421  0.1196 -0.0934  0.3894
 3170TIP3    H131069   4.236   0.156   2.348 -2.0321  0.2481  1.9365
 3170TIP3    H231070   4.293   0.192   2.483 -2.5930 -1.6641  2.7146
 3171TIP3   OH231071   3.534   6.442   0.334 -0.0858  0.3320 -0.1893
 3171TIP3    H131072   3.507   6.414   0.247 -0.7490  0.8088 -0.1484
 3171TIP3    H231073   3.455   6.480   0.372  0.4726  1.1160  0.2141
 3172TIP3   OH231074   3.280   1.821   6.837  0.3974 -0.1441 -0.1322
 3172TIP3    H131075   3.328   1.847   6.758  0.3060  0.4808  0.0139
 3172TIP3    H231076   3.190   1.852   6.821 -0.1669 -1.9431 -0.7292
 3173TIP3   OH231077   3.413   3.436   7.179 -0.2594 -0.1244  0.2783
 3173TIP3    H131078   3.444   3.458   7.267 -0.3531  0.1312  0.2479
 3173TIP3    H231079   3.468   3.361   7.153  1.2502  1.1327 -0.2988
 3174TIP3   OH231080   1.140   1.720   2.004 -1.2638 -0.4898 -0.0489
 3174TIP3    H131081   1.100   1.785   2.062 -1.0863 -0.9269  0.5648
 3174TIP3    H231082   1.106   1.636   2.034 -1.5661 -0.6851 -0.9021
 3175TIP3   OH231083   5.679   6.688   0.569 -0.4269  0.4875 -0.3623
 3175TIP3    H131084   5.738   6.677   0.494  0.6806  0.6244  0.4560
 3175TIP3    H231085   5.692   6.609   0.622 -0.8824  0.5818 -0.1080
 3176TIP3   OH231086   2.583   6.404   8.133  0.1840  0.0342  0.2488
 3176TIP3    H131087   2.655   6.368   8.081  1.0332  0.0360  1.3889
 3176TIP3    H231088   2.511   6.415   8.070  0.8084 -1.0212 -0.6845
 3177TIP3   OH231089   3.495   3.658   7.012 -0.5953  0.0957 -0.0971
 3177TIP3    H131090   3.513   3.630   6.922  1.0496  0.4247  0.0887
 3177TIP3    H231091   3.492   3.576   7.062  0.8655  0.0194 -0.0920
 3178TIP3   OH231092   0.474   5.692   6.532 -0.2749 -0.0203 -0.1751
 3178TIP3    H131093   0.441   5.618   6.583 -1.3998 -0.3982 -1.3854
 3178TIP3    H231094   0.407   5.760   6.543 -0.1959  0.1302 -0.6089
 3179TIP3   OH231095   0.080   3.301   7.114 -0.0664  0.4403 -0.3682
 3179TIP3    H131096   0.142   3.297   7.187 -0.3970 -2.3592 -0.1295
 3179TIP3    H231097  -0.005   3.306   7.156 -0.1546  1.6206 -0.6553
 3180TIP3   OH231098   4.742   5.600   7.388 -0.2873 -0.0601 -0.5809
 3180TIP3    H131099   4.669   5.548   7.353  0.0861 -0.9747 -0.0444
 3180TIP3    H231100   4.766   5.659   7.316 -1.7594  0.4893 -0.6483
 3181TIP3   OH231101   2.198   1.451   0.226  0.5459 -0.2145  0.0188
 3181TIP3    H131102   2.251   1.513   0.277 -0.7267  1.7071 -0.8984
 3181TIP3    H231103   2.193   1.373   0.282  4.2416 -0.5356  0.1910
 3182TIP3   OH231104   5.881   0.737   6.130 -0.7746 -0.2751  0.0534
 3182TIP3    H131105   5.885   0.642   6.118 -1.5579 -0.3516  0.3548
 3182TIP3    H231106   5.791   0.760   6.109 -0.2049  0.6352 -1.6050
 3183TIP3   OH231107   6.284   6.343   6.651 -0.1319 -0.4316  0.5522
 3183TIP3    H131108   6.357   6.314   6.705  0.0103  0.8166  1.0781
 3183TIP3    H231109   6.325   6.396   6.582 -0.3240 -1.8992 -0.7296
 3184TIP3   OH231110   4.129   3.899   0.338  0.5735  0.2064  0.2984
 3184TIP3    H131111   4.067   3.942   0.279 -0.5533  0.1753  1.4013
 3184TIP3    H231112   4.176   3.836   0.282  0.7343  1.3422 -0.8845
 3185TIP3   OH231113   4.469   5.929   0.916  0.3762 -0.2599 -0.2438
 3185TIP3    H131114   4.503   6.018   0.926 -1.7027  0.6215 -0.4753
 3185TIP3    H231115   4.471   5.893   1.004 -1.5766  1.1831  0.4860
 3186TIP3   OH231116   1.593   0.588   7.027  0.2826  0.1588 -0.0273
 3186TIP3    H131117   1.605   0.589   7.122  0.8363  0.0390 -0.0936
 3186TIP3    H231118   1.623   0.674   6.998 -1.6533  0.9212  0.1035
 3187TIP3   OH231119   3.016   1.516   7.595 -0.0758 -0.2407 -0.3094
 3187TIP3    H131120   3.002   1.509   7.689 -1.2154 -1.9277 -0.5501
 3187TIP3    H231121   3.109   1.537   7.585  0.5325 -1.9332  1.1745
 3188TIP3   OH231122   1.860   2.958   0.786 -0.6237 -0.0891 -0.2257
 3188TIP3    H131123   1.883   2.877   0.740 -0.1555  0.6773 -1.3955
 3188TIP3    H231124   1.937   3.015   0.775 -1.1814  0.7368  0.0411
 3189TIP3   OH231125   3.413   2.417   8.070  0.2718  0.5386  0.1521
 3189TIP3    H131126   3.351   2.457   8.008  0.0324  0.9994  0.6769
 3189TIP3    H231127   3.440   2.490   8.126 -0.7001 -0.1487  1.5724
 3190TIP3   OH231128   4.909   2.663   7.191  0.4587 -0.2007 -0.6784
 3190TIP3    H131129   4.950   2.620   7.266  0.6713  1.6665  0.3360
 3190TIP3    H231130   4.819   2.682   7.220  0.8941  1.6042 -0.3896
 3191TIP3   OH231131   4.843   3.365   0.309 -0.0874 -0.1027 -0.0139
 3191TIP3    H131132   4.815   3.343   0.220 -0.1341  0.7523 -0.2229
 3191TIP3    H231133   4.905   3.297   0.333  1.0751  0.4650 -1.2838
 3192TIP3   OH231134   4.746   1.105   7.786  0.5064 -0.0950 -0.0389
 3192TIP3    H131135   4.826   1.052   7.778  0.2467 -0.5928  0.5576
 3192TIP3    H231136   4.693   1.057   7.850 -0.0045  0.5624  0.0291
 3193TIP3   OH231137   5.441   4.778   8.291  0.3172 -0.4681 -0.3022
 3193TIP3    H131138   5.388   4.702   8.265 -2.9762  2.3187 -2.6829
 3193TIP3    H231139   5.436   4.779   8.387 -1.2333 -2.1499 -0.3132
 3194TIP3   OH231140   6.711   0.830   7.057  0.1847  0.5542 -0.3789
 3194TIP3    H131141   6.762   0.898   7.101  2.5906 -0.0225 -2.0324
 3194TIP3    H231142   6.726   0.751   7.109  2.1664  0.1031 -1.5260
 3195TIP3   OH231143   2.906   6.467   7.391  0.0029 -0.6719 -0.3922
 3195TIP3    H131144   2.945   6.379   7.386  0.1096 -0.6584  0.1447
 3195TIP3    H231145   2.852   6.464   7.470 -1.2494 -0.7513 -1.2272
 3196TIP3   OH231146   6.505   1.856   0.125 -0.0342 -0.1024  0.3949
 3196TIP3    H131147   6.458   1.884   0.046  0.8438 -0.4143 -0.2512
 3196TIP3    H231148   6.552   1.934   0.154 -0.4586  0.0472  0.6962
 3197TIP3   OH231149   3.676   5.739   8.610 -0.1308  0.0848  0.3023
 3197TIP3    H131150   3.589   5.708   8.583 -0.1754 -0.5499  1.1385
 3197TIP3    H231151   3.661   5.784   8.693  0.4522 -0.7648  0.8820
 3198TIP3   OH231152   6.613   2.846   6.612  0.6188 -0.0480  0.4674
 3198TIP3    H131153   6.525   2.813   6.593  1.3713 -1.5910 -0.6225
 3198TIP3    H231154   6.654   2.777   6.664  1.4526  0.2588  0.2351
 3199TIP3   OH231155   4.566   4.034   6.819  0.4298 -0.0940 -0.6058
 3199TIP3    H131156   4.588   4.078   6.900 -0.2323 -1.6790  0.4832
 3199TIP3    H231157   4.543   4.105   6.759  3.9470  1.3581 -0.4817
 3200TIP3   OH231158   2.658   6.652   1.397 -0.3806  0.1685 -0.0046
 3200TIP3    H131159   2.741   6.690   1.371  0.0123 -0.0002  0.9631
 3200TIP3    H231160   2.605   6.727   1.426 -0.1004  0.1386  0.5958
 3201TIP3   OH231161   1.797   1.595   7.512  0.3250  0.3161 -0.3049
 3201TIP3    H131162   1.801   1.691   7.505  2.9055  0.2947 -0.4086
 3201TIP3    H231163   1.764   1.566   7.428  1.1960  1.1008 -0.9467
 3202TIP3   OH231164   2.175   0.063   6.272  0.0845  0.2346 -0.2273
 3202TIP3    H131165   2.156   0.137   6.215  2.1395 -0.8932 -2.5537
 3202TIP3    H231166   2.255   0.088   6.318  1.3783 -0.8424 -1.7859
 3203TIP3   OH231167   4.134   4.125   0.537 -0.0566 -0.0421  0.2117
 3203TIP3    H131168   4.117   4.111   0.444  1.7804  3.2999 -0.7809
 3203TIP3    H231169   4.223   4.093   0.550  0.1366  0.6203  0.5301
 3204TIP3   OH231170   2.389   5.183   1.571 -0.1375 -0.1634 -0.1114
 3204TIP3    H131171   2.468   5.209   1.523 -0.7252  1.3673 -0.2929
 3204TIP3    H231172   2.421   5.125   1.640  0.9504 -0.8339 -1.1423
 3205TIP3   OH231173   6.034   2.233   0.667 -0.2422 -0.2165  0.4847
 3205TIP3    H131174   6.056   2.326   0.663  2.5862 -0.8661 -1.6774
 3205TIP3    H231175   6.099   2.196   0.727  0.6167 -1.2004 -0.9876
 3206TIP3   OH231176   3.592   3.928   1.688  0.0225  0.1764 -0.4854
 3206TIP3    H131177   3.591   3.940   1.783 -0.7839  1.7965 -0.6787
 3206TIP3    H231178   3.537   3.850   1.673  1.6750 -1.2419  0.4712
 3207TIP3   OH231179   6.845   4.133   0.172 -0.2392 -0.4823 -0.5882
 3207TIP3    H131180   6.919   4.095   0.125  0.4781 -1.1769  1.0526
 3207TIP3    H231181   6.774   4.136   0.107  0.2068 -2.9359 -1.2728
 3208TIP3   OH231182   1.137   0.220   2.479 -0.5943 -0.2430 -0.9326
 3208TIP3    H131183   1.127   0.253   2.389 -2.9632 -1.5283 -1.2190
 3208TIP3    H231184   1.084   0.140   2.481  0.0627 -0.6830  1.4058
 3209TIP3   OH231185   3.357   5.160   0.783 -0.0096 -0.0508  0.4515
 3209TIP3    H131186   3.346   5.179   0.689  1.2391 -0.7241  0.1467
 3209TIP3    H231187   3.405   5.235   0.817  0.7984 -0.4600  0.2364
 3210TIP3   OH231188   4.637   4.303   7.597  0.2793  0.1596  0.1620
 3210TIP3    H131189   4.542   4.308   7.610  0.3034  1.5335 -0.0999
 3210TIP3    H231190   4.662   4.221   7.641 -1.0402 -0.3206  0.0760
 3211TIP3   OH231191   4.917   2.647   6.933  0.1011  0.0390 -0.2098
 3211TIP3    H131192   4.982   2.712   6.908 -2.0381  2.7791  0.8834
 3211TIP3    H231193   4.894   2.670   7.023 -1.4746 -1.6346 -0.1328
 3212TIP3   OH231194   2.258   5.729   6.739  0.6954 -0.3118  0.0305
 3212TIP3    H131195   2.296   5.712   6.653  0.1349 -0.5980 -0.1639
 3212TIP3    H231196   2.328   5.708   6.801  1.5681  1.2113 -0.3989
 3213TIP3   OH231197   1.884   0.315   6.568  0.1993  0.1566 -0.2974
 3213TIP3    H131198   1.906   0.393   6.619  0.1654  0.0505 -0.1172
 3213TIP3    H231199   1.968   0.282   6.537  0.1338  0.8931 -1.3247
 3214TIP3   OH231200   3.186   6.168   8.210 -0.6186 -0.3687  0.8478
 3214TIP3    H131201   3.128   6.197   8.139 -0.4254  0.2146  0.9244
 3214TIP3    H231202   3.191   6.073   8.199 -2.3189 -0.5467  1.3811
 3215TIP3   OH231203   6.311   5.918   0.103 -0.6202 -0.0728  0.2362
 3215TIP3    H131204   6.336   5.926   0.196 -0.8868 -0.7041  0.3659
 3215TIP3    H231205   6.336   5.829   0.079  1.1472  0.6776 -0.8346
 3216TIP3   OH231206   1.132   1.516   1.244 -0.1033 -0.2794  0.1191
 3216TIP3    H131207   1.068   1.505   1.174  0.1667 -1.0327 -0.0262
 3216TIP3    H231208   1.194   1.444   1.231  0.5117  0.1630  0.5354
 3217TIP3   OH231209   5.646   4.631   1.628  0.4276 -0.3607  0.1868
 3217TIP3    H131210   5.589   4.600   1.557 -0.7882  1.4803  0.2838
 3217TIP3    H231211   5.735   4.614   1.597 -0.1283 -1.4361 -0.8824
 3218TIP3   OH231212   5.070   5.252   0.839 -0.1559 -0.7693 -0.2974
 3218TIP3    H131213   4.994   5.300   0.804 -0.5265 -0.7059  0.5795
 3218TIP3    H231214   5.057   5.253   0.934  2.2415  1.4959  0.1176
 3219TIP3   OH231215   4.408   4.819   0.818 -0.3002 -0.2321 -0.5847
 3219TIP3    H131216   4.447   4.905   0.801 -0.2399 -0.2404 -0.4865
 3219TIP3    H231217   4.394   4.817   0.912 -0.6358 -0.1870 -0.6324
 3220TIP3   OH231218   5.316   0.795   1.749  0.4168  0.3438  0.0961
 3220TIP3    H131219   5.251   0.862   1.728 -1.6592 -1.9497 -1.4038
 3220TIP3    H231220   5.288   0.759   1.833  0.7622  0.4822  0.2724
 3221TIP3   OH231221   5.617   3.773   8.039 -0.4802  0.6813  0.0259
 3221TIP3    H131222   5.547   3.821   8.083 -0.2174  0.5970  0.5546
 3221TIP3    H231223   5.675   3.841   8.004 -0.7609  0.7500 -0.3026
 3222TIP3   OH231224   2.011   6.013   8.174  0.4809  0.2304  0.4376
 3222TIP3    H131225   1.920   5.987   8.187  0.7484 -2.5085 -2.2088
 3222TIP3    H231226   2.006   6.099   8.133 -0.7908  0.9232  1.9450
 3223TIP3   OH231227   6.240   3.220   2.418 -0.6309 -0.1298 -0.2585
 3223TIP3    H131228   6.288   3.172   2.351  0.5109  1.9156 -1.0040
 3223TIP3    H231229   6.268   3.311   2.407 -0.0105  0.2742  3.2529
 3224TIP3   OH231230   4.787   6.839   1.711  0.5305  0.2470 -0.3314
 3224TIP3    H131231   4.823   6.819   1.797 -0.3873  0.5622  0.1399
 3224TIP3    H231232   4.851   6.898   1.672  1.1354 -0.1952 -0.0185
 3225TIP3   OH231233   1.990   6.113   7.741  0.2076  0.6384 -0.8833
 3225TIP3    H131234   1.955   6.125   7.653  1.0539  1.0782 -1.1732
 3225TIP3    H231235   1.914   6.090   7.795 -0.2897  0.2056 -1.7557
 3226TIP3   OH231236   1.284   4.723   0.931 -0.3801 -0.6327  0.1192
 3226TIP3    H131237   1.258   4.649   0.876 -0.9434 -1.2162  1.1489
 3226TIP3    H231238   1.379   4.717   0.936 -0.4431 -1.4837  0.4594
 3227TIP3   OH231239   6.749   4.006   2.623  0.0678  0.8913  0.0413
 3227TIP3    H131240   6.669   4.010   2.570  0.2740 -0.4037 -0.4211
 3227TIP3    H231241   6.808   4.070   2.584  0.2204 -0.0525 -1.3630
 3228TIP3   OH231242   1.976   3.533   8.470  0.3986 -0.3233 -0.2666
 3228TIP3    H131243   1.960   3.536   8.565 -2.0639  0.0493 -0.6317
 3228TIP3    H231244   2.007   3.621   8.449  0.6638 -0.3155  0.1444
 3229TIP3   OH231245   1.055   1.098   0.708 -0.6800  0.1920 -0.3949
 3229TIP3    H131246   1.073   1.125   0.798  0.3943  0.2257 -0.6031
 3229TIP3    H231247   1.102   1.162   0.654 -1.4809  0.2927 -0.9923
 3230TIP3   OH231248   4.352   3.557   2.159  0.8137 -0.3174 -0.4222
 3230TIP3    H131249   4.372   3.582   2.250  0.1426  0.5605 -0.5032
 3230TIP3    H231250   4.273   3.504   2.165  0.4668  0.1785 -0.5323
 3231TIP3   OH231251   3.380   4.243   0.011  0.4798 -0.2107  0.0147
 3231TIP3    H131252   3.336   4.238  -0.074  2.1858 -0.4112 -0.9069
 3231TIP3    H231253   3.343   4.171   0.062 -0.6891  0.0179 -0.4923
 3232TIP3   OH231254   2.111   2.174   7.518  0.9559  0.8437 -0.3057
 3232TIP3    H131255   2.058   2.220   7.453  0.1377  1.3608  0.6969
 3232TIP3    H231256   2.165   2.243   7.557  2.2519  0.3622 -1.1590
 3233TIP3   OH231257   3.544   3.253   0.044  0.1869 -0.1474  0.1214
 3233TIP3    H131258   3.575   3.167   0.073  0.1283 -0.5103 -0.8430
 3233TIP3    H231259   3.485   3.281   0.113  1.2993 -0.2334  1.1341
 3234TIP3   OH231260   6.398   3.420   6.519  0.2498 -0.2117 -0.4694
 3234TIP3    H131261   6.351   3.438   6.438  0.2997 -1.6698 -0.8539
 3234TIP3    H231262   6.480   3.379   6.491  0.7505  0.2477  0.2824
 3235TIP3   OH231263   0.817   4.082   7.466  0.6484 -0.3824 -0.4190
 3235TIP3    H131264   0.738   4.073   7.413  1.3425  0.4049 -1.6115
 3235TIP3    H231265   0.829   3.995   7.505 -1.3645 -0.2535  0.6365
 3236TIP3   OH231266   5.145   6.420   7.803 -0.2142 -0.2788 -0.1642
 3236TIP3    H131267   5.145   6.456   7.891  0.4035 -0.9277  0.1073
 3236TIP3    H231268   5.224   6.457   7.762 -0.4406 -0.0640 -0.4117
 3237TIP3   OH231269   4.257   3.648   0.144 -0.2010 -0.0303 -0.0493
 3237TIP3    H131270   4.347   3.617   0.159 -0.0261  1.0451  1.3579
 3237TIP3    H231271   4.202   3.584   0.190 -0.0788 -0.0635  0.0512
 3238TIP3   OH231272   2.208   0.450   7.225  0.1644  0.0028 -0.4318
 3238TIP3    H131273   2.242   0.373   7.270  1.3783  1.6896  1.7456
 3238TIP3    H231274   2.114   0.448   7.242  0.1869 -0.9522 -0.3479
 3239TIP3   OH231275   0.923   2.786   8.229  0.0385  0.1167  0.4709
 3239TIP3    H131276   0.997   2.793   8.170  0.1391 -0.0892  0.5722
 3239TIP3    H231277   0.949   2.720   8.293 -1.0513 -1.5628 -0.7278
 3240TIP3   OH231278   4.410   6.133   2.107  0.0559  0.0720 -0.5078
 3240TIP3    H131279   4.373   6.148   2.194 -1.8529 -0.0385 -1.2596
 3240TIP3    H231280   4.504   6.129   2.122 -0.3071 -1.8272  1.8512
 3241TIP3   OH231281   0.053   0.851   0.108  0.0427 -0.8406 -0.0029
 3241TIP3    H131282   0.053   0.908   0.031  2.1946 -0.8014 -0.0338
 3241TIP3    H231283  -0.036   0.817   0.112 -0.4592  0.1088 -1.7909
 3242TIP3   OH231284   4.940   5.597   6.935 -0.9529 -0.0851 -0.1256
 3242TIP3    H131285   4.879   5.670   6.944 -1.5487 -0.3955 -1.3930
 3242TIP3    H231286   4.893   5.532   6.882  0.3477 -0.4675 -0.8633
 3243TIP3   OH231287   3.364   4.897   8.553  0.5134 -0.2186 -0.2771
 3243TIP3    H131288   3.381   4.916   8.645 -2.7231 -3.7525  1.2976
 3243TIP3    H231289   3.296   4.959   8.528 -0.0772 -0.5646  0.4223
 3244TIP3   OH231290   6.067   3.761   0.654 -0.6180  0.2317 -0.2545
 3244TIP3    H131291   6.085   3.695   0.587  1.5623 -1.0030  1.4082
 3244TIP3    H231292   6.053   3.711   0.734 -2.9240  1.6789  0.3320
 3245TIP3   OH231293   5.113   3.650   8.647  0.1255  0.0127  0.4184
 3245TIP3    H131294   5.054   3.691   8.583  2.2391 -0.7178 -2.1962
 3245TIP3    H231295   5.119   3.713   8.719 -2.1394  1.0319 -0.2065
 3246TIP3   OH231296   4.504   0.899   0.674 -0.1023 -0.1464 -0.5075
 3246TIP3    H131297   4.462   0.846   0.606  0.7476  0.5310 -1.6012
 3246TIP3    H231298   4.453   0.980   0.676  0.1874  0.0439 -0.7213
 3247TIP3   OH231299   2.088   4.731   2.320 -0.5994 -0.0888 -0.8714
 3247TIP3    H131300   2.041   4.686   2.390  2.8080  0.1495  1.8793
 3247TIP3    H231301   2.175   4.690   2.320  0.8745  2.7390 -2.0292
 3248TIP3   OH231302   1.968   2.130   0.555  0.1206 -0.4809  0.3499
 3248TIP3    H131303   1.962   2.114   0.649  0.7307 -1.8295  0.1805
 3248TIP3    H231304   1.878   2.143   0.527  0.0569  1.8388  1.3962
 3249TIP3   OH231305   0.595   6.672   7.566  0.4246 -0.0415  0.0858
 3249TIP3    H131306   0.671   6.674   7.507  1.5046  1.6136  1.4656
 3249TIP3    H231307   0.606   6.591   7.616 -0.2679 -1.2389 -1.6051
 3250TIP3   OH231308   4.277   2.607   8.468 -0.0390 -0.4235 -0.0919
 3250TIP3    H131309   4.322   2.532   8.506 -0.8407 -1.3645 -0.9527
 3250TIP3    H231310   4.184   2.587   8.477 -0.2594 -0.0969 -1.3853
 3251TIP3   OH231311   5.292   3.400   1.126  0.0224 -0.0592 -0.1353
 3251TIP3    H131312   5.291   3.451   1.207  0.0343 -0.8715  0.3951
 3251TIP3    H231313   5.321   3.313   1.154 -1.2523 -0.7168 -0.7880
 3252TIP3   OH231314   3.430   6.170   7.967 -0.0345  0.5368 -0.2049
 3252TIP3    H131315   3.378   6.208   8.038  1.1488  3.1792 -0.6553
 3252TIP3    H231316   3.514   6.148   8.008  0.0849  0.5304 -0.4530
 3253TIP3   OH231317   2.187   3.697   7.378  0.0024 -0.1035  0.1928
 3253TIP3    H131318   2.220   3.783   7.353 -0.3634 -0.1522 -0.4888
 3253TIP3    H231319   2.094   3.711   7.398 -0.2739 -0.4701 -0.7429
 3254TIP3   OH231320   4.457   3.864   8.345 -0.4931  0.1792  0.3501
 3254TIP3    H131321   4.456   3.938   8.406 -0.2046 -1.9936  3.2589
 3254TIP3    H231322   4.381   3.812   8.369 -0.4327 -0.7296 -1.2921
 3255TIP3   OH231323   2.436   3.764   6.346  0.1796  0.2910 -0.2062
 3255TIP3    H131324   2.361   3.757   6.405  1.0229  0.1548  0.9086
 3255TIP3    H231325   2.482   3.843   6.375  0.9646 -0.1386 -0.2331
 3256TIP3   OH231326   3.020   4.681   0.606 -0.5603 -0.4907  0.2719
 3256TIP3    H131327   2.960   4.703   0.535 -1.3101  0.7780  1.2693
 3256TIP3    H231328   3.055   4.765   0.636  0.0308 -1.0351  1.1564
 3257TIP3   OH231329   2.959   0.179   0.028 -0.2089 -0.6794  0.3378
 3257TIP3    H131330   2.917   0.219  -0.048  0.3770 -1.2906 -0.3159
 3257TIP3    H231331   3.010   0.250   0.067  2.6417 -1.1919 -2.0910
 3258TIP3   OH231332   4.010   4.613   7.613  0.6842 -0.2058 -0.0476
 3258TIP3    H131333   4.014   4.557   7.536 -0.1278 -0.6634  0.2282
 3258TIP3    H231334   3.916   4.620   7.632  0.8404  0.4206  0.5194
 3259TIP3   OH231335   6.812   1.075   1.289 -0.1774 -0.2485  0.1631
 3259TIP3    H131336   6.727   1.091   1.329 -0.7015  0.6617 -1.2356
 3259TIP3    H231337   6.871   1.061   1.362 -1.3942 -0.2142  1.1848
 3260TIP3   OH231338   5.548   3.162   7.149  0.1945  0.5118  0.3615
 3260TIP3    H131339   5.603   3.089   7.174  1.0089  0.7837 -0.5961
 3260TIP3    H231340   5.608   3.236   7.138 -0.1443  0.5317 -1.8608
 3261TIP3   OH231341   0.854   2.739   0.196 -0.1991 -0.5023 -0.6802
 3261TIP3    H131342   0.835   2.673   0.263  0.4140  0.2108  0.2175
 3261TIP3    H231343   0.949   2.735   0.185 -0.1785  0.1044 -0.7467
 3262TIP3   OH231344   3.432   5.234   6.419 -0.2156 -0.2389 -0.0971
 3262TIP3    H131345   3.453   5.142   6.439 -2.0664 -0.5261  0.7146
 3262TIP3    H231346   3.398   5.269   6.502 -0.9342  0.7505 -0.7908
 3263TIP3   OH231347   0.991   3.926   1.282 -0.1657 -0.1874  0.0203
 3263TIP3    H131348   0.984   3.847   1.337 -1.7168  0.2353  0.5027
 3263TIP3    H231349   0.918   3.918   1.221  0.8507 -0.0713 -1.2459
 3264TIP3   OH231350   1.145   3.356   0.504  0.0380 -0.1912  0.2280
 3264TIP3    H131351   1.216   3.330   0.445  0.5957  1.8851 -0.0804
 3264TIP3    H231352   1.065   3.337   0.454  0.3873 -1.2458  0.0310
 3265TIP3   OH231353   5.184   0.168   6.856  0.0578  0.1134  0.4737
 3265TIP3    H131354   5.224   0.236   6.802  1.2620 -1.0771 -0.2095
 3265TIP3    H231355   5.108   0.139   6.805  1.1903 -1.0049 -0.6497
 3266TIP3   OH231356   0.520   4.927   7.291  0.6010 -0.1545 -0.3589
 3266TIP3    H131357   0.487   4.879   7.216  1.8662  0.8842 -1.6411
 3266TIP3    H231358   0.591   4.873   7.326  0.6415 -0.1921 -0.5003
 3267TIP3   OH231359   5.609   4.023   1.617 -0.5430 -0.5057 -0.3589
 3267TIP3    H131360   5.625   4.056   1.705  0.8483 -0.8188 -0.4773
 3267TIP3    H231361   5.517   4.045   1.600 -0.0920  2.0244  0.0996
 3268TIP3   OH231362   1.675   4.303   6.989 -0.1641 -0.5070  0.1094
 3268TIP3    H131363   1.658   4.212   6.964  0.1845 -1.0721  1.8141
 3268TIP3    H231364   1.733   4.336   6.921 -1.8596 -0.9030 -1.6261
 3269TIP3   OH231365   3.316   3.272   7.987  0.1068  0.2433  0.2447
 3269TIP3    H131366   3.342   3.220   7.911 -1.6356 -0.1819 -0.1061
 3269TIP3    H231367   3.236   3.230   8.018 -1.0347  2.3375  0.3304
 3270TIP3   OH231368   0.163   4.419   7.497 -0.1215  0.2579 -0.2573
 3270TIP3    H131369   0.094   4.484   7.481 -0.9458 -0.2809  0.9690
 3270TIP3    H231370   0.198   4.442   7.583 -2.0854 -2.2935  1.3441
 3271TIP3   OH231371   6.060   0.175   7.908 -0.2956 -0.0656 -0.1362
 3271TIP3    H131372   5.973   0.204   7.881 -1.1872 -1.6349  0.8775
 3271TIP3    H231373   6.053   0.166   8.003  0.4945 -1.6375 -0.1965
 3272TIP3   OH231374   0.617   6.457   1.164 -0.3583  0.0474 -0.2327
 3272TIP3    H131375   0.527   6.477   1.188 -0.0089  0.4394  0.8256
 3272TIP3    H231376   0.669   6.493   1.236  0.8350  2.0994 -1.9989
 3273TIP3   OH231377   1.340   3.382   1.491 -0.2796 -0.3478 -0.0148
 3273TIP3    H131378   1.389   3.300   1.488  0.6074  0.1220  1.0070
 3273TIP3    H231379   1.318   3.401   1.399  0.5008 -1.1373 -0.3714
 3274TIP3   OH231380   6.401   3.115   7.367  0.1378  0.1905 -0.5019
 3274TIP3    H131381   6.412   3.024   7.340  1.1979 -0.1260  0.8882
 3274TIP3    H231382   6.483   3.157   7.342 -0.1148  0.6313 -0.5975
 3275TIP3   OH231383   4.380   4.587   1.180  0.9704 -0.4202  0.7524
 3275TIP3    H131384   4.401   4.525   1.250  1.7931 -0.9080  0.0930
 3275TIP3    H231385   4.462   4.631   1.160  0.5754  0.2854  0.6298
 3276TIP3   OH231386   5.026   3.100   0.348  0.0952  0.2886 -0.1269
 3276TIP3    H131387   4.948   3.052   0.377  0.4838 -0.2246  0.0770
 3276TIP3    H231388   5.095   3.073   0.408  1.3120 -1.9410 -2.3294
 3277TIP3   OH231389   1.057   4.877   1.059  0.7258  0.3599  0.4792
 3277TIP3    H131390   1.005   4.804   1.026  0.7342  1.3334 -1.8500
 3277TIP3    H231391   1.146   4.859   1.026  1.0306  0.6944  1.1090
 3278TIP3   OH231392   1.139   2.185   8.638  0.1887  0.2613 -0.1293
 3278TIP3    H131393   1.229   2.197   8.669  0.5690  3.1917 -1.9764
 3278TIP3    H231394   1.093   2.262   8.668 -1.1943 -0.2136 -0.9416
 3279TIP3   OH231395   4.474   3.798   6.355 -0.6462 -0.1214  0.0399
 3279TIP3    H131396   4.527   3.866   6.396 -1.4844  1.3088 -1.1441
 3279TIP3    H231397   4.430   3.842   6.283 -1.1806 -1.9479 -0.8237
 3280TIP3   OH231398   3.784   2.340   7.961 -0.6373  0.0717  0.3593
 3280TIP3    H131399   3.702   2.330   7.913  0.8537 -0.9094 -2.1232
 3280TIP3    H231400   3.816   2.251   7.974  0.4327  0.4655  0.5519
 3281TIP3   OH231401   3.778   2.632   6.171 -0.1337 -0.0356  0.0667
 3281TIP3    H131402   3.865   2.596   6.157  1.0080  1.8972  1.7843
 3281TIP3    H231403   3.792   2.726   6.184 -2.8067  0.9088 -2.6643
 3282TIP3   OH231404   2.923   5.295   0.890  0.0049  0.1978 -0.4533
 3282TIP3    H131405   3.002   5.347   0.878 -0.7974  1.9412  1.2863
 3282TIP3    H231406   2.952   5.220   0.943  0.5660  0.6801 -0.0619
 3283TIP3   OH231407   0.124   3.498   8.164  0.5552  0.1516  0.0524
 3283TIP3    H131408   0.211   3.515   8.202 -0.3155  2.1000  1.3137
 3283TIP3    H231409   0.073   3.577   8.184 -1.4690 -0.8646 -0.8295
 3284TIP3   OH231410   3.268   6.581   1.040 -0.0812 -0.2595 -0.0520
 3284TIP3    H131411   3.265   6.512   0.974  3.1309 -0.5399 -0.0612
 3284TIP3    H231412   3.337   6.640   1.009  1.0861 -0.0501  2.6845
 3285TIP3   OH231413   5.478   6.170   0.688  0.0246  0.2008 -0.7496
 3285TIP3    H131414   5.418   6.097   0.671  2.2765 -1.6256 -1.2406
 3285TIP3    H231415   5.460   6.232   0.617 -1.4776 -0.1263 -0.6932
 3286TIP3   OH231416   6.796   0.036   7.735  0.6750  0.2441 -0.1093
 3286TIP3    H131417   6.762  -0.043   7.693 -0.7949  1.1480 -0.6851
 3286TIP3    H231418   6.849   0.078   7.668 -1.5304  1.5968 -1.1008
 3287TIP3   OH231419   2.144   6.572   8.102  0.2204 -0.0268  0.7499
 3287TIP3    H131420   2.216   6.514   8.077  2.5808  2.7831  0.3908
 3287TIP3    H231421   2.124   6.622   8.023 -1.3066  0.1174  1.1849
 3288TIP3   OH231422   6.370   2.296   6.440  0.0255 -0.3846 -0.0318
 3288TIP3    H131423   6.423   2.226   6.478  1.6902 -1.5576 -3.9067
 3288TIP3    H231424   6.292   2.251   6.407 -0.5282  0.2331  0.4306
 3289TIP3   OH231425   2.023   4.360   1.780 -0.0019 -0.4430 -0.0684
 3289TIP3    H131426   2.099   4.307   1.757  1.0790  1.4705 -1.1317
 3289TIP3    H231427   1.977   4.371   1.697 -1.9854 -2.2552  0.6892
 3290TIP3   OH231428   2.173   3.583   0.282 -0.0992  0.0233 -0.1152
 3290TIP3    H131429   2.090   3.553   0.244 -0.9367  2.0505 -0.0386
 3290TIP3    H231430   2.213   3.504   0.317 -0.9891 -1.3689 -2.0126
 3291TIP3   OH231431   2.417   2.144   8.060 -0.6866  0.3394  0.2761
 3291TIP3    H131432   2.402   2.229   8.102 -0.3119  0.0243  1.0616
 3291TIP3    H231433   2.405   2.080   8.130  1.2184 -0.1184  0.2218
 3292TIP3   OH231434   2.318   5.053   0.165  0.5463 -0.5723  0.0124
 3292TIP3    H131435   2.402   5.094   0.148  0.2624  0.2570  0.5439
 3292TIP3    H231436   2.294   5.082   0.253 -0.7496  0.0195 -0.5097
 3293TIP3   OH231437   0.520   4.611   8.465 -0.0519 -0.0560 -0.2090
 3293TIP3    H131438   0.512   4.631   8.372  0.6157  0.0842 -0.2438
 3293TIP3    H231439   0.461   4.672   8.509 -0.7725 -0.4744 -0.5712
 3294TIP3   OH231440   1.874   6.406   7.541 -0.0467  0.2333  0.1026
 3294TIP3    H131441   1.934   6.480   7.536  1.3900 -0.7750  1.6333
 3294TIP3    H231442   1.886   6.359   7.458  0.0796  0.9005 -0.2639
 3295TIP3   OH231443   1.069   6.407   0.814 -0.2139  0.3358 -0.9271
 3295TIP3    H131444   0.995   6.464   0.833 -0.4236  0.4675 -2.0343
 3295TIP3    H231445   1.143   6.466   0.801 -0.0433  0.2417 -0.3997
 3296TIP3   OH231446   5.324   5.845   7.323 -0.2283  0.3694  0.0362
 3296TIP3    H131447   5.273   5.913   7.279 -1.2848 -1.2857 -1.4436
 3296TIP3    H231448   5.259   5.785   7.357  0.6877 -0.0377  1.1206
 3297TIP3   OH231449   1.859   4.431   1.549 -0.1401  0.4230  0.4260
 3297TIP3    H131450   1.779   4.480   1.568  0.0474  0.0326  2.5403
 3297TIP3    H231451   1.928   4.498   1.548 -0.2726  0.5579  0.3243
 3298TIP3   OH231452   1.446   3.573   0.798  0.0688  0.2473 -0.4033
 3298TIP3    H131453   1.454   3.557   0.704  1.3938  0.1846 -0.3018
 3298TIP3    H231454   1.353   3.585   0.813 -0.1502  0.2925 -1.7320
 3299TIP3   OH231455   1.546   1.947   8.627  0.0041 -0.5181 -0.5303
 3299TIP3    H131456   1.516   2.023   8.576  1.6433  0.9153  0.5303
 3299TIP3    H231457   1.501   1.954   8.710  1.4258  0.3295  0.2088
 3300TIP3   OH231458   2.238   2.257   7.825  0.2235  0.0379 -0.2577
 3300TIP3    H131459   2.256   2.351   7.822  3.2625 -0.4683 -2.3070
 3300TIP3    H231460   2.278   2.227   7.907  0.4457  0.3220 -0.2619
 3301TIP3   OH231461   6.158   1.291   6.898  0.1692  0.4194 -0.2162
 3301TIP3    H131462   6.249   1.276   6.875 -0.0675  0.3466 -1.1688
 3301TIP3    H231463   6.127   1.207   6.932  0.0289 -0.0550 -1.4412
 3302TIP3   OH231464   5.314   2.542   6.522 -0.1253  0.3950 -0.2436
 3302TIP3    H131465   5.253   2.614   6.537 -1.1174  0.0361 -2.1716
 3302TIP3    H231466   5.385   2.581   6.470  0.2360  0.3578  0.2156
 3303TIP3   OH231467   4.257   0.855   0.543  0.0385  0.2581  0.1835
 3303TIP3    H131468   4.204   0.901   0.608  0.2315  1.0614 -0.2148
 3303TIP3    H231469   4.207   0.865   0.461  1.2287  1.8490 -0.3978
 3304TIP3   OH231470   6.693   0.208   8.178  0.0383  0.6837  0.4742
 3304TIP3    H131471   6.765   0.201   8.115 -0.4539 -0.3572  0.0076
 3304TIP3    H231472   6.729   0.262   8.249  1.3204  0.1012  0.2958
 3305TIP3   OH231473   1.375   3.370   6.485 -0.1708  0.4639 -0.1980
 3305TIP3    H131474   1.387   3.338   6.574  0.9042  1.2633 -0.0332
 3305TIP3    H231475   1.280   3.373   6.473 -0.3190 -0.2158  0.6984
 3306TIP3   OH231476   2.467   5.380   1.195 -0.2552 -0.1210 -0.0442
 3306TIP3    H131477   2.403   5.309   1.206 -0.5842 -0.0739 -1.4543
 3306TIP3    H231478   2.533   5.343   1.135 -0.9070  1.0172 -1.5394
 3307TIP3   OH231479   2.913   6.443   1.134  0.3468  0.2478  0.7094
 3307TIP3    H131480   2.982   6.510   1.144 -0.1821  1.1011 -0.9451
 3307TIP3    H231481   2.844   6.488   1.086 -0.7102 -1.0632  0.9693
 3308TIP3   OH231482   6.185   4.478   1.353  0.1287  0.1411  0.2578
 3308TIP3    H131483   6.260   4.432   1.315  0.0308  1.7282 -2.0407
 3308TIP3    H231484   6.208   4.570   1.349 -1.7519  0.6465 -0.1038
 3309TIP3   OH231485   1.420   4.037   1.111  0.0242 -0.1585 -0.3581
 3309TIP3    H131486   1.341   3.993   1.081  0.6665 -0.1523 -2.2108
 3309TIP3    H231487   1.392   4.128   1.126 -0.6389 -0.4974  0.5378
 3310TIP3   OH231488   0.296   6.440   8.165 -0.0728  0.0878  0.0251
 3310TIP3    H131489   0.378   6.390   8.167  0.3977  0.7740 -1.2699
 3310TIP3    H231490   0.235   6.384   8.115  0.3612  0.6312 -1.1525
 3311TIP3   OH231491   1.390   3.948   8.436 -0.2225  0.3883  0.3267
 3311TIP3    H131492   1.440   4.003   8.376 -1.4486  0.9089 -0.2605
 3311TIP3    H231493   1.456   3.906   8.491  0.8976  0.4293 -0.9342
 3312TIP3   OH231494   5.758   3.254   1.826  0.1512 -0.0627 -0.4506
 3312TIP3    H131495   5.819   3.183   1.847 -1.0224 -1.4931 -1.6893
 3312TIP3    H231496   5.789   3.288   1.742 -0.3772 -0.3816 -0.7792
 3313TIP3   OH231497   5.421   0.348   7.271 -0.3985 -0.3198  0.6152
 3313TIP3    H131498   5.429   0.256   7.246  0.1442  0.0113 -0.4878
 3313TIP3    H231499   5.328   0.359   7.292 -0.5523 -1.0126  0.3364
 3314TIP3   OH231500   1.434   5.899   0.119 -0.2184  0.5090 -0.1990
 3314TIP3    H131501   1.522   5.902   0.157 -0.1062  0.3711 -0.4427
 3314TIP3    H231502   1.446   5.935   0.031 -0.0411 -1.2420 -0.9242
 3315TIP3   OH231503   4.899   0.662   1.409 -0.2066  0.4908  0.8960
 3315TIP3    H131504   4.934   0.573   1.403  3.3824  1.7100  0.8605
 3315TIP3    H231505   4.868   0.682   1.321  0.9042 -0.0863  0.3418
 3316TIP3   OH231506   2.366   5.469   7.274 -0.1098  0.4985  0.1072
 3316TIP3    H131507   2.367   5.457   7.180 -3.2766  1.2086 -0.1552
 3316TIP3    H231508   2.408   5.554   7.288  1.8640 -0.3522 -0.4310
 3317TIP3   OH231509   4.783   1.258   7.075 -0.8785 -0.2202  0.0161
 3317TIP3    H131510   4.736   1.339   7.052 -0.2407 -0.1053 -0.9368
 3317TIP3    H231511   4.827   1.233   6.994  1.2138  0.0217  1.0361
 3318TIP3   OH231512   2.409   4.455   0.641 -0.0680 -0.1623 -0.2444
 3318TIP3    H131513   2.465   4.443   0.717 -0.0541  2.9273  0.3283
 3318TIP3    H231514   2.389   4.365   0.612  2.1527 -1.3880  1.6918
 3319TIP3   OH231515   1.280   3.441   8.114 -0.1568  0.0394  0.1816
 3319TIP3    H131516   1.252   3.528   8.142  0.3857  0.8641 -1.6682
 3319TIP3    H231517   1.299   3.451   8.021 -0.3097 -2.1367 -0.1267
 3320TIP3   OH231518   4.319   3.452   7.934  0.4349  0.1805  0.1385
 3320TIP3    H131519   4.360   3.493   7.858  0.9865  2.2859  1.4891
 3320TIP3    H231520   4.253   3.516   7.962 -0.0225 -0.7427  1.2067
 3321TIP3   OH231521   1.243   6.718   0.363 -0.1233 -0.8996  0.6822
 3321TIP3    H131522   1.172   6.669   0.404 -2.7742  0.0734 -2.3364
 3321TIP3    H231523   1.230   6.809   0.391  1.1499 -0.9651  1.5866
 3322TIP3   OH231524   0.071   1.935   8.437 -0.3130  0.1825 -0.0545
 3322TIP3    H131525   0.021   1.887   8.504  1.0273 -0.5767  0.4271
 3322TIP3    H231526   0.041   2.026   8.446 -1.0863 -0.1290  0.6958
 3323TIP3   OH231527   4.982   2.735   1.504  0.0370  0.5904 -0.3591
 3323TIP3    H131528   4.910   2.789   1.536 -1.3474 -1.0252 -0.5892
 3323TIP3    H231529   4.968   2.650   1.547  1.8466  0.2475 -0.3842
 3324TIP3   OH231530   5.966   6.078   1.861 -0.4860  0.0209  0.0812
 3324TIP3    H131531   5.958   6.154   1.919 -1.0265 -1.0646  1.5002
 3324TIP3    H231532   5.927   6.006   1.911  1.6507 -1.5957 -0.4313
 3325TIP3   OH231533   1.553   2.736   1.452 -0.6158  0.4373  0.1046
 3325TIP3    H131534   1.487   2.759   1.517  0.2426  0.6539  0.9172
 3325TIP3    H231535   1.534   2.795   1.378 -2.5149 -0.8297 -0.4842
 3326TIP3   OH231536   1.076   1.963   1.451  0.5861  0.4374  0.5869
 3326TIP3    H131537   1.148   2.007   1.497  0.6762 -0.0786  0.9462
 3326TIP3    H231538   0.997   2.005   1.485  0.6218 -0.2517  1.5841
 3327TIP3   OH231539   0.506   0.066   0.702 -0.3595  0.6572 -0.4019
 3327TIP3    H131540   0.435   0.014   0.740  1.1786 -1.8184 -0.7163
 3327TIP3    H231541   0.577   0.061   0.766  0.0233  1.9804 -0.6923
 3328TIP3   OH231542   2.535   4.104   7.849 -0.6953 -0.3972  0.4625
 3328TIP3    H131543   2.621   4.092   7.810 -0.7344  1.6746 -0.4074
 3328TIP3    H231544   2.546   4.175   7.911 -1.5128 -1.0181  1.3524
 3329TIP3   OH231545   5.112   3.091   0.593 -0.0093  0.0963 -0.0097
 3329TIP3    H131546   5.128   3.033   0.668 -3.0860 -0.1066  0.6055
 3329TIP3    H231547   5.071   3.169   0.632  0.8525  1.2056 -1.2322
 3330TIP3   OH231548   1.462   0.988   7.082  0.6656  0.0078  0.6252
 3330TIP3    H131549   1.443   0.945   7.165 -0.9433  3.9089  2.4933
 3330TIP3    H231550   1.553   1.015   7.089  0.2306  1.2802  1.6653
 3331TIP3   OH231551   3.126   4.285   1.172  0.1143 -0.0985  0.0942
 3331TIP3    H131552   3.175   4.367   1.166  1.4190 -0.6732  2.1637
 3331TIP3    H231553   3.176   4.230   1.232 -1.5628 -1.8403  0.0128
 3332TIP3   OH231554   0.991   4.832   0.071 -0.7085 -0.0819  0.2739
 3332TIP3    H131555   1.074   4.786   0.056 -1.1063 -0.7011 -0.0331
 3332TIP3    H231556   1.003   4.875   0.156  0.4381  0.9875 -0.3828
 3333TIP3   OH231557   0.395   4.647   6.583 -0.2514 -0.1511 -0.8224
 3333TIP3    H131558   0.304   4.678   6.581 -0.3610 -0.5090 -2.0724
 3333TIP3    H231559   0.388   4.552   6.580  0.1028 -0.3799  2.3619
 3334TIP3   OH231560   0.824   0.379   0.157 -0.4061  0.2533  0.8860
 3334TIP3    H131561   0.826   0.381   0.061  1.9794 -1.6875  0.7874
 3334TIP3    H231562   0.793   0.291   0.178 -1.0068  0.6989  1.9277
 3335TIP3   OH231563   5.697   0.680   1.230  0.2023  0.2191 -0.1373
 3335TIP3    H131564   5.684   0.758   1.176  1.2098 -0.2792 -1.1613
 3335TIP3    H231565   5.609   0.650   1.250 -0.1951  1.1538 -0.4315
 3336TIP3   OH231566   6.887   0.056   7.111  0.0233 -0.2275  0.5249
 3336TIP3    H131567   6.908   0.015   7.027  0.3985  0.8033  0.1039
 3336TIP3    H231568   6.801   0.097   7.097 -1.7782 -3.2280  1.8125
 3337TIP3   OH231569   1.941   3.195   0.356  0.5607 -0.1966 -0.6683
 3337TIP3    H131570   1.970   3.122   0.301  0.8069 -0.7058  0.1210
 3337TIP3    H231571   1.866   3.232   0.309  0.1065 -1.2859 -0.8185
 3338TIP3   OH231572   4.854   6.181   7.951  0.3573 -0.4155  0.0397
 3338TIP3    H131573   4.766   6.191   7.987 -0.1050  1.9447 -1.5732
 3338TIP3    H231574   4.846   6.107   7.891 -0.4262 -0.4398  0.1539
 3339TIP3   OH231575   2.796   6.742   7.353  0.1612  0.3031  0.2844
 3339TIP3    H131576   2.758   6.670   7.303  0.9767  0.4870 -0.6346
 3339TIP3    H231577   2.798   6.816   7.292  1.0550  0.5725  0.6155
 3340TIP3   OH231578   3.983   0.758   6.940 -0.3245  0.1806 -0.8151
 3340TIP3    H131579   3.910   0.730   6.885 -0.5694 -0.7209 -0.0632
 3340TIP3    H231580   3.959   0.728   7.028 -0.3942  2.4159 -0.0298
 3341TIP3   OH231581   2.382   0.631   1.239 -0.0870  0.0474 -0.1508
 3341TIP3    H131582   2.339   0.665   1.318  1.0899  0.7886  0.1973
 3341TIP3    H231583   2.341   0.546   1.225  0.4176 -0.6089  1.9131
 3342TIP3   OH231584   5.670   1.378   6.430  0.1801  0.0816 -0.5523
 3342TIP3    H131585   5.583   1.352   6.398  0.5073 -1.1154 -0.5075
 3342TIP3    H231586   5.723   1.387   6.352  0.6370 -1.5792 -0.4740
 3343TIP3   OH231587   3.893   5.953   0.804  0.0895  0.0683 -0.5437
 3343TIP3    H131588   3.973   5.954   0.857  0.1384  0.5705 -0.6303
 3343TIP3    H231589   3.896   6.033   0.753 -0.3348 -0.0476 -0.7566
 3344TIP3   OH231590   0.537   6.713   1.314 -0.2067 -0.9032  0.2000
 3344TIP3    H131591   0.447   6.681   1.307 -0.3048 -0.5701 -0.0403
 3344TIP3    H231592   0.576   6.659   1.384 -0.9098 -0.3273  1.0580
 3345TIP3   OH231593   6.618   4.126   7.133 -0.3352 -0.6521 -0.0883
 3345TIP3    H131594   6.640   4.175   7.054  0.2027 -0.4331  0.1874
 3345TIP3    H231595   6.681   4.055   7.136 -0.2102 -0.5309  0.2530
 3346TIP3   OH231596   0.812   0.096   0.204  0.0681 -0.2729 -0.3489
 3346TIP3    H131597   0.840   0.090   0.295 -1.5677  2.1349  0.4043
 3346TIP3    H231598   0.751   0.023   0.193 -0.3790 -0.0896  0.7653
 3347TIP3   OH231599   1.766   6.177   0.204  0.0099  0.0253 -0.0628
 3347TIP3    H131600   1.802   6.096   0.167 -0.3892  0.2722 -1.0222
 3347TIP3    H231601   1.777   6.242   0.135  1.4892  1.1438  1.1569
 3348TIP3   OH231602   4.792   2.294   1.806  0.5572  0.7553  0.0113
 3348TIP3    H131603   4.722   2.242   1.767  0.0166  1.8812 -0.5860
 3348TIP3    H231604   4.841   2.233   1.860 -1.5252  0.1191  1.3024
 3349TIP3   OH231605   0.183   2.324   7.227  0.9169 -0.2296 -0.1451
 3349TIP3    H131606   0.231   2.357   7.302 -0.0244 -0.6823  0.6818
 3349TIP3    H231607   0.123   2.260   7.264  0.1517 -0.1609 -1.2338
 3350TIP3   OH231608   2.963   5.374   7.270  0.4221 -0.0642  0.3464
 3350TIP3    H131609   3.000   5.402   7.186  1.4056 -0.8484  0.4994
 3350TIP3    H231610   3.038   5.369   7.329 -0.2702  0.5811  1.3276
 3351TIP3   OH231611   4.944   2.509   1.695  0.6147 -0.0266  0.8816
 3351TIP3    H131612   4.904   2.440   1.748 -0.1588 -0.0275  0.3134
 3351TIP3    H231613   5.037   2.502   1.713  0.7734 -2.3253 -0.4052
 3352TIP3   OH231614   1.823   4.872   8.238 -0.2824 -0.0385 -0.2615
 3352TIP3    H131615   1.893   4.932   8.265  0.2841  0.4659 -2.6193
 3352TIP3    H231616   1.745   4.904   8.283  0.8093 -0.1353  1.8144
 3353TIP3   OH231617   2.670   5.165   6.714  0.5086  0.0729  0.1598
 3353TIP3    H131618   2.653   5.071   6.707 -0.2403  0.2139  0.0724
 3353TIP3    H231619   2.652   5.200   6.627 -2.3080  0.7780  0.9424
 3354TIP3   OH231620   6.513   0.295   2.251  0.1702  0.0298 -0.4620
 3354TIP3    H131621   6.551   0.382   2.261 -0.4757  0.0931  1.9950
 3354TIP3    H231622   6.571   0.238   2.301  0.5852 -1.0042 -2.0439
 3355TIP3   OH231623   0.959   5.937   0.543 -0.5944  0.6080  0.0930
 3355TIP3    H131624   0.950   5.891   0.459 -0.2158 -2.3253  1.5488
 3355TIP3    H231625   0.982   5.869   0.606 -0.4369  2.7714  2.5520
 3356TIP3   OH231626   1.434   2.808   8.032 -0.5217  0.0702  0.1797
 3356TIP3    H131627   1.508   2.864   8.057 -0.0258  0.3677 -1.7929
 3356TIP3    H231628   1.357   2.861   8.051 -0.1095  0.8636 -0.3172
 3357TIP3   OH231629   4.242   1.849   8.573 -0.1722 -0.4144  0.3581
 3357TIP3    H131630   4.171   1.828   8.513 -0.8938 -0.1149  1.0797
 3357TIP3    H231631   4.308   1.890   8.519 -0.9558  0.1702 -0.1807
 3358TIP3   OH231632   2.841   1.852   6.288  0.1748  0.1841  0.2447
 3358TIP3    H131633   2.862   1.772   6.240 -1.2429  0.3480 -0.7010
 3358TIP3    H231634   2.840   1.921   6.222 -1.8771  0.4005  0.4515
 3359TIP3   OH231635   2.495   0.239   6.471 -0.1255  0.3209  0.3045
 3359TIP3    H131636   2.556   0.311   6.488 -0.5581  0.5370  1.0098
 3359TIP3    H231637   2.456   0.260   6.387  1.0611 -0.0310 -0.3563
 3360TIP3   OH231638   6.060   6.886   0.309 -0.0790 -0.0683  0.6386
 3360TIP3    H131639   6.152   6.869   0.289  0.0354 -0.1381  1.1995
 3360TIP3    H231640   6.048   6.849   0.397 -1.0539 -1.5603 -0.0698
 3361TIP3   OH231641   6.760   0.684   8.251  0.2332  0.4229  0.6430
 3361TIP3    H131642   6.804   0.677   8.166 -0.1004  2.2669  0.2632
 3361TIP3    H231643   6.667   0.690   8.229  0.2185  1.9789  1.0333
 3362TIP3   OH231644   3.033   0.215   7.424  0.1016 -0.1745 -0.2748
 3362TIP3    H131645   3.002   0.206   7.334 -0.5718 -1.1334  0.0261
 3362TIP3    H231646   3.095   0.143   7.436  2.4362  1.6334 -0.8155
 3363TIP3   OH231647   3.389   0.639   0.372 -0.9321 -0.2050  0.5289
 3363TIP3    H131648   3.467   0.598   0.407 -0.9236 -0.4244  0.2607
 3363TIP3    H231649   3.386   0.611   0.280 -1.8113 -0.9477  0.7686
 3364TIP3   OH231650   1.033   2.559   8.330 -0.0887 -0.6168  0.2779
 3364TIP3    H131651   1.118   2.603   8.331 -0.3667 -0.0774  0.2630
 3364TIP3    H231652   1.054   2.467   8.347  0.5546 -0.5838 -0.2619
 3365TIP3   OH231653   4.306   3.581   7.674 -0.3967  0.0256  0.0951
 3365TIP3    H131654   4.241   3.626   7.728  0.2028 -0.7491  1.5149
 3365TIP3    H231655   4.255   3.523   7.618 -1.2445  2.7413 -2.1895
 3366TIP3   OH231656   1.779   6.064   7.561 -0.4751  0.4300 -0.3789
 3366TIP3    H131657   1.722   6.066   7.484 -1.9597 -2.4789  0.4978
 3366TIP3    H231658   1.719   6.063   7.636  0.7712 -0.9782  0.6607
 3367TIP3   OH231659   1.813   6.582   7.051 -0.1485 -0.0179  0.5581
 3367TIP3    H131660   1.896   6.624   7.030  0.3790 -1.0997  0.4147
 3367TIP3    H231661   1.794   6.611   7.141  0.0177  0.7918  0.3383
 3368TIP3   OH231662   3.991   3.015   7.360 -0.3378 -0.3214  0.0108
 3368TIP3    H131663   4.057   2.968   7.411  0.0566  0.5863  0.3773
 3368TIP3    H231664   4.018   3.004   7.269 -0.6009 -1.2932  0.0369
 3369TIP3   OH231665   0.409   6.581   7.950 -0.5136 -0.0335  0.2363
 3369TIP3    H131666   0.352   6.556   8.023  0.0793 -2.3579  0.0059
 3369TIP3    H231667   0.398   6.675   7.941 -2.5243 -0.0688  1.6898
 3370TIP3   OH231668   2.749   5.055   0.492  0.2490 -0.0080  0.3945
 3370TIP3    H131669   2.657   5.034   0.506  0.0037  1.0649  0.4799
 3370TIP3    H231670   2.752   5.092   0.403  0.4030  0.9641  0.7882
 3371TIP3   OH231671   2.101   1.118   2.010  0.5055  0.5530  0.1676
 3371TIP3    H131672   2.113   1.073   1.926  2.1127 -0.5207  0.9198
 3371TIP3    H231673   2.187   1.152   2.032  0.4551 -0.3819  2.0252
 3372TIP3   OH231674   3.619   6.557   7.141 -0.0012 -0.3302 -0.5488
 3372TIP3    H131675   3.614   6.464   7.163  1.4346 -0.3105 -0.0446
 3372TIP3    H231676   3.621   6.601   7.226  2.2763 -0.0491 -0.6810
 3373TIP3   OH231677   0.538   0.331   0.197  0.3843 -0.2301  0.2272
 3373TIP3    H131678   0.532   0.250   0.248  1.0390 -0.6495 -0.3458
 3373TIP3    H231679   0.487   0.313   0.118 -0.9147  0.5387  0.8502
 3374TIP3   OH231680   2.674   5.455   1.516 -0.3767  0.1520  0.5488
 3374TIP3    H131681   2.601   5.507   1.484 -1.1925  0.8775  3.2707
 3374TIP3    H231682   2.748   5.516   1.519 -0.5182  0.3157  0.7885
 3375TIP3   OH231683   4.452   3.246   1.000 -0.0957  0.2571  0.4123
 3375TIP3    H131684   4.381   3.214   0.943  0.8158  0.0002 -0.6134
 3375TIP3    H231685   4.426   3.336   1.022 -0.7931  0.1287  0.1444
 3376TIP3   OH231686   1.448   3.388   7.032  0.5754 -0.4101 -0.0928
 3376TIP3    H131687   1.539   3.408   7.011  0.1535  2.1728  0.2658
 3376TIP3    H231688   1.397   3.439   6.969 -0.6197  1.0850  1.9781
 3377TIP3   OH231689   3.246   4.732   0.879  0.6544  0.4276  0.0898
 3377TIP3    H131690   3.216   4.803   0.937 -0.8761 -0.7547  0.8430
 3377TIP3    H231691   3.236   4.652   0.932  1.4934 -0.4487 -1.0229
 3378TIP3   OH231692   6.264   3.938   7.397  0.2808 -0.4326 -0.1056
 3378TIP3    H131693   6.319   3.874   7.351 -0.4410 -1.7018  0.7344
 3378TIP3    H231694   6.192   3.956   7.336 -0.5768 -1.9716  0.3958
 3379TIP3   OH231695   2.956   2.964   6.708  0.4390 -0.6446 -0.0410
 3379TIP3    H131696   2.966   2.871   6.730  1.3180 -0.2492  1.3936
 3379TIP3    H231697   3.046   2.998   6.707  0.1204  0.2140 -0.4840
 3380TIP3   OH231698   1.165   5.920   1.158 -0.3676 -0.3479  0.3659
 3380TIP3    H131699   1.139   5.976   1.231  0.4644  2.7766 -1.5568
 3380TIP3    H231700   1.090   5.924   1.097  0.1637 -0.3586 -0.3020
 3381TIP3   OH231701   2.338   4.967   6.573  0.7483  0.2550  0.1840
 3381TIP3    H131702   2.427   4.946   6.601  1.1646  1.8904  0.1932
 3381TIP3    H231703   2.343   5.059   6.546 -0.3126 -0.3433 -2.3393
 3382TIP3   OH231704   1.833   4.421   6.772  0.1853  0.5323 -0.2158
 3382TIP3    H131705   1.873   4.495   6.726  0.6287 -0.8463 -2.2058
 3382TIP3    H231706   1.905   4.359   6.785 -0.7558 -1.0496 -1.8703
 3383TIP3   OH231707   1.263   3.722   8.210  0.1079  0.2483 -0.0731
 3383TIP3    H131708   1.319   3.788   8.250 -0.6773  0.6484  0.4075
 3383TIP3    H231709   1.186   3.772   8.180  0.8687  0.0810 -2.6083
 3384TIP3   OH231710   1.475   1.747   0.329 -0.5231  0.3674  0.1906
 3384TIP3    H131711   1.461   1.668   0.277 -0.5181  1.0704 -0.9171
 3384TIP3    H231712   1.435   1.728   0.413 -2.0406 -0.1830 -0.6242
 3385TIP3   OH231713   6.246   5.837   7.122 -0.0476  0.0832 -0.2430
 3385TIP3    H131714   6.154   5.822   7.144  0.0336 -0.7928 -0.4432
 3385TIP3    H231715   6.270   5.917   7.169 -0.9872  0.4776 -0.4123
 3386TIP3   OH231716   1.747   2.389   1.241 -0.2575  0.1687 -0.0291
 3386TIP3    H131717   1.801   2.393   1.162 -2.3683 -0.1178 -1.5712
 3386TIP3    H231718   1.788   2.320   1.294 -0.8538 -2.3366 -2.5818
 3387TIP3   OH231719   2.726   3.007   6.311  0.3800  0.3137 -0.6686
 3387TIP3    H131720   2.772   2.935   6.353 -1.4204  0.2365  1.3604
 3387TIP3    H231721   2.756   3.085   6.357 -1.4132  0.2597  0.6811
 3388TIP3   OH231722   1.728   5.252   2.028  0.2383  0.1527 -0.7474
 3388TIP3    H131723   1.657   5.248   2.092  1.4090 -0.4004  0.5739
 3388TIP3    H231724   1.756   5.161   2.017 -0.0400  0.2188 -2.1865
 3389TIP3   OH231725   0.157   5.894   8.145  0.1559  0.5862 -0.0863
 3389TIP3    H131726   0.072   5.892   8.189  0.1061 -1.0966 -0.2130
 3389TIP3    H231727   0.210   5.831   8.193  0.9334  0.6694 -0.8184
 3390TIP3   OH231728   6.473   1.600   8.049 -0.0485  0.2440 -0.0970
 3390TIP3    H131729   6.476   1.522   8.103 -0.0942 -0.7492 -1.4683
 3390TIP3    H231730   6.511   1.669   8.103  0.5500 -0.8622  0.9275
 3391TIP3   OH231731   0.918   4.530   0.236  0.2236 -0.2161 -0.5218
 3391TIP3    H131732   0.972   4.608   0.250  2.8213 -2.1258  0.9988
 3391TIP3    H231733   0.852   4.557   0.172  2.4156  2.5778 -1.7986
 3392TIP3   OH231734   2.752   3.505   7.288  0.5341  0.1979  0.6428
 3392TIP3    H131735   2.691   3.432   7.277 -0.4555  0.9972  0.6024
 3392TIP3    H231736   2.733   3.563   7.213  0.4736  1.0441  1.2924
 3393TIP3   OH231737   2.096   2.108   1.164  0.1448 -0.0614  0.6306
 3393TIP3    H131738   2.098   2.095   1.259 -0.6313 -3.4475  0.2841
 3393TIP3    H231739   2.154   2.041   1.129 -0.5408  0.3129 -1.3576
 3394TIP3   OH231740   0.348   6.621   7.476  0.8959 -0.4727 -0.1557
 3394TIP3    H131741   0.378   6.652   7.390 -1.1226  0.4352 -0.5961
 3394TIP3    H231742   0.425   6.625   7.531  2.0470 -0.2138 -1.7034
 3395TIP3   OH231743   1.111   1.685   8.048 -0.4218 -0.3746 -0.0281
 3395TIP3    H131744   1.183   1.634   8.010 -0.3467 -0.8698  0.7598
 3395TIP3    H231745   1.068   1.726   7.972  1.4266  0.9343 -0.4318
 3396TIP3   OH231746   3.906   1.023   7.820  0.0788  0.3259 -0.2575
 3396TIP3    H131747   4.001   1.022   7.811  0.0027  0.3310 -1.1872
 3396TIP3    H231748   3.889   0.982   7.904  0.8383 -1.1017 -0.7712
 3397TIP3   OH231749   1.364   6.583   7.980 -0.2507 -0.1645  0.0819
 3397TIP3    H131750   1.448   6.621   7.951 -0.1489 -1.2173 -1.0784
 3397TIP3    H231751   1.378   6.563   8.072  1.3470 -1.7371 -0.4387
 3398TIP3   OH231752   2.563   5.818   8.484  0.5486  0.0951 -0.0984
 3398TIP3    H131753   2.654   5.837   8.463  0.5790 -1.0426 -1.1554
 3398TIP3    H231754   2.514   5.843   8.405  0.0165  0.1871  0.2546
 3399TIP3   OH231755   3.932   1.158   7.551  0.0623  0.1089 -0.2159
 3399TIP3    H131756   3.961   1.125   7.636 -1.4458  1.7802  1.0018
 3399TIP3    H231757   3.935   1.253   7.559 -1.9776  0.3311 -1.3169
 3400TIP3   OH231758   1.560   3.980   0.471 -0.6408  0.4701  0.5352
 3400TIP3    H131759   1.526   3.900   0.432 -0.9188  0.5577  0.5948
 3400TIP3    H231760   1.643   3.954   0.511 -0.9026  0.1300  0.8689
 3401TIP3   OH231761   6.476   1.501   6.934  0.0086  0.0057  0.2657
 3401TIP3    H131762   6.503   1.585   6.895 -1.7316  1.4471  1.9870
 3401TIP3    H231763   6.470   1.441   6.859  0.2396  1.6800 -1.1731
 3402TIP3   OH231764   5.867   4.743   1.972 -0.4814  0.1994 -0.1969
 3402TIP3    H131765   5.866   4.732   1.877  0.3083  1.9717 -0.4652
 3402TIP3    H231766   5.776   4.755   1.996 -0.6371  0.3659 -0.8451
 3403TIP3   OH231767   2.577   2.494   1.356 -0.0513 -0.1258  0.0051
 3403TIP3    H131768   2.577   2.554   1.281 -0.9599  1.2366  1.0297
 3403TIP3    H231769   2.651   2.522   1.409  0.6858 -1.1894 -0.4357
 3404TIP3   OH231770   5.086   5.359   2.132 -0.4952  0.5970  0.0718
 3404TIP3    H131771   5.146   5.392   2.199 -0.7246  2.0736 -0.4235
 3404TIP3    H231772   5.128   5.279   2.100  0.7837  1.1386  0.3213
 3405TIP3   OH231773   2.529   6.026   0.663 -0.1316  0.5145  0.2619
 3405TIP3    H131774   2.435   6.026   0.645  0.2845  0.7440 -2.1576
 3405TIP3    H231775   2.554   5.934   0.660 -0.0588  0.5527 -0.4888
 3406TIP3   OH231776   3.253   2.187   8.544  0.3463  0.7429 -0.3996
 3406TIP3    H131777   3.177   2.135   8.517  1.3376 -0.6721 -0.5232
 3406TIP3    H231778   3.274   2.240   8.467 -0.1538  0.7296 -0.5517
 3407TIP3   OH231779   3.344   6.676   6.368 -0.6437 -0.3047  0.7503
 3407TIP3    H131780   3.368   6.634   6.286 -0.2351 -2.6230  1.9626
 3407TIP3    H231781   3.376   6.766   6.359 -0.1901 -0.6229 -1.4128
 3408TIP3   OH231782   4.735   2.989   0.257 -0.2097 -0.0650 -0.0403
 3408TIP3    H131783   4.694   2.905   0.276 -0.6669  0.1203 -0.2060
 3408TIP3    H231784   4.809   2.967   0.200  0.8903 -0.5747  1.5021
 3409TIP3   OH231785   3.744   4.302   7.083  0.0838  0.2030 -0.5246
 3409TIP3    H131786   3.711   4.286   6.994  0.8124  1.0746 -0.9650
 3409TIP3    H231787   3.820   4.245   7.091  0.4819  0.6911 -0.7548
 3410TIP3   OH231788   5.727   1.738   0.913 -0.3204  0.1681 -0.2317
 3410TIP3    H131789   5.648   1.757   0.963  0.0563 -1.9434  1.3106
 3410TIP3    H231790   5.798   1.753   0.976  0.1898 -2.2922 -0.1509
 3411TIP3   OH231791   5.452   6.025   1.548  0.1333 -0.0432 -0.3665
 3411TIP3    H131792   5.369   5.990   1.581 -0.6232  2.0699  0.0948
 3411TIP3    H231793   5.456   5.996   1.457 -0.1370 -1.8037  0.1476
 3412TIP3   OH231794   5.112   5.336   7.500  0.3787  0.5438  0.3094
 3412TIP3    H131795   5.159   5.340   7.583 -0.3815  0.3595  0.7550
 3412TIP3    H231796   5.115   5.244   7.475  1.1675  0.6994 -0.2050
 3413TIP3   OH231797   2.896   1.879   7.640  0.2659 -0.3452 -0.8123
 3413TIP3    H131798   2.828   1.879   7.707  0.5300  0.6359 -0.5327
 3413TIP3    H231799   2.867   1.944   7.576  0.4725 -0.6113 -1.1835
 3414TIP3   OH231800   0.788   0.089   6.248  0.3784 -0.7067 -0.4969
 3414TIP3    H131801   0.698   0.111   6.226  0.4389 -1.4563 -1.5800
 3414TIP3    H231802   0.783   0.053   6.337 -0.4057 -0.8659 -0.5970
 3415TIP3   OH231803   6.443   3.673   0.894  0.4643 -0.2377 -0.3418
 3415TIP3    H131804   6.470   3.599   0.949  0.5037  0.1547  0.1808
 3415TIP3    H231805   6.381   3.635   0.831 -0.1080 -0.5808  0.4065
 3416TIP3   OH231806   0.343   1.515   1.759  0.6340  0.2753 -0.3809
 3416TIP3    H131807   0.438   1.523   1.769  0.7232 -0.4545 -0.5874
 3416TIP3    H231808   0.307   1.567   1.832  1.1828  0.7236 -0.4236
 3417TIP3   OH231809   3.218   2.440   8.634  0.8776  0.1998 -0.0948
 3417TIP3    H131810   3.256   2.354   8.614 -1.5976 -0.8415 -0.6824
 3417TIP3    H231811   3.127   2.421   8.659  0.5274  2.5811  0.7166
 3418TIP3   OH231812   2.456   4.839   7.156  0.3754 -0.0547  0.9226
 3418TIP3    H131813   2.480   4.817   7.066 -0.0752  2.7099  0.0519
 3418TIP3    H231814   2.396   4.769   7.182  1.0304 -1.2626 -0.6583
 3419TIP3   OH231815   2.293   4.368   8.216 -0.0070  0.0064  0.7463
 3419TIP3    H131816   2.246   4.392   8.296  1.8585  1.6369  1.4329
 3419TIP3    H231817   2.362   4.434   8.207  0.9798 -1.1752 -1.2329
 3420TIP3   OH231818   3.261   6.469   2.611 -0.3519  0.0693 -0.5127
 3420TIP3    H131819   3.177   6.480   2.566 -1.0480  0.6571  0.9056
 3420TIP3    H231820   3.240   6.422   2.691  0.3478  1.9215  0.8234
 3421TIP3   OH231821   6.574   1.073   2.100 -0.1895  0.2521 -0.4302
 3421TIP3    H131822   6.648   1.094   2.042 -0.9151  0.7628 -1.1978
 3421TIP3    H231823   6.518   1.151   2.095 -1.6656 -0.8207 -1.2740
 3422TIP3   OH231824   6.800   0.823   0.642 -0.0484  0.1646 -0.4549
 3422TIP3    H131825   6.858   0.840   0.568  0.6712  0.7576  0.2208
 3422TIP3    H231826   6.777   0.731   0.634  1.6286 -0.3027 -0.3149
 3423TIP3   OH231827   2.538   3.001   7.957  0.4085  0.4195 -0.7627
 3423TIP3    H131828   2.446   2.985   7.978  0.1636  0.8569 -1.4847
 3423TIP3    H231829   2.539   3.018   7.863  1.4478 -1.1732 -1.0783
 3424TIP3   OH231830   0.802   6.322   0.998  0.5009  0.1692  0.9005
 3424TIP3    H131831   0.732   6.342   1.059  0.7512 -0.4575  1.4025
 3424TIP3    H231832   0.785   6.379   0.923  0.6054  1.4732  1.8324
 3425TIP3   OH231833   6.684   1.373   1.517  0.7666 -0.3291  0.1256
 3425TIP3    H131834   6.621   1.445   1.511  0.0488 -1.0298 -1.0784
 3425TIP3    H231835   6.769   1.415   1.504  0.9204  1.0209  4.1145
 3426TIP3   OH231836   5.054   0.665   7.850  0.2097 -0.1720 -0.2684
 3426TIP3    H131837   5.084   0.640   7.763  0.4155 -2.0074  0.2853
 3426TIP3    H231838   5.127   0.715   7.887  0.7805 -0.7546 -0.5851
 3427TIP3   OH231839   1.131   5.358   2.304  0.0121  0.2825 -0.2322
 3427TIP3    H131840   1.214   5.310   2.299  1.3351  2.0049  2.7179
 3427TIP3    H231841   1.070   5.296   2.344  0.3680 -0.4239 -0.7704
 3428TIP3   OH231842   4.712   5.141   0.548  0.2763  0.1495 -0.3961
 3428TIP3    H131843   4.635   5.193   0.571 -0.4018 -1.5066  1.3222
 3428TIP3    H231844   4.761   5.196   0.486 -0.8382  2.4160  0.6377
 3429TIP3   OH231845   5.223   6.146   0.084 -0.6702 -0.2494 -0.3559
 3429TIP3    H131846   5.153   6.210   0.073  0.4832  1.2431  0.6218
 3429TIP3    H231847   5.272   6.149   0.002  1.5252  2.8908  0.9094
 3430TIP3   OH231848   2.758   2.064   6.918 -0.0341  0.4432  0.4844
 3430TIP3    H131849   2.695   2.117   6.967 -1.1731  0.3825 -0.8481
 3430TIP3    H231850   2.714   1.981   6.904 -0.9973  1.3879 -3.0609
 3431TIP3   OH231851   1.053   6.616   1.263 -0.3232 -0.6520  0.1367
 3431TIP3    H131852   1.032   6.686   1.201 -0.0384  0.2684  1.0425
 3431TIP3    H231853   1.005   6.540   1.231 -1.0133  0.0851 -0.6255
 3432TIP3   OH231854   4.524   6.310   0.410 -0.1987 -0.3011 -0.5934
 3432TIP3    H131855   4.477   6.228   0.397 -0.7836 -0.3873  1.6690
 3432TIP3    H231856   4.604   6.285   0.456 -1.5670  0.5263  2.5241
 3433TIP3   OH231857   2.559   1.622   2.019 -0.2289  0.0451  0.1925
 3433TIP3    H131858   2.520   1.700   2.059  1.3463  1.0374 -0.1245
 3433TIP3    H231859   2.653   1.631   2.036 -0.0266 -1.8385  0.2156
 3434TIP3   OH231860   0.965   3.338   0.892  0.1160 -0.3389  0.0350
 3434TIP3    H131861   1.038   3.397   0.872  1.0987 -1.0169  1.4700
 3434TIP3    H231862   0.912   3.338   0.812  2.0523 -0.3558 -1.3216
 3435TIP3   OH231863   1.396   1.643   7.453 -0.4499 -0.2209  0.2867
 3435TIP3    H131864   1.414   1.726   7.409 -0.6311  0.1910  0.9832
 3435TIP3    H231865   1.367   1.585   7.383  0.3576  0.0921 -0.3237
 3436TIP3   OH231866   1.068   3.925   2.240  0.1726 -0.1867 -0.0014
 3436TIP3    H131867   1.046   3.939   2.332  1.2953 -0.8648  0.3888
 3436TIP3    H231868   1.130   3.995   2.219  2.1035 -1.6291  0.5978
 3437TIP3   OH231869   0.964   6.786   1.057 -0.1796 -0.0513 -0.0649
 3437TIP3    H131870   1.011   6.842   0.994  0.0490 -2.9395 -2.7099
 3437TIP3    H231871   0.886   6.836   1.079  0.2368  1.5539 -1.8905
 3438TIP3   OH231872   4.955   2.400   8.092  0.0346 -0.4621  0.1153
 3438TIP3    H131873   4.877   2.345   8.082  0.3134 -0.6975 -0.9054
 3438TIP3    H231874   5.028   2.339   8.092  0.3225 -0.1285 -0.6125
 3439TIP3   OH231875   4.292   2.309   7.550  0.1352 -0.5489 -0.2360
 3439TIP3    H131876   4.281   2.394   7.506  0.7597 -0.1382  0.3878
 3439TIP3    H231877   4.264   2.325   7.640 -1.3466 -1.4408 -0.4939
 3440TIP3   OH231878   6.783   0.891   1.764 -0.0718  0.5941 -0.1232
 3440TIP3    H131879   6.814   0.966   1.713 -0.7241 -0.1151 -1.6245
 3440TIP3    H231880   6.693   0.913   1.786  0.1037  0.7500  0.4592
 3441TIP3   OH231881   1.991   5.070   0.850 -0.2339 -0.3018 -0.3007
 3441TIP3    H131882   2.071   5.103   0.891 -0.2343 -0.2774 -0.3194
 3441TIP3    H231883   1.957   5.145   0.802 -0.3256 -0.2820 -0.2047
 3442TIP3   OH231884   5.160   3.547   7.572 -0.4735  0.2674 -0.1184
 3442TIP3    H131885   5.236   3.567   7.626 -0.1232  0.3936 -0.6557
 3442TIP3    H231886   5.187   3.567   7.483 -0.6208 -1.1331 -0.4998
 3443TIP3   OH231887   3.831   2.244   0.804  0.5047  0.1970 -0.0275
 3443TIP3    H131888   3.893   2.279   0.740 -1.5735  1.5694 -1.4150
 3443TIP3    H231889   3.883   2.182   0.856  2.6652  0.1788 -2.0186
 3444TIP3   OH231890   2.355   2.520   0.726 -0.5856 -0.1952  0.8656
 3444TIP3    H131891   2.370   2.598   0.780  2.0729 -0.8415  1.2282
 3444TIP3    H231892   2.369   2.550   0.636  0.4627 -0.2273  1.0068
 3445TIP3   OH231893   5.147   4.816   0.110 -0.5898 -0.0777  0.2115
 3445TIP3    H131894   5.106   4.864   0.181 -0.3568  0.2715  0.1112
 3445TIP3    H231895   5.141   4.874   0.034 -0.8317 -0.4452 -0.0544
 3446TIP3   OH231896   5.570   5.289   0.975  0.3903  0.1100 -0.2158
 3446TIP3    H131897   5.637   5.324   0.916  0.0675 -1.0596 -1.3315
 3446TIP3    H231898   5.619   5.246   1.044  0.7788  1.2115  0.2144
 3447TIP3   OH231899   5.119   5.888   7.989 -0.4929  0.3062 -0.7016
 3447TIP3    H131900   5.128   5.974   7.948 -0.1951  0.7106  0.1911
 3447TIP3    H231901   5.025   5.880   8.006 -0.6991 -0.0921 -1.9053
 3448TIP3   OH231902   0.791   3.814   2.428 -0.0618 -0.0739  0.1724
 3448TIP3    H131903   0.827   3.727   2.411  1.2988  0.6757 -0.9265
 3448TIP3    H231904   0.851   3.853   2.492 -0.8918 -0.0605  0.9693
 3449TIP3   OH231905   0.228   3.693   8.626 -0.0659  0.1226  0.6747
 3449TIP3    H131906   0.294   3.746   8.582 -0.1681  1.2787  1.8358
 3449TIP3    H231907   0.159   3.682   8.561 -0.6968  2.6951  0.8087
 3450TIP3   OH231908   0.909   0.989   1.093 -0.0543 -0.3197 -0.0493
 3450TIP3    H131909   0.957   1.014   1.172 -1.7216 -0.9104  1.2200
 3450TIP3    H231910   0.883   1.072   1.054 -0.2927 -0.0177  0.7232
 3451TIP3   OH231911   1.592   3.085   2.045  0.0530  0.2648  0.1294
 3451TIP3    H131912   1.585   2.991   2.026 -2.0679  0.9726 -3.6467
 3451TIP3    H231913   1.686   3.103   2.039  0.5153 -1.5876  1.0372
 3452TIP3   OH231914   2.138   2.003   7.751  0.7057 -0.3207  0.1640
 3452TIP3    H131915   2.185   2.068   7.803  0.5680 -1.1286  1.3371
 3452TIP3    H231916   2.126   2.045   7.665 -2.1300  2.5172  1.7257
 3453TIP3   OH231917   0.789   1.946   8.480 -0.2747  0.0738 -0.3495
 3453TIP3    H131918   0.831   1.994   8.551 -1.0915  0.7233 -0.2920
 3453TIP3    H231919   0.784   1.856   8.512  0.6617  0.0660 -0.1871
 3454TIP3   OH231920   5.310   5.808   2.814  0.6381  0.0667  0.4434
 3454TIP3    H131921   5.255   5.748   2.865  0.0363 -0.7139 -1.0738
 3454TIP3    H231922   5.361   5.751   2.757  2.8388  0.7914  1.5529
 3455TIP3   OH231923   6.637   4.154   6.446  0.3042 -0.7104  0.3547
 3455TIP3    H131924   6.709   4.165   6.508 -0.9185 -0.3347  1.7888
 3455TIP3    H231925   6.589   4.237   6.450  0.6282 -0.3583 -1.7539
 3456TIP3   OH231926   6.594   1.074   1.446 -0.1089  0.1440  0.6569
 3456TIP3    H131927   6.521   1.013   1.448  0.1255 -0.1669 -0.0879
 3456TIP3    H231928   6.556   1.158   1.473 -0.8661  0.1193 -0.3054
 3457TIP3   OH231929   6.816   0.963   0.880  0.5703 -0.0371 -0.1891
 3457TIP3    H131930   6.877   0.919   0.939  0.4561  0.0889  0.0213
 3457TIP3    H231931   6.803   0.901   0.808  0.8844 -0.0984 -0.1951
 3458TIP3   OH231932   1.487   6.269   0.009 -0.0512  0.0356  0.1629
 3458TIP3    H131933   1.393   6.266  -0.010  0.0058  0.5945 -0.2300
 3458TIP3    H231934   1.522   6.188  -0.028 -0.7256 -1.3290  2.3411
 3459TIP3   OH231935   0.148   0.203   7.674  1.0680 -0.6630 -0.0060
 3459TIP3    H131936   0.133   0.293   7.644 -0.7146 -1.2922 -1.1493
 3459TIP3    H231937   0.212   0.212   7.745  1.8485  1.3639 -0.8966
 3460TIP3   OH231938   2.560   5.182   1.846  0.5187  0.0844 -0.0197
 3460TIP3    H131939   2.486   5.124   1.829  1.1241 -0.0565 -2.5173
 3460TIP3    H231940   2.568   5.182   1.942 -0.2159 -3.0326  0.1701
 3461TIP3   OH231941   0.193   1.915   8.171 -0.0152 -0.0101 -0.4119
 3461TIP3    H131942   0.167   1.927   8.262 -0.5516 -1.2417 -0.3719
 3461TIP3    H231943   0.129   1.853   8.136  2.0436 -2.1318 -0.6963
 3462TIP3   OH231944   0.910   1.645   7.605  0.8596  0.4318 -0.1425
 3462TIP3    H131945   0.836   1.644   7.666  0.9775  0.6665  0.0085
 3462TIP3    H231946   0.970   1.710   7.642  0.8031  0.7883 -0.6669
 3463TIP3   OH231947   6.218   5.564   0.456  0.6388 -0.1600 -0.3924
 3463TIP3    H131948   6.152   5.499   0.481  1.3911 -0.9613 -0.4507
 3463TIP3    H231949   6.228   5.552   0.361  1.3466 -0.5042 -0.2784
 3464TIP3   OH231950   3.084   2.124   7.973 -0.1454  0.1198  0.0665
 3464TIP3    H131951   3.146   2.113   8.046  0.3722 -0.7054 -0.4875
 3464TIP3    H231952   3.071   2.219   7.968  0.8689  0.2948  0.3674
 3465TIP3   OH231953   1.884   4.153   1.517 -0.1770 -0.5202  0.0902
 3465TIP3    H131954   1.862   4.245   1.509 -0.0571 -0.5377 -0.4913
 3465TIP3    H231955   1.849   4.127   1.602 -1.8773 -0.4068 -0.5364
 3466TIP3   OH231956   6.037   0.277   7.197 -0.3246  0.4607  0.5131
 3466TIP3    H131957   6.078   0.255   7.114 -1.9252 -0.3751 -0.0966
 3466TIP3    H231958   6.110   0.302   7.254  0.9060 -0.0236 -0.7902
 3467TIP3   OH231959   1.699   1.903   7.885  0.1771 -0.2779  0.2735
 3467TIP3    H131960   1.765   1.970   7.906 -0.5992  0.3584  0.7392
 3467TIP3    H231961   1.742   1.847   7.821  1.0455  0.3460  0.2859
 3468TIP3   OH231962   1.919   1.955   0.224 -0.2348  0.8890  0.7183
 3468TIP3    H131963   1.835   1.925   0.259 -0.0011 -0.9669 -0.1710
 3468TIP3    H231964   1.982   1.889   0.253  0.3860  0.6484 -1.0450
 3469TIP3   OH231965   0.285   5.482   1.251  0.2740 -0.1694  0.7033
 3469TIP3    H131966   0.325   5.483   1.164  0.0768 -1.8673  0.5584
 3469TIP3    H231967   0.359   5.487   1.311  0.4940 -0.1613  0.4327
 3470TIP3   OH231968   4.392   2.427   8.646 -0.1159 -0.4024 -0.1100
 3470TIP3    H131969   4.426   2.338   8.646  2.8463  0.5983  0.9688
 3470TIP3    H231970   4.343   2.435   8.728  0.1417 -0.8420  0.0862
 3471TIP3   OH231971   5.532   5.190   7.310  0.3885  0.2831 -0.5751
 3471TIP3    H131972   5.582   5.119   7.270 -0.9546 -1.2165  0.2466
 3471TIP3    H231973   5.586   5.219   7.383  1.7717  1.3980 -1.9867
 3472TIP3   OH231974   0.407   4.315   7.688 -0.2010 -0.2475  0.3210
 3472TIP3    H131975   0.449   4.399   7.705 -0.0000 -0.4991  1.1041
 3472TIP3    H231976   0.474   4.262   7.644 -0.0588 -0.2768  0.5739
 3473TIP3   OH231977   5.102   3.082   8.440 -0.0293  0.7016 -0.0006
 3473TIP3    H131978   5.035   3.134   8.397 -0.1498  1.2539  0.8330
 3473TIP3    H231979   5.117   3.126   8.524  2.2251  1.2900 -0.6327
 3474TIP3   OH231980   6.848   6.876   1.887 -0.3508 -0.5444  0.2276
 3474TIP3    H131981   6.828   6.924   1.968  0.4434 -3.1630  2.1068
 3474TIP3    H231982   6.925   6.920   1.851  1.6907 -1.5126  3.0447
 3475TIP3   OH231983   2.496   2.778   0.921  0.1330 -0.1429  0.1518
 3475TIP3    H131984   2.548   2.760   0.842 -0.0315 -0.2921  0.0760
 3475TIP3    H231985   2.553   2.753   0.993 -0.3943 -1.8410  0.0331
 3476TIP3   OH231986   2.715   1.450   6.938 -1.0262 -0.0938  0.0524
 3476TIP3    H131987   2.698   1.527   6.993  0.0563 -0.1314  0.4587
 3476TIP3    H231988   2.632   1.401   6.939 -1.9487  1.3981 -0.7797
 3477TIP3   OH231989   2.090   3.602   2.021 -0.7408  0.4242 -1.2268
 3477TIP3    H131990   2.080   3.585   2.115 -0.5714  0.0844 -1.2693
 3477TIP3    H231991   2.059   3.692   2.009 -1.4795  0.2080 -0.9702
 3478TIP3   OH231992   3.104   1.188   8.486 -0.2146  0.3607 -0.7470
 3478TIP3    H131993   3.052   1.118   8.525  0.1046  0.5511  0.0263
 3478TIP3    H231994   3.078   1.188   8.394  1.2707 -2.1727 -1.2679
 3479TIP3   OH231995   0.072   5.188   1.080  0.5705 -0.2534  0.7332
 3479TIP3    H131996   0.133   5.218   1.013 -0.7175  1.2051  0.1349
 3479TIP3    H231997   0.125   5.178   1.159  1.5963  0.9580  0.2341
 3480TIP3   OH231998   1.706   5.376   7.080 -0.0367  0.3405 -0.5105
 3480TIP3    H131999   1.723   5.415   7.165 -0.4544 -0.9518  0.1939
 3480TIP3    H232000   1.640   5.432   7.040 -0.1122  0.7447  0.1776
 3481TIP3   OH232001   0.184   4.146   8.056  0.4256 -0.0290 -0.7103
 3481TIP3    H132002   0.158   4.082   8.123 -1.9322  1.8015  0.2734
 3481TIP3    H232003   0.253   4.197   8.097 -0.9261  1.0060  0.3491
 3482TIP3   OH232004   3.623   5.738   6.655 -0.1021 -0.6791 -0.4500
 3482TIP3    H132005   3.709   5.696   6.660  0.6416  0.9020  1.8991
 3482TIP3    H232006   3.638   5.820   6.608  0.0237  0.1894  1.0157
 3483TIP3   OH232007   5.278   1.443   0.842  0.0636 -0.2726 -0.0480
 3483TIP3    H132008   5.334   1.423   0.917  0.0860 -0.1629 -0.0357
 3483TIP3    H232009   5.265   1.537   0.846 -1.1464 -0.4521  0.6789
 3484TIP3   OH232010   0.747   0.299   6.588  0.3381 -0.0286 -0.0751
 3484TIP3    H132011   0.839   0.309   6.564  0.4438 -1.4202 -0.3724
 3484TIP3    H232012   0.711   0.244   6.518 -0.2619 -1.0411  0.9922
 3485TIP3   OH232013   4.067   5.328   1.933  0.2280  0.1233 -0.3467
 3485TIP3    H132014   4.000   5.339   2.001  2.9569  0.4861  2.5282
 3485TIP3    H232015   4.064   5.234   1.911 -1.0523  0.1028 -0.1336
 3486TIP3   OH232016   1.597   3.087   1.155  0.5085  0.0546 -0.1766
 3486TIP3    H132017   1.659   3.016   1.140 -0.9319 -1.7294  1.6257
 3486TIP3    H232018   1.525   3.069   1.095 -0.6616 -1.1617  1.4826
 3487TIP3   OH232019   2.958   1.774   0.201 -0.2352 -0.2307 -0.3587
 3487TIP3    H132020   3.048   1.800   0.223 -0.3189  0.7537 -1.1354
 3487TIP3    H232021   2.919   1.752   0.286 -0.3612  2.8665  0.5050
 3488TIP3   OH232022   6.053   3.002   2.213  0.3294  0.0611 -0.4825
 3488TIP3    H132023   5.989   2.976   2.280  0.9331  0.0111  0.0817
 3488TIP3    H232024   6.045   3.097   2.209  0.3750  0.0744 -0.2585
 3489TIP3   OH232025   5.026   3.590   6.672 -0.0930  0.2749 -0.0615
 3489TIP3    H132026   5.111   3.633   6.678 -0.6631  1.4842 -0.4627
 3489TIP3    H232027   4.980   3.637   6.603 -0.5685 -1.3048 -0.8723
 3490TIP3   OH232028   1.632   5.341   1.710  0.0719 -0.4968  0.4506
 3490TIP3    H132029   1.642   5.432   1.683 -1.9941 -0.1164  0.7503
 3490TIP3    H232030   1.681   5.334   1.792  0.4579  0.2704  0.2938
 3491TIP3   OH232031   3.804   5.414   0.809  0.4133  0.0915  0.4227
 3491TIP3    H132032   3.739   5.428   0.740 -0.4960 -1.0520  1.0064
 3491TIP3    H232033   3.769   5.460   0.885  0.6075  0.0249  0.5533
 3492TIP3   OH232034   6.213   6.430   7.720  0.2383  0.2651 -0.5192
 3492TIP3    H132035   6.231   6.504   7.779  1.1694 -0.0180 -0.4233
 3492TIP3    H232036   6.132   6.392   7.753  1.8288 -1.2298  2.0175
 3493TIP3   OH232037   0.099   3.406   1.133 -0.5632 -0.1345  0.6811
 3493TIP3    H132038   0.177   3.427   1.082 -0.8891  0.6983  0.5051
 3493TIP3    H232039   0.054   3.339   1.082  0.3076 -1.0287  1.0599
 3494TIP3   OH232040   0.425   1.352   7.080 -0.1103 -0.7674 -0.2646
 3494TIP3    H132041   0.501   1.374   7.135 -0.3909 -1.4105  0.4098
 3494TIP3    H232042   0.350   1.389   7.127 -0.4375 -1.9744  0.2017
 3495TIP3   OH232043   3.630   2.022   7.738 -0.0478 -0.3054  0.0567
 3495TIP3    H132044   3.544   2.062   7.753  0.5105  0.6140  0.8863
 3495TIP3    H232045   3.654   2.049   7.649  0.3467  1.3167  0.6157
 3496TIP3   OH232046   1.261   2.896   0.254  0.5555 -0.5605 -0.2121
 3496TIP3    H132047   1.204   2.860   0.322  2.0839 -1.6003  0.6017
 3496TIP3    H232048   1.214   2.882   0.173 -0.7841 -0.4296  0.5157
 3497TIP3   OH232049   2.741   0.488   0.617  0.0698 -0.6617  0.4335
 3497TIP3    H132050   2.652   0.473   0.584  0.8650 -1.2658 -1.5483
 3497TIP3    H232051   2.779   0.551   0.556  1.6002 -1.7843  0.1635
 3498TIP3   OH232052   0.706   0.021   1.244  0.4119 -0.7173 -0.3707
 3498TIP3    H132053   0.653  -0.053   1.275  0.2452  0.1210  1.4571
 3498TIP3    H232054   0.678   0.095   1.298  2.7697 -0.0371  0.0351
 3499TIP3   OH232055   6.360   1.508   6.436  0.1877  0.6137 -0.5130
 3499TIP3    H132056   6.310   1.432   6.408 -0.0519  1.2330 -1.8672
 3499TIP3    H232057   6.441   1.503   6.386  0.3953  0.9615 -0.2151
 3500TIP3   OH232058   3.049   4.042   1.460  0.8423 -0.4090 -0.4914
 3500TIP3    H132059   2.991   4.109   1.498 -2.1636 -1.0397 -3.4758
 3500TIP3    H232060   3.033   3.964   1.512 -0.0630 -0.2356 -0.4934
 3501TIP3   OH232061   6.191   1.116   0.977  0.4234 -1.0560  0.3224
 3501TIP3    H132062   6.191   1.148   1.067  0.2630  3.3938 -1.0056
 3501TIP3    H232063   6.283   1.104   0.956  0.5179 -1.2648  0.8411
 3502TIP3   OH232064   5.618   6.495   8.064 -0.0339 -0.4037 -0.6027
 3502TIP3    H132065   5.708   6.502   8.097 -1.1170  1.4674  2.3835
 3502TIP3    H232066   5.621   6.537   7.977  2.0081 -0.7400 -0.7433
 3503TIP3   OH232067   6.421   0.861   2.229  0.2459 -0.0821 -0.3347
 3503TIP3    H132068   6.455   0.941   2.190  0.4149 -0.6956 -1.5057
 3503TIP3    H232069   6.336   0.885   2.265  1.0442  1.0196  0.8918
 3504TIP3   OH232070   2.865   3.995   2.137 -0.2438  0.3856 -0.2665
 3504TIP3    H132071   2.917   3.917   2.122  0.4145  0.5603  1.0022
 3504TIP3    H232072   2.918   4.049   2.195 -0.2321  2.2513 -1.9102
 3505TIP3   OH232073   4.799   3.126   2.365  0.2397 -0.6847  0.0375
 3505TIP3    H132074   4.807   3.059   2.432 -0.3715 -0.9658 -0.1663
 3505TIP3    H232075   4.888   3.161   2.356  0.6020 -1.5831  0.0170
 3506TIP3   OH232076   1.334   4.042   0.312  0.4769  0.7072 -0.0713
 3506TIP3    H132077   1.335   3.958   0.357  0.1394 -0.0875 -1.5181
 3506TIP3    H232078   1.410   4.088   0.347  1.8359 -0.9764 -0.6942
 3507TIP3   OH232079   5.905   0.261   8.150  0.0719  0.0538  0.5535
 3507TIP3    H132080   5.812   0.246   8.133 -0.0905 -1.0919  2.2057
 3507TIP3    H232081   5.916   0.355   8.139 -1.2343  0.1878  0.1581
 3508TIP3   OH232082   4.675   0.615   7.143 -0.1562  0.4168 -0.2616
 3508TIP3    H132083   4.649   0.676   7.074 -1.2531  1.0505  0.6683
 3508TIP3    H232084   4.767   0.596   7.125 -0.8010 -0.6959 -2.7999
 3509TIP3   OH232085   4.026   0.996   0.426  0.1228  0.1206  0.4613
 3509TIP3    H132086   4.043   1.090   0.437  0.1808  0.1513  0.1190
 3509TIP3    H232087   3.999   0.988   0.334  2.3786 -0.5379 -0.1861
 3510TIP3   OH232088   5.844   1.739   8.173 -0.0900  0.1981 -0.3533
 3510TIP3    H132089   5.787   1.684   8.227  1.2456  0.2004  1.1534
 3510TIP3    H232090   5.798   1.822   8.165  0.2511  0.6936  2.0399
 3511TIP3   OH232091   3.422   2.992   8.162 -0.3643  0.2628 -0.1894
 3511TIP3    H132092   3.352   3.057   8.154  1.5369  2.3467 -1.0263
 3511TIP3    H232093   3.425   2.972   8.255 -4.1959 -2.5401 -0.3977
 3512TIP3   OH232094   1.027   2.441   0.924  0.6492  0.0355 -0.1028
 3512TIP3    H132095   1.077   2.368   0.889  2.2632  0.4473  1.2225
 3512TIP3    H232096   0.983   2.405   1.001 -0.0273  0.0272 -0.4823
 3513TIP3   OH232097   3.312   2.197   1.084  0.1180 -0.0746 -0.3586
 3513TIP3    H132098   3.338   2.272   1.137 -1.7421  0.5661 -0.2731
 3513TIP3    H232099   3.228   2.170   1.120  0.2762 -1.5853 -1.0347
 3514TIP3   OH232100   1.794   5.476   7.302 -0.5687 -0.2102 -0.0416
 3514TIP3    H132101   1.791   5.570   7.316  3.4707 -0.0637  1.0992
 3514TIP3    H232102   1.767   5.438   7.386 -0.6141 -0.0147  0.0316
 3515TIP3   OH232103   4.151   3.795   2.231  0.1562  0.0446  0.2172
 3515TIP3    H132104   4.190   3.707   2.225  3.4479  1.4736 -2.0508
 3515TIP3    H232105   4.203   3.840   2.297 -0.9227  0.6262  0.7031
 3516TIP3   OH232106   5.183   5.891   8.478 -0.2177 -0.2134 -0.7336
 3516TIP3    H132107   5.232   5.880   8.559  0.5420  0.8117 -1.0264
 3516TIP3    H232108   5.185   5.805   8.436  1.8103 -0.0913 -0.9779
 3517TIP3   OH232109   4.010   4.229   2.497  0.6189  0.1106 -0.4958
 3517TIP3    H132110   3.932   4.281   2.516  0.8446  0.7842 -1.3538
 3517TIP3    H232111   3.977   4.156   2.444  0.1453 -1.2291  1.5214
 3518TIP3   OH232112   3.153   4.026   8.231  0.3993 -0.6512 -0.1229
 3518TIP3    H132113   3.170   4.035   8.325 -0.6762  2.6129 -0.1003
 3518TIP3    H232114   3.072   3.975   8.227  0.9524 -1.6270  0.6368
 3519TIP3   OH232115   4.010   5.473   6.933 -0.3804 -0.9428 -0.4777
 3519TIP3    H132116   4.051   5.454   6.849 -1.0090  1.7183 -1.4762
 3519TIP3    H232117   4.058   5.548   6.967 -1.8241 -0.3027  0.2459
 3520TIP3   OH232118   2.390   5.752   7.361 -0.4143 -0.4083  0.2369
 3520TIP3    H132119   2.315   5.805   7.332 -0.2367 -0.2388  0.0795
 3520TIP3    H232120   2.373   5.735   7.453  0.2638  1.2087  0.6979
 3521TIP3   OH232121   1.941   2.113   6.911  0.2166 -0.3127  0.7355
 3521TIP3    H132122   1.936   2.206   6.935  0.9852  0.4183 -1.6986
 3521TIP3    H232123   1.853   2.092   6.881  0.0180 -0.4042  1.3733
 3522TIP3   OH232124   6.799   6.340   8.305  0.0811 -0.4265 -0.1916
 3522TIP3    H132125   6.763   6.301   8.225  2.1866 -0.9987 -0.9187
 3522TIP3    H232126   6.793   6.270   8.370 -0.3511 -0.4204 -0.2180
 3523TIP3   OH232127   5.005   6.635   7.567 -0.1869 -0.1962 -0.2151
 3523TIP3    H132128   5.045   6.551   7.544 -0.2210  0.5390 -3.5434
 3523TIP3    H232129   5.075   6.684   7.610  0.1784 -1.4800  0.7178
 3524TIP3   OH232130   1.379   4.266   6.813  0.2893  0.6266  0.8121
 3524TIP3    H132131   1.330   4.320   6.752  1.2112  3.4581  2.4129
 3524TIP3    H232132   1.459   4.242   6.765 -1.2499 -1.6790 -0.8124
 3525TIP3   OH232133   6.665   6.596   2.349 -0.0206 -0.3464 -0.6885
 3525TIP3    H132134   6.692   6.509   2.319  1.0733 -0.6597  1.0909
 3525TIP3    H232135   6.738   6.653   2.326 -0.2421 -0.1040 -0.8024
 3526TIP3   OH232136   3.137   3.183   0.393  0.7070  0.9104 -0.4323
 3526TIP3    H132137   3.121   3.277   0.406  0.0437  0.5453  1.6354
 3526TIP3    H232138   3.219   3.166   0.439  0.0578  0.2069  0.4929
 3527TIP3   OH232139   3.042   3.056   7.656 -0.9635 -0.4064  0.5504
 3527TIP3    H132140   3.041   3.093   7.744 -0.3505  0.2258  0.2980
 3527TIP3    H232141   3.039   2.961   7.670  0.7246 -0.3796  1.2991
 3528TIP3   OH232142   5.817   4.470   0.568 -0.3385 -0.5438 -0.0575
 3528TIP3    H132143   5.806   4.553   0.614 -0.8999 -0.9125  0.4955
 3528TIP3    H232144   5.775   4.406   0.625 -2.1080 -0.8619 -1.6358
 3529TIP3   OH232145   3.916   1.729   1.476 -0.3947 -0.2232 -0.3339
 3529TIP3    H132146   3.963   1.653   1.508  0.2997 -1.1357 -3.2442
 3529TIP3    H232147   3.823   1.706   1.486 -0.1911 -1.1671 -0.5389
 3530TIP3   OH232148   6.474   6.818   1.273  0.3327 -0.1937  0.1245
 3530TIP3    H132149   6.500   6.901   1.233 -2.6855  1.4263  1.1609
 3530TIP3    H232150   6.505   6.823   1.363 -0.9272  0.4355  0.5443
 3531TIP3   OH232151   2.178   0.710   7.127  0.1240  0.1427 -0.4676
 3531TIP3    H132152   2.212   0.637   7.179  1.8300  0.5708 -0.9295
 3531TIP3    H232153   2.172   0.783   7.189  0.9895  0.3186 -0.5752
 3532TIP3   OH232154   3.540   4.754   7.635  0.1096 -0.0246  0.5150
 3532TIP3    H132155   3.553   4.669   7.594 -2.0452  0.0340 -0.4718
 3532TIP3    H232156   3.628   4.787   7.653  1.0062 -1.9586 -0.1076
 3533TIP3   OH232157   6.574   0.776   7.376 -0.2492 -0.6647  0.1075
 3533TIP3    H132158   6.641   0.837   7.405 -1.3885  0.1699  1.0738
 3533TIP3    H232159   6.597   0.756   7.285  0.2901  0.9834 -0.1418
 3534TIP3   OH232160   5.668   3.165   0.811  0.5863  0.4207  0.7883
 3534TIP3    H132161   5.707   3.252   0.822  2.8870 -0.3277 -0.8509
 3534TIP3    H232162   5.712   3.111   0.876  2.8765 -0.5456 -1.4100
 3535TIP3   OH232163   6.868   1.508   7.448  0.4443  0.3259  0.0915
 3535TIP3    H132164   6.884   1.575   7.515  0.6422  0.9217 -0.5444
 3535TIP3    H232165   6.879   1.425   7.494  0.9949  0.7294  0.7039
 3536TIP3   OH232166   2.618   2.187   0.274 -0.6577 -0.3865 -0.1839
 3536TIP3    H132167   2.580   2.099   0.272 -1.5352 -0.2438  3.0055
 3536TIP3    H232168   2.629   2.206   0.368  1.2234  2.2115 -0.7978
 3537TIP3   OH232169   6.217   4.807   8.053 -0.3407 -0.0874 -0.1714
 3537TIP3    H132170   6.286   4.817   7.987  1.3100  0.1508  1.5243
 3537TIP3    H232171   6.171   4.890   8.052 -0.5649 -0.2096 -1.2480
 3538TIP3   OH232172   6.241   3.332   7.710  0.3817 -0.6318  0.1355
 3538TIP3    H132173   6.185   3.269   7.756  0.2334 -0.8940 -0.3981
 3538TIP3    H232174   6.201   3.341   7.624  0.8549 -0.4039 -0.0636
 3539TIP3   OH232175   5.525   4.456   2.615  0.0972  0.4032 -0.2124
 3539TIP3    H132176   5.470   4.387   2.576  1.0340  0.2882 -1.3846
 3539TIP3    H232177   5.615   4.428   2.596  0.7270 -0.2647  3.0504
 3540TIP3   OH232178   0.429   3.008   1.632 -0.0510 -0.9506 -0.0402
 3540TIP3    H132179   0.380   3.022   1.551  0.8035 -0.5409 -0.5106
 3540TIP3    H232180   0.389   2.931   1.672 -0.3596 -1.2826 -0.9588
 3541TIP3   OH232181   2.439   5.868   1.333 -0.3290  0.2009  0.0013
 3541TIP3    H132182   2.470   5.953   1.302 -1.2348  0.8658  0.8409
 3541TIP3    H232183   2.366   5.846   1.274 -0.8435  0.5746  0.4848
 3542TIP3   OH232184   3.259   3.313   8.613 -0.6871 -0.5534 -0.1314
 3542TIP3    H132185   3.274   3.331   8.706 -0.0531 -1.3455 -0.0702
 3542TIP3    H232186   3.179   3.361   8.592  1.3803  3.1478 -0.2595
 3543TIP3   OH232187   4.211   5.548   7.695 -0.3207  0.1135 -0.5301
 3543TIP3    H132188   4.307   5.558   7.696 -0.2739  0.5599 -2.9479
 3543TIP3    H232189   4.179   5.623   7.744  0.5379 -0.1780  0.5402
 3544TIP3   OH232190   1.572   5.311   0.001  0.4290  0.1122  0.4215
 3544TIP3    H132191   1.483   5.307  -0.034 -0.4685 -0.7446  2.5887
 3544TIP3    H232192   1.629   5.307  -0.076 -1.3775 -1.0727 -0.9353
 3545TIP3   OH232193   2.373   1.675   0.710  0.1726  0.4916  0.1228
 3545TIP3    H132194   2.316   1.637   0.777  1.8343  0.0856  1.3591
 3545TIP3    H232195   2.462   1.652   0.738  1.0755  2.6704 -0.7616
 3546TIP3   OH232196   0.177   0.947   6.741 -0.0543  0.3254  0.1765
 3546TIP3    H132197   0.090   0.960   6.779 -0.9013  1.4913 -1.9805
 3546TIP3    H232198   0.168   0.870   6.685  0.6782 -0.3095  0.9084
 3547TIP3   OH232199   4.293   0.852   1.250  0.2863  0.1699 -0.9627
 3547TIP3    H132200   4.224   0.787   1.262 -1.1805  1.3365 -2.5180
 3547TIP3    H232201   4.307   0.889   1.337  0.2871 -1.3696 -0.2900
 3548TIP3   OH232202   3.283   5.572   7.974  0.1479 -0.0671 -0.5589
 3548TIP3    H132203   3.231   5.492   7.967 -1.4171  0.9043 -0.5470
 3548TIP3    H232204   3.372   5.542   7.987 -0.4502 -1.8059 -0.2743
 3549TIP3   OH232205   3.298   0.141   7.099 -0.1290  0.3883 -0.4096
 3549TIP3    H132206   3.365   0.164   7.034  0.5651 -1.4209 -0.3979
 3549TIP3    H232207   3.229   0.206   7.086  0.9994  1.4595 -1.3840
 3550TIP3   OH232208   2.583   0.085   0.299 -0.5350  0.4338 -0.3520
 3550TIP3    H132209   2.533   0.008   0.326 -0.3053  0.5479  0.4206
 3550TIP3    H232210   2.580   0.144   0.374 -0.3655  1.0125 -0.7882
 3551TIP3   OH232211   0.187   3.841   0.712 -0.0769 -0.5002 -0.6549
 3551TIP3    H132212   0.094   3.865   0.713 -0.2021 -0.5308  3.0288
 3551TIP3    H232213   0.231   3.917   0.673 -1.4406  0.8742  0.3228
 3552TIP3   OH232214   1.900   5.357   1.815  0.0379 -0.5124  0.2409
 3552TIP3    H132215   1.960   5.385   1.885  1.5715 -0.6514 -0.9572
 3552TIP3    H232216   1.952   5.296   1.762 -1.0133 -0.2655 -1.1259
 3553TIP3   OH232217   6.041   5.699   7.393  0.0917 -0.2656  0.4885
 3553TIP3    H132218   6.025   5.763   7.323  1.8164 -1.2582 -0.8772
 3553TIP3    H232219   6.135   5.684   7.391  0.0827 -0.8500  2.6079
 3554TIP3   OH232220   1.019   6.029   1.366 -0.9251 -0.7054 -0.0422
 3554TIP3    H132221   0.954   6.093   1.336 -1.4423 -0.1898  1.9838
 3554TIP3    H232222   0.977   5.986   1.441  0.2145 -1.9791 -0.0995
 3555TIP3   OH232223   0.089   3.452   1.841 -0.1382  0.5251  0.3734
 3555TIP3    H132224   0.109   3.399   1.917 -0.2415 -0.8478 -0.5146
 3555TIP3    H232225   0.150   3.422   1.774 -0.4546  1.2681 -0.2685
 3556TIP3   OH232226   4.188   5.088   0.952  0.1513 -0.0523  0.5086
 3556TIP3    H132227   4.256   5.029   0.985  0.6809  1.2174  1.7693
 3556TIP3    H232228   4.113   5.032   0.936  1.1146 -1.3052  0.2035
 3557TIP3   OH232229   2.477   6.149   1.093 -0.0516  0.0968 -0.3909
 3557TIP3    H132230   2.537   6.189   1.031 -0.6177 -2.5854 -2.9263
 3557TIP3    H232231   2.412   6.105   1.038 -2.3808  0.0193  2.1914
 3558TIP3   OH232232   4.473   3.343   6.982  0.1418  0.3297 -0.6209
 3558TIP3    H132233   4.544   3.374   7.039  0.4308 -1.1226 -0.1308
 3558TIP3    H232234   4.515   3.280   6.923 -0.7769 -0.8829 -0.0432
 3559TIP3   OH232235   4.271   1.804   7.767  0.0372  0.8784 -0.1163
 3559TIP3    H132236   4.319   1.756   7.834  2.0524  2.9083  0.0300
 3559TIP3    H232237   4.191   1.754   7.753  0.2662 -0.4203  2.6890
 3560TIP3   OH232238   6.684   0.298   1.724 -0.3509 -0.1168  0.3950
 3560TIP3    H132239   6.742   0.371   1.742 -0.6734 -0.0840  1.3316
 3560TIP3    H232240   6.630   0.290   1.802 -1.4019 -0.3416 -0.3244
 3561TIP3   OH232241   2.467   0.500   8.008 -0.2089  0.4378 -0.0401
 3561TIP3    H132242   2.488   0.579   8.057  0.9129  0.7343 -0.9706
 3561TIP3    H232243   2.525   0.433   8.045 -1.2097 -0.0046  0.8002
 3562TIP3   OH232244   0.477   1.331   7.564 -0.6725 -0.9235  0.2025
 3562TIP3    H132245   0.493   1.370   7.650  0.7578 -2.6444  0.7900
 3562TIP3    H232246   0.438   1.401   7.512  0.0828  0.6945  1.7231
 3563TIP3   OH232247   3.024   2.131   1.276  0.1343 -0.4531  0.1014
 3563TIP3    H132248   3.009   2.180   1.357  0.8437  0.3746 -0.2492
 3563TIP3    H232249   3.089   2.065   1.300  0.4113 -0.1505  0.1846
 3564TIP3   OH232250   1.827   3.329   8.024 -0.6182 -0.2583 -0.7733
 3564TIP3    H132251   1.899   3.352   7.966  0.8035  0.3462  1.1603
 3564TIP3    H232252   1.779   3.411   8.037 -0.1624 -0.1049 -0.0587
 3565TIP3   OH232253   3.099   0.818   8.353 -0.1557 -0.5328  0.1992
 3565TIP3    H132254   3.105   0.741   8.409  0.8922 -2.2957 -2.1618
 3565TIP3    H232255   3.025   0.800   8.295 -2.5849  2.1816  2.1172
 3566TIP3   OH232256   6.782   0.209   0.236  0.8048  0.2361  0.8382
 3566TIP3    H132257   6.736   0.153   0.299  1.5122 -0.8923  0.3811
 3566TIP3    H232258   6.874   0.187   0.248  0.8900 -0.9068 -1.3955
 3567TIP3   OH232259   0.604   4.677   1.674 -0.5668  0.5315 -0.0538
 3567TIP3    H132260   0.695   4.700   1.689  0.2344 -1.0958 -2.0381
 3567TIP3    H232261   0.595   4.588   1.706 -1.7529  0.9752  0.9673
 3568TIP3   OH232262   0.263   1.030   1.093  0.1114 -0.6969  0.2202
 3568TIP3    H132263   0.347   1.055   1.054 -0.4604  0.3335 -0.3941
 3568TIP3    H232264   0.236   0.953   1.044  0.0498 -0.2123 -0.5211
 3569TIP3   OH232265   5.954   6.801   0.539 -0.8228  0.5400  0.2596
 3569TIP3    H132266   5.887   6.867   0.553 -0.5650  0.5490  1.6119
 3569TIP3    H232267   6.010   6.807   0.616 -0.5438 -0.9549  0.2081
 3570TIP3   OH232268   3.540   1.235   6.635 -0.4922  0.2454  0.2691
 3570TIP3    H132269   3.589   1.316   6.624  1.8017 -1.3607 -2.8129
 3570TIP3    H232270   3.454   1.253   6.597  0.4309  0.9450 -1.5986
 3571TIP3   OH232271   3.678   1.445   6.906 -0.1214 -0.4169  0.0457
 3571TIP3    H132272   3.599   1.404   6.872  0.1752  0.9055 -2.4901
 3571TIP3    H232273   3.747   1.379   6.893 -0.3701 -0.6546 -0.0739
 3572TIP3   OH232274   0.965   2.368   0.552 -0.4937  0.1930 -0.5957
 3572TIP3    H132275   1.047   2.345   0.597 -1.0798 -1.2679 -0.2320
 3572TIP3    H232276   0.903   2.385   0.622 -0.7587  0.3321 -0.8630
 3573TIP3   OH232277   6.056   1.078   0.681  0.2899 -0.0970  0.2789
 3573TIP3    H132278   6.111   1.010   0.642 -0.7731 -0.6293 -0.3207
 3573TIP3    H232279   6.094   1.092   0.768 -0.3267 -2.5488  1.0406
 3574TIP3   OH232280   3.139   6.319   7.965 -0.1721 -0.6491 -0.5388
 3574TIP3    H132281   3.080   6.322   7.889 -1.3874  0.1127  0.3916
 3574TIP3    H232282   3.219   6.279   7.932 -0.5050  0.0652 -2.3351
 3575TIP3   OH232283   2.205   5.230   0.924 -0.0874  0.1784  0.1647
 3575TIP3    H132284   2.298   5.206   0.932  0.1554  0.8618 -0.4506
 3575TIP3    H232285   2.207   5.317   0.885 -1.0101 -0.9330 -2.6381
 3576TIP3   OH232286   5.994   0.744   7.177 -0.0913 -0.0728  0.2108
 3576TIP3    H132287   5.962   0.767   7.089  0.5436 -1.8645 -0.5294
 3576TIP3    H232288   6.039   0.661   7.165 -1.0595 -1.0008  2.4764
 3577TIP3   OH232289   3.901   1.008   7.071  0.0020 -0.0441  0.0134
 3577TIP3    H132290   3.806   1.012   7.057  0.2140  1.0565 -1.2507
 3577TIP3    H232291   3.924   0.918   7.049 -0.6257 -0.0940 -0.4744
 3578TIP3   OH232292   0.680   5.726   0.908  0.1561 -0.2178  0.2520
 3578TIP3    H132293   0.683   5.822   0.914  1.1282 -0.0731 -1.6040
 3578TIP3    H232294   0.738   5.695   0.977  2.8026  0.7257 -1.3987
 3579TIP3   OH232295   4.105   5.982   0.512 -0.4353 -0.0742  0.7083
 3579TIP3    H132296   4.097   6.070   0.549  0.4128  0.2390  0.1567
 3579TIP3    H232297   4.164   5.936   0.571 -1.3272 -0.4776  1.3236
 3580TIP3   OH232298   2.381   3.788   8.343 -0.0064  0.6745 -0.1671
 3580TIP3    H132299   2.325   3.735   8.285  0.8263  2.4156 -2.7340
 3580TIP3    H232300   2.322   3.855   8.379 -0.0897  0.9801 -0.8591
 3581TIP3   OH232301   0.619   0.604   8.164  0.5868 -0.0707  0.0752
 3581TIP3    H132302   0.532   0.575   8.191  0.8580 -1.6166 -0.5969
 3581TIP3    H232303   0.603   0.672   8.099 -0.0854  0.8290  1.1530
 3582TIP3   OH232304   3.570   6.384   2.068  0.1160  0.3990 -0.2130
 3582TIP3    H132305   3.639   6.381   2.135 -0.7015  2.2562  0.7880
 3582TIP3    H232306   3.513   6.311   2.088  1.6174 -1.0413 -0.9235
 3583TIP3   OH232307   4.641   1.916   1.014  0.2475  0.2428  0.4480
 3583TIP3    H132308   4.597   1.860   0.950  1.1289 -1.1133  0.9837
 3583TIP3    H232309   4.583   1.992   1.024 -0.3869  0.0069 -1.1885
 3584TIP3   OH232310   2.798   4.453   1.533 -0.5740  0.0685 -0.3578
 3584TIP3    H132311   2.752   4.410   1.461  0.6433 -0.3288 -0.9124
 3584TIP3    H232312   2.815   4.541   1.501  0.6636 -0.3455 -0.8892
 3585TIP3   OH232313   3.570   2.325   1.586 -0.9565  0.0599  0.2653
 3585TIP3    H132314   3.563   2.317   1.491 -1.2768  1.5700  0.1412
 3585TIP3    H232315   3.618   2.406   1.600  0.0366 -0.6910  1.3983
 3586TIP3   OH232316   3.435   4.711   6.990 -0.3774 -0.4104  0.0316
 3586TIP3    H132317   3.375   4.680   6.923  0.4644 -1.3536 -0.3093
 3586TIP3    H232318   3.519   4.671   6.967  0.7398  1.9448 -0.3296
 3587TIP3   OH232319   0.358   4.069   8.266 -0.0401 -0.0052 -0.2278
 3587TIP3    H132320   0.312   4.150   8.288  1.0016  0.8990 -1.2433
 3587TIP3    H232321   0.445   4.098   8.237  1.7110 -1.7264  2.8558
 3588TIP3   OH232322   1.931   6.437   0.981  0.4616 -0.8267  0.0692
 3588TIP3    H132323   1.896   6.429   1.069  0.7531  0.1442  0.2790
 3588TIP3    H232324   1.860   6.477   0.930  1.4684  1.9841  0.6920
 3589TIP3   OH232325   1.920   6.844   0.467  0.5354  0.4051  0.3653
 3589TIP3    H132326   1.917   6.750   0.449 -0.0153  0.4552  0.1703
 3589TIP3    H232327   1.828   6.871   0.469  0.7075  1.1248 -0.5468
 3590TIP3   OH232328   4.321   6.576   7.651  0.1522  0.0708 -0.2584
 3590TIP3    H132329   4.271   6.596   7.572 -1.7990 -0.4073  0.7837
 3590TIP3    H232330   4.283   6.634   7.718 -0.4031 -1.6831  1.0290
 3591TIP3   OH232331   0.101   3.410   0.596  0.0196 -0.1154 -0.4101
 3591TIP3    H132332   0.030   3.464   0.631  0.3363 -0.4947  0.8422
 3591TIP3    H232333   0.164   3.403   0.667  0.6911 -0.8864 -1.0630
 3592TIP3   OH232334   0.467   3.971   7.800 -0.1120 -0.4992  0.2694
 3592TIP3    H132335   0.558   3.983   7.828  0.3932 -2.1749 -0.5073
 3592TIP3    H232336   0.416   3.979   7.881  0.7071  0.5358  0.7061
 3593TIP3   OH232337   3.552   5.558   7.034 -0.0967  0.0852 -0.5407
 3593TIP3    H132338   3.465   5.532   7.005 -0.0824 -0.6540  0.0307
 3593TIP3    H232339   3.552   5.654   7.030 -0.7589  0.0677 -1.0219
 3594TIP3   OH232340   1.654   0.679   8.360  0.4190 -0.2632  0.0219
 3594TIP3    H132341   1.680   0.695   8.451  0.4544  2.7467 -0.3928
 3594TIP3    H232342   1.731   0.701   8.308  0.2041 -1.3326 -0.7825
 3595TIP3   OH232343   1.266   5.176   7.312 -0.8412  0.0441  0.3723
 3595TIP3    H132344   1.319   5.096   7.308 -0.9994 -0.0229 -0.4832
 3595TIP3    H232345   1.190   5.157   7.257 -1.1352  0.5961  0.5865
 3596TIP3   OH232346   2.150   0.836   1.133  0.2564 -0.4444  0.7728
 3596TIP3    H132347   2.236   0.814   1.098  0.5794  1.1413  0.4802
 3596TIP3    H232348   2.089   0.812   1.064  0.3142 -2.7238  1.4622
 3597TIP3   OH232349   4.260   6.554   1.953  0.2178  0.6553  0.1896
 3597TIP3    H132350   4.248   6.474   2.004  1.8785  0.0142 -0.3601
 3597TIP3    H232351   4.294   6.524   1.868 -0.2863  1.8655 -0.4716
 3598TIP3   OH232352   5.178   6.005   1.442  0.5750 -0.1519  0.2498
 3598TIP3    H132353   5.155   5.912   1.437 -0.3966  0.0881  0.1675
 3598TIP3    H232354   5.096   6.052   1.428  1.0948  0.7312  0.0471
 3599TIP3   OH232355   0.514   3.040   8.061 -0.8432  0.0550 -0.6469
 3599TIP3    H132356   0.585   2.999   8.111 -0.5654  1.5894  0.3017
 3599TIP3    H232357   0.559   3.097   7.999 -1.2137  0.9533 -0.1126
 3600TIP3   OH232358   0.676   3.226   0.382  0.0639  0.3530  0.3045
 3600TIP3    H132359   0.600   3.275   0.414 -1.4739 -0.6690 -1.4926
 3600TIP3    H232360   0.656   3.135   0.405  1.5635  0.2348  1.2251
 3601TIP3   OH232361   5.252   0.714   1.436 -0.2876  0.0027 -0.1637
 3601TIP3    H132362   5.194   0.788   1.454 -0.5837 -0.4306  0.7207
 3601TIP3    H232363   5.214   0.672   1.358 -0.0310  0.8548 -0.7665
 3602TIP3   OH232364   5.238   5.408   1.603 -0.2980  0.2163  0.8763
 3602TIP3    H132365   5.309   5.345   1.615 -1.9014 -1.6046  1.2074
 3602TIP3    H232366   5.211   5.432   1.692 -0.8679 -0.0117  0.7669
 3603TIP3   OH232367   6.492   5.226   0.812 -0.4691  0.4727  0.0685
 3603TIP3    H132368   6.552   5.211   0.739 -2.8060 -2.7377 -1.4225
 3603TIP3    H232369   6.512   5.155   0.873 -1.6056  0.3605  0.3317
 3604TIP3   OH232370   5.223   3.943   2.086 -0.0119 -0.1367  0.0219
 3604TIP3    H132371   5.150   3.898   2.045  0.7161 -0.3256 -1.1163
 3604TIP3    H232372   5.188   3.974   2.170 -2.2820  2.2399 -1.6367
 3605TIP3   OH232373   4.541   0.419   7.802  0.3281 -0.0247 -0.2717
 3605TIP3    H132374   4.576   0.363   7.872 -0.1490  1.7286  1.4787
 3605TIP3    H232375   4.598   0.403   7.727  2.2401 -0.3733  1.1774
 3606TIP3   OH232376   5.501   1.896   6.666  0.0451 -0.3543 -1.3329
 3606TIP3    H132377   5.417   1.943   6.669 -0.0869 -0.4225 -3.0379
 3606TIP3    H232378   5.559   1.947   6.724 -1.0864 -0.1774 -0.3203
 3607TIP3   OH232379   5.579   1.532   7.939 -0.3579  0.2638  1.1632
 3607TIP3    H132380   5.503   1.525   7.996 -0.6335 -1.9147  0.5866
 3607TIP3    H232381   5.621   1.447   7.943  0.7902  0.7107 -0.2688
 3608TIP3   OH232382   2.908   1.765   7.268 -0.5007  0.4883  0.1049
 3608TIP3    H132383   2.992   1.729   7.239  1.4859  3.2746  1.8679
 3608TIP3    H232384   2.885   1.713   7.345 -0.9700 -0.8790 -0.9067
 3609TIP3   OH232385   4.591   4.157   0.965 -0.1082 -0.7987  0.0024
 3609TIP3    H132386   4.623   4.233   1.014 -1.0421 -1.2541  1.3887
 3609TIP3    H232387   4.667   4.127   0.915  0.9093 -0.3176  1.2001
 3610TIP3   OH232388   5.869   2.574   7.656 -0.2801 -0.5506  0.0601
 3610TIP3    H132389   5.805   2.588   7.726  1.0818 -0.6131  1.3517
 3610TIP3    H232390   5.830   2.506   7.601  0.1448 -3.1951  2.7718
 3611TIP3   OH232391   3.633   4.648   0.478 -0.2879  0.0381 -0.5520
 3611TIP3    H132392   3.587   4.566   0.461  0.4911 -0.5661  0.1693
 3611TIP3    H232393   3.566   4.706   0.515 -0.0799 -1.5501  2.6356
 3612TIP3   OH232394   6.669   5.574   1.994 -0.0259  0.1433  0.1050
 3612TIP3    H132395   6.692   5.664   1.969 -2.0768  0.7303  0.1385
 3612TIP3    H232396   6.590   5.583   2.047 -0.7331 -1.7386 -0.5308
 3613TIP3   OH232397   2.229   5.119   0.424 -0.3374 -0.1587 -0.7095
 3613TIP3    H132398   2.178   5.200   0.424 -1.2814 -0.6740  1.4110
 3613TIP3    H232399   2.212   5.080   0.510  2.0931 -1.3707 -0.6923
 3614TIP3   OH232400   3.063   4.487   0.073  0.1218  0.5012 -0.5588
 3614TIP3    H132401   3.018   4.540   0.007  1.2015  0.5746 -1.2556
 3614TIP3    H232402   2.992   4.442   0.120 -0.6881  0.7945 -1.4701
 3615TIP3   OH232403   6.869   2.984   8.525 -0.2231 -0.0800  0.0323
 3615TIP3    H132404   6.965   2.980   8.517 -0.2349  0.6102 -0.5960
 3615TIP3    H232405   6.850   2.936   8.605  0.5628 -1.1466 -0.3778
 3616TIP3   OH232406   3.387   5.211   8.327  0.4918  0.4184 -0.0186
 3616TIP3    H132407   3.407   5.282   8.388  2.8927 -1.6063  1.6987
 3616TIP3    H232408   3.314   5.165   8.367  0.4237  0.5498  0.0109
 3617TIP3   OH232409   2.920   2.666   1.630 -0.3194  0.5843  0.4504
 3617TIP3    H132410   2.832   2.644   1.661 -0.2261 -1.7442 -0.7153
 3617TIP3    H232411   2.978   2.608   1.679  0.2451 -0.0005 -0.8588
 3618TIP3   OH232412   6.232   1.667   7.282 -0.2960 -0.4587  0.0138
 3618TIP3    H132413   6.308   1.619   7.317  0.4206  0.3757 -0.3462
 3618TIP3    H232414   6.210   1.621   7.201  2.1286  1.3071 -1.8286
 3619TIP3   OH232415   6.466   4.437   0.393 -0.4812 -0.5416 -0.3633
 3619TIP3    H132416   6.415   4.517   0.398  1.7977  0.9828  0.1682
 3619TIP3    H232417   6.402   4.367   0.407 -2.5226  1.1613 -0.6525
 3620TIP3   OH232418   3.442   0.306   0.956 -0.5600 -0.1870  0.5657
 3620TIP3    H132419   3.513   0.366   0.980  0.4785 -2.1430  2.8655
 3620TIP3    H232420   3.487   0.230   0.918 -1.3742 -1.2923  1.6986
 3621TIP3   OH232421   5.864   5.900   0.116  0.1989  0.1519 -0.3118
 3621TIP3    H132422   5.864   5.851   0.198  0.8773  1.4806  0.5262
 3621TIP3    H232423   5.883   5.835   0.049  1.5833 -0.6447  0.7995
 3622TIP3   OH232424   3.601   3.597   1.248 -0.0696  0.8647 -0.1756
 3622TIP3    H132425   3.669   3.543   1.288 -0.8499 -2.9529 -3.4249
 3622TIP3    H232426   3.649   3.668   1.205  1.4041  0.5231  0.8237
 3623TIP3   OH232427   0.901   1.804   7.878  0.2614  0.4991 -0.0852
 3623TIP3    H132428   0.852   1.839   7.804 -0.5623  1.0021  0.6754
 3623TIP3    H232429   0.843   1.737   7.915  0.4125  0.6624  0.4504
 3624TIP3   OH232430   4.268   6.194   7.230 -0.0591 -0.3497 -0.8093
 3624TIP3    H132431   4.226   6.204   7.316  1.2674  1.3495 -0.2883
 3624TIP3    H232432   4.210   6.136   7.181 -2.3862  0.9200  0.2627
 3625TIP3   OH232433   4.188   5.480   0.258 -0.3963 -0.5570 -0.0338
 3625TIP3    H132434   4.191   5.570   0.289  3.9478 -0.5323  0.0518
 3625TIP3    H232435   4.173   5.428   0.337  0.5325 -0.0159  0.5205
 3626TIP3   OH232436   0.001   4.651   0.383  0.0583 -0.6102 -0.1481
 3626TIP3    H132437  -0.088   4.654   0.347  0.4416  1.6779 -1.0887
 3626TIP3    H232438   0.002   4.573   0.439 -2.2475 -1.1946 -0.8222
 3627TIP3   OH232439   1.530   1.846   1.348  0.3713 -0.4295 -0.5903
 3627TIP3    H132440   1.499   1.808   1.430  0.6595 -1.9155 -1.1178
 3627TIP3    H232441   1.473   1.807   1.281  0.3113  0.5524 -1.1313
 3628TIP3   OH232442   3.452   3.772   7.542 -0.1760  0.1158 -0.5597
 3628TIP3    H132443   3.382   3.774   7.607 -0.3422 -0.3098 -0.7178
 3628TIP3    H232444   3.435   3.847   7.485 -1.2954 -0.7283 -1.3995
 3629TIP3   OH232445   0.817   0.535   7.323  0.3195 -0.0871 -0.0106
 3629TIP3    H132446   0.722   0.540   7.340  0.3177 -0.1436 -0.0037
 3629TIP3    H232447   0.829   0.451   7.278  0.2165  0.4143 -1.0021
 3630TIP3   OH232448   3.283   1.292   7.565  0.4954 -0.2821  0.2479
 3630TIP3    H132449   3.346   1.258   7.629  0.6183  0.0814  0.3232
 3630TIP3    H232450   3.202   1.245   7.583  0.5109 -0.1305  0.7198
 3631TIP3   OH232451   1.413   5.772   8.267  0.3796  0.0838  0.0549
 3631TIP3    H132452   1.470   5.699   8.291  1.3987  0.3340 -1.4288
 3631TIP3    H232453   1.339   5.732   8.222  0.2897 -0.1207  0.3869
 3632TIP3   OH232454   4.182   6.402   8.140  0.2268  1.0243 -1.5851
 3632TIP3    H132455   4.138   6.369   8.062 -0.5443  0.8090 -1.0726
 3632TIP3    H232456   4.202   6.324   8.191 -0.5811  1.2490 -0.9000
 3633TIP3   OH232457   3.833   5.116   7.201 -0.2361  0.0325  0.1909
 3633TIP3    H132458   3.771   5.043   7.209 -1.6681  1.2238  0.4099
 3633TIP3    H232459   3.780   5.194   7.214  1.3875  1.1078  0.6996
 3634TIP3   OH232460   5.688   2.155   7.601 -0.1885 -0.3859  0.2560
 3634TIP3    H132461   5.768   2.117   7.637 -0.1265  1.2758  2.0022
 3634TIP3    H232462   5.719   2.216   7.533  0.1469  0.8676  1.4824
 3635TIP3   OH232463   0.374   2.440   8.220 -0.1032  0.4868  0.3106
 3635TIP3    H132464   0.433   2.438   8.295  2.3193 -0.0097 -1.4610
 3635TIP3    H232465   0.342   2.350   8.213  0.9312  0.1397 -0.1416
 3636TIP3   OH232466   1.472   1.355   0.656  0.0427 -0.3458  0.1978
 3636TIP3    H132467   1.546   1.412   0.674 -0.5315  0.5695 -0.2905
 3636TIP3    H232468   1.400   1.391   0.707 -1.2146  1.4112 -2.6075
 3637TIP3   OH232469   0.305   5.216   1.693 -0.5512  0.1628 -0.1453
 3637TIP3    H132470   0.259   5.135   1.670  0.5354 -0.3563 -0.5646
 3637TIP3    H232471   0.376   5.188   1.751 -0.7771  0.9505  0.5338
 3638TIP3   OH232472   5.261   1.705   0.822 -0.3157  0.0989  0.6389
 3638TIP3    H132473   5.261   1.799   0.844  0.2554  0.8553 -2.1867
 3638TIP3    H232474   5.345   1.691   0.778 -1.3169 -1.2080 -0.9477
 3639TIP3   OH232475   0.860   0.573   6.131  0.1522  0.0324 -0.0720
 3639TIP3    H132476   0.801   0.567   6.056 -0.6619  0.5115  0.5122
 3639TIP3    H232477   0.819   0.638   6.188  0.3467 -0.9066  1.1536
 3640TIP3   OH232478   4.273   3.175   7.708  0.2995  0.2862  0.3856
 3640TIP3    H132479   4.191   3.169   7.659 -0.2826 -0.0964  1.3560
 3640TIP3    H232480   4.336   3.124   7.657 -0.2898 -0.0945  0.0262
 3641TIP3   OH232481   4.964   5.895   7.249 -0.4979  0.1076 -0.7022
 3641TIP3    H132482   4.971   5.988   7.231  0.6962 -0.2797 -2.5207
 3641TIP3    H232483   4.879   5.870   7.213  0.0465  0.1560 -2.1012
 3642TIP3   OH232484   3.772   2.546   8.641  0.1175  0.3218  0.5465
 3642TIP3    H132485   3.803   2.473   8.694  0.6838 -0.9320 -1.4433
 3642TIP3    H232486   3.676   2.540   8.646  0.1551  0.2447  1.4017
 3643TIP3   OH232487   5.359   4.374   7.479  0.6417  0.3606  0.3953
 3643TIP3    H132488   5.282   4.407   7.433 -0.0773 -0.7777  0.7305
 3643TIP3    H232489   5.347   4.401   7.570 -0.2002 -1.1550  0.7727
 3644TIP3   OH232490   3.879   5.151   0.743 -0.2559  0.2481  0.0593
 3644TIP3    H132491   3.852   5.229   0.792 -2.5126 -1.5366  1.9610
 3644TIP3    H232492   3.920   5.185   0.664 -0.5308  3.3277  1.0846
 3645TIP3   OH232493   2.751   4.357   7.333 -0.1111 -0.4676 -0.3033
 3645TIP3    H132494   2.707   4.441   7.346  1.6037  0.4320  0.0457
 3645TIP3    H232495   2.723   4.328   7.247 -1.1457  0.2037 -0.2049
 3646TIP3   OH232496   3.963   0.172   7.488 -0.3868 -0.5293 -0.1802
 3646TIP3    H132497   3.871   0.163   7.513 -0.1517  1.2001  1.6022
 3646TIP3    H232498   3.978   0.267   7.487  1.3927 -0.7729 -0.3437
 3647TIP3   OH232499   3.918   4.431   8.089  0.5221  0.1665  0.2508
 3647TIP3    H132500   3.825   4.454   8.087  0.8450  1.8125  1.4097
 3647TIP3    H232501   3.920   4.338   8.110 -0.8959 -1.1044 -4.2880
 3648TIP3   OH232502   1.492   2.547   0.993 -0.4443 -0.8312  0.0876
 3648TIP3    H132503   1.457   2.463   0.964 -1.6379  0.2661 -1.8198
 3648TIP3    H232504   1.436   2.572   1.066 -0.1588 -1.5930  0.5892
 3649TIP3   OH232505   4.575   6.465   2.159 -0.6454 -0.3052  0.0929
 3649TIP3    H132506   4.578   6.528   2.086 -2.8233 -0.3757 -0.1290
 3649TIP3    H232507   4.518   6.506   2.224  0.1549 -0.8599  1.1785
 3650TIP3   OH232508   1.161   6.636   1.971  0.4687 -0.1638  0.0548
 3650TIP3    H132509   1.140   6.729   1.968 -0.3240 -0.3293  0.1749
 3650TIP3    H232510   1.168   6.610   1.879  0.7478  0.0229  0.0213
 3651TIP3   OH232511   2.025   3.304   0.598  0.2028 -0.5070  0.4025
 3651TIP3    H132512   2.010   3.277   0.508 -0.0145 -0.2320  0.3531
 3651TIP3    H232513   2.049   3.224   0.644  1.0801 -0.5190 -0.0601
 3652TIP3   OH232514   6.576   4.676   0.558 -0.5873 -0.6906 -0.5335
 3652TIP3    H132515   6.493   4.664   0.512  0.0664  0.2482 -2.0175
 3652TIP3    H232516   6.642   4.636   0.501  0.1074 -0.5578  0.1561
 3653TIP3   OH232517   6.844   4.960   1.853  0.1529  0.0578 -0.3867
 3653TIP3    H132518   6.855   4.961   1.948 -3.0916 -1.7456  0.1395
 3653TIP3    H232519   6.824   5.051   1.831  1.6269  0.6354  0.4735
 3654TIP3   OH232520   0.778   0.704   0.654 -0.2053  0.0210 -0.2903
 3654TIP3    H132521   0.860   0.660   0.633  0.4674  0.8977  0.4288
 3654TIP3    H232522   0.712   0.656   0.604  0.8882  0.0399 -1.8327
 3655TIP3   OH232523   6.618   4.953   8.232  0.3802 -0.4918  0.0621
 3655TIP3    H132524   6.687   4.959   8.297 -1.3557  0.5825  1.9148
 3655TIP3    H232525   6.575   5.039   8.235 -2.1323 -1.6682  0.2932
 3656TIP3   OH232526   4.743   5.686   7.131 -0.3145  0.5667 -0.2365
 3656TIP3    H132527   4.746   5.623   7.059  0.1950  1.1921 -0.7822
 3656TIP3    H232528   4.727   5.770   7.088 -1.3459  0.7721  0.5100
 3657TIP3   OH232529   2.679   2.962   6.761  0.1817 -0.0888 -0.1653
 3657TIP3    H132530   2.767   2.943   6.728  0.6366  3.3805 -1.3236
 3657TIP3    H232531   2.622   2.902   6.713  1.8485 -3.0835  1.2634
 3658TIP3   OH232532   2.675   3.293   1.091 -0.8979  0.1388 -0.1781
 3658TIP3    H132533   2.661   3.327   1.180  1.3390 -2.0946  1.1561
 3658TIP3    H232534   2.606   3.228   1.079 -1.2139  0.4548 -0.1033
 3659TIP3   OH232535   0.289   6.878   6.631  0.3344  0.1163 -0.1042
 3659TIP3    H132536   0.260   6.966   6.610 -0.3104 -0.1449 -0.3178
 3659TIP3    H232537   0.379   6.890   6.664  0.4682  0.7835 -0.6812
 3660TIP3   OH232538   4.696   4.726   6.257  1.5162 -0.3769 -0.2533
 3660TIP3    H132539   4.624   4.680   6.215  0.5489  0.3526  0.5466
 3660TIP3    H232540   4.763   4.732   6.190 -0.0924  1.0298 -1.8380
 3661TIP3   OH232541   2.970   3.015   0.778 -0.3498 -0.0762 -0.2192
 3661TIP3    H132542   3.022   3.081   0.733 -1.3310 -0.7298 -2.4695
 3661TIP3    H232543   2.976   3.039   0.871  1.2830  1.7104 -0.7120
 3662TIP3   OH232544   0.806   5.959   1.904 -0.0677 -0.0875 -0.1395
 3662TIP3    H132545   0.762   5.881   1.940  0.6548 -0.5635 -0.2666
 3662TIP3    H232546   0.831   6.010   1.982  0.3408 -0.4774 -0.0111
 3663TIP3   OH232547   5.955   6.608   0.159  0.2572  0.1396 -0.1500
 3663TIP3    H132548   6.010   6.538   0.124  0.9753  0.7569 -0.2821
 3663TIP3    H232549   6.014   6.660   0.214  0.0477  1.3723 -1.0602
 3664TIP3   OH232550   3.597   0.001   1.453  0.2834  0.0001 -0.1698
 3664TIP3    H132551   3.567   0.021   1.365  1.3942 -0.6140 -0.7088
 3664TIP3    H232552   3.690   0.024   1.453  0.2321  0.2882  0.9406
 3665TIP3   OH232553   5.674   4.831   8.139 -0.1951  0.1616 -0.0267
 3665TIP3    H132554   5.611   4.821   8.210 -1.1137  0.5368 -0.7565
 3665TIP3    H232555   5.694   4.742   8.112  1.6936 -0.0864  1.9577
 3666TIP3   OH232556   1.130   0.564   6.213 -0.5553 -0.2791  0.1649
 3666TIP3    H132557   1.158   0.478   6.183 -1.7417 -0.0688 -1.7404
 3666TIP3    H232558   1.035   0.564   6.199 -1.0570  0.3072  2.9483
 3667TIP3   OH232559   4.281   3.479   1.322  0.1198  0.1019  0.7536
 3667TIP3    H132560   4.272   3.466   1.228  0.6800 -0.4769  0.7716
 3667TIP3    H232561   4.342   3.552   1.331  0.5849 -0.2680  0.6635
 3668TIP3   OH232562   5.637   4.887   7.872  0.0446  0.2840  0.7176
 3668TIP3    H132563   5.650   4.880   7.967 -0.3936 -2.6975  0.6543
 3668TIP3    H232564   5.543   4.872   7.860  0.1875  0.0937 -0.2091
 3669TIP3   OH232565   5.560   0.056   7.879 -0.2375 -0.0087  0.1677
 3669TIP3    H132566   5.476   0.037   7.838  0.2284 -0.5990 -0.5493
 3669TIP3    H232567   5.548   0.141   7.920 -1.0637  0.0926 -0.2591
 3670TIP3   OH232568   6.539   3.852   7.571  0.1966  0.2678  0.1227
 3670TIP3    H132569   6.632   3.854   7.548  0.2524  1.0544  0.3969
 3670TIP3    H232570   6.494   3.844   7.487  0.4897  0.4634 -0.0545
 3671TIP3   OH232571   5.650   0.228   0.090  0.5819  0.0769  0.8148
 3671TIP3    H132572   5.570   0.183   0.120  0.0186  1.2377  1.1357
 3671TIP3    H232573   5.721   0.183   0.135 -0.0340  0.0331  1.7869
 3672TIP3   OH232574   1.334   4.830   7.325 -0.3939  0.1841  0.1298
 3672TIP3    H132575   1.298   4.751   7.365  0.2816  0.0332  0.4428
 3672TIP3    H232576   1.290   4.836   7.239 -2.7673  1.1608  1.3168
 3673TIP3   OH232577   4.600   4.932   1.209 -0.5676  0.4448 -0.1040
 3673TIP3    H132578   4.557   4.922   1.294  1.1686 -0.1497  0.7442
 3673TIP3    H232579   4.608   5.027   1.198 -0.2756  0.5168  0.6708
 3674TIP3   OH232580   2.140   0.027   1.442  0.3310  0.3031 -0.3736
 3674TIP3    H132581   2.115   0.043   1.533 -0.2043 -0.9156 -0.2851
 3674TIP3    H232582   2.235   0.031   1.443  0.3010  1.4206  0.0024
 3675TIP3   OH232583   5.211   5.362   8.634 -0.6596 -0.3663 -0.1591
 3675TIP3    H132584   5.184   5.454   8.632  1.0023  0.1395 -0.2393
 3675TIP3    H232585   5.148   5.317   8.577 -1.7303  0.6292  0.1909
 3676TIP3   OH232586   3.357   6.246   1.663 -0.2952 -0.4999 -0.1748
 3676TIP3    H132587   3.294   6.249   1.736  1.6226 -1.5791  1.6260
 3676TIP3    H232588   3.341   6.161   1.621  0.0313 -0.8451  0.3819
 3677TIP3   OH232589   2.220   5.064   0.688  0.5950  0.2104  0.2451
 3677TIP3    H132590   2.283   5.096   0.752  2.3169 -1.4090 -0.5443
 3677TIP3    H232591   2.136   5.063   0.734  1.8471 -1.4126  2.6903
 3678TIP3   OH232592   3.176   5.080   8.554  0.1799 -0.1423 -0.7461
 3678TIP3    H132593   3.080   5.078   8.552  0.1729  0.0442 -0.6456
 3678TIP3    H232594   3.197   5.137   8.628  0.3399  2.2324 -2.5148
 3679TIP3   OH232595   0.143   0.581   0.529  0.0105  0.3154  0.2361
 3679TIP3    H132596   0.177   0.526   0.457 -2.8943  0.4302 -1.3861
 3679TIP3    H232597   0.078   0.526   0.572  1.4932  0.3686  2.7033
 3680TIP3   OH232598   4.188   0.627   1.890 -0.0925 -0.5439 -0.0014
 3680TIP3    H132599   4.277   0.652   1.916 -0.1149 -2.3206  2.1008
 3680TIP3    H232600   4.200   0.544   1.844 -0.4381  0.7337 -2.5494
 3681TIP3   OH232601   1.292   3.323   1.214  0.5563  0.4582 -0.0243
 3681TIP3    H132602   1.286   3.241   1.165  0.3991  0.6907 -0.3948
 3681TIP3    H232603   1.205   3.362   1.206  0.2397  0.0610  1.2119
 3682TIP3   OH232604   5.452   4.878   1.302  0.2331 -0.4494 -0.1415
 3682TIP3    H132605   5.493   4.907   1.221 -1.2472  3.4313  0.2774
 3682TIP3    H232606   5.484   4.940   1.368 -1.6760 -0.9645  1.3609
 3683TIP3   OH232607   4.991   5.122   1.465 -0.5227 -0.6548  0.5974
 3683TIP3    H132608   5.063   5.100   1.523  1.1128  1.7902 -0.3382
 3683TIP3    H232609   5.000   5.217   1.451 -2.6766 -0.6376 -1.2074
 3684TIP3   OH232610   5.363   4.071   8.356 -0.1428 -0.3700 -0.5114
 3684TIP3    H132611   5.320   4.130   8.417  1.0436  0.3094 -0.3047
 3684TIP3    H232612   5.385   4.126   8.281 -0.5528 -0.9407 -1.0641
 3685TIP3   OH232613   6.067   2.321   6.750 -0.2929  0.4412  0.0897
 3685TIP3    H132614   6.041   2.392   6.692  0.1190  0.4939 -0.0379
 3685TIP3    H232615   6.040   2.241   6.705  0.6154  0.4518 -0.4949
 3686TIP3   OH232616   1.015   4.076   2.454 -0.1629  0.1913 -0.0982
 3686TIP3    H132617   1.078   4.071   2.526 -0.6183 -3.0181  0.2516
 3686TIP3    H232618   0.931   4.092   2.498 -0.1749  0.0863 -0.0806
 3687TIP3   OH232619   1.100   0.958   7.685  0.4467 -0.6921  0.3757
 3687TIP3    H132620   1.019   0.936   7.733  0.0183  0.2809  0.1165
 3687TIP3    H232621   1.170   0.929   7.744 -0.0590  0.7652  1.7816
 3688TIP3   OH232622   4.911   5.799   1.255 -0.0253  0.3945 -0.0071
 3688TIP3    H132623   4.970   5.795   1.330 -1.6340  0.5757  1.3032
 3688TIP3    H232624   4.967   5.826   1.182  1.2076  2.2005  1.5264
 3689TIP3   OH232625   5.708   5.885   1.638 -0.1237  0.1322 -0.0855
 3689TIP3    H132626   5.726   5.969   1.594  0.9106  0.4110  0.8295
 3689TIP3    H232627   5.655   5.909   1.714 -0.9609 -0.2166 -0.5493
 3690TIP3   OH232628   0.429   1.999   0.728 -0.9197 -0.3797  0.3441
 3690TIP3    H132629   0.520   2.027   0.726 -1.3073  1.1016  1.7107
 3690TIP3    H232630   0.416   1.954   0.644  1.1280 -0.9115  0.2680
 3691TIP3   OH232631   1.454   1.438   7.629 -0.3641 -0.1734  0.1610
 3691TIP3    H132632   1.456   1.512   7.569  1.9778 -0.6564 -0.4740
 3691TIP3    H232633   1.421   1.365   7.577 -0.2907 -0.1355  0.0621
 3692TIP3   OH232634   6.675   4.533   8.630  0.2606  0.1215  0.4643
 3692TIP3    H132635   6.588   4.515   8.594  0.1800 -0.4708  0.9450
 3692TIP3    H232636   6.726   4.564   8.554 -1.1080  3.2726  0.6792
 3693TIP3   OH232637   1.278   4.104   2.268  0.2019 -0.0671  0.2135
 3693TIP3    H132638   1.333   4.080   2.343  0.3202  0.0462  0.1634
 3693TIP3    H232639   1.260   4.197   2.280  0.6039  0.0629 -0.1414
 3694TIP3   OH232640   6.746   1.789   7.196  0.2028  0.2512 -0.0829
 3694TIP3    H132641   6.701   1.774   7.279 -0.6536  0.8900 -0.4156
 3694TIP3    H232642   6.718   1.716   7.140  0.9821 -0.3211  0.2602
 3695TIP3   OH232643   5.626   2.930   1.950  0.0770 -0.1561 -0.2758
 3695TIP3    H132644   5.666   2.890   2.027  0.5099  0.3124 -0.2556
 3695TIP3    H232645   5.643   2.868   1.879  0.3691 -0.2148 -0.1562
 3696TIP3   OH232646   0.737   5.125   1.035  0.1356 -0.1281 -0.0010
 3696TIP3    H132647   0.713   5.033   1.039 -1.0868  0.1821  0.1940
 3696TIP3    H232648   0.772   5.138   0.947 -0.5427 -0.5783 -0.3414
 3697TIP3   OH232649   4.631   4.009   6.523  0.2649 -0.2538  0.8607
 3697TIP3    H132650   4.589   4.083   6.567  1.6840  2.1226 -1.4915
 3697TIP3    H232651   4.700   3.982   6.584  2.2701  3.0234  0.2636
 3698TIP3   OH232652   1.158   5.033   0.515  0.3943  0.6003 -0.0986
 3698TIP3    H132653   1.212   5.066   0.588  0.6439  0.9407 -0.4328
 3698TIP3    H232654   1.221   5.018   0.444  0.8937 -3.8287  1.0007
 3699TIP3   OH232655   2.234   4.505   6.771 -0.2736 -0.1752  0.2492
 3699TIP3    H132656   2.272   4.591   6.789 -0.6570  0.3244 -1.1917
 3699TIP3    H232657   2.168   4.522   6.704  1.4441 -1.9573 -2.0290
 3700TIP3   OH232658   1.934   4.010   1.301 -0.1525  0.2591 -0.2012
 3700TIP3    H132659   1.931   4.081   1.365 -2.8496  1.3867 -1.4062
 3700TIP3    H232660   1.844   4.003   1.269  0.5916 -1.9124 -2.1021
 3701TIP3   OH232661   0.616   1.781   0.386 -0.1268  0.3631 -0.5667
 3701TIP3    H132662   0.593   1.692   0.358 -0.3706 -0.3034  1.5971
 3701TIP3    H232663   0.546   1.806   0.446  1.4177  0.8425  1.1182
 3702TIP3   OH232664   1.198   5.695   0.485 -0.3982 -0.7641  0.0264
 3702TIP3    H132665   1.217   5.767   0.426  0.0673 -0.0380  1.0270
 3702TIP3    H232666   1.285   5.663   0.512 -0.5968 -0.6665  0.8063
 3703TIP3   OH232667   6.812   5.067   1.518 -0.3706 -0.4468  0.1091
 3703TIP3    H132668   6.903   5.094   1.510 -0.2611 -0.5815  0.8625
 3703TIP3    H232669   6.774   5.126   1.583 -0.5587 -1.0147  0.5260
 3704TIP3   OH232670   6.244   4.654   2.106 -0.2540 -0.1774 -0.5450
 3704TIP3    H132671   6.300   4.610   2.041  1.0622  0.2828  0.2410
 3704TIP3    H232672   6.163   4.603   2.107 -0.5122  0.0695 -2.8824
 3705TIP3   OH232673   5.137   3.378   2.161 -0.4191  0.1537  0.1096
 3705TIP3    H132674   5.179   3.423   2.234  1.5124 -0.8930 -0.2577
 3705TIP3    H232675   5.134   3.286   2.189 -0.5165 -0.1086 -0.7341
 3706TIP3   OH232676   0.647   2.272   1.712  0.2787 -0.3270  0.2101
 3706TIP3    H132677   0.673   2.336   1.778  0.5716 -0.6588  0.4171
 3706TIP3    H232678   0.552   2.267   1.720 -0.0429  1.7586 -1.3384
 3707TIP3   OH232679   1.875   2.256   1.762 -0.6346  0.4265 -0.1416
 3707TIP3    H132680   1.969   2.268   1.777 -0.4821 -1.2805  0.4803
 3707TIP3    H232681   1.833   2.310   1.829 -0.0100 -1.7294  2.1158
 3708TIP3   OH232682   0.081   5.578   0.811 -0.0966  0.1872  0.2592
 3708TIP3    H132683   0.043   5.495   0.838 -2.1054  1.0265  0.1643
 3708TIP3    H232684   0.041   5.643   0.869 -0.1522  1.3283 -1.0095
 3709TIP3   OH232685   1.254   6.833   8.419 -0.3180 -0.0854  0.8583
 3709TIP3    H132686   1.272   6.822   8.326  3.0543 -3.4069  1.6566
 3709TIP3    H232687   1.302   6.912   8.444 -1.6097  1.0844 -0.1939
 3710TIP3   OH232688   3.970   5.256   1.602 -0.8302 -0.3372  0.2380
 3710TIP3    H132689   3.924   5.202   1.666 -0.4352 -0.5661  0.3316
 3710TIP3    H232690   3.913   5.332   1.590 -0.9487 -0.3320  0.8010
 3711TIP3   OH232691   0.699   5.848   8.066  0.7383  0.3475 -0.1939
 3711TIP3    H132692   0.779   5.900   8.067  1.7701 -1.1383  1.6127
 3711TIP3    H232693   0.698   5.807   7.980  2.2418 -0.0189 -0.0712
 3712TIP3   OH232694   0.038   3.431   0.189  0.2433  0.2996  0.7798
 3712TIP3    H132695   0.080   3.438   0.104 -2.9504 -0.0383 -0.9830
 3712TIP3    H232696   0.105   3.459   0.252  2.0437  2.7029 -1.9665
 3713TIP3   OH232697   5.351   1.939   6.270  0.2348  0.8460 -1.1836
 3713TIP3    H132698   5.325   1.850   6.291  2.0657  0.0058 -2.1811
 3713TIP3    H232699   5.437   1.949   6.311  0.6953  1.6181 -2.2857
 3714TIP3   OH232700   2.088   6.571   0.093  0.4622 -0.4755 -0.7662
 3714TIP3    H132701   2.168   6.613   0.125 -0.2312 -0.6423  1.3643
 3714TIP3    H232702   2.036   6.557   0.172 -1.5377 -0.6693 -2.0560
 3715TIP3   OH232703   4.283   4.569   2.224  0.3567  0.7435 -0.0846
 3715TIP3    H132704   4.233   4.487   2.221  0.9021  0.4178 -0.4658
 3715TIP3    H232705   4.321   4.570   2.312  1.8947 -0.3700 -0.6878
 3716TIP3   OH232706   2.371   3.998   2.099  0.5476  0.0308  0.2081
 3716TIP3    H132707   2.455   3.975   2.058 -0.2625 -1.8275 -0.4641
 3716TIP3    H232708   2.318   4.031   2.027  0.1934 -0.1858  0.3730
 3717TIP3   OH232709   1.205   4.561   1.189 -0.3386  0.0705  0.5017
 3717TIP3    H132710   1.206   4.616   1.111  0.4107 -1.9156 -0.9613
 3717TIP3    H232711   1.291   4.576   1.230  0.8992 -1.7586 -1.2570
 3718TIP3   OH232712   2.840   1.666   6.526 -0.5615  0.5758  0.0260
 3718TIP3    H132713   2.799   1.629   6.447  0.8765 -1.6784  0.2249
 3718TIP3    H232714   2.864   1.755   6.501 -2.2602  0.7177 -1.2720
 3719TIP3   OH232715   3.778   1.711   7.528 -0.5602  0.4156 -0.6254
 3719TIP3    H132716   3.764   1.633   7.475  1.2957  0.1282 -0.7458
 3719TIP3    H232717   3.776   1.783   7.465 -0.0726  0.2393 -0.8508
 3720TIP3   OH232718   1.858   6.629   8.127  0.4013 -0.1020 -1.1446
 3720TIP3    H132719   1.827   6.629   8.217 -0.0736  1.3534 -1.2819
 3720TIP3    H232720   1.942   6.583   8.130  0.6813  0.4769  0.1501
 3721TIP3   OH232721   1.767   4.421   2.859  0.5217 -0.5695 -0.2771
 3721TIP3    H132722   1.687   4.430   2.912  1.0742 -0.1798  0.5072
 3721TIP3    H232723   1.797   4.332   2.876  0.1502 -0.7857 -0.7309
 3722TIP3   OH232724   6.789   4.546   1.600  0.3080 -0.4449 -0.7884
 3722TIP3    H132725   6.832   4.628   1.624 -0.8516 -0.2642  0.8137
 3722TIP3    H232726   6.696   4.569   1.591 -0.1170 -1.6654  0.1916
 3723TIP3   OH232727   4.518   5.463   7.280 -0.1184  0.1865  0.2171
 3723TIP3    H132728   4.571   5.420   7.213 -0.2345  1.9998 -1.1118
 3723TIP3    H232729   4.479   5.391   7.329  1.0325 -1.1993 -0.8005
 3724TIP3   OH232730   6.051   3.169   7.811  0.2935 -0.7031  0.4328
 3724TIP3    H132731   6.024   3.164   7.902  0.8157 -0.5232  0.6024
 3724TIP3    H232732   6.095   3.086   7.794 -0.9376 -1.2747 -0.0375
 3725TIP3   OH232733   2.424   3.899   7.468 -0.1025  0.2826  0.2053
 3725TIP3    H132734   2.331   3.921   7.474 -0.5069 -0.6083 -1.8963
 3725TIP3    H232735   2.435   3.824   7.526 -0.3253  1.3452  1.6614
 3726TIP3   OH232736   5.704   6.864   7.161 -0.6072 -0.1762 -0.0559
 3726TIP3    H132737   5.727   6.822   7.244  0.2390 -0.7348 -0.5615
 3726TIP3    H232738   5.685   6.791   7.102  0.2203  0.1662 -0.7590
 3727TIP3   OH232739   6.863   2.661   1.150 -0.0332 -0.0996  0.0227
 3727TIP3    H132740   6.893   2.648   1.060 -1.8107  1.5571 -0.8924
 3727TIP3    H232741   6.941   2.686   1.199  0.5067  1.8414 -1.7315
 3728TIP3   OH232742   0.621   1.500   0.279  0.0537 -0.1124  0.1243
 3728TIP3    H132743   0.715   1.483   0.281 -0.1295 -1.1280  0.8148
 3728TIP3    H232744   0.581   1.413   0.278 -0.8770  0.3093 -0.2871
 3729TIP3   OH232745   4.247   5.795   0.106 -0.8087 -0.3083 -0.5891
 3729TIP3    H132746   4.303   5.856   0.058  1.4211 -1.3703  0.5237
 3729TIP3    H232747   4.206   5.741   0.038 -0.7861  0.7190 -1.4455
 3730TIP3   OH232748   5.398   4.741   0.307  0.5329  0.4545 -0.0536
 3730TIP3    H132749   5.322   4.792   0.279  0.0343  0.0414  0.5263
 3730TIP3    H232750   5.363   4.675   0.367  1.5099  1.0929  1.2747
 3731TIP3   OH232751   5.935   5.699   7.643  0.0700 -0.3525 -1.2146
 3731TIP3    H132752   5.871   5.769   7.635 -0.5990 -0.9746 -1.4525
 3731TIP3    H232753   5.966   5.684   7.554  0.7113  0.0906 -1.0704
 3732TIP3   OH232754   6.113   5.798   0.862 -0.4513 -0.3525 -0.1480
 3732TIP3    H132755   6.160   5.862   0.916 -1.8332 -0.2215  0.9671
 3732TIP3    H232756   6.078   5.848   0.789 -2.5345  0.4663  1.3413
 3733TIP3   OH232757   1.381   3.625   7.680  0.1034  0.2228  0.2412
 3733TIP3    H132758   1.349   3.547   7.726  3.1206 -0.4395  1.4672
 3733TIP3    H232759   1.359   3.698   7.738 -0.5716  0.0275  0.2474
 3734TIP3   OH232760   0.411   5.554   0.923  0.4012  0.4824  0.1552
 3734TIP3    H132761   0.479   5.613   0.890  0.4532  0.1316 -0.3747
 3734TIP3    H232762   0.332   5.581   0.876  0.6356 -0.5209 -0.8482
 3735TIP3   OH232763   5.744   3.037   8.561  0.3518 -0.1305  0.2810
 3735TIP3    H132764   5.771   3.115   8.511 -0.3003  0.3566  0.6705
 3735TIP3    H232765   5.657   3.017   8.528 -0.0041  0.0770  1.0853
 3736TIP3   OH232766   4.804   1.866   8.571 -0.1670  0.4099  0.3910
 3736TIP3    H132767   4.881   1.923   8.578  1.3454 -1.5420  0.3877
 3736TIP3    H232768   4.795   1.850   8.477 -0.1778  0.1226  0.4403
 3737TIP3   OH232769   6.016   3.328   0.699  0.2453  0.5407  0.1800
 3737TIP3    H132770   6.073   3.392   0.741 -0.0217  0.6621  0.3590
 3737TIP3    H232771   6.046   3.243   0.733  0.1139  0.6280  0.5172
 3738TIP3   OH232772   6.327   4.428   0.809  0.1074 -0.4986 -0.4634
 3738TIP3    H132773   6.294   4.354   0.860 -0.4850  1.2270  1.8045
 3738TIP3    H232774   6.248   4.463   0.767 -0.0047  0.1790  0.2997
 3739TIP3   OH232775   5.610   3.713   0.501  0.5739  0.2078  0.1647
 3739TIP3    H132776   5.618   3.789   0.444 -0.9018 -1.1769 -2.0167
 3739TIP3    H232777   5.683   3.657   0.476 -1.1624 -1.2739 -1.8808
 3740TIP3   OH232778   2.890   3.478   7.017  0.7012 -0.2994 -0.0840
 3740TIP3    H132779   2.821   3.421   6.984 -0.6243  1.4913 -0.6076
 3740TIP3    H232780   2.942   3.422   7.074 -1.5218 -1.6273  0.7971
 3741TIP3   OH232781   6.818   6.626   0.556 -0.5585  0.3917  0.0082
 3741TIP3    H132782   6.816   6.585   0.469  1.2765  0.2418 -0.0010
 3741TIP3    H232783   6.766   6.568   0.611 -1.5669  0.3711 -0.9246
 3742TIP3   OH232784   4.276   4.215   2.485  1.4317 -0.2011 -0.5725
 3742TIP3    H132785   4.303   4.307   2.480  1.5620 -0.0809  1.6221
 3742TIP3    H232786   4.182   4.219   2.501  1.6352 -0.3975  0.7525
 3743TIP3   OH232787   1.856   2.578   0.751  0.0750 -0.4345  0.1937
 3743TIP3    H132788   1.915   2.647   0.720  1.0574 -0.8049  1.2049
 3743TIP3    H232789   1.849   2.518   0.677  0.3997 -0.0311 -0.1720
 3744TIP3   OH232790   2.271   3.276   0.816 -0.5715 -0.2261  0.0518
 3744TIP3    H132791   2.322   3.267   0.896  0.5223 -0.5333 -0.6607
 3744TIP3    H232792   2.336   3.290   0.747 -1.4395 -0.6694 -0.8846
 3745TIP3   OH232793   0.413   5.488   1.719 -0.1087  0.1746 -0.1372
 3745TIP3    H132794   0.387   5.406   1.679 -2.0986  1.2236 -1.1296
 3745TIP3    H232795   0.438   5.464   1.808 -2.8226 -1.2522  0.3481
 3746TIP3   OH232796   0.016   5.830   1.234 -0.3869  0.0343 -0.1194
 3746TIP3    H132797   0.106   5.849   1.207  0.4634 -1.7939  1.1515
 3746TIP3    H232798   0.007   5.874   1.319 -0.4146 -0.3694  0.0922
 3747TIP3   OH232799   4.027   6.841   7.068  0.2575 -0.1336 -0.2670
 3747TIP3    H132800   4.073   6.814   7.148 -0.5543  0.8127  0.5487
 3747TIP3    H232801   3.961   6.904   7.098  0.1921  0.5427 -1.7401
 3748TIP3   OH232802   0.579   3.297   2.177 -0.3418 -0.0368  0.5391
 3748TIP3    H132803   0.557   3.224   2.120 -1.6752  0.8485 -0.1491
 3748TIP3    H232804   0.664   3.327   2.146 -0.5526 -0.2574 -0.2813
 3749TIP3   OH232805   0.442   1.268   8.226 -0.1787 -0.2895 -0.0184
 3749TIP3    H132806   0.409   1.239   8.140  1.3122  0.4853 -0.8839
 3749TIP3    H232807   0.377   1.236   8.288 -0.2996 -2.6354 -1.2346
 3750TIP3   OH232808   6.023   6.095   1.455  0.3691 -0.0416  0.0039
 3750TIP3    H132809   6.077   6.092   1.534 -1.0834 -0.1293  1.0247
 3750TIP3    H232810   6.003   6.188   1.443  0.3053 -0.0641 -0.0691
 3751TIP3   OH232811   2.894   5.239   6.829 -0.2112 -0.3043  0.5086
 3751TIP3    H132812   2.958   5.176   6.796 -0.1725  0.4461 -0.9413
 3751TIP3    H232813   2.817   5.227   6.774 -0.2217  0.8536  0.2331
 3752TIP3   OH232814   3.535   3.802   8.266 -0.1429  0.3703 -0.6863
 3752TIP3    H132815   3.491   3.810   8.182 -1.4122 -0.7706 -0.1777
 3752TIP3    H232816   3.517   3.884   8.312 -2.6270 -0.4289 -0.1190
 3753TIP3   OH232817   3.115   0.424   1.057 -0.0011  0.1346 -1.0549
 3753TIP3    H132818   3.020   0.430   1.071  0.2184  0.2517  0.5952
 3753TIP3    H232819   3.153   0.475   1.129  1.3101  0.3547 -1.8827
 3754TIP3   OH232820   3.812   2.406   7.024  0.7518 -0.7108  0.0865
 3754TIP3    H132821   3.906   2.424   7.034  0.7825  0.7412 -2.1910
 3754TIP3    H232822   3.791   2.348   7.097  2.8308  1.0256  2.2335
 3755TIP3   OH232823   6.573   5.543   0.937  0.4251 -0.1063  0.1110
 3755TIP3    H132824   6.597   5.464   0.987 -0.4735 -0.3008  0.2453
 3755TIP3    H232825   6.645   5.604   0.954  1.8310 -1.3635 -1.0978
 3756TIP3   OH232826   0.204   3.118   1.433 -0.2473 -1.1113  0.3505
 3756TIP3    H132827   0.164   3.069   1.504  0.5970 -3.1308 -0.4923
 3756TIP3    H232828   0.179   3.071   1.354  0.1324  0.1678 -0.5646
 3757TIP3   OH232829   0.434   1.663   6.969  0.1357 -0.1621  0.0392
 3757TIP3    H132830   0.431   1.696   6.879 -1.3056  0.8911  0.4532
 3757TIP3    H232831   0.350   1.619   6.982  0.0239  0.3308  1.1054
 3758TIP3   OH232832   6.880   6.674   2.190 -0.1977 -0.0013 -0.3195
 3758TIP3    H132833   6.839   6.655   2.105 -2.6936 -0.1903  0.8569
 3758TIP3    H232834   6.938   6.599   2.205 -1.5902 -1.2317 -0.7924
 3759TIP3   OH232835   5.934   4.048   8.438 -0.3604  0.1887  0.0807
 3759TIP3    H132836   5.881   4.120   8.405  1.4403  1.5335 -0.0486
 3759TIP3    H232837   5.961   4.076   8.525  0.5910 -0.1909 -0.0769
 3760TIP3   OH232838   0.597   6.831   6.733  0.6009 -0.5676 -0.5327
 3760TIP3    H132839   0.530   6.766   6.754  0.0523  0.1310 -0.1005
 3760TIP3    H232840   0.678   6.780   6.724  0.7265 -1.0468  2.3922
 3761TIP3   OH232841   6.250   1.402   7.540 -0.2763 -0.2234 -0.3259
 3761TIP3    H132842   6.283   1.484   7.505 -3.3814  1.0585 -0.5345
 3761TIP3    H232843   6.184   1.373   7.477  1.2982 -3.4416 -0.7413
 3762TIP3   OH232844   4.974   6.177   7.289 -0.1351 -0.4931  0.5974
 3762TIP3    H132845   5.012   6.253   7.245  0.0639 -1.3287 -0.7295
 3762TIP3    H232846   4.880   6.195   7.290 -0.0289  0.0688  0.8944
 3763TIP3   OH232847   3.841   4.168   8.064  0.0220  0.4845  0.0376
 3763TIP3    H132848   3.746   4.176   8.073  0.2298  1.9401  1.5794
 3763TIP3    H232849   3.854   4.092   8.009 -2.0601  0.8221 -1.0088
 3764TIP3   OH232850   6.456   3.797   7.298  0.4503 -0.4046  0.2049
 3764TIP3    H132851   6.458   3.702   7.288  2.7167 -0.4744  0.7551
 3764TIP3    H232852   6.537   3.827   7.258 -0.3214  1.3471 -0.1314
 3765TIP3   OH232853   2.617   3.297   1.382 -0.1801  0.5807  0.8046
 3765TIP3    H132854   2.662   3.292   1.466 -0.2124  0.7684  0.8342
 3765TIP3    H232855   2.580   3.385   1.380  1.5631  1.3543 -0.2802
 3766TIP3   OH232856   0.982   2.235   0.292 -0.1285 -0.7200 -0.2970
 3766TIP3    H132857   1.005   2.316   0.247 -2.3729 -0.1393 -0.5540
 3766TIP3    H232858   0.940   2.264   0.373 -2.6168 -1.4954 -1.2164
 3767TIP3   OH232859   5.261   6.865   0.501  0.2202 -0.5778 -0.0916
 3767TIP3    H132860   5.314   6.826   0.431  0.6683  0.6758 -0.4782
 3767TIP3    H232861   5.227   6.946   0.463 -1.5789 -1.0835  0.3319
 3768TIP3   OH232862   2.997   6.023   1.709  0.0352 -0.1749 -0.5132
 3768TIP3    H132863   3.087   6.002   1.734  0.4650  0.7145 -1.2479
 3768TIP3    H232864   2.953   6.039   1.793  0.1247 -2.1385 -0.0450
 3769TIP3   OH232865   2.587   3.252   8.519 -0.4206  0.0461  0.2408
 3769TIP3    H132866   2.585   3.158   8.536  0.5329 -0.1676 -0.7280
 3769TIP3    H232867   2.502   3.270   8.477  0.0578 -0.7188 -1.1254
 3770TIP3   OH232868   4.621   4.634   1.478 -0.3395  0.0399 -0.0647
 3770TIP3    H132869   4.712   4.609   1.467 -0.6080 -0.5204 -1.1236
 3770TIP3    H232870   4.588   4.577   1.547  0.7660  2.0367  2.2895
 3771TIP3   OH232871   6.626   0.079   1.083  0.3553  0.0998  0.3598
 3771TIP3    H132872   6.687   0.138   1.039  1.9369 -0.3404  1.8729
 3771TIP3    H232873   6.571   0.136   1.136  0.6910  0.3666  0.4243
 3772TIP3   OH232874   4.790   2.735   6.551  0.0178  0.5938 -0.0006
 3772TIP3    H132875   4.704   2.731   6.510 -0.9755  2.5385  1.7430
 3772TIP3    H232876   4.840   2.797   6.498 -0.4603  1.2677  0.3278
 3773TIP3   OH232877   5.330   6.812   7.385 -0.3859 -0.2984 -0.4256
 3773TIP3    H132878   5.293   6.900   7.379  0.2268 -0.0859 -1.1431
 3773TIP3    H232879   5.293   6.777   7.467 -1.2429  0.3272 -0.5257
 3774TIP3   OH232880   3.789   1.531   8.160  0.1467  0.3368  0.6768
 3774TIP3    H132881   3.711   1.586   8.169 -1.2558 -1.3185 -0.8248
 3774TIP3    H232882   3.795   1.484   8.244 -1.3684 -0.6018  0.2936
 3775TIP3   OH232883   4.283   5.969   1.440  0.2549 -0.2567 -0.0746
 3775TIP3    H132884   4.371   5.932   1.444 -0.8986 -3.5712 -1.5526
 3775TIP3    H232885   4.238   5.932   1.516 -0.2038  0.4522  0.0145
 3776TIP3   OH232886   5.313   0.110   0.721  0.4866  0.2479 -0.0963
 3776TIP3    H132887   5.320   0.038   0.784 -0.7519 -0.6161 -0.9157
 3776TIP3    H232888   5.285   0.068   0.639 -0.8546  1.7241 -0.4416
 3777TIP3   OH232889   4.684   5.960   2.039 -0.3584 -0.6750 -0.1922
 3777TIP3    H132890   4.766   5.918   2.064 -0.4246 -0.9038 -0.3522
 3777TIP3    H232891   4.674   6.032   2.101 -0.0870 -0.7054 -0.1096
 3778TIP3   OH232892   5.095   5.598   8.641  0.5250 -0.1475  0.5607
 3778TIP3    H132893   5.171   5.654   8.655  0.3602 -0.1288  1.4208
 3778TIP3    H232894   5.054   5.633   8.562  0.9300  0.3785  0.5756
 3779TIP3   OH232895   1.818   0.626   2.018 -0.0615 -0.4958 -0.0408
 3779TIP3    H132896   1.763   0.579   1.956 -0.5520 -1.0970  0.8223
 3779TIP3    H232897   1.860   0.558   2.070  1.5419 -0.0495 -0.6847
 3780TIP3   OH232898   4.028   1.859   0.314 -0.2821  0.0191 -0.1339
 3780TIP3    H132899   3.950   1.855   0.259  0.2310  0.7492 -0.9480
 3780TIP3    H232900   4.083   1.926   0.273  1.3464 -1.3803 -0.3430
 3781TIP3   OH232901   4.738   2.524   1.526 -0.0677  0.5100  0.0670
 3781TIP3    H132902   4.655   2.484   1.553 -0.8212  1.0256 -1.3908
 3781TIP3    H232903   4.798   2.504   1.598 -1.4117  0.0273  1.1085
 3782TIP3   OH232904   5.772   6.483   7.568  0.0150  0.2081 -0.3043
 3782TIP3    H132905   5.776   6.572   7.601 -0.0021 -0.0984  0.5402
 3782TIP3    H232906   5.678   6.462   7.567  0.0690 -0.0791  0.2721
 3783TIP3   OH232907   6.087   4.849   0.220 -0.0258  0.2526 -0.6750
 3783TIP3    H132908   6.127   4.927   0.259 -1.1033  0.5869 -0.2111
 3783TIP3    H232909   5.993   4.864   0.227 -0.2990 -1.8351  0.9917
 3784TIP3   OH232910   0.453   4.333   0.542 -0.1467  0.0260 -0.1459
 3784TIP3    H132911   0.486   4.374   0.462 -0.6536  1.8521  0.5259
 3784TIP3    H232912   0.531   4.314   0.593  0.1880 -1.2055 -1.0448
 3785TIP3   OH232913   1.523   1.737   6.189  0.1457  0.5550 -0.0482
 3785TIP3    H132914   1.572   1.815   6.214 -0.3691  0.0350  2.9113
 3785TIP3    H232915   1.486   1.759   6.103  0.8589  3.1522  0.2215
 3786TIP3   OH232916   4.567   3.693   7.652  0.2025 -0.5002 -0.5090
 3786TIP3    H132917   4.473   3.675   7.640  0.3207 -1.5574  0.0361
 3786TIP3    H232918   4.580   3.779   7.612 -0.9676 -0.4137 -0.7460
 3787TIP3   OH232919   4.922   3.945   1.988  0.4277 -0.2575 -0.3404
 3787TIP3    H132920   4.872   3.909   2.061 -0.5245 -0.4604 -1.0645
 3787TIP3    H232921   4.947   3.869   1.935  3.4034 -0.4107  1.0855
 3788TIP3   OH232922   4.638   4.504   6.872  0.3048 -0.0384  0.2318
 3788TIP3    H132923   4.689   4.477   6.948  1.5184 -1.0810 -0.8895
 3788TIP3    H232924   4.566   4.441   6.867  1.1319 -0.9829 -0.3520
 3789TIP3   OH232925   6.443   2.661   0.221  0.0367 -0.1839 -0.1086
 3789TIP3    H132926   6.411   2.603   0.291  2.0471 -2.5784 -1.0016
 3789TIP3    H232927   6.509   2.716   0.264 -1.6108  1.2744  0.6667
 3790TIP3   OH232928   5.012   1.531   0.721  0.1465  0.1352  0.2700
 3790TIP3    H132929   5.055   1.502   0.640  0.6537 -0.6189  0.7882
 3790TIP3    H232930   5.075   1.590   0.762 -0.5724  1.3984 -0.4127
 3791TIP3   OH232931   2.789   0.448   1.715 -0.5279  0.2448 -0.1849
 3791TIP3    H132932   2.763   0.362   1.680 -1.2337 -0.4621  1.9024
 3791TIP3    H232933   2.884   0.444   1.719 -0.4863  0.0015 -1.1286
 3792TIP3   OH232934   1.588   6.732   8.067  0.5075 -0.4232 -0.3212
 3792TIP3    H132935   1.615   6.808   8.118 -1.0805 -0.9467  1.4231
 3792TIP3    H232936   1.666   6.676   8.064  0.6181 -0.4559  1.7551
 3793TIP3   OH232937   2.837   1.033   1.319  0.4926 -0.4394  0.1754
 3793TIP3    H132938   2.887   0.957   1.287  0.7098 -0.1650 -0.1527
 3793TIP3    H232939   2.747   1.013   1.296  0.6822 -0.1053 -0.9306
 3794TIP3   OH232940   3.187   0.223   1.641  0.4641 -0.0628  0.8129
 3794TIP3    H132941   3.152   0.291   1.699  0.1190  0.9055 -0.4826
 3794TIP3    H232942   3.275   0.253   1.618 -0.4976  1.1938 -1.5694
 3795TIP3   OH232943   3.846   3.652   8.320 -0.3383 -0.2556 -0.1114
 3795TIP3    H132944   3.792   3.716   8.366 -1.8156 -1.3558 -0.2184
 3795TIP3    H232945   3.888   3.601   8.389 -2.4729 -1.8405  0.1160
 3796TIP3   OH232946   0.562   3.670   7.403 -0.3949 -0.5595 -0.4382
 3796TIP3    H132947   0.607   3.595   7.364 -1.1461 -0.2069 -2.0749
 3796TIP3    H232948   0.470   3.643   7.409 -0.5680  0.0058 -0.4868
 3797TIP3   OH232949   0.821   5.008   7.498  0.1535  0.8114  0.7214
 3797TIP3    H132950   0.861   5.060   7.428  0.7403 -1.6820 -0.9444
 3797TIP3    H232951   0.772   4.940   7.453 -0.5140 -0.1502  2.7578
 3798TIP3   OH232952   2.556   4.206   7.505  0.1635 -0.2666 -0.1164
 3798TIP3    H132953   2.638   4.250   7.527  0.3821 -0.4155 -0.6174
 3798TIP3    H232954   2.552   4.132   7.565  0.4302 -0.2995 -0.1396
 3799TIP3   OH232955   3.016   3.208   7.873 -0.2847 -0.3384  0.0867
 3799TIP3    H132956   3.045   3.291   7.835 -0.9997 -0.1205 -0.0009
 3799TIP3    H232957   3.020   3.221   7.967 -1.4642  0.1838  0.0712
 3800TIP3   OH232958   5.286   1.480   0.146  0.0849 -0.0160 -0.1275
 3800TIP3    H132959   5.344   1.430   0.088  0.5642  0.1004  0.2368
 3800TIP3    H232960   5.212   1.505   0.091  0.7689  0.5226 -0.8290
 3801TIP3   OH232961   5.133   4.387   8.269  0.1268  0.1726 -0.4159
 3801TIP3    H132962   5.047   4.348   8.283  1.1798 -1.6264  1.6731
 3801TIP3    H232963   5.169   4.340   8.193  0.3245 -1.0810  0.4275
 3802TIP3   OH232964   2.986   2.003   6.485  0.2286  0.4847 -0.3434
 3802TIP3    H132965   2.910   1.961   6.444 -0.5175  0.5548  0.9249
 3802TIP3    H232966   2.966   2.096   6.484 -0.3951  0.3873  1.3225
 3803TIP3   OH232967   3.991   1.581   0.903 -0.1110  0.3108  0.1695
 3803TIP3    H132968   4.012   1.670   0.874 -0.0181  0.3949  0.4980
 3803TIP3    H232969   3.916   1.592   0.961 -2.6514 -0.1878 -2.7189
 3804TIP3   OH232970   4.633   4.740   7.311  0.0810  0.8345 -0.5183
 3804TIP3    H132971   4.669   4.676   7.250  1.7913 -0.0155  1.2515
 3804TIP3    H232972   4.549   4.764   7.273 -0.3810 -2.0140 -1.6118
 3805TIP3   OH232973   3.903   1.397   7.675  0.1418  0.0386  0.1343
 3805TIP3    H132974   3.966   1.469   7.669 -0.9417  0.8947 -1.4713
 3805TIP3    H232975   3.902   1.375   7.768  1.7895  0.9032  0.4058
 3806TIP3   OH232976   3.542   3.026   7.013 -0.0098  0.1366 -0.1590
 3806TIP3    H132977   3.501   3.064   6.935  0.8543 -3.1294 -2.4420
 3806TIP3    H232978   3.512   2.935   7.013  2.7903 -0.8900  1.3089
 3807TIP3   OH232979   3.484   1.852   0.689 -0.1320  0.1012 -0.1073
 3807TIP3    H132980   3.539   1.865   0.611  0.5414 -1.3175  0.1067
 3807TIP3    H232981   3.535   1.794   0.745 -0.6780  0.9781  1.3512
 3808TIP3   OH232982   5.393   1.530   8.510  0.2322  0.0083  0.0346
 3808TIP3    H132983   5.327   1.582   8.465  0.6184  2.0755  1.7032
 3808TIP3    H232984   5.346   1.452   8.539 -1.7912  1.7733  1.8590
 3809TIP3   OH232985   4.041   1.056   7.306 -0.5748 -0.3952  0.0513
 3809TIP3    H132986   4.003   1.089   7.388  1.3727 -0.8110  1.1784
 3809TIP3    H232987   3.967   1.056   7.244 -1.7200  1.5397  1.3010
 3810TIP3   OH232988   6.467   5.755   7.804  0.0946  0.1733  0.4894
 3810TIP3    H132989   6.525   5.783   7.733 -0.4278 -1.4017 -0.6205
 3810TIP3    H232990   6.384   5.734   7.760 -1.5748  2.8241  2.0656
 3811TIP3   OH232991   5.281   2.934   8.283  0.2956 -0.7590 -0.1266
 3811TIP3    H132992   5.227   2.988   8.341 -0.3728 -1.8481  0.2933
 3811TIP3    H232993   5.261   2.966   8.195 -2.1872 -2.0602 -0.1269
 3812TIP3   OH232994   2.102   6.349   7.309 -0.0338  0.1617 -0.3251
 3812TIP3    H132995   2.153   6.429   7.301 -0.0957  0.1793 -0.5421
 3812TIP3    H232996   2.167   6.278   7.306 -0.0412  0.1737 -0.8321
 3813TIP3   OH232997   6.633   4.766   7.489 -0.6585  0.3047 -0.3743
 3813TIP3    H132998   6.537   4.769   7.484 -0.7570 -0.2797  0.7448
 3813TIP3    H232999   6.652   4.782   7.582  0.3692  1.0696 -0.7062
 3814TIP3   OH233000   2.953   2.150   0.282  0.2761 -0.2479  0.4024
 3814TIP3    H133001   2.998   2.226   0.319  0.3451 -0.5587  0.9734
 3814TIP3    H233002   2.918   2.103   0.358  0.9340 -1.2235  0.1223
 3815TIP3   OH233003   5.384   5.268   7.015 -0.3440  0.1947  0.2565
 3815TIP3    H133004   5.361   5.176   7.024  0.9094  0.0298  2.6460
 3815TIP3    H233005   5.416   5.277   6.925  2.0846 -2.3920  0.7261
 3816TIP3   OH233006   5.350   5.486   0.973  0.2373  0.5826  0.0813
 3816TIP3    H133007   5.403   5.517   1.047 -1.6908 -0.4036  1.9945
 3816TIP3    H233008   5.396   5.410   0.940  1.4578  1.4067 -0.1826
 3817TIP3   OH233009   3.209   0.562   7.908  0.4681  0.3574  0.0549
 3817TIP3    H133010   3.143   0.564   7.838 -1.0550 -0.7647  1.3728
 3817TIP3    H233011   3.236   0.470   7.913  1.2739  0.6017  0.3041
 3818TIP3   OH233012   5.216   2.965   0.826  0.1345  0.5546 -0.3897
 3818TIP3    H133013   5.240   3.052   0.857  1.6000  0.5557 -1.4021
 3818TIP3    H233014   5.201   2.914   0.906  2.0936  0.9952  0.3114
 3819TIP3   OH233015   3.737   4.961   1.371  0.3035 -0.0360 -0.2466
 3819TIP3    H133016   3.748   4.877   1.416 -0.5807 -0.9475 -1.6179
 3819TIP3    H233017   3.687   5.015   1.432 -0.5025 -1.0872  0.0629
 3820TIP3   OH233018   3.990   5.966   7.354  0.0502  0.0104 -0.0614
 3820TIP3    H133019   4.040   6.006   7.425  1.3918 -0.0240 -0.9512
 3820TIP3    H233020   3.992   5.872   7.373  1.2302 -0.0911 -0.6330
 3821TIP3   OH233021   1.717   1.095   7.055 -0.1600 -0.2327 -0.4270
 3821TIP3    H133022   1.794   1.058   7.099  0.0294  2.6488  2.0036
 3821TIP3    H233023   1.753   1.147   6.984 -0.1415 -1.3558 -1.2634
 3822TIP3   OH233024   1.322   6.588   1.172  0.4420  0.0981 -0.0587
 3822TIP3    H133025   1.280   6.627   1.249 -1.2010 -0.8258 -0.4442
 3822TIP3    H233026   1.353   6.663   1.121  1.7886  0.7270  1.5770
 3823TIP3   OH233027   2.821   0.621   6.470 -0.0470 -0.2083 -0.2752
 3823TIP3    H133028   2.843   0.646   6.381 -3.3095  0.5528 -0.9928
 3823TIP3    H233029   2.727   0.606   6.468 -0.1733 -0.5350  2.9832
 3824TIP3   OH233030   4.778   2.632   1.264  0.6324  0.5709 -0.0819
 3824TIP3    H133031   4.776   2.568   1.335  0.9094 -1.2912 -1.6671
 3824TIP3    H233032   4.687   2.659   1.253  0.2865 -0.6157 -0.2785
 3825TIP3   OH233033   4.028   1.324   6.651  0.5385 -0.3595 -0.0038
 3825TIP3    H133034   3.980   1.395   6.610  0.3203 -1.4689 -1.7752
 3825TIP3    H233035   4.112   1.362   6.676 -0.4633  1.1008  1.3075
 3826TIP3   OH233036   6.548   0.787   1.386 -0.0045 -0.0054  0.4079
 3826TIP3    H133037   6.591   0.796   1.300 -1.5590 -0.9706 -0.5217
 3826TIP3    H233038   6.610   0.738   1.439  1.1402  0.9146 -0.0337
 3827TIP3   OH233039   2.287   0.962   7.249  0.7165 -0.1820  0.5913
 3827TIP3    H133040   2.378   0.950   7.277  0.5043 -1.2410  0.8879
 3827TIP3    H233041   2.264   1.049   7.282  0.9877 -0.7260  2.3610
 3828TIP3   OH233042   4.429   4.544   1.676  0.2429 -0.0928  0.4538
 3828TIP3    H133043   4.404   4.608   1.742  0.0611  0.5707 -0.2411
 3828TIP3    H233044   4.391   4.461   1.707  0.0983  0.2229  1.1313
 3829TIP3   OH233045   0.134   5.380   1.489 -0.1694  0.0820  0.4019
 3829TIP3    H133046   0.168   5.371   1.400 -0.7758  0.3491  0.1360
 3829TIP3    H233047   0.205   5.350   1.545  0.0484 -0.5389 -0.1912
 3830TIP3   OH233048   4.823   0.943   1.511  0.0730 -0.3989  0.8154
 3830TIP3    H133049   4.825   1.038   1.523  0.7865 -0.5120  1.6661
 3830TIP3    H233050   4.865   0.929   1.426 -1.8341  0.1571 -0.3096
 3831TIP3   OH233051   0.770   4.568   6.841 -0.0878  0.2329  0.4203
 3831TIP3    H133052   0.685   4.609   6.860 -0.2234 -0.2523  0.8908
 3831TIP3    H233053   0.833   4.617   6.893  0.0108  0.9683 -0.3767
 3832TIP3   OH233054   3.222   3.004   6.642 -0.8713  1.0543 -0.7178
 3832TIP3    H133055   3.298   2.986   6.586 -0.5740  0.6331 -0.1820
 3832TIP3    H233056   3.259   3.032   6.725 -1.2717 -0.2734 -0.0645
 3833TIP3   OH233057   2.510   6.480   7.514 -0.3341  0.0838  0.3639
 3833TIP3    H133058   2.492   6.386   7.521  1.2100 -0.6084 -2.8502
 3833TIP3    H233059   2.477   6.504   7.427  0.4425  2.1973  0.5974
 3834TIP3   OH233060   2.811   3.580   6.676  0.3765 -0.3481  0.3144
 3834TIP3    H133061   2.737   3.574   6.736 -0.2812  0.9996 -0.3147
 3834TIP3    H233062   2.791   3.519   6.605  0.2965 -0.6252  0.5740
 3835TIP3   OH233063   3.908   0.553   6.150 -0.4905 -0.0515  0.3907
 3835TIP3    H133064   3.887   0.621   6.213  0.5670 -1.0225  1.8596
 3835TIP3    H233065   3.832   0.549   6.092 -0.4789  2.5199  0.0951
 3836TIP3   OH233066   2.036   3.047   7.325 -0.1000  0.3256 -0.3800
 3836TIP3    H133067   2.096   3.069   7.396  0.5977  0.5996 -1.0480
 3836TIP3    H233068   2.089   3.051   7.246 -1.4149  2.6812 -1.2586
 3837TIP3   OH233069   5.916   1.012   1.091  0.0578  0.3078 -0.3086
 3837TIP3    H133070   5.841   1.070   1.105 -0.6020 -0.8710  1.3576
 3837TIP3    H233071   5.981   1.042   1.154 -0.1543 -0.4890  0.3113
 3838TIP3   OH233072   6.622   3.290   7.217 -0.2195 -0.4364 -0.1395
 3838TIP3    H133073   6.630   3.369   7.164 -1.3680 -0.0207  0.2727
 3838TIP3    H233074   6.612   3.219   7.154  0.9536 -0.2889 -0.5158
 3839TIP3   OH233075   1.271   1.255   7.831 -0.5542 -0.1133 -0.4751
 3839TIP3    H133076   1.190   1.206   7.844 -1.1770  1.1076  0.4843
 3839TIP3    H233077   1.246   1.329   7.776 -0.3678  0.8651  0.7047
 3840TIP3   OH233078   6.108   4.568   0.679  0.3558 -0.3073 -0.1132
 3840TIP3    H133079   6.030   4.513   0.683 -0.0449  0.1593 -1.3386
 3840TIP3    H233080   6.086   4.638   0.618  1.6344 -0.0042 -0.2589
 3841TIP3   OH233081   6.717   2.588   8.554 -0.5329  0.3658 -0.5916
 3841TIP3    H133082   6.769   2.661   8.587  2.4608 -1.3384 -1.1390
 3841TIP3    H233083   6.660   2.627   8.488  2.0772  2.1031 -2.0146
 3842TIP3   OH233084   3.782   4.700   5.981 -0.2250  0.3508  0.5530
 3842TIP3    H133085   3.739   4.657   5.907  0.9764 -1.3721  0.7935
 3842TIP3    H233086   3.819   4.780   5.945 -1.5148  0.6383 -0.1852
 3843TIP3   OH233087   4.948   5.391   1.459  0.4734 -0.0580  0.9910
 3843TIP3    H133088   5.025   5.433   1.498  1.4773  0.3924 -1.2960
 3843TIP3    H233089   4.885   5.463   1.448 -0.4864 -0.4806  3.1432
 3844TIP3   OH233090   1.944   2.371   6.987 -0.1043  0.2892 -0.0694
 3844TIP3    H133091   1.858   2.391   6.951  0.6638 -0.6443 -2.6599
 3844TIP3    H233092   1.977   2.454   7.020 -1.5199  0.8756 -0.0922
 3845TIP3   OH233093   3.757   5.590   8.229 -0.1851 -0.3017 -0.1735
 3845TIP3    H133094   3.708   5.671   8.241 -0.4974 -0.5679  0.3425
 3845TIP3    H233095   3.692   5.527   8.200 -0.0742 -0.5544  0.1293
 3846TIP3   OH233096   4.133   2.112   6.274  0.0358 -0.4406 -0.8876
 3846TIP3    H133097   4.221   2.110   6.236  0.1311 -0.1534 -0.6865
 3846TIP3    H233098   4.075   2.120   6.198  0.1180 -1.5772 -1.0910
 3847TIP3   OH233099   2.950   0.274   8.386 -0.6835 -0.2877  0.1933
 3847TIP3    H133100   2.912   0.186   8.382 -3.3912  0.8263 -1.4505
 3847TIP3    H233101   3.022   0.272   8.323 -0.2439 -1.4933  0.6993
 3848TIP3   OH233102   0.358   1.783   6.101 -0.1476 -0.0161  0.2082
 3848TIP3    H133103   0.446   1.755   6.125  0.3989  0.3299 -1.3034
 3848TIP3    H233104   0.358   1.878   6.116  0.3451  0.2817 -1.4347
 3849TIP3   OH233105   3.897   1.909   7.706  0.3341 -0.0852  0.1660
 3849TIP3    H133106   3.830   1.889   7.640 -1.2716  4.3647  0.1239
 3849TIP3    H233107   3.849   1.908   7.789  0.8745  0.4254  0.4922
 3850TIP3   OH233108   0.418   2.678   6.815  0.0851 -0.4050  0.1561
 3850TIP3    H133109   0.438   2.585   6.804  1.3894 -0.0554 -0.5719
 3850TIP3    H233110   0.494   2.724   6.779 -0.0347  0.9434  1.5189
 3851TIP3   OH233111   0.322   2.403   7.693  0.2223 -0.0262 -0.1505
 3851TIP3    H133112   0.378   2.365   7.761 -1.9461 -0.7286  1.3573
 3851TIP3    H233113   0.354   2.492   7.681  0.0176  0.5042  2.6522
 3852TIP3   OH233114   3.628   4.932   7.209  0.9091  0.3711 -0.3630
 3852TIP3    H133115   3.535   4.913   7.195  1.3310 -0.9429 -1.5720
 3852TIP3    H233116   3.635   4.941   7.304 -0.5245  0.9752 -0.2769
 3853TIP3   OH233117   4.653   6.196   1.397  0.9756 -0.4720 -0.2371
 3853TIP3    H133118   4.564   6.228   1.386  0.7774 -0.5155  0.9986
 3853TIP3    H233119   4.689   6.193   1.309  0.0795  0.4672 -0.6547
 3854TIP3   OH233120   2.780   3.787   7.149 -0.2272 -0.3380 -0.2282
 3854TIP3    H133121   2.777   3.742   7.233  0.0785 -0.1002 -0.0898
 3854TIP3    H233122   2.693   3.773   7.112 -0.4208 -0.2907  0.2036
 3855TIP3   OH233123   6.646   3.774   0.041 -0.4623 -0.1524 -0.0606
 3855TIP3    H133124   6.676   3.719   0.114  0.0858 -0.4539 -0.5059
 3855TIP3    H233125   6.726   3.806   0.000 -0.7719  0.8968  0.1183
 3856TIP3   OH233126   5.440   2.078   7.538  0.2797 -0.2702  0.4244
 3856TIP3    H133127   5.440   2.066   7.443 -1.6015 -1.8598  0.5485
 3856TIP3    H233128   5.528   2.108   7.558  1.4909 -2.1084 -1.5889
 3857TIP3   OH233129   0.988   1.230   7.802 -0.4606 -0.4088  0.0634
 3857TIP3    H133130   0.896   1.227   7.777  0.0642 -0.2776 -2.0050
 3857TIP3    H233131   1.030   1.280   7.733  1.3512 -1.3767  0.4162
 3858TIP3   OH233132   6.222   5.349   7.757 -0.5455 -0.3037  0.0957
 3858TIP3    H133133   6.245   5.437   7.784  0.3733 -0.6902  0.6257
 3858TIP3    H233134   6.242   5.346   7.663 -3.0999  0.8303 -0.5941
 3859TIP3   OH233135   1.175   0.180   6.627 -0.1399 -0.0418 -0.2968
 3859TIP3    H133136   1.188   0.143   6.540  1.9528 -0.9559  0.3390
 3859TIP3    H233137   1.180   0.105   6.687 -0.7025  0.6703  0.6806
 3860TIP3   OH233138   5.163   0.502   1.596 -0.4333  0.2378  1.0660
 3860TIP3    H133139   5.196   0.577   1.546 -1.8361  0.7812  0.8901
 3860TIP3    H233140   5.091   0.469   1.543 -0.8805 -0.2163  1.9369
 3861TIP3   OH233141   6.359   6.329   0.662  0.2492  0.1707 -0.5719
 3861TIP3    H133142   6.399   6.334   0.749 -1.7447 -0.7430  0.4648
 3861TIP3    H233143   6.341   6.420   0.639 -0.1545  0.3765  0.4743
 3862TIP3   OH233144   2.864   5.065   1.522 -0.6599 -0.1245  0.2586
 3862TIP3    H133145   2.860   4.976   1.557  2.4426 -0.8204 -0.8656
 3862TIP3    H233146   2.842   5.121   1.597  2.1468 -1.6830  2.4428
 3863TIP3   OH233147   3.515   4.085   0.218 -0.2341 -0.0125  0.1940
 3863TIP3    H133148   3.607   4.072   0.240  0.0586 -0.3408 -1.1556
 3863TIP3    H233149   3.513   4.171   0.176  0.0920 -1.3534 -2.8499
 3864TIP3   OH233150   1.740   4.974   1.020  0.5590 -0.3863  0.1855
 3864TIP3    H133151   1.648   4.999   1.021  0.6758  0.2061 -1.3806
 3864TIP3    H233152   1.787   5.053   1.044  0.8504  0.6911 -3.3984
 3865TIP3   OH233153   2.867   2.341   8.365 -0.4520  0.6059  0.1760
 3865TIP3    H133154   2.920   2.330   8.286 -0.1581  1.1062  0.3015
 3865TIP3    H233155   2.789   2.287   8.350 -0.3933  0.6960 -0.4450
 3866TIP3   OH233156   0.091   2.608   7.697  0.0148  0.1264  0.1518
 3866TIP3    H133157   0.153   2.652   7.639  3.3365 -1.2700  2.3350
 3866TIP3    H233158   0.105   2.515   7.681  0.9596 -0.3067  2.9235
 3867TIP3   OH233159   6.884   4.891   1.100 -0.3963  0.1526 -0.2205
 3867TIP3    H133160   6.972   4.912   1.134 -0.4215  1.2642 -0.7923
 3867TIP3    H233161   6.831   4.876   1.178  0.1592  0.1233  0.1557
 3868TIP3   OH233162   3.856   2.870   2.125 -0.1742  0.0565  0.2511
 3868TIP3    H133163   3.785   2.928   2.154  0.0517 -0.1209  1.1970
 3868TIP3    H233164   3.827   2.782   2.150  0.4672  0.0052  0.8473
 3869TIP3   OH233165   1.554   4.528   0.017  0.1323  0.0190 -0.0146
 3869TIP3    H133166   1.507   4.462   0.068 -0.4027 -0.3717 -0.9883
 3869TIP3    H233167   1.594   4.586   0.082  0.7440 -1.3512  0.8625
 3870TIP3   OH233168   5.121   3.653   0.618 -0.4328  0.2517 -0.0750
 3870TIP3    H133169   5.135   3.692   0.704 -2.8991 -0.9356  0.9585
 3870TIP3    H233170   5.176   3.575   0.618 -0.4422  0.2420  0.4528
 3871TIP3   OH233171   0.902   0.030   0.444 -0.0658 -0.0856 -0.4434
 3871TIP3    H133172   0.851   0.045   0.524 -1.5219  0.4484 -1.4434
 3871TIP3    H233173   0.934  -0.060   0.453 -2.3753 -0.9743 -0.3784
 3872TIP3   OH233174   6.370   4.639   7.727  0.2520  0.5856  0.1173
 3872TIP3    H133175   6.455   4.607   7.696  0.8461  2.9465 -0.9448
 3872TIP3    H233176   6.315   4.636   7.649 -0.7558 -1.0625  0.8352
 3873TIP3   OH233177   5.608   1.721   6.864 -0.1546  0.1327 -0.4831
 3873TIP3    H133178   5.602   1.763   6.778  0.1889 -0.0362 -0.5918
 3873TIP3    H233179   5.557   1.641   6.855 -0.7757  0.4963 -0.2890
 3874TIP3   OH233180   5.012   5.071   0.578  0.0112 -0.8359  0.0149
 3874TIP3    H133181   4.989   5.121   0.499  0.0379 -1.7705 -0.6104
 3874TIP3    H233182   4.985   5.127   0.651  1.1259  0.5924 -0.6252
 3875TIP3   OH233183   5.701   3.620   8.391  0.0238 -0.0693 -0.4932
 3875TIP3    H133184   5.687   3.711   8.416  0.1153  0.0405 -0.8380
 3875TIP3    H233185   5.675   3.570   8.468 -1.6207  0.1559 -0.8647
 3876TIP3   OH233186   0.834   6.884   1.534  0.4855  0.2754 -0.0714
 3876TIP3    H133187   0.880   6.955   1.579 -1.3260  0.3540  1.8108
 3876TIP3    H233188   0.795   6.927   1.458 -1.1343  1.5735  1.3805
 3877TIP3   OH233189   6.047   3.854   7.928  0.3945  0.5573 -0.3466
 3877TIP3    H133190   6.132   3.816   7.953 -0.6554 -0.1841  2.5003
 3877TIP3    H233191   6.066   3.907   7.851  3.4595  0.4591  0.2228
 3878TIP3   OH233192   5.145   2.223   8.076 -0.4071  0.3150 -0.1320
 3878TIP3    H133193   5.126   2.143   8.026  2.0802  0.9325 -2.3264
 3878TIP3    H233194   5.220   2.200   8.131  1.8355  1.5572 -2.4422
 3879TIP3   OH233195   1.846   0.554   0.310 -0.2281  0.9455  0.5256
 3879TIP3    H133196   1.837   0.643   0.344 -2.3896  0.8861  0.2577
 3879TIP3    H233197   1.815   0.498   0.381  0.3970  0.4556  0.4159
 3880TIP3   OH233198   0.847   5.393   1.388 -0.1783  1.3383 -0.1283
 3880TIP3    H133199   0.890   5.449   1.452  0.4645  0.4264  0.2495
 3880TIP3    H233200   0.918   5.352   1.339 -0.5727 -0.3738  0.6612
 3881TIP3   OH233201   1.350   5.615   1.886 -0.0456 -0.2115 -0.0450
 3881TIP3    H133202   1.352   5.552   1.958  0.3594  0.6647  0.7254
 3881TIP3    H233203   1.383   5.697   1.924  1.0704  0.0350 -1.4577
 3882TIP3   OH233204   6.014   6.528   1.679  0.3083  0.6100 -0.4196
 3882TIP3    H133205   5.997   6.604   1.736 -2.1789 -0.1142 -0.0445
 3882TIP3    H233206   5.963   6.547   1.600  1.9739  0.5890 -1.5425
 3883TIP3   OH233207   1.428   3.300   2.084  0.0246 -0.1077  0.3079
 3883TIP3    H133208   1.497   3.248   2.042 -0.3028 -2.1950  2.1463
 3883TIP3    H233209   1.468   3.386   2.097  2.3418 -1.2209  1.2682
 3884TIP3   OH233210   4.613   2.236   1.255 -0.6020  0.4504 -0.0986
 3884TIP3    H133211   4.561   2.316   1.260 -0.7482  0.5364 -2.2337
 3884TIP3    H233212   4.699   2.261   1.289 -0.3450  1.8311 -1.6250
 3885TIP3   OH233213   5.215   4.134   0.378  1.5992  0.2175  0.2794
 3885TIP3    H133214   5.208   4.161   0.470 -0.7290 -0.3116  0.3391
 3885TIP3    H233215   5.221   4.038   0.382  0.1404  0.0776 -0.0925
 3886TIP3   OH233216   6.007   2.748   7.371  0.2053 -0.2449 -0.1993
 3886TIP3    H133217   6.066   2.785   7.305 -0.8826  0.6245 -0.7217
 3886TIP3    H233218   6.013   2.653   7.358  1.3744 -0.1592 -0.3337
 3887TIP3   OH233219   4.280   1.371   6.770  1.1742 -0.7041 -0.2002
 3887TIP3    H133220   4.313   1.289   6.807  1.8537  0.1542  1.2137
 3887TIP3    H233221   4.209   1.397   6.829  1.3561 -0.0040 -0.2802
 3888TIP3   OH233222   5.789   5.969   7.675 -0.0329  0.2618  0.0920
 3888TIP3    H133223   5.860   5.948   7.735  0.6692 -0.1920 -0.8660
 3888TIP3    H233224   5.766   6.060   7.694  2.1357  1.0755 -0.8612
 3889TIP3   OH233225   2.130   1.639   2.086  0.6959 -0.3456 -0.6478
 3889TIP3    H133226   2.055   1.657   2.030  0.3625  1.6751  0.3576
 3889TIP3    H233227   2.206   1.670   2.036  0.4047  1.4015 -0.0825
 3890TIP3   OH233228   3.714   6.326   7.557  0.8164 -0.0948  0.1931
 3890TIP3    H133229   3.648   6.258   7.543  0.6069 -0.3934  2.3464
 3890TIP3    H233230   3.663   6.406   7.571  1.0193  0.1998 -0.6669
 3891TIP3   OH233231   5.741   2.946   7.019 -0.5635 -0.2461  0.3809
 3891TIP3    H133232   5.753   2.905   7.105 -3.2554 -1.0779  0.4370
 3891TIP3    H233233   5.742   2.873   6.958  0.0275  0.2170 -0.1799
 3892TIP3   OH233234   0.851   3.022   6.698 -0.0607 -0.4548 -0.4591
 3892TIP3    H133235   0.811   3.091   6.646  0.9043  0.1053 -0.4883
 3892TIP3    H233236   0.896   3.068   6.769 -0.0021 -1.0962 -0.0749
 3893TIP3   OH233237   0.215   0.883   8.064 -0.4432 -0.5834  0.3255
 3893TIP3    H133238   0.156   0.938   8.115 -1.0864 -2.0203  1.2003
 3893TIP3    H233239   0.161   0.848   7.993 -0.0329 -0.0845 -0.2420
 3894TIP3   OH233240   4.555   1.986   1.443  0.3086  0.5968 -0.0439
 3894TIP3    H133241   4.472   1.955   1.406 -0.4031  2.9298 -0.5878
 3894TIP3    H233242   4.564   2.076   1.410  1.5143  1.4962  2.4551
 3895TIP3   OH233243   0.463   0.287   8.213 -0.3841 -0.3511 -0.0324
 3895TIP3    H133244   0.486   0.299   8.121  0.2177 -2.1482 -0.1582
 3895TIP3    H233245   0.376   0.249   8.212 -0.8655  0.7116  0.2079
 3896TIP3   OH233246   6.175   2.026   7.369 -0.1527 -0.0375  0.2156
 3896TIP3    H133247   6.113   1.963   7.334 -0.4196  0.0382  0.5458
 3896TIP3    H233248   6.185   2.001   7.461 -0.9185  0.9199  0.5723
 3897TIP3   OH233249   2.322   6.425   2.004  0.2226 -0.1227 -0.1301
 3897TIP3    H133250   2.350   6.517   1.996 -1.2352  0.5558  1.7543
 3897TIP3    H233251   2.247   6.418   1.944 -0.3173  0.2341  0.4903
 3898TIP3   OH233252   0.154   6.088   1.950  0.3295  0.4604  0.4462
 3898TIP3    H133253   0.184   6.116   2.037 -0.0544  1.9278  0.1403
 3898TIP3    H233254   0.180   5.996   1.944 -0.6304  0.0009  2.5396
 3899TIP3   OH233255   2.454   2.941   7.348  0.1725  0.4334  0.5029
 3899TIP3    H133256   2.492   2.865   7.394  1.5490  1.8125  1.7666
 3899TIP3    H233257   2.381   2.968   7.404 -0.3790  0.0071  0.0011
 3900TIP3   OH233258   0.135   2.912   6.311  0.0122 -0.3415 -0.3066
 3900TIP3    H133259   0.153   2.906   6.217  0.3578  0.8105 -0.3274
 3900TIP3    H233260   0.048   2.874   6.321  0.0801 -0.7157 -1.0502
 3901TIP3   OH233261   3.136   1.255   0.946  0.5088 -0.0283 -0.2545
 3901TIP3    H133262   3.225   1.262   0.981  0.7363 -0.7998 -0.6651
 3901TIP3    H233263   3.127   1.328   0.886  0.0622  1.4216  1.4995
 3902TIP3   OH233264   0.722   4.835   7.010  0.2304 -0.5221  0.4314
 3902TIP3    H133265   0.755   4.886   6.937  1.2033 -0.7782  0.6865
 3902TIP3    H233266   0.643   4.792   6.975  1.2099 -1.4155 -0.7819
 3903TIP3   OH233267   5.250   2.797   1.594 -0.3836  0.3279 -0.7641
 3903TIP3    H133268   5.168   2.787   1.546 -0.2689 -0.7516 -0.7494
 3903TIP3    H233269   5.292   2.712   1.589  2.1085  1.5452 -3.1859
 3904TIP3   OH233270   3.119   2.764   7.624  0.3764  0.4232 -0.0772
 3904TIP3    H133271   3.202   2.810   7.612  0.1924  0.5536 -0.8626
 3904TIP3    H233272   3.113   2.704   7.550  0.6220 -0.9095  0.9461
 3905TIP3   OH233273   6.132   2.912   7.637  1.0681  0.9581 -0.3631
 3905TIP3    H133274   6.225   2.936   7.638  1.5566 -0.7996  0.6961
 3905TIP3    H233275   6.132   2.817   7.649 -0.9173  1.0861  1.1007
 3906TIP3   OH233276   1.039   1.865   0.509  0.4130 -0.2126 -0.0341
 3906TIP3    H133277   0.979   1.790   0.505 -1.1271  0.9672 -0.1167
 3906TIP3    H233278   1.002   1.920   0.578  1.3351  0.6269 -0.2046
 3907TIP3   OH233279   6.046   6.027   2.497 -0.1446  0.2480 -0.1714
 3907TIP3    H133280   6.061   6.019   2.403 -0.4404 -0.0225 -0.1957
 3907TIP3    H233281   6.115   6.086   2.527  1.6745 -1.7424 -0.1156
 3908TIP3   OH233282   5.177   5.200   8.206  0.5253 -0.3966 -0.1851
 3908TIP3    H133283   5.245   5.141   8.175 -0.2716 -2.0324  1.0441
 3908TIP3    H233284   5.112   5.201   8.135  1.4116  0.5362 -1.0126
 3909TIP3   OH233285   2.235   4.429   2.293  0.1943 -0.0279 -0.1323
 3909TIP3    H133286   2.243   4.437   2.198 -0.0808  1.2514 -0.0759
 3909TIP3    H233287   2.234   4.335   2.310  0.3668 -0.2712 -1.3835
 3910TIP3   OH233288   2.601   3.470   0.910 -0.5231  0.0036  0.2194
 3910TIP3    H133289   2.669   3.407   0.935  0.5755  0.7326 -0.8249
 3910TIP3    H233290   2.621   3.549   0.959 -1.7861 -0.3414  1.3707
 3911TIP3   OH233291   1.150   1.196   6.868 -0.2466  0.2670  0.4187
 3911TIP3    H133292   1.227   1.143   6.846 -0.2227  0.1412  0.8053
 3911TIP3    H233293   1.087   1.135   6.905 -0.5335  0.3722  0.1098
 3912TIP3   OH233294   6.791   5.269   8.377 -0.8597  0.3010 -0.2894
 3912TIP3    H133295   6.837   5.344   8.417 -1.9768  0.8563 -0.0133
 3912TIP3    H233296   6.861   5.217   8.337  0.2340  0.1974  1.6010
 3913TIP3   OH233297   3.852   1.662   1.141  0.5809  0.1273  0.5310
 3913TIP3    H133298   3.818   1.750   1.156  1.6046  0.5700  0.3373
 3913TIP3    H233299   3.800   1.606   1.198 -0.5023  0.7682  0.2032
 3914TIP3   OH233300   2.020   6.080   6.838  0.1909  0.2779 -0.0692
 3914TIP3    H133301   2.091   6.053   6.897  1.8660  0.9773 -1.6841
 3914TIP3    H233302   2.000   6.002   6.787 -0.4116  0.0151  0.5442
 3915TIP3   OH233303   2.022   0.328   6.277 -0.3155 -0.2377  0.3912
 3915TIP3    H133304   1.987   0.417   6.287  2.1469  1.1239 -1.8030
 3915TIP3    H233305   1.984   0.296   6.195 -1.8993 -1.6672  1.6172
 3916TIP3   OH233306   0.272   1.925   1.205 -0.1553  0.2621 -0.0669
 3916TIP3    H133307   0.264   1.890   1.116  1.4883  0.8317 -0.4755
 3916TIP3    H233308   0.182   1.934   1.236 -0.7281 -2.6330 -0.5724
 3917TIP3   OH233309   5.805   2.754   2.138  0.4781 -0.2345  0.0342
 3917TIP3    H133310   5.855   2.759   2.219 -0.7127  0.8972  0.7290
 3917TIP3    H233311   5.727   2.704   2.161  0.3636 -0.3261 -0.5447
 3918TIP3   OH233312   2.882   5.265   8.296 -0.4586 -0.1794  0.6408
 3918TIP3    H133313   2.806   5.224   8.338 -1.5835  0.6195 -0.5571
 3918TIP3    H233314   2.897   5.345   8.347  1.8271 -1.9722  3.0723
 3919TIP3   OH233315   4.539   4.328   8.157  0.1033 -0.4338 -0.4968
 3919TIP3    H133316   4.607   4.382   8.116 -0.0915 -0.9709 -1.5634
 3919TIP3    H233317   4.536   4.249   8.104 -2.1675  0.0498 -1.2126
 3920TIP3   OH233318   1.389   0.173   8.397 -0.3813  0.3495  0.7528
 3920TIP3    H133319   1.370   0.242   8.334  0.1160 -0.6031 -0.4770
 3920TIP3    H233320   1.459   0.209   8.451  2.2524 -0.3144 -1.9676
 3921TIP3   OH233321   4.739   6.810   6.691 -0.6658  0.3273  0.2557
 3921TIP3    H133322   4.654   6.822   6.647  0.0281  0.3242 -1.1391
 3921TIP3    H233323   4.787   6.749   6.634  0.4758  0.7542  0.7375
 3922TIP3   OH233324   2.976   2.143   1.924 -0.2458 -0.6667  0.2535
 3922TIP3    H133325   3.016   2.057   1.909 -0.6458 -0.6314 -1.0809
 3922TIP3    H233326   3.018   2.174   2.004  1.9846 -0.9065 -0.7374
 3923TIP3   OH233327   5.350   1.853   8.213  0.6642 -0.3507 -0.1048
 3923TIP3    H133328   5.357   1.940   8.251  0.8031  0.0909 -1.0909
 3923TIP3    H233329   5.408   1.855   8.137  2.1555 -1.9258  0.9043
 3924TIP3   OH233330   4.755   2.827   2.459 -0.0680 -0.0640 -0.2494
 3924TIP3    H133331   4.709   2.787   2.533 -0.7197  0.7214 -0.2208
 3924TIP3    H233332   4.829   2.873   2.499  0.2029 -0.5276 -0.2023
 3925TIP3   OH233333   5.740   6.109   0.516  0.7937  0.2070 -0.6004
 3925TIP3    H133334   5.694   6.136   0.595 -0.5479  1.9559 -1.9075
 3925TIP3    H233335   5.675   6.063   0.464  1.2369  0.4063 -1.3470
 3926TIP3   OH233336   6.668   6.353   7.696 -0.3459 -0.4223 -0.0699
 3926TIP3    H133337   6.655   6.376   7.604  0.4781 -0.4944 -0.2154
 3926TIP3    H233338   6.587   6.379   7.739  0.6673  3.3597 -0.0860
 3927TIP3   OH233339   3.764   5.260   7.793  0.7439  0.4856 -0.3039
 3927TIP3    H133340   3.727   5.346   7.810  2.2640  0.7824  1.8544
 3927TIP3    H233341   3.688   5.203   7.778 -0.3164  1.9464 -0.6637
 3928TIP3   OH233342   2.041   6.090   0.452  0.0648  1.1697 -0.5176
 3928TIP3    H133343   2.068   6.035   0.379  2.6473  1.9847 -0.2695
 3928TIP3    H233344   2.037   6.031   0.527 -2.2943  0.3926 -1.1853
 3929TIP3   OH233345   6.184   6.004   7.611 -0.2568  0.0570  0.4542
 3929TIP3    H133346   6.133   5.971   7.685 -1.7836  0.5048 -0.3602
 3929TIP3    H233347   6.238   6.073   7.648  0.1109 -0.7284  1.4319
 3930TIP3   OH233348   4.703   1.888   8.311 -0.5487 -0.1159  0.5780
 3930TIP3    H133349   4.617   1.869   8.272 -0.8906  0.0522  1.2307
 3930TIP3    H233350   4.741   1.955   8.254 -0.9864  0.0384  0.4635
 3931TIP3   OH233351   3.539   3.564   8.382  0.2115 -0.0263  0.2152
 3931TIP3    H133352   3.597   3.500   8.340  1.1921  0.9133  0.1175
 3931TIP3    H233353   3.549   3.644   8.330 -2.3976 -0.2400 -0.8172
 3932TIP3   OH233354   2.460   4.990   1.294  0.5261 -0.5234 -0.4266
 3932TIP3    H133355   2.495   5.029   1.374 -0.5601 -3.0234  1.3874
 3932TIP3    H233356   2.399   5.056   1.261  0.9250  0.5327  0.8379
 3933TIP3   OH233357   2.488   6.802   1.566  0.7870  0.2111 -0.2244
 3933TIP3    H133358   2.432   6.725   1.572  1.4770 -0.2866 -0.0808
 3933TIP3    H233359   2.539   6.801   1.647  0.4509  1.1017  0.0120
 3934TIP3   OH233360   1.625   6.715   1.360  0.1831  0.1234 -0.3870
 3934TIP3    H133361   1.604   6.715   1.453 -0.0805  0.0742 -0.4465
 3934TIP3    H233362   1.599   6.802   1.329 -1.3386 -0.4262 -0.7712
 3935TIP3   OH233363   1.142   1.732   1.719  0.1080 -0.2360 -0.2597
 3935TIP3    H133364   1.136   1.771   1.806 -0.1943  2.8627 -1.5654
 3935TIP3    H233365   1.076   1.662   1.720 -0.8313  0.6126  1.6031
 3936TIP3   OH233366   0.447   6.657   6.869 -0.4629  0.3558  0.3428
 3936TIP3    H133367   0.511   6.587   6.884 -1.1441 -0.1689  0.8358
 3936TIP3    H233368   0.379   6.616   6.816 -0.3734  0.9296 -0.2265
 3937TIP3   OH233369   1.362   4.317   8.315  0.1245 -0.2757  0.2564
 3937TIP3    H133370   1.303   4.390   8.338 -0.6511 -1.2375  1.4461
 3937TIP3    H233371   1.304   4.252   8.274  0.4835 -0.9391  0.7891
 3938TIP3   OH233372   6.203   3.318   1.673  0.2617 -0.3730 -0.2803
 3938TIP3    H133373   6.150   3.353   1.601  0.3226 -0.4570 -0.3664
 3938TIP3    H233374   6.140   3.301   1.743  0.3444  0.7523  0.0934
 3939TIP3   OH233375   5.579   4.350   0.440  0.3810  0.1066 -0.4620
 3939TIP3    H133376   5.508   4.381   0.384 -1.0944 -1.0015  0.6887
 3939TIP3    H233377   5.632   4.427   0.457 -0.2692  0.8665 -1.7522
 3940TIP3   OH233378   2.089   6.219   0.837 -0.2028  0.3086  0.0403
 3940TIP3    H133379   2.033   6.168   0.778  0.2513 -0.8940  0.6171
 3940TIP3    H233380   2.035   6.294   0.861 -1.4457 -0.6108  0.2781
 3941TIP3   OH233381   4.764   0.012   8.200 -0.6268  0.2111  0.1717
 3941TIP3    H133382   4.705  -0.063   8.189 -0.1255  0.0013 -1.1481
 3941TIP3    H233383   4.789   0.008   8.293  0.5866 -2.1557 -0.1765
 3942TIP3   OH233384   4.014   0.932   8.381  0.1761 -0.3549 -0.1433
 3942TIP3    H133385   4.028   0.963   8.292  0.0433  0.0515 -0.0244
 3942TIP3    H233386   4.066   0.991   8.436 -1.5681  0.8967  0.2667
 3943TIP3   OH233387   0.547   1.168   1.773  0.2886  0.3420  0.2241
 3943TIP3    H133388   0.633   1.146   1.807  0.1536 -0.6605 -0.0477
 3943TIP3    H233389   0.488   1.108   1.817 -0.0851  0.0413 -0.6598
 3944TIP3   OH233390   5.806   2.465   8.607  0.4735  0.5893 -0.5597
 3944TIP3    H133391   5.749   2.539   8.627  0.0415  0.3737 -0.9681
 3944TIP3    H233392   5.746   2.393   8.587  0.8863  0.2885 -0.7439
 3945TIP3   OH233393   0.077   5.586   0.543 -0.3417  0.0233  0.6422
 3945TIP3    H133394  -0.016   5.604   0.529 -0.4890 -0.4536  0.9710
 3945TIP3    H233395   0.088   5.587   0.638  0.0195  0.2204  0.5997
 3946TIP3   OH233396   2.224   5.421   0.723 -0.0543  0.5229  0.6293
 3946TIP3    H133397   2.315   5.409   0.695 -0.5214  0.2697 -0.8646
 3946TIP3    H233398   2.211   5.516   0.723  0.1322  0.5491  0.6306
 3947TIP3   OH233399   3.747   5.965   6.861  0.4343 -0.1527 -0.2432
 3947TIP3    H133400   3.671   6.012   6.829 -0.2852 -0.2351  1.2297
 3947TIP3    H233401   3.711   5.888   6.906  1.3993 -0.4320  0.0927
 3948TIP3   OH233402   6.234   4.945   0.521  0.1046 -0.3394  0.4618
 3948TIP3    H133403   6.310   4.931   0.465  0.4022 -0.1186  0.8092
 3948TIP3    H233404   6.237   5.038   0.543 -0.0676 -0.4044  0.7598
 3949TIP3   OH233405   0.795   5.991   8.490  0.7219 -0.3032  0.4118
 3949TIP3    H133406   0.790   6.005   8.395  0.7964 -1.4913  0.2170
 3949TIP3    H233407   0.810   6.079   8.526  1.5366  0.0625 -0.7330
 3950TIP3   OH233408   0.728   5.310   1.612 -0.0149  0.4034 -0.3454
 3950TIP3    H133409   0.768   5.325   1.526  0.9695  0.5920  0.1387
 3950TIP3    H233410   0.713   5.216   1.615  0.5008  0.3182 -0.4783
 3951TIP3   OH233411   3.858   4.417   0.377  0.5078 -0.4721  0.2980
 3951TIP3    H133412   3.792   4.440   0.312  0.3338 -1.1979  0.2180
 3951TIP3    H233413   3.935   4.393   0.325  0.5742 -0.4280  0.3754
 3952TIP3   OH233414   6.569   3.153   6.640 -0.5078  0.3770  0.0050
 3952TIP3    H133415   6.591   3.164   6.732 -0.0761 -0.0097 -0.0474
 3952TIP3    H233416   6.566   3.058   6.626 -1.8556  0.4132 -0.0854
 3953TIP3   OH233417   6.353   0.712   7.996 -0.0203  0.0482  0.0968
 3953TIP3    H133418   6.416   0.750   8.057 -1.1346  2.1456 -0.0020
 3953TIP3    H233419   6.268   0.742   8.027 -0.9516 -1.9882 -0.3068
 3954TIP3   OH233420   4.328   0.924   0.997 -0.3768 -0.3588 -0.4105
 3954TIP3    H133421   4.315   0.891   1.086  1.3924 -0.2089 -0.0421
 3954TIP3    H233422   4.389   0.998   1.008 -0.9036  0.2889 -1.6521
 3955TIP3   OH233423   1.503   5.775   7.710 -0.2476  0.4592 -0.1048
 3955TIP3    H133424   1.415   5.738   7.713 -0.3452  0.7615  0.9690
 3955TIP3    H233425   1.526   5.773   7.617 -1.0935 -0.2986 -0.3108
 3956TIP3   OH233426   0.397   5.234   8.636  0.3877  0.1648  0.0012
 3956TIP3    H133427   0.378   5.242   8.542  0.7520  0.6817 -0.0324
 3956TIP3    H233428   0.493   5.232   8.641  0.3672 -0.0098  0.3516
 3957TIP3   OH233429   5.811   3.467   7.345  0.1508  0.2045  0.5429
 3957TIP3    H133430   5.854   3.404   7.403  1.8491 -0.3344 -1.2079
 3957TIP3    H233431   5.749   3.513   7.402  0.9793 -1.0016  2.5326
 3958TIP3   OH233432   2.391   3.657   0.999  0.5252 -0.1297 -0.1166
 3958TIP3    H133433   2.321   3.612   0.952  0.3083 -1.2370  1.2319
 3958TIP3    H233434   2.469   3.603   0.983  0.1798 -1.2636  1.8487
 3959TIP3   OH233435   5.677   1.141   8.528  0.2151  0.0311 -0.5201
 3959TIP3    H133436   5.743   1.209   8.512 -0.7907  0.9591 -0.8125
 3959TIP3    H233437   5.604   1.187   8.568  0.4957 -1.3274  1.6952
 3960TIP3   OH233438   1.951   3.493   0.121  0.1005  0.6125 -0.5385
 3960TIP3    H133439   1.857   3.502   0.103 -0.1536  0.6994  0.7272
 3960TIP3    H233440   1.972   3.404   0.094 -1.2696 -0.8699  2.7649
 3961TIP3   OH233441   4.756   5.395   2.846 -0.8366 -0.1867 -0.3762
 3961TIP3    H133442   4.762   5.423   2.755 -0.8032 -1.0751 -0.6546
 3961TIP3    H233443   4.706   5.313   2.843 -0.9978 -0.1252  0.4215
 3962TIP3   OH233444   0.321   5.202   7.729  0.6187  0.2390  0.0641
 3962TIP3    H133445   0.291   5.288   7.758  1.9805  1.1704 -1.1284
 3962TIP3    H233446   0.395   5.182   7.786  0.8088  0.2340 -0.1830
 3963TIP3   OH233447   3.532   6.703   1.172  0.6799  0.2557  0.1023
 3963TIP3    H133448   3.584   6.640   1.222 -0.0112 -0.2558  0.1900
 3963TIP3    H233449   3.591   6.734   1.104  0.4976 -1.8969 -1.1232
 3964TIP3   OH233450   1.601   0.154   0.548  0.2572  0.2785 -0.8569
 3964TIP3    H133451   1.627   0.076   0.500  1.4423 -0.7028  1.2209
 3964TIP3    H233452   1.512   0.135   0.579  1.1504 -1.0986  1.0957
 3965TIP3   OH233453   6.701   5.640   0.453  0.8810 -0.2562 -0.3070
 3965TIP3    H133454   6.736   5.703   0.390  0.8387  0.1064  0.0294
 3965TIP3    H233455   6.607   5.658   0.456  1.2891  2.0634  2.3798
 3966TIP3   OH233456   5.256   0.648   0.368  0.3196  0.1741  0.6804
 3966TIP3    H133457   5.218   0.718   0.421  0.7000  1.1397 -0.2781
 3966TIP3    H233458   5.181   0.600   0.334  0.0722 -0.5404  2.1657
 3967TIP3   OH233459   1.371   5.232   6.962 -0.1648  0.6761 -0.2613
 3967TIP3    H133460   1.374   5.314   7.012 -1.6128  1.9063 -2.0435
 3967TIP3    H233461   1.353   5.260   6.872 -3.0351 -1.7014 -0.5721
 3968TIP3   OH233462   4.776   2.373   7.802 -0.1357 -0.1270 -0.2308
 3968TIP3    H133463   4.839   2.315   7.760  1.1553  1.3981 -0.4879
 3968TIP3    H233464   4.748   2.433   7.733 -0.8170  0.0948  0.2209
 3969TIP3   OH233465   3.948   6.458   1.876 -0.1413  0.0540 -0.1771
 3969TIP3    H133466   3.982   6.461   1.787 -0.5706  2.1428 -0.3180
 3969TIP3    H233467   3.911   6.370   1.885  1.6631 -0.8797 -1.3475
 3970TIP3   OH233468   2.582   0.199   8.361 -0.2638 -0.2108  0.5310
 3970TIP3    H133469   2.612   0.251   8.435  2.2780 -2.6844  1.4543
 3970TIP3    H233470   2.620   0.241   8.284  2.8565 -1.2384  1.3717
 3971TIP3   OH233471   0.617   2.722   0.566 -0.2877 -0.0410  0.2516
 3971TIP3    H133472   0.674   2.651   0.534 -2.7349 -1.4986 -1.1880
 3971TIP3    H233473   0.625   2.718   0.661  1.9125 -0.2173  0.1186
 3972TIP3   OH233474   1.395   6.622   0.114  0.3204  0.7721 -0.0558
 3972TIP3    H133475   1.345   6.667   0.182  0.5856  1.6578 -0.4308
 3972TIP3    H233476   1.482   6.610   0.152  1.0502  2.9828 -0.8818
 3973TIP3   OH233477   1.260   0.954   8.131  0.3329 -0.0439 -0.6578
 3973TIP3    H133478   1.317   0.903   8.189  0.9918  1.2947 -0.0812
 3973TIP3    H233479   1.266   1.043   8.164 -0.7437  0.4345 -1.6752
 3974TIP3   OH233480   4.127   0.277   6.612 -0.9358  0.3177  0.3814
 3974TIP3    H133481   4.153   0.185   6.608  1.2750  0.7402  2.5301
 3974TIP3    H233482   4.091   0.296   6.525  0.9448 -1.9053 -1.0014
 3975TIP3   OH233483   0.863   3.128   7.981  0.0316 -0.2436  0.3790
 3975TIP3    H133484   0.891   3.070   7.911 -1.7336 -0.6566 -0.0499
 3975TIP3    H233485   0.899   3.090   8.061  0.9082 -0.5473 -0.1556
 3976TIP3   OH233486   2.121   6.274   1.131 -0.6521 -0.5238 -0.1199
 3976TIP3    H133487   2.093   6.239   1.046 -0.6827 -0.3226 -0.1941
 3976TIP3    H233488   2.052   6.335   1.156 -2.0567 -2.6352  1.3916
 3977TIP3   OH233489   6.644   3.320   6.434  0.6889  0.7275  0.1252
 3977TIP3    H133490   6.678   3.284   6.352 -0.7817  1.3019 -0.7804
 3977TIP3    H233491   6.637   3.244   6.492 -2.0177 -0.5288 -1.6172
 3978TIP3   OH233492   0.026   1.983   7.925  0.3643 -0.2726  0.2838
 3978TIP3    H133493   0.014   1.894   7.957 -1.4457 -0.4165 -0.6882
 3978TIP3    H233494  -0.001   2.039   7.998 -1.9348 -0.5872 -0.2593
 3979TIP3   OH233495   6.672   3.889   6.877 -0.1688 -0.1686  0.3256
 3979TIP3    H133496   6.581   3.920   6.878  0.9247  3.5097 -0.5324
 3979TIP3    H233497   6.696   3.889   6.784  0.6818 -1.4129  0.5124
 3980TIP3   OH233498   3.606   5.990   8.454 -0.4034  0.5553 -0.2392
 3980TIP3    H133499   3.636   5.953   8.537 -1.6051 -1.3438 -0.5933
 3980TIP3    H233500   3.511   5.991   8.461 -0.4696  2.0921 -0.9264
 3981TIP3   OH233501   4.986   1.406   0.438 -0.1970 -0.7398 -0.2359
 3981TIP3    H133502   4.898   1.421   0.404 -0.4915 -1.7629  0.0469
 3981TIP3    H233503   4.995   1.311   0.440  1.1489 -0.6548 -0.8544
 3982TIP3   OH233504   3.817   4.952   8.370 -0.0562  0.4151 -0.0640
 3982TIP3    H133505   3.801   4.863   8.402 -0.9193 -0.0246 -1.6091
 3982TIP3    H233506   3.913   4.959   8.366  0.0250 -0.6847 -0.5096
 3983TIP3   OH233507   2.858   2.090   0.770 -0.0339  0.5411 -0.2588
 3983TIP3    H133508   2.908   2.099   0.851 -2.2355  0.2804  1.2004
 3983TIP3    H233509   2.770   2.122   0.792 -0.9353 -0.3510 -2.2971
 3984TIP3   OH233510   5.777   1.712   1.389  0.9535 -0.2764  0.6068
 3984TIP3    H133511   5.857   1.688   1.436  0.8291  0.6625  1.3301
 3984TIP3    H233512   5.789   1.804   1.366  0.4664 -0.3814 -0.1018
 3985TIP3   OH233513   1.894   2.862   1.533 -0.1953  0.0486 -0.0217
 3985TIP3    H133514   1.817   2.905   1.493 -0.9487 -2.1713 -1.1144
 3985TIP3    H233515   1.862   2.832   1.618 -0.7995 -1.3920 -0.7118
 3986TIP3   OH233516   3.014   4.965   0.658 -0.0618  0.9495 -0.7060
 3986TIP3    H133517   3.062   4.966   0.740 -0.7182 -0.3780 -0.2780
 3986TIP3    H233518   2.924   4.944   0.683 -0.1556 -0.0819 -1.8010
 3987TIP3   OH233519   2.801   1.266   8.269 -0.0282  0.4401 -0.3679
 3987TIP3    H133520   2.811   1.359   8.253 -0.5050  0.7708  1.0708
 3987TIP3    H233521   2.785   1.259   8.364  0.8714 -1.1722 -0.2963
 3988TIP3   OH233522   4.175   1.100   7.732 -0.5923  0.2045  0.5009
 3988TIP3    H133523   4.162   1.185   7.773  1.9144  0.4258  1.0225
 3988TIP3    H233524   4.250   1.114   7.673 -0.4971 -1.4987  0.1807
 3989TIP3   OH233525   6.694   0.652   1.630  0.2275 -0.2063  0.2366
 3989TIP3    H133526   6.719   0.743   1.647  0.4246  0.1230 -1.6877
 3989TIP3    H233527   6.752   0.600   1.686 -0.2527  0.8350  1.7715
 3990TIP3   OH233528   1.954   0.572   7.291 -0.9203 -0.2515 -0.0298
 3990TIP3    H133529   1.868   0.614   7.291 -0.6030  0.4174  0.7827
 3990TIP3    H233530   2.015   0.641   7.317  0.0961 -0.2923 -2.1061
 3991TIP3   OH233531   1.499   2.189   8.502  0.0798  0.1551  0.6056
 3991TIP3    H133532   1.439   2.164   8.432 -0.2606 -0.3830  1.0840
 3991TIP3    H233533   1.583   2.204   8.457  0.3333 -1.9360  0.3007
 3992TIP3   OH233534   0.039   2.660   6.535  0.0738 -0.1451  0.1428
 3992TIP3    H133535   0.104   2.715   6.580  1.5961  0.5836 -2.7124
 3992TIP3    H233536  -0.013   2.722   6.483 -1.0886 -1.0118  0.2386
 3993TIP3   OH233537   5.122   2.604   0.952 -0.1120  0.1198 -0.3272
 3993TIP3    H133538   5.042   2.569   0.992 -0.3461  0.6335 -0.3430
 3993TIP3    H233539   5.097   2.624   0.862  0.3989 -0.9779 -0.7280
 3994TIP3   OH233540   4.760   1.161   0.582 -0.2775 -0.4610  0.0728
 3994TIP3    H133541   4.828   1.131   0.521  0.5839  1.8449 -0.2125
 3994TIP3    H233542   4.678   1.150   0.533  0.2875  0.3028 -1.1058
 3995TIP3   OH233543   6.844   1.086   7.930  0.1531  0.0104 -0.6326
 3995TIP3    H133544   6.874   1.115   8.016 -0.6689  0.6261 -0.5425
 3995TIP3    H233545   6.752   1.114   7.926 -0.0077 -0.6012 -1.4448
 3996TIP3   OH233546   5.847   4.462   0.858  0.1029  0.5128 -0.4941
 3996TIP3    H133547   5.823   4.372   0.836 -1.3630  0.1527  2.1446
 3996TIP3    H233548   5.778   4.492   0.916  1.1228  2.9937 -0.4417
 3997TIP3   OH233549   2.988   0.230   6.883 -0.4059 -0.0011  0.0265
 3997TIP3    H133550   2.965   0.137   6.874  0.1275 -0.2915  1.3968
 3997TIP3    H233551   2.961   0.269   6.800  0.2705 -1.5560 -0.9709
 3998TIP3   OH233552   5.102   4.403   7.247  0.2317 -0.2062 -0.5463
 3998TIP3    H133553   5.015   4.411   7.287  0.0329 -2.1990 -0.4819
 3998TIP3    H233554   5.122   4.491   7.215 -0.7098  0.8865  1.6653
 3999TIP3   OH233555   0.365   4.760   8.645  0.2777 -0.0427  0.0612
 3999TIP3    H133556   0.303   4.823   8.606  0.4541 -0.2451 -0.5624
 3999TIP3    H233557   0.394   4.802   8.726  1.0866  1.1184 -0.7919
 4000TIP3   OH233558   2.984   6.710   8.611  0.0422  0.5897  1.0168
 4000TIP3    H133559   2.927   6.762   8.668 -1.3036 -0.7882  0.9797
 4000TIP3    H233560   2.928   6.640   8.577  0.7500  1.3662 -2.0985
 4001TIP3   OH233561   5.737   6.156   7.041 -0.6780  0.1631  0.1455
 4001TIP3    H133562   5.661   6.158   6.982 -0.3136  0.7541 -0.3195
 4001TIP3    H233563   5.772   6.067   7.032 -0.2525  0.4337 -1.0258
 4002TIP3   OH233564   0.638   3.278   0.038  0.1349  0.1774 -0.1834
 4002TIP3    H133565   0.657   3.220   0.112  0.7426  0.5486 -0.0391
 4002TIP3    H233566   0.614   3.361   0.079  0.3067  0.3335 -0.3992
 4003TIP3   OH233567   0.101   1.259   7.536 -0.3898 -0.1815 -0.0452
 4003TIP3    H133568   0.023   1.207   7.520  0.2483 -1.5480  1.0192
 4003TIP3    H233569   0.166   1.225   7.474 -0.3200  0.2110 -0.1935
 4004TIP3   OH233570   5.605   1.655   8.287 -0.1158 -0.2577  0.0754
 4004TIP3    H133571   5.547   1.727   8.311  0.0038 -0.3776  0.7733
 4004TIP3    H233572   5.640   1.625   8.371  1.4825  0.2648 -0.3679
 4005TIP3   OH233573   3.920   0.574   0.328  0.3539 -0.2161  0.4307
 4005TIP3    H133574   3.876   0.634   0.388  1.4917  0.2703  0.8110
 4005TIP3    H233575   4.005   0.616   0.311  0.3263 -0.6755 -0.9855
 4006TIP3   OH233576   4.954   6.817   0.370  0.0803 -0.5555  0.1563
 4006TIP3    H133577   4.956   6.908   0.341  1.1495 -0.4944  0.3634
 4006TIP3    H233578   4.869   6.806   0.411  0.0740  0.4456  0.4346
 4007TIP3   OH233579   0.600   2.708   0.846  0.4816 -0.2193  0.0749
 4007TIP3    H133580   0.653   2.768   0.899  2.2878 -0.6229 -1.1534
 4007TIP3    H233581   0.603   2.626   0.894 -1.0444  0.3396  1.1879
 4008TIP3   OH233582   1.472   1.831   7.256 -0.2708 -0.4783 -0.3322
 4008TIP3    H133583   1.496   1.919   7.284 -2.6112  0.3058 -0.5243
 4008TIP3    H233584   1.554   1.790   7.230  0.9906  1.3289  0.6159
 4009TIP3   OH233585   5.275   5.059   7.323 -0.2430 -0.0190  0.0714
 4009TIP3    H133586   5.257   5.046   7.230  1.3713 -1.0170 -0.1429
 4009TIP3    H233587   5.351   5.118   7.324 -1.3349  1.4558  0.8364
 4010TIP3   OH233588   6.803   5.751   0.969  0.1552 -0.0851 -0.7953
 4010TIP3    H133589   6.819   5.817   1.036  0.2925  0.1461 -1.0545
 4010TIP3    H233590   6.730   5.786   0.918  0.9271  0.3863 -1.6031
 4011TIP3   OH233591   5.857   6.630   7.847 -0.0092  0.1223 -0.4750
 4011TIP3    H133592   5.928   6.655   7.905 -0.1644 -0.8210  0.1437
 4011TIP3    H233593   5.887   6.655   7.760  0.4095  1.1463 -0.0458
 4012TIP3   OH233594   1.796   4.717   7.999 -0.1614  0.1431  0.2345
 4012TIP3    H133595   1.866   4.652   7.992  1.1805  1.5263  0.0642
 4012TIP3    H233596   1.813   4.762   8.081 -1.5244 -0.1994  0.7221
 4013TIP3   OH233597   1.234   5.402   6.763 -0.2874 -0.1944 -0.3006
 4013TIP3    H133598   1.250   5.393   6.669  1.6259  0.1022 -0.0496
 4013TIP3    H233599   1.241   5.496   6.779  0.4296 -0.3425  0.2862
 4014TIP3   OH233600   0.636   3.138   8.445  0.3521 -0.8867  0.2897
 4014TIP3    H133601   0.655   3.181   8.528  1.2132  0.8301 -0.7491
 4014TIP3    H233602   0.567   3.191   8.405  1.3280 -0.4847 -0.9505
 4015TIP3   OH233603   1.104   0.795   1.071 -0.3669 -0.3383  0.4036
 4015TIP3    H133604   1.035   0.857   1.096  0.0480 -0.0372  0.8125
 4015TIP3    H233605   1.082   0.714   1.119  0.0422  0.0251  1.2188
 4016TIP3   OH233606   6.219   3.381   7.417 -0.1871  0.7240  0.0724
 4016TIP3    H133607   6.152   3.370   7.350 -2.0876  0.5329  1.8953
 4016TIP3    H233608   6.268   3.299   7.416 -0.2917  0.6679 -0.9512
 4017TIP3   OH233609   2.537   2.524   7.166  0.6327 -0.4056 -0.0397
 4017TIP3    H133610   2.482   2.462   7.214 -0.0370  0.9601  1.0396
 4017TIP3    H233611   2.623   2.517   7.209  1.0199 -1.6696 -0.9458
 4018TIP3   OH233612   2.333   2.314   1.063 -0.1791  0.5723  0.1206
 4018TIP3    H133613   2.332   2.298   1.158 -1.5888  0.3485  0.0813
 4018TIP3    H233614   2.243   2.336   1.041 -0.3651 -1.4628 -1.5020
 4019TIP3   OH233615   0.165   0.504   7.967  0.3545 -0.3513 -0.0992
 4019TIP3    H133616   0.243   0.497   8.022 -0.2842  0.2953  0.9143
 4019TIP3    H233617   0.112   0.428   7.990 -0.0144  0.0386  0.3515
 4020TIP3   OH233618   4.750   1.513   7.357  0.0619  0.1859 -0.0613
 4020TIP3    H133619   4.764   1.523   7.451 -0.8373  0.0453  0.1006
 4020TIP3    H233620   4.836   1.523   7.318  0.3383  0.9637  0.7263
 4021TIP3   OH233621   2.041   6.641   1.415 -0.0301  0.2868  0.0637
 4021TIP3    H133622   2.070   6.729   1.394  0.2461 -0.2058 -1.7813
 4021TIP3    H233623   1.948   6.651   1.439 -0.3585  0.9322 -1.3994
 4022TIP3   OH233624   6.119   4.595   8.184  0.1879 -0.1747 -0.3034
 4022TIP3    H133625   6.124   4.671   8.126  0.0827 -0.1710 -0.3070
 4022TIP3    H233626   6.055   4.619   8.251  0.7354  0.0453  0.1453
 4023TIP3   OH233627   0.136   1.321   0.017  0.5957  0.3770 -0.0119
 4023TIP3    H133628   0.157   1.411  -0.008  0.1679  0.2609 -0.8346
 4023TIP3    H233629   0.185   1.267  -0.045  2.1459 -0.0109  1.5020
 4024TIP3   OH233630   1.214   1.785   6.925  0.0254 -0.0001 -0.3156
 4024TIP3    H133631   1.207   1.694   6.897 -1.4819  0.3868 -1.2775
 4024TIP3    H233632   1.141   1.797   6.985 -1.1762  1.1643 -1.9421
 4025TIP3   OH233633   5.641   1.626   2.036 -0.2667  0.6380  0.5075
 4025TIP3    H133634   5.643   1.703   2.092 -1.2107 -0.4984  2.1999
 4025TIP3    H233635   5.565   1.576   2.066  0.9126 -1.4625  0.2144
 4026TIP3   OH233636   1.081   3.086   8.159  0.3830 -0.7740  0.4539
 4026TIP3    H133637   1.167   3.123   8.181  0.1801  0.6492 -0.9633
 4026TIP3    H233638   1.026   3.108   8.234  0.9650 -0.6894  0.8705
 4027TIP3   OH233639   0.746   2.996   2.400 -0.1181 -0.4879 -0.1674
 4027TIP3    H133640   0.778   3.086   2.391 -0.0907 -0.6149 -1.5501
 4027TIP3    H233641   0.666   3.004   2.451  0.1503  0.2652  0.1463
 4028TIP3   OH233642   2.407   2.599   0.473 -0.4641 -0.2251  0.3689
 4028TIP3    H133643   2.387   2.523   0.418  0.2169  0.2528 -0.5573
 4028TIP3    H233644   2.404   2.673   0.413  0.0416  0.3366  1.0315
 4029TIP3   OH233645   4.435   2.694   6.620 -0.0907  0.3901 -0.2351
 4029TIP3    H133646   4.489   2.709   6.697 -0.4829  0.4127  0.0363
 4029TIP3    H233647   4.370   2.629   6.648 -0.8515  1.1303 -0.2580
 4030TIP3   OH233648   5.919   2.114   6.625 -0.5358  0.2172 -0.3149
 4030TIP3    H133649   5.900   2.021   6.614  0.9162  0.0896 -2.0588
 4030TIP3    H233650   5.865   2.140   6.700 -3.1750 -1.3422 -1.5332
 4031TIP3   OH233651   3.288   6.799   7.244  0.3391 -0.3413 -0.4691
 4031TIP3    H133652   3.309   6.864   7.177 -1.0466 -0.2409 -0.8496
 4031TIP3    H233653   3.334   6.720   7.217  0.7650  0.0410 -0.8750
 4032TIP3   OH233654   1.767   4.101   1.781  0.6570  0.2492 -0.0267
 4032TIP3    H133655   1.711   4.055   1.842  1.0097 -0.1501  0.0049
 4032TIP3    H233656   1.836   4.140   1.836  2.6289 -2.4735 -0.3553
 4033TIP3   OH233657   6.659   6.342   0.859  0.3472 -0.0159 -0.1401
 4033TIP3    H133658   6.634   6.254   0.886 -0.0669 -0.3538 -1.5321
 4033TIP3    H233659   6.746   6.355   0.897 -0.0543 -0.5640  1.0205
 4034TIP3   OH233660   1.817   0.698   7.868 -0.6529  0.7106 -0.3849
 4034TIP3    H133661   1.824   0.773   7.926 -0.2969 -0.0010  0.5278
 4034TIP3    H233662   1.871   0.720   7.792 -1.0580  1.6205 -0.4130
 4035TIP3   OH233663   2.609   5.651   8.025  0.1952  0.3325  0.2310
 4035TIP3    H133664   2.545   5.639   7.954  1.6031 -2.2737 -0.7428
 4035TIP3    H233665   2.579   5.729   8.071 -3.6553 -0.6801 -0.2019
 4036TIP3   OH233666   0.791   0.806   0.902  0.6529  0.1506  0.3992
 4036TIP3    H133667   0.848   0.736   0.932 -1.5034 -1.3128  1.2797
 4036TIP3    H233668   0.770   0.783   0.811  1.9393  1.0589 -0.1580
 4037TIP3   OH233669   6.059   2.340   7.951 -0.0921  0.4249 -0.0801
 4037TIP3    H133670   5.972   2.379   7.940  0.6594  2.1644 -0.1538
 4037TIP3    H233671   6.090   2.372   8.035  0.1347 -0.9399  0.3852
 4038TIP3   OH233672   1.915   3.221   1.199 -0.0332  0.1832  0.0102
 4038TIP3    H133673   1.874   3.135   1.206 -0.1177  0.3015  1.1834
 4038TIP3    H233674   1.859   3.278   1.253  1.1659  0.5309  0.9228
 4039TIP3   OH233675   5.435   3.859   8.204 -0.2366  0.1526 -0.4371
 4039TIP3    H133676   5.397   3.934   8.250  1.3272 -0.0504  1.2770
 4039TIP3    H233677   5.397   3.783   8.247  0.2884 -0.0332 -0.2918
 4040TIP3   OH233678   5.914   3.332   1.589 -0.2281 -0.0521  0.2426
 4040TIP3    H133679   5.920   3.255   1.533 -0.0181 -0.1329  0.3779
 4040TIP3    H233680   5.874   3.399   1.533  1.8063  0.4774 -0.6638
 4041TIP3   OH233681   4.384   4.744   7.202  0.0884 -0.4411 -0.3431
 4041TIP3    H133682   4.341   4.790   7.274 -0.0390  1.3474 -1.4966
 4041TIP3    H233683   4.326   4.669   7.183  0.0629 -0.8723  1.2812
 4042TIP3   OH233684   0.639   2.046   0.369 -0.0675 -0.3783 -0.4646
 4042TIP3    H133685   0.632   1.950   0.367  0.4536 -0.4173 -0.5358
 4042TIP3    H233686   0.732   2.063   0.356  0.1340  0.0671  1.3323
 4043TIP3   OH233687   5.558   6.821   1.165 -0.2854 -0.1409 -0.3621
 4043TIP3    H133688   5.569   6.889   1.231 -0.2756  0.9983 -1.5203
 4043TIP3    H233689   5.641   6.773   1.167 -0.0577  0.2624  0.0256
 4044TIP3   OH233690   1.772   5.146   2.463  0.4470 -0.1255 -0.5641
 4044TIP3    H133691   1.815   5.215   2.412 -0.0722  0.6376  0.0146
 4044TIP3    H233692   1.794   5.166   2.554 -0.2395 -0.3487 -0.3428
 4045TIP3   OH233693   6.231   3.978   8.490  0.2081  0.8994  0.1630
 4045TIP3    H133694   6.161   4.043   8.493  0.8087  1.5918 -0.3436
 4045TIP3    H233695   6.311   4.028   8.506  0.7063  0.3262 -0.4562
 4046TIP3   OH233696   6.387   3.984   6.923 -0.1758 -0.5213 -0.3793
 4046TIP3    H133697   6.301   3.958   6.890 -0.8326  0.7558  0.2466
 4046TIP3    H233698   6.389   3.955   7.014 -1.1833  1.9765  0.5407
 4047TIP3   OH233699   6.207   0.383   8.240 -0.0159 -0.4749  0.0219
 4047TIP3    H133700   6.174   0.399   8.328  1.0288  0.9416  0.1760
 4047TIP3    H233701   6.295   0.419   8.239  0.1259 -0.7613 -1.5130
 4048TIP3   OH233702   1.960   0.923   0.156 -0.0058  0.3238 -0.1384
 4048TIP3    H133703   1.864   0.917   0.159 -0.2811  1.9932 -2.5902
 4048TIP3    H233704   1.990   0.837   0.185 -2.2364 -0.3793  0.3196
 4049TIP3   OH233705   6.864   2.675   6.156  0.3005  0.1781 -0.2828
 4049TIP3    H133706   6.813   2.616   6.100  0.2603 -1.0865  1.0224
 4049TIP3    H233707   6.818   2.673   6.240  0.9786  1.1700  0.1253
 4050TIP3   OH233708   1.962   4.102   2.012  0.0055  0.0805 -0.6571
 4050TIP3    H133709   2.007   4.067   2.089  0.0972 -1.1548 -1.2595
 4050TIP3    H233710   1.869   4.092   2.033 -0.0004  0.9604 -0.1797
 4051TIP3   OH233711   6.201   4.144   7.674 -0.1646 -0.6743 -0.6089
 4051TIP3    H133712   6.115   4.134   7.713 -0.1852  0.8609 -0.1883
 4051TIP3    H233713   6.239   4.056   7.675 -1.7104 -1.3640 -0.7978
 4052TIP3   OH233714   0.086   1.937   7.234 -0.3505  0.0954  0.4929
 4052TIP3    H133715   0.072   2.000   7.305 -2.4346  0.4231 -0.1550
 4052TIP3    H233716  -0.000   1.899   7.217 -0.0093  0.3079 -2.1282
 4053TIP3   OH233717   5.292   3.146   7.185 -0.7293  0.0389  0.1585
 4053TIP3    H133718   5.272   3.089   7.110  0.9219 -0.1193 -0.2038
 4053TIP3    H233719   5.382   3.174   7.170 -0.8396  1.1444  1.3825
 4054TIP3   OH233720   1.142   3.825   8.485 -0.8873 -0.0734 -0.3430
 4054TIP3    H133721   1.228   3.864   8.471 -0.5503 -0.5992  0.1978
 4054TIP3    H233722   1.088   3.857   8.413  0.1843 -0.9874 -1.5861
 4055TIP3   OH233723   6.489   3.028   0.829  0.0640 -0.0290 -0.3851
 4055TIP3    H133724   6.577   3.013   0.865  0.1151 -0.3222 -0.6300
 4055TIP3    H233725   6.472   2.951   0.774 -0.2422  0.1501 -0.5424
 4056TIP3   OH233726   6.440   1.420   7.781 -0.2157  0.3748  0.3484
 4056TIP3    H133727   6.426   1.461   7.866  1.1787  1.6025  0.0289
 4056TIP3    H233728   6.352   1.401   7.748 -0.8208  1.2241  1.4343
 4057TIP3   OH233729   0.641   1.326   8.401  0.0753  0.7803 -0.3453
 4057TIP3    H133730   0.641   1.279   8.484  2.9044 -0.2192 -0.7994
 4057TIP3    H233731   0.574   1.281   8.348 -1.4129  1.1261  1.1631
 4058TIP3   OH233732   2.851   4.447   7.920  0.1945  0.9162  0.4489
 4058TIP3    H133733   2.807   4.523   7.883  3.3347  2.9931  0.6335
 4058TIP3    H233734   2.894   4.406   7.844 -0.4492  0.0085  0.5531
 4059TIP3   OH233735   4.693   2.343   0.714  0.7090 -0.6550  0.2382
 4059TIP3    H133736   4.697   2.250   0.690 -2.3101 -1.3036  1.8022
 4059TIP3    H233737   4.707   2.344   0.809  3.2654  0.8481 -0.0716
 4060TIP3   OH233738   5.528   5.449   8.151  0.0257 -0.0946 -0.8142
 4060TIP3    H133739   5.464   5.479   8.216  1.2925 -0.5517  0.6972
 4060TIP3    H233740   5.556   5.529   8.107 -0.2738  0.3216 -0.2628
 4061TIP3   OH233741   1.357   3.268   6.227 -0.6258 -0.2086  0.2074
 4061TIP3    H133742   1.438   3.229   6.259 -0.4093  0.0836  0.0246
 4061TIP3    H233743   1.330   3.327   6.297  1.1741  2.3355 -1.0797
 4062TIP3   OH233744   0.981   3.130   7.255  0.5248 -0.1467  0.3752
 4062TIP3    H133745   0.985   3.123   7.351 -2.5914 -0.3479  0.5907
 4062TIP3    H233746   0.953   3.043   7.227 -3.2600  1.0989 -0.1951
 4063TIP3   OH233747   5.678   5.775   6.488  0.6590  0.0200  0.4362
 4063TIP3    H133748   5.670   5.868   6.512  1.1627 -0.0727  0.9853
 4063TIP3    H233749   5.604   5.733   6.532 -0.8525  0.4649 -1.5498
 4064TIP3   OH233750   5.574   0.590   0.777  0.2762  0.0066  0.4779
 4064TIP3    H133751   5.515   0.597   0.852 -0.6045  0.2748 -0.2245
 4064TIP3    H233752   5.547   0.509   0.733  0.1235  0.3738 -0.1083
 4065TIP3   OH233753   3.853   1.042   1.346 -0.0219  0.3209 -0.1387
 4065TIP3    H133754   3.878   1.075   1.432 -0.7812  0.1017  0.1754
 4065TIP3    H233755   3.819   1.119   1.300 -1.5244  0.0700  0.4933
 4066TIP3   OH233756   3.086   4.916   7.261  0.2058  0.1627 -0.5568
 4066TIP3    H133757   3.066   4.989   7.203  0.5908  0.7801  0.0693
 4066TIP3    H233758   3.177   4.894   7.242  0.1192 -0.0981 -0.6781
 4067TIP3   OH233759   3.374   2.360   1.809  0.5780  0.0617  0.6459
 4067TIP3    H133760   3.441   2.333   1.746  0.1231  1.2809 -0.3890
 4067TIP3    H233761   3.409   2.439   1.849  0.1502  0.1944  0.7586
 4068TIP3   OH233762   1.823   2.785   1.784 -0.3826 -0.1532 -0.3683
 4068TIP3    H133763   1.748   2.804   1.841  0.2045  0.5036  0.1955
 4068TIP3    H233764   1.899   2.786   1.843  0.1307 -0.3289 -1.0146
 4069TIP3   OH233765   0.750   5.532   0.732  0.0564  0.1129  0.1144
 4069TIP3    H133766   0.701   5.592   0.789 -2.0153 -1.0558 -0.3532
 4069TIP3    H233767   0.763   5.454   0.785  0.2674 -0.0715 -0.2078
 4070TIP3   OH233768   0.089   1.204   6.093  0.2726 -0.2058  0.0806
 4070TIP3    H133769   0.079   1.249   6.009  2.2584 -2.3319 -1.4202
 4070TIP3    H233770   0.031   1.252   6.153 -1.5920  1.1186 -2.5753
 4071TIP3   OH233771   4.505   0.802   7.050  0.1999  0.0361  0.2047
 4071TIP3    H133772   4.424   0.778   7.006 -0.1266 -0.3917  1.0206
 4071TIP3    H233773   4.478   0.827   7.139  0.8922  0.4778  0.3030
 4072TIP3   OH233774   4.089   5.473   0.012 -0.5943 -0.0804  0.1683
 4072TIP3    H133775   4.039   5.554   0.011 -0.4082  0.1408  2.5203
 4072TIP3    H233776   4.137   5.476   0.095 -0.3267 -2.4448  0.1554
 4073TIP3   OH233777   6.760   4.007   0.406 -0.1094  0.3644  0.0982
 4073TIP3    H133778   6.786   4.070   0.338  0.0167 -0.1024 -0.2884
 4073TIP3    H233779   6.769   4.056   0.487 -0.3850  0.9716 -0.2280
 4074TIP3   OH233780   5.706   0.172   7.403 -0.1931  0.3559 -0.4003
 4074TIP3    H133781   5.782   0.127   7.366  1.5762  1.5633  1.4953
 4074TIP3    H233782   5.703   0.256   7.357 -0.0833  0.4899 -0.1659
 4075TIP3   OH233783   1.037   4.457   1.994  0.3710  0.9602 -0.0531
 4075TIP3    H133784   1.123   4.418   2.011  0.0017  0.0145 -0.2986
 4075TIP3    H233785   1.032   4.464   1.899 -0.5251 -0.7119 -0.1826
 4076TIP3   OH233786   5.419   3.562   8.275  0.4029 -0.1826 -0.5850
 4076TIP3    H133787   5.510   3.590   8.285  0.6139 -0.5844 -1.3182
 4076TIP3    H233788   5.406   3.498   8.345  0.0917  1.2355  0.7399
 4077TIP3   OH233789   2.678   6.204   7.766 -0.0701  0.4673 -0.0237
 4077TIP3    H133790   2.644   6.161   7.688 -1.9773 -0.3984  1.1866
 4077TIP3    H233791   2.615   6.180   7.835  0.0922  3.2634  1.2220
 4078TIP3   OH233792   2.440   1.221   6.628  0.1079  0.1720 -0.3394
 4078TIP3    H133793   2.489   1.228   6.710  0.5894 -2.9071 -0.2325
 4078TIP3    H233794   2.386   1.143   6.639 -1.4828  0.9471 -2.1530
 4079TIP3   OH233795   5.539   2.019   0.835 -0.0544 -0.3242  0.3696
 4079TIP3    H133796   5.451   2.001   0.866 -0.6573  1.9973  0.1934
 4079TIP3    H233797   5.583   2.059   0.909 -0.0323  0.9740 -0.3125
 4080TIP3   OH233798   3.191   3.607   6.966 -0.0031 -0.3994 -0.0024
 4080TIP3    H133799   3.121   3.603   7.032  0.5977 -1.0551  0.6028
 4080TIP3    H233800   3.256   3.666   7.004 -0.5091  0.7439 -0.8582
 4081TIP3   OH233801   5.281   5.351   7.742 -0.3529 -0.2173 -0.2070
 4081TIP3    H133802   5.310   5.311   7.824  1.0093 -0.8187 -0.9256
 4081TIP3    H233803   5.232   5.428   7.768  1.3636  0.4872  1.1696
 4082TIP3   OH233804   6.389   5.060   1.230  0.1927 -0.1871  0.1816
 4082TIP3    H133805   6.316   5.080   1.172  0.1307 -0.1855  0.2610
 4082TIP3    H233806   6.462   5.039   1.171  0.1823  0.0039  0.0998
 4083TIP3   OH233807   2.286   3.864   6.645 -0.6157 -0.0278  1.0061
 4083TIP3    H133808   2.259   3.955   6.634 -1.8966 -0.5121 -0.2176
 4083TIP3    H233809   2.374   3.869   6.682 -0.0756  1.7314 -0.3835
 4084TIP3   OH233810   0.338   1.060   0.164 -0.4017 -0.0380 -0.3975
 4084TIP3    H133811   0.358   1.120   0.093  1.5131 -2.0952 -1.7168
 4084TIP3    H233812   0.294   1.114   0.230 -0.3795  2.3650 -2.2432
 4085TIP3   OH233813   1.698   4.860   0.571 -0.6353  0.1320 -0.6172
 4085TIP3    H133814   1.742   4.825   0.494 -1.0038  0.5892 -1.0404
 4085TIP3    H233815   1.730   4.950   0.579 -0.7231  0.1408 -0.3361
 4086TIP3   OH233816   1.187   0.557   7.326 -0.5294 -0.0490  0.4561
 4086TIP3    H133817   1.210   0.633   7.273  1.6071 -0.2093  1.0483
 4086TIP3    H233818   1.139   0.500   7.266  0.2044  0.5900 -0.7878
 4087TIP3   OH233819   0.537   0.172   6.150 -0.0864  0.1117  0.1880
 4087TIP3    H133820   0.447   0.142   6.162  0.1952 -0.6678  0.3755
 4087TIP3    H233821   0.528   0.254   6.101 -0.8852 -0.0877 -0.0202
 4088TIP3   OH233822   4.906   6.405   7.101 -0.0307  0.1907  0.3126
 4088TIP3    H133823   4.856   6.465   7.157 -1.0644 -0.5542  0.2115
 4088TIP3    H233824   4.880   6.428   7.012 -1.2502 -1.0615  0.3065
 4089TIP3   OH233825   5.558   1.694   0.037  0.1614 -0.7791  1.1976
 4089TIP3    H133826   5.497   1.729   0.102  0.1256 -1.3022  1.4473
 4089TIP3    H233827   5.502   1.646  -0.025  0.3028 -1.1244  1.3373
 4090TIP3   OH233828   5.526   2.235   7.105  0.0192 -0.2962  0.2085
 4090TIP3    H133829   5.572   2.311   7.142  0.0056  0.1577 -0.6723
 4090TIP3    H233830   5.509   2.260   7.014  1.9469 -2.2163 -0.7686
 4091TIP3   OH233831   0.086   4.422   1.411  0.3312  0.8669  0.6094
 4091TIP3    H133832   0.156   4.411   1.476  0.7396  1.4835  0.2883
 4091TIP3    H233833   0.009   4.447   1.462  0.0689 -0.7695  1.0699
 4092TIP3   OH233834   3.629   3.013   2.201  0.1487 -0.2660  0.3789
 4092TIP3    H133835   3.641   3.108   2.204  2.7751 -0.5271  1.0620
 4092TIP3    H233836   3.562   2.995   2.266 -0.4176  1.1142  0.2054
 4093TIP3   OH233837   0.539   5.200   1.273 -0.3582  0.2866  0.3149
 4093TIP3    H133838   0.482   5.158   1.209 -0.2037  2.7044 -1.5379
 4093TIP3    H233839   0.621   5.214   1.227  0.2349  0.8574  1.5091
 4094TIP3   OH233840   3.718   6.229   1.646 -0.7163 -0.2964 -0.2292
 4094TIP3    H133841   3.772   6.220   1.725  0.1848 -1.6382 -0.9553
 4094TIP3    H233842   3.761   6.172   1.581 -0.7939  1.5908 -2.0349
 4095TIP3   OH233843   3.356   1.056   0.861 -0.0697  0.2155 -0.1114
 4095TIP3    H133844   3.449   1.061   0.885  0.0570  2.3220 -0.8007
 4095TIP3    H233845   3.313   1.021   0.939  0.9491  2.1724  1.4184
 4096TIP3   OH233846   5.705   4.844   8.505  0.2221 -0.5006 -0.5406
 4096TIP3    H133847   5.737   4.754   8.508  0.3878 -0.4230  0.2306
 4096TIP3    H233848   5.610   4.836   8.492  0.2862 -0.7703 -0.8573
 4097TIP3   OH233849   1.744   2.147   7.209  0.6510 -0.0647 -0.3869
 4097TIP3    H133850   1.720   2.145   7.117  0.2535  1.1647 -0.3212
 4097TIP3    H233851   1.675   2.098   7.253 -1.1756  2.3803 -0.3482
 4098TIP3   OH233852   3.148   2.875   0.950  0.2173 -0.3055 -0.0590
 4098TIP3    H133853   3.092   2.807   0.911 -0.8526  0.0119  0.8545
 4098TIP3    H233854   3.186   2.921   0.875  0.5962 -1.6080 -0.6886
 4099TIP3   OH233855   4.148   3.740   0.975 -0.1878  0.0728  0.7161
 4099TIP3    H133856   4.069   3.703   0.937 -0.0654 -0.4650  0.9722
 4099TIP3    H233857   4.171   3.813   0.918 -0.3302 -0.3682  0.0889
 4100TIP3   OH233858   1.087   3.404   6.900 -0.6505  0.0142 -0.1590
 4100TIP3    H133859   1.131   3.400   6.816  0.4657 -0.1418  0.4175
 4100TIP3    H233860   1.018   3.338   6.894 -1.0659  0.5272 -1.2050
 4101TIP3   OH233861   1.712   1.174   8.337  0.6128 -0.1571 -0.0001
 4101TIP3    H133862   1.789   1.173   8.281  0.9027 -0.9741  0.3903
 4101TIP3    H233863   1.709   1.263   8.373  2.8224 -0.7507  1.9203
 4102TIP3   OH233864   6.731   1.300   0.020  0.5112 -0.0552  0.2899
 4102TIP3    H133865   6.826   1.295   0.007  0.3336 -0.8247 -0.9034
 4102TIP3    H233866   6.704   1.210   0.037  0.1956  0.3926  2.4462
 4103TIP3   OH233867   0.607   1.505   8.184  0.0056  0.0203 -0.6806
 4103TIP3    H133868   0.580   1.440   8.119 -1.1707  0.3097 -0.5001
 4103TIP3    H233869   0.616   1.455   8.265 -2.7767  0.3164 -0.0834
 4104TIP3   OH233870   5.660   2.038   1.086 -0.0451  0.2584 -0.2560
 4104TIP3    H133871   5.736   2.026   1.142  0.3551 -0.0038 -0.8416
 4104TIP3    H233872   5.634   2.129   1.100  0.7341  0.5257 -0.4817
 4105TIP3   OH233873   6.340   0.885   6.240  0.4802  0.2620 -0.1238
 4105TIP3    H133874   6.247   0.870   6.223  0.2423  1.3033  0.1537
 4105TIP3    H233875   6.341   0.937   6.321  1.3915 -1.2125  0.8681
 4106TIP3   OH233876   0.644   4.873   0.822  0.2415 -0.4444 -0.3147
 4106TIP3    H133877   0.641   4.817   0.899 -1.4771 -0.2048 -0.1632
 4106TIP3    H233878   0.663   4.814   0.749  0.0283 -0.9745  0.0582
 4107TIP3   OH233879   6.872   2.189   7.707  0.4094 -0.0819 -0.1733
 4107TIP3    H133880   6.904   2.122   7.768  0.8447 -0.2405 -0.5761
 4107TIP3    H233881   6.844   2.261   7.764  3.0719  0.7914  0.1449
 4108TIP3   OH233882   4.551   1.731   0.821 -0.6714 -0.5146  0.0212
 4108TIP3    H133883   4.635   1.711   0.780 -0.8523  2.2018 -1.8870
 4108TIP3    H233884   4.487   1.680   0.771 -0.4093 -0.8475  0.0195
 4109TIP3   OH233885   4.975   1.545   7.801  0.1967  0.5022 -0.2132
 4109TIP3    H133886   5.031   1.623   7.807 -1.2317  1.4597  1.8254
 4109TIP3    H233887   4.890   1.579   7.774 -0.4005 -0.3480  0.5320
 4110TIP3   OH233888   0.483   5.080   8.144 -0.6047 -0.2292 -0.3841
 4110TIP3    H133889   0.568   5.037   8.153 -0.5856  0.0601  1.1423
 4110TIP3    H233890   0.467   5.083   8.050  0.7812 -0.8507 -0.6628
 4111TIP3   OH233891   3.792   2.787   0.175 -0.1323 -0.0777  0.7262
 4111TIP3    H133892   3.803   2.710   0.231 -0.7669 -1.5617 -1.0805
 4111TIP3    H233893   3.781   2.751   0.087 -0.8479  2.0813 -0.1314
 4112TIP3   OH233894   4.137   2.679   0.154 -0.1628 -0.2704  0.1392
 4112TIP3    H133895   4.045   2.706   0.159  0.2211  0.9077  2.0072
 4112TIP3    H233896   4.141   2.599   0.207  0.1808  0.7484  1.7344
 4113TIP3   OH233897   4.989   5.605   2.643  0.1306  0.3092  0.3265
 4113TIP3    H133898   4.902   5.564   2.645  0.4299 -0.3022  1.2012
 4113TIP3    H233899   4.973   5.696   2.667 -0.0919 -0.1607  2.0691
 4114TIP3   OH233900   0.717   4.863   1.095 -0.5906 -0.4405 -0.2472
 4114TIP3    H133901   0.700   4.824   1.180  0.6783  0.9924  0.7219
 4114TIP3    H233902   0.775   4.800   1.051  0.0386 -0.4742  0.6010
 4115TIP3   OH233903   4.571   3.740   2.427  0.2535 -0.1089  0.0618
 4115TIP3    H133904   4.638   3.674   2.442  1.1463  0.1163 -2.5086
 4115TIP3    H233905   4.615   3.824   2.441  0.8046  0.0660 -2.3202
 4116TIP3   OH233906   5.613   0.915   1.439 -0.2226 -0.1894  0.3329
 4116TIP3    H133907   5.701   0.946   1.415 -0.8614 -0.1161 -2.1175
 4116TIP3    H233908   5.594   0.961   1.521  0.8728  2.1059 -0.6073
 4117TIP3   OH233909   2.484   3.374   0.684  0.3743 -0.2600  0.5584
 4117TIP3    H133910   2.516   3.400   0.770 -1.1761  0.6954  0.8903
 4117TIP3    H233911   2.526   3.436   0.624  1.3433 -0.8338  0.6227
 4118TIP3   OH233912   0.777   4.767   7.258 -0.1869 -0.3719  0.3107
 4118TIP3    H133913   0.856   4.716   7.241 -1.1659 -1.8224 -0.1242
 4118TIP3    H233914   0.757   4.809   7.175 -0.6591 -1.1825  0.0020
 4119TIP3   OH233915   4.068   5.681   2.052 -0.0364 -0.2786  0.0219
 4119TIP3    H133916   4.084   5.587   2.047  2.0683 -0.0902  1.6785
 4119TIP3    H233917   3.988   5.695   2.001  0.1570 -2.7942 -1.1041
 4120TIP3   OH233918   1.954   6.701   2.098  0.5305  0.2052 -0.0695
 4120TIP3    H133919   2.011   6.727   2.026 -0.6878  0.2205 -1.0634
 4120TIP3    H233920   1.897   6.634   2.061 -0.2974  0.3977  0.7958
 4121TIP3   OH233921   2.874   0.155   8.062 -0.7998  0.3340  0.1701
 4121TIP3    H133922   2.845   0.139   7.972 -2.2864 -1.3986  0.8908
 4121TIP3    H233923   2.950   0.098   8.073 -1.6254 -0.7561  0.4717
 4122TIP3   OH233924   3.689   1.531   1.331  0.3042  0.1069  1.0141
 4122TIP3    H133925   3.640   1.595   1.383  0.0835 -0.0729  1.0283
 4122TIP3    H233926   3.705   1.459   1.391 -0.5246 -0.3928  0.6614
 4123TIP3   OH233927   6.106   2.938   0.403  0.5467 -0.1882 -0.0335
 4123TIP3    H133928   6.093   2.922   0.496  1.9837  0.6185  0.3291
 4123TIP3    H233929   6.022   2.916   0.363  0.2787 -1.7108  1.2864
 4124TIP3   OH233930   3.103   3.550   7.569  0.6326 -0.1042  0.0441
 4124TIP3    H133931   3.115   3.614   7.499 -1.5332 -0.2874 -0.5631
 4124TIP3    H233932   3.039   3.488   7.535  2.0362 -2.1595  0.9517
 4125TIP3   OH233933   2.984   5.422   8.086 -0.6138  0.9542  0.1203
 4125TIP3    H133934   3.050   5.376   8.035 -1.0587  0.3305  0.0929
 4125TIP3    H233935   2.970   5.367   8.163  1.7749  3.0100  2.2077
 4126TIP3   OH233936   6.028   5.668   8.255  0.6296 -0.0173  0.3186
 4126TIP3    H133937   6.090   5.730   8.293  0.5791 -0.3902  1.0319
 4126TIP3    H233938   6.077   5.586   8.248  0.5211 -0.0495 -0.0594
 4127TIP3   OH233939   2.953   1.272   7.520 -0.5238 -0.6017 -0.2660
 4127TIP3    H133940   2.968   1.356   7.564 -2.6211 -0.6631  0.6876
 4127TIP3    H233941   2.978   1.288   7.429  0.3426  0.6627  0.1698
 4128TIP3   OH233942   1.744   2.254   0.306 -0.5652  0.4698  0.4891
 4128TIP3    H133943   1.838   2.242   0.295 -0.2107  0.9201  2.6112
 4128TIP3    H233944   1.712   2.271   0.218  1.3874  0.6522 -0.2397
 4129TIP3   OH233945   4.801   6.403   7.448  0.0466  0.1031  0.4760
 4129TIP3    H133946   4.843   6.390   7.533  0.6907  1.5823  0.4092
 4129TIP3    H233947   4.744   6.479   7.461 -0.3603 -0.0723 -0.2398
 4130TIP3   OH233948   0.619   2.659   8.269  0.1501  0.4510 -0.2580
 4130TIP3    H133949   0.565   2.700   8.337 -0.1312 -1.2327  0.5976
 4130TIP3    H233950   0.705   2.701   8.279 -0.1009  0.7883  0.6323
 4131TIP3   OH233951   0.240   6.095   6.176  0.2799 -0.4402  0.1211
 4131TIP3    H133952   0.283   6.027   6.228 -0.1990 -0.0636  1.0300
 4131TIP3    H233953   0.151   6.063   6.164  0.4301 -0.6030 -0.6371
 4132TIP3   OH233954   6.705   2.846   8.342  0.5768 -0.5427 -0.2456
 4132TIP3    H133955   6.714   2.889   8.257  0.5602  2.0838  0.9766
 4132TIP3    H233956   6.767   2.892   8.399 -0.3740 -1.3075  1.4976
 4133TIP3   OH233957   5.157   2.100   6.437  0.4436 -0.5560  0.2645
 4133TIP3    H133958   5.211   2.028   6.404  1.1600  0.4797 -0.9134
 4133TIP3    H233959   5.219   2.172   6.451 -0.4225  0.2074  0.2684
 4134TIP3   OH233960   1.530   3.848   7.462  0.1573  0.1885 -0.2897
 4134TIP3    H133961   1.455   3.797   7.492  0.2527 -0.5335 -1.2305
 4134TIP3    H233962   1.585   3.859   7.540 -0.8138  0.5398  0.3564
 4135TIP3   OH233963   2.814   6.153   8.178 -0.0850 -0.8303 -0.4227
 4135TIP3    H133964   2.848   6.196   8.099  0.6399 -0.9785 -0.2027
 4135TIP3    H233965   2.832   6.060   8.164 -1.3733 -1.0367 -0.7619
 4136TIP3   OH233966   1.039   4.836   2.591  0.8074  0.1147 -0.3499
 4136TIP3    H133967   1.124   4.801   2.619  0.2013 -1.3382 -0.2482
 4136TIP3    H233968   0.985   4.834   2.670  0.3720  0.0868 -0.6473
 4137TIP3   OH233969   2.743   4.041   8.257 -0.0410  0.0236 -0.5702
 4137TIP3    H133970   2.704   3.958   8.229  0.5765  0.0037 -1.3991
 4137TIP3    H233971   2.786   4.075   8.179  0.3642  0.7547 -0.0397
 4138TIP3   OH233972   4.487   5.575   7.648 -0.0668  0.5118  0.2047
 4138TIP3    H133973   4.516   5.625   7.724  1.1644  0.5156 -0.2440
 4138TIP3    H233974   4.566   5.529   7.618 -1.0102 -1.2095  0.2259
 4139TIP3   OH233975   4.628   1.111   0.834  0.3898  0.1653 -1.3681
 4139TIP3    H133976   4.631   1.113   0.738  4.2706  0.3774 -1.4015
 4139TIP3    H233977   4.692   1.044   0.858  0.9998  1.5170  1.0535
 4140TIP3   OH233978   5.823   5.473   8.140 -0.3350 -0.3402 -0.0697
 4140TIP3    H133979   5.891   5.516   8.191  0.3168  0.9552 -1.9377
 4140TIP3    H233980   5.741   5.505   8.177  0.0819 -0.5218  1.0422
 4141TIP3   OH233981   0.030   4.789   1.672 -0.1481 -0.4572 -0.7004
 4141TIP3    H133982  -0.009   4.855   1.730  1.3525 -0.6471  0.5879
 4141TIP3    H233983   0.083   4.839   1.611  0.1950 -0.4038 -0.3602
 4142TIP3   OH233984   6.880   3.213   0.937  0.0043 -0.4420 -0.1498
 4142TIP3    H133985   6.957   3.218   0.880  0.0397 -0.7255 -0.1311
 4142TIP3    H233986   6.827   3.288   0.912 -0.5543 -1.2120 -1.4125
 4143TIP3   OH233987   4.287   3.338   6.609  0.3309  0.3006  0.4350
 4143TIP3    H133988   4.378   3.360   6.592 -0.0056  0.5042 -1.2697
 4143TIP3    H233989   4.239   3.374   6.535 -0.9474 -1.1071  0.5213
 4144TIP3   OH233990   1.203   3.909   1.880  0.2175 -0.3744 -0.4272
 4144TIP3    H133991   1.282   3.862   1.906 -0.2689 -1.0218 -0.1144
 4144TIP3    H233992   1.134   3.876   1.938  0.0678  1.4892  0.5308
 4145TIP3   OH233993   5.543   6.507   0.944 -0.9302  0.0025 -0.0916
 4145TIP3    H133994   5.619   6.526   0.998 -2.0354  0.9881  1.1963
 4145TIP3    H233995   5.479   6.470   1.004 -1.3632 -1.1582 -1.2182
 4146TIP3   OH233996   3.599   6.722   2.318 -0.3608 -0.5706  0.9191
 4146TIP3    H133997   3.559   6.802   2.282 -2.7339 -1.6393  1.0532
 4146TIP3    H233998   3.658   6.754   2.386 -1.1801  1.0928  0.9018
 4147TIP3   OH233999   0.275   3.979   1.919  0.0162 -1.2867 -0.2096
 4147TIP3    H134000   0.183   3.994   1.895  0.0708 -0.6610 -0.0311
 4147TIP3    H234001   0.289   3.886   1.901 -0.8689 -1.5614  0.4427
 4148TIP3   OH234002   1.071   6.193   2.507 -0.0946  0.1919 -0.1634
 4148TIP3    H134003   1.022   6.113   2.524  1.4396 -0.5884  0.8041
 4148TIP3    H234004   1.067   6.204   2.412  1.7362 -2.4546 -0.6416
 4149TIP3   OH234005   2.112   3.992   1.561 -0.3110 -0.1113  0.3343
 4149TIP3    H134006   2.044   3.950   1.508 -1.4687  2.3694 -0.2764
 4149TIP3    H234007   2.184   3.929   1.561 -1.1688 -1.2436 -2.1825
 4150TIP3   OH234008   4.713   0.181   0.042  0.2026  0.4408  0.0753
 4150TIP3    H134009   4.705   0.119   0.114 -0.1642  0.5785  0.1519
 4150TIP3    H234010   4.733   0.264   0.084 -1.9929  0.9703  0.1916
 4151TIP3   OH234011   4.937   0.606   7.360  0.4628  0.0345  0.3532
 4151TIP3    H134012   4.907   0.635   7.274 -0.1588 -2.2139 -0.2758
 4151TIP3    H234013   4.859   0.612   7.415 -0.2859 -2.2764 -0.3296
 4152TIP3   OH234014   6.177   6.616   1.429  0.1719  0.9838 -0.1195
 4152TIP3    H134015   6.152   6.525   1.446 -1.7363  1.2842 -1.1180
 4152TIP3    H234016   6.247   6.633   1.492 -0.0797 -0.8759  0.7403
 4153TIP3   OH234017   1.760   0.711   0.983 -0.2747 -0.4177 -0.1472
 4153TIP3    H134018   1.707   0.636   1.009  1.2458 -1.2378  0.7237
 4153TIP3    H234019   1.749   0.774   1.054 -0.8368 -0.1760 -0.4419
 4154TIP3   OH234020   6.234   0.204   0.046  0.0795  0.4468  0.1782
 4154TIP3    H134021   6.323   0.225   0.075  1.0308 -0.8975 -1.5489
 4154TIP3    H234022   6.245   0.130  -0.014 -2.1411  0.6812 -0.6250
 4155TIP3   OH234023   5.720   6.609   0.273  0.1950 -0.3492  0.0677
 4155TIP3    H134024   5.799   6.605   0.221  0.3355  1.0896  0.1208
 4155TIP3    H234025   5.687   6.519   0.275  1.3965 -0.8224 -0.5936
 4156TIP3   OH234026   3.480   5.025   0.996 -0.3481 -0.1862  0.1597
 4156TIP3    H134027   3.434   5.036   0.913  0.9268 -1.8083 -0.8388
 4156TIP3    H234028   3.492   5.114   1.029 -3.5622  0.3293  0.1863
 4157TIP3   OH234029   1.339   5.976   0.922 -0.3973  1.3025 -0.1465
 4157TIP3    H134030   1.256   5.937   0.949  0.7049 -0.3987  0.9167
 4157TIP3    H234031   1.385   5.996   1.004  1.4411 -0.4944 -0.6623
 4158TIP3   OH234032   1.405   3.586   0.194 -0.0106  0.0591 -0.5064
 4158TIP3    H134033   1.418   3.553   0.105 -0.5874 -0.4298 -0.4168
 4158TIP3    H234034   1.371   3.511   0.243 -1.7842  0.8672 -0.4053
 4159TIP3   OH234035   3.947   2.771   7.657  1.0819  0.0476  0.5539
 4159TIP3    H134036   3.906   2.824   7.589  0.8139  0.5123  1.0646
 4159TIP3    H234037   3.914   2.683   7.642  1.0766  0.1313  0.0473
 4160TIP3   OH234038   2.621   1.192   8.064 -0.0722  0.1101 -0.2883
 4160TIP3    H134039   2.554   1.260   8.071  2.6920  3.0609 -0.1334
 4160TIP3    H234040   2.675   1.203   8.143  2.0764 -0.3725 -1.6001
 4161TIP3   OH234041   3.182   5.565   1.220 -0.2195 -0.0882  0.8712
 4161TIP3    H134042   3.210   5.632   1.281 -1.0368 -1.4694  2.8568
 4161TIP3    H234043   3.243   5.492   1.235  0.7596  0.1845 -1.3529
 4162TIP3   OH234044   6.771   2.399   7.832  0.2917 -0.8596  0.4161
 4162TIP3    H134045   6.833   2.412   7.903  2.2705  0.0968 -1.3571
 4162TIP3    H234046   6.740   2.487   7.811  0.6964 -0.9547 -0.6658
 4163TIP3   OH234047   4.437   4.717   6.543  0.2217  0.2272 -0.3149
 4163TIP3    H134048   4.424   4.623   6.554  1.1625  0.0364 -0.7542
 4163TIP3    H234049   4.387   4.757   6.614  0.2229 -0.6289  0.1768
 4164TIP3   OH234050   4.436   5.666   1.828  0.5245  0.2660  0.4226
 4164TIP3    H134051   4.522   5.627   1.811  0.3936  0.0722  0.1917
 4164TIP3    H234052   4.386   5.597   1.872 -0.0429 -0.2017 -0.8967
 4165TIP3   OH234053   2.121   1.758   0.244 -0.5064 -0.0432 -0.4115
 4165TIP3    H134054   2.162   1.694   0.302  3.5496  0.7032 -2.1725
 4165TIP3    H234055   2.100   1.709   0.165  2.1470  0.5036 -1.5675
 4166TIP3   OH234056   3.343   0.097   7.479 -0.1181 -0.5773  0.1631
 4166TIP3    H134057   3.352   0.046   7.398 -1.1363 -1.2336  0.4558
 4166TIP3    H234058   3.434   0.116   7.505  0.2289 -0.5481 -0.9952
 4167TIP3   OH234059   0.084   6.790   8.514 -0.3895 -0.4271 -0.1733
 4167TIP3    H134060   0.134   6.714   8.485 -0.1127 -0.4592  0.3826
 4167TIP3    H234061  -0.007   6.766   8.501 -0.2664 -0.2876 -1.4046
 4168TIP3   OH234062   6.719   1.306   8.095 -0.6819  0.3386 -0.4202
 4168TIP3    H134063   6.736   1.362   8.019 -0.6704  1.6843  0.5213
 4168TIP3    H234064   6.633   1.334   8.126 -0.5284  0.0805  0.2657
 4169TIP3   OH234065   5.905   6.203   0.112  0.3270 -0.2989 -0.1105
 4169TIP3    H134066   5.942   6.188   0.025  1.3662 -0.7280  0.3908
 4169TIP3    H234067   5.875   6.116   0.140  1.7360 -0.5302  0.7287
 4170TIP3   OH234068   5.789   4.217   7.391  0.4767 -0.0993 -0.3535
 4170TIP3    H134069   5.716   4.253   7.341 -0.5692 -1.3929  0.1924
 4170TIP3    H234070   5.804   4.130   7.354 -1.7306 -2.0174  2.7787
 4171TIP3   OH234071   6.229   0.671   8.303  0.5618  0.0534  0.5335
 4171TIP3    H134072   6.143   0.638   8.329  0.5232 -0.6810 -0.4983
 4171TIP3    H234073   6.215   0.713   8.218  1.3367 -0.6206  0.0602
 4172TIP3   OH234074   0.403   5.081   2.275  0.6672  0.6562 -0.0206
 4172TIP3    H134075   0.318   5.048   2.243  0.8243  2.3196 -2.3717
 4172TIP3    H234076   0.388   5.098   2.368 -0.6379 -1.9110  0.3406
 4173TIP3   OH234077   3.130   4.438   6.970  0.2954 -0.1261 -0.3438
 4173TIP3    H134078   3.207   4.420   7.024 -0.2784 -2.0823 -0.0771
 4173TIP3    H234079   3.150   4.521   6.927  2.6185 -0.6117 -0.3825
 4174TIP3   OH234080   4.681   0.644   1.584  0.0968 -0.0016 -0.6554
 4174TIP3    H134081   4.714   0.575   1.642  0.5095  0.2703 -0.5637
 4174TIP3    H234082   4.759   0.682   1.545 -0.0043  1.4852  0.4958
 4175TIP3   OH234083   6.190   6.476   0.128 -0.1756 -0.4515 -0.0630
 4175TIP3    H134084   6.254   6.546   0.111  0.8957 -1.5155 -0.5543
 4175TIP3    H234085   6.216   6.441   0.213 -1.5378  0.5873  0.8220
 4176TIP3   OH234086   2.549   3.784   6.737  0.0422  0.0596 -0.1543
 4176TIP3    H134087   2.610   3.849   6.771  0.4476  0.1024 -0.9346
 4176TIP3    H234088   2.553   3.712   6.799 -0.3830  0.7535  0.7052
 4177TIP3   OH234089   6.621   3.186   6.906 -0.1731 -0.1745 -0.0293
 4177TIP3    H134090   6.700   3.140   6.934 -0.1521 -0.1278 -0.0121
 4177TIP3    H234091   6.550   3.141   6.952  0.0035  0.9332  1.3847
 4178TIP3   OH234092   6.080   1.582   0.891  0.1219  0.2672  0.2346
 4178TIP3    H134093   6.075   1.658   0.949  0.3432  1.0060 -0.6883
 4178TIP3    H234094   6.170   1.551   0.900  0.7030  1.4763 -1.0270
 4179TIP3   OH234095   6.295   1.141   7.667 -0.4510 -0.6928  0.3823
 4179TIP3    H134096   6.293   1.090   7.586  0.7087 -0.0139 -0.0947
 4179TIP3    H234097   6.286   1.232   7.638 -0.1563 -0.4528  1.0244
 4180TIP3   OH234098   5.649   0.270   8.442 -0.5097  0.1825 -0.7832
 4180TIP3    H134099   5.725   0.239   8.493 -0.7697 -0.8964 -1.0187
 4180TIP3    H234100   5.579   0.275   8.507 -1.0022 -1.7958 -1.0952
 4181TIP3   OH234101   0.738   5.731   6.596 -0.0436  0.1613 -0.1894
 4181TIP3    H134102   0.800   5.703   6.529 -0.4781  0.3433 -0.6747
 4181TIP3    H234103   0.652   5.722   6.554 -0.2459  1.4039 -0.0660
 4182TIP3   OH234104   5.404   0.225   1.377  0.2020  0.6382  0.3764
 4182TIP3    H134105   5.437   0.304   1.421  0.3668  1.3947 -1.0440
 4182TIP3    H234106   5.462   0.214   1.301 -0.8973  0.1736 -0.4187
 4183TIP3   OH234107   1.064   5.171   8.018  0.3134 -0.6889  0.5157
 4183TIP3    H134108   1.097   5.164   8.107  0.5284 -0.1863  0.4796
 4183TIP3    H234109   1.054   5.081   7.989  1.3727 -0.8498  0.6327
 4184TIP3   OH234110   5.155   5.661   1.988  0.1964 -0.2821 -0.4910
 4184TIP3    H134111   5.112   5.587   1.945  1.0448 -0.7242 -0.6064
 4184TIP3    H234112   5.223   5.622   2.043  2.1835  0.4448 -2.2636
 4185TIP3   OH234113   1.760   3.117   6.614 -0.4217 -0.7540 -0.0404
 4185TIP3    H134114   1.674   3.114   6.570 -0.2422 -0.0595 -0.4554
 4185TIP3    H234115   1.806   3.189   6.571  0.1750 -0.7759  0.5535
 4186TIP3   OH234116   1.340   4.850   1.792 -0.2293  0.5993 -0.5829
 4186TIP3    H134117   1.303   4.849   1.881 -1.0282  0.8948 -0.9057
 4186TIP3    H234118   1.267   4.874   1.736  0.6873  2.2169 -1.1474
 4187TIP3   OH234119   4.020   4.945   7.503 -0.5546 -0.1587 -0.1670
 4187TIP3    H134120   4.085   4.879   7.476  0.2227  0.6399 -0.2878
 4187TIP3    H234121   3.936   4.906   7.480 -0.1477 -1.3734  0.3220
 4188TIP3   OH234122   5.647   4.985   7.174  0.5406 -0.4929  0.1358
 4188TIP3    H134123   5.637   4.977   7.079  1.0464 -0.4194  0.0752
 4188TIP3    H234124   5.721   4.928   7.196  0.2864 -0.6823  0.5183
 4189TIP3   OH234125   5.144   5.645   7.131 -0.5079  0.5358  0.9609
 4189TIP3    H134126   5.146   5.738   7.111 -0.3772  0.6583  1.5272
 4189TIP3    H234127   5.069   5.611   7.082  0.4250  0.6097 -0.5813
 4190TIP3   OH234128   6.447   5.978   1.749  0.6104 -0.2211  0.0662
 4190TIP3    H134129   6.483   5.927   1.823  0.3075 -0.6450 -0.0721
 4190TIP3    H234130   6.506   6.053   1.741  0.2850  0.1621  1.1469
 4191TIP3   OH234131   3.228   1.642   7.833 -0.6092  0.0135  0.5168
 4191TIP3    H134132   3.283   1.575   7.873 -1.4259 -2.1683 -1.7519
 4191TIP3    H234133   3.139   1.614   7.852 -0.9825  1.3121  0.7739
 4192TIP3   OH234134   0.586   5.913   1.527 -0.3702  0.2667 -0.1621
 4192TIP3    H134135   0.567   5.860   1.449 -0.6637  1.1561 -0.7073
 4192TIP3    H234136   0.647   5.859   1.578 -0.5439 -0.5323 -0.7713
 4193TIP3   OH234137   5.756   1.292   0.776  0.0496 -0.0994  0.0328
 4193TIP3    H134138   5.837   1.319   0.819  0.4692 -0.5920 -0.4348
 4193TIP3    H234139   5.749   1.199   0.796 -0.7248  0.0673  0.5755
 4194TIP3   OH234140   6.111   2.894   7.145 -0.2344  0.1881 -0.1288
 4194TIP3    H134141   6.070   2.830   7.087  0.8215 -0.9325  0.3109
 4194TIP3    H234142   6.115   2.975   7.094 -2.9837  0.3815 -0.1584
 4195TIP3   OH234143   2.950   5.062   7.694 -0.1160  0.3893  0.7164
 4195TIP3    H134144   3.035   5.073   7.738 -0.0855  2.3283  0.2887
 4195TIP3    H234145   2.964   4.991   7.632  1.5342  1.3310 -0.0635
 4196TIP3   OH234146   2.651   4.460   0.799 -0.2296 -0.1285 -0.1779
 4196TIP3    H134147   2.707   4.537   0.808  1.3293 -1.0387 -1.5441
 4196TIP3    H234148   2.710   4.390   0.771 -2.0273 -1.1662 -1.6635
 4197TIP3   OH234149   1.013   4.002   2.823 -0.1191  0.2287 -0.3134
 4197TIP3    H134150   1.092   4.024   2.773 -0.3007  0.4402 -0.5087
 4197TIP3    H234151   0.965   3.942   2.766 -0.4800  0.7155 -0.5368
 4198TIP3   OH234152   5.585   0.062   8.259  0.2491  0.0574  0.0547
 4198TIP3    H134153   5.589   0.132   8.324 -0.2542 -0.5129  0.7121
 4198TIP3    H234154   5.494   0.061   8.230  0.2287 -0.3700  0.1178
 4199TIP3   OH234155   4.415   2.198   0.397  0.5400 -0.0623 -0.7375
 4199TIP3    H134156   4.375   2.162   0.318  0.4815  1.3381 -1.3940
 4199TIP3    H234157   4.376   2.285   0.405  1.6835  0.4053 -0.0361
 4200TIP3   OH234158   4.649   5.278   1.657 -0.6721  0.1351  0.6404
 4200TIP3    H134159   4.693   5.359   1.632 -3.6623  1.7793  0.2458
 4200TIP3    H234160   4.673   5.215   1.589  0.0521  1.3001 -0.2151
 4201TIP3   OH234161   5.983   3.174   8.087  0.5603 -0.2942  0.0324
 4201TIP3    H134162   5.949   3.087   8.105 -0.4156  0.3534  1.4724
 4201TIP3    H234163   6.072   3.173   8.121  0.0671 -0.3127  1.3689
 4202TIP3   OH234164   4.459   4.768   0.291 -0.2551  0.7682 -0.2317
 4202TIP3    H134165   4.400   4.814   0.231 -0.2731  1.1180  0.0565
 4202TIP3    H234166   4.515   4.837   0.328 -1.2670  0.7873  1.3454
 4203TIP3   OH234167   1.036   6.342   1.549 -0.1094  0.6105 -0.8125
 4203TIP3    H134168   0.962   6.373   1.497 -0.6835 -1.1205 -1.1221
 4203TIP3    H234169   1.112   6.357   1.494 -0.3697  1.3559 -0.9782
 4204TIP3   OH234170   3.960   4.153   7.101 -0.1708 -0.0769 -0.0080
 4204TIP3    H134171   4.020   4.222   7.073  1.0581 -0.0100  2.5654
 4204TIP3    H234172   4.013   4.093   7.153 -2.1310 -0.4422  1.7256
 4205TIP3   OH234173   0.135   1.576   6.672  0.3762  0.0451 -0.5624
 4205TIP3    H134174   0.200   1.598   6.739  1.2023 -1.0287 -0.9755
 4205TIP3    H234175   0.061   1.540   6.721  0.9059 -0.5772 -0.2029
 4206TIP3   OH234176   2.845   3.497   0.659  0.2884 -0.6279  0.0016
 4206TIP3    H134177   2.907   3.455   0.599  0.7131  1.3397 -1.0188
 4206TIP3    H234178   2.863   3.456   0.744  1.7153 -1.3939 -0.6357
 4207TIP3   OH234179   0.408   2.307   6.020  0.4283  0.1233 -0.2505
 4207TIP3    H134180   0.346   2.251   6.066 -0.4037 -0.9980 -2.6102
 4207TIP3    H234181   0.493   2.265   6.035  0.3701  0.4344  1.1478
 4208TIP3   OH234182   1.699   3.373   0.314  0.1190  0.0981 -0.1952
 4208TIP3    H134183   1.700   3.391   0.221 -2.2365  1.3033 -0.0548
 4208TIP3    H234184   1.698   3.459   0.356 -1.2364 -0.3726  0.8278
 4209TIP3   OH234185   5.250   5.966   0.302  0.0534  0.2127  0.0436
 4209TIP3    H134186   5.269   6.007   0.217 -1.6312  0.6000 -0.1814
 4209TIP3    H234187   5.231   5.874   0.281 -1.4913  0.5545 -0.1931
 4210TIP3   OH234188   4.761   5.189   6.255 -0.0809  0.5020  0.7590
 4210TIP3    H134189   4.793   5.099   6.248 -2.0503 -0.1413 -0.9275
 4210TIP3    H234190   4.822   5.239   6.200  0.9098  0.2070  1.5489
 4211TIP3   OH234191   1.791   3.898   1.002 -0.3372  0.6020 -0.1788
 4211TIP3    H134192   1.797   3.992   0.988  2.4246  0.1100 -3.5543
 4211TIP3    H234193   1.725   3.868   0.939  0.8904  0.0322 -1.2354
 4212TIP3   OH234194   0.146   1.101   1.876 -0.6818  0.1341  0.4791
 4212TIP3    H134195   0.054   1.100   1.903 -1.1621 -1.3151 -1.0268
 4212TIP3    H234196   0.153   1.175   1.817 -0.8227  0.3597  0.7407
 4213TIP3   OH234197   1.920   2.758   8.272  0.1867 -0.1818  0.3820
 4213TIP3    H134198   1.955   2.670   8.257  0.6860  0.1703 -0.6523
 4213TIP3    H234199   1.994   2.816   8.257 -0.4213  0.4823 -0.1311
 4214TIP3   OH234200   3.376   2.060   1.802  0.0809 -0.0961  0.0088
 4214TIP3    H134201   3.324   2.137   1.825  0.4929 -0.1759  1.3141
 4214TIP3    H234202   3.326   1.986   1.836  0.1793 -0.3249 -0.3369
 4215TIP3   OH234203   6.028   3.147   1.838  0.0821 -0.0472  0.6869
 4215TIP3    H134204   6.111   3.117   1.874 -0.5329 -0.9542  1.4156
 4215TIP3    H234205   6.000   3.075   1.781 -0.7340 -0.2713  1.3430
 4216TIP3   OH234206   4.023   6.635   8.168 -0.5776  0.4981  0.1535
 4216TIP3    H134207   4.096   6.681   8.207  0.4891  2.4653 -3.6526
 4216TIP3    H234208   4.053   6.544   8.160  0.1895  0.6296  1.3313
 4217TIP3   OH234209   1.246   4.540   8.412  0.4560  0.6600  0.0629
 4217TIP3    H134210   1.169   4.492   8.441  0.2049 -0.5153 -2.3457
 4217TIP3    H234211   1.257   4.609   8.477 -2.0928  0.3328  0.9362
 4218TIP3   OH234212   4.710   3.076   2.091  0.2770  0.1551 -0.5021
 4218TIP3    H134213   4.682   3.090   2.182 -2.8208 -1.6430 -1.0275
 4218TIP3    H234214   4.739   2.985   2.089 -0.3361 -0.0361 -1.4160
 4219TIP3   OH234215   3.001   5.863   1.488 -0.3675 -0.0744 -0.0846
 4219TIP3    H134216   2.916   5.839   1.449 -0.4702 -0.9585  0.6328
 4219TIP3    H234217   2.979   5.930   1.553 -0.4425  0.0981 -0.2880
 4220TIP3   OH234218   0.736   3.604   0.719 -0.1559  0.2540 -0.4418
 4220TIP3    H134219   0.778   3.685   0.750  0.4823 -0.3094  0.1746
 4220TIP3    H234220   0.738   3.545   0.794 -0.6713 -0.3263 -0.8742
 4221TIP3   OH234221   0.310   2.982   7.725 -0.1600  0.0350  0.0282
 4221TIP3    H134222   0.346   2.946   7.644  0.9977  1.3048 -0.0755
 4221TIP3    H234223   0.327   2.915   7.791  0.1427 -0.4413 -0.5207
 4222TIP3   OH234224   6.402   4.998   7.185 -0.0764  0.2404 -0.3073
 4222TIP3    H134225   6.313   5.026   7.209  0.6752  1.4028  1.3203
 4222TIP3    H234226   6.393   4.965   7.096 -1.7884  2.1754 -0.9433
 4223TIP3   OH234227   5.893   3.289   2.334  0.0892 -0.0472 -0.2353
 4223TIP3    H134228   5.948   3.275   2.257  0.8598 -1.6242  0.5686
 4223TIP3    H234229   5.936   3.359   2.382  0.8109 -0.5448 -0.1484
 4224TIP3   OH234230   3.311   3.644   8.556  0.5935 -0.3922  0.3241
 4224TIP3    H134231   3.370   3.574   8.531  0.7398 -0.1853  0.0872
 4224TIP3    H234232   3.365   3.723   8.556  0.0354  0.0181 -1.2118
 4225TIP3   OH234233   5.814   3.565   0.392  0.1191 -0.1343 -0.0719
 4225TIP3    H134234   5.795   3.608   0.308 -0.6862 -0.4116 -0.0365
 4225TIP3    H234235   5.803   3.472   0.374 -0.5027 -0.1698  0.4490
 4226TIP3   OH234236   4.649   1.330   7.642 -0.0433 -0.3977  0.0394
 4226TIP3    H134237   4.670   1.248   7.686  0.3499 -0.8354 -0.9437
 4226TIP3    H234238   4.617   1.304   7.556  1.1005  0.4999 -0.6921
 4227TIP3   OH234239   5.029   1.789   1.096 -0.0743 -0.6469  0.4967
 4227TIP3    H134240   5.101   1.794   1.033 -0.6767 -0.8419 -0.2236
 4227TIP3    H234241   5.068   1.750   1.174  0.6706 -0.4564  0.2318
 4228TIP3   OH234242   2.076   3.947   0.687  0.0480  0.0676  0.3284
 4228TIP3    H134243   2.124   3.931   0.606  0.7574  0.8467  0.5858
 4228TIP3    H234244   2.134   3.917   0.757 -1.2625 -2.2831  0.5127
 4229TIP3   OH234245   4.155   3.113   1.095 -0.1800 -0.3986 -0.7818
 4229TIP3    H134246   4.090   3.058   1.050  0.6455  0.2991 -2.9569
 4229TIP3    H234247   4.111   3.197   1.107  0.1080 -0.1014 -1.7415
 4230TIP3   OH234248   0.910   5.913   0.236  0.0870 -0.2960 -0.1412
 4230TIP3    H134249   0.946   5.865   0.161 -1.9188 -0.2733 -1.1858
 4230TIP3    H234250   0.868   5.846   0.290  1.1284 -0.2498  0.7622
 4231TIP3   OH234251   4.213   6.103   0.113  0.1748  0.1520 -0.0946
 4231TIP3    H134252   4.283   6.115   0.050  0.0537 -1.9063 -0.6887
 4231TIP3    H234253   4.138   6.150   0.076  0.1215 -0.9754 -1.4892
 4232TIP3   OH234254   2.803   1.293   7.872 -0.1191 -0.4502  0.0212
 4232TIP3    H134255   2.724   1.271   7.922 -0.9999  0.0505 -1.1030
 4232TIP3    H234256   2.821   1.216   7.819  0.2438 -0.6166  0.3792
 4233TIP3   OH234257   3.524   3.269   7.720 -0.0702  0.2227  0.4135
 4233TIP3    H134258   3.454   3.334   7.725  0.6357  0.9376  1.5497
 4233TIP3    H234259   3.482   3.186   7.740 -1.3019  0.0025 -2.5472
 4234TIP3   OH234260   6.328   1.066   7.396 -0.0588  0.7094  0.0268
 4234TIP3    H134261   6.267   1.132   7.362 -0.2739  0.6319  0.2569
 4234TIP3    H234262   6.324   0.994   7.333 -0.2631  0.6727  0.0823
 4235TIP3   OH234263   2.989   0.557   8.414 -0.0792  0.2421 -0.1059
 4235TIP3    H134264   2.946   0.473   8.428  0.1585  0.1329 -0.0267
 4235TIP3    H234265   3.063   0.538   8.356  0.2406  0.3138  0.2667
 4236TIP3   OH234266   3.584   3.179   1.340  0.4626 -0.4360 -0.1074
 4236TIP3    H134267   3.649   3.203   1.275 -2.1012  1.8092 -2.0458
 4236TIP3    H234268   3.526   3.255   1.346 -0.8978 -1.5361  2.9762
 4237TIP3   OH234269   3.072   1.406   6.113 -0.2817 -0.1598  0.0417
 4237TIP3    H134270   3.036   1.317   6.113 -0.4965 -0.0734 -0.2317
 4237TIP3    H234271   3.158   1.397   6.156 -0.0496 -0.6050 -0.5093
 4238TIP3   OH234272   0.916   2.552   7.745  0.4723  0.0847  0.1848
 4238TIP3    H134273   0.933   2.466   7.785 -1.4928 -0.8529 -0.8705
 4238TIP3    H234274   0.880   2.604   7.817 -0.1613 -0.6153  0.3944
 4239TIP3   OH234275   4.087   1.804   1.141  0.0173  0.3330  0.1432
 4239TIP3    H134276   4.103   1.774   1.051 -3.8937  1.7640 -1.2544
 4239TIP3    H234277   4.025   1.739   1.176  1.8807 -0.4990  2.1270
 4240TIP3   OH234278   6.781   2.813   0.073  0.0821 -0.3278 -0.3679
 4240TIP3    H134279   6.826   2.739   0.114 -1.3093 -1.5525 -0.9475
 4240TIP3    H234280   6.733   2.855   0.144 -0.4312 -1.0118 -0.2932
 4241TIP3   OH234281   6.564   5.582   7.274 -0.4181 -0.1357  0.2139
 4241TIP3    H134282   6.629   5.652   7.276 -1.4116  0.8007  1.2858
 4241TIP3    H234283   6.560   5.555   7.182  0.0740  1.1341 -0.2017
 4242TIP3   OH234284   5.382   2.114   0.643  0.7955 -0.5545 -0.6332
 4242TIP3    H134285   5.466   2.136   0.682  0.8568 -1.9480  0.0932
 4242TIP3    H234286   5.377   2.018   0.649 -0.1308 -0.6394 -2.1407
 4243TIP3   OH234287   3.058   5.193   0.402 -0.3089 -0.1047 -0.0651
 4243TIP3    H134288   3.054   5.103   0.370  1.4912 -1.0226  2.0570
 4243TIP3    H234289   3.000   5.194   0.479  2.0576 -0.4071  1.8332
 4244TIP3   OH234290   4.219   2.658   6.929  0.3093 -0.0741  0.5020
 4244TIP3    H134291   4.313   2.645   6.921  0.0463 -1.1647 -1.2379
 4244TIP3    H234292   4.183   2.628   6.846 -1.4595  1.7284  0.5362
 4245TIP3   OH234293   3.931   4.844   6.463  0.7831  0.4094 -0.3766
 4245TIP3    H134294   3.837   4.827   6.466  0.5624  1.5622 -0.4023
 4245TIP3    H234295   3.941   4.929   6.506  1.4812  1.6013 -2.7337
 4246TIP3   OH234296   1.953   4.355   0.244  0.1481 -0.5931 -0.2595
 4246TIP3    H134297   1.997   4.355   0.159  0.2846 -1.4165 -0.2015
 4246TIP3    H234298   1.861   4.337   0.223  0.0076  0.1378 -0.3007
 4247TIP3   OH234299   4.119   4.365   0.257  0.3867 -0.1868  0.0143
 4247TIP3    H134300   4.169   4.405   0.329 -0.6244 -1.5009  1.5247
 4247TIP3    H234301   4.181   4.363   0.184  1.0712  2.3024  0.4339
 4248TIP3   OH234302   4.596   2.507   0.334 -0.2124  0.5071  0.0228
 4248TIP3    H134303   4.631   2.488   0.421 -1.1722  1.5885  0.6853
 4248TIP3    H234304   4.635   2.441   0.277  0.6776 -0.0362  1.2154
 4249TIP3   OH234305   1.370   5.440   2.512  0.6716  0.2090  0.7800
 4249TIP3    H134306   1.377   5.360   2.564  0.0765 -1.2799 -1.3195
 4249TIP3    H234307   1.430   5.426   2.439  0.2341  1.4998  0.1420
 4250TIP3   OH234308   5.540   1.092   7.873 -0.0258 -0.6888  0.0626
 4250TIP3    H134309   5.596   1.015   7.863  0.0370 -0.3966 -2.4707
 4250TIP3    H234310   5.589   1.162   7.830 -0.8317  0.3919  0.8555
 4251TIP3   OH234311   3.926   0.012   1.533 -0.9177 -1.2255 -0.0647
 4251TIP3    H134312   3.902   0.028   1.624 -0.4760  0.1879 -0.1615
 4251TIP3    H234313   3.920  -0.083   1.522 -0.9270 -1.4185  1.4387
 4252TIP3   OH234314   4.022   4.708   8.208 -0.2724  0.1295 -0.2905
 4252TIP3    H134315   4.069   4.671   8.133 -1.0898 -0.8947 -0.3072
 4252TIP3    H234316   4.074   4.785   8.232 -0.9023  1.5414 -3.0130
 4253TIP3   OH234317   3.856   5.736   1.885 -0.1222  0.5092 -0.5981
 4253TIP3    H134318   3.804   5.816   1.893 -0.7709  0.1151 -0.8147
 4253TIP3    H234319   3.857   5.717   1.792 -1.6825 -0.8314 -0.3835
 4254TIP3   OH234320   5.013   3.282   0.775  0.3476 -0.0701 -0.3376
 4254TIP3    H134321   5.082   3.342   0.803 -0.9214  1.1083  0.4628
 4254TIP3    H234322   4.943   3.340   0.743 -0.4971 -1.1773 -0.5661
 4255TIP3   OH234323   0.536   0.174   1.703 -0.5043 -0.4854 -0.0274
 4255TIP3    H134324   0.463   0.236   1.704 -0.3539 -0.3101  0.4539
 4255TIP3    H234325   0.581   0.189   1.786 -0.4301 -1.2024  0.0648
 4256TIP3   OH234326   6.479   2.092   0.369 -0.2727  0.9132  0.1348
 4256TIP3    H134327   6.429   2.110   0.290  1.8248  0.6315 -1.3347
 4256TIP3    H234328   6.565   2.131   0.353  1.3074 -1.9968  0.8305
 4257TIP3   OH234329   0.148   1.322   1.695 -0.0577  0.0379  0.1909
 4257TIP3    H134330   0.220   1.379   1.724  0.0740  0.9183 -1.7051
 4257TIP3    H234331   0.092   1.380   1.643 -0.9640 -1.1480 -0.1850
 4258TIP3   OH234332   5.681   5.792   8.401 -0.1594 -0.2839  0.7600
 4258TIP3    H134333   5.599   5.840   8.405  0.1591  0.4834 -1.1271
 4258TIP3    H234334   5.718   5.813   8.315  1.9990 -0.6376  1.5255
 4259TIP3   OH234335   1.426   1.471   7.218 -0.3559 -0.9177 -0.3231
 4259TIP3    H134336   1.516   1.472   7.249 -0.0079 -0.6036 -1.3065
 4259TIP3    H234337   1.387   1.393   7.258 -0.6034  0.5861  2.7022
 4260TIP3   OH234338   1.354   2.758   7.460 -0.2515 -0.1627 -0.3817
 4260TIP3    H134339   1.376   2.710   7.381  0.5793 -1.2686  0.4922
 4260TIP3    H234340   1.261   2.742   7.473 -0.3645 -0.0795 -1.0520
 4261TIP3   OH234341   1.283   3.073   2.535  0.1913 -0.2222  0.1738
 4261TIP3    H134342   1.372   3.073   2.502  0.9408  0.4880  2.0225
 4261TIP3    H234343   1.236   3.135   2.479  1.1282  0.1624 -0.2014
 4262TIP3   OH234344   6.518   5.576   7.009  0.1718 -0.0278  0.4922
 4262TIP3    H134345   6.457   5.508   6.979  0.4883 -0.4357  0.7693
 4262TIP3    H234346   6.584   5.581   6.939 -0.1353  0.3636  0.2261
 4263TIP3   OH234347   5.092   2.115   8.398 -0.4925  0.7525  0.1538
 4263TIP3    H134348   5.067   2.028   8.370 -0.8064  1.3911 -1.6957
 4263TIP3    H234349   5.145   2.150   8.326  0.0068  1.9285  1.0399
 4264TIP3   OH234350   6.312   1.475   0.959  0.1196  0.5924 -0.3258
 4264TIP3    H134351   6.308   1.437   1.047 -0.3131 -1.6842 -1.2759
 4264TIP3    H234352   6.406   1.477   0.938  0.1127 -0.6405 -0.5253
 4265TIP3   OH234353   0.314   1.901   2.162 -0.5804  0.0137  0.3067
 4265TIP3    H134354   0.310   1.990   2.198 -2.4232 -0.4950  1.5343
 4265TIP3    H234355   0.352   1.912   2.075 -1.0327  2.0499  0.3151
 4266TIP3   OH234356   3.379   0.770   1.266 -0.2819  0.1833  0.7468
 4266TIP3    H134357   3.448   0.834   1.283 -0.7676  1.3331 -1.1939
 4266TIP3    H234358   3.298   0.814   1.291 -0.5078 -0.2239  0.7475
 4267TIP3   OH234359   3.382   3.190   6.816 -0.0373  0.5047  0.0506
 4267TIP3    H134360   3.300   3.240   6.815 -0.3620 -0.0224 -0.9942
 4267TIP3    H234361   3.444   3.246   6.769  0.0261  0.6114  0.2598
 4268TIP3   OH234362   1.168   3.669   7.506  0.4840 -0.5039  0.1664
 4268TIP3    H134363   1.258   3.648   7.532  0.4116  0.5553  1.3680
 4268TIP3    H234364   1.115   3.648   7.583 -0.0828  0.3500  0.0171
 4269TIP3   OH234365   1.264   2.760   6.565 -0.3537  0.1843  0.0457
 4269TIP3    H134366   1.356   2.750   6.589 -0.1619  0.5056 -0.5259
 4269TIP3    H234367   1.218   2.696   6.619  0.4739 -1.7553 -1.4005
 4270TIP3   OH234368   5.691   1.990   8.209 -0.1939  0.0962 -0.5868
 4270TIP3    H134369   5.655   1.937   8.280  0.8941  1.8208  1.3809
 4270TIP3    H234370   5.632   2.066   8.204  1.1353  1.2389  0.2941
 4271TIP3   OH234371   4.428   2.830   6.936 -0.2687  0.1044 -0.0418
 4271TIP3    H134372   4.420   2.925   6.924 -0.0435  0.0378 -0.7400
 4271TIP3    H234373   4.520   2.811   6.916  0.0742 -0.0621  1.5547
 4272TIP3   OH234374   0.043   0.069   1.348  0.2321  0.4997  0.0419
 4272TIP3    H134375   0.138   0.056   1.352  0.0616 -1.5510 -1.2367
 4272TIP3    H234376   0.029   0.125   1.271  0.3330 -0.3678 -0.6183
 4273TIP3   OH234377   5.124   3.364   8.574  0.0552  0.0765 -0.1395
 4273TIP3    H134378   5.119   3.301   8.647 -1.7199  0.5671  0.2135
 4273TIP3    H234379   5.130   3.449   8.616 -0.0747  0.3073 -0.5830
 4274TIP3   OH234380   0.973   4.169   0.515 -0.3679 -0.1542  0.3461
 4274TIP3    H134381   0.981   4.261   0.487 -2.7199 -0.2198 -0.7934
 4274TIP3    H234382   0.997   4.170   0.607  1.1664  1.2988 -0.0059
 4275TIP3   OH234383   1.517   0.357   8.165  0.3100  0.1338 -0.3074
 4275TIP3    H134384   1.435   0.403   8.185  0.2552  0.0847 -0.4222
 4275TIP3    H234385   1.560   0.411   8.099  1.3168  1.2447  1.1744
 4276TIP3   OH234386   4.438   0.740   6.755  0.0045  0.3735  0.5905
 4276TIP3    H134387   4.529   0.760   6.780 -0.3862  0.1043  2.3083
 4276TIP3    H234388   4.444   0.714   6.663  1.7168  0.0462  0.7602
 4277TIP3   OH234389   5.357   5.956   2.427 -0.1311 -0.1096 -0.5058
 4277TIP3    H134390   5.301   5.973   2.502 -0.2324  2.7722 -1.1235
 4277TIP3    H234391   5.444   5.943   2.464 -0.6238 -1.4081  0.2442
 4278TIP3   OH234392   6.024   3.043   7.425 -0.1721  0.7206  0.0121
 4278TIP3    H134393   6.072   3.009   7.501 -0.3635  1.0306  0.2745
 4278TIP3    H234394   5.972   2.969   7.395 -1.2964  1.0189  1.1503
 4279TIP3   OH234395   1.557   4.424   7.769 -0.3268  0.1927 -0.2134
 4279TIP3    H134396   1.478   4.376   7.744 -1.2214  2.5159 -2.2259
 4279TIP3    H234397   1.543   4.445   7.862 -1.6805 -0.1619 -0.3121
 4280TIP3   OH234398   2.142   6.796   8.253 -0.0612  0.0346  0.3343
 4280TIP3    H134399   2.139   6.716   8.200  0.1364  1.5419 -2.1249
 4280TIP3    H234400   2.064   6.845   8.227  0.6476  1.3386  0.5947
 4281TIP3   OH234401   2.366   3.245   1.068 -0.7884  0.2059  0.1287
 4281TIP3    H134402   2.410   3.172   1.025  2.5490  1.1760  1.5174
 4281TIP3    H234403   2.367   3.222   1.161  0.6795  2.0602  0.6456
 4282TIP3   OH234404   6.005   4.860   0.792  0.3624 -0.6948  0.2110
 4282TIP3    H134405   6.054   4.801   0.849 -0.0541 -2.3294 -1.0549
 4282TIP3    H234406   5.914   4.853   0.823  0.5220  0.6208  1.1128
 4283TIP3   OH234407   6.858   2.017   0.502  0.4824 -0.1164  0.5236
 4283TIP3    H134408   6.800   2.091   0.514  2.3225  1.1966  1.8834
 4283TIP3    H234409   6.910   2.038   0.424  1.2688  0.2342  1.1300
 4284TIP3   OH234410   3.816   6.489   0.975 -0.0168  0.0423  0.3364
 4284TIP3    H134411   3.751   6.502   0.906  1.0327  0.1650 -0.6582
 4284TIP3    H234412   3.827   6.394   0.980 -1.2588 -0.0596  1.4688
 4285TIP3   OH234413   5.302   5.371   7.252  0.5093 -0.5185 -0.4906
 4285TIP3    H134414   5.373   5.345   7.311 -0.7726 -1.8987  0.5100
 4285TIP3    H234415   5.332   5.344   7.165  2.1684  1.0022 -0.4553
 4286TIP3   OH234416   5.385   3.986   8.639 -0.1627 -0.1033  0.1892
 4286TIP3    H134417   5.300   3.948   8.661 -0.0510 -0.8540 -0.6153
 4286TIP3    H234418   5.376   4.014   8.547  1.2952 -2.7968 -0.8908
 4287TIP3   OH234419   5.902   1.771   1.119 -0.2622  0.4133  0.0206
 4287TIP3    H134420   5.932   1.854   1.156  1.1303 -0.2658  0.4878
 4287TIP3    H234421   5.843   1.735   1.186  1.4938 -0.3553  1.2453
 4288TIP3   OH234422   5.081   6.823   1.346  0.4933  0.1347  0.2075
 4288TIP3    H134423   5.170   6.801   1.319  0.7115 -2.0621  2.3802
 4288TIP3    H234424   5.026   6.753   1.309  0.2114 -0.4915  1.7346
 4289TIP3   OH234425   5.729   3.025   0.195 -0.2851 -0.2004  0.0739
 4289TIP3    H134426   5.766   3.025   0.107  1.5324 -1.3422  0.7694
 4289TIP3    H234427   5.643   2.985   0.185 -0.6097  0.7732 -1.3333
 4290TIP3   OH234428   6.166   0.607   6.852 -0.0725 -0.5013  0.2850
 4290TIP3    H134429   6.106   0.536   6.871 -0.3447 -0.2027  0.5681
 4290TIP3    H234430   6.226   0.572   6.786  0.4240 -1.3215  1.1457
 4291TIP3   OH234431   2.365   4.236   1.268  0.1564 -0.3417  0.1768
 4291TIP3    H134432   2.426   4.207   1.200  2.0958 -0.0002  1.6978
 4291TIP3    H234433   2.383   4.179   1.342 -0.9402  0.1993  0.8787
 4292TIP3   OH234434   6.479   5.497   8.169 -0.4609 -0.7145  0.0440
 4292TIP3    H134435   6.559   5.544   8.145 -1.0203  0.1972 -0.0889
 4292TIP3    H234436   6.416   5.521   8.101 -1.6018  0.6013  1.5003
 4293TIP3   OH234437   4.578   0.193   8.162 -0.2990  0.6189  0.1342
 4293TIP3    H134438   4.623   0.186   8.078  0.9901 -0.0146  0.8400
 4293TIP3    H234439   4.604   0.114   8.210 -2.0983  0.2889  0.6384
 4294TIP3   OH234440   4.906   0.936   1.242 -0.4072 -0.1916  0.0249
 4294TIP3    H134441   4.966   0.876   1.198 -1.9281 -2.3832  0.7561
 4294TIP3    H234442   4.945   1.023   1.229  1.4061 -1.1956 -1.8957
 4295TIP3   OH234443   6.052   4.742   0.490  0.1981  0.2649  0.4282
 4295TIP3    H134444   6.056   4.826   0.535  1.3531  0.8398 -0.6690
 4295TIP3    H234445   6.038   4.765   0.398  0.3149 -0.7593  0.1426
 4296TIP3   OH234446   1.397   0.734   0.217 -0.3305 -0.4365 -0.0408
 4296TIP3    H134447   1.484   0.721   0.256 -1.4173 -1.4068  2.2519
 4296TIP3    H234448   1.399   0.823   0.183  1.5712 -0.4589 -0.0894
 4297TIP3   OH234449   5.450   5.919   8.360 -0.4802 -0.0703  0.6138
 4297TIP3    H134450   5.423   5.913   8.268 -1.0687  0.6413  0.7294
 4297TIP3    H234451   5.376   5.883   8.409  0.2568 -1.4151  0.7709
 4298TIP3   OH234452   2.437   1.861   2.089  0.5746 -0.4403 -0.1470
 4298TIP3    H134453   2.459   1.952   2.070  0.3288 -0.3074  0.2037
 4298TIP3    H234454   2.368   1.839   2.027  0.3567 -0.2649  0.0335
 4299TIP3   OH234455   6.213   5.358   1.708 -0.2159 -0.4958  0.5260
 4299TIP3    H134456   6.243   5.425   1.646  0.9297 -2.1749 -0.8227
 4299TIP3    H234457   6.238   5.392   1.794 -1.2583  1.5927  0.0745
 4300TIP3   OH234458   0.533   3.809   2.346  0.7181 -0.2115 -0.3280
 4300TIP3    H134459   0.628   3.813   2.354  0.7485 -0.7924 -0.3447
 4300TIP3    H234460   0.512   3.869   2.274  0.8576  1.5912  1.0645
 4301TIP3   OH234461   3.870   6.409   8.363 -0.5454  0.3222 -0.6461
 4301TIP3    H134462   3.821   6.480   8.322 -1.7866  0.5032  1.0522
 4301TIP3    H234463   3.826   6.329   8.334 -0.1962  0.3202 -1.1976
 4302TIP3   OH234464   3.952   5.412   2.218  0.3795 -0.3299 -0.7386
 4302TIP3    H134465   3.889   5.347   2.185 -0.4036  0.2982 -0.5160
 4302TIP3    H234466   3.908   5.451   2.293  1.8657 -1.2893  0.7035
 4303TIP3   OH234467   1.284   2.256   0.648  0.5916 -0.2265  0.0604
 4303TIP3    H134468   1.344   2.233   0.576  0.7247 -1.0294  0.4181
 4303TIP3    H234469   1.341   2.292   0.716  0.5596 -0.1888  0.0671
 4304TIP3   OH234470   5.086   2.891   7.877 -0.0548  0.2817  0.2924
 4304TIP3    H134471   5.127   2.955   7.935 -0.0400 -0.3674  1.0078
 4304TIP3    H234472   5.026   2.842   7.934  0.8729 -1.1996  0.0581
 4305TIP3   OH234473   3.854   4.704   6.714  0.2573 -0.2183 -0.5285
 4305TIP3    H134474   3.776   4.737   6.759 -0.5137 -0.3246 -1.7518
 4305TIP3    H234475   3.824   4.684   6.625  2.1706  2.0296 -1.8027
 4306TIP3   OH234476   4.249   1.153   1.682 -0.1308  0.2474 -0.3174
 4306TIP3    H134477   4.166   1.188   1.713 -0.8584  0.6348 -2.5190
 4306TIP3    H234478   4.240   1.059   1.691 -0.7317  0.2967 -0.3572
 4307TIP3   OH234479   6.234   2.935   1.016 -0.1229  0.3582  0.2147
 4307TIP3    H134480   6.211   2.843   1.019 -0.4651  0.4558  1.8424
 4307TIP3    H234481   6.330   2.936   1.019 -0.1401  0.0461  2.0400
 4308TIP3   OH234482   5.548   2.799   7.658  0.3775 -0.1895  0.1913
 4308TIP3    H134483   5.618   2.861   7.677 -0.4100  0.4694  1.0346
 4308TIP3    H234484   5.474   2.854   7.629 -0.4658 -0.6676  1.3424
 4309TIP3   OH234485   0.767   4.091   8.503  0.2297  0.4899  0.4988
 4309TIP3    H134486   0.786   4.090   8.597  0.6990 -2.1196  0.4679
 4309TIP3    H234487   0.684   4.137   8.495 -0.1965  0.1151  2.2967
 4310TIP3   OH234488   5.183   2.512   1.789 -0.3322 -0.6438 -0.3133
 4310TIP3    H134489   5.179   2.571   1.864 -0.6344 -1.9763  0.7472
 4310TIP3    H234490   5.276   2.489   1.781 -0.1035  0.4620 -1.1567
 4311TIP3   OH234491   2.735   2.063   8.092  0.0571  0.4159 -0.8483
 4311TIP3    H134492   2.660   2.062   8.152 -0.6414 -2.0615 -1.6415
 4311TIP3    H234493   2.804   2.015   8.138  0.4666  0.9113 -0.9386
 4312TIP3   OH234494   6.732   1.515   7.878 -0.6558  0.0834 -0.1404
 4312TIP3    H134495   6.639   1.512   7.856 -0.3059  0.2757 -1.7300
 4312TIP3    H234496   6.775   1.546   7.799  1.0469 -2.6070 -0.4255
 4313TIP3   OH234497   0.784   5.028   1.586  0.4819  0.0024 -0.2936
 4313TIP3    H134498   0.851   4.985   1.533  0.0055 -1.6135  0.3735
 4313TIP3    H234499   0.813   5.014   1.677 -0.7473 -0.7149 -0.0006
 4314TIP3   OH234500   6.789   5.938   7.037  0.3863  0.2944 -0.3475
 4314TIP3    H134501   6.762   6.018   6.992 -0.4935 -0.2283 -0.7596
 4314TIP3    H234502   6.791   5.963   7.130 -0.9986  0.4998 -0.3565
 4315TIP3   OH234503   1.001   4.208   7.948 -0.1485 -0.3000 -0.1340
 4315TIP3    H134504   0.936   4.143   7.976  0.7483 -0.4267  1.7900
 4315TIP3    H234505   0.950   4.273   7.899 -1.3984 -1.3808 -0.3295
 4316TIP3   OH234506   1.379   1.042   6.805  0.4681  0.1701 -0.2844
 4316TIP3    H134507   1.450   1.036   6.740  0.5658  0.6848 -0.2318
 4316TIP3    H234508   1.422   1.023   6.888  0.0703 -1.8851 -0.5080
 4317TIP3   OH234509   6.499   0.435   8.190  0.1547 -0.2439 -0.3422
 4317TIP3    H134510   6.496   0.441   8.094 -0.7005  0.3059 -0.2925
 4317TIP3    H234511   6.577   0.383   8.208  0.0377 -0.8013 -1.3568
 4318TIP3   OH234512   4.890   0.005   6.042  0.0792  0.0734 -0.0644
 4318TIP3    H134513   4.944  -0.072   6.025  0.6567  0.4246  0.1688
 4318TIP3    H234514   4.952   0.077   6.054 -0.4282  0.4455  0.4154
 4319TIP3   OH234515   6.579   5.873   1.531  0.3361  0.5003  0.0306
 4319TIP3    H134516   6.614   5.790   1.563  0.7258  0.4585 -0.5156
 4319TIP3    H234517   6.539   5.912   1.609  0.8729  0.1829  0.4714
 4320TIP3   OH234518   5.463   1.246   1.366  0.0089 -0.6718  0.2763
 4320TIP3    H134519   5.554   1.278   1.370  0.3462 -1.7430  1.5768
 4320TIP3    H234520   5.466   1.177   1.299  0.1349 -0.6796  0.2889
 4321TIP3   OH234521   1.850   3.785   8.616  0.1910  0.5823 -0.0494
 4321TIP3    H134522   1.936   3.794   8.576  1.0533 -1.3864  1.2030
 4321TIP3    H234523   1.833   3.870   8.656  1.1504  1.2729 -1.0523
 4322TIP3   OH234524   2.100   3.083   0.744 -0.3838 -0.6814  0.4895
 4322TIP3    H134525   2.154   3.027   0.688  0.1368 -0.3443  0.6442
 4322TIP3    H234526   2.160   3.150   0.776 -1.4319  1.3594 -1.4858
 4323TIP3   OH234527   5.305   4.607   0.562 -0.0420  0.5247 -0.1896
 4323TIP3    H134528   5.220   4.645   0.539  0.6915  1.5595 -1.3141
 4323TIP3    H234529   5.291   4.512   0.553 -0.1005  0.7055 -4.4762
 4324TIP3   OH234530   0.779   5.756   0.434  0.0594 -0.3655  0.1128
 4324TIP3    H134531   0.718   5.808   0.486 -0.1913 -0.2981 -0.2473
 4324TIP3    H234532   0.758   5.665   0.456 -1.1962 -0.4133 -1.1231
 4325TIP3   OH234533   5.599   4.178   1.874 -0.1625 -0.3367  0.3779
 4325TIP3    H134534   5.631   4.144   1.957  0.1945 -0.6387  0.1235
 4325TIP3    H234535   5.674   4.224   1.837 -1.1747  2.5119  1.6149
 4326TIP3   OH234536   4.539   2.877   0.916 -0.0359  0.0029  0.2252
 4326TIP3    H134537   4.570   2.952   0.865  1.5733  0.6266  1.9905
 4326TIP3    H234538   4.468   2.912   0.970 -0.8588 -0.3472 -0.5945
 4327TIP3   OH234539   5.132   5.575   7.747 -0.8657  0.2789 -0.1652
 4327TIP3    H134540   5.066   5.542   7.808 -0.6812  0.0700 -0.0796
 4327TIP3    H234541   5.086   5.642   7.696 -1.6786 -1.1298 -1.3657
 4328TIP3   OH234542   6.216   4.426   1.629 -0.6528 -0.7648 -0.3515
 4328TIP3    H134543   6.217   4.470   1.544  0.6532 -0.1073 -0.0183
 4328TIP3    H234544   6.149   4.472   1.679 -0.7590 -0.5259 -0.7103
 4329TIP3   OH234545   1.144   3.628   1.672 -0.8153  0.3391 -0.0442
 4329TIP3    H134546   1.179   3.540   1.661  0.9048  0.8946  0.6412
 4329TIP3    H234547   1.221   3.685   1.669 -1.8814  1.8256 -0.4400
 4330TIP3   OH234548   2.421   4.373   7.346 -0.2148 -0.2682 -0.5498
 4330TIP3    H134549   2.475   4.321   7.406 -0.6892 -0.6650 -0.4611
 4330TIP3    H234550   2.341   4.391   7.396 -0.9079 -1.1935 -1.3019
 4331TIP3   OH234551   0.454   1.812   8.048  0.2749  0.5909  0.3556
 4331TIP3    H134552   0.467   1.770   8.133  1.2662  0.8997  0.3767
 4331TIP3    H234553   0.387   1.879   8.064  1.2627  1.4091  1.1796
 4332TIP3   OH234554   3.722   5.679   1.492 -0.2506  0.0320 -0.4431
 4332TIP3    H134555   3.785   5.749   1.473 -1.1606  1.3570  1.2029
 4332TIP3    H234556   3.650   5.695   1.431  1.0530 -1.7138 -2.5994
 4333TIP3   OH234557   5.815   6.560   7.291  0.4251  0.4985 -0.0656
 4333TIP3    H134558   5.840   6.534   7.379  4.4529  3.7572  0.0603
 4333TIP3    H234559   5.732   6.607   7.302  1.1479  1.3567  2.1417
 4334TIP3   OH234560   0.245   1.431   0.319  0.1009  0.3999  0.5621
 4334TIP3    H134561   0.306   1.426   0.393 -0.6834  2.8428  1.4601
 4334TIP3    H234562   0.224   1.524   0.311 -3.2727 -0.2735  0.1008
 4335TIP3   OH234563   2.455   3.840   1.310 -0.2166 -0.0814 -0.2244
 4335TIP3    H134564   2.394   3.773   1.279  0.2222 -0.5867  0.0000
 4335TIP3    H234565   2.399   3.909   1.347 -0.6317 -0.8087  0.5233
 4336TIP3   OH234566   3.656   1.823   7.987  0.3978 -0.2017  0.1862
 4336TIP3    H134567   3.711   1.744   7.991  0.3466 -0.2610 -0.2015
 4336TIP3    H234568   3.601   1.809   7.910  0.8130  0.4824 -0.2522
 4337TIP3   OH234569   1.214   5.640   7.059 -0.4193  0.0421  0.4279
 4337TIP3    H134570   1.229   5.636   6.964 -1.2106  0.6734  0.2522
 4337TIP3    H234571   1.153   5.714   7.069 -1.4933 -0.9177  1.2704
 4338TIP3   OH234572   0.593   6.281   7.617 -0.4833 -0.4936  0.5363
 4338TIP3    H134573   0.569   6.348   7.681 -2.8613 -0.2317 -0.5069
 4338TIP3    H234574   0.600   6.328   7.534 -0.2200 -1.2396  0.1234
 4339TIP3   OH234575   6.474   4.927   0.377  0.9569 -0.2395  0.1134
 4339TIP3    H134576   6.537   4.949   0.308 -0.2430 -0.1954 -1.0078
 4339TIP3    H234577   6.480   4.832   0.386  1.2807 -0.2192  0.1146
 4340TIP3   OH234578   0.041   2.408   1.033  0.2536 -0.0847 -0.7487
 4340TIP3    H134579   0.107   2.359   0.983  1.4385 -0.7833  1.3794
 4340TIP3    H234580   0.050   2.376   1.123  0.1445  3.0857  0.5206
 4341TIP3   OH234581   2.628   0.537   1.916  0.5045 -0.0368 -0.0798
 4341TIP3    H134582   2.556   0.474   1.918  2.0412 -1.8659  1.3630
 4341TIP3    H234583   2.695   0.494   1.863  0.7040  1.5007 -1.1434
 4342TIP3   OH234584   4.350   2.160   2.311 -0.3970 -1.0144 -0.6747
 4342TIP3    H134585   4.426   2.110   2.283  1.3859  1.3772 -0.4223
 4342TIP3    H234586   4.375   2.251   2.298 -0.9137  0.2215  4.6198
 4343TIP3   OH234587   3.923   0.686   7.265  0.0806 -0.4192  0.2690
 4343TIP3    H134588   3.937   0.599   7.301  1.5986 -0.6733 -0.8550
 4343TIP3    H234589   3.975   0.744   7.320  0.4224 -0.4692  0.0039
 4344TIP3   OH234590   5.440   5.903   0.927  0.6828  0.2039  0.0179
 4344TIP3    H134591   5.468   5.994   0.914  1.9581 -0.0749  0.6797
 4344TIP3    H234592   5.424   5.897   1.021  0.2125 -0.1578 -0.0849
 4345TIP3   OH234593   6.626   5.980   0.195 -0.0937  0.1130  0.0595
 4345TIP3    H134594   6.703   5.999   0.248 -0.8690  0.3131  1.1373
 4345TIP3    H234595   6.645   5.894   0.156  0.6868  0.1817  0.2589
 4346TIP3   OH234596   6.348   4.748   0.846 -0.0595 -0.0795 -0.0657
 4346TIP3    H134597   6.329   4.664   0.803 -2.4883  0.1554  0.3822
 4346TIP3    H234598   6.332   4.813   0.779 -1.5819  0.1607  0.4841
 4347TIP3   OH234599   4.183   1.643   0.326 -0.6015  0.0837 -0.2500
 4347TIP3    H134600   4.115   1.708   0.315  0.8080  1.6745 -0.0052
 4347TIP3    H234601   4.177   1.615   0.418 -0.9456  0.1829 -0.2453
 4348TIP3   OH234602   2.471   1.292   6.922 -0.2270  0.1353  0.9899
 4348TIP3    H134603   2.420   1.362   6.882  1.5636  0.9824  0.0787
 4348TIP3    H234604   2.427   1.274   7.005 -0.8827  2.1522  1.1271
 4349TIP3   OH234605   2.643   3.811   0.466  0.5333 -0.1151 -0.1978
 4349TIP3    H134606   2.593   3.756   0.406 -0.2218  0.1162  0.2125
 4349TIP3    H234607   2.661   3.755   0.541 -2.3878  0.8531  1.3515
 4350TIP3   OH234608   2.807   1.855   1.707  0.0230  0.2916 -0.1699
 4350TIP3    H134609   2.764   1.911   1.771  0.1886  0.8832 -0.5751
 4350TIP3    H234610   2.890   1.832   1.748 -0.5987 -0.7540  0.5612
 4351TIP3   OH234611   1.360   2.783   0.586  0.5834 -0.4649  0.0349
 4351TIP3    H134612   1.338   2.775   0.679  0.7532 -0.3161  0.0884
 4351TIP3    H234613   1.450   2.816   0.585  0.6157 -0.5575 -0.1831
 4352TIP3   OH234614   0.994   3.415   8.150 -0.2236  0.1017  0.5902
 4352TIP3    H134615   1.077   3.383   8.114 -0.2075  0.7989 -0.0278
 4352TIP3    H234616   0.947   3.336   8.177 -0.2564 -0.4657 -1.0288
 4353TIP3   OH234617   4.695   2.142   7.028  0.4338 -0.2468  0.1860
 4353TIP3    H134618   4.738   2.136   6.943  0.2628  0.2783  0.0539
 4353TIP3    H234619   4.645   2.224   7.023 -0.4346 -0.7422  0.3932
 4354TIP3   OH234620   2.907   4.143   7.244  0.1073 -0.4010  0.4095
 4354TIP3    H134621   2.838   4.202   7.274 -2.2768 -3.8470  2.2423
 4354TIP3    H234622   2.895   4.139   7.149 -0.3687  1.1326  0.3781
 4355TIP3   OH234623   3.313   2.819   7.990 -0.1439  0.2187 -0.0889
 4355TIP3    H134624   3.241   2.785   8.043  1.8120 -1.3995  1.7509
 4355TIP3    H234625   3.363   2.874   8.050  1.1198 -0.1324 -0.7760
 4356TIP3   OH234626   0.922   4.857   8.456  0.3519  0.2460 -0.2179
 4356TIP3    H134627   0.861   4.923   8.488  0.1569  0.6771 -1.4266
 4356TIP3    H234628   0.957   4.816   8.535 -0.7099  0.7132  0.5108
 4357TIP3   OH234629   4.315   1.046   8.126  0.0194  0.3692  0.5883
 4357TIP3    H134630   4.249   0.978   8.110  0.2195  0.0419  1.1107
 4357TIP3    H234631   4.265   1.124   8.149 -0.1873 -0.3286  2.7256
 4358TIP3   OH234632   5.365   2.377   2.171 -0.1696  0.4230 -0.2857
 4358TIP3    H134633   5.346   2.469   2.155 -0.6438  0.0822 -1.8416
 4358TIP3    H234634   5.455   2.365   2.140 -0.2507  0.2862 -0.4746
 4359TIP3   OH234635   0.496   4.999   6.480 -0.0097 -0.5265 -0.0322
 4359TIP3    H134636   0.533   4.961   6.401 -1.0792 -0.0078 -0.8020
 4359TIP3    H234637   0.492   5.093   6.463  0.2181 -0.3451  0.8422
 4360TIP3   OH234638   6.147   1.760   7.529 -0.3389  0.3819 -0.6487
 4360TIP3    H134639   6.222   1.779   7.585 -1.1525 -1.0639  1.0181
 4360TIP3    H234640   6.185   1.720   7.450  0.6131 -1.9486  0.8938
 4361TIP3   OH234641   4.842   4.604   1.261  0.5638  0.3361 -0.0229
 4361TIP3    H134642   4.884   4.676   1.309 -1.3318  0.9878  0.7382
 4361TIP3    H234643   4.911   4.572   1.202  1.9580  1.6833  0.7775
 4362TIP3   OH234644   0.914   2.473   7.073  0.6807  0.1405 -0.2327
 4362TIP3    H134645   0.989   2.460   7.131  1.2588  1.4109 -0.6565
 4362TIP3    H234646   0.950   2.521   6.998 -0.1399 -1.0676 -1.4492
 4363TIP3   OH234647   2.127   5.907   1.639  0.4755  0.0882 -0.1411
 4363TIP3    H134648   2.098   5.927   1.550  0.5525  0.2232 -0.1363
 4363TIP3    H234649   2.215   5.871   1.627  0.6451  0.4826 -0.0878
 4364TIP3   OH234650   1.981   0.570   0.853  0.2630 -0.2051 -0.1775
 4364TIP3    H134651   1.939   0.637   0.906 -1.5011 -0.6320 -0.9520
 4364TIP3    H234652   1.972   0.601   0.763  0.2407 -1.0393 -0.4780
 4365TIP3   OH234653   3.594   2.881   1.955  0.6389 -0.4468 -0.6299
 4365TIP3    H134654   3.675   2.930   1.968 -0.1160  0.5653  0.4703
 4365TIP3    H234655   3.541   2.900   2.033  0.1049 -2.6306 -0.3974
 4366TIP3   OH234656   6.662   4.423   7.176 -0.1966 -0.4342  0.5767
 4366TIP3    H134657   6.663   4.344   7.122  0.6904 -1.0170  1.4055
 4366TIP3    H234658   6.730   4.479   7.140  0.6764 -0.9976  1.3105
 4367TIP3   OH234659   6.069   2.067   7.897  0.3531  0.2360 -0.5394
 4367TIP3    H134660   6.053   2.083   7.804  0.2342  0.0208 -0.5564
 4367TIP3    H234661   6.041   2.148   7.940 -1.3949 -0.3486 -0.5031
 4368TIP3   OH234662   2.474   4.494   1.094 -0.1070 -0.3417  0.5851
 4368TIP3    H134663   2.566   4.513   1.078 -0.0814 -1.5734 -0.9825
 4368TIP3    H234664   2.454   4.421   1.035 -1.7287 -1.0241  1.9019
 4369TIP3   OH234665   1.626   0.206   6.570 -0.0441  0.3461  0.2574
 4369TIP3    H134666   1.629   0.125   6.519 -0.5728  0.0253  0.7305
 4369TIP3    H234667   1.718   0.230   6.582  0.0936  0.3530 -0.7205
 4370TIP3   OH234668   0.661   5.375   0.992 -0.2370 -0.1548  0.0573
 4370TIP3    H134669   0.683   5.288   1.026 -0.3213 -0.5180 -0.8035
 4370TIP3    H234670   0.593   5.359   0.927  0.6780  0.4097 -1.0666
 4371TIP3   OH234671   4.495   5.294   0.630 -0.1721  0.2625  0.3103
 4371TIP3    H134672   4.405   5.308   0.657 -1.4446 -0.0263 -3.2474
 4371TIP3    H234673   4.511   5.364   0.566  1.7426 -0.3750  0.0366
 4372TIP3   OH234674   4.771   1.865   7.544  0.2194 -0.6041 -0.2256
 4372TIP3    H134675   4.739   1.927   7.477 -2.1124 -0.6510  0.7363
 4372TIP3    H234676   4.742   1.779   7.512 -2.7177 -0.4515  1.6588
 4373TIP3   OH234677   4.403   2.619   7.929  0.3282  0.1257 -0.0786
 4373TIP3    H134678   4.484   2.569   7.914  0.5556  0.7893 -1.2284
 4373TIP3    H234679   4.395   2.624   8.024  2.0740  0.7252  0.0751
 4374TIP3   OH234680   1.737   0.812   1.673  0.0530  0.4306 -0.6585
 4374TIP3    H134681   1.684   0.733   1.668 -0.2493  0.7102 -2.4277
 4374TIP3    H234682   1.699   0.862   1.746  0.1227 -0.9313  0.3413
 4375TIP3   OH234683   4.749   6.592   8.430 -0.4554  0.8965 -0.4280
 4375TIP3    H134684   4.762   6.686   8.433  1.5932  0.6419  0.3983
 4375TIP3    H234685   4.716   6.569   8.517  1.3314  0.6221  0.2275
 4376TIP3   OH234686   0.630   6.495   7.784  0.1582 -0.5231  0.3528
 4376TIP3    H134687   0.561   6.543   7.831  0.3539 -0.3580  0.4717
 4376TIP3    H234688   0.711   6.526   7.823  0.5188  1.5715 -1.8378
 4377TIP3   OH234689   2.073   1.868   0.896 -0.3199  0.1167 -0.2716
 4377TIP3    H134690   2.137   1.918   0.846  1.2120 -0.0666  1.4038
 4377TIP3    H234691   1.995   1.923   0.898  0.9266  1.9498  0.5083
 4378TIP3   OH234692   0.690   1.526   0.732  0.1278  0.0860  0.2943
 4378TIP3    H134693   0.652   1.458   0.677 -3.7500  2.1733  0.0700
 4378TIP3    H234694   0.761   1.482   0.779 -0.0941 -3.2159 -2.1144
 4379TIP3   OH234695   0.921   6.607   7.656 -0.5854 -0.0196  0.3211
 4379TIP3    H134696   0.856   6.563   7.600  0.3296 -0.4999 -0.3815
 4379TIP3    H234697   0.974   6.536   7.692  0.1381  0.4329  0.1534
 4380TIP3   OH234698   6.132   4.290   2.025  0.3146  0.2131 -0.4058
 4380TIP3    H134699   6.064   4.264   2.087 -0.1582  0.4256 -0.8296
 4380TIP3    H234700   6.132   4.386   2.027  1.4665  0.2163  0.5160
 4381TIP3   OH234701   2.046   2.478   1.981  0.2819  0.1766  0.3252
 4381TIP3    H134702   2.085   2.405   1.932 -1.1955 -0.4858  0.1033
 4381TIP3    H234703   2.114   2.502   2.044  0.7897 -1.4109  0.4359
 4382TIP3   OH234704   5.967   1.130   0.099 -0.1955  0.7193  0.1430
 4382TIP3    H134705   5.894   1.190   0.084 -0.5296  0.4551  0.6727
 4382TIP3    H234706   6.043   1.187   0.111 -0.1803  0.9739 -1.0885
 4383TIP3   OH234707   3.412   6.377   0.058  0.2541 -0.4776  0.0214
 4383TIP3    H134708   3.406   6.467   0.026 -0.2497 -0.6459 -0.3736
 4383TIP3    H234709   3.465   6.331  -0.007  0.3838 -0.5026  0.1437
 4384TIP3   OH234710   1.576   1.142   1.024  0.2699 -0.0364 -0.0152
 4384TIP3    H134711   1.481   1.126   1.024 -0.5068  3.4728 -2.3436
 4384TIP3    H234712   1.609   1.083   0.957 -0.3501 -0.7707  0.2974
 4385TIP3   OH234713   0.383   6.106   0.032 -0.0327 -0.0382  0.2062
 4385TIP3    H134714   0.390   6.037  -0.034 -0.0533  0.2466 -0.0994
 4385TIP3    H234715   0.437   6.076   0.105 -1.3494 -1.1409  0.7526
 4386TIP3   OH234716   5.692   3.124   7.761 -0.3531 -0.0267  0.3037
 4386TIP3    H134717   5.762   3.063   7.785 -0.3017  0.1187  0.5234
 4386TIP3    H234718   5.669   3.099   7.671 -2.5461 -2.4887  1.4049
 4387TIP3   OH234719   1.109   6.129   0.275  0.0639 -0.1269 -0.1647
 4387TIP3    H134720   1.075   6.151   0.188 -1.6811 -1.1306  0.2110
 4387TIP3    H234721   1.060   6.186   0.335 -1.3419 -1.8166  0.4138
 4388TIP3   OH234722   2.288   5.746   7.616 -0.3789 -0.4456 -0.0091
 4388TIP3    H134723   2.208   5.708   7.652 -1.7368  1.7905 -0.4323
 4388TIP3    H234724   2.287   5.836   7.648  2.3789 -0.5453  0.5401
 4389TIP3   OH234725   0.951   2.565   2.251  0.1289 -0.2028 -0.2307
 4389TIP3    H134726   0.900   2.611   2.184  0.3593 -0.5761 -0.6716
 4389TIP3    H234727   0.952   2.624   2.326  1.2980  0.9687 -1.1303
 4390TIP3   OH234728   4.111   3.325   0.791  0.0558 -0.1301 -0.2969
 4390TIP3    H134729   4.187   3.270   0.773  0.6728 -0.3752  2.6221
 4390TIP3    H234730   4.043   3.264   0.820 -0.1159  0.3930  0.4321
 4391TIP3   OH234731   2.017   0.838   7.350 -0.0333  0.3706  0.0614
 4391TIP3    H134732   1.932   0.868   7.383  0.3700  3.0295 -1.0304
 4391TIP3    H234733   2.080   0.880   7.408  0.5507  0.4391 -0.6114
 4392TIP3   OH234734   6.386   4.254   6.834 -0.0115 -0.4234  0.1074
 4392TIP3    H134735   6.438   4.183   6.872 -0.9757 -0.5820  1.1826
 4392TIP3    H234736   6.430   4.275   6.751  1.3109 -1.0577  0.6275
 4393TIP3   OH234737   0.742   0.298   7.084 -0.4437 -0.3715  0.4863
 4393TIP3    H134738   0.668   0.266   7.033 -0.9980 -0.0995  1.1021
 4393TIP3    H234739   0.770   0.223   7.136 -1.2166 -0.1027  1.3178
 4394TIP3   OH234740   1.707   4.015   0.097 -0.5214  0.1227  0.1324
 4394TIP3    H134741   1.637   4.023   0.032 -0.3689 -0.9093 -0.1759
 4394TIP3    H234742   1.691   4.086   0.158 -0.8501  0.9358 -0.8638
 4395TIP3   OH234743   6.013   0.829   1.592  0.1339 -0.4670 -0.5338
 4395TIP3    H134744   6.090   0.869   1.633  0.0555  1.3167 -1.9717
 4395TIP3    H234745   5.970   0.781   1.662 -0.1020  2.5607  1.6069
 4396TIP3   OH234746   1.161   3.106   7.798 -0.0823  0.3089  0.4378
 4396TIP3    H134747   1.102   3.128   7.870  0.8771 -0.1018  1.3748
 4396TIP3    H234748   1.149   3.011   7.785 -2.1841  0.7567 -1.7520
 4397TIP3   OH234749   0.598   0.958   8.645  0.3100  0.4744 -0.3021
 4397TIP3    H134750   0.571   1.050   8.642  0.8794  0.6956  0.8590
 4397TIP3    H234751   0.676   0.954   8.590 -1.0648  0.1558 -2.3539
 4398TIP3   OH234752   3.130   1.925   1.899 -0.0515 -0.2156 -0.5812
 4398TIP3    H134753   3.155   1.895   1.986  0.1250  1.3447 -0.0526
 4398TIP3    H234754   3.112   1.845   1.849 -2.6171 -1.1169  1.5775
 4399TIP3   OH234755   1.008   5.086   8.274  0.4602 -0.2456  0.1001
 4399TIP3    H134756   0.977   5.000   8.301 -0.5420  0.5754  1.7505
 4399TIP3    H234757   0.990   5.143   8.350  1.2117  1.3803 -0.8845
 4400TIP3   OH234758   5.833   0.259   1.745 -0.3898  0.1824 -0.0581
 4400TIP3    H134759   5.817   0.280   1.837  1.9972  1.5319  0.1194
 4400TIP3    H234760   5.754   0.290   1.700 -0.9274  0.9341  1.3373
 4401TIP3   OH234761   2.282   0.773   0.635 -0.7411  0.1800 -0.1202
 4401TIP3    H134762   2.329   0.849   0.603 -1.1918 -0.2898 -2.0615
 4401TIP3    H234763   2.288   0.709   0.564  0.9639 -2.2540  2.0155
 4402TIP3   OH234764   2.863   6.362   1.999  0.0721 -0.4047 -0.3908
 4402TIP3    H134765   2.872   6.278   2.044 -0.0565 -1.2654 -1.9375
 4402TIP3    H234766   2.863   6.427   2.070  0.4394 -1.6751  0.8064
 4403TIP3   OH234767   2.655   6.098   0.427  0.7173  0.1855 -0.1590
 4403TIP3    H134768   2.619   6.088   0.516 -0.2088  1.2469 -0.4002
 4403TIP3    H234769   2.749   6.108   0.440  0.6224  0.0646  0.6807
 4404TIP3   OH234770   5.330   1.504   1.796  0.9349  0.0354  0.0790
 4404TIP3    H134771   5.295   1.439   1.735 -0.5382  0.7718  0.1031
 4404TIP3    H234772   5.419   1.521   1.765  0.8334 -0.9365 -0.7679
 4405TIP3   OH234773   3.932   5.365   8.012  0.4119 -0.4436  0.2633
 4405TIP3    H134774   3.882   5.323   7.942 -2.1101  2.6994 -0.0924
 4405TIP3    H234775   3.906   5.319   8.092 -0.0717 -1.2968 -0.3682
 4406TIP3   OH234776   3.348   5.830   7.938  0.4069 -0.2914 -0.1425
 4406TIP3    H134777   3.433   5.814   7.896  1.3360  0.7492  1.2282
 4406TIP3    H234778   3.312   5.743   7.955  0.9280 -0.7381 -1.2669
 4407TIP3   OH234779   0.569   4.518   0.839 -0.0291 -0.1788  0.1303
 4407TIP3    H134780   0.503   4.586   0.855  2.1860  2.2043 -0.0033
 4407TIP3    H234781   0.599   4.535   0.750  1.1951 -0.7310  0.4196
 4408TIP3   OH234782   4.021   0.258   6.361 -0.7287 -0.4455  0.3641
 4408TIP3    H134783   3.948   0.287   6.307 -1.3571 -1.0265  0.8789
 4408TIP3    H234784   4.071   0.199   6.305 -1.7111 -1.5220  0.5886
 4409TIP3   OH234785   4.291   2.290   1.298  0.6861 -0.2991  0.0520
 4409TIP3    H134786   4.302   2.317   1.389  0.8599  0.8326 -0.2871
 4409TIP3    H234787   4.341   2.355   1.248 -1.9485  0.9987 -1.0811
 4410TIP3   OH234788   2.163   5.007   7.557 -0.0953  0.2079  0.3630
 4410TIP3    H134789   2.181   5.014   7.464 -0.4912  0.0252  0.2742
 4410TIP3    H234790   2.238   4.958   7.592  1.0856  2.0017  0.4770
 4411TIP3   OH234791   0.464   6.177   1.916 -0.4649 -0.6512 -0.3380
 4411TIP3    H134792   0.381   6.195   1.959  0.1016  0.9315  0.1871
 4411TIP3    H234793   0.498   6.099   1.961 -2.0487 -1.8903 -1.1946
 4412TIP3   OH234794   4.738   6.569   7.767  0.0337  0.5601 -0.2244
 4412TIP3    H134795   4.798   6.551   7.694 -1.7093  0.5219 -1.7033
 4412TIP3    H234796   4.750   6.495   7.827  0.0133 -0.4913 -1.4886
 4413TIP3   OH234797   5.613   1.309   0.283  0.5036  0.1670  0.0370
 4413TIP3    H134798   5.637   1.226   0.323 -2.2642 -0.6414  0.2355
 4413TIP3    H234799   5.625   1.374   0.352 -0.5443 -0.6287  1.0076
 4414TIP3   OH234800   4.636   2.421   2.048  0.1881 -0.4248  0.3423
 4414TIP3    H134801   4.577   2.475   2.101  0.9026 -0.1255  0.8513
 4414TIP3    H234802   4.723   2.438   2.085  0.9846  1.1688 -2.0006
 4415TIP3   OH234803   3.321   5.005   0.231 -0.1079 -0.3762  0.1637
 4415TIP3    H134804   3.283   4.921   0.206  2.7409 -1.5939 -0.3865
 4415TIP3    H234805   3.328   5.001   0.327  0.7201 -1.0904  0.0740
 4416TIP3   OH234806   5.157   4.004   7.482 -0.3703 -0.4933  0.4754
 4416TIP3    H134807   5.093   4.044   7.540  0.7351  2.1173  0.0604
 4416TIP3    H234808   5.229   3.977   7.540  0.7813  2.2078  0.4786
 4417TIP3   OH234809   5.578   4.176   0.122  0.1161 -0.0199  0.0382
 4417TIP3    H134810   5.554   4.230   0.198 -0.8767 -0.3161 -0.0482
 4417TIP3    H234811   5.496   4.136   0.095 -0.0038  1.7170 -2.5033
 4418TIP3   OH234812   1.613   4.980   6.752  0.3201 -0.0448 -0.6101
 4418TIP3    H134813   1.665   5.026   6.817 -0.1236  1.9932 -1.6175
 4418TIP3    H234814   1.670   4.909   6.722  3.2053  2.8147 -2.5844
 4419TIP3   OH234815   1.293   0.965   7.468 -0.8522 -0.1282  0.3077
 4419TIP3    H134816   1.215   0.953   7.522 -1.6779 -0.9293 -1.0202
 4419TIP3    H234817   1.260   0.997   7.384  0.1621 -1.1088 -0.4913
 4420TIP3   OH234818   3.596   0.493   0.498  0.0426  0.0013 -0.4925
 4420TIP3    H134819   3.571   0.406   0.469  0.6400 -0.6409  0.8323
 4420TIP3    H234820   3.678   0.480   0.545 -0.3716  1.1169  0.6032
 4421TIP3   OH234821   5.833   6.000   1.137 -0.1468  0.3037 -0.3192
 4421TIP3    H134822   5.811   5.976   1.227 -1.2943  1.1011 -0.3668
 4421TIP3    H234823   5.790   5.933   1.084 -0.7637  0.6975 -0.3260
 4422TIP3   OH234824   1.743   2.845   7.883 -0.0248  0.1500  0.2361
 4422TIP3    H134825   1.691   2.852   7.963  3.0680 -1.0930  2.5524
 4422TIP3    H234826   1.702   2.774   7.834 -1.9104  0.8566  0.7019
 4423TIP3   OH234827   5.594   3.373   1.548 -0.2744 -0.2664  0.1189
 4423TIP3    H134828   5.623   3.293   1.504 -0.3385 -0.6400  0.7366
 4423TIP3    H234829   5.531   3.412   1.488  1.2599  0.4064 -1.1294
 4424TIP3   OH234830   2.938   5.871   1.045 -0.0684  0.0985  0.1866
 4424TIP3    H134831   2.915   5.811   0.974 -0.1075  0.9076 -0.5054
 4424TIP3    H234832   2.882   5.948   1.030  0.7797  0.7678  0.3716
 4425TIP3   OH234833   1.871   1.868   7.489  0.3400  0.0637  0.0265
 4425TIP3    H134834   1.902   1.870   7.398  2.2579  0.1577  0.6519
 4425TIP3    H234835   1.819   1.948   7.497  0.7819  0.4496 -0.7819
 4426TIP3   OH234836   6.505   6.631   1.641  0.8375  0.3377  0.2146
 4426TIP3    H134837   6.592   6.624   1.680  1.2584  2.5447 -0.2210
 4426TIP3    H234838   6.502   6.719   1.604 -0.8024 -0.4509 -1.7115
 4427TIP3   OH234839   4.133   5.513   1.531 -0.4311  0.1597 -0.4701
 4427TIP3    H134840   4.205   5.567   1.499  0.7373 -1.2755 -0.4018
 4427TIP3    H234841   4.128   5.441   1.468 -0.0438 -1.1417  0.9206
 4428TIP3   OH234842   4.863   6.692   7.328 -0.0963 -0.1844 -0.0706
 4428TIP3    H134843   4.910   6.630   7.383  1.3471  1.3903  0.5491
 4428TIP3    H234844   4.798   6.731   7.386 -0.2133 -0.2532 -0.1531
 4429TIP3   OH234845   6.085   2.843   8.326  0.2573  0.4596  0.2055
 4429TIP3    H134846   6.142   2.907   8.284  0.1970  0.1610 -0.3474
 4429TIP3    H234847   6.001   2.888   8.336  0.8296  1.2270  1.8945
 4430TIP3   OH234848   1.394   0.713   6.243 -0.0597  0.9357  0.1173
 4430TIP3    H134849   1.470   0.698   6.186 -0.1009 -1.2240  0.5528
 4430TIP3    H234850   1.334   0.641   6.223 -1.4415  1.8812  0.7113
 4431TIP3   OH234851   0.853   6.204   1.774 -0.5798 -0.3156  0.0730
 4431TIP3    H134852   0.865   6.166   1.687 -0.3463  0.1857 -0.1144
 4431TIP3    H234853   0.826   6.130   1.829  1.1165 -1.0385  0.0084
 4432TIP3   OH234854   0.872   3.598   7.980  0.7954 -0.2239  0.0371
 4432TIP3    H134855   0.776   3.605   7.976  0.9128  1.3372 -0.7526
 4432TIP3    H234856   0.888   3.535   8.050 -0.7986  0.9250  1.5531
 4433TIP3   OH234857   4.871   4.724   7.457  0.0264  0.3981  0.1602
 4433TIP3    H134858   4.935   4.773   7.404  2.0882 -1.5167  0.7632
 4433TIP3    H234859   4.789   4.734   7.409  1.5396 -0.2293 -2.8236
 4434TIP3   OH234860   3.614   6.645   2.039  0.4326  0.0688  0.4742
 4434TIP3    H134861   3.594   6.551   2.038  2.1317 -0.3355 -1.3342
 4434TIP3    H234862   3.613   6.669   2.132 -2.9554 -1.0123  0.8370
 4435TIP3   OH234863   6.739   2.015   7.045  0.0225  0.3602  0.3625
 4435TIP3    H134864   6.649   2.036   7.070  0.3743  0.6600  1.4418
 4435TIP3    H234865   6.754   1.927   7.080  0.3601  0.5879  0.8113
 4436TIP3   OH234866   5.143   6.585   8.014  0.0822 -0.2333 -0.1038
 4436TIP3    H134867   5.077   6.651   7.993 -0.4274 -0.5406  0.5405
 4436TIP3    H234868   5.214   6.635   8.055  0.6611  0.2317 -1.5605
 4437TIP3   OH234869   6.836   1.597   8.418 -0.2862  0.1774  0.7085
 4437TIP3    H134870   6.865   1.518   8.373  1.6544 -0.3703  2.7520
 4437TIP3    H234871   6.771   1.636   8.359 -1.9235 -3.3010 -0.0012
 4438TIP3   OH234872   3.552   6.073   0.139  0.6237  0.1600  0.0158
 4438TIP3    H134873   3.566   6.098   0.230 -0.8941  0.5394  0.1769
 4438TIP3    H234874   3.460   6.046   0.135  0.9846 -1.0374 -1.1497
 4439TIP3   OH234875   2.285   6.042   7.638 -0.4338 -0.9282 -0.2600
 4439TIP3    H134876   2.233   6.122   7.650 -0.8329 -1.2768  0.4023
 4439TIP3    H234877   2.281   6.024   7.544 -1.1036 -0.6720 -0.2852
 4440TIP3   OH234878   6.668   4.393   1.157 -0.4639 -0.0914  0.2306
 4440TIP3    H134879   6.718   4.474   1.171 -0.2582 -0.3683  1.1695
 4440TIP3    H234880   6.683   4.372   1.065  1.5966 -0.4303  0.5812
 4441TIP3   OH234881   2.970   6.170   1.026 -0.0118 -0.0402 -0.2872
 4441TIP3    H134882   2.952   6.259   1.057 -0.3034 -0.1738 -0.0673
 4441TIP3    H234883   2.976   6.118   1.106 -2.0259 -0.6334 -0.4680
 4442TIP3   OH234884   3.941   6.832   1.212 -0.0300  0.0281  0.1841
 4442TIP3    H134885   4.007   6.766   1.233 -0.6342 -0.6485 -0.0072
 4442TIP3    H234886   3.987   6.893   1.154  0.9557  0.6075  1.5149
 4443TIP3   OH234887   3.715   6.864   0.374  0.2848  0.3688 -0.0811
 4443TIP3    H134888   3.707   6.843   0.281 -0.6613  1.6590 -0.3326
 4443TIP3    H234889   3.785   6.808   0.406  0.8825  0.1699 -1.6585
 4444TIP3   OH234890   1.937   2.104   6.528 -0.7372 -0.2142 -0.0070
 4444TIP3    H134891   1.990   2.025   6.518 -0.3247 -0.3055  2.4310
 4444TIP3    H234892   1.862   2.077   6.581 -0.4520  1.0546  1.0944
 4445TIP3   OH234893   5.204   5.208   1.231  0.3709  0.2157 -0.0773
 4445TIP3    H134894   5.162   5.158   1.301 -1.0186  0.2406 -0.8786
 4445TIP3    H234895   5.133   5.252   1.185  1.1059 -0.7858 -2.3167
 4446TIP3   OH234896   5.857   4.777   7.208  0.7388 -0.0887  0.4380
 4446TIP3    H134897   5.834   4.733   7.126  1.8393  1.0816 -0.5370
 4446TIP3    H234898   5.826   4.717   7.276 -1.9082 -0.2318 -0.7706
 4447TIP3   OH234899   5.853   0.184   1.049 -0.1192  0.4957  0.1850
 4447TIP3    H134900   5.872   0.278   1.054 -1.5195  0.8159 -0.2974
 4447TIP3    H234901   5.807   0.173   0.966 -1.0150 -0.4303  0.7848
 4448TIP3   OH234902   1.981   1.002   7.126 -0.3392  0.0181  0.0509
 4448TIP3    H134903   2.008   1.085   7.165 -0.3685 -0.0869  0.2963
 4448TIP3    H234904   2.013   0.935   7.186  0.7920 -0.2208 -0.7851
 4449TIP3   OH234905   6.547   3.973   0.233 -0.0228 -0.5598  0.2596
 4449TIP3    H134906   6.580   3.914   0.165  0.7878 -0.0535  0.2030
 4449TIP3    H234907   6.619   3.980   0.295 -0.3049 -0.0374  0.5318
 4450TIP3   OH234908   0.065   2.660   0.888 -0.3600  0.1341  0.4860
 4450TIP3    H134909   0.082   2.566   0.888  0.0431  0.1723 -1.2779
 4450TIP3    H234910  -0.027   2.668   0.863  0.2323  0.2410 -1.8222
 4451TIP3   OH234911   6.508   5.453   2.502 -0.3352 -0.0918  0.0688
 4451TIP3    H134912   6.569   5.398   2.551  0.6347 -2.2494 -3.2524
 4451TIP3    H234913   6.426   5.447   2.552  0.3940 -2.6871  1.1398
 4452TIP3   OH234914   5.623   1.621   1.739 -0.0658 -0.6158  0.5582
 4452TIP3    H134915   5.614   1.652   1.830 -0.9709 -0.1874  0.3413
 4452TIP3    H234916   5.677   1.543   1.746  3.5814  1.7183  0.9875
 4453TIP3   OH234917   1.733   5.392   8.434  0.0919  0.6707  0.0727
 4453TIP3    H134918   1.757   5.360   8.347  0.6179 -0.0598  0.4833
 4453TIP3    H234919   1.798   5.354   8.493 -0.5935  0.7038  0.8656
 4454TIP3   OH234920   0.525   4.545   7.805  0.3295  0.4707 -0.3147
 4454TIP3    H134921   0.574   4.582   7.879 -3.3251  0.4492  2.4156
 4454TIP3    H234922   0.528   4.614   7.738 -1.5311  3.5757  2.4473
 4455TIP3   OH234923   3.293   6.230   7.033  0.0978 -0.3774  0.0394
 4455TIP3    H134924   3.325   6.193   6.951  0.5956 -0.3171  0.2009
 4455TIP3    H234925   3.323   6.168   7.101  1.8682  0.8236  0.4233
 4456TIP3   OH234926   5.725   0.810   6.375  0.1378  0.3627 -0.5748
 4456TIP3    H134927   5.693   0.900   6.369 -0.0450  0.3623  0.3069
 4456TIP3    H234928   5.812   0.814   6.336 -0.1405  0.7754 -1.1741
 4457TIP3   OH234929   6.117   1.121   1.602 -0.1493 -0.4887  0.5625
 4457TIP3    H134930   6.041   1.164   1.564  0.7763 -0.0036 -0.8350
 4457TIP3    H234931   6.084   1.077   1.680 -1.6865  0.3684  0.4242
 4458TIP3   OH234932   1.648   1.355   1.700  0.0878 -0.4280  0.3501
 4458TIP3    H134933   1.724   1.414   1.700 -0.4979  0.3351 -0.1105
 4458TIP3    H234934   1.680   1.277   1.745  0.7713  0.3704  1.3221
 4459TIP3   OH234935   5.556   6.747   1.675 -0.1558  0.0034 -0.1779
 4459TIP3    H134936   5.543   6.719   1.766  0.1267 -0.1104 -0.1700
 4459TIP3    H234937   5.603   6.830   1.683 -0.7344  0.3386 -0.2078
 4460TIP3   OH234938   4.623   2.765   7.223  0.3064 -0.5874  0.2312
 4460TIP3    H134939   4.538   2.723   7.207 -0.7667  1.6844 -0.4833
 4460TIP3    H234940   4.611   2.811   7.306  0.6679  0.1527 -0.1213
 4461TIP3   OH234941   0.753   4.962   8.093  0.0724 -0.3311 -0.5995
 4461TIP3    H134942   0.848   4.953   8.102 -0.0459 -1.7012 -0.5053
 4461TIP3    H234943   0.740   4.998   8.005  0.6922  0.1328 -0.5007
 4462TIP3   OH234944   2.653   1.096   6.902 -0.6137  0.1805  0.2819
 4462TIP3    H134945   2.580   1.155   6.916 -0.8767 -0.2500  0.7702
 4462TIP3    H234946   2.613   1.013   6.878 -0.3245 -0.2470  1.2254
 4463TIP3   OH234947   4.946   0.141   2.305 -0.0210 -0.2543  0.6759
 4463TIP3    H134948   4.889   0.207   2.345 -0.6614 -0.1089 -0.4527
 4463TIP3    H234949   4.989   0.099   2.380  0.1051  1.1641  1.4420
 4464TIP3   OH234950   1.527   2.954   7.555  0.1488 -0.4152  0.5616
 4464TIP3    H134951   1.485   2.868   7.552 -0.1867 -0.2285 -2.5416
 4464TIP3    H234952   1.462   3.014   7.519  1.2980  0.7099  0.2894
 4465TIP3   OH234953   1.299   4.504   0.426  0.2727  0.2867 -0.3294
 4465TIP3    H134954   1.382   4.528   0.467  0.2100 -1.3550  0.8793
 4465TIP3    H234955   1.322   4.479   0.337  1.1206 -0.3114  0.0459
 4466TIP3   OH234956   6.116   6.417   8.516 -0.3816 -0.2626  0.2770
 4466TIP3    H134957   6.035   6.468   8.519 -0.0561  0.2266  1.0557
 4466TIP3    H234958   6.150   6.422   8.605  0.4852 -0.5046 -0.0360
 4467TIP3   OH234959   5.841   3.405   8.169  0.1501 -0.5231 -0.2328
 4467TIP3    H134960   5.776   3.344   8.205  0.4901 -1.5745 -1.3284
 4467TIP3    H234961   5.915   3.348   8.145  1.2908  0.5825  0.5377
 4468TIP3   OH234962   6.285   3.052   0.020  0.4678 -0.4368  0.2461
 4468TIP3    H134963   6.369   3.047  -0.026 -0.0772 -1.4664 -0.6727
 4468TIP3    H234964   6.309   3.048   0.113  1.5648  1.4859  0.0840
 4469TIP3   OH234965   6.353   0.174   8.070  0.3773  0.0507 -0.8976
 4469TIP3    H134966   6.438   0.214   8.087  1.0288 -1.2600 -0.9159
 4469TIP3    H234967   6.302   0.243   8.029  0.5571  1.6577  1.3917
 4470TIP3   OH234968   0.460   1.708   8.314  0.3422  0.1187  0.8972
 4470TIP3    H134969   0.534   1.649   8.300 -0.1142 -0.4038  0.6198
 4470TIP3    H234970   0.408   1.665   8.382  0.4440  0.6320  1.3063
 4471TIP3   OH234971   1.023   1.365   0.212  0.4542 -0.4052  0.4477
 4471TIP3    H134972   1.015   1.448   0.165 -0.4395 -0.7905 -0.1200
 4471TIP3    H234973   1.049   1.302   0.145  1.2304 -0.5686  0.8980
 4472TIP3   OH234974   6.829   5.784   1.886 -0.2242  0.1353  0.3164
 4472TIP3    H134975   6.852   5.854   1.824 -1.9777  0.0105 -0.5614
 4472TIP3    H234976   6.812   5.830   1.968 -0.4462  0.6521 -0.0050
 4473TIP3   OH234977   3.135   3.846   2.282 -0.4250 -0.2122  0.7760
 4473TIP3    H134978   3.083   3.927   2.280  0.3448  0.2860 -0.2482
 4473TIP3    H234979   3.166   3.836   2.192  1.3073 -0.4594  1.3645
 4474TIP3   OH234980   2.913   2.224   1.673 -0.0399  0.4107  0.1863
 4474TIP3    H134981   2.938   2.183   1.755 -0.9373 -0.0945  0.2157
 4474TIP3    H234982   2.893   2.315   1.696 -0.6038  0.1875  0.5842
 4475TIP3   OH234983   2.695   5.553   8.367 -1.1518  0.3547 -0.2294
 4475TIP3    H134984   2.666   5.642   8.385  1.2424  1.0934  0.3285
 4475TIP3    H234985   2.668   5.503   8.444 -0.2742  1.1883  0.6521
 4476TIP3   OH234986   2.662   2.633   1.117  0.1706  0.0967 -0.3177
 4476TIP3    H134987   2.758   2.634   1.112  0.3253 -1.5582  1.2300
 4476TIP3    H234988   2.637   2.555   1.067 -0.2776 -0.0599  0.1476
 4477TIP3   OH234989   1.935   2.478   0.170 -0.5597  0.0224  0.3501
 4477TIP3    H134990   1.998   2.408   0.187  1.9050  1.6134 -1.4501
 4477TIP3    H234991   1.858   2.433   0.134  0.9473 -1.7995 -0.7917
 4478TIP3   OH234992   5.515   3.693   1.398  0.1777 -0.0537 -0.2889
 4478TIP3    H134993   5.423   3.666   1.394  0.4833 -1.4543  1.0509
 4478TIP3    H234994   5.516   3.781   1.360 -1.8586  0.3478  0.4696
 4479TIP3   OH234995   5.603   2.963   7.362  0.1457 -0.6899 -0.3935
 4479TIP3    H134996   5.675   2.913   7.399 -0.5120 -0.9930  0.5096
 4479TIP3    H234997   5.525   2.933   7.410 -0.3730  0.6460 -0.3511
 4480TIP3   OH234998   0.298   5.292   0.950 -0.3562 -0.1968 -0.3709
 4480TIP3    H134999   0.333   5.373   0.914 -0.1161  0.0884  0.4690
 4480TIP3    H235000   0.337   5.222   0.897 -1.4804  0.2512 -1.8735
 4481TIP3   OH235001   1.916   2.124   7.929 -0.0953 -0.3351  0.3969
 4481TIP3    H135002   1.968   2.117   7.848 -0.1357 -0.0806  0.3462
 4481TIP3    H235003   1.950   2.203   7.971  0.4844 -0.9112  1.0335
 4482TIP3   OH235004   2.426   6.373   0.486 -0.3315  0.1696 -0.6149
 4482TIP3    H135005   2.388   6.458   0.467  1.1233  0.5235 -2.2186
 4482TIP3    H235006   2.438   6.332   0.400  0.9829 -0.7403 -0.0461
 4483TIP3   OH235007   3.889   2.902   1.832  0.2408 -0.0133 -0.4334
 4483TIP3    H135008   3.801   2.875   1.807  0.2453 -0.7977  0.3473
 4483TIP3    H235009   3.940   2.894   1.751 -0.0869 -0.9895 -0.5606
 4484TIP3   OH235010   0.210   5.262   7.482  0.3626  0.5842 -0.4193
 4484TIP3    H135011   0.210   5.170   7.455  1.0974  0.0747  1.1815
 4484TIP3    H235012   0.274   5.266   7.554 -0.1265  2.2185 -0.0279
 4485TIP3   OH235013   1.207   5.626   7.871 -0.3189  0.5085  0.1671
 4485TIP3    H135014   1.258   5.545   7.876 -0.5266  0.3287 -0.5385
 4485TIP3    H235015   1.162   5.621   7.787  0.4143  1.7875 -0.3416
 4486TIP3   OH235016   6.200   2.611   7.978  0.3763 -0.1414  0.4220
 4486TIP3    H135017   6.178   2.547   7.910 -0.7143 -1.3774  1.8659
 4486TIP3    H235018   6.293   2.627   7.966  0.7073 -2.0751  0.0351
 4487TIP3   OH235019   3.093   0.705   1.722  0.4256 -0.0592  0.3672
 4487TIP3    H135020   3.113   0.690   1.815 -0.8810 -1.7651  0.4222
 4487TIP3    H235021   3.062   0.795   1.719  1.2566  0.2936  1.4353
 4488TIP3   OH235022   1.889   1.608   8.391  0.0799  0.2710 -0.0578
 4488TIP3    H135023   1.848   1.691   8.364 -0.8079 -0.1550 -0.0504
 4488TIP3    H235024   1.947   1.632   8.463 -0.8783  0.7546  0.5737
 4489TIP3   OH235025   1.192   4.071   7.824 -0.2746  0.3686  0.0052
 4489TIP3    H135026   1.109   4.113   7.846 -0.5307  0.6738 -1.4062
 4489TIP3    H235027   1.171   4.012   7.751  0.2766 -1.5103  1.2960
 4490TIP3   OH235028   0.946   1.985   0.741  0.4417  0.8375 -0.4981
 4490TIP3    H135029   0.927   1.909   0.796 -1.0040  1.7659  0.3734
 4490TIP3    H235030   0.883   2.051   0.770 -0.0736  1.5350 -2.9875
 4491TIP3   OH235031   3.344   2.111   6.852  0.1285  0.3317 -0.5441
 4491TIP3    H135032   3.385   2.078   6.772 -0.9899 -1.0443 -0.5885
 4491TIP3    H235033   3.277   2.172   6.821 -1.3028 -1.3021 -0.7840
 4492TIP3   OH235034   0.723   2.619   6.474  0.4097  0.1971 -0.5706
 4492TIP3    H135035   0.741   2.676   6.548  1.2265 -0.3089 -0.3670
 4492TIP3    H235036   0.795   2.556   6.474  0.8298  0.6278 -2.2175
 4493TIP3   OH235037   4.195   3.184   2.338 -0.5444 -0.2357  0.8688
 4493TIP3    H135038   4.130   3.167   2.270  1.4569  0.0564 -1.2591
 4493TIP3    H235039   4.146   3.183   2.420 -2.7261 -2.8118 -0.3283
 4494TIP3   OH235040   4.423   2.089   1.117  0.2373  0.6837  0.3194
 4494TIP3    H135041   4.378   2.042   1.187 -1.2471  2.3959  0.5771
 4494TIP3    H235042   4.491   2.140   1.161  2.1049 -1.3674  0.0014
 4495TIP3   OH235043   4.039   1.486   1.578 -0.7593  0.1119  0.4323
 4495TIP3    H135044   4.023   1.416   1.641  2.8159 -2.9313 -1.6422
 4495TIP3    H235045   4.128   1.516   1.596 -0.0583 -0.0385 -2.2975
 4496TIP3   OH235046   3.440   2.341   6.644 -0.2123  0.2966  0.4452
 4496TIP3    H135047   3.412   2.325   6.554 -1.1358  0.5930  0.6699
 4496TIP3    H235048   3.497   2.267   6.665  2.1747  1.4829 -1.2421
 4497TIP3   OH235049   5.882   5.696   0.343  0.1373 -0.0074  0.4858
 4497TIP3    H135050   5.858   5.633   0.275  2.6189 -0.3423 -0.1844
 4497TIP3    H235051   5.818   5.683   0.412 -1.2420 -1.0958 -0.9272
 4498TIP3   OH235052   4.543   3.151   1.898 -0.1436 -0.2383 -0.0287
 4498TIP3    H135053   4.470   3.176   1.954 -0.1308 -1.0881  0.3815
 4498TIP3    H235054   4.602   3.102   1.955 -0.1446 -1.1428 -0.7792
 4499TIP3   OH235055   2.983   4.299   7.690  0.0750  0.6000  0.0395
 4499TIP3    H135056   2.977   4.372   7.628  0.6406  0.4637 -0.1906
 4499TIP3    H235057   3.059   4.321   7.744 -0.6258  0.8900  0.9239
 4500TIP3   OH235058   6.120   1.056   7.852  0.3732 -0.5010  0.4840
 4500TIP3    H135059   6.063   1.063   7.776 -1.1089 -0.2104  1.5603
 4500TIP3    H235060   6.206   1.085   7.821 -0.1962 -0.3564 -1.0454
 4501TIP3   OH235061   3.106   2.229   0.854  0.4797 -0.1727 -0.1098
 4501TIP3    H135062   3.112   2.267   0.942 -2.3949  0.2192  0.0304
 4501TIP3    H235063   3.196   2.217   0.827  1.5115  2.6311  1.6341
 4502TIP3   OH235064   1.450   6.036   8.269  0.4163 -0.0343 -0.1697
 4502TIP3    H135065   1.473   5.945   8.254 -0.9447 -0.8270  2.0400
 4502TIP3    H235066   1.354   6.037   8.269  0.3966  1.4485 -0.4000
 4503TIP3   OH235067   5.034   4.452   1.819  1.0429 -0.0645  0.3291
 4503TIP3    H135068   4.978   4.495   1.754  0.5937  0.9062  1.3212
 4503TIP3    H235069   5.059   4.369   1.778 -0.0769  0.0568 -0.6602
 4504TIP3   OH235070   5.952   5.404   8.511  0.8499 -0.3787  0.8249
 4504TIP3    H135071   5.862   5.435   8.495 -0.4612 -3.9742  0.3581
 4504TIP3    H235072   5.964   5.333   8.448  3.2463 -1.4186  2.3353
 4505TIP3   OH235073   2.834   0.748   8.219 -0.3321  0.2991 -0.4116
 4505TIP3    H135074   2.766   0.815   8.209  0.1068  0.8260  0.0550
 4505TIP3    H235075   2.807   0.697   8.295 -0.7169 -0.1320 -0.8243
 4506TIP3   OH235076   3.395   1.902   6.195 -0.7971  0.1535  0.0373
 4506TIP3    H135077   3.463   1.968   6.178  0.4169 -1.3384 -1.1684
 4506TIP3    H235078   3.415   1.870   6.283  0.5140 -0.7271 -0.5485
 4507TIP3   OH235079   3.906   6.665   0.284  0.2593 -0.4778 -0.3630
 4507TIP3    H135080   3.896   6.622   0.200 -0.5926 -0.8197 -0.1009
 4507TIP3    H235081   3.996   6.647   0.310  0.0576 -1.7398 -0.4637
 4508TIP3   OH235082   2.057   6.679   1.033 -0.2645  0.1299 -0.1048
 4508TIP3    H135083   1.982   6.724   1.071  0.2536  0.2160  0.8414
 4508TIP3    H235084   2.019   6.602   0.990 -0.7734 -0.5602  1.5125
 4509TIP3   OH235085   2.724   5.073   8.440 -0.1165  0.2967 -0.3622
 4509TIP3    H135086   2.763   5.011   8.502 -2.5096 -2.4957 -1.4117
 4509TIP3    H235087   2.736   5.031   8.355 -0.6374  1.9806 -1.3004
 4510TIP3   OH235088   5.798   4.176   6.652  0.3392 -0.3662  0.1282
 4510TIP3    H135089   5.851   4.208   6.725  0.9658  0.5829 -0.7120
 4510TIP3    H235090   5.831   4.224   6.576 -1.0144 -0.5398 -0.6044
 4511TIP3   OH235091   1.664   5.530   0.921 -0.0872 -0.4528  0.7744
 4511TIP3    H135092   1.751   5.493   0.905  1.1811  1.9619  1.5638
 4511TIP3    H235093   1.669   5.618   0.884 -2.4028 -0.4176  0.4130
 4512TIP3   OH235094   2.358   0.067   8.584  0.0399 -0.5279  0.0507
 4512TIP3    H135095   2.314   0.053   8.668  0.1119 -0.1990  0.1461
 4512TIP3    H235096   2.436   0.012   8.589 -1.5886 -3.1353 -1.1332
 4513TIP3   OH235097   1.111   2.681   7.188 -0.5545  0.1505 -0.0250
 4513TIP3    H135098   1.201   2.695   7.160 -0.0441  0.9612  1.8852
 4513TIP3    H235099   1.105   2.586   7.203  0.8362  0.3708  2.3884
 4514TIP3   OH235100   5.988   2.254   7.685  0.1018 -0.4772  0.3420
 4514TIP3    H135101   6.054   2.296   7.740 -0.0752  0.2077  0.0524
 4514TIP3    H235102   5.989   2.306   7.604 -1.3440  0.0662  0.6404
 4515TIP3   OH235103   0.397   3.282   1.228  0.1159  0.3944 -0.0054
 4515TIP3    H135104   0.356   3.222   1.167  0.2420  0.7811 -0.4804
 4515TIP3    H235105   0.372   3.250   1.315  0.1789 -0.3262 -0.2538
 4516TIP3   OH235106   0.164   0.610   0.902  0.5884  0.5998  0.2111
 4516TIP3    H135107   0.070   0.606   0.921  0.4852 -0.7397 -0.4679
 4516TIP3    H235108   0.206   0.588   0.985  0.2717  0.2114  0.2738
 4517TIP3   OH235109   6.773   3.038   1.855  0.2697  0.0408  0.3009
 4517TIP3    H135110   6.718   3.038   1.777  1.4959  1.1990 -0.6076
 4517TIP3    H235111   6.749   2.958   1.902 -1.3379 -0.0654 -0.6398
 4518TIP3   OH235112   2.323   1.020   7.565 -0.2266 -0.1874  0.1466
 4518TIP3    H135113   2.270   1.007   7.643 -1.0818  1.2442 -0.1555
 4518TIP3    H235114   2.319   0.936   7.519  0.1388 -0.9804  1.5220
 4519TIP3   OH235115   6.073   0.617   8.611  0.3922 -0.0414 -0.5280
 4519TIP3    H135116   5.981   0.596   8.593  0.5984 -0.6933 -0.8755
 4519TIP3    H235117   6.122   0.558   8.553  1.0211  1.0941 -1.1845
 4520TIP3   OH235118   0.614   3.504   0.196  0.7676 -0.4162  0.0138
 4520TIP3    H135119   0.604   3.515   0.291  0.3935 -0.5402 -0.0113
 4520TIP3    H235120   0.551   3.566   0.158  3.0538  1.9699 -0.2140
 4521TIP3   OH235121   3.193   5.346   1.667  0.3342 -0.2094 -0.1120
 4521TIP3    H135122   3.130   5.312   1.604  0.7295  0.9614 -1.2093
 4521TIP3    H235123   3.159   5.432   1.691  1.1930  0.1996 -0.2854
 4522TIP3   OH235124   6.510   2.583   7.677  0.6104 -0.0699 -0.8523
 4522TIP3    H135125   6.486   2.561   7.767  1.0479 -0.1557 -0.7532
 4522TIP3    H235126   6.430   2.570   7.627 -0.3930  2.4753 -0.0789
 4523TIP3   OH235127   3.902   5.853   1.423  0.5996  0.5948  0.1314
 4523TIP3    H135128   3.893   5.949   1.422 -0.1463  0.5276  0.3663
 4523TIP3    H235129   3.936   5.832   1.336 -2.1914  0.8083 -1.1303
 4524TIP3   OH235130   6.396   2.379   1.094 -0.1850  0.1427 -0.1377
 4524TIP3    H135131   6.460   2.450   1.088  0.3391 -0.4270 -3.6398
 4524TIP3    H235132   6.332   2.400   1.026 -1.4908 -1.3911  0.5649
 4525TIP3   OH235133   6.161   6.211   8.339 -0.7544  0.4009 -0.4045
 4525TIP3    H135134   6.257   6.219   8.339 -0.5705 -1.0301 -2.2572
 4525TIP3    H235135   6.133   6.263   8.414  1.5788 -0.3813  1.1404
 4526TIP3   OH235136   5.126   5.055   2.146 -0.0497  0.2642  0.0193
 4526TIP3    H135137   5.163   5.038   2.060  1.7750  1.3339  0.5466
 4526TIP3    H235138   5.195   5.028   2.208 -0.9232  0.4574  1.1127
 4527TIP3   OH235139   0.746   6.594   1.482  0.6138 -0.2113 -0.0597
 4527TIP3    H135140   0.760   6.588   1.577 -0.3276  1.2088  0.1912
 4527TIP3    H235141   0.738   6.503   1.454 -1.3714 -0.6233  1.6034
 4528TIP3   OH235142   3.704   5.172   0.049  0.0997 -0.1731  0.0029
 4528TIP3    H135143   3.697   5.140   0.139 -0.4179 -2.1536 -0.6859
 4528TIP3    H235144   3.798   5.171   0.030  0.2384  0.6125  0.6297
 4529TIP3   OH235145   6.161   2.539   7.700 -0.2000 -0.2587 -0.1696
 4529TIP3    H135146   6.067   2.549   7.684 -0.1188  1.3474  0.1868
 4529TIP3    H235147   6.202   2.557   7.615 -0.1233  1.5912  0.2028
 4530TIP3   OH235148   4.228   6.855   7.642 -0.2646 -0.6659  0.4840
 4530TIP3    H135149   4.277   6.920   7.593  0.2389 -0.6213  1.0394
 4530TIP3    H235150   4.243   6.877   7.734  0.0865 -1.6878  0.6865
 4531TIP3   OH235151   0.950   2.999   0.445  0.5950 -0.3676 -0.5737
 4531TIP3    H135152   0.953   3.084   0.401 -0.2900  1.1013  1.9612
 4531TIP3    H235153   0.861   2.967   0.430  0.8887 -0.8338 -1.4178
 4532TIP3   OH235154   0.548   5.346   0.722  0.0118 -0.4085 -0.6928
 4532TIP3    H135155   0.597   5.381   0.648  1.6411 -0.4719  0.3181
 4532TIP3    H235156   0.456   5.350   0.694  0.4189  1.4316 -1.9455
 4533TIP3   OH235157   4.874   3.053   0.839  0.4404 -0.3663  0.3586
 4533TIP3    H135158   4.933   3.124   0.814  0.0938 -0.3902 -0.5402
 4533TIP3    H235159   4.808   3.096   0.894  0.2135  0.0181 -0.2076
 4534TIP3   OH235160   5.556   0.463   0.020 -0.7823 -0.0881  0.1974
 4534TIP3    H135161   5.587   0.375   0.036  1.1785  0.5158 -0.0173
 4534TIP3    H235162   5.521   0.492   0.104 -0.0602 -0.5600  0.6736
 4535TIP3   OH235163   1.490   3.153   2.343  0.0760  0.1498  0.0171
 4535TIP3    H135164   1.514   3.064   2.318  0.0876 -0.2677  1.4683
 4535TIP3    H235165   1.472   3.197   2.259  0.8229 -0.9807 -0.7630
 4536TIP3   OH235166   2.374   3.381   7.418 -0.0075  0.0526 -0.2233
 4536TIP3    H135167   2.410   3.412   7.501 -1.5913 -0.5727  0.7492
 4536TIP3    H235168   2.294   3.432   7.405 -0.3039 -0.5437 -0.8502
 4537TIP3   OH235169   3.166   2.583   8.416  0.1105  0.3681  0.5682
 4537TIP3    H135170   3.192   2.512   8.358  3.1897  1.4414  0.4769
 4537TIP3    H235171   3.173   2.547   8.504  2.1752  0.6103  0.5521
 4538TIP3   OH235172   1.766   6.875   0.951 -0.5304  0.6905  0.3340
 4538TIP3    H135173   1.843   6.891   0.896 -0.2017 -0.1205  0.5533
 4538TIP3    H235174   1.698   6.850   0.889 -0.7509  1.8105  0.0948
 4539TIP3   OH235175   2.624   2.607   6.187 -0.9103 -0.2487 -0.3296
 4539TIP3    H135176   2.641   2.665   6.112 -0.6562 -1.1527 -0.9887
 4539TIP3    H235177   2.672   2.646   6.259 -0.8450  0.4323 -0.7280
 4540TIP3   OH235178   2.718   5.452   7.359 -0.2073  0.3480  0.7657
 4540TIP3    H135179   2.712   5.441   7.454  0.1228  0.6659  0.8259
 4540TIP3    H235180   2.811   5.463   7.343 -0.0588 -1.4499  0.2031
 4541TIP3   OH235181   3.970   3.519   8.547  0.2643 -0.1497 -0.4123
 4541TIP3    H135182   4.040   3.454   8.541  1.2543  0.8929 -0.3844
 4541TIP3    H235183   3.971   3.546   8.639  0.9639  1.0749 -0.7555
 4542TIP3   OH235184   1.961   1.069   7.666 -0.1782  0.1076 -0.1639
 4542TIP3    H135185   2.033   1.127   7.694 -0.2849  0.3667 -0.4252
 4542TIP3    H235186   1.882   1.115   7.692 -0.2450 -0.6592  1.0819
 4543TIP3   OH235187   5.546   2.766   8.141 -0.2000  0.2780  0.1395
 4543TIP3    H135188   5.451   2.773   8.144 -0.2279 -0.1601  0.2547
 4543TIP3    H235189   5.574   2.843   8.091 -0.5773  0.6829  0.5495
 4544TIP3   OH235190   3.512   2.792   2.472  0.0374  0.2050  0.0699
 4544TIP3    H135191   3.477   2.855   2.410  0.9038 -0.2956 -0.9483
 4544TIP3    H235192   3.567   2.734   2.420  0.6353 -0.3520  1.2721
 4545TIP3   OH235193   2.798   4.480   2.050  0.4110 -0.2147 -0.5139
 4545TIP3    H135194   2.866   4.529   2.003 -0.7243 -0.4152 -2.4657
 4545TIP3    H235195   2.799   4.516   2.139  1.2279  1.6582 -1.2302
 4546TIP3   OH235196   2.141   1.224   7.097  0.2200 -0.4671 -0.5456
 4546TIP3    H135197   2.090   1.275   7.160 -1.2638 -0.7154 -1.4986
 4546TIP3    H235198   2.161   1.286   7.026 -0.7131 -0.9051 -1.2231
 4547TIP3   OH235199   4.243   5.162   0.702  0.0114  0.4018 -0.1869
 4547TIP3    H135200   4.201   5.080   0.675  0.7864 -0.6120  1.5018
 4547TIP3    H235201   4.247   5.157   0.798  0.2926  2.3204 -0.0558
 4548TIP3   OH235202   0.980   0.668   8.458 -0.4119  0.0400 -0.2762
 4548TIP3    H135203   1.015   0.635   8.375 -1.3836 -0.2337 -0.5831
 4548TIP3    H235204   0.885   0.660   8.450 -0.5818  1.0568  0.4252
 4549TIP3   OH235205   6.549   5.435   8.548  0.4484  0.1732  0.4382
 4549TIP3    H135206   6.483   5.404   8.610  1.1169 -0.0542  1.0485
 4549TIP3    H235207   6.535   5.383   8.470 -0.6924  0.7664  0.2292
 4550TIP3   OH235208   2.705   5.020   7.108  0.1360  0.3649 -0.0959
 4550TIP3    H135209   2.661   5.093   7.152  0.8049  0.2571  0.7823
 4550TIP3    H235210   2.644   4.993   7.039 -0.3056  1.4680 -0.1508
 4551TIP3   OH235211   2.483   2.169   7.144  0.1281  0.3024 -0.6209
 4551TIP3    H135212   2.427   2.236   7.105  1.0642 -0.0654 -2.7429
 4551TIP3    H235213   2.448   2.087   7.110  0.9755 -0.0308 -0.7069
 4552TIP3   OH235214   4.216   2.849   0.833 -0.5090 -0.0034 -0.0052
 4552TIP3    H135215   4.210   2.762   0.873  0.6947 -0.8700 -1.5961
 4552TIP3    H235216   4.287   2.841   0.770  0.1406  2.3864  0.3562
 4553TIP3   OH235217   5.899   1.896   6.962  0.0404 -0.0918  0.0814
 4553TIP3    H135218   5.830   1.944   6.916  2.3489  1.3415 -2.1721
 4553TIP3    H235219   5.924   1.826   6.901  0.5439 -0.6088  0.8677
 4554TIP3   OH235220   2.563   5.743   0.654 -0.2185 -0.0205  0.5330
 4554TIP3    H135221   2.497   5.746   0.723  2.3270  1.3670  3.0848
 4554TIP3    H235222   2.586   5.650   0.647 -1.2882 -0.3091  0.7050
 4555TIP3   OH235223   6.360   3.140   0.567  0.3253  0.1669  0.0791
 4555TIP3    H135224   6.421   3.118   0.497  1.4856 -2.1181  1.6710
 4555TIP3    H235225   6.413   3.133   0.647 -1.4702  0.5352  1.3597
 4556TIP3   OH235226   4.995   0.532   0.348 -0.5555 -0.2381  0.0331
 4556TIP3    H135227   4.981   0.438   0.356 -2.9724  0.1290  0.6975
 4556TIP3    H235228   4.923   0.563   0.294  0.6936  1.1442 -0.9165
 4557TIP3   OH235229   3.358   3.614   0.721  0.1218 -0.0416 -0.5381
 4557TIP3    H135230   3.406   3.697   0.717 -0.3455  0.2441 -0.3619
 4557TIP3    H235231   3.270   3.639   0.750 -0.2080 -0.5244 -1.0998
 4558TIP3   OH235232   5.271   2.942   1.333  0.3312 -0.1857 -0.3704
 4558TIP3    H135233   5.176   2.933   1.347  0.3654  0.0552  0.0468
 4558TIP3    H235234   5.292   2.879   1.265 -0.0601 -0.5374 -0.1660
 4559TIP3   OH235235   4.348   3.341   8.384  0.1739 -0.5726  0.2478
 4559TIP3    H135236   4.335   3.345   8.479 -1.2305  0.5436  0.0475
 4559TIP3    H235237   4.390   3.424   8.362  0.6262 -0.8863 -0.1063
 4560TIP3   OH235238   3.906   5.459   1.363 -0.2653  0.1112  0.5071
 4560TIP3    H135239   3.834   5.512   1.396 -0.9312  1.7606 -3.2050
 4560TIP3    H235240   3.864   5.382   1.325  0.3456 -0.8758  1.7276
 4561TIP3   OH235241   4.640   4.988   7.510 -0.3279  0.1446 -0.2092
 4561TIP3    H135242   4.700   4.949   7.573 -0.7226 -0.4620 -0.2064
 4561TIP3    H235243   4.653   4.938   7.430  2.5145  2.8646 -1.6896
 4562TIP3   OH235244   2.192   3.587   7.094  0.1847 -0.5133  0.3374
 4562TIP3    H135245   2.174   3.612   7.184  1.3199  1.2509  0.1079
 4562TIP3    H235246   2.105   3.574   7.056 -0.4575  1.6087  0.9263
 4563TIP3   OH235247   4.110   1.303   1.064  0.4767 -0.3589 -0.0280
 4563TIP3    H135248   4.088   1.210   1.063 -1.0989 -0.0452  1.5818
 4563TIP3    H235249   4.032   1.347   1.097  1.5403  1.4537  0.2585
 4564TIP3   OH235250   1.067   4.490   0.004  0.6452  0.0485  0.1706
 4564TIP3    H135251   0.988   4.541  -0.015  1.7518  1.7015 -0.1611
 4564TIP3    H235252   1.053   4.455   0.092  0.1659  1.5383  0.7011
 4565TIP3   OH235253   3.963   1.687   8.513  0.2467 -0.5320 -0.0987
 4565TIP3    H135254   4.030   1.633   8.472  0.6525  0.8019 -1.2568
 4565TIP3    H235255   3.884   1.632   8.513  0.7879 -1.3329 -0.6954
 4566TIP3   OH235256   1.049   2.155   6.393 -0.0724 -0.2551 -0.2006
 4566TIP3    H135257   1.007   2.130   6.476 -1.9568 -0.3873 -1.1254
 4566TIP3    H235258   1.063   2.249   6.400 -1.7255  0.0387 -0.3017
 4567TIP3   OH235259   1.676   4.072   6.823 -0.3874  0.2922  0.1191
 4567TIP3    H135260   1.771   4.082   6.813 -0.3094  0.5271  1.0348
 4567TIP3    H235261   1.664   3.981   6.847 -0.3784  0.3151  0.2097
 4568TIP3   OH235262   5.246   6.127   7.892  0.9356 -0.0399  0.4031
 4568TIP3    H135263   5.299   6.199   7.927 -0.6418  0.8485  1.1197
 4568TIP3    H235264   5.169   6.170   7.856  0.7955 -1.2657 -0.8284
 4569TIP3   OH235265   0.493   1.005   8.164  0.2698 -0.5990  0.4753
 4569TIP3    H135266   0.457   1.058   8.234 -1.8045 -1.3384  0.0278
 4569TIP3    H235267   0.430   0.933   8.152  1.6260 -1.6638 -0.7235
 4570TIP3   OH235268   0.008   5.929   6.638 -0.4154  0.1863 -0.3368
 4570TIP3    H135269  -0.040   5.870   6.580  2.4942 -0.8498 -1.8698
 4570TIP3    H235270   0.016   5.880   6.720  0.1445 -0.6837 -0.8948
 4571TIP3   OH235271   3.410   4.745   7.954  0.3410 -0.2583  0.2834
 4571TIP3    H135272   3.413   4.699   7.870 -0.3878  1.2545 -0.6221
 4571TIP3    H235273   3.433   4.835   7.932 -1.4051  0.5215  1.4088
 4572TIP3   OH235274   1.496   1.133   0.304 -0.1624  0.6480  0.2876
 4572TIP3    H135275   1.524   1.169   0.220  0.3246  1.0124  0.5997
 4572TIP3    H235276   1.423   1.188   0.331 -0.6599  0.2076 -0.1378
 4573TIP3   OH235277   6.329   5.681   7.385  0.2084 -0.2370  0.7279
 4573TIP3    H135278   6.386   5.605   7.374 -0.4976 -0.5677 -0.8904
 4573TIP3    H235279   6.336   5.730   7.303 -3.2103 -1.3076 -0.3867
 4574TIP3   OH235280   1.003   0.983   6.955 -0.2632 -0.2106 -0.4916
 4574TIP3    H135281   0.947   1.048   6.995  1.1082  0.1817  0.8977
 4574TIP3    H235282   0.953   0.901   6.960 -0.5429  0.0290  1.1399
 4575TIP3   OH235283   1.354   5.436   2.083 -0.3028  0.4795  0.2015
 4575TIP3    H135284   1.420   5.482   2.135  1.6867  0.9843 -2.5396
 4575TIP3    H235285   1.354   5.347   2.118  3.6124 -0.1931 -1.0085
 4576TIP3   OH235286   6.402   0.006   7.465  0.5769  0.2165 -0.3750
 4576TIP3    H135287   6.361  -0.055   7.403  0.4719 -0.5593  0.4359
 4576TIP3    H235288   6.489   0.022   7.429  0.7630 -0.7574 -0.3934
 4577TIP3   OH235289   5.272   4.645   6.767  0.3061 -0.8226 -0.2774
 4577TIP3    H135290   5.304   4.599   6.689  0.5233  1.6231 -1.7312
 4577TIP3    H235291   5.202   4.701   6.735 -1.7528 -1.9807  1.9019
 4578TIP3   OH235292   1.367   2.062   8.281  0.3271 -0.1458  0.4074
 4578TIP3    H135293   1.384   1.978   8.240  1.5990  0.6395 -0.7504
 4578TIP3    H235294   1.307   2.106   8.220  2.3933  1.1104 -0.8265
 4579TIP3   OH235295   6.210   1.249   6.407 -0.2230  0.1002 -0.1972
 4579TIP3    H135296   6.251   1.164   6.391 -2.5269 -1.1785  0.3638
 4579TIP3    H235297   6.158   1.236   6.486 -0.3143  2.1763  0.1353
 4580TIP3   OH235298   6.363   0.604   7.024  0.0726  0.2787  0.1763
 4580TIP3    H135299   6.281   0.627   6.980  0.7596 -0.0897 -1.3782
 4580TIP3    H235300   6.425   0.591   6.953  1.1439 -0.7789  1.2524
 4581TIP3   OH235301   0.512   4.810   7.759 -0.5856  0.1462  0.3130
 4581TIP3    H135302   0.592   4.821   7.810  0.0793 -3.4036  0.3040
 4581TIP3    H235303   0.530   4.856   7.676  0.7905  0.7237  0.9003
 4582TIP3   OH235304   4.670   6.830   7.478 -0.0774 -0.0181  0.1940
 4582TIP3    H135305   4.623   6.856   7.399 -0.4407 -1.9968 -0.3057
 4582TIP3    H235306   4.711   6.910   7.509 -1.2131  1.1306 -1.1160
 4583TIP3   OH235307   2.593   4.850   7.394  0.0478 -0.4059 -0.5318
 4583TIP3    H135308   2.570   4.935   7.429 -0.3359 -1.3053  1.5348
 4583TIP3    H235309   2.535   4.839   7.318 -0.3966  0.8629 -0.3946
 4584TIP3   OH235310   4.260   2.400   0.703 -0.6583 -0.3808 -0.2722
 4584TIP3    H135311   4.333   2.378   0.760  0.8641  0.4538 -1.8217
 4584TIP3    H235312   4.220   2.315   0.682 -1.4284 -0.6913  2.1505
 4585TIP3   OH235313   3.348   1.883   7.910  0.0018  0.0855  0.0018
 4585TIP3    H135314   3.300   1.905   7.990  0.4349 -0.9373  0.5583
 4585TIP3    H235315   3.322   1.794   7.889  1.8873 -0.6560  0.5365
 4586TIP3   OH235316   3.452   5.589   0.596 -0.1338  0.3496  0.1142
 4586TIP3    H135317   3.425   5.524   0.531 -0.9582  0.9506 -0.1597
 4586TIP3    H235318   3.508   5.649   0.547 -0.8372  0.8604 -0.0880
 4587TIP3   OH235319   4.418   1.967   6.922  0.2039 -0.1484 -0.5327
 4587TIP3    H135320   4.486   1.910   6.885  1.3399  0.3347  0.7306
 4587TIP3    H235321   4.451   2.056   6.909 -0.6311  0.1338 -0.7425
 4588TIP3   OH235322   5.935   4.109   7.693 -0.1022 -0.3927  0.0354
 4588TIP3    H135323   5.920   4.014   7.700 -1.3920 -0.1868  0.1698
 4588TIP3    H235324   5.899   4.132   7.607  0.6404 -0.0949 -0.2031
 4589TIP3   OH235325   6.675   1.871   8.480  0.8354 -0.2256  0.6798
 4589TIP3    H135326   6.729   1.860   8.558  0.0027 -0.6365  1.2179
 4589TIP3    H235327   6.590   1.900   8.513  0.8270  0.8107 -0.1773
 4590TIP3   OH235328   6.466   5.068   7.520 -0.0616 -0.3889 -0.4807
 4590TIP3    H135329   6.461   5.071   7.425  2.0974  0.2160 -0.6194
 4590TIP3    H235330   6.411   4.994   7.544 -1.3251 -0.0507 -2.1029
 4591TIP3   OH235331   0.295   0.634   1.163 -0.4700 -0.0306  0.4822
 4591TIP3    H135332   0.300   0.547   1.200  0.4780  0.0909  0.6487
 4591TIP3    H235333   0.209   0.667   1.191 -0.5421 -0.6373  0.9913
 4592TIP3   OH235334   0.132   5.303   0.086 -0.1731  0.0894 -0.0071
 4592TIP3    H135335   0.203   5.263   0.037  0.2868  1.0478 -0.1343
 4592TIP3    H235336   0.111   5.383   0.038 -0.3047  0.5984  0.8672
 4593TIP3   OH235337   5.802   3.980   6.934 -0.1414  0.0966  0.3280
 4593TIP3    H135338   5.879   3.979   6.878 -0.3712  1.0081 -0.0213
 4593TIP3    H235339   5.820   4.048   6.999 -0.0373 -0.6892  1.1411
 4594TIP3   OH235340   4.789   3.655   8.167 -0.3799 -0.2639 -0.3767
 4594TIP3    H135341   4.840   3.735   8.174 -0.6521 -0.0319 -0.9996
 4594TIP3    H235342   4.847   3.587   8.200  0.6594 -0.1242 -1.8002
 4595TIP3   OH235343   3.628   1.635   0.200  0.6512 -0.2576  0.2711
 4595TIP3    H135344   3.611   1.576   0.126  1.6468 -0.5478  0.2614
 4595TIP3    H235345   3.680   1.705   0.163 -0.7913  0.8306  0.2185
 4596TIP3   OH235346   6.674   5.155   7.701  0.5221  0.2811  0.3365
 4596TIP3    H135347   6.594   5.127   7.657  0.8731 -2.3588  1.1810
 4596TIP3    H235348   6.740   5.158   7.631 -0.0213  1.2451 -0.1509
 4597TIP3   OH235349   4.724   3.612   0.901 -0.2299  0.0879  0.4511
 4597TIP3    H135350   4.638   3.644   0.926 -0.2743 -0.6716  1.3060
 4597TIP3    H235351   4.715   3.587   0.809 -0.6990  0.7272  0.3167
 4598TIP3   OH235352   4.937   0.542   7.059  0.1880  0.1854  0.1533
 4598TIP3    H135353   4.944   0.449   7.041  0.8248  0.2769 -0.0800
 4598TIP3    H235354   4.993   0.584   6.994 -0.1762  0.7365  0.1870
 4599TIP3   OH235355   2.637   2.560   8.167 -0.2470 -0.0110  0.4950
 4599TIP3    H135356   2.671   2.645   8.140 -1.3352  0.7275  1.3680
 4599TIP3    H235357   2.696   2.497   8.126  0.3579  1.1426 -0.4796
 4600TIP3   OH235358   6.126   2.182   6.413  0.2567  0.6598 -0.6881
 4600TIP3    H135359   6.120   2.097   6.368  0.0985  0.1616  0.2547
 4600TIP3    H235360   6.080   2.168   6.495  1.4409  1.2504  0.0944
 4601TIP3   OH235361   2.980   4.663   8.490 -0.5524 -0.4151  0.7666
 4601TIP3    H135362   2.937   4.741   8.524 -1.9468 -0.3412 -1.0399
 4601TIP3    H235363   2.914   4.621   8.436  1.6607 -0.1769 -2.3517
 4602TIP3   OH235364   2.346   3.504   1.931 -0.0950 -0.3352  0.4803
 4602TIP3    H135365   2.375   3.446   2.002 -0.5261 -1.5742 -0.3275
 4602TIP3    H235366   2.256   3.526   1.953 -0.8661 -2.2236 -0.5740
 4603TIP3   OH235367   5.115   1.878   7.120  0.1591  0.7048  0.4917
 4603TIP3    H135368   5.166   1.848   7.195  0.8855  1.2638  0.2326
 4603TIP3    H235369   5.156   1.961   7.096 -0.1336  0.5766 -0.4625
 4604TIP3   OH235370   0.492   6.376   7.343 -0.1157 -0.4581  0.0401
 4604TIP3    H135371   0.479   6.470   7.335  0.9754 -0.3281 -0.3550
 4604TIP3    H235372   0.431   6.338   7.280 -1.9019 -0.1336  1.5087
 4605TIP3   OH235373   6.009   2.602   8.177 -0.0208  0.7032  0.3793
 4605TIP3    H135374   6.064   2.654   8.235 -1.4096  1.6404  0.9124
 4605TIP3    H235375   6.054   2.605   8.092  0.9253  1.1167  0.8810
 4606TIP3   OH235376   5.929   5.757   6.545  0.2356  0.4995 -0.0830
 4606TIP3    H135377   5.839   5.777   6.520 -0.0667 -0.2639  0.3539
 4606TIP3    H235378   5.959   5.694   6.479 -0.0857 -0.4295  0.6354
 4607TIP3   OH235379   0.343   3.213   0.283 -0.3844 -0.0361 -0.8459
 4607TIP3    H135380   0.299   3.225   0.199  0.1443 -1.4647 -1.3577
 4607TIP3    H235381   0.383   3.126   0.277  0.5254  0.2577  0.4957
 4608TIP3   OH235382   1.499   1.091   7.808  0.2268  0.1089  0.0896
 4608TIP3    H135383   1.474   0.999   7.800  1.7134 -0.3223  0.1783
 4608TIP3    H235384   1.416   1.138   7.808 -0.7795 -1.4395  2.9266
 4609TIP3   OH235385   0.237   5.904   1.654  0.2047 -0.5473  0.1263
 4609TIP3    H135386   0.285   5.920   1.735  0.9359 -1.4022 -0.1200
 4609TIP3    H235387   0.208   5.813   1.661 -1.3576 -0.0794  0.2417
 4610TIP3   OH235388   0.452   5.003   1.078  0.4334 -0.1217 -0.0254
 4610TIP3    H135389   0.530   4.948   1.086 -0.8023 -2.0294 -0.3515
 4610TIP3    H235390   0.450   5.030   0.987  1.3975  1.0988  0.2784
 4611TIP3   OH235391   6.061   2.517   1.495  0.2959 -0.0471  0.3992
 4611TIP3    H135392   5.995   2.584   1.512 -0.3942 -0.5420 -0.2633
 4611TIP3    H235393   6.037   2.445   1.554 -0.8981 -0.9659 -1.1316
 4612TIP3   OH235394   0.886   2.858   7.140 -0.0187  0.1946  0.1124
 4612TIP3    H135395   0.960   2.797   7.140 -0.1531  0.0344 -0.3452
 4612TIP3    H235396   0.835   2.833   7.217 -1.2668 -1.7208 -1.2522
 4613TIP3   OH235397   0.928   6.090   7.055  0.0007 -0.1876  0.2962
 4613TIP3    H135398   0.950   6.146   6.981 -0.4764  1.0414  1.0454
 4613TIP3    H235399   0.842   6.055   7.035 -0.2234  0.3202  0.3661
 4614TIP3   OH235400   6.788   0.144   2.095 -0.7369 -0.2269 -0.3557
 4614TIP3    H135401   6.717   0.081   2.111 -0.1862 -0.8678 -0.4044
 4614TIP3    H235402   6.753   0.227   2.125 -2.2911 -0.1272 -2.2290
 4615TIP3   OH235403   5.126   6.408   8.646  0.3261  0.4464  0.6560
 4615TIP3    H135404   5.159   6.368   8.566 -1.1207  0.5009  0.0103
 4615TIP3    H235405   5.041   6.367   8.660 -0.8740  2.7067  0.3966
 4616TIP3   OH235406   3.252   0.074   0.144  0.2951 -0.0417  0.2418
 4616TIP3    H135407   3.162   0.054   0.171 -0.1027  0.9914 -0.2861
 4616TIP3    H235408   3.304   0.003   0.181 -0.4816  0.3165  2.1646
 4617TIP3   OH235409   0.156   5.839   0.486 -0.0542  0.6634 -0.1502
 4617TIP3    H135410   0.234   5.826   0.432  0.1452  0.7015  0.1277
 4617TIP3    H235411   0.129   5.751   0.512 -0.2005  0.6390 -0.3784
 4618TIP3   OH235412   0.292   4.699   2.159 -0.6761 -0.1122  0.2187
 4618TIP3    H135413   0.289   4.651   2.241  2.8424  3.7159  3.0365
 4618TIP3    H235414   0.243   4.779   2.176  1.5211  1.5299 -0.6431
 4619TIP3   OH235415   3.967   3.899   7.411  0.0552  0.3791  0.3855
 4619TIP3    H135416   3.922   3.815   7.407 -1.5905  1.2584 -1.1048
 4619TIP3    H235417   4.057   3.880   7.385  0.1738 -1.1599  1.7737
 4620TIP3   OH235418   2.886   0.418   6.647  0.0687 -0.0371 -0.5965
 4620TIP3    H135419   2.933   0.350   6.599 -0.3350  0.3622 -1.5911
 4620TIP3    H235420   2.869   0.486   6.582 -1.3840  0.0801 -0.1410
 4621TIP3   OH235421   5.823   5.393   0.390 -0.0551  0.2997  0.2544
 4621TIP3    H135422   5.809   5.392   0.295 -0.7680 -1.7093  0.3275
 4621TIP3    H235423   5.918   5.383   0.400 -0.1559 -1.5789 -0.2901
 4622TIP3   OH235424   2.975   4.468   7.479 -0.5466 -0.1441  0.2333
 4622TIP3    H135425   2.897   4.436   7.433 -0.4252 -0.7453  0.4351
 4622TIP3    H235426   3.022   4.519   7.414 -0.9307 -0.0708  0.0085
 4623TIP3   OH235427   4.722   1.762   7.980  0.4191  0.3436 -0.2578
 4623TIP3    H135428   4.807   1.725   7.958  0.7307  0.4153  0.8188
 4623TIP3    H235429   4.741   1.849   8.014 -0.0570  0.2722  0.2067
 4624TIP3   OH235430   3.317   0.535   0.834 -0.4694 -0.7849  0.0159
 4624TIP3    H135431   3.315   0.453   0.884  0.8976 -1.2353 -0.6241
 4624TIP3    H235432   3.288   0.602   0.896  0.7789 -1.3952  1.2971
 4625TIP3   OH235433   1.744   5.817   1.102  0.2114  0.7388 -0.2358
 4625TIP3    H135434   1.834   5.795   1.076 -0.2921 -1.0809 -0.6289
 4625TIP3    H235435   1.698   5.833   1.019  0.0280  0.9836 -0.0859
 4626TIP3   OH235436   1.803   4.060   7.293  0.0914  0.3778  0.1964
 4626TIP3    H135437   1.859   4.014   7.231  0.9425  1.7320 -0.0791
 4626TIP3    H235438   1.810   4.008   7.374  0.8657 -0.0867 -0.1562
 4627TIP3   OH235439   2.256   0.164   8.361 -0.1624 -0.7348 -0.2318
 4627TIP3    H135440   2.172   0.121   8.377 -1.0174  1.4603  2.0748
 4627TIP3    H235441   2.304   0.155   8.444  0.4079  0.9471 -0.3306
 4628TIP3   OH235442   3.159   0.499   8.193 -0.2770  0.4487 -0.4137
 4628TIP3    H135443   3.184   0.406   8.190 -2.2590 -0.1359 -0.1465
 4628TIP3    H235444   3.200   0.537   8.116  1.3296 -0.4252 -0.0410
 4629TIP3   OH235445   1.268   2.706   8.334 -0.2142 -0.4434 -0.1722
 4629TIP3    H135446   1.322   2.772   8.377 -0.4714  0.4068 -1.1089
 4629TIP3    H235447   1.318   2.681   8.256 -0.6090 -0.5688 -0.3907
 4630TIP3   OH235448   1.231   0.194   1.442  0.5328 -0.2264 -0.3482
 4630TIP3    H135449   1.177   0.191   1.521  0.6446 -0.4886 -0.2810
 4630TIP3    H235450   1.289   0.119   1.450  1.5004  0.5474  0.0036
 4631TIP3   OH235451   6.850   3.639   0.756 -0.1582  0.5063  0.2051
 4631TIP3    H135452   6.905   3.717   0.765 -1.5846  1.4823  0.8301
 4631TIP3    H235453   6.793   3.658   0.682 -0.2945 -0.1102  0.1414
 4632TIP3   OH235454   2.448   5.861   8.225  0.2986  0.0787  0.2883
 4632TIP3    H135455   2.450   5.956   8.238 -0.2748 -0.0557  1.5282
 4632TIP3    H235456   2.369   5.845   8.175  0.7334  0.2999 -0.4913
 4633TIP3   OH235457   3.341   1.622   0.308 -0.3283 -0.3100  0.1917
 4633TIP3    H135458   3.307   1.570   0.235 -0.4611 -1.8009  1.2766
 4633TIP3    H235459   3.432   1.638   0.285 -0.4173 -0.5803 -0.3862
 4634TIP3   OH235460   3.950   1.949   0.581 -0.4312 -0.2662  0.2294
 4634TIP3    H135461   3.962   1.910   0.494  0.2196  0.8235 -0.2009
 4634TIP3    H235462   3.867   1.997   0.574  0.9114  2.1219 -0.7642
 4635TIP3   OH235463   5.007   0.277   7.069  0.0846  0.2987 -0.0227
 4635TIP3    H135464   5.071   0.254   7.001 -0.7804  1.7685 -1.4190
 4635TIP3    H235465   4.971   0.193   7.098  1.6018 -0.4594 -0.2248
 4636TIP3   OH235466   0.199   6.472   0.614  0.7410  0.8491 -0.1318
 4636TIP3    H135467   0.223   6.381   0.599 -0.0109  0.1635  2.3169
 4636TIP3    H235468   0.108   6.479   0.584  0.4854  0.5126  0.5432
 4637TIP3   OH235469   4.756   0.556   7.685 -0.1005  0.6170 -0.1410
 4637TIP3    H135470   4.707   0.560   7.767 -1.9719 -1.1688 -1.0559
 4637TIP3    H235471   4.816   0.482   7.696 -1.8320 -1.0134 -1.0139
 4638TIP3   OH235472   4.940   5.773   0.425 -0.0161  0.4465 -0.2596
 4638TIP3    H135473   5.033   5.793   0.431  0.3418 -1.5160  3.2094
 4638TIP3    H235474   4.936   5.678   0.411 -1.4245  0.2360  1.2304
 4639TIP3   OH235475   1.434   4.652   6.506 -0.7144  0.2129 -0.4241
 4639TIP3    H135476   1.368   4.721   6.507 -0.2144  0.7202  1.2455
 4639TIP3    H235477   1.517   4.699   6.498 -0.4773 -0.3418 -1.3169
 4640TIP3   OH235478   2.249   6.168   8.475  0.4384  0.5334 -0.1172
 4640TIP3    H135479   2.300   6.164   8.556  0.6076  1.8231 -0.1438
 4640TIP3    H235480   2.193   6.245   8.486 -0.4925 -0.0489 -0.6767
 4641TIP3   OH235481   0.061   2.092   1.885 -0.4015  0.0371 -0.2864
 4641TIP3    H135482   0.035   2.019   1.829 -0.7844  0.2469 -0.3857
 4641TIP3    H235483  -0.007   2.158   1.871  1.3860  1.5451 -2.2878
 4642TIP3   OH235484   3.028   5.358   0.201  0.0306 -0.0639  0.8599
 4642TIP3    H135485   3.042   5.326   0.290 -0.1801  0.0378  0.9278
 4642TIP3    H235486   3.014   5.452   0.211 -1.8432 -0.3105  0.9123
 4643TIP3   OH235487   3.544   0.959   1.455 -0.6493  0.2661  0.3013
 4643TIP3    H135488   3.488   0.922   1.523  0.4358  2.9924  2.8808
 4643TIP3    H235489   3.621   0.902   1.454 -0.3225  0.6220  2.0203
 4644TIP3   OH235490   1.867   3.861   2.320 -0.3516  0.0311 -0.2660
 4644TIP3    H135491   1.943   3.917   2.303 -0.1688 -0.3839 -0.8230
 4644TIP3    H235492   1.804   3.920   2.361  0.4002  0.2998  0.5481
 4645TIP3   OH235493   2.328   2.542   7.900 -0.3628 -0.1611 -0.2236
 4645TIP3    H135494   2.319   2.587   7.984 -0.6894 -1.5630  0.5218
 4645TIP3    H235495   2.366   2.607   7.842 -2.5152  1.6752  0.3045
 4646TIP3   OH235496   5.857   0.462   6.094 -0.1929 -0.5228  0.3165
 4646TIP3    H135497   5.788   0.471   6.029  0.6023 -2.9954 -0.9532
 4646TIP3    H235498   5.823   0.399   6.157  0.2628 -0.4754  0.6199
 4647TIP3   OH235499   5.676   1.458   6.680 -0.2347 -0.1571 -0.1333
 4647TIP3    H135500   5.766   1.488   6.666 -0.0816 -0.2420  0.6310
 4647TIP3    H235501   5.649   1.424   6.594  0.3399  0.1777 -0.4577
 4648TIP3   OH235502   5.037   3.589   1.505 -0.3265 -0.0867 -0.2924
 4648TIP3    H135503   5.019   3.614   1.415 -0.5678  1.9636  0.2741
 4648TIP3    H235504   5.130   3.611   1.518 -0.1953 -0.7161 -0.1485
 4649TIP3   OH235505   2.264   1.240   8.214 -0.0786  0.1555  0.1942
 4649TIP3    H135506   2.311   1.287   8.147 -2.0712 -0.3111 -1.6489
 4649TIP3    H235507   2.256   1.301   8.287  1.3117  1.0048 -0.3517
 4650TIP3   OH235508   6.483   0.597   0.793  0.2488 -0.0013 -0.2124
 4650TIP3    H135509   6.479   0.692   0.801  0.2384 -0.1679  3.2513
 4650TIP3    H235510   6.392   0.569   0.786  0.1893  0.2038 -0.2511
 4651TIP3   OH235511   0.835   4.586   8.600 -0.1113  0.2472 -0.9806
 4651TIP3    H135512   0.771   4.655   8.581 -0.1592  0.7306  0.7997
 4651TIP3    H235513   0.805   4.511   8.548 -0.9144  1.1001 -1.7889
 4652TIP3   OH235514   4.778   0.344   2.400 -0.1437 -0.2958 -0.2493
 4652TIP3    H135515   4.808   0.417   2.346  1.5696 -1.6919 -1.2891
 4652TIP3    H235516   4.790   0.374   2.490  0.7297  0.6327 -0.6546
 4653TIP3   OH235517   6.608   3.150   0.460 -0.4045  0.5658  0.6576
 4653TIP3    H135518   6.627   3.216   0.394  0.0369 -0.8910 -0.7258
 4653TIP3    H235519   6.672   3.166   0.529 -0.2165  1.4862  0.2873
 4654TIP3   OH235520   6.663   6.540   0.316  0.6411  0.6514 -0.1769
 4654TIP3    H135521   6.671   6.596   0.238 -2.3539  0.7051 -0.5756
 4654TIP3    H235522   6.590   6.482   0.296  1.5425 -1.2096  1.5772
 4655TIP3   OH235523   2.926   0.992   8.540 -0.7656  0.1990 -0.5618
 4655TIP3    H135524   2.945   0.900   8.523  0.8119  0.3383  0.2508
 4655TIP3    H235525   2.835   0.992   8.569 -0.1392 -1.4789  1.7396
 4656TIP3   OH235526   6.451   2.673   6.844  0.3570  0.7784 -0.0324
 4656TIP3    H135527   6.453   2.578   6.855  1.3073  0.7470 -0.3328
 4656TIP3    H235528   6.404   2.687   6.761 -1.0765  0.6677  0.7319
 4657TIP3   OH235529   0.644   2.593   7.515  0.1056  0.3650  0.1632
 4657TIP3    H135530   0.708   2.553   7.457 -2.0899 -2.2700 -0.6577
 4657TIP3    H235531   0.679   2.579   7.603  0.4237 -1.5321 -0.2286
 4658TIP3   OH235532   6.145   6.577   2.208 -0.2116  0.6999  0.3339
 4658TIP3    H135533   6.055   6.551   2.189 -0.9817  1.9162  2.0616
 4658TIP3    H235534   6.180   6.505   2.261 -0.0643  0.1280 -0.5145
 4659TIP3   OH235535   4.357   5.682   1.501 -0.0525  0.2172  0.0536
 4659TIP3    H135536   4.427   5.625   1.470 -1.3238 -1.5070  0.1742
 4659TIP3    H235537   4.378   5.699   1.593  0.2532 -0.2138  0.0672
 4660TIP3   OH235538   5.746   0.849   0.957  0.2362 -0.5102 -0.3724
 4660TIP3    H135539   5.802   0.905   1.011 -0.9729 -0.0192  0.4236
 4660TIP3    H235540   5.807   0.788   0.914  1.3120 -0.4520  0.9931
 4661TIP3   OH235541   0.548   4.256   1.328 -0.0189  0.3075 -0.9682
 4661TIP3    H135542   0.465   4.246   1.282  0.5090 -0.1451 -1.8544
 4661TIP3    H235543   0.525   4.251   1.420 -0.9547  0.0556 -1.2029
 4662TIP3   OH235544   3.543   6.273   8.500  0.7074 -0.1064  0.4910
 4662TIP3    H135545   3.522   6.283   8.407  1.3227  0.4719  0.4066
 4662TIP3    H235546   3.593   6.191   8.504 -2.0589 -1.9165  0.8005
 4663TIP3   OH235547   4.438   0.865   7.684 -0.3909 -0.2859 -0.0207
 4663TIP3    H135548   4.486   0.892   7.763 -0.0661 -0.6287 -0.0971
 4663TIP3    H235549   4.451   0.938   7.623  1.2624 -0.9750 -0.5614
 4664TIP3   OH235550   3.660   5.943   1.861  0.2844  0.5830 -0.2516
 4664TIP3    H135551   3.690   6.027   1.826  0.9519  0.6754  0.5057
 4664TIP3    H235552   3.582   5.965   1.912  0.7677  0.8318  0.3897
 4665TIP3   OH235553   6.434   0.641   1.715  0.1959 -0.7652 -0.0199
 4665TIP3    H135554   6.524   0.633   1.685  0.7289 -1.5618  1.6601
 4665TIP3    H235555   6.441   0.676   1.804 -1.1875 -0.3372 -0.0527
 4666TIP3   OH235556   5.629   3.874   8.417  0.1325  0.4389  0.3111
 4666TIP3    H135557   5.607   3.878   8.323  0.1808 -0.3485  0.2625
 4666TIP3    H235558   5.644   3.965   8.441 -0.8091  0.7490 -0.2283
 4667TIP3   OH235559   6.239   4.517   2.475  0.5719 -0.3108  0.0068
 4667TIP3    H135560   6.203   4.431   2.452  0.4217 -0.0562 -0.7654
 4667TIP3    H235561   6.322   4.521   2.428  0.6293 -0.0778  0.1286
 4668TIP3   OH235562   3.185   2.785   1.475  0.4798  0.3306 -0.2471
 4668TIP3    H135563   3.184   2.880   1.462 -2.1088  0.2381 -1.3174
 4668TIP3    H235564   3.102   2.766   1.518  1.2402 -1.4141  0.5440
 4669TIP3   OH235565   4.368   5.618   8.027 -0.1934 -0.5439 -0.0348
 4669TIP3    H135566   4.386   5.560   8.101  0.6992  1.9827  1.8324
 4669TIP3    H235567   4.449   5.666   8.013 -1.0373  0.6142 -1.2130
 4670TIP3   OH235568   0.122   1.717   6.214  0.2059 -0.2305 -0.3303
 4670TIP3    H135569   0.197   1.705   6.155 -0.1724 -0.5302 -0.7635
 4670TIP3    H235570   0.089   1.804   6.194 -1.0666 -1.0136 -1.9476
 4671TIP3   OH235571   3.807   4.423   2.462 -0.3911 -0.3677  0.3420
 4671TIP3    H135572   3.804   4.483   2.388 -0.2986  1.6762  1.8953
 4671TIP3    H235573   3.721   4.431   2.503 -1.1974 -3.0219 -0.5973
 4672TIP3   OH235574   2.002   4.722   1.337  1.0513 -0.7426 -0.8994
 4672TIP3    H135575   1.988   4.797   1.395  1.4108 -0.2816 -1.3993
 4672TIP3    H235576   2.083   4.683   1.368 -0.2193 -2.2599  0.7607
 4673TIP3   OH235577   6.655   2.308   8.571  0.0353  0.5195  0.7141
 4673TIP3    H135578   6.660   2.396   8.533  0.6871  0.2561  0.1659
 4673TIP3    H235579   6.581   2.267   8.527  1.6775 -0.3122 -1.4984
 4674TIP3   OH235580   5.339   3.494   2.008  0.2731  0.1505 -0.4716
 4674TIP3    H135581   5.285   3.441   2.065  1.7109  0.2384  1.0668
 4674TIP3    H235582   5.337   3.582   2.047  1.7505  0.0785 -0.1668
 4675TIP3   OH235583   1.706   0.980   0.845  0.0823 -0.1498 -0.1265
 4675TIP3    H135584   1.699   1.008   0.754  0.5694 -1.3001 -0.5393
 4675TIP3    H235585   1.726   0.887   0.840 -0.8372 -0.4517  1.1791
 4676TIP3   OH235586   4.680   0.943   0.340 -0.1383 -0.2042 -0.0126
 4676TIP3    H135587   4.733   0.924   0.417 -0.2497  0.5787  0.2566
 4676TIP3    H235588   4.610   0.999   0.372  0.1106  0.5624 -0.7743
 4677TIP3   OH235589   6.699   0.469   1.285  0.4827 -0.0959  0.2506
 4677TIP3    H135590   6.669   0.446   1.373  2.4402 -0.6697  0.7980
 4677TIP3    H235591   6.634   0.429   1.227  0.1764 -1.2885  1.3786
 4678TIP3   OH235592   0.251   4.271   0.059 -0.3680  0.2597  0.0630
 4678TIP3    H135593   0.167   4.299   0.095  0.3615  0.1488  2.0079
 4678TIP3    H235594   0.310   4.344   0.078  0.6418 -0.8811  1.5781
 4679TIP3   OH235595   2.132   6.415   8.527  0.2078  0.2748 -0.6990
 4679TIP3    H135596   2.095   6.463   8.601  0.6574 -0.7073  0.1951
 4679TIP3    H235597   2.208   6.466   8.500  1.4782 -0.5564  1.1056
 4680TIP3   OH235598   2.614   2.722   1.635 -0.3336 -0.0630 -0.7323
 4680TIP3    H135599   2.622   2.787   1.565 -0.4146  1.6568  0.7722
 4680TIP3    H235600   2.520   2.720   1.654 -0.2481 -0.0696 -0.3025
 4681TIP3   OH235601   2.256   1.695   7.005 -0.7715 -0.2782  0.1751
 4681TIP3    H135602   2.168   1.705   6.969 -1.6271 -5.2651  0.1223
 4681TIP3    H235603   2.283   1.607   6.977  2.1492 -1.0052  4.3280
 4682TIP3   OH235604   1.672   2.464   6.842  0.3232  0.2297  0.0888
 4682TIP3    H135605   1.600   2.401   6.851 -0.1237  0.6310 -0.5873
 4682TIP3    H235606   1.653   2.511   6.761  1.4513  0.2234 -0.2037
 4683TIP3   OH235607   4.973   0.415   0.081  0.6563 -0.3974  0.1703
 4683TIP3    H135608   4.947   0.354   0.150  1.5169  1.4277  2.2753
 4683TIP3    H235609   5.069   0.412   0.082  0.7403  1.3476  0.7527
 4684TIP3   OH235610   3.632   5.034   7.927  0.0033  0.1695 -0.2253
 4684TIP3    H135611   3.618   5.034   8.021 -1.1973 -0.2852 -0.3906
 4684TIP3    H235612   3.579   5.107   7.894  0.6933  0.5535 -0.5234
 4685TIP3   OH235613   3.768   5.722   0.832  0.0795 -0.1297  0.6721
 4685TIP3    H135614   3.705   5.746   0.764  0.9212  0.1902 -0.0172
 4685TIP3    H235615   3.826   5.798   0.839  0.0800 -0.2035  1.6728
 4686TIP3   OH235616   3.106   1.376   7.026 -0.1752 -0.7065 -0.3573
 4686TIP3    H135617   3.042   1.349   6.961  0.5577  1.2595 -1.9812
 4686TIP3    H235618   3.172   1.306   7.024 -1.2186 -1.7409 -0.0929
 4687TIP3   OH235619   5.697   6.209   7.754  0.5355 -0.6970  0.2593
 4687TIP3    H135620   5.655   6.219   7.840  2.6826  0.5782  1.2383
 4687TIP3    H235621   5.653   6.274   7.699  0.8357  0.2669  1.1236
 4688TIP3   OH235622   2.491   4.738   0.289 -0.7677  0.0112 -0.5371
 4688TIP3    H135623   2.400   4.758   0.314 -0.6309  0.0555 -0.0531
 4688TIP3    H235624   2.543   4.774   0.361 -0.2176  1.8026 -1.7755
 4689TIP3   OH235625   4.199   4.503   0.506 -0.3416 -0.1496 -0.1644
 4689TIP3    H135626   4.236   4.490   0.593  1.5241 -0.2815 -0.9342
 4689TIP3    H235627   4.158   4.589   0.510 -1.4853 -0.7333  1.2254
 4690TIP3   OH235628   3.825   1.807   0.121 -0.6203 -0.6228 -0.1233
 4690TIP3    H135629   3.866   1.745   0.061  1.6727 -0.4043  1.1222
 4690TIP3    H235630   3.819   1.889   0.072 -0.1773 -0.8394 -0.5473
 4691TIP3   OH235631   0.287   3.005   2.197  0.1285  0.0831 -0.1599
 4691TIP3    H135632   0.286   2.982   2.289  1.9860 -2.8228 -0.7366
 4691TIP3    H235633   0.377   2.990   2.169 -0.9099 -1.9792 -2.9929
 4692TIP3   OH235634   5.205   0.465   0.613  0.2715  0.1061 -0.1653
 4692TIP3    H135635   5.300   0.454   0.611  0.6209  2.1823  1.4366
 4692TIP3    H235636   5.186   0.530   0.546  0.2052  0.8447  0.5523
 4693TIP3   OH235637   4.811   0.722   8.503 -0.0827 -0.2930 -0.1536
 4693TIP3    H135638   4.888   0.778   8.505  0.4711 -1.0444  0.2137
 4693TIP3    H235639   4.741   0.775   8.542  0.5819 -0.0802  0.7822
 4694TIP3   OH235640   3.399   1.262   1.077 -0.2256  0.1693  0.1988
 4694TIP3    H135641   3.422   1.245   1.168  1.6457  1.9594  0.1359
 4694TIP3    H235642   3.478   1.237   1.028 -0.0296  2.1237 -0.5658
 4695TIP3   OH235643   4.146   6.058   8.181  0.2114  0.0593 -0.3060
 4695TIP3    H135644   4.184   5.971   8.170 -0.4332 -0.1453 -1.0089
 4695TIP3    H235645   4.114   6.081   8.094 -2.3370 -0.3070  0.4484
 4696TIP3   OH235646   4.142   6.852   7.327 -0.1069 -0.2590 -0.0466
 4696TIP3    H135647   4.237   6.863   7.340 -0.3048 -0.1063  1.4976
 4696TIP3    H235648   4.103   6.914   7.389 -1.2324  0.4442 -1.4142
 4697TIP3   OH235649   5.735   0.379   6.329 -0.3982  0.0362 -0.6356
 4697TIP3    H135650   5.672   0.309   6.311 -0.3424  0.2015 -1.5093
 4697TIP3    H235651   5.688   0.441   6.383 -0.1255 -1.1959  1.0980
 4698TIP3   OH235652   1.294   4.424   6.601 -0.1113 -0.5885  0.5552
 4698TIP3    H135653   1.347   4.489   6.556 -0.3097 -0.8494 -0.0562
 4698TIP3    H235654   1.227   4.475   6.647 -1.7873 -0.4372 -1.8502
 4699TIP3   OH235655   2.283   2.275   6.655  0.3888 -0.0711 -0.0078
 4699TIP3    H135656   2.297   2.204   6.593  0.7462 -1.0925  1.1876
 4699TIP3    H235657   2.256   2.349   6.602  1.8831 -0.5477 -1.5085
 4700TIP3   OH235658   1.437   6.570   0.547  0.3759 -0.0673  0.4248
 4700TIP3    H135659   1.441   6.607   0.459 -0.7392  0.2775  0.5000
 4700TIP3    H235660   1.390   6.487   0.536  0.9087 -0.3891  0.5834
 4701TIP3   OH235661   6.887   5.995   0.665 -0.1422  0.4307 -0.1792
 4701TIP3    H135662   6.929   5.956   0.741 -2.0077 -1.7512 -0.1430
 4701TIP3    H235663   6.925   5.949   0.590 -0.8286  0.0254 -0.2899
 4702TIP3   OH235664   5.923   1.476   0.306  0.1514  0.4860 -0.5185
 4702TIP3    H135665   5.909   1.423   0.385 -0.6200  3.1182  1.2456
 4702TIP3    H235666   6.017   1.475   0.293  0.1519 -1.4289 -0.6774
 4703TIP3   OH235667   4.084   4.144   1.435  0.1469  0.0239  0.1646
 4703TIP3    H135668   4.072   4.159   1.341 -1.1217  1.7155  0.5528
 4703TIP3    H235669   4.086   4.049   1.443  0.0798 -0.1665 -1.5499
 4704TIP3   OH235670   0.966   4.427   7.778  0.2859 -0.3158  0.0797
 4704TIP3    H135671   1.012   4.464   7.702  1.2821 -1.4786  0.0728
 4704TIP3    H235672   0.900   4.370   7.740  1.9311 -2.2819  0.0053
 4705TIP3   OH235673   5.494   3.413   0.845 -0.1387 -0.0076 -0.7132
 4705TIP3    H135674   5.474   3.476   0.913 -3.1679 -1.1224 -0.4431
 4705TIP3    H235675   5.590   3.418   0.835  0.3961  0.5826  3.2096
 4706TIP3   OH235676   2.571   6.021   7.597  0.9821 -0.2543  0.3945
 4706TIP3    H135677   2.479   6.019   7.623  0.5943  0.6117 -0.8193
 4706TIP3    H235678   2.606   5.937   7.627  0.2095  0.0230  2.2440
 4707TIP3   OH235679   0.797   5.449   0.432  0.6170 -0.3241 -0.4043
 4707TIP3    H135680   0.749   5.366   0.442 -0.0982  0.1027 -0.2031
 4707TIP3    H235681   0.820   5.474   0.522  0.1952  0.0587 -0.4006
 4708TIP3   OH235682   5.479   3.220   1.828  0.4612 -0.3466  0.7777
 4708TIP3    H135683   5.481   3.163   1.752 -2.0703  0.7341 -0.2013
 4708TIP3    H235684   5.539   3.291   1.806  0.5521 -0.5777  0.2612
 4709TIP3   OH235685   0.312   0.783   0.136  0.4116 -0.0999  0.0121
 4709TIP3    H135686   0.217   0.796   0.131  0.3252 -0.8294 -0.3675
 4709TIP3    H235687   0.347   0.870   0.155 -0.3797  0.0643  0.8072
 4710TIP3   OH235688   6.362   6.841   6.325 -0.1886  0.5951  0.1453
 4710TIP3    H135689   6.274   6.875   6.307 -0.6628  0.2889  1.7318
 4710TIP3    H235690   6.399   6.904   6.387 -0.1536 -0.4875  1.2320
 4711TIP3   OH235691   2.059   4.803   0.550 -0.0320 -0.1266  0.1777
 4711TIP3    H135692   2.138   4.767   0.591 -0.3405 -0.8047  0.1953
 4711TIP3    H235693   2.030   4.735   0.490 -1.1407 -0.2922  0.8715
 4712TIP3   OH235694   6.649   6.403   8.609 -0.0408 -0.7094  0.4617
 4712TIP3    H135695   6.619   6.360   8.689  0.2010  0.7632  1.3922
 4712TIP3    H235696   6.745   6.407   8.619  0.0521 -1.1129 -0.2290
 4713TIP3   OH235697   3.985   4.191   1.889 -0.2891  0.2947 -0.6152
 4713TIP3    H135698   4.077   4.180   1.911 -0.1477 -0.8926 -1.6858
 4713TIP3    H235699   3.944   4.222   1.970  1.0003  0.5762 -0.0587
 4714TIP3   OH235700   5.103   2.096   7.368  0.5001  0.3856  0.0234
 4714TIP3    H135701   5.103   2.050   7.284  1.8136 -0.2620  0.3407
 4714TIP3    H235702   5.134   2.185   7.346 -2.9984  1.5784 -0.7462
 4715TIP3   OH235703   4.279   0.925   1.503  1.1668 -0.5938 -0.1504
 4715TIP3    H135704   4.284   1.019   1.518  3.2915 -0.7083  0.1716
 4715TIP3    H235705   4.367   0.893   1.522  0.1365 -2.8806  1.2783
 4716TIP3   OH235706   2.371   0.992   8.213 -0.1832 -0.1802  0.3634
 4716TIP3    H135707   2.350   1.085   8.217 -2.4682 -0.6583  1.2658
 4716TIP3    H235708   2.298   0.949   8.259 -0.5909 -2.6188 -2.2909
 4717TIP3   OH235709   5.595   0.256   1.122 -0.3962 -0.3020 -0.4721
 4717TIP3    H135710   5.641   0.236   1.041 -1.3895  3.1942 -2.1255
 4717TIP3    H235711   5.507   0.280   1.094 -1.7630 -1.9595  2.0604
 4718TIP3   OH235712   1.625   1.847   6.570  0.7233 -0.5261  0.1143
 4718TIP3    H135713   1.711   1.852   6.610  0.9898  1.2319 -0.5907
 4718TIP3    H235714   1.620   1.759   6.533  1.5751 -1.1857  1.5078
 4719TIP3   OH235715   5.243   1.918   0.065  0.3533 -0.3281  0.3846
 4719TIP3    H135716   5.189   1.852   0.022  2.2586  1.0359 -4.7787
 4719TIP3    H235717   5.302   1.867   0.121 -0.7663 -2.5744 -0.3680
 4720TIP3   OH235718   3.564   2.719   7.899  0.3312  0.9560  0.0961
 4720TIP3    H135719   3.625   2.656   7.938  1.5977  0.6623 -2.1512
 4720TIP3    H235720   3.501   2.738   7.968 -0.4966 -3.2364  0.8092
 4721TIP3   OH235721   4.996   2.661   8.024 -0.2217  0.3361 -0.2409
 4721TIP3    H135722   4.937   2.713   8.079 -1.5568 -0.8613 -0.4640
 4721TIP3    H235723   4.970   2.570   8.040 -0.9543 -0.0539 -3.0877
 4722TIP3   OH235724   6.738   3.649   1.580  0.2751 -0.6088 -0.9838
 4722TIP3    H135725   6.807   3.711   1.603 -0.6805 -0.3742  1.5212
 4722TIP3    H235726   6.771   3.564   1.610 -0.4257 -0.5185  0.0869
 4723TIP3   OH235727   1.207   6.161   8.634 -0.0700 -0.0153  0.3310
 4723TIP3    H135728   1.170   6.083   8.592 -0.1372  0.8781 -1.3607
 4723TIP3    H235729   1.150   6.232   8.607  0.6300  0.7987  0.9365
 4724TIP3   OH235730   3.995   0.256   8.265 -0.5390 -0.4200  0.0587
 4724TIP3    H135731   3.931   0.327   8.269  0.2450  0.3864 -0.8618
 4724TIP3    H235732   4.029   0.249   8.354 -0.2678  0.7214  0.0642
 4725TIP3   OH235733   3.944   3.217   6.789 -0.6389 -0.1379 -0.4388
 4725TIP3    H135734   3.917   3.253   6.874  2.2128 -0.9726  0.9825
 4725TIP3    H235735   3.868   3.168   6.757 -1.5387 -0.5374  2.0837
 4726TIP3   OH235736   5.044   4.825   1.946 -0.0466 -0.7072 -1.1334
 4726TIP3    H135737   4.948   4.819   1.950 -0.1289  0.4618 -1.1536
 4726TIP3    H235738   5.073   4.797   2.033 -0.5138  0.6835 -0.5046
 4727TIP3   OH235739   1.092   1.742   6.064 -0.3384 -0.3851  0.2639
 4727TIP3    H135740   1.014   1.709   6.019  0.6605 -0.3598 -1.6128
 4727TIP3    H235741   1.081   1.837   6.065  1.2267  0.0194 -3.4236
 4728TIP3   OH235742   5.630   4.593   0.195  0.1604  0.6631  0.1176
 4728TIP3    H135743   5.680   4.670   0.166  1.3030 -0.0173  0.2248
 4728TIP3    H235744   5.628   4.600   0.291  0.4354  0.4575  0.1387
 4729TIP3   OH235745   0.039   4.774   1.360 -0.3628  0.5650  0.6426
 4729TIP3    H135746   0.132   4.782   1.341 -0.3708 -0.3116  0.1766
 4729TIP3    H235747   0.023   4.836   1.431  0.7736  0.0070  1.4095
 4730TIP3   OH235748   4.699   0.157   7.912  0.1849 -0.2939 -0.2141
 4730TIP3    H135749   4.781   0.143   7.866 -0.0512  0.0432 -0.7427
 4730TIP3    H235750   4.653   0.074   7.907 -0.1051 -0.0888 -1.1239
 4731TIP3   OH235751   5.084   2.395   8.434 -0.0531  0.3607  0.2192
 4731TIP3    H135752   5.074   2.305   8.403 -1.0054  0.3193  0.5884
 4731TIP3    H235753   5.151   2.433   8.378  1.2541 -0.9238  0.8410
 4732TIP3   OH235754   2.493   0.405   1.541 -0.1455 -0.2951  0.4082
 4732TIP3    H135755   2.495   0.408   1.636  0.3900  0.1039  0.3876
 4732TIP3    H235756   2.455   0.319   1.520 -1.7484  0.2490  0.9733
 4733TIP3   OH235757   4.895   2.007   1.140 -0.2671 -0.2675  0.7280
 4733TIP3    H135758   4.930   1.919   1.131 -0.2284 -0.1784 -0.0663
 4733TIP3    H235759   4.800   1.995   1.146 -0.3395 -0.3202 -0.2963
 4734TIP3   OH235760   0.342   0.042   1.134 -0.4267  0.1307  0.1790
 4734TIP3    H135761   0.414   0.049   1.071 -0.8769  0.2330 -0.3269
 4734TIP3    H235762   0.379   0.074   1.217 -0.4536  2.0942 -0.5186
 4735TIP3   OH235763   3.444   0.500   0.136 -0.2147 -0.2314 -0.1874
 4735TIP3    H135764   3.535   0.512   0.108 -0.8227 -0.9184 -2.7344
 4735TIP3    H235765   3.426   0.407   0.121 -1.7044  0.1497 -0.9873
 4736TIP3   OH235766   2.084   3.934   8.609  0.4722  0.5156  0.2047
 4736TIP3    H135767   2.124   3.989   8.542  1.5894 -0.6999 -0.1674
 4736TIP3    H235768   2.158   3.891   8.652 -0.3710 -0.6616  0.5100
 4737TIP3   OH235769   0.374   2.551   0.995 -0.1225  0.0600 -0.2109
 4737TIP3    H135770   0.363   2.638   1.034  2.7148  0.1672  0.5796
 4737TIP3    H235771   0.352   2.490   1.065 -0.6728  0.1492 -0.3019
 4738TIP3   OH235772   4.600   6.709   1.411 -0.0601  0.2161  0.6499
 4738TIP3    H135773   4.636   6.704   1.499  0.6243  0.5292  0.3910
 4738TIP3    H235774   4.675   6.699   1.353 -0.7518 -2.5714  0.0461
 4739TIP3   OH235775   0.621   4.793   8.279 -0.1228 -0.0665 -0.1311
 4739TIP3    H135776   0.670   4.873   8.262 -0.9730  0.7509  1.0999
 4739TIP3    H235777   0.688   4.724   8.281  0.4231  0.2202 -3.1901
 4740TIP3   OH235778   4.524   5.890   0.392  0.0707  0.5767  0.2901
 4740TIP3    H135779   4.609   5.916   0.359 -0.6204  1.4928 -0.8611
 4740TIP3    H235780   4.538   5.804   0.431  1.0951 -0.3105 -1.8807
 4741TIP3   OH235781   1.147   6.441   0.139  0.0987 -0.2231  0.1686
 4741TIP3    H135782   1.065   6.443   0.090  0.4214 -0.3388 -0.3790
 4741TIP3    H235783   1.190   6.524   0.117  0.6616 -0.6733 -0.4770
 4742TIP3   OH235784   0.319   4.044   0.609 -0.2741  0.0301 -0.1830
 4742TIP3    H135785   0.336   4.136   0.628  0.8295 -0.0984 -0.4817
 4742TIP3    H235786   0.393   3.997   0.647  0.1519 -0.5524 -1.6872
 4743TIP3   OH235787   2.044   4.847   2.077  0.3167  0.0400  0.2520
 4743TIP3    H135788   2.057   4.757   2.046  0.4719 -0.4564  1.7048
 4743TIP3    H235789   2.031   4.838   2.171  1.0179  1.6082  0.5183
 4744TIP3   OH235790   4.927   3.112   7.947  0.5469  0.3925 -0.2942
 4744TIP3    H135791   4.919   3.207   7.948  0.1458  0.4317  2.6877
 4744TIP3    H235792   4.840   3.081   7.920  0.6974  0.8381 -1.3390
 4745TIP3   OH235793   5.752   1.186   7.039 -0.3031 -0.2861 -0.3636
 4745TIP3    H135794   5.839   1.146   7.040  0.5885  1.5548  0.4962
 4745TIP3    H235795   5.717   1.165   6.953  0.7843 -1.4857 -0.5434
 4746TIP3   OH235796   1.338   2.393   7.042 -0.2869  0.1618 -0.4368
 4746TIP3    H135797   1.263   2.367   7.095  0.0004 -2.4586 -1.1282
 4746TIP3    H235798   1.301   2.414   6.956 -0.3016 -1.4406 -0.8737
 4747TIP3   OH235799   1.670   0.929   0.193 -0.1228 -0.0592  0.3802
 4747TIP3    H135800   1.661   0.998   0.258  0.9074  0.2644  0.1949
 4747TIP3    H235801   1.587   0.929   0.146 -0.7486 -0.0795  1.4741
 4748TIP3   OH235802   3.817   0.634   6.743  0.1129  0.3198  0.2378
 4748TIP3    H135803   3.728   0.664   6.727  0.4890  1.6596  0.4435
 4748TIP3    H235804   3.850   0.608   6.657 -0.1429  0.8326 -0.0226
 4749TIP3   OH235805   4.546   2.196   7.763 -0.1892 -0.1515  0.3692
 4749TIP3    H135806   4.487   2.245   7.706 -0.0357  0.6470  0.8859
 4749TIP3    H235807   4.619   2.255   7.780 -0.1301 -0.4452  1.2133
 4750TIP3   OH235808   0.085   4.819   0.845  0.0148 -0.6033 -0.2650
 4750TIP3    H135809   0.048   4.843   0.930  0.3477  0.9488 -0.5261
 4750TIP3    H235810   0.014   4.773   0.800  0.0489 -2.0381  1.0789
 4751TIP3   OH235811   2.567   1.835   6.472 -0.2024 -0.2264 -0.1780
 4751TIP3    H135812   2.633   1.883   6.522 -2.2704  0.4466  2.0417
 4751TIP3    H235813   2.576   1.869   6.383  2.4887 -0.2730 -0.0221
 4752TIP3   OH235814   4.798   0.668   0.805  0.3048  0.1868 -0.0954
 4752TIP3    H135815   4.854   0.590   0.807  2.2809  1.5354  0.5895
 4752TIP3    H235816   4.709   0.634   0.812  1.0657 -2.0197 -0.2838
 4753TIP3   OH235817   4.352   4.217   1.512  0.4861 -0.0512 -0.1437
 4753TIP3    H135818   4.289   4.161   1.466  1.1718 -0.6847 -0.3191
 4753TIP3    H235819   4.407   4.157   1.561  1.8916  0.3601 -1.1338
 4754TIP3   OH235820   4.417   6.259   1.832 -0.0510  0.2944  0.2032
 4754TIP3    H135821   4.504   6.232   1.802  0.4824  2.8800 -0.8573
 4754TIP3    H235822   4.416   6.236   1.925  1.9283  0.5263  0.3311
 4755TIP3   OH235823   2.832   1.016   7.735 -0.2636 -0.1638  0.1815
 4755TIP3    H135824   2.899   1.065   7.688 -0.3393 -0.3933 -0.1723
 4755TIP3    H235825   2.879   0.971   7.806 -0.2995  0.9581  0.9431
 4756TIP3   OH235826   4.185   0.882   7.916  0.8048  0.5527  0.2136
 4756TIP3    H135827   4.208   0.949   7.851  0.6776  1.1385  0.7616
 4756TIP3    H235828   4.159   0.806   7.864  0.0807  1.2215 -0.4361
 4757TIP3   OH235829   6.397   4.920   1.517 -0.2400 -0.1198  0.2594
 4757TIP3    H135830   6.418   4.958   1.602  1.1861 -0.1439 -0.0524
 4757TIP3    H235831   6.324   4.972   1.484 -0.7043 -0.0179  1.4189
 4758TIP3   OH235832   0.240   0.101   0.024 -0.4929  0.9828 -0.2805
 4758TIP3    H135833   0.185   0.023   0.027  1.4897 -0.4785 -0.0614
 4758TIP3    H235834   0.224   0.144   0.108 -1.3591  0.6498 -0.2638
 4759TIP3   OH235835   3.512   2.234   1.327  0.1839  0.5306  0.2374
 4759TIP3    H135836   3.435   2.290   1.331 -2.0500 -2.2997  0.7742
 4759TIP3    H235837   3.535   2.229   1.234 -1.1620  0.3960 -0.1030
 4760TIP3   OH235838   4.247   2.932   8.171 -0.1722  0.5810  0.2092
 4760TIP3    H135839   4.268   2.996   8.240 -0.1809 -0.6120  1.3510
 4760TIP3    H235840   4.299   2.855   8.194  0.9221  0.6131 -1.9242
 4761TIP3   OH235841   1.310   1.725   0.552 -0.4232  0.2396 -0.2645
 4761TIP3    H135842   1.235   1.784   0.557  0.6304  1.6516 -0.5430
 4761TIP3    H235843   1.350   1.730   0.639  0.3130  0.8448 -0.6246
 4762TIP3   OH235844   5.739   0.816   6.680  0.0484  0.1440  0.0948
 4762TIP3    H135845   5.668   0.813   6.616 -1.0778 -0.1327  1.3215
 4762TIP3    H235846   5.818   0.827   6.627 -0.7979 -0.5198 -1.3677
 4763TIP3   OH235847   3.607   5.126   1.527 -0.1421 -0.3513 -0.2906
 4763TIP3    H135848   3.534   5.083   1.571  0.8321 -0.3633  1.4313
 4763TIP3    H235849   3.640   5.188   1.592  0.7288  0.3990 -1.4095
 4764TIP3   OH235850   2.959   2.652   0.779 -0.2435  0.3064 -0.3192
 4764TIP3    H135851   3.041   2.630   0.735  0.9709  2.9537  0.3907
 4764TIP3    H235852   2.918   2.717   0.722 -0.4396  1.0635  0.6575
 4765TIP3   OH235853   0.582   4.437   1.850 -0.0484  0.5616  0.6625
 4765TIP3    H135854   0.510   4.374   1.851 -0.4977  1.0708  0.9654
 4765TIP3    H235855   0.549   4.511   1.900  1.9839 -0.6116  4.1159
 4766TIP3   OH235856   2.688   6.535   1.668  0.0037 -0.4310  1.2428
 4766TIP3    H135857   2.643   6.615   1.698 -0.7805 -1.1370  2.0176
 4766TIP3    H235858   2.681   6.537   1.573  1.4023  1.2176  1.1208
 4767TIP3   OH235859   6.055   1.250   6.636 -0.2101  0.3954 -0.2502
 4767TIP3    H135860   5.977   1.302   6.617  1.8404  3.5001 -0.9458
 4767TIP3    H235861   6.081   1.278   6.724  1.4414  1.2812 -0.9932
 4768TIP3   OH235862   5.893   3.892   0.437  0.4869  0.4187 -0.4001
 4768TIP3    H135863   5.953   3.836   0.485 -0.0594 -1.3637 -1.6964
 4768TIP3    H235864   5.949   3.960   0.399  1.1888  0.6711  0.9991
 4769TIP3   OH235865   3.759   4.524   7.743 -0.2930 -0.0796 -0.3277
 4769TIP3    H135866   3.770   4.429   7.742  1.3635  0.0057  1.6392
 4769TIP3    H235867   3.676   4.538   7.788  0.5005 -0.6346  1.4176
 4770TIP3   OH235868   3.737   4.612   1.233 -0.6287  0.3635 -0.2826
 4770TIP3    H135869   3.713   4.544   1.296  0.4581 -0.2314 -0.4850
 4770TIP3    H235870   3.659   4.666   1.225 -1.5827 -0.9828 -0.2751
 4771TIP3   OH235871   1.066   5.707   0.032  0.2806  0.6462 -0.1096
 4771TIP3    H135872   1.147   5.699   0.081  1.2877 -1.5838 -1.9477
 4771TIP3    H235873   1.012   5.633   0.061  0.1456  0.3791 -0.9848
 4772TIP3   OH235874   4.642   3.469   7.141 -0.1687 -0.1275 -0.8322
 4772TIP3    H135875   4.633   3.478   7.236 -2.7047  0.6278 -1.0734
 4772TIP3    H235876   4.735   3.482   7.125  0.3378 -0.2916  1.5435
 4773TIP3   OH235877   4.504   3.293   7.789 -0.1508  0.3095  0.0712
 4773TIP3    H135878   4.565   3.328   7.854  0.4438 -0.9636  0.2352
 4773TIP3    H235879   4.419   3.295   7.832  0.0648  0.4660  0.5008
 4774TIP3   OH235880   0.256   4.372   6.575 -0.5874 -0.7685  0.1808
 4774TIP3    H135881   0.241   4.316   6.499 -0.6644  1.2699 -1.4274
 4774TIP3    H235882   0.170   4.382   6.615 -0.3278 -2.9358  1.4329
 4775TIP3   OH235883   1.924   5.870   0.676 -0.4664  0.2195  0.0496
 4775TIP3    H135884   1.897   5.947   0.725 -0.2607 -0.9625  2.1321
 4775TIP3    H235885   1.874   5.875   0.594  0.1500  2.9305 -0.2510
 4776TIP3   OH235886   4.941   3.386   7.445  0.8593  0.1005 -0.1692
 4776TIP3    H135887   4.873   3.393   7.512 -0.2036 -0.8772 -1.1083
 4776TIP3    H235888   5.007   3.451   7.472 -0.0918  0.5814  1.1469
 4777TIP3   OH235889   0.841   1.233   6.974  0.5117 -0.0315  0.0755
 4777TIP3    H135890   0.864   1.242   6.881  1.3726  0.1890  0.2978
 4777TIP3    H235891   0.846   1.322   7.008  3.1331 -0.4252  0.9692
 4778TIP3   OH235892   0.519   4.190   1.612  0.4369  0.4547  0.0994
 4778TIP3    H135893   0.444   4.130   1.606  0.0446  0.9679 -0.1946
 4778TIP3    H235894   0.525   4.210   1.705  0.6614 -0.1483  0.2228
 4779TIP3   OH235895   6.377   0.815   6.710 -0.1484  0.6944  0.4481
 4779TIP3    H135896   6.361   0.721   6.702  0.0357  0.5341  1.7796
 4779TIP3    H235897   6.296   0.856   6.679 -1.7306 -0.0054  3.3242
 4780TIP3   OH235898   4.508   4.842   2.089 -0.0808 -0.2586 -0.1456
 4780TIP3    H135899   4.555   4.903   2.146 -0.1215  0.5396 -0.9327
 4780TIP3    H235900   4.475   4.775   2.147 -1.5137  1.3902  1.0344
 4781TIP3   OH235901   0.403   1.017   1.941 -0.1358 -0.6771  0.5353
 4781TIP3    H135902   0.318   1.053   1.914 -0.6525 -1.5527  0.9163
 4781TIP3    H235903   0.395   1.006   2.036  0.3001 -1.0030  0.5362
 4782TIP3   OH235904   2.476   6.512   7.223  0.0217 -0.3952  0.1070
 4782TIP3    H135905   2.466   6.440   7.161 -1.2007  0.5320 -0.8257
 4782TIP3    H235906   2.560   6.552   7.199 -0.0327 -0.5695 -0.3857
 4783TIP3   OH235907   1.335   4.305   1.129 -0.4161 -0.0837 -0.6962
 4783TIP3    H135908   1.256   4.321   1.077 -1.6766 -0.8270  0.8993
 4783TIP3    H235909   1.397   4.372   1.100 -2.1479  1.4863 -0.9690
 4784TIP3   OH235910   3.065   2.352   1.485  0.5614 -0.2017 -0.8853
 4784TIP3    H135911   3.088   2.440   1.516  1.1303 -0.5724 -0.2255
 4784TIP3    H235912   3.017   2.313   1.558  1.6130 -0.9627 -0.5789
 4785TIP3   OH235913   2.934   0.377   1.469  0.6148 -0.1248  0.0997
 4785TIP3    H135914   2.910   0.285   1.483 -0.4087  0.0318 -0.5364
 4785TIP3    H235915   3.028   0.379   1.485  0.5506 -1.1651  0.7285
 4786TIP3   OH235916   1.758   2.338   7.782  0.7706 -0.7311  0.1338
 4786TIP3    H135917   1.763   2.257   7.833  1.8607 -0.9421 -0.2835
 4786TIP3    H235918   1.722   2.311   7.697  0.4459 -0.6520  0.2461
 4787TIP3   OH235919   1.894   2.570   7.834  0.0894 -0.1769  0.5493
 4787TIP3    H135920   1.842   2.491   7.824 -0.5598  0.3011  0.0097
 4787TIP3    H235921   1.860   2.629   7.767  0.0888  0.8145  1.4052
 4788TIP3   OH235922   5.117   4.211   1.721  0.4089 -0.2267 -0.5388
 4788TIP3    H135923   5.038   4.165   1.749  0.1938  0.6615  0.3547
 4788TIP3    H235924   5.187   4.171   1.771  0.0966  1.0007  0.9361
 4789TIP3   OH235925   1.307   4.323   7.731 -0.1285  0.8268  1.1339
 4789TIP3    H135926   1.317   4.284   7.644  1.8543  0.6723  1.3830
 4789TIP3    H235927   1.254   4.259   7.780 -2.8148  1.7395 -0.4002
 4790TIP3   OH235928   6.755   2.982   0.874 -0.0697 -0.1216  0.5286
 4790TIP3    H135929   6.775   2.960   0.783 -1.0293 -1.5666  0.6418
 4790TIP3    H235930   6.828   3.038   0.901  0.6591 -0.3348 -0.8718
 4791TIP3   OH235931   5.267   4.833   7.956  0.2464  0.0061 -0.0312
 4791TIP3    H135932   5.264   4.846   7.861 -2.9438 -0.9521 -0.1712
 4791TIP3    H235933   5.252   4.920   7.992  0.4039  0.2007 -0.4276
 4792TIP3   OH235934   4.962   0.023   7.141 -0.3016 -0.2919  0.7180
 4792TIP3    H135935   4.911  -0.007   7.066  1.2967 -2.2219  0.3044
 4792TIP3    H235936   4.927  -0.025   7.216 -0.3070 -0.2072  0.7707
 4793TIP3   OH235937   2.065   2.885   8.520  0.2761 -0.9566 -0.6443
 4793TIP3    H135938   2.008   2.873   8.444  1.7473 -1.1445 -1.7582
 4793TIP3    H235939   2.144   2.836   8.499  1.7059  0.9953 -0.0940
 4794TIP3   OH235940   3.205   6.858   7.710 -0.1462  0.1399 -0.4774
 4794TIP3    H135941   3.176   6.856   7.618  0.4681 -0.4077 -0.6680
 4794TIP3    H235942   3.175   6.942   7.743 -0.3708  0.3432 -1.1835
 4795TIP3   OH235943   1.175   0.741   1.941  0.1762 -0.2405 -0.5092
 4795TIP3    H135944   1.201   0.736   2.033 -1.2921  1.8461  0.1093
 4795TIP3    H235945   1.244   0.794   1.900 -0.1915  0.5576 -0.1247
 4796TIP3   OH235946   1.547   4.836   7.941 -0.2341 -0.0493  0.2871
 4796TIP3    H135947   1.567   4.776   7.869 -0.1065 -0.3614  0.5807
 4796TIP3    H235948   1.617   4.822   8.005 -0.4143  0.1390  0.5289
 4797TIP3   OH235949   3.361   1.880   8.379  0.2017  0.2257  0.3847
 4797TIP3    H135950   3.325   1.890   8.467 -1.4380 -0.5688 -0.1503
 4797TIP3    H235951   3.455   1.893   8.390  0.1842 -0.9024  2.4535
 4798TIP3   OH235952   2.710   6.793   2.227 -0.6549  0.0420  0.0169
 4798TIP3    H135953   2.619   6.822   2.240 -0.4122  0.8444 -0.0162
 4798TIP3    H235954   2.750   6.862   2.175  0.7066  1.0679  2.2628
 4799TIP3   OH235955   2.810   3.239   2.082  0.1659 -0.1868 -0.0694
 4799TIP3    H135956   2.835   3.148   2.062 -1.4443 -1.1372  1.8986
 4799TIP3    H235957   2.874   3.267   2.148  0.1903 -0.1647 -0.1025
 4800TIP3   OH235958   0.417   4.789   7.101  0.2495 -0.4417  0.0277
 4800TIP3    H135959   0.437   4.722   7.035  1.3719  1.1263 -1.3103
 4800TIP3    H235960   0.356   4.746   7.160 -1.3768 -1.7325 -2.4058
 4801TIP3   OH235961   3.800   5.969   7.828 -0.7541 -0.0538 -0.4830
 4801TIP3    H135962   3.858   5.897   7.851 -1.3665 -0.3532  0.1692
 4801TIP3    H235963   3.731   5.929   7.774 -0.1285  0.3810 -1.6547
 4802TIP3   OH235964   3.911   4.546   7.257 -0.1328  0.2721  0.2608
 4802TIP3    H135965   3.956   4.491   7.193  1.0306  0.6538  0.7277
 4802TIP3    H235966   3.925   4.635   7.227 -2.7194  0.3589 -0.9523
 4803TIP3   OH235967   2.232   2.211   0.488  0.2334 -0.2921 -0.1934
 4803TIP3    H135968   2.239   2.116   0.499  0.7592 -0.4394 -1.5439
 4803TIP3    H235969   2.139   2.230   0.504 -0.1226 -1.2231 -1.0090
 4804TIP3   OH235970   6.262   1.879   2.041  0.2176  0.1241 -0.3612
 4804TIP3    H135971   6.235   1.945   1.977 -0.4651  0.5931  0.3900
 4804TIP3    H235972   6.351   1.904   2.065  0.1759  0.4255 -0.5229
 4805TIP3   OH235973   5.607   6.734   0.070  0.3501  0.1863  0.1597
 4805TIP3    H135974   5.538   6.795   0.094  0.5835 -0.2565  2.0776
 4805TIP3    H235975   5.644   6.705   0.153  0.6967 -2.0555 -0.6944
 4806TIP3   OH235976   3.803   2.753   6.564  0.6755 -0.6369  0.5476
 4806TIP3    H135977   3.886   2.720   6.530  0.0044 -0.6000 -1.2574
 4806TIP3    H235978   3.789   2.835   6.517 -1.5385 -1.8674 -1.1537
 4807TIP3   OH235979   0.654   1.819   1.104  0.5675  0.2937  0.3298
 4807TIP3    H135980   0.606   1.772   1.037  1.5915 -2.6768  1.5107
 4807TIP3    H235981   0.600   1.813   1.182  0.2152  2.1453  0.2776
 4808TIP3   OH235982   5.666   0.193   0.856  0.0184 -0.5851  0.0306
 4808TIP3    H135983   5.658   0.277   0.811 -0.3511 -0.6979 -0.1144
 4808TIP3    H235984   5.633   0.129   0.793 -3.1434 -0.4835  1.4299
 4809TIP3   OH235985   5.743   6.466   0.748 -0.3336  0.2863  0.5591
 4809TIP3    H135986   5.817   6.473   0.808  0.0459  3.5458 -0.1160
 4809TIP3    H235987   5.666   6.469   0.805  0.0371  1.4357  1.0235
 4810TIP3   OH235988   5.712   1.195   1.141  0.1783 -0.4084 -0.8135
 4810TIP3    H135989   5.617   1.197   1.128 -0.0222  0.5626  0.5742
 4810TIP3    H235990   5.740   1.286   1.132  0.5337 -0.2248  1.5254
 4811TIP3   OH235991   4.105   5.117   0.269  0.1171  0.5665 -0.9977
 4811TIP3    H135992   4.078   5.029   0.294  1.6722  0.5107  0.7537
 4811TIP3    H235993   4.046   5.141   0.197 -2.1220 -0.8366  0.2353
 4812TIP3   OH235994   0.070   5.806   6.880 -0.3676  0.2400  0.0190
 4812TIP3    H135995   0.068   5.711   6.875 -1.2316  0.2853 -0.7388
 4812TIP3    H235996   0.010   5.829   6.951  0.8199  0.1803  1.0642
 4813TIP3   OH235997   4.475   5.203   7.376 -0.7290 -0.2523  0.0980
 4813TIP3    H135998   4.384   5.175   7.367 -0.5397 -0.8417 -0.0089
 4813TIP3    H235999   4.516   5.134   7.429 -0.9583  1.2932  2.4188
 4814TIP3   OH236000   3.571   3.671   6.382 -0.4683 -0.0668 -0.4862
 4814TIP3    H136001   3.572   3.576   6.371 -0.6423  0.1184 -2.3963
 4814TIP3    H236002   3.649   3.691   6.433 -0.9292 -1.2986  0.7590
 4815TIP3   OH236003   6.569   5.345   6.386 -0.0646 -0.4611  0.0901
 4815TIP3    H136004   6.483   5.386   6.374  0.0110 -0.1375  0.6332
 4815TIP3    H236005   6.616   5.404   6.446  0.2035 -1.1184  0.5325
 4816TIP3   OH236006   1.910   6.120   1.768 -0.0277  0.1176 -0.0844
 4816TIP3    H136007   1.957   6.168   1.699  0.5269  0.5406  0.5733
 4816TIP3    H236008   1.881   6.188   1.829 -0.8144 -0.2216 -0.0750
 4817TIP3   OH236009   2.866   2.003   0.093 -0.3685  0.2800  0.7698
 4817TIP3    H136010   2.911   1.929   0.134 -1.0155 -0.4405  0.2074
 4817TIP3    H236011   2.879   2.075   0.154  1.7432  0.1665  0.5378
 4818TIP3   OH236012   4.299   3.756   1.221 -0.5184 -0.0243  0.5791
 4818TIP3    H136013   4.247   3.677   1.238 -3.8584  2.4387  3.1882
 4818TIP3    H236014   4.262   3.792   1.141  2.4563 -1.9514 -1.8818
 4819TIP3   OH236015   5.212   4.495   7.961 -0.6975 -0.3827 -0.6802
 4819TIP3    H136016   5.157   4.565   7.997  0.4747  1.5992 -2.5262
 4819TIP3    H236017   5.150   4.434   7.921 -1.6793  0.4794 -0.5176
 4820TIP3   OH236018   3.139   2.914   0.096  0.4190 -0.0512 -0.1682
 4820TIP3    H136019   3.069   2.911   0.031 -1.4436  0.6659  1.6755
 4820TIP3    H236020   3.217   2.941   0.047 -0.3317 -1.7349 -2.4667
 4821TIP3   OH236021   2.933   5.889   8.171 -0.0407  0.0973  0.4233
 4821TIP3    H136022   3.021   5.909   8.140 -0.2239  0.0542 -0.1308
 4821TIP3    H236023   2.906   5.812   8.121 -1.2165  1.3640 -0.9751
 4822TIP3   OH236024   0.416   5.089   0.811 -0.1351 -0.1953 -0.3048
 4822TIP3    H136025   0.331   5.087   0.768 -0.6270 -1.7238  0.6510
 4822TIP3    H236026   0.476   5.046   0.750 -0.8156 -2.3107  0.4422
 4823TIP3   OH236027   0.339   4.875   8.301 -0.0931  0.0679  0.4380
 4823TIP3    H136028   0.427   4.842   8.282  1.4328  2.5523  2.4922
 4823TIP3    H236029   0.322   4.939   8.231 -0.8668 -1.3042 -0.6696
 4824TIP3   OH236030   5.002   1.664   1.572  0.1528 -0.8928  0.2868
 4824TIP3    H136031   4.988   1.649   1.666  0.5654 -0.9710  0.3346
 4824TIP3    H236032   4.916   1.693   1.540 -0.0330 -1.0294  0.6539
 4825TIP3   OH236033   5.717   5.519   8.401 -0.1759  0.1342 -0.2179
 4825TIP3    H136034   5.640   5.463   8.412 -0.3479  0.5257  0.6863
 4825TIP3    H236035   5.681   5.606   8.384  0.0765  0.1994 -0.4176
 4826TIP3   OH236036   4.009   0.326   7.852 -0.3435 -0.7389 -0.2580
 4826TIP3    H136037   4.096   0.335   7.891 -0.9622  1.1247  0.8261
 4826TIP3    H236038   4.010   0.383   7.776  0.3404 -3.1635 -2.2009
 4827TIP3   OH236039   5.152   5.740   6.826  0.0403  0.1879  0.0786
 4827TIP3    H136040   5.216   5.692   6.773 -1.7342 -0.7399 -1.3499
 4827TIP3    H236041   5.087   5.675   6.850 -1.0955  1.3658  0.3212
 4828TIP3   OH236042   1.969   5.980   1.030  0.1222  0.2300  0.4409
 4828TIP3    H136043   1.938   6.027   1.108  0.6746  0.9836  0.2130
 4828TIP3    H236044   1.921   6.020   0.957 -0.1554 -0.2564  0.3492
 4829TIP3   OH236045   0.250   4.504   0.629  0.1578 -0.2564 -0.2298
 4829TIP3    H136046   0.300   4.428   0.600 -1.0066 -0.5852 -1.4938
 4829TIP3    H236047   0.314   4.561   0.671  1.8376 -0.1613 -2.7080
 4830TIP3   OH236048   3.248   1.795   6.488 -0.0891  0.0467 -0.2714
 4830TIP3    H136049   3.182   1.860   6.511  0.5206  0.4029  0.5041
 4830TIP3    H236050   3.331   1.832   6.519  0.7623  0.3905 -2.7182
 4831TIP3   OH236051   4.839   6.020   7.733 -0.6492 -0.0730 -0.1594
 4831TIP3    H136052   4.887   6.090   7.689 -1.4897  1.3163  1.0452
 4831TIP3    H236053   4.755   6.015   7.688 -0.2625 -0.9341 -0.8062
 4832TIP3   OH236054   3.702   1.891   1.223 -0.0828  0.3514 -0.1506
 4832TIP3    H136055   3.626   1.872   1.168 -1.3482 -0.0615  1.6605
 4832TIP3    H236056   3.665   1.922   1.305  1.7150 -0.1037  0.8815
 4833TIP3   OH236057   6.155   4.027   1.349  0.1026 -0.4808  0.4927
 4833TIP3    H136058   6.121   3.962   1.411 -2.3339  1.4207  1.3367
 4833TIP3    H236059   6.172   4.104   1.403 -1.4474  1.0229 -1.0111
 4834TIP3   OH236060   6.446   3.113   8.268 -0.3336  0.2175  0.1985
 4834TIP3    H136061   6.510   3.046   8.246 -0.5493  0.5799 -1.7974
 4834TIP3    H236062   6.496   3.180   8.315  0.9907  0.8148 -1.8904
 4835TIP3   OH236063   4.206   3.932   7.857  0.1032 -0.0822  0.6044
 4835TIP3    H136064   4.277   3.942   7.919 -1.5750 -0.6714  2.7520
 4835TIP3    H236065   4.159   4.015   7.860 -0.0915 -0.1773  0.2628
 4836TIP3   OH236066   1.085   6.189   7.957 -0.8219 -0.5463  0.5830
 4836TIP3    H136067   1.111   6.232   8.038 -0.1868  0.6142 -0.2053
 4836TIP3    H236068   1.121   6.100   7.964 -0.3366 -0.2910  1.3511
 4837TIP3   OH236069   4.668   2.854   7.497 -0.3634 -0.3195 -0.0486
 4837TIP3    H136070   4.649   2.767   7.532  1.0034 -0.1011  1.3220
 4837TIP3    H236071   4.749   2.880   7.540  0.8906  0.4168 -2.6799
 4838TIP3   OH236072   4.659   0.680   2.417 -0.5544  0.2154 -0.2624
 4838TIP3    H136073   4.695   0.652   2.333  1.2603 -1.6446  1.0277
 4838TIP3    H236074   4.564   0.675   2.405 -0.3240 -1.4019 -1.7950
 4839TIP3   OH236075   6.651   2.423   0.191  0.1296 -0.0388  0.0086
 4839TIP3    H136076   6.650   2.423   0.095  0.5336 -0.4713 -0.0002
 4839TIP3    H236077   6.569   2.466   0.216  0.3003  0.6091 -0.5288
 4840TIP3   OH236078   6.229   3.860   1.603  0.0075  0.1427 -0.2190
 4840TIP3    H136079   6.235   3.956   1.603 -0.4873  0.1813 -0.6395
 4840TIP3    H236080   6.320   3.830   1.605  0.1510  0.6087  1.1947
 4841TIP3   OH236081   4.755   6.566   1.001 -0.4492  0.2718  0.2511
 4841TIP3    H136082   4.763   6.484   0.952  0.2988  0.0356  0.7484
 4841TIP3    H236083   4.778   6.634   0.937  2.7976 -0.1732  0.7432
 4842TIP3   OH236084   2.529   3.287   0.163  0.7763  0.1619  0.1313
 4842TIP3    H136085   2.559   3.247   0.082  0.6401  0.3025  0.0128
 4842TIP3    H236086   2.538   3.217   0.228  0.0493 -0.2264 -0.1785
 4843TIP3   OH236087   4.132   2.478   0.498  0.2306  0.0079 -0.1909
 4843TIP3    H136088   4.047   2.434   0.501 -0.6458  1.6972  1.0105
 4843TIP3    H236089   4.174   2.456   0.581  0.2377  0.5513 -0.0452
 4844TIP3   OH236090   0.002   1.913   1.285  0.2563  0.1626 -0.2349
 4844TIP3    H136091   0.033   1.947   1.369 -0.7152 -0.3435  0.3420
 4844TIP3    H236092  -0.081   1.957   1.271  0.5242  0.4125 -1.0530
 4845TIP3   OH236093   0.061   5.470   8.482 -0.0461 -0.2286  0.7043
 4845TIP3    H136094   0.119   5.466   8.406 -0.9223  0.6220 -0.0315
 4845TIP3    H236095   0.063   5.562   8.509 -1.3070 -0.0974  0.4355
 4846TIP3   OH236096   5.004   1.181   1.211 -0.1175  0.6403  0.0107
 4846TIP3    H136097   5.031   1.237   1.138 -1.1389  1.6905  0.3982
 4846TIP3    H236098   4.951   1.239   1.266 -0.9300 -0.6367  0.6067
 4847TIP3   OH236099   6.611   1.998   8.008 -0.0357 -0.3238  0.0603
 4847TIP3    H136100   6.677   2.030   8.070 -2.4927  1.2573  2.0971
 4847TIP3    H236101   6.578   2.076   7.965 -0.6373 -1.0618 -0.8673
 4848TIP3   OH236102   0.661   6.396   2.002 -0.1055 -0.2564 -0.0680
 4848TIP3    H136103   0.585   6.348   1.968  1.2229 -1.2940 -1.7085
 4848TIP3    H236104   0.645   6.487   1.977 -1.4513 -0.2014  0.8686
 4849TIP3   OH236105   3.423   6.069   7.250 -0.1105 -0.1992 -0.3858
 4849TIP3    H136106   3.500   6.019   7.225  0.2401  0.2258 -0.1670
 4849TIP3    H236107   3.457   6.140   7.305 -0.7157 -0.3241  0.1610
 4850TIP3   OH236108   1.037   4.910   7.942  0.3474  0.1772 -0.2416
 4850TIP3    H136109   1.075   4.884   7.858  0.7028  0.2428 -0.1011
 4850TIP3    H236110   1.001   4.828   7.977 -0.9734  0.3841 -1.0472
 4851TIP3   OH236111   3.421   4.398   2.298  0.3002  0.0311 -0.0812
 4851TIP3    H136112   3.411   4.449   2.378  0.2894  0.8044 -0.5629
 4851TIP3    H236113   3.513   4.409   2.274  0.3332 -0.2973 -0.1134
 4852TIP3   OH236114   5.490   5.640   1.783  0.1253  0.0805  0.2566
 4852TIP3    H136115   5.477   5.695   1.861 -2.0045 -1.6901  1.2353
 4852TIP3    H236116   5.541   5.566   1.814 -0.3180 -0.3978 -0.1430
 4853TIP3   OH236117   3.512   4.432   0.924  0.2317  0.0336 -0.3576
 4853TIP3    H136118   3.571   4.377   0.976  0.2567 -0.0655 -0.4924
 4853TIP3    H236119   3.568   4.503   0.893  0.1108  0.3608  0.1573
 4854TIP3   OH236120   5.014   5.456   2.948  0.4595 -0.4913 -0.0516
 4854TIP3    H136121   4.923   5.444   2.920  0.9124  0.1297 -1.9480
 4854TIP3    H236122   5.047   5.367   2.960 -0.0924 -0.7507 -0.4034
 4855TIP3   OH236123   1.886   3.646   8.002 -0.0486  0.7766 -0.0366
 4855TIP3    H136124   1.875   3.656   8.096  0.7397 -0.4450  0.2165
 4855TIP3    H236125   1.798   3.628   7.969 -0.1753  0.1506  0.6242
 4856TIP3   OH236126   6.417   6.211   8.376  0.1548  0.2912  0.2093
 4856TIP3    H136127   6.432   6.122   8.345  0.9252  0.3949  0.2528
 4856TIP3    H236128   6.455   6.211   8.465 -1.4338  0.1712  0.9170
 4857TIP3   OH236129   6.389   3.024   6.905 -0.2108 -0.1703  0.0270
 4857TIP3    H136130   6.437   2.956   6.952  0.0746  0.3897  0.5693
 4857TIP3    H236131   6.339   2.977   6.838  2.5866 -0.6411 -1.8952
 4858TIP3   OH236132   0.199   0.269   7.080 -0.1355 -0.3944  0.3820
 4858TIP3    H136133   0.186   0.242   6.989  1.8269 -1.0779  0.2333
 4858TIP3    H236134   0.117   0.248   7.124 -0.3986 -2.0747 -0.8007
 4859TIP3   OH236135   5.133   0.583   7.594  0.2664 -0.1202 -0.5000
 4859TIP3    H136136   5.085   0.632   7.526  1.0286  3.6795  1.4331
 4859TIP3    H236137   5.208   0.547   7.548 -1.0522 -0.6848 -2.3246
 4860TIP3   OH236138   2.806   2.344   8.079  0.1214 -0.0652  0.4228
 4860TIP3    H136139   2.797   2.337   7.984  1.1557 -0.0897  0.3237
 4860TIP3    H236140   2.770   2.261   8.112  0.8097 -0.5454 -0.0147
 4861TIP3   OH236141   1.086   4.783   7.699 -0.5215 -0.1449 -0.9178
 4861TIP3    H136142   1.135   4.701   7.699 -0.3910 -0.0665 -1.0695
 4861TIP3    H236143   1.046   4.788   7.612 -2.3523 -1.1314 -0.2046
 4862TIP3   OH236144   2.070   2.749   1.895 -0.2657  0.0781  0.2723
 4862TIP3    H136145   2.072   2.812   1.966  0.3320  0.4082 -0.0268
 4862TIP3    H236146   2.078   2.664   1.939 -0.0009  0.2714  0.6058
 4863TIP3   OH236147   6.018   2.784   1.311  0.2324  0.5610  0.3063
 4863TIP3    H136148   5.963   2.736   1.372 -0.6587  0.6174 -0.4299
 4863TIP3    H236149   5.968   2.785   1.229  1.0601  1.1395 -0.2106
 4864TIP3   OH236150   4.731   6.869   8.495  0.4806  0.0582  0.3276
 4864TIP3    H136151   4.736   6.949   8.546  0.0810  1.3951 -1.5979
 4864TIP3    H236152   4.640   6.841   8.501  0.3958  0.3109  0.2269
 4865TIP3   OH236153   0.394   1.492   8.494  0.4004  0.2740  0.0819
 4865TIP3    H136154   0.416   1.409   8.451 -1.6474 -0.8564  1.0798
 4865TIP3    H236155   0.396   1.471   8.588 -0.0240  1.3758  0.3450
 4866TIP3   OH236156   5.915   4.147   1.554  0.1330 -0.1075 -0.2623
 4866TIP3    H136157   5.841   4.135   1.495 -2.0002 -0.8299  2.3910
 4866TIP3    H236158   5.955   4.060   1.561 -0.0241 -0.1679 -0.1215
 4867TIP3   OH236159   0.253   1.917   0.917  0.1446  0.1644  0.4859
 4867TIP3    H136160   0.330   1.947   0.869  1.8283 -0.6303  2.5478
 4867TIP3    H236161   0.181   1.925   0.854  2.0631 -0.1618 -1.9021
 4868TIP3   OH236162   3.363   4.609   1.281 -0.1170 -0.2353  0.3828
 4868TIP3    H136163   3.384   4.632   1.371  1.1012  0.4197 -0.0506
 4868TIP3    H236164   3.401   4.522   1.269 -1.3106 -0.8418  0.8377
 4869TIP3   OH236165   1.719   0.561   7.558  0.2026 -0.6807 -0.4382
 4869TIP3    H136166   1.753   0.477   7.589 -0.8869 -0.2790  2.0910
 4869TIP3    H236167   1.747   0.624   7.624 -0.5907  0.6316 -1.3108
 4870TIP3   OH236168   6.816   1.068   7.503 -0.4804 -0.2514 -0.0353
 4870TIP3    H136169   6.742   1.117   7.537  1.6144  1.6145  2.1370
 4870TIP3    H236170   6.846   1.014   7.577 -0.5459 -2.1967 -1.3346
 4871TIP3   OH236171   2.007   3.222   0.066  0.1998  0.4039  0.0337
 4871TIP3    H136172   1.996   3.134   0.102  0.4066  0.0133 -0.8160
 4871TIP3    H236173   2.092   3.251   0.100 -0.6655  1.0216  1.7708
 4872TIP3   OH236174   5.642   5.286   0.051  0.5227 -0.2123  0.2573
 4872TIP3    H136175   5.707   5.355   0.059 -0.3575  0.8782 -1.3455
 4872TIP3    H236176   5.693   5.207   0.036  1.5687 -0.0224  2.4419
 4873TIP3   OH236177   2.553   2.988   8.613  0.3249 -0.2167  0.3093
 4873TIP3    H136178   2.516   2.922   8.671  0.0519  0.2635  0.6939
 4873TIP3    H236179   2.639   3.009   8.651  0.6709 -0.7787 -0.1517
 4874TIP3   OH236180   2.549   5.840   6.799 -0.0349  0.0272 -0.1721
 4874TIP3    H136181   2.514   5.758   6.834  1.4575 -0.5293  0.0842
 4874TIP3    H236182   2.619   5.814   6.739  1.1450  1.1219  0.6684
 4875TIP3   OH236183   3.733   4.038   7.352 -0.2749  0.0841 -0.3420
 4875TIP3    H136184   3.723   3.996   7.266  1.2265  0.3354 -0.6734
 4875TIP3    H236185   3.825   4.023   7.375 -0.3035  1.2100  0.5891
 4876TIP3   OH236186   2.353   3.792   0.128 -0.2046  0.1277 -0.7077
 4876TIP3    H136187   2.290   3.724   0.150  0.9706 -0.6085  0.5803
 4876TIP3    H236188   2.329   3.866   0.183 -0.1455 -0.0525 -0.4331
 4877TIP3   OH236189   3.952   4.304   0.635 -0.6431 -0.0940 -0.3076
 4877TIP3    H136190   4.034   4.266   0.603 -1.5652 -1.8889 -0.6148
 4877TIP3    H236191   3.930   4.371   0.571  0.4740  0.2769 -0.3206
 4878TIP3   OH236192   6.541   4.786   7.988  0.2076  0.2006 -0.1701
 4878TIP3    H136193   6.558   4.694   7.969  0.5423  0.5452 -1.6518
 4878TIP3    H236194   6.550   4.793   8.083 -1.3654 -1.6118  0.1758
 4879TIP3   OH236195   6.881   5.934   1.482  0.4014  0.0068  0.2134
 4879TIP3    H136196   6.914   5.960   1.567  0.5699 -1.2759  0.5641
 4879TIP3    H236197   6.785   5.936   1.491  0.4067  0.6586  0.1693
 4880TIP3   OH236198   6.544   1.737   1.227 -0.7597  0.5438 -0.4346
 4880TIP3    H136199   6.470   1.678   1.209 -0.4166  0.4599 -1.6159
 4880TIP3    H236200   6.610   1.680   1.267 -1.6555  0.8021  1.5309
 4881TIP3   OH236201   5.872   1.330   8.505  0.2567  0.1458  0.8696
 4881TIP3    H136202   5.967   1.337   8.498  0.3460 -1.6644 -0.5695
 4881TIP3    H236203   5.851   1.361   8.593  2.0735  1.4154  0.8854
 4882TIP3   OH236204   1.520   0.639   6.476  0.6175  0.1705  0.1490
 4882TIP3    H136205   1.572   0.716   6.501 -1.8483  1.9780  0.0491
 4882TIP3    H236206   1.488   0.659   6.388  0.2394 -1.1830 -0.0420
 4883TIP3   OH236207   6.362   1.958   8.221 -0.1586 -0.0198  0.0505
 4883TIP3    H136208   6.441   1.915   8.190 -0.9913 -1.3082 -0.3823
 4883TIP3    H236209   6.383   2.052   8.221  1.5117 -0.3683  0.4450
 4884TIP3   OH236210   0.067   4.011   1.695 -0.5286 -0.1846  0.3000
 4884TIP3    H136211   0.088   3.926   1.733 -1.3321 -0.4952  0.0699
 4884TIP3    H236212  -0.010   4.041   1.743 -0.4536  0.2521  0.1502
 4885TIP3   OH236213   6.345   0.240   7.122  0.0918 -0.2561  0.2222
 4885TIP3    H136214   6.306   0.161   7.159  0.1122 -0.3521  0.0404
 4885TIP3    H236215   6.317   0.240   7.030  0.0972 -0.0555  0.2194
 4886TIP3   OH236216   2.517   4.568   6.965 -0.0767  0.0250  0.9908
 4886TIP3    H136217   2.428   4.557   6.998  0.0906 -2.2875  0.8308
 4886TIP3    H236218   2.523   4.661   6.942 -2.5845  0.1458  0.5726
 4887TIP3   OH236219   5.013   3.706   2.629 -0.4443  0.0444  0.4215
 4887TIP3    H136220   5.099   3.745   2.646 -1.2062  3.3020 -2.0699
 4887TIP3    H236221   4.995   3.726   2.537 -3.2048 -1.9947  0.3699
 4888TIP3   OH236222   1.761   2.597   1.009  0.3589  0.8122  0.0176
 4888TIP3    H136223   1.675   2.560   1.026  0.3382  0.6498 -0.4124
 4888TIP3    H236224   1.780   2.573   0.918  1.3388 -0.1106  0.4337
 4889TIP3   OH236225   4.058   3.029   0.339 -0.4296  0.2264 -0.2456
 4889TIP3    H136226   4.006   3.048   0.261 -0.0070  0.1877 -0.5359
 4889TIP3    H236227   4.042   2.935   0.355  1.3483 -0.3770 -1.6908
 4890TIP3   OH236228   4.658   5.964   7.148 -0.4542  0.4368  0.5017
 4890TIP3    H136229   4.595   5.910   7.196 -0.6220 -0.0764 -0.2637
 4890TIP3    H236230   4.651   6.051   7.187 -3.8443  1.2143 -1.4258
 4891TIP3   OH236231   3.285   0.386   8.466  0.1205 -0.1369  0.3554
 4891TIP3    H136232   3.221   0.420   8.528 -1.2380 -0.5920 -0.7564
 4891TIP3    H236233   3.234   0.332   8.405  1.2607  0.8921 -1.6236
 4892TIP3   OH236234   0.331   2.387   1.201  0.4239 -0.2279  0.4070
 4892TIP3    H136235   0.342   2.304   1.154  0.1258 -0.6325  1.0356
 4892TIP3    H236236   0.264   2.368   1.267  0.2710  0.5493  0.4813
 4893TIP3   OH236237   4.194   5.884   1.706  0.4680 -0.2577  0.0394
 4893TIP3    H136238   4.126   5.816   1.712  1.4610 -1.2240  0.6691
 4893TIP3    H236239   4.236   5.882   1.792 -0.0190  1.7609  0.3718
 4894TIP3   OH236240   2.145   6.779   1.897 -0.0956  0.4127 -0.0827
 4894TIP3    H136241   2.120   6.707   1.839 -1.1360  1.4639 -1.0023
 4894TIP3    H236242   2.235   6.760   1.923 -0.7417 -1.8546  0.7173
 4895TIP3   OH236243   4.917   4.947   6.256  0.2495  0.0791  0.3175
 4895TIP3    H136244   4.924   4.868   6.202 -2.2570 -0.2090  0.3122
 4895TIP3    H236245   4.912   4.915   6.346  0.7798  0.3384  0.4418
 4896TIP3   OH236246   1.359   3.339   0.314  0.4161 -0.1795 -0.1646
 4896TIP3    H136247   1.318   3.324   0.229 -0.2489 -0.5322  0.2111
 4896TIP3    H236248   1.425   3.270   0.322 -1.7539 -2.2349  0.9992
 4897TIP3   OH236249   2.210   3.617   8.240  0.5093 -0.5891 -0.5589
 4897TIP3    H136250   2.212   3.610   8.145 -0.6251  2.3225 -0.8904
 4897TIP3    H236251   2.178   3.531   8.270 -2.5193 -0.4987 -3.0603
 4898TIP3   OH236252   3.020   4.267   0.626 -0.0007 -0.4237 -0.0952
 4898TIP3    H136253   2.992   4.268   0.717 -1.5765  0.2077 -0.5550
 4898TIP3    H236254   3.080   4.342   0.619  1.1786 -1.2654  0.7025
 4899TIP3   OH236255   2.599   1.838   1.277 -0.0480  0.3049  0.5778
 4899TIP3    H136256   2.628   1.840   1.186 -1.3158  1.0063  0.1721
 4899TIP3    H236257   2.655   1.902   1.322 -0.0837  0.6927  0.0733
 4900TIP3   OH236258   4.602   1.589   8.457 -0.0188 -0.6212 -0.3045
 4900TIP3    H136259   4.668   1.520   8.447 -1.1242 -2.3322  2.7006
 4900TIP3    H236260   4.652   1.667   8.482  0.9627 -1.6281  1.0001
 4901TIP3   OH236261   4.756   2.282   0.983  0.1238  0.0699  0.1661
 4901TIP3    H136262   4.762   2.233   1.065 -1.9725  1.4003  1.2168
 4901TIP3    H236263   4.818   2.355   0.994 -0.9916  0.9193  1.1461
 4902TIP3   OH236264   0.110   6.203   6.677  0.0471  0.6411 -0.2292
 4902TIP3    H136265   0.021   6.238   6.673  0.0762  0.8669  0.6596
 4902TIP3    H236266   0.100   6.108   6.670 -0.6786  0.2898  3.3882
 4903TIP3   OH236267   6.178   1.231   1.224  0.0842 -0.3636  0.5126
 4903TIP3    H136268   6.264   1.273   1.222  1.1615 -2.4106 -0.6943
 4903TIP3    H236269   6.131   1.274   1.295  1.1400  2.5913 -0.4499
 4904TIP3   OH236270   6.097   3.336   0.084  0.6374  0.1290 -0.1798
 4904TIP3    H136271   6.179   3.334   0.035  1.3605  0.1481  0.9669
 4904TIP3    H236272   6.067   3.245   0.084 -0.0091  0.3187 -1.6349
 4905TIP3   OH236273   0.820   4.296   2.843 -0.1183  0.4787 -0.1326
 4905TIP3    H136274   0.873   4.336   2.912  0.2691 -0.3898  0.0890
 4905TIP3    H236275   0.777   4.222   2.886 -3.8518  2.7624  0.4733
 4906TIP3   OH236276   4.226   2.451   7.786  0.4365  0.3599  0.0965
 4906TIP3    H136277   4.279   2.498   7.851 -1.0851  3.5218 -0.7637
 4906TIP3    H236278   4.136   2.460   7.817 -0.1314  0.1579 -1.4428
 4907TIP3   OH236279   1.351   5.085   6.646  0.3311 -0.4129 -0.0206
 4907TIP3    H136280   1.432   5.065   6.692  0.2093 -0.5630  0.1310
 4907TIP3    H236281   1.365   5.172   6.610  0.4677 -0.3348  0.2142
 4908TIP3   OH236282   5.960   1.061   7.574  0.1549 -0.0156 -0.5475
 4908TIP3    H136283   5.941   1.082   7.483 -2.3641  0.0561 -0.0711
 4908TIP3    H236284   6.002   0.975   7.571  1.8548  0.8014 -1.8535
 4909TIP3   OH236285   5.988   2.904   0.653 -0.2084  0.5086 -0.1074
 4909TIP3    H136286   6.034   2.973   0.700  1.1051 -0.0740 -0.4941
 4909TIP3    H236287   5.922   2.950   0.602  0.2728  1.4281  0.0795
 4910TIP3   OH236288   2.154   4.640   1.560  0.2571  0.4189  0.0891
 4910TIP3    H136289   2.212   4.678   1.626  0.0414  0.7241  0.1045
 4910TIP3    H236290   2.205   4.568   1.522  0.1994 -0.0620  0.9119
 4911TIP3   OH236291   2.228   0.416   0.940  0.3156  0.3363  0.1671
 4911TIP3    H136292   2.185   0.352   0.997  1.2756  0.9870  1.6775
 4911TIP3    H236293   2.166   0.489   0.934  0.0047  0.0578 -0.0482
 4912TIP3   OH236294   3.072   3.444   0.467  0.0251  0.1406  0.0181
 4912TIP3    H136295   3.036   3.476   0.384 -0.1741  1.6071  0.6490
 4912TIP3    H236296   3.146   3.502   0.485  0.3016 -0.4042  0.6939
 4913TIP3   OH236297   3.049   0.169   7.782  0.3203  0.2188  0.2069
 4913TIP3    H136298   3.021   0.216   7.704  1.0680  0.0799 -0.1593
 4913TIP3    H236299   2.975   0.114   7.806  0.8403 -1.4755 -1.7766
 4914TIP3   OH236300   2.568   5.105   7.461  0.3358  0.4460 -0.6675
 4914TIP3    H136301   2.653   5.147   7.444 -0.2044  1.6580 -0.5191
 4914TIP3    H236302   2.506   5.156   7.408 -0.7621  1.6498  1.6141
 4915TIP3   OH236303   0.321   1.397   0.821  0.3341 -0.6297 -0.1681
 4915TIP3    H136304   0.405   1.379   0.865  0.3933  0.9241  0.4143
 4915TIP3    H236305   0.258   1.343   0.869  0.5014  0.5604  1.4988
 4916TIP3   OH236306   6.024   3.293   1.306  0.5164  0.6088 -0.0147
 4916TIP3    H136307   6.115   3.298   1.277  0.6549  2.5400  0.5994
 4916TIP3    H236308   5.973   3.319   1.230  0.5762  0.9815  0.0715
 4917TIP3   OH236309   1.993   6.805   0.808 -0.0723  0.1524  0.5503
 4917TIP3    H136310   2.025   6.774   0.893 -1.6295  0.5707  1.3158
 4917TIP3    H236311   2.073   6.824   0.758  0.8767 -1.4752  1.3894
 4918TIP3   OH236312   4.125   6.105   1.896  0.0445  0.3752  0.0814
 4918TIP3    H136313   4.153   6.016   1.873  0.7146  0.5110  0.3582
 4918TIP3    H236314   4.203   6.158   1.885 -0.6054  1.1297 -1.1153
 4919TIP3   OH236315   0.389   4.037   7.549  0.3740 -0.1110  0.4804
 4919TIP3    H136316   0.405   4.005   7.638 -0.4854 -0.3834  0.5416
 4919TIP3    H236317   0.472   4.022   7.503  0.7690 -0.1312  1.1822
 4920TIP3   OH236318   6.439   1.846   0.468  0.8154 -0.3740 -0.5117
 4920TIP3    H136319   6.491   1.777   0.428 -0.0604 -0.3965 -1.6723
 4920TIP3    H236320   6.472   1.927   0.429  1.7294 -0.1222  0.7224
 4921TIP3   OH236321   6.738   6.215   0.637 -0.2605 -0.0395  0.2867
 4921TIP3    H136322   6.794   6.144   0.670 -0.8314 -0.4332  0.4360
 4921TIP3    H236323   6.715   6.266   0.715 -0.3869 -0.0823  0.2781
 4922TIP3   OH236324   4.255   2.889   8.564 -0.1130  0.0123 -0.6855
 4922TIP3    H136325   4.307   2.904   8.485  0.5175  0.7264 -0.1485
 4922TIP3    H236326   4.210   2.806   8.549  1.0155 -0.5032 -1.2493
 4923TIP3   OH236327   5.014   0.490   8.381 -0.0504 -0.2763 -0.4226
 4923TIP3    H136328   5.110   0.488   8.374 -0.0224 -1.6389  0.0807
 4923TIP3    H236329   4.983   0.482   8.291  0.3110 -1.7695 -0.4266
 4924TIP3   OH236330   6.747   5.224   0.029  0.2546  0.3148  0.2515
 4924TIP3    H136331   6.768   5.232  -0.064  1.2156 -1.3520  0.2736
 4924TIP3    H236332   6.825   5.258   0.074 -0.5671  1.9634  0.4947
 4925TIP3   OH236333   5.447   6.496   7.315 -0.3759  0.3494  0.1127
 4925TIP3    H136334   5.458   6.475   7.223  1.2918  1.1331  0.1015
 4925TIP3    H236335   5.482   6.585   7.324 -4.6439  2.2637  0.6614
 4926TIP3   OH236336   6.883   5.666   7.719 -0.4063 -0.0478 -0.3499
 4926TIP3    H136337   6.809   5.722   7.697  1.0563  1.2255 -2.5014
 4926TIP3    H236338   6.884   5.663   7.814 -1.7509  1.9935 -0.2048
 4927TIP3   OH236339   1.040   0.577   1.223  0.3806  0.9391  0.1336
 4927TIP3    H136340   1.061   0.485   1.209  4.0072  1.3107  2.0125
 4927TIP3    H236341   0.993   0.578   1.306  0.3361  0.7956  0.1112
 4928TIP3   OH236342   3.860   0.085   7.250 -0.1913 -0.4354  0.1430
 4928TIP3    H136343   3.900   0.172   7.250 -2.3418  0.6097 -0.1569
 4928TIP3    H236344   3.873   0.053   7.340  1.0195 -0.0474  0.1313
 4929TIP3   OH236345   3.049   6.413   1.376 -0.2619 -0.4299  0.1886
 4929TIP3    H136346   3.047   6.326   1.415 -0.9208  0.8566  3.3571
 4929TIP3    H236347   2.959   6.428   1.345 -0.3370 -0.6244  0.3118
 4930TIP3   OH236348   1.997   4.603   0.366  0.3019 -0.0166 -0.1474
 4930TIP3    H136349   1.942   4.525   0.379 -0.4970  0.5791  0.0928
 4930TIP3    H236350   2.041   4.587   0.283 -1.4229  0.1614 -1.1609
 4931TIP3   OH236351   1.559   1.912   0.707 -0.1721  0.7380 -0.0130
 4931TIP3    H136352   1.642   1.952   0.680 -0.3536  1.9552  1.1457
 4931TIP3    H236353   1.492   1.960   0.658 -0.3006  0.9013  0.3204
 4932TIP3   OH236354   0.484   0.715   2.057 -0.2243 -0.4550 -0.4165
 4932TIP3    H136355   0.568   0.748   2.087 -0.7409  1.8381 -1.2410
 4932TIP3    H236356   0.505   0.640   2.001  0.9709 -2.1686  2.1625
 4933TIP3   OH236357   6.518   3.278   7.693  0.2688  0.1032  0.6420
 4933TIP3    H136358   6.546   3.299   7.604 -0.9644  0.6358  0.3479
 4933TIP3    H236359   6.422   3.287   7.690  0.2259  0.3606  2.0731
 4934TIP3   OH236360   1.176   2.995   6.657  0.0677 -0.0388  0.1326
 4934TIP3    H136361   1.267   2.967   6.656  0.2956  0.6652 -1.2375
 4934TIP3    H236362   1.127   2.920   6.622  0.2454 -0.0181 -0.1572
 4935TIP3   OH236363   1.424   3.110   7.017 -0.3040  0.2209  0.2420
 4935TIP3    H136364   1.434   3.204   7.028  0.9778  0.0177  1.0755
 4935TIP3    H236365   1.491   3.072   7.074 -0.6894 -1.1933 -0.1991
 4936TIP3   OH236366   0.034   0.320   1.497 -0.6602 -0.3417  0.5726
 4936TIP3    H136367   0.014   0.227   1.497 -1.0486 -0.2768  2.0685
 4936TIP3    H236368  -0.010   0.354   1.419  0.7214 -1.6336 -0.8170
 4937TIP3   OH236369   4.347   6.706   0.407 -0.0083  0.5105  0.8007
 4937TIP3    H136370   4.316   6.627   0.363  0.6330  0.6584  0.0521
 4937TIP3    H236371   4.332   6.776   0.344 -0.0131  0.8915  1.2212
 4938TIP3   OH236372   2.857   0.469   7.527 -0.0038  0.4853  0.1777
 4938TIP3    H136373   2.888   0.453   7.438  1.1467 -0.7899  0.7822
 4938TIP3    H236374   2.772   0.511   7.515 -0.3915 -0.6736 -1.5375
 4939TIP3   OH236375   3.586   6.594   0.826 -0.4538 -0.1609 -0.0324
 4939TIP3    H136376   3.652   6.662   0.809 -1.0185  1.9695  4.6539
 4939TIP3    H236377   3.502   6.637   0.806 -0.7106 -0.4364  0.4500
 4940TIP3   OH236378   4.404   3.086   7.179 -0.0313  0.0796  0.4306
 4940TIP3    H136379   4.390   2.993   7.163  3.8206 -0.9365  2.0788
 4940TIP3    H236380   4.454   3.116   7.103 -2.3172  1.2456 -0.7197
 4941TIP3   OH236381   1.385   1.710   1.153  0.4909  0.2893 -0.8147
 4941TIP3    H136382   1.297   1.742   1.172  0.4849  1.0393 -2.0059
 4941TIP3    H236383   1.385   1.696   1.058  1.3281 -0.7250 -0.6737
 4942TIP3   OH236384   6.752   2.310   1.255 -0.3569  0.8015  0.0313
 4942TIP3    H136385   6.840   2.308   1.292  0.7004  2.5408 -2.1876
 4942TIP3    H236386   6.733   2.218   1.234  1.3619  0.5089 -0.4039
 4943TIP3   OH236387   3.666   6.350   8.113 -0.6201 -0.0801 -0.2460
 4943TIP3    H136388   3.621   6.319   8.191 -1.8584  1.3104 -0.3634
 4943TIP3    H236389   3.715   6.274   8.081 -0.6463 -0.8524  1.4714
 4944TIP3   OH236390   4.590   5.074   1.852 -0.8736 -0.1808  0.0162
 4944TIP3    H136391   4.624   5.015   1.785 -0.1190  0.4019 -0.1251
 4944TIP3    H236392   4.601   5.161   1.815  2.2309  0.4110  1.9560
 4945TIP3   OH236393   2.569   1.580   6.668  0.3168  0.2807  0.5547
 4945TIP3    H136394   2.534   1.662   6.633  3.1765  1.7411  0.7743
 4945TIP3    H236395   2.494   1.538   6.710 -1.5076  2.2247 -0.5394
 4946TIP3   OH236396   4.745   3.869   0.394  0.6729 -0.1376  0.0659
 4946TIP3    H136397   4.795   3.790   0.373 -0.1361 -0.4723 -0.6711
 4946TIP3    H236398   4.785   3.902   0.475  0.7852 -1.5155  0.6085
 4947TIP3   OH236399   3.992   2.379   8.627 -0.5453  0.4176  0.4705
 4947TIP3    H136400   4.050   2.305   8.609 -1.4695 -0.1679 -0.1305
 4947TIP3    H236401   4.005   2.438   8.553 -0.4045  0.4992  0.5575
 4948TIP3   OH236402   2.217   5.453   8.622 -0.5323  0.0786 -0.2943
 4948TIP3    H136403   2.193   5.362   8.603 -2.3241  0.5387 -0.3848
 4948TIP3    H236404   2.233   5.492   8.537  1.6421 -0.4529 -0.2015
 4949TIP3   OH236405   0.784   2.830   7.402 -0.0092  0.3331 -0.2173
 4949TIP3    H136406   0.725   2.896   7.439 -0.3584  0.4256 -0.9180
 4949TIP3    H236407   0.741   2.746   7.420 -0.7641  0.4372 -1.3811
 4950TIP3   OH236408   4.046   3.082   2.121  0.6082 -0.1468  0.1861
 4950TIP3    H136409   3.985   3.155   2.112  2.5825  1.5535 -0.0779
 4950TIP3    H236410   3.994   3.004   2.098 -1.3061  1.2542 -0.4742
 4951TIP3   OH236411   6.085   2.872   7.953  0.6330 -0.3846 -0.2419
 4951TIP3    H136412   6.107   2.780   7.969  0.8224  0.1352  3.1524
 4951TIP3    H236413   6.164   2.920   7.978 -0.1276  0.7901 -0.0300
 4952TIP3   OH236414   4.313   2.269   2.587  0.3012  0.3491  0.8706
 4952TIP3    H136415   4.385   2.315   2.544 -0.8409 -0.4727 -2.2000
 4952TIP3    H236416   4.327   2.177   2.566 -0.4535 -0.0757  2.1452
 4953TIP3   OH236417   1.404   1.977   0.208  0.4265  0.2900 -0.2204
 4953TIP3    H136418   1.428   1.889   0.235  0.4140 -0.1125 -1.4674
 4953TIP3    H236419   1.318   1.992   0.247  1.5143  0.7937  2.2020
 4954TIP3   OH236420   5.307   0.811   0.124  0.3077 -0.0408  0.1981
 4954TIP3    H136421   5.281   0.817   0.032  0.6748  0.4447  0.1203
 4954TIP3    H236422   5.368   0.737   0.126 -1.5581 -1.6374  0.5097
 4955TIP3   OH236423   1.410   0.417   1.457  0.1492  0.7789 -0.2635
 4955TIP3    H136424   1.408   0.413   1.553  0.4838 -0.0381 -0.2829
 4955TIP3    H236425   1.355   0.344   1.429 -1.0843  1.8406 -0.7068
 4956TIP3   OH236426   4.680   6.206   1.715 -0.6104 -0.4268  0.5679
 4956TIP3    H136427   4.704   6.226   1.624 -2.8371 -0.5157 -0.0991
 4956TIP3    H236428   4.691   6.111   1.722  0.3646 -0.3167  0.6666
 4957TIP3   OH236429   5.696   2.282   0.866  0.2178 -0.2468 -0.3406
 4957TIP3    H136430   5.651   2.325   0.794  1.4387  0.4252 -0.7285
 4957TIP3    H236431   5.631   2.278   0.936 -0.5119  0.4748 -0.9619
 4958TIP3   OH236432   0.659   4.704   1.336  0.0259  0.1285  0.2604
 4958TIP3    H136433   0.619   4.627   1.294 -1.7246  1.2349 -0.2295
 4958TIP3    H236434   0.611   4.713   1.419  0.6519  0.3399  0.6057
 4959TIP3   OH236435   6.787   6.590   8.156 -0.5161  0.0095 -0.1017
 4959TIP3    H136436   6.732   6.560   8.084  0.1529 -0.1732 -0.5487
 4959TIP3    H236437   6.783   6.519   8.221 -0.4048 -0.2252 -0.3522
 4960TIP3   OH236438   2.335   2.749   0.220  0.3162  0.4408 -0.4554
 4960TIP3    H136439   2.271   2.817   0.198 -1.2601  0.0117  2.3400
 4960TIP3    H236440   2.288   2.667   0.206  1.2926 -0.0128 -1.1814
 4961TIP3   OH236441   5.715   4.950   1.140 -0.6481  0.2413  0.2398
 4961TIP3    H136442   5.705   5.041   1.168 -0.3289  0.0893  0.8509
 4961TIP3    H236443   5.749   4.904   1.216  1.2271  0.0316 -0.6442
 4962TIP3   OH236444   1.383   4.560   1.722  0.0620 -0.3246  0.0536
 4962TIP3    H136445   1.475   4.579   1.702 -0.4781  1.1904 -1.1223
 4962TIP3    H236446   1.345   4.645   1.743 -0.7636 -1.1208  2.0543
 4963TIP3   OH236447   1.350   0.121   7.540 -0.2562  0.0123  0.0379
 4963TIP3    H136448   1.361   0.085   7.452  0.0489  2.3757 -0.9663
 4963TIP3    H236449   1.416   0.190   7.546 -0.0644 -0.2998  2.2671
 4964TIP3   OH236450   1.765   5.950   8.245  0.2488 -0.4230 -0.2618
 4964TIP3    H136451   1.770   5.856   8.263  0.9278 -0.5172 -0.9341
 4964TIP3    H236452   1.674   5.964   8.218  0.3815 -1.0541 -1.0661
 4965TIP3   OH236453   1.371   6.519   2.138  0.0706  0.0380  0.3523
 4965TIP3    H136454   1.375   6.581   2.212  3.3030 -0.2008  0.5033
 4965TIP3    H236455   1.302   6.554   2.082  1.9161  4.0931  0.2578
 4966TIP3   OH236456   3.073   2.395   8.058  0.3699  0.2066  0.8048
 4966TIP3    H136457   3.080   2.477   8.009  2.3804 -0.6493 -0.4762
 4966TIP3    H236458   2.978   2.383   8.071 -0.0377  2.0753 -0.0655
 4967TIP3   OH236459   0.744   6.732   7.272 -0.4280  0.3075 -0.5657
 4967TIP3    H136460   0.769   6.789   7.199 -0.9609  0.5110 -0.5966
 4967TIP3    H236461   0.648   6.735   7.272 -0.4386  1.9438  1.4428
 4968TIP3   OH236462   4.497   5.917   0.069 -0.3856 -0.2248 -0.2732
 4968TIP3    H136463   4.557   5.847   0.046 -0.3617 -0.8254  1.4805
 4968TIP3    H236464   4.490   5.913   0.165 -1.3707  1.3493 -0.2369
 4969TIP3   OH236465   4.796   1.357   0.803  0.2561 -0.2361 -0.1717
 4969TIP3    H136466   4.783   1.311   0.721 -1.4149  1.1376 -0.7211
 4969TIP3    H236467   4.845   1.436   0.779  1.9355 -0.9973  0.5644
 4970TIP3   OH236468   5.877   6.167   7.472  0.0065 -0.3421 -0.1978
 4970TIP3    H136469   5.907   6.137   7.558 -0.0449 -1.1297 -0.4495
 4970TIP3    H236470   5.860   6.260   7.485 -2.0311 -0.8468  1.2215
 4971TIP3   OH236471   2.256   4.753   8.084  0.4677 -0.0701  0.2629
 4971TIP3    H136472   2.189   4.707   8.033  2.3481 -0.4994 -1.9986
 4971TIP3    H236473   2.258   4.707   8.167  0.0312 -2.0125 -0.7417
 4972TIP3   OH236474   0.819   6.300   8.044  0.1073 -0.0223  0.1900
 4972TIP3    H136475   0.859   6.387   8.051  1.6595 -0.7413  0.8774
 4972TIP3    H236476   0.884   6.249   7.995 -0.3681 -1.0245  0.5836
 4973TIP3   OH236477   1.106   2.269   8.374 -0.0942 -0.1324  0.2963
 4973TIP3    H136478   1.065   2.188   8.342  0.6382 -0.5501  0.3841
 4973TIP3    H236479   1.104   2.261   8.470 -0.0336 -0.0463  0.3047
 4974TIP3   OH236480   4.006   4.870   0.346 -0.1567  0.1484  1.1958
 4974TIP3    H136481   4.089   4.858   0.391 -0.3127 -0.1633  1.4004
 4974TIP3    H236482   3.939   4.850   0.411 -0.3824 -0.2961  0.8312
 4975TIP3   OH236483   4.700   2.262   8.138  0.1264  0.1290  0.0015
 4975TIP3    H136484   4.606   2.258   8.158  0.0456  0.8501 -0.1865
 4975TIP3    H236485   4.739   2.302   8.215  0.2708 -0.1349  0.0633
 4976TIP3   OH236486   1.744   5.320   7.516  0.1801 -0.4553  0.3748
 4976TIP3    H136487   1.668   5.287   7.565  0.6394 -1.7671  0.2350
 4976TIP3    H236488   1.820   5.284   7.561  0.7540  0.8651  0.5257
 4977TIP3   OH236489   1.029   2.215   1.140  0.3867 -0.2135  0.3872
 4977TIP3    H136490   0.985   2.132   1.129  0.5515 -0.2397 -0.0943
 4977TIP3    H236491   0.976   2.263   1.204 -1.3779  0.4800 -1.4766
 4978TIP3   OH236492   5.806   0.897   0.249  0.5446  0.2738  0.0221
 4978TIP3    H136493   5.896   0.869   0.228  0.1334 -1.3217  0.2551
 4978TIP3    H236494   5.764   0.908   0.164  1.3222  2.3942 -0.1319
 4979TIP3   OH236495   1.378   0.758   0.998  0.0971 -0.5642  0.2709
 4979TIP3    H136496   1.286   0.765   1.024 -0.1881  0.0911 -0.8295
 4979TIP3    H236497   1.400   0.845   0.963  1.3255 -0.5185  1.0871
 4980TIP3   OH236498   2.376   3.285   2.092  0.3557 -0.6478  0.4166
 4980TIP3    H136499   2.438   3.213   2.096  0.8156 -0.5272 -2.2244
 4980TIP3    H236500   2.298   3.247   2.051  0.1813  0.0646  0.0667
 4981TIP3   OH236501   3.653   2.686   7.574  0.5269 -0.5038  0.1120
 4981TIP3    H136502   3.625   2.598   7.598  1.5663 -0.7609  0.4386
 4981TIP3    H236503   3.641   2.691   7.480  0.6616 -1.0629  0.0645
 4982TIP3   OH236504   3.954   5.542   6.406 -0.0317 -0.5539 -0.4666
 4982TIP3    H136505   4.013   5.468   6.414  2.2217  1.2444  0.9700
 4982TIP3    H236506   3.868   5.508   6.431  0.3660 -3.1908 -2.2878
 4983TIP3   OH236507   4.382   1.493   7.257  0.0510  0.8828  0.2203
 4983TIP3    H136508   4.445   1.496   7.185  0.3595 -0.4117  0.4153
 4983TIP3    H236509   4.301   1.464   7.216  0.1252  0.5296  0.3199
 4984TIP3   OH236510   6.400   5.946   0.349  0.1234 -0.1537  0.5126
 4984TIP3    H136511   6.488   5.983   0.344  0.0773 -0.0582  0.4191
 4984TIP3    H236512   6.412   5.865   0.399  0.0759  0.4689  1.5798
 4985TIP3   OH236513   2.820   6.044   7.331  0.5545  0.5730 -0.3259
 4985TIP3    H136514   2.803   5.953   7.355  2.3448  0.1089 -0.6638
 4985TIP3    H236515   2.851   6.040   7.240  0.2408  1.5728 -0.4964
 4986TIP3   OH236516   6.236   6.638   7.903 -0.0416 -0.1981  0.0129
 4986TIP3    H136517   6.280   6.700   7.845 -1.1883 -0.6649 -1.4279
 4986TIP3    H236518   6.178   6.693   7.956 -0.1851  0.0843 -0.4295
 4987TIP3   OH236519   5.582   5.589   7.756  0.1623  0.3739 -0.3762
 4987TIP3    H136520   5.489   5.611   7.752 -0.6008 -2.2729  0.9088
 4987TIP3    H236521   5.611   5.626   7.839  0.1535  0.7262 -0.5250
 4988TIP3   OH236522   1.807   5.234   8.179 -0.9496  0.1557 -0.0375
 4988TIP3    H136523   1.725   5.185   8.168 -0.4479 -2.1822  4.2492
 4988TIP3    H236524   1.873   5.182   8.133 -1.2635 -0.1671 -0.1282
 4989TIP3   OH236525   5.993   0.578   1.414 -0.3114  0.3141 -0.4827
 4989TIP3    H136526   6.043   0.660   1.414 -1.0602  0.7786 -1.0769
 4989TIP3    H236527   6.022   0.533   1.494  0.5007  0.9076 -0.4229
 4990TIP3   OH236528   3.535   3.586   7.827  0.1764  0.1630 -0.0970
 4990TIP3    H136529   3.613   3.554   7.781 -0.7947  0.6747 -2.2048
 4990TIP3    H236530   3.544   3.681   7.826 -0.9623  0.2836 -1.3404
 4991TIP3   OH236531   6.422   5.168   7.913  0.3822 -0.2940  0.2334
 4991TIP3    H136532   6.363   5.228   7.868  0.2662  0.0648  0.8657
 4991TIP3    H236533   6.380   5.082   7.904 -0.0522 -0.0982  0.3726
 4992TIP3   OH236534   4.172   0.461   1.495 -0.0135  0.0222  0.3105
 4992TIP3    H136535   4.267   0.451   1.496 -0.1305 -1.3039 -0.3605
 4992TIP3    H236536   4.138   0.372   1.491 -1.3474  0.3313  2.6691
 4993TIP3   OH236537   4.279   3.959   2.418 -0.4892  0.4290 -0.0573
 4993TIP3    H136538   4.267   4.053   2.430  1.0976  0.9156 -1.7688
 4993TIP3    H236539   4.338   3.933   2.489 -2.6621  0.1943  1.7811
 4994TIP3   OH236540   6.709   2.097   0.147  0.7520  0.1967  0.2058
 4994TIP3    H136541   6.675   2.178   0.108  1.8019  0.5759  0.0562
 4994TIP3    H236542   6.797   2.087   0.111  1.3738  0.0157  1.6844
 4995TIP3   OH236543   4.385   5.303   6.679 -0.2962 -0.5278 -0.5505
 4995TIP3    H136544   4.472   5.329   6.647 -0.0790 -0.0754  0.3845
 4995TIP3    H236545   4.334   5.288   6.599  0.5285 -0.4465 -1.1136
 4996TIP3   OH236546   2.232   3.890   0.888 -0.6298  0.1125  0.8380
 4996TIP3    H136547   2.309   3.837   0.909 -1.0013 -1.4188 -1.4143
 4996TIP3    H236548   2.177   3.884   0.966  1.1916  0.7289  2.2515
 4997TIP3   OH236549   2.498   0.372   0.782  0.9671 -0.6183  0.0900
 4997TIP3    H136550   2.532   0.350   0.869  0.4562 -2.3558 -0.1130
 4997TIP3    H236551   2.403   0.364   0.791  0.6440  2.3315  0.1564
 4998TIP3   OH236552   2.151   2.309   0.743 -0.2214  0.2232 -0.5882
 4998TIP3    H136553   2.201   2.374   0.694 -0.3642 -0.3032 -1.4663
 4998TIP3    H236554   2.083   2.360   0.787  1.1230  0.9587  0.7179
 4999TIP3   OH236555   0.304   4.008   1.597  0.3405  0.3620  0.3277
 4999TIP3    H136556   0.225   4.020   1.649  0.3839 -1.1357  0.7877
 4999TIP3    H236557   0.273   3.970   1.515  0.3917  1.6746 -0.3226
 5000TIP3   OH236558   2.579   3.885   0.002  0.7472 -0.3444  0.4916
 5000TIP3    H136559   2.640   3.910   0.071  1.2011 -0.7681  0.2491
 5000TIP3    H236560   2.500   3.857   0.048  0.6170  0.4775  0.7996
 5001TIP3   OH236561   1.343   0.400   6.712 -0.0106  0.4925 -0.4799
 5001TIP3    H136562   1.288   0.326   6.685  1.6624 -1.3077  0.7118
 5001TIP3    H236563   1.346   0.394   6.807  0.7975  1.6368 -0.4201
 5002TIP3   OH236564   0.399   3.091   0.951  0.0930  0.2584 -0.5371
 5002TIP3    H136565   0.354   3.063   1.030 -0.4454  0.8653 -0.6301
 5002TIP3    H236566   0.389   3.017   0.891  0.5870 -0.2419 -0.0147
 5003TIP3   OH236567   0.188   2.393   6.873 -0.1108 -0.0673 -0.2387
 5003TIP3    H136568   0.122   2.354   6.929 -0.4308  1.9390  0.8961
 5003TIP3    H236569   0.263   2.407   6.930 -0.3133  1.6753 -0.3275
 5004TIP3   OH236570   0.934   5.385   0.966 -0.4826 -0.4045 -1.1019
 5004TIP3    H136571   0.963   5.301   1.002  1.3701  0.7006  0.1691
 5004TIP3    H236572   0.848   5.399   1.004 -0.0374 -0.8961  0.1262
 5005TIP3   OH236573   6.434   4.177   2.272 -0.1745 -0.0273 -0.1877
 5005TIP3    H136574   6.501   4.113   2.298 -0.9386 -0.0716  1.8980
 5005TIP3    H236575   6.470   4.219   2.195  0.9551 -2.0434 -0.8370
 5006TIP3   OH236576   2.396   6.829   0.952  0.0294 -0.3702  0.7697
 5006TIP3    H136577   2.375   6.786   1.034  1.8978  0.7872  1.9405
 5006TIP3    H236578   2.472   6.883   0.972  0.4223  0.1238 -1.6841
 5007TIP3   OH236579   4.284   5.758   2.218  0.3415 -0.2646  0.0909
 5007TIP3    H136580   4.215   5.710   2.173  0.3766  0.2607 -0.5493
 5007TIP3    H236581   4.329   5.693   2.271 -0.6888 -0.6014  0.5808
 5008TIP3   OH236582   1.577   0.906   7.560 -0.0221 -0.1678 -0.4296
 5008TIP3    H136583   1.495   0.954   7.549 -0.2198 -0.5377 -0.6146
 5008TIP3    H236584   1.570   0.866   7.647 -1.1107 -2.1574 -1.3490
 5009TIP3   OH236585   3.536   5.791   6.931  0.4454 -0.0785 -0.5656
 5009TIP3    H136586   3.547   5.786   6.836 -0.1264  1.3883 -0.7308
 5009TIP3    H236587   3.444   5.815   6.943 -0.4152 -3.3635  0.4977
 5010TIP3   OH236588   4.417   0.057   7.292  0.0928  0.5621  0.3831
 5010TIP3    H136589   4.505   0.037   7.258  0.9155  2.6368  1.1208
 5010TIP3    H236590   4.398   0.145   7.259 -1.7763  0.1324  0.1856
 5011TIP3   OH236591   6.117   4.261   1.187  0.5935  0.6469  0.6537
 5011TIP3    H136592   6.177   4.190   1.208  0.9077  0.7736  0.2189
 5011TIP3    H236593   6.174   4.336   1.170  0.3834  0.5385 -0.6561
 5012TIP3   OH236594   3.711   0.653   8.201  0.5157 -0.4342 -0.3473
 5012TIP3    H136595   3.699   0.699   8.284  1.7995 -1.6305  0.5394
 5012TIP3    H236596   3.672   0.711   8.135 -0.4702  0.5613  1.0704
 5013TIP3   OH236597   5.899   3.279   7.521  0.4677 -0.0764 -0.6763
 5013TIP3    H136598   5.920   3.266   7.613  1.1562 -0.0262 -0.8192
 5013TIP3    H236599   5.923   3.196   7.479 -1.5008 -0.7558 -0.5542
 5014TIP3   OH236600   4.024   6.755   6.783  0.0153  0.0023 -0.2364
 5014TIP3    H136601   3.946   6.753   6.728 -0.1623  3.2703 -0.3241
 5014TIP3    H236602   3.991   6.782   6.869  0.8703 -0.1641  0.1465
 5015TIP3   OH236603   4.740   1.063   7.292 -0.5092  0.2976 -0.2534
 5015TIP3    H136604   4.716   1.116   7.217  1.9797  2.3100  0.2390
 5015TIP3    H236605   4.802   0.999   7.258 -0.9968 -0.1909 -0.2490
 5016TIP3   OH236606   5.510   2.866   1.043 -0.1937 -0.0099 -0.0642
 5016TIP3    H136607   5.415   2.879   1.054 -0.2406 -1.2904  1.2885
 5016TIP3    H236608   5.517   2.801   0.973 -0.2114  1.3958 -1.4347
 5017TIP3   OH236609   5.314   6.747   1.232 -0.5444 -0.2025 -0.2165
 5017TIP3    H136610   5.281   6.693   1.160 -0.4742 -0.4484 -0.0656
 5017TIP3    H236611   5.408   6.756   1.215 -0.5392 -0.2071 -0.1901
 5018TIP3   OH236612   5.336   4.485   7.729 -0.2927  0.2065  0.5661
 5018TIP3    H136613   5.293   4.501   7.813  1.6847  1.0024  1.4876
 5018TIP3    H236614   5.419   4.442   7.752 -0.0901 -0.3611 -1.0592
 5019TIP3   OH236615   5.647   0.979   8.323  0.4186  0.7148  0.0057
 5019TIP3    H136616   5.627   1.052   8.381 -0.8343 -0.1159  0.6655
 5019TIP3    H236617   5.565   0.963   8.276  1.7626  2.3121 -3.1473
 5020TIP3   OH236618   2.122   0.227   1.140 -0.0587  0.1537  1.0964
 5020TIP3    H136619   2.082   0.234   1.227  2.5878 -0.2152  2.4184
 5020TIP3    H236620   2.196   0.168   1.152 -1.2090 -2.2202 -2.0666
 5021TIP3   OH236621   2.869   6.312   1.717  0.1212  0.5882  0.7071
 5021TIP3    H136622   2.801   6.368   1.679 -0.3592 -0.0307  0.6370
 5021TIP3    H236623   2.871   6.337   1.810  0.1279  0.9436  0.6098
 5022TIP3   OH236624   4.876   5.397   0.711  0.2295  0.7489  0.3324
 5022TIP3    H136625   4.831   5.437   0.636 -0.0944 -0.0491  0.0958
 5022TIP3    H236626   4.854   5.454   0.784  0.8604  1.7581 -0.2400
 5023TIP3   OH236627   5.949   6.365   1.911  0.2468  0.2371  0.0996
 5023TIP3    H136628   5.954   6.422   1.834 -1.2156 -0.3233 -0.4445
 5023TIP3    H236629   5.912   6.421   1.979  1.4661  0.7108  0.3984
 5024TIP3   OH236630   2.607   1.071   0.799  0.2841  0.0697 -0.1737
 5024TIP3    H136631   2.691   1.055   0.843 -0.5404 -0.4320  1.3035
 5024TIP3    H236632   2.602   1.167   0.793  0.6244  0.1399  0.4470
 5025TIP3   OH236633   3.829   3.647   0.134 -0.3046 -0.1350 -0.2564
 5025TIP3    H136634   3.821   3.674   0.226 -0.6202 -0.0133 -0.3184
 5025TIP3    H236635   3.749   3.596   0.118  0.1618 -0.9041 -0.2097
 5026TIP3   OH236636   2.451   0.004   8.197 -0.0725 -0.4706 -0.0520
 5026TIP3    H136637   2.356   0.015   8.198 -0.2204 -1.5873 -0.0986
 5026TIP3    H236638   2.483   0.057   8.270 -1.0772 -2.7073  2.1573
 5027TIP3   OH236639   6.518   5.443   1.804 -0.5537 -0.2060  0.0542
 5027TIP3    H136640   6.508   5.374   1.869  0.0631 -0.7812 -0.4474
 5027TIP3    H236641   6.570   5.510   1.847 -0.3616 -0.4738  0.2358
 5028TIP3   OH236642   2.884   5.641   1.216  0.4360 -0.2114 -0.0465
 5028TIP3    H136643   2.937   5.708   1.172 -1.9616  1.6038 -0.3827
 5028TIP3    H236644   2.913   5.644   1.307  1.4799  0.1086 -0.3658
 5029TIP3   OH236645   2.419   2.105   0.080  0.2682 -0.7763 -0.2229
 5029TIP3    H136646   2.479   2.179   0.086  0.9353 -1.1757 -1.5457
 5029TIP3    H236647   2.334   2.144   0.060 -0.1797 -0.1362  2.4962
 5030TIP3   OH236648   2.857   4.710   7.744  0.6957  0.1331 -0.2622
 5030TIP3    H136649   2.908   4.758   7.678 -0.8231  0.6559 -1.1066
 5030TIP3    H236650   2.777   4.761   7.754 -0.1492 -1.2361  0.2288
 5031TIP3   OH236651   1.479   5.069   2.459 -0.0453 -0.0754 -0.4281
 5031TIP3    H136652   1.438   5.113   2.534 -0.4986  0.1988 -0.8273
 5031TIP3    H236653   1.558   5.120   2.442  0.5125 -0.6350  0.3771
 5032TIP3   OH236654   0.514   2.388   6.763 -0.0994  0.4277 -0.2198
 5032TIP3    H136655   0.459   2.330   6.816  0.3006  1.4250  1.3657
 5032TIP3    H236656   0.562   2.329   6.705  0.2348 -0.8375  1.2710
 5033TIP3   OH236657   1.925   3.396   7.171 -0.3201 -0.2351  0.0971
 5033TIP3    H136658   1.902   3.467   7.112  0.8062 -0.2955 -0.4277
 5033TIP3    H236659   1.844   3.378   7.220 -1.3565 -0.3859 -1.6109
 5034TIP3   OH236660   0.724   1.704   8.589  0.4260 -0.8967 -0.7740
 5034TIP3    H136661   0.788   1.637   8.565  1.1933 -1.0645  1.4798
 5034TIP3    H236662   0.652   1.655   8.628 -0.7458 -0.6399 -2.5378
 5035TIP3   OH236663   4.256   3.676   8.144  0.6516  0.2705  0.4661
 5035TIP3    H136664   4.247   3.675   8.239  0.0880 -1.4946  0.4177
 5035TIP3    H236665   4.263   3.769   8.122  0.0919  0.7444  2.1533
 5036TIP3   OH236666   2.989   5.596   0.357  0.7614 -0.3592  0.2455
 5036TIP3    H136667   2.913   5.546   0.388  0.9525 -0.8624 -0.0859
 5036TIP3    H236668   3.019   5.644   0.434  0.9730 -1.2661  0.7478
 5037TIP3   OH236669   5.398   1.679   6.571 -0.0031  0.4847 -0.0216
 5037TIP3    H136670   5.446   1.747   6.619  1.5575 -0.8513  0.3919
 5037TIP3    H236671   5.455   1.656   6.498 -0.2018 -0.8525  0.2354
 5038TIP3   OH236672   6.173   0.987   6.663 -0.2192  0.2481 -0.4427
 5038TIP3    H136673   6.102   0.944   6.709 -0.7993 -0.4470 -1.9444
 5038TIP3    H236674   6.147   1.079   6.658 -1.2580 -0.0773 -1.3755
 5039TIP3   OH236675   5.503   4.568   7.192  0.0288  0.7538 -0.1867
 5039TIP3    H136676   5.507   4.620   7.111 -0.3596  0.5150 -0.3660
 5039TIP3    H236677   5.441   4.616   7.247  0.6851  1.1959  0.1803
 5040TIP3   OH236678   0.144   6.772   0.374 -0.4555  0.2793  0.8831
 5040TIP3    H136679   0.069   6.759   0.431 -0.8410 -0.3300  0.2475
 5040TIP3    H236680   0.114   6.835   0.308 -0.7469 -0.7404  0.0295
 5041TIP3   OH236681   2.393   3.270   8.157 -0.3561  0.2201 -0.9297
 5041TIP3    H136682   2.394   3.223   8.240 -0.9898  2.1429  0.2238
 5041TIP3    H236683   2.467   3.332   8.163 -1.3055  1.4134 -1.1399
 5042TIP3   OH236684   0.181   4.574   8.532 -0.0620 -0.2637  0.5026
 5042TIP3    H136685   0.244   4.634   8.573  1.5426 -1.5328  0.0399
 5042TIP3    H236686   0.131   4.538   8.605  0.9899 -0.5478  1.1093
 5043TIP3   OH236687   5.526   3.934   1.284  0.0804 -0.1041  0.0894
 5043TIP3    H136688   5.616   3.959   1.261  0.0363 -0.4718 -0.5214
 5043TIP3    H236689   5.474   4.011   1.263  0.1402 -0.1911 -0.3896
 5044TIP3   OH236690   5.964   6.278   2.255  0.0881  0.1007 -0.0329
 5044TIP3    H136691   5.953   6.346   2.188 -0.2267  1.2637  1.1557
 5044TIP3    H236692   5.923   6.315   2.333  0.4658 -1.2143  0.8155
 5045TIP3   OH236693   0.965   5.678   7.976  0.3932 -0.4415 -0.1811
 5045TIP3    H136694   1.058   5.666   7.955  0.6510  0.6580  0.2641
 5045TIP3    H236695   0.919   5.632   7.905  1.2652 -0.2614 -0.8870
 5046TIP3   OH236696   1.454   0.444   6.115  0.0451  0.2578  0.7572
 5046TIP3    H136697   1.492   0.365   6.153 -0.2598  0.9980  2.6889
 5046TIP3    H236698   1.529   0.498   6.092  0.2682 -0.6908 -0.8973
 5047TIP3   OH236699   2.952   2.762   7.188  0.0256 -0.4980  0.3000
 5047TIP3    H136700   3.034   2.740   7.145 -0.3134 -0.5263 -0.3492
 5047TIP3    H236701   2.885   2.714   7.139 -0.3767 -0.5009  0.8398
 5048TIP3   OH236702   2.302   1.979   7.429 -0.1109 -0.0946 -0.2997
 5048TIP3    H136703   2.258   1.900   7.397  0.6480 -0.7936  0.3224
 5048TIP3    H236704   2.232   2.039   7.450 -0.7751 -1.1263  0.5336
 5049TIP3   OH236705   1.778   0.754   8.592  0.5675  0.5043 -0.1314
 5049TIP3    H136706   1.758   0.826   8.652  1.3437  1.6512 -1.2129
 5049TIP3    H236707   1.861   0.778   8.552  0.6419 -0.8151 -0.8216
 5050TIP3   OH236708   1.648   4.192   1.235 -0.7106  0.5723  0.2636
 5050TIP3    H136709   1.733   4.234   1.251 -0.3309 -0.2923  0.5437
 5050TIP3    H236710   1.648   4.173   1.142 -0.8382  1.0742  0.1545
 5051TIP3   OH236711   2.359   1.831   8.632  0.6160 -0.0101 -0.3761
 5051TIP3    H136712   2.264   1.831   8.627  0.4920 -0.7250  1.3066
 5051TIP3    H236713   2.380   1.894   8.702  1.2890 -0.8360  0.1847
 5052TIP3   OH236714   3.517   1.623   7.440  0.5096 -0.4767 -0.2202
 5052TIP3    H136715   3.442   1.666   7.481 -0.7397 -2.3099 -0.4706
 5052TIP3    H236716   3.536   1.677   7.363 -2.2543 -1.3149 -1.6280
 5053TIP3   OH236717   2.452   5.129   8.431 -0.1952 -0.0466 -0.2513
 5053TIP3    H136718   2.547   5.132   8.444 -0.0533 -1.3501 -0.7698
 5053TIP3    H236719   2.441   5.112   8.338 -0.9014 -0.7839 -0.0509
 5054TIP3   OH236720   3.869   6.025   6.174  0.3256  0.0934  0.4116
 5054TIP3    H136721   3.947   6.008   6.226  0.5356 -1.4960 -0.3757
 5054TIP3    H236722   3.829   5.939   6.160 -1.3052  0.8103  0.3619
 5055TIP3   OH236723   1.656   1.630   6.401  0.2984 -0.2723  0.0098
 5055TIP3    H136724   1.625   1.655   6.314 -0.2710 -1.7106 -0.2422
 5055TIP3    H236725   1.747   1.658   6.403 -0.2531  1.6486 -0.2560
 5056TIP3   OH236726   3.109   2.601   7.868  0.3017  0.5818 -0.0160
 5056TIP3    H136727   3.123   2.650   7.786 -0.1336 -0.2208 -0.5890
 5056TIP3    H236728   3.051   2.656   7.920 -0.6749  0.4196 -0.9020
 5057TIP3   OH236729   6.221   1.369   2.152  0.1122  0.3238  0.1553
 5057TIP3    H136730   6.127   1.349   2.147 -0.3325  1.3897  2.6824
 5057TIP3    H236731   6.227   1.460   2.123  0.0468  0.8751  1.8055
 5058TIP3   OH236732   2.695   1.128   6.546 -0.2889 -0.5504  0.3583
 5058TIP3    H136733   2.623   1.176   6.506 -0.3787 -1.2222 -0.3151
 5058TIP3    H236734   2.654   1.076   6.616 -0.4131 -0.7188  0.1599
 5059TIP3   OH236735   3.164   0.905   1.401  0.2712 -0.1461  0.5833
 5059TIP3    H136736   3.174   0.980   1.343 -0.0532  0.4053  1.2285
 5059TIP3    H236737   3.207   0.932   1.482  0.0803 -0.6273  0.8476
 5060TIP3   OH236738   0.167   0.208   0.271  0.1111 -0.1569 -0.8761
 5060TIP3    H136739   0.196   0.161   0.349 -2.0090  0.6198  0.4645
 5060TIP3    H236740   0.193   0.299   0.286 -1.2116  0.1933 -0.5231
 5061TIP3   OH236741   2.731   1.333   6.156 -0.4912  0.6818  0.4131
 5061TIP3    H136742   2.794   1.356   6.224 -0.0871 -0.0667  0.2987
 5061TIP3    H236743   2.746   1.397   6.087 -0.5631  1.1366  0.8160
 5062TIP3   OH236744   3.523   1.719   8.590  0.3665 -0.3015 -0.1054
 5062TIP3    H136745   3.583   1.775   8.542 -0.6093  1.2055  0.3622
 5062TIP3    H236746   3.445   1.773   8.604 -0.4139 -1.5968  0.8265
 5063TIP3   OH236747   3.016   4.360   8.292  0.0029  0.5434 -0.0499
 5063TIP3    H136748   2.926   4.374   8.263 -0.5971 -2.3240  0.1308
 5063TIP3    H236749   3.070   4.393   8.221 -1.2344  0.6919 -0.9457
 5064TIP3   OH236750   1.647   0.951   8.158  0.6239  0.2141 -0.3507
 5064TIP3    H136751   1.659   1.021   8.223  0.5114 -1.1270  1.1753
 5064TIP3    H236752   1.553   0.947   8.145  0.2667 -1.8198  2.1525
 5065TIP3   OH236753   5.238   6.243   2.562 -0.0024 -0.1636  0.2251
 5065TIP3    H136754   5.237   6.162   2.613 -1.9399  0.3994  1.1535
 5065TIP3    H236755   5.186   6.223   2.484  1.0009 -0.3090 -0.4332
 5066TIP3   OH236756   3.279   2.655   1.233 -0.2962  0.8419  0.4383
 5066TIP3    H136757   3.283   2.698   1.318  0.9915  1.1357  0.2490
 5066TIP3    H236758   3.210   2.701   1.186  1.3008  2.9941  0.1010
 5067TIP3   OH236759   5.233   5.046   1.593 -0.0643  0.5315 -0.2109
 5067TIP3    H136760   5.291   4.996   1.535  1.0399 -0.6523  1.7966
 5067TIP3    H236761   5.291   5.080   1.661 -1.2431  2.3114 -0.0213
 5068TIP3   OH236762   3.614   2.857   0.467 -0.1802 -0.1258  0.1536
 5068TIP3    H136763   3.559   2.786   0.436  2.2905 -3.2177  2.2292
 5068TIP3    H236764   3.573   2.886   0.549  0.4623 -1.4933  0.9936
 5069TIP3   OH236765   2.467   3.684   7.742  0.6655 -0.1963  0.1080
 5069TIP3    H136766   2.532   3.682   7.672 -1.3505  1.1921 -1.9965
 5069TIP3    H236767   2.406   3.614   7.719 -0.4156  0.7468 -0.0392
 5070TIP3   OH236768   3.928   1.795   6.235 -0.3179  0.5622  0.0151
 5070TIP3    H136769   3.915   1.870   6.176  1.2539 -0.1698 -1.3039
 5070TIP3    H236770   3.870   1.727   6.201  0.2350  0.2973 -0.3992
 5071TIP3   OH236771   2.879   4.145   0.397 -0.2600 -0.2723  0.2098
 5071TIP3    H136772   2.928   4.200   0.458 -0.2104 -0.8827  0.7377
 5071TIP3    H236773   2.924   4.061   0.399 -1.3627 -0.8716  0.7724
 5072TIP3   OH236774   4.064   2.186   1.169  0.8493  0.3452 -0.1093
 5072TIP3    H136775   4.152   2.203   1.201  0.6011  1.5485 -0.0106
 5072TIP3    H236776   4.035   2.109   1.218  2.2601 -0.8132 -1.0061
 5073TIP3   OH236777   4.602   3.016   1.212  0.2292 -0.0577 -0.4631
 5073TIP3    H136778   4.508   3.002   1.213 -0.1335  2.1367  0.3000
 5073TIP3    H236779   4.620   3.056   1.127  0.0478  1.8243  0.3397
 5074TIP3   OH236780   0.386   5.994   0.929  0.0098  0.1157  0.5792
 5074TIP3    H136781   0.433   6.077   0.918  1.8029 -0.8029  0.8955
 5074TIP3    H236782   0.403   5.946   0.848  0.4306 -0.5901  1.0658
 5075TIP3   OH236783   0.057   4.335   1.958 -0.4171 -0.9038 -0.3457
 5075TIP3    H136784   0.016   4.417   1.932 -1.7893 -0.8993  1.6419
 5075TIP3    H236785   0.136   4.361   2.005  0.0417 -0.8046 -1.1513
 5076TIP3   OH236786   2.446   1.448   1.308 -0.2845  0.3352 -0.8155
 5076TIP3    H136787   2.490   1.470   1.225  2.0044 -2.6604 -0.5943
 5076TIP3    H236788   2.465   1.355   1.320  0.4149  0.8509  3.6019
 5077TIP3   OH236789   2.681   4.586   7.467 -0.2873 -0.0613  0.2049
 5077TIP3    H136790   2.658   4.674   7.438  0.9479  0.0781 -0.3975
 5077TIP3    H236791   2.644   4.580   7.556 -1.4159  0.6106 -0.1971
 5078TIP3   OH236792   5.974   1.295   0.956 -0.2282 -0.2912 -0.1499
 5078TIP3    H136793   6.036   1.366   0.939 -1.8648  0.8204 -1.8340
 5078TIP3    H236794   6.030   1.218   0.968  1.5200  0.8387 -0.5571
 5079TIP3   OH236795   2.835   4.588   8.242 -0.7183  0.2902  0.3980
 5079TIP3    H136796   2.893   4.654   8.205 -0.3629 -0.3077 -0.1255
 5079TIP3    H236797   2.750   4.631   8.247 -1.0064  0.1387 -1.9475
 5080TIP3   OH236798   3.344   1.745   7.610  0.1403 -0.5897 -0.0108
 5080TIP3    H136799   3.292   1.718   7.686 -1.9130  1.1811 -0.6840
 5080TIP3    H236800   3.338   1.840   7.609  2.1772 -0.4047 -1.0392
 5081TIP3   OH236801   1.300   5.630   0.178  0.1431 -0.2137  0.3033
 5081TIP3    H136802   1.386   5.671   0.167  0.0227 -0.0875 -0.1716
 5081TIP3    H236803   1.256   5.684   0.244  0.4980 -0.3952  0.6971
 5082TIP3   OH236804   1.039   5.098   0.911  0.0562  0.3155 -0.1809
 5082TIP3    H136805   0.960   5.118   0.860 -0.9336  0.0704  1.1929
 5082TIP3    H236806   1.036   5.004   0.926  0.5622  0.3185 -0.0221
 5083TIP3   OH236807   5.373   6.102   7.629  0.1623  0.2275 -0.6804
 5083TIP3    H136808   5.347   6.104   7.721  1.3467 -2.0389 -0.2136
 5083TIP3    H236809   5.291   6.098   7.580 -0.4955  1.9266  0.2168
 5084TIP3   OH236810   4.686   6.291   8.613  0.2181  0.2233 -0.5778
 5084TIP3    H136811   4.694   6.385   8.629 -0.1904  0.5758 -2.3045
 5084TIP3    H236812   4.707   6.280   8.520  0.1382 -1.3841 -0.4386
 5085TIP3   OH236813   4.322   3.104   0.084 -0.1063 -0.2323  0.3243
 5085TIP3    H136814   4.350   3.075   0.171  1.0386  0.1870  0.1090
 5085TIP3    H236815   4.280   3.027   0.045 -0.3677 -0.5061  1.1304
 5086TIP3   OH236816   3.586   5.042   8.191 -0.0227  0.2350 -0.0669
 5086TIP3    H136817   3.543   5.111   8.242 -0.0784  0.0064  0.1953
 5086TIP3    H236818   3.557   4.960   8.232 -0.6612  0.0166 -0.9200
 5087TIP3   OH236819   3.504   5.139   7.690 -0.3571  0.2281  0.1872
 5087TIP3    H136820   3.419   5.133   7.646 -0.6117 -1.8025  0.8385
 5087TIP3    H236821   3.566   5.105   7.625 -0.1551  0.8606  0.0407
 5088TIP3   OH236822   3.310   1.168   7.096 -0.1434 -0.3435 -0.2488
 5088TIP3    H136823   3.369   1.141   7.166  1.5065  0.7147 -1.1644
 5088TIP3    H236824   3.232   1.114   7.108  0.4223 -0.7858  1.8729
 5089TIP3   OH236825   0.048   5.516   6.891 -0.7999  0.5997  0.3363
 5089TIP3    H136826  -0.040   5.535   6.857  0.1980  1.9390 -1.7274
 5089TIP3    H236827   0.082   5.448   6.832  0.0612  1.1431  0.1953
 5090TIP3   OH236828   0.988   4.820   0.617  0.3641  0.0500  0.4583
 5090TIP3    H136829   1.032   4.896   0.581  0.9912 -1.0715 -1.2890
 5090TIP3    H236830   0.912   4.807   0.560 -0.0313 -0.3237  1.0566
 5091TIP3   OH236831   3.245   3.849   0.504  0.5278 -0.4909 -0.1396
 5091TIP3    H136832   3.323   3.904   0.497  0.9482 -0.9048  1.0813
 5091TIP3    H236833   3.194   3.870   0.426  2.7529 -1.6183 -2.0285
 5092TIP3   OH236834   0.573   4.185   8.161  0.4084 -0.2837  0.4096
 5092TIP3    H136835   0.620   4.133   8.096  0.7252  2.1240 -1.4423
 5092TIP3    H236836   0.611   4.273   8.154 -3.2843  1.4714 -0.1763
 5093TIP3   OH236837   5.378   5.473   0.491 -0.1911 -0.0490 -0.2767
 5093TIP3    H136838   5.360   5.400   0.550  0.1551 -0.9409 -1.2591
 5093TIP3    H236839   5.294   5.491   0.449  0.1875 -1.4472 -1.7478
 5094TIP3   OH236840   0.011   4.151   2.198  0.3152 -0.1601 -0.0030
 5094TIP3    H136841   0.017   4.200   2.116  0.9931  0.9748  0.6981
 5094TIP3    H236842   0.101   4.126   2.217 -0.1598 -2.9257 -1.0364
 5095TIP3   OH236843   1.569   5.571   1.564  0.3600 -0.3084  0.1244
 5095TIP3    H136844   1.494   5.530   1.520  1.1099 -0.9969 -0.5379
 5095TIP3    H236845   1.605   5.631   1.498  1.5277 -1.3900 -0.2672
 5096TIP3   OH236846   5.791   4.220   0.726  0.1180 -0.3401  0.3928
 5096TIP3    H136847   5.709   4.184   0.692 -0.3052  1.0038 -0.0628
 5096TIP3    H236848   5.848   4.144   0.736 -1.5104 -1.4418  1.6962
 5097TIP3   OH236849   0.903   3.218   8.348 -0.0839  0.5088  0.0929
 5097TIP3    H136850   0.810   3.196   8.354  0.4236 -1.7350  0.6675
 5097TIP3    H236851   0.920   3.271   8.426 -1.0888  2.0831 -0.6810
 5098TIP3   OH236852   6.712   2.267   0.447 -0.4378 -0.4230 -0.6362
 5098TIP3    H136853   6.715   2.284   0.353 -1.0003  0.2025 -0.5463
 5098TIP3    H236854   6.701   2.353   0.487  1.3356 -0.4923  0.1034
 5099TIP3   OH236855   5.197   1.804   6.445  0.9009 -0.3374 -0.6059
 5099TIP3    H136856   5.255   1.775   6.516  0.6407 -0.2038 -0.3362
 5099TIP3    H236857   5.123   1.844   6.490  0.6193 -0.4698 -0.9549
 5100TIP3   OH236858   3.373   0.786   7.074  0.3453 -0.2262  0.0538
 5100TIP3    H136859   3.401   0.861   7.022 -1.3174  0.0481 -0.5054
 5100TIP3    H236860   3.418   0.711   7.035  0.4027  0.2054 -0.7158
 5101TIP3   OH236861   3.926   3.065   8.476  0.3154 -0.5741  0.4443
 5101TIP3    H136862   3.966   3.144   8.440  2.0348 -1.5219  0.1486
 5101TIP3    H236863   3.919   3.081   8.570 -0.7824  0.4979  0.1981
 5102TIP3   OH236864   2.001   4.587   6.627  0.1825 -0.1300 -0.3837
 5102TIP3    H136865   2.012   4.514   6.566  2.7562  0.7377 -1.1047
 5102TIP3    H236866   2.009   4.665   6.572  0.5960  0.6833  0.7985
 5103TIP3   OH236867   3.588   6.173   0.412  0.0573  0.0217 -0.3398
 5103TIP3    H136868   3.572   6.134   0.498  0.7507  0.0462 -0.1926
 5103TIP3    H236869   3.568   6.266   0.424  0.1941  0.0333 -0.1956
 5104TIP3   OH236870   1.738   1.433   7.731 -0.0925 -0.0298 -0.0960
 5104TIP3    H136871   1.645   1.440   7.710  0.1901 -1.7457 -2.2638
 5104TIP3    H236872   1.781   1.489   7.666  0.4491 -0.0384  0.2475
 5105TIP3   OH236873   3.591   5.863   0.646  0.3973 -0.7579 -0.3578
 5105TIP3    H136874   3.596   5.959   0.648  0.0619 -0.7436  0.0014
 5105TIP3    H236875   3.527   5.844   0.578 -1.9254 -0.5997  1.6190
 5106TIP3   OH236876   1.832   0.006   1.673  0.0240  0.6317 -0.2154
 5106TIP3    H136877   1.756   0.064   1.665  0.2858  0.9960 -0.0896
 5106TIP3    H236878   1.894   0.039   1.608  0.4484  0.9305  0.3254
 5107TIP3   OH236879   2.292   1.269   7.469  0.1336 -0.2568  0.4634
 5107TIP3    H136880   2.333   1.195   7.514 -1.1084 -1.0703  0.3259
 5107TIP3    H236881   2.292   1.340   7.533  1.4121 -0.3277  0.5740
 5108TIP3   OH236882   4.032   2.749   0.439  0.1575  0.3447 -0.3475
 5108TIP3    H136883   4.099   2.688   0.469  0.3028  0.6271 -0.0962
 5108TIP3    H236884   3.954   2.694   0.428  0.2946  0.1084 -0.1592
 5109TIP3   OH236885   2.370   1.704   7.882 -0.0933 -0.4036 -0.1871
 5109TIP3    H136886   2.367   1.726   7.975  0.1598 -0.3098 -0.2015
 5109TIP3    H236887   2.421   1.775   7.842 -0.3694 -0.3374 -0.4277
 5110TIP3   OH236888   4.033   4.900   1.558 -0.1358 -0.0806  0.2097
 5110TIP3    H136889   3.954   4.851   1.536 -1.6540  1.5439  1.7624
 5110TIP3    H236890   4.003   4.969   1.618  1.7781  2.9961 -2.0664
 5111TIP3   OH236891   6.774   0.612   0.932 -0.6066 -0.5834  0.7224
 5111TIP3    H136892   6.735   0.572   0.854  0.3294 -0.4570  0.1768
 5111TIP3    H236893   6.702   0.661   0.972 -0.7991  0.3969 -0.7482
 5112TIP3   OH236894   5.078   3.497   7.020 -0.2067  0.3502 -0.6411
 5112TIP3    H136895   5.125   3.571   6.983  1.3243  0.7231  1.7657
 5112TIP3    H236896   5.035   3.532   7.098 -0.2294 -1.0543  0.0239
 5113TIP3   OH236897   0.017   6.018   0.308 -0.0395  0.2792  0.3480
 5113TIP3    H136898   0.091   6.078   0.311  0.3856 -0.2543  1.1298
 5113TIP3    H236899   0.041   5.948   0.370 -0.8311 -0.3197 -0.0063
 5114TIP3   OH236900   3.814   4.338   7.389 -0.2584 -0.7639 -0.8996
 5114TIP3    H136901   3.843   4.413   7.336 -0.3183 -0.5793 -0.6750
 5114TIP3    H236902   3.822   4.263   7.331 -0.1365 -0.5910 -1.1089
 5115TIP3   OH236903   5.035   0.522   0.899 -0.1862 -0.5004  0.1565
 5115TIP3    H136904   5.059   0.431   0.919  1.3956  0.0521  0.9460
 5115TIP3    H236905   5.097   0.548   0.831 -1.9305 -0.5920 -1.5737
 5116TIP3   OH236906   1.624   4.839   2.112  0.5820  0.1960 -0.1210
 5116TIP3    H136907   1.538   4.882   2.113  0.1256 -0.6867  0.8864
 5116TIP3    H236908   1.609   4.757   2.064  1.1308  0.5266 -0.8811
 5117TIP3   OH236909   0.367   1.236   6.049  0.4550  0.2128 -0.0112
 5117TIP3    H136910   0.367   1.316   6.102  1.4244 -0.1791  0.6124
 5117TIP3    H236911   0.274   1.214   6.039 -0.1608  3.2972 -3.1656
 5118TIP3   OH236912   5.269   2.749   0.649 -0.3012  0.4597 -0.0625
 5118TIP3    H136913   5.191   2.741   0.595 -0.0557 -1.4517 -0.2048
 5118TIP3    H236914   5.254   2.828   0.701 -0.4546  2.5240 -2.9870
 5119TIP3   OH236915   4.280   0.607   8.630  0.4851  0.7946  0.3285
 5119TIP3    H136916   4.210   0.612   8.564  0.6797 -0.5179 -0.0037
 5119TIP3    H236917   4.358   0.638   8.583  0.3763  1.0688  0.3261
 5120TIP3   OH236918   0.150   1.621   8.605  0.1445 -0.0194 -0.3044
 5120TIP3    H136919   0.233   1.627   8.559  0.7746  0.2366  0.8432
 5120TIP3    H236920   0.084   1.630   8.536  1.0504 -0.8219 -1.3038
 5121TIP3   OH236921   1.499   4.608   2.025 -0.7133 -0.4906  0.5386
 5121TIP3    H136922   1.494   4.641   1.935  0.4214  0.1069  0.6761
 5121TIP3    H236923   1.444   4.529   2.024  2.0833 -2.6777 -1.6789
 5122TIP3   OH236924   0.516   1.247   0.275  0.3921  0.5071 -0.2036
 5122TIP3    H136925   0.502   1.153   0.274 -0.7065  0.6648 -0.0918
 5122TIP3    H236926   0.481   1.277   0.358  2.4901  0.7891  0.6581
 5123TIP3   OH236927   5.589   0.832   7.297  0.0014 -0.0009  0.2917
 5123TIP3    H136928   5.519   0.897   7.296  0.3826  0.4376  1.0941
 5123TIP3    H236929   5.548   0.752   7.263 -0.7914  0.3375  0.4291
 5124TIP3   OH236930   1.033   5.895   7.749 -0.8739  0.3767 -0.3629
 5124TIP3    H136931   0.942   5.921   7.759 -1.1783 -0.3847 -1.0753
 5124TIP3    H236932   1.030   5.807   7.711  0.1050 -1.0421  2.5218
 5125TIP3   OH236933   5.170   0.834   1.146 -0.0062 -0.2066  0.0924
 5125TIP3    H136934   5.159   0.896   1.074  0.9386  0.8896  0.8348
 5125TIP3    H236935   5.235   0.876   1.203  0.4159 -1.7477  0.7978
 5126TIP3   OH236936   0.455   4.144   0.315  0.5447 -0.4978 -1.1102
 5126TIP3    H136937   0.402   4.207   0.266  0.2274 -0.2468 -0.4493
 5126TIP3    H236938   0.451   4.174   0.406  0.8581 -1.1453 -0.8746
 5127TIP3   OH236939   1.272   0.650   7.598 -0.1447 -0.5649  0.7912
 5127TIP3    H136940   1.255   0.630   7.506 -2.0937 -0.2697  1.0388
 5127TIP3    H236941   1.210   0.594   7.646  0.2606 -0.1024  1.8829
 5128TIP3   OH236942   5.764   2.567   0.463 -0.5806 -0.3477  0.5948
 5128TIP3    H136943   5.819   2.533   0.392 -2.2386 -2.3815  0.1754
 5128TIP3    H236944   5.683   2.594   0.419 -0.5753  1.0821  1.3994
 5129TIP3   OH236945   5.690   3.802   0.955  0.6346 -0.3763  0.1236
 5129TIP3    H136946   5.782   3.825   0.964  0.9249 -1.0552 -0.9038
 5129TIP3    H236947   5.653   3.872   0.901  0.6539 -0.3484  0.1466
 5130TIP3   OH236948   1.848   6.828   8.461  0.1453  0.3820  0.8978
 5130TIP3    H136949   1.938   6.812   8.489  0.4126 -2.0360 -0.9808
 5130TIP3    H236950   1.854   6.907   8.407  1.2557  0.0484  0.4942
 5131TIP3   OH236951   6.874   0.985   6.207  0.1077  0.4818  0.5671
 5131TIP3    H136952   6.782   1.003   6.226  0.3337  1.1740  1.0512
 5131TIP3    H236953   6.903   1.060   6.156  0.3830  0.2047  0.3081
 5132TIP3   OH236954   1.498   6.210   7.078 -0.4385  0.4158  0.4724
 5132TIP3    H136955   1.556   6.280   7.047  0.4199 -1.5596 -2.9312
 5132TIP3    H236956   1.410   6.242   7.058 -0.1085  0.8394 -0.3546
 5133TIP3   OH236957   1.049   5.933   0.910  0.5047  0.3434  0.0865
 5133TIP3    H136958   1.005   6.007   0.869  0.4867  0.0553 -0.4267
 5133TIP3    H236959   1.002   5.856   0.878  1.9330 -0.0306 -1.2021
 5134TIP3   OH236960   1.807   1.235   0.644 -0.2326 -0.0278  0.1147
 5134TIP3    H136961   1.902   1.232   0.656 -0.0608 -1.1471 -1.2508
 5134TIP3    H236962   1.779   1.313   0.692  1.1395 -0.5986  1.9489
 5135TIP3   OH236963   4.203   1.295   8.195  0.0252  0.5367  0.4111
 5135TIP3    H136964   4.153   1.325   8.271 -0.1982  0.4421  0.3019
 5135TIP3    H236965   4.294   1.308   8.220 -0.0664  1.7688  0.1867
 5136TIP3   OH236966   1.593   3.604   7.972  0.5940 -0.0124  0.2980
 5136TIP3    H136967   1.536   3.655   7.913 -3.1336 -0.6937  2.9223
 5136TIP3    H236968   1.570   3.513   7.955  0.4605 -0.2823  1.7995
 5137TIP3   OH236969   5.709   0.374   7.214 -0.0373 -0.1510  0.6565
 5137TIP3    H136970   5.621   0.402   7.190 -0.2310 -0.5198  0.9356
 5137TIP3    H236971   5.758   0.377   7.131 -0.4657 -0.5350  0.3832
 5138TIP3   OH236972   6.744   2.340   0.788 -0.0758  0.3085  0.0878
 5138TIP3    H136973   6.741   2.393   0.868  2.2682  2.7292 -1.2260
 5138TIP3    H236974   6.747   2.250   0.819 -0.8209  1.0701  2.6505
 5139TIP3   OH236975   1.452   2.479   0.464  0.3868 -0.2793 -0.0765
 5139TIP3    H136976   1.380   2.527   0.506  0.6632 -0.1503  0.2571
 5139TIP3    H236977   1.440   2.496   0.370  0.9339  1.1113  0.0816
 5140TIP3   OH236978   3.327   3.783   0.966  0.0809  0.0280 -0.4134
 5140TIP3    H136979   3.295   3.860   1.014 -3.1419 -0.4978 -1.4598
 5140TIP3    H236980   3.391   3.818   0.905  1.5353  1.2475  1.6463
 5141TIP3   OH236981   3.053   0.326   7.126 -0.1308 -0.4696  0.1721
 5141TIP3    H136982   3.057   0.282   7.041 -1.1131  0.7608 -0.5528
 5141TIP3    H236983   2.959   0.334   7.143  0.0183  1.2791  0.2933
 5142TIP3   OH236984   0.518   1.845   1.333  0.3750 -0.4120 -0.1573
 5142TIP3    H136985   0.450   1.907   1.307  2.8145  2.3399 -0.5459
 5142TIP3    H236986   0.473   1.780   1.387 -2.4253  1.4933  0.0021
 5143TIP3   OH236987   4.641   0.927   8.539  0.2302 -0.4340 -0.1391
 5143TIP3    H136988   4.608   0.975   8.463  1.5297  0.7046 -0.0236
 5143TIP3    H236989   4.690   0.993   8.589  1.7689 -1.7953  0.2103
 5144TIP3   OH236990   4.835   5.798   1.804 -0.2920 -0.4996  0.5000
 5144TIP3    H136991   4.761   5.858   1.808  0.4668  0.7103 -1.8417
 5144TIP3    H236992   4.875   5.804   1.891 -1.4810  0.7161  1.0115
 5145TIP3   OH236993   5.029   4.222   2.546  0.5540  0.0208 -0.1803
 5145TIP3    H136994   4.958   4.200   2.486  0.6417  1.7170 -0.9620
 5145TIP3    H236995   5.108   4.191   2.502  0.6905  1.8511 -1.3330
 5146TIP3   OH236996   5.089   1.121   7.661  0.1265 -0.0219  0.0547
 5146TIP3    H136997   5.062   1.029   7.660  0.5038 -0.1409  0.3590
 5146TIP3    H236998   5.017   1.167   7.704 -0.0891 -0.1656 -0.1505
 5147TIP3   OH236999   2.377   5.772   0.843 -0.1248  0.0815 -0.4770
 5147TIP3    H137000   2.357   5.853   0.889 -1.1553 -0.1064 -0.5881
 5147TIP3    H237001   2.350   5.702   0.903  1.7557 -0.2328  0.0895
 5148TIP3   OH237002   4.546   1.937   7.680 -0.4692 -0.7215  0.1633
 5148TIP3    H137003   4.630   1.918   7.638 -1.6133 -1.1786 -2.0945
 5148TIP3    H237004   4.564   2.010   7.739  1.2122  0.2611 -1.4542
 5149TIP3   OH237005   1.282   2.062   7.862  0.6254  0.3300  0.4822
 5149TIP3    H137006   1.200   2.024   7.894  0.9123  0.4766  1.4287
 5149TIP3    H237007   1.295   2.139   7.916 -0.3385  2.3176 -1.9088
 5150TIP3   OH237008   3.501   4.139   1.046 -0.6222 -0.2089 -0.2909
 5150TIP3    H137009   3.447   4.084   0.989 -1.0880  1.1077 -1.1645
 5150TIP3    H237010   3.442   4.207   1.077  0.5115  1.2669 -1.2617
 5151TIP3   OH237011   5.405   2.529   8.487  0.2691  0.3399  0.3358
 5151TIP3    H137012   5.386   2.512   8.395  3.2494  0.5128 -0.4422
 5151TIP3    H237013   5.427   2.444   8.524 -1.2810  0.2140  1.0402
 5152TIP3   OH237014   1.287   5.318   7.546 -0.4768 -0.0428 -0.0253
 5152TIP3    H137015   1.257   5.288   7.460  1.7589 -2.1004 -0.1934
 5152TIP3    H237016   1.302   5.412   7.534 -0.8717 -0.1526 -1.6987
 5153TIP3   OH237017   4.978   4.138   0.975  0.3187 -0.3793 -0.2064
 5153TIP3    H137018   4.918   4.121   0.903 -1.2149  0.6775  0.7768
 5153TIP3    H237019   4.972   4.060   1.030  0.6386 -0.6978 -0.6070
 5154TIP3   OH237020   2.211   2.041   0.733 -0.2664 -0.4300  0.0366
 5154TIP3    H137021   2.171   2.016   0.650 -0.6491  0.2110  0.0189
 5154TIP3    H237022   2.204   2.137   0.735 -1.5483 -0.5217  1.4433
 5155TIP3   OH237023   1.831   6.159   1.207  0.4653  0.2538 -0.4904
 5155TIP3    H137024   1.735   6.159   1.205  0.4410 -1.0714 -0.2609
 5155TIP3    H237025   1.854   6.247   1.234 -0.7356  0.2592  0.6235
 5156TIP3   OH237026   3.809   2.989   7.039  0.6052 -0.0555  0.1348
 5156TIP3    H137027   3.717   2.989   7.065  0.5786  2.8029  0.4146
 5156TIP3    H237028   3.818   2.913   6.983 -1.7248 -0.8706  0.7260
 5157TIP3   OH237029   0.305   6.275   1.014  0.2517 -0.3152 -0.6212
 5157TIP3    H137030   0.246   6.246   0.944 -0.1731  0.5908 -0.6612
 5157TIP3    H237031   0.254   6.339   1.063  1.3465  0.8914 -0.9734
 5158TIP3   OH237032   6.876   0.963   7.238  0.0027  0.0919 -0.0990
 5158TIP3    H137033   6.874   0.956   7.333  0.7626  0.6159 -0.0415
 5158TIP3    H237034   6.924   1.043   7.220 -1.8344  1.0913 -0.8849
 5159TIP3   OH237035   1.157   2.006   0.308  0.0360 -0.2113  0.4019
 5159TIP3    H137036   1.117   2.091   0.289  0.5545 -0.1841 -0.6549
 5159TIP3    H237037   1.128   1.984   0.396  0.5916  1.4832  1.0453
 5160TIP3   OH237038   4.048   5.042   7.987  0.1223 -0.1700 -0.1023
 5160TIP3    H137039   4.040   4.954   7.950 -0.5326  0.3370 -1.2266
 5160TIP3    H237040   4.142   5.060   7.985  0.3355 -1.0891  0.7715
 5161TIP3   OH237041   1.680   1.655   0.973  0.3297 -0.1984  0.3572
 5161TIP3    H137042   1.669   1.642   1.067 -0.6561 -1.2361  0.1110
 5161TIP3    H237043   1.775   1.659   0.960  0.5293 -1.7315  1.1879
 5162TIP3   OH237044   2.940   1.565   7.862  0.5182  0.6636  0.3022
 5162TIP3    H137045   2.901   1.478   7.857  0.5627  0.5615  1.5593
 5162TIP3    H237046   2.870   1.621   7.895  0.7153  0.9554  0.2311
 5163TIP3   OH237047   5.953   0.408   0.452  0.0204 -0.1507 -0.2819
 5163TIP3    H137048   6.009   0.366   0.387 -0.0097 -2.4670  1.0814
 5163TIP3    H237049   5.877   0.438   0.402  0.6470 -0.5673 -1.5278
 5164TIP3   OH237050   6.271   0.199   6.860  0.2896  0.1209  0.8359
 5164TIP3    H137051   6.216   0.133   6.818  0.9680 -0.4008  0.7569
 5164TIP3    H237052   6.310   0.248   6.787  0.9982 -0.3973  0.8611
 5165TIP3   OH237053   5.587   2.269   8.320  0.4252  0.2171  0.1021
 5165TIP3    H137054   5.629   2.227   8.396 -0.8285  0.2162  0.8353
 5165TIP3    H237055   5.605   2.362   8.330  2.4067 -0.0053 -1.0080
 5166TIP3   OH237056   1.360   0.477   8.439  0.1590 -0.2217  0.1752
 5166TIP3    H137057   1.426   0.416   8.473  0.5099  0.0095 -0.0765
 5166TIP3    H237058   1.316   0.510   8.518  1.4542  0.8592  0.5011
 5167TIP3   OH237059   2.737   1.968   7.847 -0.1278 -0.4268 -0.1957
 5167TIP3    H137060   2.675   2.028   7.807  0.0719  0.6067  0.9515
 5167TIP3    H237061   2.758   2.009   7.931  3.7998  0.4724 -1.4184
 5168TIP3   OH237062   4.012   6.632   8.487 -0.2717 -0.2035  0.0232
 5168TIP3    H137063   3.980   6.620   8.577 -0.9187  0.6661 -0.0814
 5168TIP3    H237064   3.985   6.551   8.442 -0.3074 -0.4662  0.5040
 5169TIP3   OH237065   2.833   5.539   2.010 -0.4029 -0.3536  0.4104
 5169TIP3    H137066   2.813   5.477   1.939  1.7490 -0.8531  0.1842
 5169TIP3    H237067   2.865   5.617   1.965  3.3553 -1.5328  0.7545
 5170TIP3   OH237068   0.870   0.556   1.499  0.6628 -0.4398 -0.2173
 5170TIP3    H137069   0.792   0.611   1.489  1.4060  0.6608 -0.0703
 5170TIP3    H237070   0.881   0.546   1.593  0.3808 -1.0940 -0.2418
 5171TIP3   OH237071   0.550   1.319   6.824  0.3416  0.1464 -0.4828
 5171TIP3    H137072   0.481   1.334   6.888  2.2463 -1.9827  2.2995
 5171TIP3    H237073   0.524   1.240   6.778 -0.5106  1.0899 -1.6894
 5172TIP3   OH237074   3.796   3.495   7.511 -0.6066  0.0245  0.3313
 5172TIP3    H137075   3.802   3.549   7.590  0.3498  0.3758  0.0321
 5172TIP3    H237076   3.849   3.541   7.446 -1.3392 -0.2878 -0.5067
 5173TIP3   OH237077   4.785   4.527   7.714 -0.0864  0.0342 -0.1672
 5173TIP3    H137078   4.737   4.588   7.770 -1.7152 -0.8716 -0.5128
 5173TIP3    H237079   4.720   4.462   7.688  0.5627  0.4301 -3.1560
 5174TIP3   OH237080   3.058   6.544   6.970  0.1924 -0.1866  0.3390
 5174TIP3    H137081   3.077   6.517   6.880  0.2837 -0.6789  0.5025
 5174TIP3    H237082   2.999   6.475   7.003 -0.2485  0.2575  0.4909
 5175TIP3   OH237083   2.199   3.539   7.591  0.5859  0.2244 -0.2765
 5175TIP3    H137084   2.204   3.607   7.524 -0.1888 -1.5845 -2.2661
 5175TIP3    H237085   2.123   3.563   7.643 -1.6703 -0.7066 -2.9176
 5176TIP3   OH237086   0.351   6.208   0.647  0.4846 -0.4340 -0.2075
 5176TIP3    H137087   0.420   6.264   0.612  1.5496 -0.8374  1.1231
 5176TIP3    H237088   0.359   6.126   0.597 -1.5278  0.7153 -2.6374
 5177TIP3   OH237089   3.234   4.511   1.039  0.4213 -0.2856 -0.1280
 5177TIP3    H137090   3.318   4.479   1.004 -0.1374 -1.3562 -0.5276
 5177TIP3    H237091   3.259   4.578   1.103  1.5925 -0.7019 -0.1241
 5178TIP3   OH237092   2.137   6.623   7.092  0.4651  0.3456  0.2761
 5178TIP3    H137093   2.165   6.703   7.137 -2.1698  1.7769 -0.3525
 5178TIP3    H237094   2.090   6.655   7.014  1.8144 -1.9343 -1.6130
 5179TIP3   OH237095   5.059   2.783   8.373  0.3370 -0.6401  0.0406
 5179TIP3    H137096   4.975   2.771   8.418 -1.1025  0.6000 -2.1715
 5179TIP3    H237097   5.081   2.875   8.389 -0.0067 -0.2876 -1.4181
 5180TIP3   OH237098   2.972   2.335   0.635  0.0851 -0.1616 -0.4003
 5180TIP3    H137099   2.888   2.372   0.662  0.1047 -1.4694  1.7599
 5180TIP3    H237100   2.999   2.281   0.710  3.1087  0.6050 -0.7782
 5181TIP3   OH237101   2.083   5.925   8.420 -0.0461  0.2792 -0.1836
 5181TIP3    H137102   2.141   5.999   8.436  0.5546 -0.4030  0.9889
 5181TIP3    H237103   2.074   5.920   8.325  2.5336 -0.1034 -0.4682
 5182TIP3   OH237104   0.807   4.490   2.603  0.2813  0.1242 -0.5488
 5182TIP3    H137105   0.809   4.404   2.644  0.4169  0.6279  0.5395
 5182TIP3    H237106   0.862   4.480   2.525  0.9870 -0.5638  0.0119
 5183TIP3   OH237107   3.506   6.064   6.738 -0.3148  0.0264  0.0122
 5183TIP3    H137108   3.540   6.023   6.658 -0.6874 -1.1381  0.4231
 5183TIP3    H237109   3.413   6.078   6.720  0.3067  3.6029 -1.2739
 5184TIP3   OH237110   1.774   0.369   7.307 -0.1173 -0.2909 -0.9244
 5184TIP3    H137111   1.864   0.397   7.325 -0.1058 -0.6704 -0.3310
 5184TIP3    H237112   1.733   0.444   7.264 -0.5290  1.2587  1.9311
 5185TIP3   OH237113   2.445   0.139   1.217 -0.6287  0.3070 -0.6481
 5185TIP3    H137114   2.495   0.134   1.298 -0.5645  1.0533 -0.6308
 5185TIP3    H237115   2.405   0.053   1.207  0.2810 -0.1501 -0.4212
 5186TIP3   OH237116   6.263   6.227   0.258 -0.4736  0.2032  0.3354
 5186TIP3    H137117   6.306   6.143   0.244 -1.0389 -0.2945  1.4717
 5186TIP3    H237118   6.207   6.238   0.181  0.8709  0.3806 -0.6601
 5187TIP3   OH237119   2.023   5.664   7.670 -0.5525  0.2308  0.1323
 5187TIP3    H137120   1.941   5.684   7.715 -1.5794 -1.3085 -0.9648
 5187TIP3    H237121   2.022   5.719   7.591 -0.7362 -0.0917 -0.0919
 5188TIP3   OH237122   3.453   2.650   6.046 -0.0257 -1.1997 -0.9464
 5188TIP3    H137123   3.523   2.697   6.000  0.4029  1.4123  1.9649
 5188TIP3    H237124   3.372   2.681   6.006  0.3733 -0.2679 -1.0500
 5189TIP3   OH237125   0.597   0.475   1.365  0.3249 -0.3330  0.7850
 5189TIP3    H137126   0.607   0.565   1.394  0.5683 -0.4758  1.1519
 5189TIP3    H237127   0.658   0.467   1.291  0.9335 -0.4271  1.2838
 5190TIP3   OH237128   2.483   2.918   0.601 -0.2043 -0.2565 -0.1744
 5190TIP3    H137129   2.537   2.950   0.674 -1.2328  0.2680  0.3727
 5190TIP3    H237130   2.499   2.824   0.600 -0.4170 -0.3240  0.9496
 5191TIP3   OH237131   0.343   6.523   1.252 -0.6930  0.0588  0.2311
 5191TIP3    H137132   0.284   6.464   1.298 -1.1394  0.4140  0.1203
 5191TIP3    H237133   0.311   6.523   1.162  0.3736 -0.8887 -0.1666
 5192TIP3   OH237134   3.456   5.286   7.940  0.6349 -0.1814 -0.2059
 5192TIP3    H137135   3.426   5.198   7.917  0.3770 -0.2750  0.4562
 5192TIP3    H237136   3.470   5.330   7.856 -0.2972 -0.4902 -0.5290
 5193TIP3   OH237137   5.006   4.169   1.287  0.2471  0.0103 -0.3087
 5193TIP3    H137138   4.928   4.202   1.331  1.4070  1.8522  0.4604
 5193TIP3    H237139   5.018   4.227   1.211  2.2336  1.4252  0.9853
 5194TIP3   OH237140   1.001   4.191   0.800 -0.2146 -0.1612 -0.0117
 5194TIP3    H137141   1.061   4.134   0.847  0.0417 -0.1052 -0.2756
 5194TIP3    H237142   0.964   4.248   0.868 -0.1311 -0.3356  0.1796
 5195TIP3   OH237143   0.772   3.001   0.149  0.3463  0.0811 -0.7427
 5195TIP3    H137144   0.807   2.914   0.170 -0.6168 -0.0585  0.3605
 5195TIP3    H237145   0.813   3.023   0.065  0.4363 -1.5416 -1.1615
 5196TIP3   OH237146   4.419   4.477   2.505 -0.1951  0.4781  0.2619
 5196TIP3    H137147   4.494   4.458   2.561  0.4045 -0.1353 -0.7078
 5196TIP3    H237148   4.408   4.572   2.512 -0.3583  0.3742  1.6546
 5197TIP3   OH237149   5.140   1.625   0.388 -0.2562 -0.3386  0.6431
 5197TIP3    H137150   5.169   1.595   0.302 -1.3613  2.5638 -0.8923
 5197TIP3    H237151   5.071   1.563   0.413 -3.0530  1.0204 -2.7465
 5198TIP3   OH237152   3.996   4.937   6.824  0.3616 -0.1785 -0.1650
 5198TIP3    H137153   3.993   4.995   6.748  0.1580 -0.0810 -0.0836
 5198TIP3    H237154   3.922   4.877   6.812  2.2059 -2.3072 -1.7357
 5199TIP3   OH237155   0.144   6.872   7.523 -0.2507 -1.0947 -0.2352
 5199TIP3    H137156   0.156   6.960   7.558  0.9882  0.1539 -3.4246
 5199TIP3    H237157   0.187   6.815   7.587  0.4778  0.7973  1.0499
 5200TIP3   OH237158   5.473   0.361   0.611  0.0275  0.3523  0.2446
 5200TIP3    H137159   5.422   0.283   0.633 -0.6682  1.5228  3.3743
 5200TIP3    H237160   5.538   0.331   0.548 -0.5793 -2.6248  0.9103
 5201TIP3   OH237161   0.683   5.440   0.067  0.3505 -1.3398 -0.0549
 5201TIP3    H137162   0.774   5.454   0.095  0.9697 -2.0490 -1.5973
 5201TIP3    H237163   0.667   5.511   0.004  0.5081 -2.3168 -1.2278
 5202TIP3   OH237164   4.304   3.493   1.037 -0.1441  0.3173  0.2053
 5202TIP3    H137165   4.376   3.555   1.028  0.4555 -0.5438 -1.4972
 5202TIP3    H237166   4.226   3.543   1.012  0.2256  0.6061 -0.3855
 5203TIP3   OH237167   4.811   4.339   1.389 -0.6061  0.3018  0.5713
 5203TIP3    H137168   4.799   4.323   1.483 -0.5582  2.4774  0.9812
 5203TIP3    H237169   4.832   4.432   1.382  1.2281 -0.1826 -1.4582
 5204TIP3   OH237170   3.219   6.020   7.775  0.3965 -0.5564  0.4311
 5204TIP3    H137171   3.131   6.006   7.812  0.1187 -1.6747 -0.5848
 5204TIP3    H237172   3.276   5.963   7.827  0.4550 -0.1761  0.7921
 5205TIP3   OH237173   2.895   1.211   1.646 -0.3927  0.1517 -0.2293
 5205TIP3    H137174   2.917   1.217   1.553 -0.8791  0.5187 -0.3182
 5205TIP3    H237175   2.890   1.301   1.676 -1.5929  0.0759 -0.1645
 5206TIP3   OH237176   5.869   3.069   1.419  0.3019  0.1438  0.0506
 5206TIP3    H137177   5.784   3.100   1.388  0.6153  1.5274  0.5118
 5206TIP3    H237178   5.933   3.118   1.368  0.8629 -1.2906 -0.6975
 5207TIP3   OH237179   3.290   0.099   6.395  0.2298  0.4028  0.1126
 5207TIP3    H137180   3.315   0.136   6.480  0.5001  1.5498 -0.4522
 5207TIP3    H237181   3.296   0.172   6.334  0.5334 -0.5283 -1.0001
 5208TIP3   OH237182   2.327   4.560   7.150 -0.1869 -0.1956 -0.1342
 5208TIP3    H137183   2.371   4.506   7.216 -1.9560  0.1600  1.3980
 5208TIP3    H237184   2.251   4.508   7.124 -0.4805  0.4588 -0.5943
 5209TIP3   OH237185   0.635   1.024   7.935 -0.1675 -0.0648  1.1995
 5209TIP3    H137186   0.603   1.109   7.905 -1.3308 -1.2033 -1.0342
 5209TIP3    H237187   0.584   1.006   8.014 -1.1382  0.5958  0.7526
 5210TIP3   OH237188   0.574   0.086   7.562  0.4301  0.4620  0.2871
 5210TIP3    H137189   0.604  -0.004   7.580 -0.2701 -0.0472 -1.0075
 5210TIP3    H237190   0.522   0.078   7.482  1.8550  2.3295 -0.8923
 5211TIP3   OH237191   1.257   4.817   8.323 -0.6045  0.8299  0.6268
 5211TIP3    H137192   1.269   4.833   8.229  1.6929  0.4209  0.8038
 5211TIP3    H237193   1.243   4.722   8.329  0.5803  0.6522  0.7804
 5212TIP3   OH237194   1.657   3.476   6.469 -0.0994 -0.0350 -0.2938
 5212TIP3    H137195   1.717   3.438   6.534 -0.3429 -0.6549 -0.4337
 5212TIP3    H237196   1.579   3.421   6.473 -0.2512  0.1344 -0.8707
 5213TIP3   OH237197   4.358   2.100   7.984 -0.0842 -0.2483  0.0960
 5213TIP3    H137198   4.434   2.126   7.931 -0.4800 -0.5354 -0.6235
 5213TIP3    H237199   4.283   2.140   7.941 -0.3691 -0.1277  0.6914
 5214TIP3   OH237200   0.467   0.667   0.941 -0.3909 -0.1246 -0.3881
 5214TIP3    H137201   0.522   0.722   0.997 -0.0950 -1.0855  0.2844
 5214TIP3    H237202   0.405   0.625   1.001 -1.3596  0.3448 -1.0415
 5215TIP3   OH237203   1.744   1.895   6.857  0.2138  0.0274  0.3149
 5215TIP3    H137204   1.723   1.808   6.823 -2.9351  0.2807  1.2938
 5215TIP3    H237205   1.732   1.953   6.782 -1.1695 -0.0553  0.4332
 5216TIP3   OH237206   4.110   2.261   8.223 -0.0013 -0.0981  0.1592
 5216TIP3    H137207   4.029   2.312   8.232 -0.0105 -0.2350  0.9207
 5216TIP3    H237208   4.177   2.325   8.201 -0.3646 -0.0201 -0.7771
 5217TIP3   OH237209   3.802   2.062   7.971 -0.0199 -0.1304  0.8463
 5217TIP3    H137210   3.750   2.078   7.892  0.7660 -0.0029  0.3441
 5217TIP3    H237211   3.794   1.968   7.987 -1.6779  0.1141  1.6933
 5218TIP3   OH237212   5.740   6.085   1.447 -0.9961  0.2420 -0.3148
 5218TIP3    H137213   5.688   6.155   1.407  1.6480  2.1227 -0.7447
 5218TIP3    H237214   5.819   6.129   1.478  0.2154 -2.3823  0.5985
 5219TIP3   OH237215   5.507   6.519   1.490 -0.1853 -0.0343 -0.2957
 5219TIP3    H137216   5.558   6.565   1.557 -1.4777 -0.2719  0.9220
 5219TIP3    H237217   5.572   6.486   1.429  1.0375  0.4819  0.6697
 5220TIP3   OH237218   3.038   3.975   8.540 -0.0994 -0.2630 -0.0995
 5220TIP3    H137219   3.065   4.059   8.502  3.7126 -1.3778 -0.1674
 5220TIP3    H237220   2.943   3.985   8.552  0.0871  3.8903 -0.4398
 5221TIP3   OH237221   2.178   6.089   1.890 -0.5436  0.1360 -0.2946
 5221TIP3    H137222   2.115   6.072   1.820 -0.9016 -0.9304  0.2630
 5221TIP3    H237223   2.124   6.124   1.962 -0.2066  1.0453 -0.4660
 5222TIP3   OH237224   5.121   6.735   8.618 -0.3619 -0.1051  0.2554
 5222TIP3    H137225   5.215   6.751   8.611 -0.4949  0.4243 -0.4177
 5222TIP3    H237226   5.099   6.681   8.542 -1.2791  3.1150 -1.9559
 5223TIP3   OH237227   1.037   3.597   0.672 -0.1810 -0.0863 -0.7667
 5223TIP3    H137228   0.949   3.611   0.638 -1.3591 -1.9327  1.2173
 5223TIP3    H237229   1.069   3.519   0.627  0.7338  0.9213 -1.9197
 5224TIP3   OH237230   3.294   5.046   2.043 -0.3062 -0.5050  0.4533
 5224TIP3    H137231   3.381   5.085   2.036 -0.4637  0.3792  2.6227
 5224TIP3    H237232   3.310   4.951   2.049  0.3197 -0.5394 -1.2808
 5225TIP3   OH237233   1.989   3.571   1.401  0.0674  0.1244  0.2304
 5225TIP3    H137234   1.973   3.574   1.306  0.0672  2.9347  0.2478
 5225TIP3    H237235   1.904   3.551   1.439 -0.0843 -0.3264 -0.3323
 5226TIP3   OH237236   5.911   2.792   8.617 -0.0642  0.0925 -0.1714
 5226TIP3    H137237   5.851   2.861   8.645 -0.1532 -0.0731  0.0422
 5226TIP3    H237238   5.858   2.736   8.559 -0.3974 -0.6222  0.8077
 5227TIP3   OH237239   0.188   3.086   1.149 -0.3269  0.6938  0.2129
 5227TIP3    H137240   0.114   3.141   1.123 -0.5833 -0.3329 -1.3567
 5227TIP3    H237241   0.182   3.009   1.092  0.9244 -0.2413  1.2737
 5228TIP3   OH237242   6.655   4.604   0.243 -0.4858  0.7289 -0.1153
 5228TIP3    H137243   6.604   4.529   0.273  0.2696  0.6291  0.9971
 5228TIP3    H237244   6.681   4.581   0.154 -0.0198 -0.4847  0.3067
 5229TIP3   OH237245   2.808   6.653   7.632 -0.4124 -0.4588 -0.0120
 5229TIP3    H137246   2.714   6.641   7.623 -0.8767  3.0105 -1.3956
 5229TIP3    H237247   2.838   6.677   7.544  1.8908 -1.9476  0.2843
 5230TIP3   OH237248   1.949   0.137   8.307  0.0453 -0.0697  0.0391
 5230TIP3    H137249   1.920   0.183   8.228  0.3513  0.9537  0.5097
 5230TIP3    H237250   1.967   0.207   8.370  0.4504 -0.8446  0.7960
 5231TIP3   OH237251   6.182   0.282   7.670  0.6583  0.5940 -0.8986
 5231TIP3    H137252   6.257   0.293   7.728  0.0310  0.4354 -0.0232
 5231TIP3    H237253   6.121   0.228   7.721 -0.4955  1.6007 -1.1646
 5232TIP3   OH237254   6.116   1.403   0.027 -0.4181  0.3879 -0.1917
 5232TIP3    H137255   6.164   1.401  -0.055 -0.4843 -0.5302 -0.2215
 5232TIP3    H237256   6.180   1.377   0.093 -0.6590 -0.0421 -0.1222
 5233TIP3   OH237257   2.303   6.668   0.227 -0.4245  0.2951 -0.2037
 5233TIP3    H137258   2.339   6.661   0.316  0.1494 -0.8750 -0.5035
 5233TIP3    H237259   2.380   6.682   0.171 -0.7261  0.4840 -0.5800
 5234TIP3   OH237260   5.314   4.699   2.567  0.1528 -0.0885  0.3383
 5234TIP3    H137261   5.268   4.653   2.497 -2.0616  0.5810  1.2802
 5234TIP3    H237262   5.349   4.629   2.622 -0.5171 -0.6315  0.0822
 5235TIP3   OH237263   0.776   5.972   7.827 -0.8320  0.1192 -0.1452
 5235TIP3    H137264   0.726   5.892   7.808 -1.6863  0.3748  0.9407
 5235TIP3    H237265   0.710   6.039   7.843 -0.1574  1.4794 -2.5465
 5236TIP3   OH237266   5.024   1.536   7.218  0.0935  0.0179 -0.4682
 5236TIP3    H137267   5.111   1.569   7.196  0.2634 -0.5339 -0.6392
 5236TIP3    H237268   4.977   1.536   7.134 -0.1621  0.5650 -0.3322
 5237TIP3   OH237269   1.121   3.600   6.645  0.3579 -0.6966  0.3146
 5237TIP3    H137270   1.058   3.666   6.617  0.5490  0.9439  3.3331
 5237TIP3    H237271   1.084   3.517   6.615 -2.0388  0.4225 -0.0394
 5238TIP3   OH237272   0.058   4.902   6.277 -0.2499 -0.1013 -0.0067
 5238TIP3    H137273   0.143   4.875   6.310 -0.4958 -1.6038 -0.5361
 5238TIP3    H237274   0.078   4.957   6.201  0.2736  2.0446  1.5717
 5239TIP3   OH237275   4.997   1.280   1.704  0.9401  0.1648 -0.3235
 5239TIP3    H137276   4.914   1.318   1.674  0.1512 -0.3280  1.1270
 5239TIP3    H237277   5.018   1.327   1.784  1.4108 -0.5482 -0.0118
 5240TIP3   OH237278   0.508   6.308   1.643  0.7298 -0.1126 -0.5551
 5240TIP3    H137279   0.499   6.267   1.729  1.2001 -0.7695 -0.8078
 5240TIP3    H237280   0.481   6.399   1.657  2.1120  0.1628  0.6025
 5241TIP3   OH237281   0.876   2.352   1.348  0.0074  0.8463 -0.0717
 5241TIP3    H137282   0.781   2.359   1.333 -0.0409 -0.7900 -0.7734
 5241TIP3    H237283   0.887   2.374   1.440 -1.3284 -0.6720  0.5074
 5242TIP3   OH237284   6.073   0.455   0.787 -0.0641  0.1244  0.0473
 5242TIP3    H137285   6.007   0.391   0.761 -0.1167  0.8449 -1.7764
 5242TIP3    H237286   6.149   0.434   0.733  0.6411  0.3053  0.9492
 5243TIP3   OH237287   6.847   2.459   8.285  0.0901 -0.1442  0.1317
 5243TIP3    H137288   6.841   2.523   8.214 -0.7761  0.5661  0.8294
 5243TIP3    H237289   6.760   2.419   8.289  0.2290 -0.4159  0.5871
 5244TIP3   OH237290   6.595   5.352   0.410 -0.0754  0.4169 -0.6489
 5244TIP3    H137291   6.670   5.388   0.363 -2.2205  1.8519 -3.2829
 5244TIP3    H237292   6.561   5.426   0.462  0.9100 -0.5410  1.5039
 5245TIP3   OH237293   6.665   3.435   0.635  0.3894  0.3371 -0.4177
 5245TIP3    H137294   6.703   3.347   0.630  2.5688  1.1456  0.5173
 5245TIP3    H237295   6.665   3.455   0.729  1.1414  1.7912 -0.6992
 5246TIP3   OH237296   6.294   5.336   2.620  0.1733  0.2068 -0.0948
 5246TIP3    H137297   6.227   5.345   2.688  0.3510 -0.1863  0.1314
 5246TIP3    H237298   6.245   5.320   2.540 -0.0584  1.0512 -0.1342
 5247TIP3   OH237299   6.642   1.996   1.209 -0.0271  0.0658  0.3021
 5247TIP3    H137300   6.611   1.907   1.193 -1.5950  0.6250  0.0325
 5247TIP3    H237301   6.566   2.042   1.244  0.0603  1.8888 -1.7035
 5248TIP3   OH237302   3.418   0.130   8.090 -0.1872 -0.2857  0.5273
 5248TIP3    H137303   3.483   0.159   8.026 -0.2791  1.0610  1.0247
 5248TIP3    H237304   3.427   0.034   8.090  0.7231 -0.2297 -0.5274
 5249TIP3   OH237305   3.941   2.839   8.330 -0.2490  0.2078  0.4978
 5249TIP3    H137306   3.932   2.885   8.246  2.0507 -0.9918 -0.5162
 5249TIP3    H237307   3.953   2.909   8.394 -2.0515  1.1485 -0.1197
 5250TIP3   OH237308   3.469   2.650   0.341  0.1356 -0.2591  0.2751
 5250TIP3    H137309   3.394   2.604   0.380 -0.6271 -0.2822 -1.1324
 5250TIP3    H237310   3.444   2.661   0.249  1.3046  0.9304  0.0784
 5251TIP3   OH237311   5.470   5.489   0.098  0.0508 -0.0404 -0.3552
 5251TIP3    H137312   5.389   5.443   0.120  0.6947 -0.8320  0.4392
 5251TIP3    H237313   5.534   5.420   0.081  1.2995  0.4668  1.8349
 5252TIP3   OH237314   1.825   5.517   0.330  0.1039  0.1021  0.7214
 5252TIP3    H137315   1.832   5.558   0.416 -0.3800  0.1745  0.7317
 5252TIP3    H237316   1.912   5.527   0.291  0.8438 -1.4755  1.8824
 5253TIP3   OH237317   4.326   2.949   6.665  0.1166 -0.0416 -0.6011
 5253TIP3    H137318   4.340   2.857   6.643  1.1559 -0.0179 -0.0679
 5253TIP3    H237319   4.403   2.994   6.632  0.4194  0.3819  0.6281
 5254TIP3   OH237320   3.296   1.915   8.646  0.1039  0.0384  0.1493
 5254TIP3    H137321   3.306   1.906   8.741 -1.9533  0.9113  0.4966
 5254TIP3    H237322   3.312   2.008   8.630  2.0353 -0.3770 -0.6395
 5255TIP3   OH237323   1.163   2.620   1.858 -0.0552  0.7022 -0.2516
 5255TIP3    H137324   1.085   2.675   1.855  0.2858  1.3333  1.3140
 5255TIP3    H237325   1.236   2.683   1.864  0.6737  0.1564 -2.4567
 5256TIP3   OH237326   2.130   6.654   7.853  0.0717  0.1324 -0.1571
 5256TIP3    H137327   2.067   6.697   7.796 -0.1766  1.0079  0.7526
 5256TIP3    H237328   2.214   6.662   7.807 -0.4396 -0.9467 -1.3221
 5257TIP3   OH237329   1.144   1.216   0.023  0.4374  0.2993  0.3246
 5257TIP3    H137330   1.173   1.305   0.001 -0.0703  0.3563 -0.1259
 5257TIP3    H237331   1.198   1.159  -0.032 -0.1279  0.3954 -0.3434
 5258TIP3   OH237332   2.087   6.422   1.859  0.5564 -0.5860 -0.2732
 5258TIP3    H137333   2.078   6.459   1.771  0.6092 -0.4560 -0.2236
 5258TIP3    H237334   2.004   6.378   1.876 -0.1212  0.8686  0.3109
 5259TIP3   OH237335   3.099   3.241   7.178  0.5589 -0.2856 -0.0402
 5259TIP3    H137336   3.052   3.167   7.217 -3.5146  2.1991  0.3807
 5259TIP3    H237337   3.099   3.222   7.084  0.2269 -1.1864  0.1317
 5260TIP3   OH237338   6.759   6.084   7.548 -0.0789 -0.0467  0.7145
 5260TIP3    H137339   6.759   6.137   7.628 -0.6676  0.7032  0.2229
 5260TIP3    H237340   6.847   6.046   7.545 -0.0515 -0.1015  1.7250
 5261TIP3   OH237341   2.033   2.773   0.697  0.0569 -0.2578  0.6152
 5261TIP3    H137342   2.080   2.826   0.634 -0.4400  0.7845  1.0872
 5261TIP3    H237343   2.088   2.773   0.775 -0.0387 -0.2612  0.6841
 5262TIP3   OH237344   2.173   1.206   1.605 -0.4185 -0.4174  0.5157
 5262TIP3    H137345   2.232   1.180   1.675  0.4079 -1.1732 -0.4348
 5262TIP3    H237346   2.229   1.217   1.529 -1.5135 -1.2795 -0.4581
 5263TIP3   OH237347   3.669   6.059   8.062  0.2998  0.1409 -0.9174
 5263TIP3    H137348   3.635   5.975   8.092  0.4936  0.3857 -0.0043
 5263TIP3    H237349   3.714   6.038   7.980  1.0483 -0.7884 -0.2867
 5264TIP3   OH237350   1.775   1.053   6.073 -0.5954  0.6978 -0.0665
 5264TIP3    H137351   1.864   1.043   6.104 -0.1960 -0.4728 -1.4576
 5264TIP3    H237352   1.720   1.037   6.150  0.3624 -0.7170  0.3602
 5265TIP3   OH237353   5.484   2.607   0.892  0.6113 -0.0193 -0.2749
 5265TIP3    H137354   5.443   2.640   0.812 -0.8414  0.1971  0.5097
 5265TIP3    H237355   5.457   2.515   0.897 -1.5270  0.5815  1.2033
 5266TIP3   OH237356   3.757   6.794   0.722 -0.0762  0.3302 -0.0300
 5266TIP3    H137357   3.846   6.817   0.697 -0.0822  0.6344  0.2312
 5266TIP3    H237358   3.702   6.857   0.675 -0.0841  0.9645  0.8115
 5267TIP3   OH237359   6.614   6.071   2.400 -0.0849  0.1254 -0.4938
 5267TIP3    H137360   6.621   5.989   2.352 -1.3945  0.1964 -0.8354
 5267TIP3    H237361   6.585   6.135   2.335  2.0027  1.1555 -0.5094
 5268TIP3   OH237362   0.153   4.188   0.395  0.2626 -0.1381  0.2376
 5268TIP3    H137363   0.077   4.166   0.341 -0.0087 -1.2360  1.0180
 5268TIP3    H237364   0.169   4.109   0.446  2.0360  0.0276 -0.0122
 5269TIP3   OH237365   1.211   3.636   7.019 -0.5273 -0.9369 -0.2509
 5269TIP3    H137366   1.158   3.711   6.992  0.3639  0.3467  1.4042
 5269TIP3    H237367   1.155   3.560   7.002 -1.7771  0.1407 -1.1904
 5270TIP3   OH237368   3.634   5.549   6.373  0.4946 -0.1107  0.3995
 5270TIP3    H137369   3.547   5.557   6.413 -0.2182  1.2849 -1.2833
 5270TIP3    H237370   3.627   5.472   6.316  0.4136 -0.1351  0.4421
 5271TIP3   OH237371   6.827   4.076   0.971  0.0279  0.3106  0.1271
 5271TIP3    H137372   6.862   4.009   0.912 -1.8847 -0.6470  0.0182
 5271TIP3    H237373   6.798   4.146   0.914  2.5961  1.6242  0.2695
 5272TIP3   OH237374   0.219   2.578   1.482 -0.0368  0.5196 -0.0619
 5272TIP3    H137375   0.295   2.559   1.537  0.8282  3.0665 -0.2177
 5272TIP3    H237376   0.159   2.626   1.539 -1.8496 -1.8885  0.2024
 5273TIP3   OH237377   3.482   2.863   0.737  0.2600 -0.3056 -0.1690
 5273TIP3    H137378   3.445   2.951   0.741 -0.2862 -0.4540 -1.3852
 5273TIP3    H237379   3.451   2.820   0.817  0.4373  0.5582  0.3810
 5274TIP3   OH237380   2.425   4.569   7.671 -0.3896 -0.1450 -0.1681
 5274TIP3    H137381   2.344   4.617   7.686 -1.1129 -1.2789 -0.3591
 5274TIP3    H237382   2.405   4.512   7.597  0.3280 -1.0301  0.3105
 5275TIP3   OH237383   3.549   5.345   6.201  0.0950 -1.0561  0.0211
 5275TIP3    H137384   3.519   5.303   6.121 -0.5834 -1.6296  0.5627
 5275TIP3    H237385   3.493   5.308   6.270  1.6767 -1.7733  0.9935
 5276TIP3   OH237386   2.686   6.111   1.704 -0.0646 -0.2395  0.1136
 5276TIP3    H137387   2.609   6.161   1.732  0.9064  1.2362  0.2674
 5276TIP3    H237388   2.759   6.169   1.721  0.9079 -0.7238 -2.0995
 5277TIP3   OH237389   6.732   4.835   8.530 -0.1594 -0.5115 -0.2121
 5277TIP3    H137390   6.794   4.896   8.489 -0.2770  0.7584  1.3746
 5277TIP3    H237391   6.786   4.763   8.561  0.3263 -0.1188 -0.1307
 5278TIP3   OH237392   4.902   5.082   8.053  0.2817 -0.0823  0.0467
 5278TIP3    H137393   4.846   5.007   8.033 -1.5845  0.4124  2.7703
 5278TIP3    H237394   4.900   5.136   7.975 -3.7787  0.2563  0.1800
 5279TIP3   OH237395   2.472   6.414   2.486 -0.1371  0.2529  0.0605
 5279TIP3    H137396   2.464   6.510   2.483  2.3843  0.5843  1.4772
 5279TIP3    H237397   2.392   6.385   2.530 -0.5160  1.8195  0.4765
 5280TIP3   OH237398   4.000   3.178   7.589 -0.4866 -0.0912  0.1344
 5280TIP3    H137399   3.986   3.137   7.504 -1.9749  1.2491 -0.3163
 5280TIP3    H237400   3.921   3.157   7.639 -1.0224  1.6184  0.0962
 5281TIP3   OH237401   1.217   4.161   2.615 -0.4110  0.3864  0.4802
 5281TIP3    H137402   1.211   4.254   2.596 -0.8399  0.2257 -0.2001
 5281TIP3    H237403   1.288   4.129   2.560 -1.8616 -0.1386 -1.1770
 5282TIP3   OH237404   4.651   6.214   7.267 -0.0221  0.1014  0.3712
 5282TIP3    H137405   4.699   6.291   7.297  3.3659 -1.3203 -0.9124
 5282TIP3    H237406   4.562   6.226   7.301  0.6217  3.9784  1.1285
 5283TIP3   OH237407   0.431   4.969   0.564 -0.3273  0.2529 -0.4963
 5283TIP3    H137408   0.519   4.939   0.543 -0.6822 -0.5821 -0.8294
 5283TIP3    H237409   0.374   4.898   0.536 -1.0342  0.3268  0.6918
 5284TIP3   OH237410   5.324   0.549   6.977 -0.0977  0.4730  0.1906
 5284TIP3    H137411   5.390   0.599   6.931 -0.4103  0.7155 -0.0009
 5284TIP3    H237412   5.290   0.487   6.912 -0.1184  0.4078  0.2630
 5285TIP3   OH237413   1.729   2.529   7.343 -0.3523 -0.5227  0.5095
 5285TIP3    H137414   1.661   2.496   7.284  0.3181 -1.1260  0.0493
 5285TIP3    H237415   1.764   2.450   7.386 -0.0014 -0.2156  0.7939
 5286TIP3   OH237416   6.779   3.620   6.833  0.1821  0.5299 -0.6517
 5286TIP3    H137417   6.804   3.550   6.772  1.7200  0.5270 -0.0520
 5286TIP3    H237418   6.793   3.701   6.784 -2.1639  0.4717 -1.5558
 5287TIP3   OH237419   5.570   2.809   1.384  0.5302  0.0963 -0.0195
 5287TIP3    H137420   5.559   2.805   1.479  0.0177  2.0553  0.0365
 5287TIP3    H237421   5.494   2.859   1.353  1.1413  0.2399 -1.3703
 5288TIP3   OH237422   6.826   3.931   0.719 -0.2714 -0.6105  0.6216
 5288TIP3    H137423   6.827   4.003   0.656 -0.1862 -1.1005  0.0522
 5288TIP3    H237424   6.745   3.884   0.700 -0.1113 -0.9191  0.7022
 5289TIP3   OH237425   0.057   0.708   6.634  0.0930 -0.2842  0.4002
 5289TIP3    H137426   0.078   0.729   6.543  0.5425  1.5312  0.8828
 5289TIP3    H237427  -0.009   0.638   6.628 -0.1602  0.0552 -1.3090
 5290TIP3   OH237428   2.812   2.514   7.231  0.3260  0.4564  0.0464
 5290TIP3    H137429   2.878   2.446   7.238 -0.5134 -0.1977  2.3039
 5290TIP3    H237430   2.807   2.553   7.318 -2.2560  0.4456 -0.0110
 5291TIP3   OH237431   0.616   3.435   7.282 -0.6597  0.0024 -0.2074
 5291TIP3    H137432   0.531   3.414   7.242 -0.0497 -1.3391 -0.8662
 5291TIP3    H237433   0.641   3.355   7.328 -0.6519  1.0434  1.6811
 5292TIP3   OH237434   4.307   2.831   7.750  0.1922  0.1892  0.6072
 5292TIP3    H137435   4.343   2.747   7.779  0.2077 -0.5900 -1.4723
 5292TIP3    H237436   4.375   2.867   7.693 -1.0267  0.1529 -0.9241
 5293TIP3   OH237437   5.248   5.216   1.909 -0.1144  0.2353  0.1681
 5293TIP3    H137438   5.305   5.274   1.960 -1.2612  1.8308 -0.2928
 5293TIP3    H237439   5.305   5.144   1.883  1.3341  1.0572  0.9128
 5294TIP3   OH237440   0.419   2.485   1.734  0.7851 -0.5933 -0.1419
 5294TIP3    H137441   0.464   2.533   1.804 -0.6654  1.5873 -0.6079
 5294TIP3    H237442   0.346   2.442   1.777 -0.4939  1.2841 -0.3503
 5295TIP3   OH237443   1.123   3.312   1.687 -0.2426  0.5360 -0.0566
 5295TIP3    H137444   1.117   3.223   1.721  1.1906  0.6208  0.4812
 5295TIP3    H237445   1.200   3.311   1.629 -1.5509  0.8645 -1.9033
 5296TIP3   OH237446   0.141   0.812   6.368  0.4050 -0.0373 -0.5279
 5296TIP3    H137447   0.121   0.898   6.331 -0.3456  0.3330  0.7054
 5296TIP3    H237448   0.234   0.800   6.350  0.6773  1.3277 -0.1194
 5297TIP3   OH237449   5.403   5.010   8.134 -0.2061  0.4017 -0.1013
 5297TIP3    H137450   5.400   4.923   8.173  0.3830 -0.0990 -1.1308
 5297TIP3    H237451   5.487   5.046   8.161  0.2910 -0.0233 -1.0266
 5298TIP3   OH237452   1.808   6.684   1.158  0.1443  0.0907  0.1525
 5298TIP3    H137453   1.745   6.681   1.230  0.1124  2.0773  0.2578
 5298TIP3    H237454   1.781   6.760   1.106  2.0520  0.5848 -0.1735
 5299TIP3   OH237455   4.916   2.775   0.816  0.2098  0.2502  0.4025
 5299TIP3    H137456   4.867   2.721   0.877  1.7826 -0.3602  1.1658
 5299TIP3    H237457   4.875   2.861   0.822 -1.7551 -0.6026 -0.1742
 5300TIP3   OH237458   3.647   2.375   0.511  0.4559 -0.0317  0.1910
 5300TIP3    H137459   3.600   2.411   0.586 -0.7239 -0.1386 -0.4817
 5300TIP3    H237460   3.580   2.332   0.458  1.3150 -0.2473 -0.7598
 5301TIP3   OH237461   2.139   3.955   7.765  0.6748 -0.2394 -0.4629
 5301TIP3    H137462   2.105   3.869   7.787 -1.0764  0.6456  0.4887
 5301TIP3    H237463   2.203   3.974   7.834 -1.2964  0.5114  1.2707
 5302TIP3   OH237464   3.508   2.105   7.118 -0.1477 -0.3346  0.0092
 5302TIP3    H137465   3.520   2.130   7.027 -0.3531  0.6041  0.2280
 5302TIP3    H237466   3.571   2.035   7.133  0.3528 -0.0339 -0.6680
 5303TIP3   OH237467   5.765   6.013   2.523  0.3467  0.7893  0.3808
 5303TIP3    H137468   5.744   5.953   2.452  1.0372 -0.7103  1.3874
 5303TIP3    H237469   5.859   6.005   2.536  0.7550  3.2877 -0.4467
 5304TIP3   OH237470   4.663   6.566   7.183  0.2348  0.0478 -0.1619
 5304TIP3    H137471   4.720   6.637   7.213 -0.9289  1.8437 -1.9809
 5304TIP3    H237472   4.614   6.540   7.261  0.9925  0.9260  0.6257
 5305TIP3   OH237473   2.536   5.154   0.049 -0.2170 -0.5383 -0.3077
 5305TIP3    H137474   2.499   5.118  -0.032 -2.6944 -0.4863  0.7045
 5305TIP3    H237475   2.570   5.240   0.024 -0.3892 -0.7705 -1.4062
 5306TIP3   OH237476   1.782   6.580   8.390  0.1667  0.3766  0.5182
 5306TIP3    H137477   1.812   6.664   8.424  1.7564 -0.3539  1.0378
 5306TIP3    H237478   1.696   6.567   8.429 -0.3163  1.9501  0.0568
 5307TIP3   OH237479   6.778   5.723   0.163  0.4508 -0.8357  0.4274
 5307TIP3    H137480   6.833   5.704   0.087  1.7405 -1.6259  1.5079
 5307TIP3    H237481   6.736   5.639   0.184 -2.8648  0.1188 -1.5405
 5308TIP3   OH237482   3.416   5.637   8.558 -0.0909  0.4600  0.2161
 5308TIP3    H137483   3.368   5.623   8.640  2.2128 -0.6721  1.4788
 5308TIP3    H237484   3.392   5.563   8.503 -2.2903  1.6551 -0.5462
 5309TIP3   OH237485   2.638   5.245   7.931 -0.2078  0.0943  0.3383
 5309TIP3    H137486   2.661   5.302   8.004 -1.1948  1.1195 -0.1179
 5309TIP3    H237487   2.575   5.295   7.880  0.7687 -0.3947 -1.4698
 5310TIP3   OH237488   6.714   0.482   0.246 -0.2988 -0.2224 -0.7355
 5310TIP3    H137489   6.638   0.455   0.298  0.3150 -2.6453 -1.0053
 5310TIP3    H237490   6.785   0.425   0.276  1.4092  1.8155 -0.6552
 5311TIP3   OH237491   5.194   2.693   7.494 -0.3387 -0.2644 -0.1220
 5311TIP3    H137492   5.148   2.688   7.578  0.7290  0.1267  0.5154
 5311TIP3    H237493   5.218   2.602   7.475 -0.6977 -0.3709 -0.0652
 5312TIP3   OH237494   0.935   1.094   1.550  0.2046  0.0659 -0.5332
 5312TIP3    H137495   0.989   1.172   1.547  0.0530  0.1888 -0.1278
 5312TIP3    H237496   0.947   1.060   1.639 -2.1397  1.3710  0.3741
 5313TIP3   OH237497   0.850   0.430   8.547  0.1774  0.4109  0.1741
 5313TIP3    H137498   0.900   0.358   8.509  1.5292  1.5728 -0.3484
 5313TIP3    H237499   0.795   0.461   8.474 -0.0332  0.2408  0.2584
 5314TIP3   OH237500   2.323   3.814   1.591 -0.1128  0.2974 -0.3849
 5314TIP3    H137501   2.361   3.795   1.676  1.4250  0.0985 -1.0854
 5314TIP3    H237502   2.309   3.728   1.551 -0.0040  0.4157 -0.6815
 5315TIP3   OH237503   2.329   3.321   7.138 -0.3172  0.4479  0.4911
 5315TIP3    H137504   2.361   3.335   7.227 -1.0060  0.6673  0.7046
 5315TIP3    H237505   2.282   3.401   7.116 -0.9714  0.0124  0.2869
 5316TIP3   OH237506   3.032   3.659   6.370 -0.7296  0.4191 -0.0093
 5316TIP3    H137507   3.127   3.650   6.374 -0.7410 -0.0894 -0.6303
 5316TIP3    H237508   3.000   3.568   6.373 -1.1327  0.5177 -0.9960
 5317TIP3   OH237509   1.831   2.028   8.312 -0.1462  0.9911  0.0325
 5317TIP3    H137510   1.761   2.092   8.326 -2.2636 -1.2041  0.0837
 5317TIP3    H237511   1.905   2.062   8.362 -0.9855  3.6357 -0.3833
 5318TIP3   OH237512   0.619   3.974   6.864 -0.4056  0.4726  0.4146
 5318TIP3    H137513   0.673   3.991   6.787  0.1163 -0.8919  0.4683
 5318TIP3    H237514   0.533   3.950   6.828  0.2691 -1.7433  0.1628
 5319TIP3   OH237515   0.155   1.925   7.698 -0.2079  0.6717 -0.0652
 5319TIP3    H137516   0.228   1.985   7.682  1.4950 -0.5197  2.5240
 5319TIP3    H237517   0.125   1.947   7.786 -0.0928 -1.6355  0.6259
 5320TIP3   OH237518   5.582   6.661   7.855  0.0600 -0.1295  0.3066
 5320TIP3    H137519   5.558   6.751   7.878 -0.0072  0.5415 -2.1048
 5320TIP3    H237520   5.678   6.663   7.848  0.0312 -0.1247 -0.1313
 5321TIP3   OH237521   5.312   3.512   1.733 -0.0967  0.3185 -0.2254
 5321TIP3    H137522   5.223   3.485   1.754 -0.0691  0.5600  0.2045
 5321TIP3    H237523   5.366   3.470   1.800  0.0538  0.6138 -0.1623
 5322TIP3   OH237524   3.030   5.704   8.647  0.1699 -0.2016 -0.1074
 5322TIP3    H137525   3.039   5.672   8.557  1.5549  0.2230 -0.1413
 5322TIP3    H237526   2.937   5.693   8.667 -0.2168 -0.0321 -1.6871
 5323TIP3   OH237527   5.971   1.523   7.564 -1.4780 -0.5786  0.4303
 5323TIP3    H137528   5.932   1.550   7.647 -2.1063 -0.8894  0.2411
 5323TIP3    H237529   6.057   1.564   7.563 -0.7331 -1.9976  2.0412
 5324TIP3   OH237530   3.540   2.064   0.984 -0.4261 -0.1242 -0.0057
 5324TIP3    H137531   3.465   2.123   0.991 -1.3160 -1.0512 -1.1938
 5324TIP3    H237532   3.523   1.995   1.048 -0.8529 -0.5740 -0.5838
 5325TIP3   OH237533   4.397   6.753   6.946  0.2480 -0.4036  0.5295
 5325TIP3    H137534   4.361   6.722   7.029  0.2824 -1.1157  0.2835
 5325TIP3    H237535   4.362   6.693   6.881  0.1560  0.2021  0.0109
 5326TIP3   OH237536   3.433   0.527   7.657 -0.4657  0.1848 -1.1568
 5326TIP3    H137537   3.461   0.612   7.624  0.9532  0.1008 -0.2359
 5326TIP3    H237538   3.375   0.548   7.730  0.8925  0.4114 -0.0974
 5327TIP3   OH237539   0.339   6.057   1.448 -0.3679  0.0804  0.1484
 5327TIP3    H137540   0.427   6.031   1.474 -0.1164  1.0533  0.3059
 5327TIP3    H237541   0.281   6.001   1.500  0.1244  1.5987  2.4702
 5328TIP3   OH237542   6.455   0.867   0.710 -0.1684  0.1511  0.3132
 5328TIP3    H137543   6.488   0.944   0.663 -2.0890  2.0694  1.8526
 5328TIP3    H237544   6.371   0.848   0.668 -0.0513 -0.6314  0.4277
 5329TIP3   OH237545   3.342   5.905   8.481 -0.5003 -0.3935  0.0251
 5329TIP3    H137546   3.281   5.917   8.409  0.9116 -2.3138 -1.6169
 5329TIP3    H237547   3.353   5.810   8.487  0.3439 -0.2232  2.0079
 5330TIP3   OH237548   3.394   2.132   7.691  0.0499 -0.5041  0.0875
 5330TIP3    H137549   3.377   2.216   7.649 -2.3850 -2.4697 -3.3376
 5330TIP3    H237550   3.308   2.095   7.708  1.0290 -2.5791  0.9220
 5331TIP3   OH237551   4.990   0.150   7.841 -0.3855 -0.2286  0.1410
 5331TIP3    H137552   4.942   0.203   7.778  0.1906  1.2811  0.9411
 5331TIP3    H237553   5.070   0.199   7.859  0.1758 -1.3688  0.9081
 5332TIP3   OH237554   4.210   2.908   7.476 -0.6587 -0.1022  0.6709
 5332TIP3    H137555   4.304   2.926   7.480 -0.8526  1.1289  0.0656
 5332TIP3    H237556   4.187   2.880   7.565  0.0220  0.9341  1.1974
 5333TIP3   OH237557   4.045   1.031   6.062  0.0711  0.5219 -0.1238
 5333TIP3    H137558   3.953   1.040   6.086 -0.4094  1.7190 -2.1885
 5333TIP3    H237559   4.089   1.104   6.105 -0.6526  2.2262 -2.1372
 5334TIP3   OH237560   6.740   5.230   1.782 -0.2390  0.7629  0.2092
 5334TIP3    H137561   6.704   5.256   1.697 -0.9091 -1.3923 -0.2310
 5334TIP3    H237562   6.666   5.239   1.843 -0.5319 -0.2391  0.0150
 5335TIP3   OH237563   3.137   1.627   7.183  0.9163  0.3388 -0.4883
 5335TIP3    H137564   3.130   1.555   7.120 -0.1909 -0.0420  0.0505
 5335TIP3    H237565   3.164   1.585   7.265 -1.9809  0.1136  0.4659
 5336TIP3   OH237566   2.242   1.883   1.869  0.3502  0.0585  0.4471
 5336TIP3    H137567   2.147   1.876   1.860  0.4175 -0.4496  0.0855
 5336TIP3    H237568   2.259   1.977   1.866 -0.1812  0.1774  0.9687
 5337TIP3   OH237569   6.229   2.118   0.811 -0.2223 -0.3135 -0.3327
 5337TIP3    H137570   6.282   2.039   0.803 -1.0484 -0.8159 -1.0747
 5337TIP3    H237571   6.290   2.185   0.841  0.9002 -0.8059 -1.4306
 5338TIP3   OH237572   4.768   3.198   7.656 -0.7262  0.3007 -0.0903
 5338TIP3    H137573   4.721   3.270   7.614 -3.0857 -1.0335  0.0215
 5338TIP3    H237574   4.710   3.171   7.728  0.5873 -0.9950  0.5327
 5339TIP3   OH237575   4.558   3.113   6.642 -0.2577  0.2073  0.0080
 5339TIP3    H137576   4.606   3.086   6.563 -3.6514  0.8060 -2.4592
 5339TIP3    H237577   4.601   3.194   6.670  2.8951 -1.5394  0.7425
 5340TIP3   OH237578   4.453   4.513   2.028  0.2035 -0.0396  0.1916
 5340TIP3    H137579   4.371   4.539   2.069  0.2817 -0.5266  0.6742
 5340TIP3    H237580   4.470   4.425   2.062 -0.4366 -1.0363 -1.9216
 5341TIP3   OH237581   1.793   1.366   8.535 -0.5622  0.4231  0.0604
 5341TIP3    H137582   1.786   1.455   8.500  0.7656 -0.0889 -1.6774
 5341TIP3    H237583   1.881   1.361   8.571 -0.3890 -0.3548 -0.4338
 5342TIP3   OH237584   2.324   2.782   8.565 -0.0793 -0.1274  0.0924
 5342TIP3    H137585   2.277   2.709   8.606  0.2292 -0.2123  0.3053
 5342TIP3    H237586   2.414   2.750   8.556  0.0379  0.1960  0.1080
 5343TIP3   OH237587   6.472   6.569   1.103  0.3514 -0.2622 -0.6457
 5343TIP3    H137588   6.475   6.630   1.177  1.8410  0.6066 -1.3880
 5343TIP3    H237589   6.537   6.502   1.124 -0.4673 -0.9898 -0.3729
 5344TIP3   OH237590   2.597   6.070   2.026  0.3024 -0.0977  1.0458
 5344TIP3    H137591   2.597   6.145   1.967 -0.1197 -0.1670  0.9549
 5344TIP3    H237592   2.687   6.063   2.056  0.5923 -0.2462  0.1695
 5345TIP3   OH237593   1.612   6.084   0.943 -0.1684 -0.2641  0.1596
 5345TIP3    H137594   1.564   6.061   1.023 -1.8058 -1.2400 -1.0373
 5345TIP3    H237595   1.561   6.155   0.905 -0.0739 -0.6054 -0.6069
 5346TIP3   OH237596   4.709   3.115   1.456  0.0042  0.6039  0.5276
 5346TIP3    H137597   4.658   3.084   1.531  0.9304 -0.3644  0.8032
 5346TIP3    H237598   4.654   3.098   1.380  0.2266 -1.2587  0.7314
 5347TIP3   OH237599   5.998   5.822   7.163  0.5255  0.0230  0.0843
 5347TIP3    H137600   5.979   5.734   7.130  3.8549 -0.8331  0.1174
 5347TIP3    H237601   5.976   5.880   7.090  1.8739 -1.2383 -1.3980
 5348TIP3   OH237602   3.024   2.743   2.220 -0.8835 -0.7177  0.2206
 5348TIP3    H137603   3.086   2.670   2.213  1.3455  1.0479  0.5046
 5348TIP3    H237604   3.043   2.782   2.305 -1.0987  0.9859 -0.4859
 5349TIP3   OH237605   3.085   0.153   1.305 -0.3066  0.0390 -0.4263
 5349TIP3    H137606   3.138   0.106   1.240  0.2685 -0.0442  0.0920
 5349TIP3    H237607   3.104   0.245   1.290 -0.7605  0.0627 -0.8708
 5350TIP3   OH237608   3.770   6.332   0.675  0.0353 -0.2732 -0.3691
 5350TIP3    H137609   3.747   6.416   0.635  0.1272  0.1452  0.4493
 5350TIP3    H237610   3.686   6.292   0.697  0.0109 -0.1063 -0.1615
 5351TIP3   OH237611   1.166   4.616   0.687 -0.5445 -0.4587 -0.1883
 5351TIP3    H137612   1.090   4.666   0.658 -1.1350 -0.2731  1.5519
 5351TIP3    H237613   1.216   4.600   0.607 -1.7344  0.5437 -1.1813
 5352TIP3   OH237614   3.431   3.802   1.347  0.1334  0.0786 -0.4609
 5352TIP3    H137615   3.496   3.732   1.342 -0.3536 -0.5580  1.2503
 5352TIP3    H237616   3.478   3.874   1.390 -0.8291 -1.2730  3.2936
 5353TIP3   OH237617   2.501   1.194   1.347 -0.4754 -0.0377  0.2773
 5353TIP3    H137618   2.428   1.138   1.320 -0.1228 -0.6321  0.5380
 5353TIP3    H237619   2.572   1.133   1.365  0.6764  0.5955 -1.7351
 5354TIP3   OH237620   0.582   6.887   8.442 -0.2158  0.2489  0.2453
 5354TIP3    H137621   0.549   6.965   8.485 -1.0888  0.5731 -0.9719
 5354TIP3    H237622   0.504   6.838   8.416  0.3129 -0.8085  0.5747
 5355TIP3   OH237623   1.593   3.656   7.018 -0.2662  0.2569 -1.0681
 5355TIP3    H137624   1.655   3.726   6.999  1.1094 -0.5853  0.0720
 5355TIP3    H237625   1.638   3.576   6.990  0.3927 -0.6528  2.1404
 5356TIP3   OH237626   5.098   5.558   1.100 -0.0677  0.5874 -0.3120
 5356TIP3    H137627   5.165   5.521   1.042 -1.1552  1.4019 -2.1991
 5356TIP3    H237628   5.134   5.547   1.188  1.4680 -1.1345 -1.0726
 5357TIP3   OH237629   0.716   4.195   0.651 -0.1238 -0.3961 -0.0695
 5357TIP3    H137630   0.734   4.104   0.675  1.1643 -0.5718 -1.5123
 5357TIP3    H237631   0.794   4.222   0.602 -0.8806  1.1935 -0.4487
 5358TIP3   OH237632   6.834   2.741   7.887  0.6224 -0.4764  0.3980
 5358TIP3    H137633   6.896   2.794   7.936  0.4191  0.2999 -0.1541
 5358TIP3    H237634   6.888   2.683   7.834  0.9046  0.4703 -0.3783
 5359TIP3   OH237635   2.608   0.109   6.880  0.1087 -0.0264  0.6943
 5359TIP3    H137636   2.644   0.045   6.820 -0.5047 -0.9116  1.2518
 5359TIP3    H237637   2.554   0.166   6.825 -0.9766 -1.2160  0.4724
 5360TIP3   OH237638   4.000   1.413   1.304  0.2605 -0.4685  0.0680
 5360TIP3    H137639   3.946   1.447   1.375 -1.1592  0.5693 -1.4498
 5360TIP3    H237640   4.042   1.335   1.341  0.7855  0.8848  2.5156
 5361TIP3   OH237641   3.650   5.135   0.304 -0.3590  0.2094  0.0226
 5361TIP3    H137642   3.604   5.083   0.371 -0.7642  0.2516 -0.2186
 5361TIP3    H237643   3.693   5.205   0.354 -2.9138  1.9267  0.0634
 5362TIP3   OH237644   1.895   0.787   8.289 -0.2546 -0.2297 -0.3647
 5362TIP3    H137645   1.861   0.857   8.233 -0.9560  1.9685  2.5582
 5362TIP3    H237646   1.989   0.785   8.269 -0.4437  0.5868 -1.4730
 5363TIP3   OH237647   6.344   3.015   0.275  0.3731  0.4608  0.6578
 5363TIP3    H137648   6.272   2.991   0.334 -0.9615  2.2663 -0.1767
 5363TIP3    H237649   6.397   2.935   0.270 -0.9413 -0.5811  2.1600
 5364TIP3   OH237650   3.874   3.308   8.255 -0.5286  1.1488  0.7250
 5364TIP3    H137651   3.930   3.384   8.237 -1.0303  1.4429  0.3903
 5364TIP3    H237652   3.825   3.332   8.333 -2.3278  2.1099 -0.6377
 5365TIP3   OH237653   6.619   4.508   6.777  0.0578 -0.0601 -0.6093
 5365TIP3    H137654   6.549   4.560   6.818 -1.0437 -0.6588 -1.6699
 5365TIP3    H237655   6.690   4.571   6.763 -0.0154  0.4321  1.0185
 5366TIP3   OH237656   4.554   1.219   1.694  0.5289  0.1566 -0.1080
 5366TIP3    H137657   4.536   1.307   1.661 -1.0404 -0.6060 -1.4666
 5366TIP3    H237658   4.467   1.178   1.700  1.2349 -1.3265  0.4078
 5367TIP3   OH237659   5.288   6.830   6.969 -0.3180  0.6336 -0.3345
 5367TIP3    H137660   5.346   6.882   7.024  0.2933 -0.1399 -0.2167
 5367TIP3    H237661   5.232   6.894   6.926 -1.8395  1.1890  2.2686
 5368TIP3   OH237662   2.863   4.629   0.802  0.4317 -0.2926  0.4049
 5368TIP3    H137663   2.921   4.562   0.838 -1.0857 -1.6710  0.4031
 5368TIP3    H237664   2.904   4.655   0.719  0.9281 -1.3998  0.2895
 5369TIP3   OH237665   6.225   5.520   8.539 -0.2618  0.4548 -0.5729
 5369TIP3    H137666   6.280   5.572   8.480  0.3020 -2.1569 -2.5336
 5369TIP3    H237667   6.147   5.500   8.487  0.7954 -2.9507 -1.0882
 5370TIP3   OH237668   5.972   6.885   6.505 -0.2697 -0.0577 -0.1110
 5370TIP3    H137669   5.999   6.794   6.492 -0.9811 -0.2874 -0.0478
 5370TIP3    H237670   6.035   6.936   6.455  0.5666 -0.5343  0.4322
 5371TIP3   OH237671   2.922   2.602   1.054  0.3224  0.5146  0.0238
 5371TIP3    H137672   2.938   2.614   0.960  0.0686  2.2868  0.1726
 5371TIP3    H237673   2.972   2.523   1.077  1.5366  0.8431 -1.3186
 5372TIP3   OH237674   4.571   3.008   1.683  0.9438  0.0015 -0.4626
 5372TIP3    H137675   4.566   3.066   1.759  1.4618  0.4596 -0.7741
 5372TIP3    H237676   4.591   2.922   1.720  0.4585  0.0715 -0.0234
 5373TIP3   OH237677   1.526   1.740   8.028 -0.4211 -0.1306 -0.5609
 5373TIP3    H137678   1.552   1.794   7.953  0.2496 -0.3414 -0.4842
 5373TIP3    H237679   1.591   1.669   8.031 -0.7432 -0.4118 -0.0943
 5374TIP3   OH237680   5.613   6.294   8.649  0.6700  0.2968  0.2513
 5374TIP3    H137681   5.693   6.340   8.676 -0.2429  2.3744 -0.3332
 5374TIP3    H237682   5.592   6.238   8.724  0.9987  2.0701  1.7607
 5375TIP3   OH237683   4.158   1.135   6.944  0.0977  0.1687  0.0056
 5375TIP3    H137684   4.249   1.134   6.974 -0.0871  0.1304  0.5737
 5375TIP3    H237685   4.112   1.078   7.006 -0.0554 -0.9852 -1.1203
 5376TIP3   OH237686   6.075   5.318   0.456  0.1570  0.6919  0.1689
 5376TIP3    H137687   6.079   5.239   0.401  0.1265  1.7584 -1.4337
 5376TIP3    H237688   6.150   5.310   0.515 -0.2219 -0.8401  0.4982
 5377TIP3   OH237689   0.313   2.126   7.587  0.2405  0.3817  0.3500
 5377TIP3    H137690   0.403   2.150   7.611  1.1320  0.0746 -2.3977
 5377TIP3    H237691   0.277   2.205   7.547  0.0325 -0.1422 -0.5050
 5378TIP3   OH237692   5.424   6.708   8.135  0.1834  0.4767  0.1184
 5378TIP3    H137693   5.468   6.760   8.203  2.2919 -1.6567  0.5288
 5378TIP3    H237694   5.471   6.624   8.135 -2.2520 -1.0072 -1.3330
 5379TIP3   OH237695   1.793   6.507   1.514  0.1399  0.1624 -0.1227
 5379TIP3    H137696   1.715   6.457   1.538  0.6044  0.0755  1.3124
 5379TIP3    H237697   1.808   6.565   1.589  0.2298  1.7308 -1.2940
 5380TIP3   OH237698   2.252   4.688   0.720  0.4539  0.5220 -0.2184
 5380TIP3    H137699   2.337   4.703   0.762  0.9194  1.9598 -1.5764
 5380TIP3    H237700   2.258   4.600   0.685  1.6442  0.8295 -0.8344
 5381TIP3   OH237701   3.391   0.293   1.254 -0.8164 -0.1204 -0.1451
 5381TIP3    H137702   3.462   0.236   1.225 -0.3900  0.2246  0.1934
 5381TIP3    H237703   3.332   0.299   1.179  0.2109  0.6754 -0.9228
 5382TIP3   OH237704   4.637   5.274   0.917 -0.1472 -0.7542 -0.3626
 5382TIP3    H137705   4.578   5.318   0.856 -2.1761  1.0421  2.6188
 5382TIP3    H237706   4.724   5.292   0.883 -1.1201  1.6157 -1.8579
 5383TIP3   OH237707   5.271   1.958   0.926 -0.4082 -0.9562  0.5719
 5383TIP3    H137708   5.284   1.970   1.020  3.3622  2.0841 -0.0863
 5383TIP3    H237709   5.223   2.037   0.899 -0.6603 -1.3628 -0.1870
 5384TIP3   OH237710   4.789   5.253   8.626  0.1658  0.4180 -0.4259
 5384TIP3    H137711   4.873   5.228   8.587 -0.3416  0.2167 -1.4175
 5384TIP3    H237712   4.807   5.259   8.720  1.1421 -0.2223 -0.5596
 5385TIP3   OH237713   0.097   1.227   0.261  0.5482  0.4954 -0.3226
 5385TIP3    H137714   0.105   1.265   0.173  0.8771  1.2208  0.0177
 5385TIP3    H237715   0.151   1.283   0.317  1.3716 -0.7165  0.1244
 5386TIP3   OH237716   5.831   1.343   7.435 -0.2928 -0.4679 -0.7253
 5386TIP3    H137717   5.897   1.388   7.488  0.0216 -1.1394 -0.5389
 5386TIP3    H237718   5.766   1.312   7.498 -0.1758 -0.8295 -0.7786
 5387TIP3   OH237719   3.312   0.228   6.846  0.0319 -0.4090 -0.3261
 5387TIP3    H137720   3.299   0.136   6.824 -2.3823 -0.3770  0.6581
 5387TIP3    H237721   3.282   0.276   6.769 -0.6469 -0.4287 -0.0791
 5388TIP3   OH237722   0.727   2.400   0.992 -0.0411  0.2864  0.2937
 5388TIP3    H137723   0.687   2.449   1.063 -0.1815  0.4210  0.1216
 5388TIP3    H237724   0.746   2.314   1.030  1.2079  0.8074  0.9293
 5389TIP3   OH237725   0.585   3.758   1.790  0.3919 -0.6361  0.7494
 5389TIP3    H137726   0.576   3.753   1.695 -0.2756  1.7969  0.6147
 5389TIP3    H237727   0.672   3.723   1.807  1.3697  0.7434 -1.0148
 5390TIP3   OH237728   1.556   1.283   0.017 -0.4931 -0.7611  0.3918
 5390TIP3    H137729   1.649   1.299  -0.002 -0.5384  0.0324  0.8165
 5390TIP3    H237730   1.510   1.315  -0.060 -0.3365 -2.6534 -0.5513
 5391TIP3   OH237731   6.706   4.699   2.258  0.3692  0.2383 -0.0236
 5391TIP3    H137732   6.724   4.761   2.329 -1.7519 -0.1196  0.8898
 5391TIP3    H237733   6.773   4.631   2.268  2.6995  2.2406 -0.9957
 5392TIP3   OH237734   6.252   5.421   1.143 -0.1385 -0.2066 -0.5303
 5392TIP3    H137735   6.238   5.327   1.152 -2.1765  0.0566 -0.5797
 5392TIP3    H237736   6.271   5.434   1.050  0.4504 -0.5848 -0.4708
 5393TIP3   OH237737   0.849   2.120   6.857 -0.0423 -0.1103  0.2676
 5393TIP3    H137738   0.830   2.027   6.865 -2.6284  0.3335  0.2508
 5393TIP3    H237739   0.905   2.140   6.932  0.1781 -1.5762  0.5150
 5394TIP3   OH237740   2.143   1.783   7.575 -0.0254 -0.3411 -0.1750
 5394TIP3    H137741   2.182   1.828   7.650 -0.1150 -1.1000  0.3346
 5394TIP3    H237742   2.057   1.824   7.564 -0.7642 -1.4346  1.2754
 5395TIP3   OH237743   6.158   2.717   0.750  1.2591  0.2769 -0.3242
 5395TIP3    H137744   6.124   2.685   0.833 -1.0069 -0.4198 -1.4218
 5395TIP3    H237745   6.092   2.781   0.720  0.8083 -1.1013 -2.5574
 5396TIP3   OH237746   0.698   3.912   8.256 -0.3321  0.2173  0.1357
 5396TIP3    H137747   0.666   3.951   8.175  0.7684  0.2080 -0.3261
 5396TIP3    H237748   0.712   3.987   8.315  0.2393  0.3791 -0.1943
 5397TIP3   OH237749   0.409   3.853   8.460  0.0937 -0.4288 -0.2243
 5397TIP3    H137750   0.495   3.861   8.502 -1.2969  0.0241  2.7720
 5397TIP3    H237751   0.405   3.926   8.399  1.6673 -0.2228 -0.1182
 5398TIP3   OH237752   4.378   2.337   6.784  0.3669 -0.2997  0.1188
 5398TIP3    H137753   4.424   2.259   6.753  0.6436  0.6982 -2.1647
 5398TIP3    H237754   4.332   2.369   6.707 -1.9833  0.2846  1.6845
 5399TIP3   OH237755   5.291   1.771   1.860  0.2273  0.1955 -0.0687
 5399TIP3    H137756   5.279   1.683   1.823 -4.0748  0.9263 -1.0057
 5399TIP3    H237757   5.266   1.763   1.952  1.9399  0.1122  0.4211
 5400TIP3   OH237758   2.865   5.879   0.740  0.2586  0.3797 -0.2339
 5400TIP3    H137759   2.865   5.787   0.767  0.6531  0.5458  0.3557
 5400TIP3    H237760   2.788   5.916   0.785  1.8112  1.0341  2.0888
 5401TIP3   OH237761   6.417   3.093   1.187  0.1128 -0.5172  0.0508
 5401TIP3    H137762   6.499   3.050   1.163  0.5506  0.9679 -1.3173
 5401TIP3    H237763   6.372   3.030   1.243  2.8077 -0.8506  2.0518
 5402TIP3   OH237764   2.104   5.430   1.978 -0.1810 -0.6185  0.0391
 5402TIP3    H137765   2.183   5.379   1.962 -1.0188 -1.7208 -0.7571
 5402TIP3    H237766   2.109   5.452   2.071  0.9860 -0.7902  0.0338
 5403TIP3   OH237767   3.727   3.713   1.025 -0.3668  0.6051 -0.2767
 5403TIP3    H137768   3.746   3.784   0.963 -0.7397  0.4223 -0.6061
 5403TIP3    H237769   3.677   3.649   0.973  0.2429 -0.0476 -0.0641
 5404TIP3   OH237770   2.216   2.936   0.542  0.1317  0.2899  0.2328
 5404TIP3    H137771   2.310   2.927   0.557  0.5637  1.5490 -1.3870
 5404TIP3    H237772   2.209   3.003   0.474 -1.8862 -0.6899 -0.6095
 5405TIP3   OH237773   1.773   0.962   2.075  0.0435  0.0066  0.1867
 5405TIP3    H137774   1.717   0.970   1.998  0.5503  1.4806 -0.0749
 5405TIP3    H237775   1.729   1.016   2.141  1.6049  2.0822 -0.3499
 5406TIP3   OH237776   5.729   1.570   8.500 -0.0160  0.4651 -0.2699
 5406TIP3    H137777   5.774   1.494   8.464 -0.7065  0.4308 -1.0642
 5406TIP3    H237778   5.700   1.541   8.587 -1.3233 -0.5918 -1.0255
 5407TIP3   OH237779   6.421   1.378   1.295 -0.1595  0.2751 -0.7182
 5407TIP3    H137780   6.507   1.340   1.275 -0.2133 -0.6724  0.7001
 5407TIP3    H237781   6.432   1.419   1.381 -1.0542  0.3837 -0.6491
 5408TIP3   OH237782   1.265   6.093   0.687  0.1117  0.0251  0.1596
 5408TIP3    H137783   1.290   6.051   0.769  0.0616  0.8429  0.6096
 5408TIP3    H237784   1.175   6.066   0.672  0.5318 -1.1659 -0.3125
 5409TIP3   OH237785   4.466   4.280   2.215 -0.6365 -0.2846 -0.0224
 5409TIP3    H137786   4.544   4.223   2.210  1.8671  2.7310  1.1659
 5409TIP3    H237787   4.437   4.271   2.306  0.7608  1.3624  0.6496
 5410TIP3   OH237788   3.146   4.226   8.490 -0.1061  0.2150 -0.1334
 5410TIP3    H137789   3.122   4.264   8.574 -0.3732 -2.1192  0.9293
 5410TIP3    H237790   3.107   4.285   8.425  1.0743  2.7012  1.2702
 5411TIP3   OH237791   2.110   0.672   7.805  0.3440 -0.9159  0.0748
 5411TIP3    H137792   2.165   0.716   7.869 -1.4309  1.2727  0.2058
 5411TIP3    H237793   2.112   0.729   7.728 -2.9088  0.2072  0.6355
 5412TIP3   OH237794   1.043   4.800   7.385  0.6679  0.3744 -0.3059
 5412TIP3    H137795   1.012   4.882   7.424  0.1284  0.0573 -0.0374
 5412TIP3    H237796   1.045   4.817   7.291  0.2735  0.6072 -0.2761
 5413TIP3   OH237797   6.565   1.148   7.499  0.1108  0.3468  0.2584
 5413TIP3    H137798   6.553   1.096   7.578  2.5597  0.2481  0.6540
 5413TIP3    H237799   6.507   1.108   7.435 -0.3597 -0.9131  1.4278
 5414TIP3   OH237800   6.301   1.136   0.115  0.6914 -0.0286 -0.1443
 5414TIP3    H137801   6.264   1.091   0.038  0.8492 -2.0996  0.9053
 5414TIP3    H237802   6.338   1.217   0.080 -1.8614  0.5522 -1.7738
 5415TIP3   OH237803   3.595   1.393   0.050 -0.0266  1.1737 -0.0759
 5415TIP3    H137804   3.613   1.300   0.037 -1.0231  0.7739  1.2104
 5415TIP3    H237805   3.526   1.396   0.116  1.1181  2.8560  1.1628
 5416TIP3   OH237806   2.966   2.460   6.882  0.1887 -0.3765 -0.5374
 5416TIP3    H137807   2.871   2.448   6.889 -0.0459  0.6576 -1.5946
 5416TIP3    H237808   2.995   2.384   6.831 -0.4115  0.3643 -2.0591
 5417TIP3   OH237809   1.688   6.540   7.681 -0.0141 -0.2137 -0.1599
 5417TIP3    H137810   1.716   6.510   7.768  0.1172 -0.4663 -0.2896
 5417TIP3    H237811   1.710   6.468   7.622 -1.2081 -0.5580 -0.2249
 5418TIP3   OH237812   4.555   2.596   0.799 -0.2784 -0.0160 -0.1807
 5418TIP3    H137813   4.486   2.540   0.764 -0.3412  0.0440 -0.1521
 5418TIP3    H237814   4.515   2.683   0.805 -0.5191 -0.1755  0.7798
 5419TIP3   OH237815   3.608   1.047   7.092  0.2307  0.3147  0.2839
 5419TIP3    H137816   3.579   1.075   7.179 -0.3742 -0.7126  0.4211
 5419TIP3    H237817   3.548   1.092   7.032  0.2674  0.5507  0.4201
 5420TIP3   OH237818   3.543   1.072   8.315  0.5394 -0.2333 -0.4727
 5420TIP3    H137819   3.582   1.085   8.401  1.0471 -1.1973 -0.5409
 5420TIP3    H237820   3.450   1.089   8.327  0.9828  2.7718 -0.4434
 5421TIP3   OH237821   3.478   6.619   7.478  0.2364  0.8627  0.2048
 5421TIP3    H137822   3.479   6.676   7.555  0.0966  0.4514  0.5162
 5421TIP3    H237823   3.521   6.670   7.409 -0.2168  1.4838  0.3729
 5422TIP3   OH237824   3.125   6.651   6.639  0.7201 -0.0507 -0.5414
 5422TIP3    H137825   3.041   6.612   6.613  0.1681  0.3580  0.5871
 5422TIP3    H237826   3.101   6.732   6.683  1.5975 -0.7023  1.2371
 5423TIP3   OH237827   4.530   2.746   1.232  0.3329  0.5557 -0.0847
 5423TIP3    H137828   4.449   2.774   1.275 -0.5579 -0.2575 -1.1591
 5423TIP3    H237829   4.565   2.825   1.193 -0.7951  0.6554 -0.9325
 5424TIP3   OH237830   0.683   4.976   6.669 -0.2778 -0.0687  0.1304
 5424TIP3    H137831   0.650   5.037   6.735 -0.0948  0.4164 -0.2240
 5424TIP3    H237832   0.617   4.978   6.600  0.3427  0.6900 -0.4518
 5425TIP3   OH237833   5.291   4.467   6.549  0.4343  0.1070 -0.0837
 5425TIP3    H137834   5.242   4.385   6.534  0.4976 -0.1063  0.8219
 5425TIP3    H237835   5.382   4.444   6.532  0.5153 -0.1519  0.6942
 5426TIP3   OH237836   2.222   5.866   1.179 -0.3668 -0.4263 -0.2424
 5426TIP3    H137837   2.217   5.774   1.152 -0.2673 -0.3690 -0.4571
 5426TIP3    H237838   2.144   5.879   1.233 -1.8588  0.0707 -2.3870
 5427TIP3   OH237839   0.127   3.684   2.082  0.5215  0.3988  0.3279
 5427TIP3    H137840   0.215   3.689   2.045  0.3450  0.3927 -0.0908
 5427TIP3    H237841   0.080   3.758   2.045  0.8487  1.4497  1.9129
 5428TIP3   OH237842   6.106   4.861   8.432  0.9349 -0.4248  0.1355
 5428TIP3    H137843   6.182   4.920   8.439  0.1680  0.6791 -0.5291
 5428TIP3    H237844   6.042   4.911   8.380  0.3065 -1.9059 -0.5620
 5429TIP3   OH237845   4.257   6.200   0.830 -0.0309  0.5066 -0.3686
 5429TIP3    H137846   4.321   6.226   0.895 -0.5718  0.9583 -0.0085
 5429TIP3    H237847   4.305   6.200   0.747  0.3623  1.1432 -0.1477
 5430TIP3   OH237848   2.812   0.368   0.868 -0.0862 -0.1922 -0.3799
 5430TIP3    H137849   2.772   0.394   0.785 -0.0969 -0.0750 -0.3390
 5430TIP3    H237850   2.739   0.367   0.930  0.1123  0.9171 -0.0990
 5431TIP3   OH237851   6.235   3.425   0.830  0.3239  0.0110  0.2543
 5431TIP3    H137852   6.274   3.366   0.894  0.3369 -1.1310 -0.7753
 5431TIP3    H237853   6.291   3.418   0.753 -0.5953  0.1236 -0.4451
 5432TIP3   OH237854   4.574   6.733   0.726  0.1880 -0.5924 -0.7630
 5432TIP3    H137855   4.500   6.792   0.741 -0.2768 -1.1535 -0.7794
 5432TIP3    H237856   4.539   6.646   0.747  1.2321 -0.7273  0.5415
 5433TIP3   OH237857   5.107   6.723   1.660  0.3515  0.0572  0.0974
 5433TIP3    H137858   5.184   6.745   1.607  0.5626  1.3721  0.9087
 5433TIP3    H237859   5.059   6.805   1.668 -1.4987 -0.8714 -0.9118
 5434TIP3   OH237860   4.194   3.753   0.585  0.0043 -0.1822  0.3610
 5434TIP3    H137861   4.261   3.820   0.581 -0.0950 -0.1157 -0.3743
 5434TIP3    H237862   4.144   3.765   0.504 -0.2144 -0.9287  0.3806
 5435TIP3   OH237863   4.505   0.629   8.380  0.1705  0.3156 -0.4711
 5435TIP3    H137864   4.480   0.714   8.344  1.1303  1.0130  0.4367
 5435TIP3    H237865   4.571   0.650   8.446 -1.9843 -0.7756  2.2201
 5436TIP3   OH237866   5.458   4.986   0.065 -0.2172  0.4414  0.1246
 5436TIP3    H137867   5.473   5.076   0.034 -0.2490  0.2823 -0.3743
 5436TIP3    H237868   5.363   4.978   0.072 -0.1943  0.5990  0.6485
 5437TIP3   OH237869   3.792   6.642   7.422  0.0381  0.0814  0.1461
 5437TIP3    H137870   3.738   6.712   7.385  0.3722 -0.5739 -1.7233
 5437TIP3    H237871   3.828   6.679   7.502 -3.3476  0.4695  1.6519
 5438TIP3   OH237872   3.347   2.465   0.937 -0.0627  0.3295 -0.1239
 5438TIP3    H137873   3.325   2.391   0.880  0.4128  1.5613 -1.9829
 5438TIP3    H237874   3.436   2.448   0.965 -0.0606  0.0406 -0.2957
 5439TIP3   OH237875   5.401   4.865   0.882 -0.1631 -0.3865 -0.5746
 5439TIP3    H137876   5.384   4.925   0.954  0.4574 -0.9462  0.0526
 5439TIP3    H237877   5.314   4.845   0.847 -0.9020 -2.7350  2.1915
 5440TIP3   OH237878   3.739   1.345   1.534 -0.3890 -0.1552  0.4759
 5440TIP3    H137879   3.801   1.272   1.534 -2.2673 -1.8187 -0.2100
 5440TIP3    H237880   3.682   1.329   1.608  0.0458  1.4568  1.2030
 5441TIP3   OH237881   2.962   4.248   1.603  0.0055  0.2870  0.1954
 5441TIP3    H137882   3.024   4.314   1.632 -0.3854  0.6283  0.2681
 5441TIP3    H237883   2.888   4.298   1.569  0.4043 -0.1080 -1.3131
 5442TIP3   OH237884   4.932   3.508   1.050  0.3022 -1.0909 -0.5266
 5442TIP3    H137885   4.868   3.542   0.987  0.1160  0.8334  0.6354
 5442TIP3    H237886   5.004   3.475   0.995  0.6700  1.5775 -1.8035
 5443TIP3   OH237887   0.358   1.841   0.502  0.2913  0.2365  0.1148
 5443TIP3    H137888   0.316   1.811   0.421  0.5052 -1.2866  0.5350
 5443TIP3    H237889   0.336   1.774   0.566  1.2412  0.7389  0.9876
 5444TIP3   OH237890   2.768   4.834   1.037 -0.0073  0.3173 -0.0713
 5444TIP3    H137891   2.788   4.854   1.128 -0.6880 -0.7244  0.3348
 5444TIP3    H237892   2.832   4.767   1.012  1.1229  1.6341 -0.8519
 5445TIP3   OH237893   6.817   4.272   8.559 -0.5623  0.0540 -0.6679
 5445TIP3    H137894   6.876   4.278   8.484  2.3586  0.8996  1.5242
 5445TIP3    H237895   6.775   4.358   8.563  2.0206  1.3647  0.6363
 5446TIP3   OH237896   3.173   6.079   2.571 -0.1450  0.2270 -0.0314
 5446TIP3    H137897   3.263   6.048   2.579 -0.8958 -2.0604  0.0482
 5446TIP3    H237898   3.173   6.163   2.617  2.5356  1.6397 -2.2573
 5447TIP3   OH237899   2.354   4.663   8.320 -0.4048 -0.1238 -0.4496
 5447TIP3    H137900   2.449   4.658   8.310 -0.2790 -0.9158  0.8797
 5447TIP3    H237901   2.338   4.752   8.351 -0.1393  0.1466 -1.0856
 5448TIP3   OH237902   2.362   3.393   6.842  0.3364  0.1970  0.1443
 5448TIP3    H137903   2.345   3.364   6.931  1.3857  0.4379  0.4366
 5448TIP3    H237904   2.296   3.348   6.789 -0.0217 -0.2854  0.9799
 5449TIP3   OH237905   6.059   2.429   1.251 -0.1066  0.5442 -0.4146
 5449TIP3    H137906   5.986   2.479   1.216 -1.2505 -1.0749 -0.4279
 5449TIP3    H237907   6.078   2.469   1.336 -1.4470  0.5889 -0.1231
 5450TIP3   OH237908   1.677   5.160   0.728  0.5417  0.1773  0.4105
 5450TIP3    H137909   1.621   5.180   0.653  0.1879 -0.2236  0.5616
 5450TIP3    H237910   1.615   5.134   0.797  0.8277  1.0158  0.9937
 5451TIP3   OH237911   4.627   2.421   6.886  0.4480  0.5337  0.4592
 5451TIP3    H137912   4.555   2.370   6.851  1.4146 -0.0319 -0.7814
 5451TIP3    H237913   4.594   2.511   6.889 -0.7053  0.0996  1.0841
 5452TIP3   OH237914   2.259   4.152   0.754 -0.7511 -0.2099 -0.1837
 5452TIP3    H137915   2.278   4.065   0.789 -2.5235 -0.7355 -0.4148
 5452TIP3    H237916   2.223   4.201   0.828  0.8634  0.5838  0.1167
 5453TIP3   OH237917   1.469   4.563   7.432  0.0998 -0.3889  0.2456
 5453TIP3    H137918   1.506   4.651   7.429 -1.5500  0.3694  0.7632
 5453TIP3    H237919   1.537   4.509   7.472  0.3390  1.1067  1.9702
 5454TIP3   OH237920   3.923   0.251   0.659 -0.5840 -0.1711  0.6241
 5454TIP3    H137921   3.839   0.244   0.613 -1.0198  1.4519  1.1246
 5454TIP3    H237922   3.901   0.294   0.742  0.8633  1.0503  0.4011
 5455TIP3   OH237923   3.087   4.576   1.372  0.1972  0.0284  0.0039
 5455TIP3    H137924   3.154   4.616   1.317  1.8716 -1.3974  0.9085
 5455TIP3    H237925   3.012   4.636   1.366  0.9533  0.8688 -2.2952
 5456TIP3   OH237926   6.153   4.815   1.700  0.2834 -0.4320  0.1227
 5456TIP3    H137927   6.211   4.798   1.625 -1.1011 -2.3112 -0.5985
 5456TIP3    H237928   6.212   4.817   1.775  1.6505  0.9565 -0.9115
 5457TIP3   OH237929   3.318   6.328   6.603 -0.8724  0.2754  0.7093
 5457TIP3    H137930   3.261   6.256   6.629 -1.1260  1.4049  3.8249
 5457TIP3    H237931   3.385   6.288   6.548 -1.1675 -2.2961  2.0619
 5458TIP3   OH237932   1.350   1.263   7.411  0.0812 -0.1451  0.1095
 5458TIP3    H137933   1.276   1.221   7.367 -0.1166  1.1272 -0.8217
 5458TIP3    H237934   1.427   1.214   7.380 -0.3394 -1.4665  1.0766
 5459TIP3   OH237935   3.127   5.518   0.934  0.1151  0.1599 -0.3937
 5459TIP3    H137936   3.200   5.560   0.888  1.4935 -0.6402  0.9637
 5459TIP3    H237937   3.147   5.530   1.027  0.0357 -2.4855  0.0464
 5460TIP3   OH237938   6.873   5.553   1.233  0.0807 -0.2623 -0.0692
 5460TIP3    H137939   6.887   5.644   1.207 -0.2252  0.7311  2.8382
 5460TIP3    H237940   6.962   5.518   1.244  0.3982  1.1474  3.0033
 5461TIP3   OH237941   2.029   6.626   7.490 -0.3435 -0.0545 -0.1427
 5461TIP3    H137942   2.115   6.602   7.455 -0.5932 -0.0980 -0.7493
 5461TIP3    H237943   2.037   6.718   7.515 -0.0750 -0.1022 -0.0560
 5462TIP3   OH237944   3.287   4.187   2.410  0.4043 -0.1752  0.6481
 5462TIP3    H137945   3.340   4.165   2.487  0.1911 -0.6030  0.6800
 5462TIP3    H237946   3.350   4.201   2.340  0.5488 -1.7757  0.4005
 5463TIP3   OH237947   1.045   0.305   7.300 -0.2464 -0.2768  0.5873
 5463TIP3    H137948   0.956   0.270   7.295 -0.1292 -0.3878 -1.8543
 5463TIP3    H237949   1.097   0.247   7.245  0.6071  1.7606 -0.8808
 5464TIP3   OH237950   1.082   6.591   8.016 -0.5707 -0.2799 -0.3543
 5464TIP3    H137951   1.096   6.501   8.045  0.0728 -0.1852 -0.3417
 5464TIP3    H237952   1.170   6.629   8.016 -0.6364 -0.0910 -1.8345
 5465TIP3   OH237953   4.840   5.868   8.071 -0.1865  0.5760 -0.4538
 5465TIP3    H137954   4.823   5.943   8.128  1.0921  0.8649 -0.4219
 5465TIP3    H237955   4.846   5.793   8.130  1.0923  0.8673 -0.2031
 5466TIP3   OH237956   3.554   1.732   2.369 -0.6581 -0.2793 -0.0775
 5466TIP3    H137957   3.604   1.798   2.323  1.0513 -1.0015  0.6527
 5466TIP3    H237958   3.511   1.681   2.300  0.4790 -0.2950 -0.7874
 5467TIP3   OH237959   2.263   6.594   7.382  0.4587 -0.1439 -0.9236
 5467TIP3    H137960   2.324   6.571   7.312  0.8913 -0.5184 -0.4356
 5467TIP3    H237961   2.298   6.675   7.419  0.8199 -0.5033 -0.4672
 5468TIP3   OH237962   1.046   5.616   7.629 -0.6800 -0.0205  0.6930
 5468TIP3    H137963   1.090   5.649   7.551 -1.1171  0.7594  0.7737
 5468TIP3    H237964   1.003   5.535   7.599  1.0349 -0.9925  0.6958
 5469TIP3   OH237965   6.887   2.032   1.532  0.0710  0.5553  0.1764
 5469TIP3    H137966   6.842   2.116   1.549 -2.4145 -0.4992 -0.6827
 5469TIP3    H237967   6.870   1.980   1.611  0.9098  0.5564  0.3667
 5470TIP3   OH237968   3.685   6.319   2.342 -0.3527 -0.0382 -0.2425
 5470TIP3    H137969   3.594   6.290   2.343 -0.6529  0.8812 -0.5888
 5470TIP3    H237970   3.690   6.386   2.410  0.3223 -0.7986  0.4950
 5471TIP3   OH237971   1.771   5.679   7.760 -0.4099  0.4650  0.0456
 5471TIP3    H137972   1.686   5.712   7.732 -0.4690  1.0297  0.8303
 5471TIP3    H237973   1.759   5.584   7.768 -0.4828  0.3310 -1.4199
 5472TIP3   OH237974   6.558   6.235   0.445  0.4706  0.2271  0.2408
 5472TIP3    H137975   6.483   6.236   0.505  0.3856  2.2406  0.1918
 5472TIP3    H237976   6.634   6.241   0.503  0.5714 -0.9187  0.2497
 5473TIP3   OH237977   1.356   5.717   1.098 -0.5143  0.3327  0.0519
 5473TIP3    H137978   1.402   5.711   1.014 -0.6264 -3.1965  0.0955
 5473TIP3    H237979   1.284   5.778   1.082  0.4640  1.0581 -1.8730
 5474TIP3   OH237980   1.929   0.440   1.270  0.4775 -0.0958 -0.2008
 5474TIP3    H137981   1.847   0.490   1.267  0.7954  0.3909 -1.2963
 5474TIP3    H237982   1.917   0.373   1.203  1.0833  0.1430 -0.5479
 5475TIP3   OH237983   1.175   0.095   0.393  0.3082  0.4347 -0.1719
 5475TIP3    H137984   1.198   0.148   0.317 -0.1151  0.4152 -0.3172
 5475TIP3    H237985   1.080   0.103   0.400  0.3764  0.6872  0.5441
 5476TIP3   OH237986   0.822   0.128   7.355 -0.5554  0.1846  0.0256
 5476TIP3    H137987   0.871   0.048   7.378  0.9908  1.3129  0.8154
 5476TIP3    H237988   0.730   0.104   7.369 -0.3953 -2.2993 -2.3716
 5477TIP3   OH237989   4.209   3.295   7.249 -0.1305  0.7787 -0.2381
 5477TIP3    H137990   4.301   3.277   7.267 -0.5115  0.2354  1.2781
 5477TIP3    H237991   4.172   3.210   7.225 -0.5126  0.7472  0.4456
 5478TIP3   OH237992   2.246   0.968   7.844 -0.5829  0.4948 -0.3865
 5478TIP3    H137993   2.317   0.969   7.907 -0.1200  3.8812 -0.7742
 5478TIP3    H237994   2.172   0.929   7.892  0.8826 -1.0744  0.7203
 5479TIP3   OH237995   2.320   0.332   6.283 -0.0782  0.4223  0.7101
 5479TIP3    H137996   2.227   0.323   6.303 -0.0762 -1.4016  0.0814
 5479TIP3    H237997   2.334   0.427   6.277 -2.6556  0.8131 -2.5581
 5480TIP3   OH237998   0.024   0.268   1.168 -0.1028  0.0769 -0.2449
 5480TIP3    H137999   0.018   0.237   1.078  1.2666  1.5173 -0.8762
 5480TIP3    H238000  -0.027   0.349   1.169 -1.0445 -0.5084  0.5779
 5481TIP3   OH238001   4.675   1.475   8.066 -0.6120 -0.2741  0.0788
 5481TIP3    H138002   4.708   1.565   8.073  0.7289 -0.6762 -0.8574
 5481TIP3    H238003   4.737   1.430   8.010 -1.4166 -1.7416  0.3043
 5482TIP3   OH238004   0.002   1.539   1.570  0.4860 -0.5993 -0.4844
 5482TIP3    H138005   0.074   1.600   1.591  1.1471 -1.0559 -1.3785
 5482TIP3    H238006  -0.072   1.573   1.620  1.0429  0.4969 -0.3537
 5483TIP3   OH238007   5.206   5.170   0.185 -0.4129  0.3012 -0.3072
 5483TIP3    H138008   5.217   5.227   0.108 -1.3540  2.2083  0.8898
 5483TIP3    H238009   5.119   5.131   0.174  0.3255 -1.1822 -1.2454
 5484TIP3   OH238010   6.596   0.215   6.813  0.2303  0.1505 -0.9658
 5484TIP3    H138011   6.537   0.281   6.777  1.1713  0.4739 -1.9556
 5484TIP3    H238012   6.651   0.188   6.739  0.5130 -1.0392 -0.3532
 5485TIP3   OH238013   6.857   1.853   0.034 -0.2906  0.7626 -0.1700
 5485TIP3    H138014   6.908   1.776   0.059 -0.1566  0.4393 -1.3504
 5485TIP3    H238015   6.902   1.927   0.075  0.8749  0.4325 -0.8211
 5486TIP3   OH238016   2.340   5.730   6.481  0.3291  0.1992 -0.0586
 5486TIP3    H138017   2.399   5.771   6.418  0.3196  0.4222  0.0788
 5486TIP3    H238018   2.256   5.725   6.436 -1.2727  5.3121  1.6772
 5487TIP3   OH238019   5.924   5.950   6.944 -0.1189  0.1223  0.5651
 5487TIP3    H138020   5.836   5.945   6.907 -0.0132  2.5098 -0.1771
 5487TIP3    H238021   5.980   5.916   6.874 -0.2339  1.2533 -0.0991
 5488TIP3   OH238022   4.455   0.156   6.726 -1.0107  0.1480 -0.0230
 5488TIP3    H138023   4.371   0.111   6.721 -0.1150 -1.6694  0.2707
 5488TIP3    H238024   4.504   0.123   6.651 -0.4501  0.9786 -0.0398
 5489TIP3   OH238025   6.540   0.228   0.729 -0.2667 -0.0176  0.3630
 5489TIP3    H138026   6.608   0.254   0.667  1.1789 -2.0347  0.9821
 5489TIP3    H238027   6.480   0.174   0.677 -0.2826  0.1269  0.2332
 5490TIP3   OH238028   5.042   4.620   8.610  0.1930  0.0651  0.6360
 5490TIP3    H138029   5.072   4.636   8.521  1.8132 -0.6289  1.0166
 5490TIP3    H238030   5.092   4.681   8.664 -0.3156  0.0446  1.1395
 5491TIP3   OH238031   0.670   2.964   0.477  0.0624 -0.1260  0.3277
 5491TIP3    H138032   0.639   3.003   0.559  2.2567  1.3236  0.5801
 5491TIP3    H238033   0.660   2.870   0.489 -1.0539  0.1343  1.6481
 5492TIP3   OH238034   5.618   0.585   6.512  0.5784 -0.4970  0.0939
 5492TIP3    H138035   5.661   0.665   6.484  0.0786  0.0507  0.8569
 5492TIP3    H238036   5.530   0.590   6.473  0.9573 -1.2863 -0.9018
 5493TIP3   OH238037   6.735   6.800   7.518 -0.3971  0.1084  0.6134
 5493TIP3    H138038   6.726   6.840   7.431 -1.5407 -1.5173 -0.0692
 5493TIP3    H238039   6.828   6.774   7.523 -0.2945  0.3214 -0.0785
 5494TIP3   OH238040   2.883   5.867   7.127  0.4180 -0.5477  0.0064
 5494TIP3    H138041   2.862   5.866   7.034 -2.2199 -0.3504  0.5152
 5494TIP3    H238042   2.955   5.805   7.136  2.2440  1.0192 -2.4166
 5495TIP3   OH238043   0.306   2.171   2.167 -0.5384 -0.3325 -0.2589
 5495TIP3    H138044   0.328   2.190   2.259 -0.5723 -1.1514 -0.0722
 5495TIP3    H238045   0.212   2.156   2.168 -0.1622 -3.4936  0.2002
 5496TIP3   OH238046   3.119   2.668   6.505  0.4406  0.1074  0.1452
 5496TIP3    H138047   3.087   2.753   6.533 -0.3119  0.5241 -1.7973
 5496TIP3    H238048   3.041   2.620   6.477  0.9733 -0.7861  0.1280
 5497TIP3   OH238049   2.437   0.578   0.490 -0.2016  0.6313 -0.8658
 5497TIP3    H138050   2.440   0.502   0.432  1.1044 -0.6442  0.7875
 5497TIP3    H238051   2.466   0.651   0.435  0.5102 -0.4322 -1.9554
 5498TIP3   OH238052   3.496   0.571   6.934 -0.6356 -0.2976  0.3780
 5498TIP3    H138053   3.551   0.493   6.944 -0.5085 -0.2537  0.0388
 5498TIP3    H238054   3.519   0.605   6.848 -0.9926 -0.1174  0.3537
 5499TIP3   OH238055   3.687   2.487   6.807 -0.1997  0.2714  0.2744
 5499TIP3    H138056   3.730   2.446   6.883 -0.9182 -1.0692 -0.0005
 5499TIP3    H238057   3.752   2.547   6.772  1.0077 -0.8088  0.5890
 5500TIP3   OH238058   1.147   5.328   0.335  0.2348 -0.3144  0.2733
 5500TIP3    H138059   1.142   5.233   0.348 -1.1969 -0.3070 -0.0374
 5500TIP3    H238060   1.115   5.365   0.417 -2.2386 -0.1797 -0.6726
 5501TIP3   OH238061   0.693   2.089   1.336  0.1907  0.2564  0.4558
 5501TIP3    H138062   0.660   2.004   1.306 -0.0142  0.1536  0.9676
 5501TIP3    H238063   0.768   2.067   1.391  0.3578  0.4279  0.2977
 5502TIP3   OH238064   0.939   2.131   7.147  0.5101  0.0586 -0.3748
 5502TIP3    H138065   0.865   2.174   7.188 -0.5848 -1.2238 -0.9081
 5502TIP3    H238066   1.002   2.201   7.129 -0.4655  1.1344  0.3074
 5503TIP3   OH238067   0.374   4.660   7.408 -0.0369  0.5602  0.2198
 5503TIP3    H138068   0.459   4.662   7.452  0.6619 -0.1240 -1.0070
 5503TIP3    H238069   0.310   4.657   7.478  1.0474 -1.2727  1.2043
 5504TIP3   OH238070   4.160   1.580   6.480 -1.0128 -0.1336 -0.1605
 5504TIP3    H138071   4.069   1.584   6.508 -1.1938 -2.2434 -0.2696
 5504TIP3    H238072   4.167   1.498   6.431  0.9777 -0.1309 -0.0021
 5505TIP3   OH238073   0.106   3.000   1.675  0.1201 -0.7343  0.0271
 5505TIP3    H138074   0.069   3.033   1.757 -0.3194 -0.2732 -0.3486
 5505TIP3    H238075   0.039   2.942   1.639  0.3386 -0.9890  0.0305
 5506TIP3   OH238076   6.776   3.195   2.375  0.2387 -0.4557  0.1102
 5506TIP3    H138077   6.717   3.194   2.451 -0.7267 -1.9221 -0.6100
 5506TIP3    H238078   6.717   3.187   2.300  1.1979  0.6996 -0.8079
 5507TIP3   OH238079   1.104   3.910   0.521  0.8087 -0.2542 -0.2789
 5507TIP3    H138080   1.100   4.005   0.511 -0.6134 -0.3299 -0.6948
 5507TIP3    H238081   1.140   3.896   0.609 -0.6237  0.7230  0.5160
 5508TIP3   OH238082   3.647   6.585   1.574  0.0508 -0.2298 -0.1426
 5508TIP3    H138083   3.733   6.589   1.533 -0.7226 -0.1159 -1.8444
 5508TIP3    H238084   3.648   6.654   1.639  2.0987 -1.8474  1.6886
 5509TIP3   OH238085   1.464   1.485   0.232  0.5524  0.4353 -0.0782
 5509TIP3    H138086   1.497   1.411   0.182 -2.1594 -1.2115  0.3630
 5509TIP3    H238087   1.410   1.534   0.170  0.9212  1.0626  0.0869
 5510TIP3   OH238088   1.822   3.729   7.232 -0.2728 -0.4050  0.2901
 5510TIP3    H138089   1.856   3.695   7.149  0.5255 -1.3301  0.9598
 5510TIP3    H238090   1.727   3.726   7.222 -0.2215  1.4290 -1.3243
 5511TIP3   OH238091   5.011   6.859   0.998 -0.4650  0.3026 -0.1799
 5511TIP3    H138092   5.080   6.797   1.020 -0.5219  0.0111 -0.8047
 5511TIP3    H238093   4.949   6.809   0.945 -0.2482  1.0235 -1.1445
 5512TIP3   OH238094   0.893   3.496   0.122 -0.2218  0.2004 -0.8033
 5512TIP3    H138095   0.898   3.587   0.092 -0.7813  1.1568  1.7631
 5512TIP3    H238096   0.800   3.481   0.139 -0.0737 -0.7078 -0.7370
 5513TIP3   OH238097   0.605   0.840   1.715  0.0751  0.0350  0.0590
 5513TIP3    H138098   0.643   0.752   1.727 -1.1751 -0.3598  1.4021
 5513TIP3    H238099   0.558   0.857   1.797  0.9892  2.3413  0.1640
 5514TIP3   OH238100   3.932   5.675   0.301 -0.4300  0.0533 -0.1658
 5514TIP3    H138101   3.984   5.756   0.306 -0.8142  0.3009 -0.1038
 5514TIP3    H238102   3.941   5.636   0.388  0.0477 -0.1568 -0.3068
 5515TIP3   OH238103   4.020   3.763   1.268  0.0935 -0.1377 -0.0817
 5515TIP3    H138104   4.042   3.818   1.193 -0.1625  1.9395  1.2586
 5515TIP3    H238105   4.089   3.781   1.332 -0.3512 -0.8998  0.6292
 5516TIP3   OH238106   4.535   3.904   1.282  0.0246 -0.0021  0.4973
 5516TIP3    H138107   4.450   3.867   1.257 -0.4559  1.1188  0.4308
 5516TIP3    H238108   4.522   3.999   1.277  1.7154  0.2097 -1.0277
 5517TIP3   OH238109   5.214   2.822   1.085  0.1205  0.3246 -0.4721
 5517TIP3    H138110   5.196   2.739   1.041  2.7958 -1.7178  1.8951
 5517TIP3    H238111   5.135   2.841   1.135 -1.0392  0.0338 -2.1104
 5518TIP3   OH238112   4.246   0.456   6.359  0.8757 -0.8513  0.2995
 5518TIP3    H138113   4.185   0.385   6.379 -0.5216  0.6200  1.5874
 5518TIP3    H238114   4.322   0.412   6.321  0.8758 -3.2783  2.7194
 5519TIP3   OH238115   3.559   2.750   1.465  0.0765 -0.0953  0.5208
 5519TIP3    H138116   3.509   2.800   1.400 -0.8376  0.2641  1.4694
 5519TIP3    H238117   3.567   2.810   1.540  0.3400 -0.8103  1.0781
 5520TIP3   OH238118   6.469   3.873   1.094 -0.3062  0.2745  0.5575
 5520TIP3    H138119   6.436   3.809   1.031 -1.8774  1.5298  0.0192
 5520TIP3    H238120   6.559   3.889   1.067 -0.5591 -0.1549 -0.6105
 5521TIP3   OH238121   0.986   0.187   8.471 -0.3519  0.3591 -0.2550
 5521TIP3    H138122   0.973   0.098   8.501 -1.4231 -0.2413 -2.3258
 5521TIP3    H238123   1.080   0.194   8.456 -0.2461 -0.3590  0.0622
 5522TIP3   OH238124   5.151   1.185   2.112  0.3601  0.4270  0.5092
 5522TIP3    H138125   5.210   1.110   2.111 -1.5526 -1.1660 -0.8478
 5522TIP3    H238126   5.089   1.165   2.182 -0.0824  0.8109  0.2322
 5523TIP3   OH238127   2.177   3.346   2.262  0.2765 -0.2619 -0.1358
 5523TIP3    H138128   2.244   3.312   2.204 -0.1437 -1.1628 -0.1021
 5523TIP3    H238129   2.102   3.288   2.250 -0.6720  0.9921 -0.5278
 5524TIP3   OH238130   6.260   3.953   0.862  0.1243  0.0901 -1.1616
 5524TIP3    H138131   6.341   4.004   0.856  0.0541  0.2196 -1.0238
 5524TIP3    H238132   6.260   3.898   0.784  2.1542 -2.5860  0.5233
 5525TIP3   OH238133   2.054   2.532   8.055  0.1501 -0.6311 -0.0321
 5525TIP3    H138134   2.136   2.551   8.011 -0.0285 -1.6700 -0.8625
 5525TIP3    H238135   1.989   2.529   7.985 -0.2400 -1.7416  0.3553
 5526TIP3   OH238136   5.427   1.207   1.068 -0.0637 -0.3999  0.2238
 5526TIP3    H138137   5.441   1.153   0.990 -1.5166  1.4912 -1.4550
 5526TIP3    H238138   5.360   1.161   1.118 -0.0412 -1.0034 -0.2880
 5527TIP3   OH238139   1.143   3.621   0.973  0.4916  0.6700 -0.2899
 5527TIP3    H138140   1.137   3.587   1.062  1.6884 -0.2390 -0.5367
 5527TIP3    H238141   1.120   3.547   0.917  0.4241  1.0439 -0.7663
 5528TIP3   OH238142   4.746   5.629   0.599  0.7125  0.3054 -0.4003
 5528TIP3    H138143   4.656   5.656   0.617  0.0335 -0.3464 -2.5688
 5528TIP3    H238144   4.779   5.695   0.538  0.7486 -0.9457 -1.7787
 5529TIP3   OH238145   0.313   6.203   7.160  0.4536  0.4886  0.2569
 5529TIP3    H138146   0.402   6.168   7.168  0.5866  1.0420  1.4415
 5529TIP3    H238147   0.259   6.141   7.209  0.2074  0.2773 -0.2697
 5530TIP3   OH238148   2.474   6.133   2.760  0.0608 -0.3089 -0.0356
 5530TIP3    H138149   2.474   6.224   2.732 -0.2973  0.0834  1.1891
 5530TIP3    H238150   2.393   6.097   2.725 -0.5491  0.2691  0.7385
 5531TIP3   OH238151   3.882   3.919   7.768  0.2443  0.1638 -0.1361
 5531TIP3    H138152   3.824   3.926   7.692  0.3505  0.3036 -0.2047
 5531TIP3    H238153   3.831   3.956   7.841 -0.4657 -1.4123  0.2001
 5532TIP3   OH238154   1.562   6.482   6.996  0.9379 -0.0579  0.1265
 5532TIP3    H138155   1.639   6.536   7.013  0.6989  0.2377  0.2839
 5532TIP3    H238156   1.494   6.518   7.054 -0.2102  1.6157 -2.0718
 5533TIP3   OH238157   4.557   5.392   0.392  0.5783 -0.1578 -0.1568
 5533TIP3    H138158   4.646   5.400   0.359 -0.0861  1.5008 -1.7323
 5533TIP3    H238159   4.505   5.362   0.317 -0.2751 -0.6639  0.6046
 5534TIP3   OH238160   3.289   6.135   1.267 -0.1313  0.3675 -0.3722
 5534TIP3    H138161   3.267   6.108   1.178 -0.9107 -0.0764 -0.0599
 5534TIP3    H238162   3.279   6.230   1.267 -1.1293  0.2703 -0.5056
 5535TIP3   OH238163   6.496   2.806   0.681 -0.0986  0.2372 -0.4373
 5535TIP3    H138164   6.412   2.771   0.652 -0.0039  1.5433 -2.5280
 5535TIP3    H238165   6.537   2.840   0.601  1.6786  1.1587  0.7849
 5536TIP3   OH238166   3.381   6.714   1.381  0.0662  0.0760  0.0464
 5536TIP3    H138167   3.417   6.711   1.292 -0.3146 -2.0845 -0.0985
 5536TIP3    H238168   3.457   6.720   1.438  0.8068 -3.5275 -0.2931
 5537TIP3   OH238169   4.055   4.584   6.834  0.2364  0.9557 -0.3638
 5537TIP3    H138170   3.976   4.630   6.808  0.2889  0.0763 -2.2542
 5537TIP3    H238171   4.126   4.647   6.820  0.3789  0.2685 -3.4864
 5538TIP3   OH238172   5.232   1.144   0.352 -0.1551 -0.5315  0.1492
 5538TIP3    H138173   5.250   1.193   0.432  1.1612  0.1202 -0.5291
 5538TIP3    H238174   5.316   1.107   0.326  0.1058  1.5299 -2.3950
 5539TIP3   OH238175   0.488   4.896   1.742 -0.1739  0.0746 -0.1893
 5539TIP3    H138176   0.527   4.810   1.723 -0.3867 -0.2387  0.7531
 5539TIP3    H238177   0.479   4.938   1.656 -2.3548 -1.8040 -0.9564
 5540TIP3   OH238178   0.951   5.921   6.373  0.4352 -0.5735 -0.0295
 5540TIP3    H138179   1.030   5.877   6.341  0.7422 -2.3588  2.8537
 5540TIP3    H238180   0.983   5.977   6.444 -0.6641  0.2158 -0.1405
 5541TIP3   OH238181   2.884   4.038   1.249 -0.5892 -0.4497  0.0666
 5541TIP3    H138182   2.809   4.014   1.303 -0.4908 -1.2138 -0.1231
 5541TIP3    H238183   2.956   4.049   1.311 -1.3494  2.7061  0.5577
 5542TIP3   OH238184   0.956   4.860   2.886  0.2816  0.3912 -0.0448
 5542TIP3    H138185   0.871   4.815   2.885 -0.0928  1.0339 -1.8719
 5542TIP3    H238186   1.020   4.790   2.899 -0.4092 -0.4301 -0.8982
 5543TIP3   OH238187   2.139   1.949   0.462 -0.1681  0.2249 -0.3256
 5543TIP3    H138188   2.130   1.873   0.405 -0.9998  0.4911 -0.5702
 5543TIP3    H238189   2.051   1.988   0.463  0.1438  0.9281  0.1409
 5544TIP3   OH238190   2.116   6.836   8.511 -0.4465  0.3367 -0.1233
 5544TIP3    H138191   2.137   6.817   8.420  0.5812 -2.2240  0.5575
 5544TIP3    H238192   2.201   6.856   8.552 -0.8899  1.4360  0.2878
 5545TIP3   OH238193   6.822   3.943   8.564  0.5505 -0.0879 -0.4308
 5545TIP3    H138194   6.790   4.030   8.541 -0.0667 -0.6486 -1.8172
 5545TIP3    H238195   6.915   3.954   8.580  0.1043  1.2169  1.6647
 5546TIP3   OH238196   5.479   6.398   0.536  0.0885  0.1801  0.1172
 5546TIP3    H138197   5.549   6.436   0.589 -0.1554 -0.9232  1.2785
 5546TIP3    H238198   5.398   6.431   0.574 -0.1122 -1.1205  0.8956
 5547TIP3   OH238199   3.884   0.466   8.567 -0.0012  0.6220 -0.0960
 5547TIP3    H138200   3.947   0.534   8.542  1.3528 -1.1006 -1.6701
 5547TIP3    H238201   3.849   0.435   8.484 -0.0022 -1.1133  0.5184
 5548TIP3   OH238202   4.456   0.173   8.593 -0.1438 -0.5569 -0.0923
 5548TIP3    H138203   4.544   0.196   8.622 -0.0454  0.4257 -1.1067
 5548TIP3    H238204   4.465   0.084   8.558  0.3228 -0.6673  0.2957
 5549TIP3   OH238205   0.332   4.163   6.968 -0.0261  0.8161 -0.1704
 5549TIP3    H138206   0.399   4.225   6.939  0.5177  0.8858  1.1841
 5549TIP3    H238207   0.351   4.083   6.919  0.8534  0.9426 -0.0507
 5550TIP3   OH238208   6.822   2.685   6.918 -0.7228  0.1536  0.3539
 5550TIP3    H138209   6.837   2.617   6.983 -0.7386 -0.7846 -0.5980
 5550TIP3    H238210   6.746   2.656   6.869 -0.0898  0.3143 -0.7509
 5551TIP3   OH238211   6.739   3.860   7.273  0.1539 -0.9061  0.8984
 5551TIP3    H138212   6.789   3.890   7.350  0.4924  2.2344 -0.3762
 5551TIP3    H238213   6.802   3.864   7.201 -1.2890  0.9337 -0.3475
 5552TIP3   OH238214   2.416   1.411   8.074 -1.0039 -0.3269  0.0721
 5552TIP3    H138215   2.432   1.434   7.982 -0.1622 -0.9232  0.0497
 5552TIP3    H238216   2.473   1.470   8.124 -1.1457 -0.2847  0.1832
 5553TIP3   OH238217   3.549   5.737   0.395 -0.2523  0.2652  0.2636
 5553TIP3    H138218   3.597   5.811   0.357  0.1722  0.1059  0.4774
 5553TIP3    H238219   3.575   5.662   0.342 -1.0063  0.3350 -0.2147
 5554TIP3   OH238220   3.514   0.465   1.432 -0.0977  0.6261  0.1555
 5554TIP3    H138221   3.479   0.385   1.393  0.8053  0.0314  0.5458
 5554TIP3    H238222   3.446   0.494   1.494  0.0175 -0.4172  0.7806
 5555TIP3   OH238223   3.391   4.624   7.398 -0.1399 -0.2636 -0.1157
 5555TIP3    H138224   3.331   4.651   7.468 -2.5566 -1.2939 -1.6296
 5555TIP3    H238225   3.424   4.539   7.427  0.0773  0.0084  0.4480
 5556TIP3   OH238226   0.096   2.287   0.305  0.3241  0.1169  0.0778
 5556TIP3    H138227   0.138   2.372   0.292  0.3776  0.1291  0.3206
 5556TIP3    H238228   0.059   2.292   0.394  1.1241 -0.4407  0.4548
 5557TIP3   OH238229   3.011   4.643   1.974  0.2495  0.8911  0.3009
 5557TIP3    H138230   3.023   4.640   1.879 -1.3078  1.7190  0.0356
 5557TIP3    H238231   3.023   4.735   1.997  1.6590  0.5364  1.0889
 5558TIP3   OH238232   3.339   5.287   6.669 -0.2826 -0.4525 -0.4932
 5558TIP3    H138233   3.243   5.286   6.665 -0.4467  0.1144  1.8054
 5558TIP3    H238234   3.361   5.209   6.721  0.3219  0.5806  0.8476
 5559TIP3   OH238235   1.092   3.618   7.772  0.1960 -0.0991  0.5500
 5559TIP3    H138236   1.166   3.668   7.805  0.0161  0.0505  0.7351
 5559TIP3    H238237   1.030   3.616   7.846 -0.4073  0.6215  0.0846
 5560TIP3   OH238238   0.730   2.235   6.299 -0.0826 -0.5354  0.6380
 5560TIP3    H138239   0.728   2.148   6.258  0.1668 -1.4995  2.5590
 5560TIP3    H238240   0.770   2.291   6.233 -1.8544 -1.4552 -1.3603
 5561TIP3   OH238241   4.242   4.137   2.027 -0.1838  0.1327  0.3689
 5561TIP3    H138242   4.246   4.214   2.084  1.1385 -0.2564  0.8440
 5561TIP3    H238243   4.284   4.067   2.077 -0.3397 -0.6071 -0.4996
 5562TIP3   OH238244   1.582   5.690   0.251 -0.4952 -0.2577 -0.2737
 5562TIP3    H138245   1.639   5.723   0.181  1.1474  1.1307  1.6088
 5562TIP3    H238246   1.607   5.598   0.260  0.5550  0.0042 -0.3492
 5563TIP3   OH238247   3.121   2.246   6.693 -0.0819 -0.2383 -0.4253
 5563TIP3    H138248   3.178   2.274   6.621  1.6141 -2.2418  0.0488
 5563TIP3    H238249   3.035   2.236   6.653  0.6772 -0.6232 -2.0093
 5564TIP3   OH238250   2.548   0.810   7.709  0.1514 -0.6422  0.4014
 5564TIP3    H138251   2.539   0.809   7.804  0.4275  0.2330  0.4437
 5564TIP3    H238252   2.573   0.900   7.688 -0.2764 -0.7300 -0.5330
 5565TIP3   OH238253   5.565   5.131   0.579  0.0123 -0.1637 -0.2815
 5565TIP3    H138254   5.590   5.039   0.586 -0.8414 -0.3423  0.5371
 5565TIP3    H238255   5.496   5.133   0.513  0.8306  0.0756 -1.1670
 5566TIP3   OH238256   4.556   1.295   7.398 -0.4308 -0.1128 -0.1067
 5566TIP3    H138257   4.473   1.305   7.350 -0.5973  0.8456  0.3599
 5566TIP3    H238258   4.610   1.368   7.367 -0.9791  1.2743  2.0240
 5567TIP3   OH238259   1.781   0.385   0.522 -0.6018  0.0845 -0.4444
 5567TIP3    H138260   1.724   0.311   0.542 -0.2774 -0.0014  0.2000
 5567TIP3    H238261   1.800   0.425   0.607 -1.5611  1.5117 -0.8566
 5568TIP3   OH238262   4.677   3.354   8.389  0.3145  0.3210  0.3153
 5568TIP3    H138263   4.611   3.287   8.406  1.2762 -0.5030  0.9767
 5568TIP3    H238264   4.630   3.425   8.346 -0.4913 -1.3655 -1.7801
 5569TIP3   OH238265   3.510   5.209   1.273 -0.3930  0.5068  0.3228
 5569TIP3    H138266   3.564   5.178   1.346 -0.6654  0.8553  0.6770
 5569TIP3    H238267   3.573   5.228   1.204 -0.2739 -1.6173 -0.2165
 5570TIP3   OH238268   5.144   1.772   7.785  0.3343 -0.2444 -0.0863
 5570TIP3    H138269   5.237   1.768   7.807  0.1622  0.0096  0.7133
 5570TIP3    H238270   5.142   1.799   7.693  1.0578 -0.7211 -0.2534
 5571TIP3   OH238271   0.082   5.162   8.184 -0.0652  0.0929  0.5708
 5571TIP3    H138272   0.019   5.162   8.112 -0.1389 -0.2564  0.6318
 5571TIP3    H238273   0.142   5.233   8.163 -0.5659  0.5333  0.5895
 5572TIP3   OH238274   1.216   6.554   7.757  0.3593  0.2368  0.5756
 5572TIP3    H138275   1.145   6.489   7.763  1.3163 -0.8209  0.7178
 5572TIP3    H238276   1.229   6.582   7.848 -0.4442  1.0858  0.4459
 5573TIP3   OH238277   4.426   2.054   8.434 -0.3354 -0.0955  0.2154
 5573TIP3    H138278   4.385   2.134   8.468  1.0424  0.9590 -0.5229
 5573TIP3    H238279   4.514   2.081   8.409 -0.3590 -1.4816 -1.5406
 5574TIP3   OH238280   0.662   4.242   7.044 -0.3580 -0.8685 -0.2488
 5574TIP3    H138281   0.625   4.156   7.065 -0.0869 -0.7354  0.8095
 5574TIP3    H238282   0.653   4.293   7.124 -1.3258  0.3959 -1.1169
 5575TIP3   OH238283   3.060   0.403   1.802  0.0973 -0.9404  0.4430
 5575TIP3    H138284   3.072   0.473   1.866  1.4122 -1.8340  1.2306
 5575TIP3    H238285   3.033   0.327   1.855  1.5458 -1.7839  0.0278
 5576TIP3   OH238286   0.186   0.867   7.498  0.3575  0.3628  0.0462
 5576TIP3    H138287   0.157   0.890   7.586 -0.3421  0.9159 -0.3228
 5576TIP3    H238288   0.202   0.951   7.455  0.8503  0.0912 -0.3013
 5577TIP3   OH238289   3.650   2.409   1.027 -0.1330 -0.2317 -0.0778
 5577TIP3    H138290   3.679   2.325   1.060 -2.0735 -1.0682 -0.3605
 5577TIP3    H238291   3.640   2.464   1.105  1.8500  0.0320  0.0437
 5578TIP3   OH238292   4.237   2.217   6.529  0.1408 -0.2354  0.2437
 5578TIP3    H138293   4.215   2.187   6.441  0.0562 -1.2568  0.6008
 5578TIP3    H238294   4.157   2.261   6.560 -0.1302 -0.6656  0.1492
 5579TIP3   OH238295   1.840   5.040   7.789  0.1369  0.5189 -0.0113
 5579TIP3    H138296   1.763   5.096   7.792  0.9163  1.7500 -1.5404
 5579TIP3    H238297   1.892   5.075   7.717  1.4679 -1.1469  0.0872
 5580TIP3   OH238298   2.028   3.610   1.673  0.0696  0.3557  0.6126
 5580TIP3    H138299   2.079   3.583   1.596 -0.8766 -1.1616  0.4786
 5580TIP3    H238300   2.068   3.692   1.700  3.6273 -1.4347  1.4076
 5581TIP3   OH238301   6.814   6.251   1.515  0.2235  0.6758  0.2433
 5581TIP3    H138302   6.842   6.229   1.426  1.0979  0.4158  0.5727
 5581TIP3    H238303   6.868   6.195   1.572  1.0212  2.1480  1.0187
 5582TIP3   OH238304   0.386   4.700   0.812 -0.1881  0.0821 -0.6325
 5582TIP3    H138305   0.431   4.780   0.784 -2.0833  0.9552 -1.3683
 5582TIP3    H238306   0.297   4.729   0.833 -0.6990 -1.7207 -0.1563
 5583TIP3   OH238307   5.011   4.879   1.687 -0.3228 -0.0222 -0.8922
 5583TIP3    H138308   5.016   4.866   1.781  1.3694  0.5959 -0.8664
 5583TIP3    H238309   5.093   4.922   1.664  0.3011 -2.1097 -2.9581
 5584TIP3   OH238310   4.736   3.959   1.470  0.1355 -0.1718 -0.1283
 5584TIP3    H138311   4.657   3.930   1.424 -0.1581  0.4538 -0.0343
 5584TIP3    H238312   4.771   3.880   1.510  1.6317 -1.2221 -3.1791
 5585TIP3   OH238313   4.039   4.819   7.827 -0.2883 -0.5777  0.1935
 5585TIP3    H138314   4.029   4.772   7.744  3.8980  0.3202 -1.0715
 5585TIP3    H238315   4.086   4.758   7.884  0.6689  0.2625  0.3298
 5586TIP3   OH238316   1.375   1.501   1.359  0.2260 -0.1146  0.3019
 5586TIP3    H138317   1.282   1.524   1.365  0.0888 -0.2166 -1.0298
 5586TIP3    H238318   1.409   1.558   1.290  0.7668 -1.1934 -0.3610
 5587TIP3   OH238319   5.468   5.374   8.439 -0.6281 -0.2303 -0.2260
 5587TIP3    H138320   5.490   5.334   8.523  1.5547 -0.7253 -0.9848
 5587TIP3    H238321   5.427   5.304   8.389 -0.5044 -0.3831 -0.1171
 5588TIP3   OH238322   4.036   5.325   0.591 -0.7302  0.1780  0.2565
 5588TIP3    H138323   4.106   5.266   0.619 -1.3363 -0.7776 -0.1647
 5588TIP3    H238324   4.056   5.408   0.633 -0.0451 -0.4316  1.1869
 5589TIP3   OH238325   1.567   3.192   0.502 -0.2022 -0.4556 -0.0739
 5589TIP3    H138326   1.629   3.241   0.448 -1.3009 -0.3920 -1.3246
 5589TIP3    H238327   1.557   3.244   0.582 -0.6406  0.9013 -0.9805
 5590TIP3   OH238328   6.672   3.086   1.564 -0.3609 -0.0325  0.2756
 5590TIP3    H138329   6.727   3.009   1.549 -0.4279  0.2073 -1.3081
 5590TIP3    H238330   6.583   3.054   1.550 -0.3572  0.4234 -0.8746
 5591TIP3   OH238331   1.987   5.217   7.647  0.0329 -0.0916 -0.4466
 5591TIP3    H138332   2.025   5.253   7.727 -1.9781 -2.9973  2.0875
 5591TIP3    H238333   2.049   5.149   7.620  0.4927  0.5880 -1.1261
 5592TIP3   OH238334   6.847   5.207   7.324 -0.0736  0.1064  0.3204
 5592TIP3    H138335   6.848   5.300   7.347 -1.0879 -0.3515  2.4773
 5592TIP3    H238336   6.870   5.162   7.405 -1.5855 -1.5824 -0.1315
 5593TIP3   OH238337   1.425   5.817   1.492  0.1113  0.2619  0.3138
 5593TIP3    H138338   1.386   5.901   1.517  0.0325  0.6842 -1.1133
 5593TIP3    H238339   1.391   5.754   1.556 -1.3762  0.9736  0.2655
 5594TIP3   OH238340   2.845   0.865   6.661 -0.0298  0.2446 -0.1784
 5594TIP3    H138341   2.864   0.951   6.623  1.0949  0.0001 -0.2128
 5594TIP3    H238342   2.804   0.816   6.590  1.2974  0.0646 -0.8569
 5595TIP3   OH238343   6.354   2.790   6.575  0.2977  0.2263  0.3718
 5595TIP3    H138344   6.324   2.699   6.567  0.8422  0.0998 -0.4106
 5595TIP3    H238345   6.276   2.839   6.601 -0.1682 -0.3689  0.1233
 5596TIP3   OH238346   4.186   2.008   0.138  0.0831  0.2273 -0.2413
 5596TIP3    H138347   4.172   1.956   0.059  1.7825  0.0544 -0.4709
 5596TIP3    H238348   4.277   2.036   0.133  0.0076  0.8756  1.2742
 5597TIP3   OH238349   4.157   4.834   2.271 -0.4017  0.2525 -0.3402
 5597TIP3    H138350   4.217   4.764   2.245  0.2470  0.7099 -0.0996
 5597TIP3    H238351   4.149   4.824   2.365 -0.4486  0.3939 -0.3298
 5598TIP3   OH238352   3.956   6.506   0.071  0.0621 -0.2125 -0.2590
 5598TIP3    H138353   3.996   6.419   0.075 -1.3172 -1.0319 -2.5852
 5598TIP3    H238354   3.874   6.493   0.024 -0.8056  2.1623  0.4410
 5599TIP3   OH238355   4.320   1.910   1.302 -0.5888 -0.2473 -0.5207
 5599TIP3    H138356   4.290   1.913   1.393  0.6246  1.5706 -0.1391
 5599TIP3    H238357   4.245   1.873   1.254 -0.7585 -2.6142  1.3395
 5600TIP3   OH238358   5.610   5.198   8.205 -0.2758 -0.4021  0.0633
 5600TIP3    H138359   5.701   5.186   8.230 -0.2151  1.1746  0.7426
 5600TIP3    H238360   5.607   5.288   8.172 -1.6224 -0.3791  0.2058
 5601TIP3   OH238361   3.016   2.743   6.218  0.7551  0.0435 -0.2776
 5601TIP3    H138362   2.941   2.731   6.276  1.5521  0.8098  0.9751
 5601TIP3    H238363   2.992   2.817   6.162  0.1299 -0.4557 -0.6782
 5602TIP3   OH238364   2.576   1.331   0.768 -0.0329  0.0997  0.0997
 5602TIP3    H138365   2.627   1.412   0.757 -1.9275  1.1265 -1.9555
 5602TIP3    H238366   2.535   1.317   0.682 -0.5571 -2.5103  0.7147
 5603TIP3   OH238367   6.445   1.950   0.875  0.1007  0.1276  0.7825
 5603TIP3    H138368   6.523   2.006   0.878 -0.6307  1.2069  0.5145
 5603TIP3    H238369   6.480   1.861   0.873  1.3298  0.5791  0.6492
 5604TIP3   OH238370   5.464   0.533   0.268 -0.4591 -0.0189  0.6577
 5604TIP3    H138371   5.381   0.551   0.313 -1.4875  0.5020 -1.3564
 5604TIP3    H238372   5.521   0.606   0.293 -0.4624 -0.5117  2.2670
 5605TIP3   OH238373   5.423   4.251   8.176  0.1652  0.1541  0.5923
 5605TIP3    H138374   5.471   4.213   8.102 -1.2992  0.6328 -0.6699
 5605TIP3    H238375   5.455   4.341   8.181 -2.5244  1.4915 -2.2455
 5606TIP3   OH238376   1.196   3.873   0.771  0.0960 -0.0136 -0.2024
 5606TIP3    H138377   1.288   3.882   0.748  0.2978  1.4358  0.9887
 5606TIP3    H238378   1.195   3.874   0.867 -0.9747 -2.5740 -0.0996
 5607TIP3   OH238379   3.238   0.728   1.029 -0.2243 -0.7692  0.3594
 5607TIP3    H138380   3.186   0.808   1.019 -0.3201 -0.9469 -0.7704
 5607TIP3    H238381   3.291   0.743   1.107 -0.4998  0.2525  0.3627
 5608TIP3   OH238382   4.916   6.341   0.297  0.5695 -0.5630  1.3484
 5608TIP3    H138383   4.915   6.434   0.278  0.4355 -0.5530  1.4082
 5608TIP3    H238384   4.924   6.300   0.210  3.2905 -0.4472  1.4533
 5609TIP3   OH238385   3.493   4.419   0.359  0.0654  0.3709  0.8488
 5609TIP3    H138386   3.404   4.424   0.323  0.2715 -0.5440  0.1766
 5609TIP3    H238387   3.550   4.428   0.283  0.5801  1.7510  1.3744
 5610TIP3   OH238388   3.939   5.362   8.313 -0.0941  0.1203  0.1229
 5610TIP3    H138389   3.887   5.284   8.293  2.3953 -1.3196 -1.1344
 5610TIP3    H238390   3.900   5.431   8.260 -1.3351 -0.6423  0.0033
 5611TIP3   OH238391   0.252   3.314   0.809 -0.3860  0.1475  0.1011
 5611TIP3    H138392   0.276   3.387   0.865 -0.5179 -0.4828  1.0012
 5611TIP3    H238393   0.326   3.254   0.815 -0.1522  0.3258 -0.8588
 5612TIP3   OH238394   1.450   3.611   1.612  0.1944 -0.6932 -0.1978
 5612TIP3    H138395   1.404   3.536   1.573  0.0883 -1.5371  1.4913
 5612TIP3    H238396   1.510   3.572   1.675  0.5865  0.6273  0.2724
 5613TIP3   OH238397   0.990   5.223   8.538 -0.0079  0.1602  0.1944
 5613TIP3    H138398   1.028   5.209   8.625  0.4377 -0.4014 -0.0802
 5613TIP3    H238399   0.900   5.249   8.554  0.0885  0.1044  0.8264
 5614TIP3   OH238400   3.608   0.805   0.021  0.3893  1.2844  0.2529
 5614TIP3    H138401   3.666   0.738   0.058  0.7313  2.0293  1.1266
 5614TIP3    H238402   3.655   0.837  -0.056  0.3905  0.7743  0.0400
 5615TIP3   OH238403   3.770   6.144   2.147  0.0073 -0.2443  0.4583
 5615TIP3    H138404   3.757   6.178   2.236  0.9781 -0.8677  0.8540
 5615TIP3    H238405   3.759   6.049   2.156  2.3392 -0.5842  0.4006
 5616TIP3   OH238406   4.573   3.936   7.513  0.2302 -0.4320 -0.1630
 5616TIP3    H138407   4.480   3.939   7.537  0.9768 -0.3455  3.1660
 5616TIP3    H238408   4.580   3.994   7.438 -2.1301  1.1041  0.6844
 5617TIP3   OH238409   1.424   5.406   7.925  0.6781 -0.1913  0.4177
 5617TIP3    H138410   1.455   5.385   8.013 -1.7926 -0.7743  1.2103
 5617TIP3    H238411   1.394   5.322   7.889  2.7409 -0.2102 -1.5304
 5618TIP3   OH238412   3.690   1.655   1.622 -0.3003 -0.1637 -0.4167
 5618TIP3    H138413   3.627   1.597   1.578  0.8810 -1.7340 -0.1051
 5618TIP3    H238414   3.662   1.655   1.713 -0.6917  0.2897 -0.5360
 5619TIP3   OH238415   3.198   1.591   0.557 -0.1547  0.0467 -0.6541
 5619TIP3    H138416   3.253   1.596   0.478  0.3092 -0.9878 -0.4170
 5619TIP3    H238417   3.116   1.633   0.531  0.5807  1.2132 -1.1544
 5620TIP3   OH238418   3.923   4.443   0.949 -0.0140  0.6679  0.5746
 5620TIP3    H138419   3.953   4.421   0.861 -2.8680 -0.9173 -0.1468
 5620TIP3    H238420   3.863   4.517   0.936 -2.7264 -1.3724  0.6174
 5621TIP3   OH238421   4.267   1.230   7.314  0.1048 -0.1213 -0.1493
 5621TIP3    H138422   4.180   1.249   7.281 -0.6828 -1.2532  1.1906
 5621TIP3    H238423   4.311   1.183   7.243 -0.1059  1.0785 -1.0961
 5622TIP3   OH238424   1.843   6.425   6.512  1.0589 -0.5614 -0.5143
 5622TIP3    H138425   1.805   6.480   6.444 -1.8930 -1.0288  0.6050
 5622TIP3    H238426   1.820   6.469   6.594  0.1978 -2.4749  0.3324
 5623TIP3   OH238427   6.711   6.524   7.326 -0.9333  0.3143 -0.3136
 5623TIP3    H138428   6.711   6.529   7.230  1.1316 -1.0117 -0.4644
 5623TIP3    H238429   6.804   6.529   7.350 -1.3388 -0.2440  1.5591
 5624TIP3   OH238430   6.422   3.478   2.809 -0.2162  0.1045  0.3283
 5624TIP3    H138431   6.353   3.420   2.778 -0.4685  0.4221  0.2883
 5624TIP3    H238432   6.397   3.565   2.777  0.5331  0.1298 -0.2432
 5625TIP3   OH238433   2.258   1.137   0.216 -0.9808  0.3851 -0.1758
 5625TIP3    H138434   2.349   1.116   0.240 -1.4064 -1.2159  0.1536
 5625TIP3    H238435   2.264   1.176   0.129  0.0393  0.4973 -0.0642
 5626TIP3   OH238436   2.777   1.970   1.445 -0.0683  0.2334  0.2354
 5626TIP3    H138437   2.735   2.054   1.462  0.0622  0.4829 -0.5829
 5626TIP3    H238438   2.778   1.925   1.529 -1.4447  0.4532  0.3921
 5627TIP3   OH238439   3.822   4.734   1.551  0.2457 -0.3506 -0.2729
 5627TIP3    H138440   3.784   4.723   1.639 -1.0735  1.7024 -0.5241
 5627TIP3    H238441   3.795   4.656   1.503 -0.9365 -0.4503  0.5147
 5628TIP3   OH238442   2.910   3.743   6.921 -0.0487 -0.3827 -0.2351
 5628TIP3    H138443   2.872   3.791   6.995 -2.2957 -2.3154 -0.0137
 5628TIP3    H238444   2.887   3.651   6.937 -2.1370 -0.7617 -4.0736
 5629TIP3   OH238445   0.134   1.160   7.095 -0.2807  0.4627 -0.0632
 5629TIP3    H138446   0.217   1.115   7.077 -0.4667 -0.4168  1.1709
 5629TIP3    H238447   0.158   1.252   7.103  0.2522  0.4974 -1.7124
 5630TIP3   OH238448   3.111   5.106   8.188 -0.0805  0.2252 -0.0408
 5630TIP3    H138449   3.095   5.184   8.240  0.2244  0.0417  0.3310
 5630TIP3    H238450   3.075   5.034   8.239 -0.8745  0.1775 -0.6413
 5631TIP3   OH238451   6.081   2.096   6.988  0.3549 -0.0297 -0.4896
 5631TIP3    H138452   5.990   2.065   6.991  0.4916 -0.4172  1.4950
 5631TIP3    H238453   6.123   2.041   6.922 -0.0821 -2.2676  0.9834
 5632TIP3   OH238454   2.118   5.494   1.321  0.3277 -0.0053 -0.3777
 5632TIP3    H138455   2.104   5.531   1.234  0.1209  1.0251  0.0731
 5632TIP3    H238456   2.213   5.498   1.334  0.2528  1.0962 -0.0458
 5633TIP3   OH238457   1.597   0.487   1.066 -0.3068  0.0219  0.1201
 5633TIP3    H138458   1.520   0.526   1.108  0.3770  2.4145 -0.7045
 5633TIP3    H238459   1.562   0.440   0.991 -1.0509  0.3203  0.2722
 5634TIP3   OH238460   1.289   3.378   7.770  0.2091 -0.2474 -0.3623
 5634TIP3    H138461   1.196   3.357   7.760  0.5009 -1.2745 -1.0782
 5634TIP3    H238462   1.328   3.354   7.686  1.5798 -2.3847  0.8041
 5635TIP3   OH238463   5.276   6.759   7.638 -0.4323  0.3662  0.6845
 5635TIP3    H138464   5.297   6.819   7.709  1.1748  0.3169  0.2802
 5635TIP3    H238465   5.305   6.673   7.669 -1.0867  0.0933  0.5557
 5636TIP3   OH238466   4.069   4.414   7.084 -0.5800 -0.3184 -0.6258
 5636TIP3    H138467   4.159   4.430   7.114 -0.2279 -1.8345 -0.7686
 5636TIP3    H238468   4.062   4.464   7.003 -0.1784  0.5344 -0.1535
 5637TIP3   OH238469   6.663   4.938   1.335  0.4843 -0.1891 -0.0370
 5637TIP3    H138470   6.575   4.974   1.342 -0.3719 -2.4616  3.3828
 5637TIP3    H238471   6.717   4.996   1.388  0.3099 -0.7136  0.7190
 5638TIP3   OH238472   5.390   3.389   7.678 -0.1223 -0.3500 -0.7120
 5638TIP3    H138473   5.401   3.343   7.595 -1.9914 -1.5967 -0.3308
 5638TIP3    H238474   5.474   3.379   7.722  0.3436 -1.1715 -1.7407
 5639TIP3   OH238475   4.025   3.312   7.894 -0.4541 -0.0571  0.3386
 5639TIP3    H138476   4.110   3.340   7.928 -0.6269  0.9185 -0.0156
 5639TIP3    H238477   4.047   3.257   7.819 -0.1010 -1.3649  1.3638
 5640TIP3   OH238478   2.501   1.926   1.684  1.0546  0.3459  0.3322
 5640TIP3    H138479   2.530   1.912   1.774  1.4161 -0.3024  0.1179
 5640TIP3    H238480   2.544   2.007   1.657  3.9233 -1.3139 -0.4758
 5641TIP3   OH238481   4.754   5.486   7.633  0.3672  0.0969  0.1398
 5641TIP3    H138482   4.772   5.399   7.598  2.3465  1.0740 -1.4356
 5641TIP3    H238483   4.778   5.546   7.563  3.0156  2.1069  2.5469
 5642TIP3   OH238484   3.324   6.825   1.915  0.2455  1.1574 -0.5477
 5642TIP3    H138485   3.398   6.768   1.935 -1.2365 -0.8650 -0.5737
 5642TIP3    H238486   3.314   6.821   1.820 -0.5938  0.4600 -0.4453
 5643TIP3   OH238487   0.649   1.449   6.591  0.4620 -0.2072 -0.0884
 5643TIP3    H138488   0.636   1.540   6.617 -0.8235 -0.7189  1.1930
 5643TIP3    H238489   0.600   1.398   6.656  1.9454 -1.8745 -0.1975
 5644TIP3   OH238490   3.044   1.083   7.140  0.2862  0.2592 -0.4602
 5644TIP3    H138491   2.956   1.101   7.106 -0.2739 -1.6903 -0.1621
 5644TIP3    H238492   3.028   1.039   7.224  1.5109 -0.7858 -0.7403
 5645TIP3   OH238493   0.729   1.826   7.164  0.3620 -0.2168  0.0132
 5645TIP3    H138494   0.807   1.784   7.128  0.7916  0.9200 -0.4302
 5645TIP3    H238495   0.757   1.856   7.251  1.3701  2.6837 -1.2015
 5646TIP3   OH238496   2.986   6.579   0.564 -0.4009 -0.1876  0.1279
 5646TIP3    H138497   2.996   6.529   0.645 -2.5744 -0.0197  0.5551
 5646TIP3    H238498   2.914   6.536   0.518  1.8312 -1.3407 -2.6071
 5647TIP3   OH238499   3.227   2.779   5.967  0.0708 -0.4011  0.3099
 5647TIP3    H138500   3.188   2.862   5.995  0.0329 -0.1297 -0.5423
 5647TIP3    H238501   3.153   2.722   5.950  0.0994 -0.6790  1.0731
 5648TIP3   OH238502   4.050   0.660   7.847 -0.3725  0.0249  0.1178
 5648TIP3    H138503   4.120   0.598   7.868 -1.5323 -1.9685 -1.5152
 5648TIP3    H238504   3.983   0.607   7.804 -2.4758  2.0365  0.7164
 5649TIP3   OH238505   1.780   0.353   0.079 -0.1968  0.3395  0.2482
 5649TIP3    H138506   1.857   0.311   0.118  1.0266  1.1463 -1.2020
 5649TIP3    H238507   1.774   0.438   0.123 -0.9053 -0.1477  1.1061
 5650TIP3   OH238508   1.512   0.064   1.313  0.6634  0.0557 -0.2168
 5650TIP3    H138509   1.446  -0.002   1.332  0.7440  0.1190  0.2826
 5650TIP3    H238510   1.493   0.091   1.223 -0.8211  1.0327  0.3673
 5651TIP3   OH238511   6.871   3.647   1.228 -0.1758  0.2455 -0.0841
 5651TIP3    H138512   6.780   3.641   1.257 -1.1060  0.4229 -2.7041
 5651TIP3    H238513   6.909   3.563   1.254 -1.5569 -0.4909 -0.3136
 5652TIP3   OH238514   1.442   5.092   1.292  0.1644 -0.0248  0.1547
 5652TIP3    H138515   1.374   5.078   1.358  0.4817 -2.4294  0.0706
 5652TIP3    H238516   1.394   5.113   1.212 -0.4997 -1.3807  0.1708
 5653TIP3   OH238517   6.335   5.960   8.071  0.2452  0.3041 -0.1161
 5653TIP3    H138518   6.356   6.047   8.038 -1.0245 -0.3376 -2.8301
 5653TIP3    H238519   6.406   5.904   8.039  0.3419  0.0939  0.4533
 5654TIP3   OH238520   6.501   6.665   0.528  0.3419  0.8449  0.1340
 5654TIP3    H138521   6.538   6.614   0.600 -0.2675 -0.3535 -0.3791
 5654TIP3    H238522   6.560   6.648   0.455 -0.8806 -0.6975 -0.5580
 5655TIP3   OH238523   5.671   0.121   6.154 -0.6607  0.2748 -0.2122
 5655TIP3    H138524   5.730   0.049   6.178  0.9060  0.7622 -2.3626
 5655TIP3    H238525   5.584   0.089   6.179  0.4124 -0.3211  3.4182
 5656TIP3   OH238526   3.127   3.208   0.696  0.4965 -0.3630  0.7877
 5656TIP3    H138527   3.141   3.303   0.692 -1.2105 -0.0348  1.6226
 5656TIP3    H238528   3.215   3.172   0.709  1.1000  1.1563  1.1708
 5657TIP3   OH238529   3.727   4.953   0.842 -0.2294 -0.7569  0.1478
 5657TIP3    H138530   3.654   4.992   0.891 -0.4126 -2.0398  0.9411
 5657TIP3    H238531   3.767   5.027   0.796 -1.5793  0.0838  0.2697
 5658TIP3   OH238532   6.524   4.469   8.238 -0.5005  0.1686 -0.4453
 5658TIP3    H138533   6.510   4.563   8.254 -1.0771 -0.1739  1.3484
 5658TIP3    H238534   6.439   4.437   8.208  0.0703  0.4497 -2.4483
 5659TIP3   OH238535   5.817   1.470   1.056 -0.2955 -0.9507 -0.2922
 5659TIP3    H138536   5.873   1.546   1.074 -1.0102  0.2253 -2.6120
 5659TIP3    H238537   5.869   1.415   0.997 -1.4460  0.1238 -2.4157
 5660TIP3   OH238538   3.328   1.267   1.505  0.0003  0.1868  0.0478
 5660TIP3    H138539   3.396   1.231   1.449 -0.7225 -1.9774  0.4605
 5660TIP3    H238540   3.301   1.193   1.560 -2.0203  1.2192  0.5365
 5661TIP3   OH238541   2.229   1.686   1.562 -0.0475 -0.0567 -0.1773
 5661TIP3    H138542   2.195   1.605   1.600  0.7301 -0.4520 -0.3084
 5661TIP3    H238543   2.259   1.662   1.475  1.0177  0.1716  0.1151
 5662TIP3   OH238544   2.229   5.056   2.209  0.1893 -0.3014  0.6352
 5662TIP3    H138545   2.197   5.124   2.268  0.9325 -1.0366  1.9217
 5662TIP3    H238546   2.181   4.977   2.234 -0.0437 -0.4535 -0.2642
 5663TIP3   OH238547   3.506   5.014   0.504 -0.5363 -0.4249 -0.3637
 5663TIP3    H138548   3.434   5.076   0.501 -0.4372 -0.3574 -1.8206
 5663TIP3    H238549   3.468   4.934   0.540 -2.1160 -1.2967 -3.5907
 5664TIP3   OH238550   3.028   0.970   1.753 -0.1116  0.2581 -0.1605
 5664TIP3    H138551   2.977   1.033   1.702 -1.8250 -1.1071 -0.2031
 5664TIP3    H238552   3.004   0.988   1.844  0.0595  0.2252 -0.1089
 5665TIP3   OH238553   0.013   3.817   7.025 -0.5048 -0.0127  0.0529
 5665TIP3    H138554  -0.077   3.831   6.994  0.2475  1.6303 -1.6163
 5665TIP3    H238555   0.044   3.742   6.974  0.2284  1.7457 -2.2977
 5666TIP3   OH238556   5.393   5.388   2.073  0.0641 -0.2772 -0.0850
 5666TIP3    H138557   5.371   5.474   2.109 -1.5659  0.3045 -2.2349
 5666TIP3    H238558   5.476   5.402   2.027  0.1175 -0.0051  0.0883
 5667TIP3   OH238559   2.970   4.500   6.713  0.3374  0.1110  0.3278
 5667TIP3    H138560   2.894   4.468   6.663  0.6511  2.0404 -1.5231
 5667TIP3    H238561   3.031   4.427   6.713  0.3381  0.0377 -2.2236
 5668TIP3   OH238562   4.299   1.625   0.069  0.5463  0.8307  0.0274
 5668TIP3    H138563   4.245   1.626   0.148 -1.8272  1.0378 -1.4840
 5668TIP3    H238564   4.288   1.712   0.032  3.2505  1.4172  0.4143
 5669TIP3   OH238565   1.788   5.524   8.113  0.2799  0.0530  0.1400
 5669TIP3    H138566   1.733   5.553   8.185 -1.0568 -0.3140 -0.6874
 5669TIP3    H238567   1.831   5.444   8.145  2.0510  1.4688  1.5404
 5670TIP3   OH238568   1.615   3.746   6.713  0.2536 -0.0316 -0.2039
 5670TIP3    H138569   1.560   3.803   6.767  0.3098  0.8062 -1.0128
 5670TIP3    H238570   1.554   3.684   6.672  0.1790 -0.4913  0.5745
 5671TIP3   OH238571   6.053   1.170   8.135  0.0826  0.6626  0.3873
 5671TIP3    H138572   6.067   1.133   8.048  0.7939  0.1826  0.6917
 5671TIP3    H238573   5.984   1.235   8.123  0.1155  0.5427 -0.5164
 5672TIP3   OH238574   5.332   0.782   7.405  0.0217  0.1685 -0.2915
 5672TIP3    H138575   5.355   0.729   7.482 -4.1050 -2.4083 -0.5174
 5672TIP3    H238576   5.359   0.729   7.330 -1.0747 -0.0771 -0.5347
 5673TIP3   OH238577   2.943   1.435   0.832  0.8007  0.3613 -0.2876
 5673TIP3    H138578   2.935   1.389   0.749 -0.0598  0.5147 -0.2989
 5673TIP3    H238579   2.941   1.528   0.808  0.1339  0.4084 -0.0667
 5674TIP3   OH238580   5.205   5.343   2.376 -0.2289  0.8564 -0.0614
 5674TIP3    H138581   5.298   5.323   2.361 -0.6193 -2.4856  1.1868
 5674TIP3    H238582   5.204   5.388   2.460  0.2874  1.8075 -0.5392
 5675TIP3   OH238583   5.541   5.932   0.385  0.3483 -0.2162  0.4015
 5675TIP3    H138584   5.572   5.842   0.391 -0.5423 -0.4787  1.5310
 5675TIP3    H238585   5.452   5.929   0.419 -0.3459  0.7962 -1.1870
 5676TIP3   OH238586   6.756   3.197   6.209  0.2439  0.1296 -0.4425
 5676TIP3    H138587   6.850   3.183   6.216 -0.0747 -1.4462  2.2521
 5676TIP3    H238588   6.722   3.116   6.170 -0.0597  0.3433 -0.6245
 5677TIP3   OH238589   2.173   1.776   7.256 -0.1135 -0.2679 -0.3788
 5677TIP3    H138590   2.207   1.745   7.172 -0.0268  0.2333 -0.5295
 5677TIP3    H238591   2.191   1.704   7.317  0.3973 -0.3774 -0.6502
 5678TIP3   OH238592   5.906   4.515   1.262 -0.0605 -0.0158  0.1113
 5678TIP3    H138593   5.892   4.542   1.172 -0.1821  2.0785  0.7014
 5678TIP3    H238594   6.001   4.508   1.271 -0.0674 -2.9927 -0.8401
 5679TIP3   OH238595   5.468   1.573   0.399  0.1250 -0.2084 -0.1619
 5679TIP3    H138596   5.405   1.521   0.350  0.0951  0.4688 -0.8685
 5679TIP3    H238597   5.508   1.511   0.460  0.2076 -1.0969 -1.0830
 5680TIP3   OH238598   2.687   6.691   0.656 -0.5008  0.1995  0.3878
 5680TIP3    H138599   2.765   6.635   0.653 -0.0794  0.5451  2.7586
 5680TIP3    H238600   2.625   6.643   0.711 -0.8217  1.2240  0.9492
 5681TIP3   OH238601   1.892   1.720   7.800  0.5636  0.3667  0.0169
 5681TIP3    H138602   1.966   1.668   7.833  0.0750 -0.3093  0.0772
 5681TIP3    H238603   1.928   1.768   7.725  1.1541  0.3287  0.2655
 5682TIP3   OH238604   3.173   3.069   1.773 -0.2606  0.2552 -0.5742
 5682TIP3    H138605   3.089   3.028   1.794  0.7939 -0.8205  1.8988
 5682TIP3    H238606   3.157   3.117   1.692 -3.3304  0.3012 -0.0447
 5683TIP3   OH238607   6.729   2.430   6.106  0.7252 -0.5172 -0.4595
 5683TIP3    H138608   6.762   2.370   6.174  0.8918 -0.0382 -0.1085
 5683TIP3    H238609   6.636   2.410   6.099  0.5393 -0.0406  0.4784
 5684TIP3   OH238610   4.405   4.182   0.589  0.1688  0.3717 -0.2423
 5684TIP3    H138611   4.424   4.218   0.502 -2.7728  2.5862 -0.1499
 5684TIP3    H238612   4.429   4.253   0.650 -0.2427 -0.1085  0.4982
 5685TIP3   OH238613   1.591   3.076   7.777  0.5196 -0.2949  0.0781
 5685TIP3    H138614   1.534   3.020   7.725  0.9491 -1.2167  0.5577
 5685TIP3    H238615   1.675   3.029   7.779  0.1359 -1.0531  2.7421
 5686TIP3   OH238616   2.101   1.826   8.084 -0.4630  0.0519 -0.0096
 5686TIP3    H138617   2.006   1.835   8.078 -0.5402 -0.4392  0.4910
 5686TIP3    H238618   2.127   1.797   7.996 -0.5421  2.1108 -0.7628
 5687TIP3   OH238619   5.483   3.668   7.561  0.2103 -0.1808 -0.2156
 5687TIP3    H138620   5.545   3.594   7.556 -0.0191 -0.3732 -0.2370
 5687TIP3    H238621   5.444   3.661   7.648 -0.3375 -0.5124 -0.4849
 5688TIP3   OH238622   6.366   4.123   8.180  0.6425 -0.2215  0.2795
 5688TIP3    H138623   6.416   4.118   8.261 -2.4663 -1.1697  2.3357
 5688TIP3    H238624   6.303   4.194   8.196  0.2906 -0.0691 -1.5645
 5689TIP3   OH238625   4.335   0.190   7.533 -0.0307  0.3678  0.3291
 5689TIP3    H138626   4.279   0.266   7.549 -0.5041 -0.1060  0.9894
 5689TIP3    H238627   4.350   0.190   7.439 -1.8408  0.0241  0.0110
 5690TIP3   OH238628   6.506   4.159   1.605 -0.0544 -0.1029 -0.1415
 5690TIP3    H138629   6.575   4.216   1.574 -0.3510  0.5798  0.4295
 5690TIP3    H238630   6.498   4.178   1.699 -2.0649  1.0023 -0.4766
 5691TIP3   OH238631   0.897   2.798   6.310  0.5659  0.5720  0.5101
 5691TIP3    H138632   0.811   2.772   6.345  1.0447  1.7403  2.7031
 5691TIP3    H238633   0.879   2.822   6.219 -0.8932 -1.8234  0.0502
 5692TIP3   OH238634   5.857   0.030   0.114  0.3505 -0.9920  0.2430
 5692TIP3    H138635   5.910  -0.003   0.187  1.2416  0.3515  0.2245
 5692TIP3    H238636   5.850  -0.045   0.054 -0.6712 -2.2347  1.8106
 5693TIP3   OH238637   2.012   0.302   7.504  0.0176  0.1934  0.1175
 5693TIP3    H138638   1.949   0.348   7.560  0.3886 -0.0218  0.7227
 5693TIP3    H238639   2.050   0.236   7.561  0.6315  0.1750 -0.3074
 5694TIP3   OH238640   0.426   1.426   0.105 -0.0785 -0.5693 -0.0775
 5694TIP3    H138641   0.482   1.481   0.159  2.3649 -3.2603  0.3569
 5694TIP3    H238642   0.364   1.387   0.166  1.6591 -2.3716  0.6132
 5695TIP3   OH238643   3.489   3.870   0.758 -0.4005 -0.1666  0.3141
 5695TIP3    H138644   3.490   3.931   0.685  0.3938 -1.1814 -0.5547
 5695TIP3    H238645   3.567   3.891   0.809  0.4860 -1.1396 -0.5978
 5696TIP3   OH238646   0.857   5.172   0.133 -0.2817  0.4330  0.4262
 5696TIP3    H138647   0.860   5.246   0.194 -1.9779  0.0766  0.9923
 5696TIP3    H238648   0.901   5.101   0.180 -2.1951 -0.0447  1.6033
 5697TIP3   OH238649   2.124   4.611   0.066 -0.2865 -0.7300 -0.5571
 5697TIP3    H138650   2.114   4.698   0.028  0.2273 -0.5825 -0.3693
 5697TIP3    H238651   2.113   4.551  -0.007 -1.2694 -0.5381 -0.5759
 5698TIP3   OH238652   5.406   4.510   0.054  0.7136 -0.7500  0.4173
 5698TIP3    H138653   5.490   4.532   0.094  0.4951 -0.1447  0.5586
 5698TIP3    H238654   5.364   4.452   0.117 -0.8378  2.4104  2.5014
 5699TIP3   OH238655   6.418   1.975   8.548  0.0655 -0.2630 -0.4026
 5699TIP3    H138656   6.418   2.066   8.517 -0.1944 -0.6608 -1.6487
 5699TIP3    H238657   6.347   1.934   8.499 -1.1903 -0.6778  1.6742
 5700TIP3   OH238658   1.564   6.079   0.345  0.9663 -0.2112 -0.4572
 5700TIP3    H138659   1.482   6.128   0.343  1.1150  0.0519 -0.1317
 5700TIP3    H238660   1.625   6.130   0.292  1.4481  0.5593  0.7896
 5701TIP3   OH238661   6.403   3.600   7.571  0.1914  0.0008  0.1697
 5701TIP3    H138662   6.482   3.546   7.572  0.6602  0.6310  2.1567
 5701TIP3    H238663   6.435   3.690   7.582 -0.7335  0.4077 -0.3312
 5702TIP3   OH238664   0.244   5.460   7.834 -0.8422  0.4158 -0.5868
 5702TIP3    H138665   0.244   5.434   7.925 -0.0589 -0.3646 -0.7991
 5702TIP3    H238666   0.301   5.537   7.831  2.0463 -1.5555 -0.9073
 5703TIP3   OH238667   3.002   4.327   2.153  0.2456  0.0762 -0.4945
 5703TIP3    H138668   3.051   4.389   2.207  1.0426 -0.8903 -0.0642
 5703TIP3    H238669   2.931   4.378   2.116  2.1512  1.8080 -1.9904
 5704TIP3   OH238670   0.755   5.590   1.151 -0.0531  0.3255 -0.3798
 5704TIP3    H138671   0.737   5.516   1.094  0.6980  0.7464 -1.1792
 5704TIP3    H238672   0.815   5.555   1.217  0.8050  0.3642 -1.1237
 5705TIP3   OH238673   5.113   6.610   1.050  0.3250  0.6598 -0.0877
 5705TIP3    H138674   5.087   6.549   1.119 -0.6644 -0.6049 -1.5136
 5705TIP3    H238675   5.073   6.574   0.970  2.6622  1.2287 -1.5918
 5706TIP3   OH238676   0.839   3.829   7.158 -0.3655 -0.1872 -0.6147
 5706TIP3    H138677   0.908   3.804   7.219 -0.3631  3.9058  1.3352
 5706TIP3    H238678   0.884   3.845   7.075  0.5915 -0.1931 -0.1038
 5707TIP3   OH238679   1.801   5.767   0.122 -0.0639  0.6676 -0.5158
 5707TIP3    H138680   1.846   5.684   0.140  0.5404  0.7323 -1.6674
 5707TIP3    H238681   1.859   5.834   0.158  0.3552  0.6937 -1.2180
 5708TIP3   OH238682   5.865   1.341   8.056 -0.1129 -0.0040  0.4278
 5708TIP3    H138683   5.774   1.312   8.050 -0.1388  0.0630  0.4904
 5708TIP3    H238684   5.861   1.418   8.113 -0.5202  2.2358 -2.4037
 5709TIP3   OH238685   0.069   1.356   8.257  0.1791 -0.0180  0.1294
 5709TIP3    H138686   0.102   1.272   8.289  2.3822 -0.1242 -2.0469
 5709TIP3    H238687  -0.001   1.332   8.196 -0.6567 -0.1077  1.1040
 5710TIP3   OH238688   0.348   2.389   7.425  0.3854  0.3491 -0.2890
 5710TIP3    H138689   0.443   2.374   7.430  0.5471  1.3543 -0.2755
 5710TIP3    H238690   0.321   2.395   7.516  0.6694  2.1876 -0.2929
 5711TIP3   OH238691   2.702   2.441   0.714  0.7907 -0.3523  0.2216
 5711TIP3    H138692   2.689   2.352   0.683  2.1784 -0.5061  0.0056
 5711TIP3    H238693   2.657   2.445   0.798  2.4612 -1.9142  1.2613
 5712TIP3   OH238694   2.019   1.020   1.754 -0.0122  0.0711  0.0851
 5712TIP3    H138695   2.062   1.090   1.706  0.6648 -0.6089 -0.3318
 5712TIP3    H238696   2.005   0.951   1.688 -0.9415 -0.0614  0.4148
 5713TIP3   OH238697   5.625   2.399   1.626  0.2975  0.3075 -0.1558
 5713TIP3    H138698   5.571   2.438   1.695 -1.5532 -0.8044 -0.8722
 5713TIP3    H238699   5.714   2.399   1.661 -0.6785 -0.9935  2.5869
 5714TIP3   OH238700   0.050   2.669   7.232 -0.1515 -0.5792  0.1028
 5714TIP3    H138701   0.120   2.699   7.174 -1.4424  1.0028 -0.7328
 5714TIP3    H238702   0.053   2.574   7.226  1.3240 -0.5198 -0.6113
 5715TIP3   OH238703   3.760   1.109   0.342 -0.2610  0.2763 -0.3720
 5715TIP3    H138704   3.755   1.183   0.403  2.4442 -0.5408  0.9829
 5715TIP3    H238705   3.844   1.120   0.298 -0.8113 -0.8344 -1.7794
 5716TIP3   OH238706   2.654   1.458   0.140 -0.0872 -0.1939  0.3897
 5716TIP3    H138707   2.700   1.534   0.102 -4.5044  2.2547 -0.7462
 5716TIP3    H238708   2.677   1.461   0.233 -0.4317  2.9979  0.5060
 5717TIP3   OH238709   3.171   1.087   1.186  0.1318  0.0498 -0.1127
 5717TIP3    H138710   3.214   1.138   1.117 -0.2015  1.8517  0.9649
 5717TIP3    H238711   3.080   1.079   1.157  0.3202 -0.5088 -0.5786
 5718TIP3   OH238712   0.058   3.740   7.977  1.0079 -0.4749 -0.1660
 5718TIP3    H138713   0.037   3.650   7.953 -0.7963  0.0092 -0.5768
 5718TIP3    H238714   0.148   3.736   8.009  0.7779 -2.5101  0.3693
 5719TIP3   OH238715   1.585   2.138   6.960 -0.8277  0.1731  0.5400
 5719TIP3    H138716   1.499   2.101   6.981 -2.0126  0.9486 -2.3753
 5719TIP3    H238717   1.573   2.178   6.874  1.6345  3.1037  1.3855
 5720TIP3   OH238718   6.342   0.476   1.978  0.0751 -0.1650  0.0121
 5720TIP3    H138719   6.260   0.502   1.937  1.0404  0.7037 -1.4518
 5720TIP3    H238720   6.395   0.556   1.981  1.9545 -1.2480 -1.7972
 5721TIP3   OH238721   4.276   6.827   0.912  0.5144 -0.0467 -0.2233
 5721TIP3    H138722   4.341   6.880   0.960  1.5261 -0.6335 -0.9060
 5721TIP3    H238723   4.292   6.846   0.820 -1.0597  0.6525 -0.3837
 5722TIP3   OH238724   3.417   6.342   7.730  0.2346 -0.6785 -0.1944
 5722TIP3    H138725   3.431   6.256   7.769 -0.2949  0.1572  1.9935
 5722TIP3    H238726   3.343   6.330   7.670 -2.1079 -1.1618  2.5449
 5723TIP3   OH238727   4.359   0.732   8.094  0.0413 -0.0522 -0.4702
 5723TIP3    H138728   4.365   0.813   8.044  1.3058 -0.6833 -1.4009
 5723TIP3    H238729   4.272   0.697   8.074  0.3955 -0.1264 -2.0157
 5724TIP3   OH238730   3.670   2.154   7.498  0.0657  0.2186 -0.1183
 5724TIP3    H138731   3.723   2.228   7.468 -0.0356  0.0463 -0.7267
 5724TIP3    H238732   3.665   2.096   7.423  0.1122 -0.3958  0.3472
 5725TIP3   OH238733   0.431   5.680   7.803 -0.0056  0.6341  0.3683
 5725TIP3    H138734   0.525   5.686   7.789  0.1092 -0.1532  0.7112
 5725TIP3    H238735   0.408   5.761   7.848  0.9041 -0.0866  2.2443
 5726TIP3   OH238736   6.404   3.052   1.525  0.0795  0.2121  0.7012
 5726TIP3    H138737   6.357   2.977   1.490 -0.5271  0.4323  1.0368
 5726TIP3    H238738   6.349   3.084   1.596 -0.1871  1.6122 -0.1100
 5727TIP3   OH238739   4.659   5.195   7.857  0.1796  0.1076  0.6144
 5727TIP3    H138740   4.609   5.163   7.933 -0.5783  0.0410  0.0968
 5727TIP3    H238741   4.600   5.180   7.783  0.4175  1.3345  0.1712
 5728TIP3   OH238742   1.573   5.362   2.344 -0.0698 -0.6188 -0.4947
 5728TIP3    H138743   1.567   5.447   2.301  0.2534 -0.3873 -0.0949
 5728TIP3    H238744   1.667   5.347   2.354 -0.1286  0.1543  1.7020
 5729TIP3   OH238745   5.333   5.607   2.222 -0.2710 -0.4741 -0.0597
 5729TIP3    H138746   5.416   5.625   2.265 -0.1491 -2.8688  0.8292
 5729TIP3    H238747   5.279   5.684   2.241 -0.1710 -1.2358  4.3315
 5730TIP3   OH238748   2.896   4.227   0.071 -0.3143  0.5463  0.1806
 5730TIP3    H138749   2.867   4.178   0.147 -0.4610  0.0694 -0.1779
 5730TIP3    H238750   2.848   4.189  -0.003 -1.6879  2.2968  0.0992
 5731TIP3   OH238751   0.115   5.973   0.937 -0.9385 -0.3240  0.2293
 5731TIP3    H138752   0.207   5.977   0.911 -1.0926 -2.9028 -0.9946
 5731TIP3    H238753   0.114   5.914   1.012 -1.4592  1.0405  1.3583
 5732TIP3   OH238754   5.201   5.983   2.644 -0.3877  0.3474  0.8659
 5732TIP3    H138755   5.244   5.911   2.689 -0.8443 -1.7963 -1.8337
 5732TIP3    H238756   5.109   5.959   2.643 -0.3084 -0.1659 -1.7830
 5733TIP3   OH238757   1.404   6.547   1.549 -0.0377 -0.8439  0.2618
 5733TIP3    H138758   1.476   6.601   1.581 -0.2453 -0.2137 -0.3083
 5733TIP3    H238759   1.440   6.458   1.544  0.4932 -0.6491  0.6076
 5734TIP3   OH238760   1.006   3.069   0.706 -0.0588 -0.0916  1.2975
 5734TIP3    H138761   1.009   3.163   0.691  0.1762 -0.4906 -1.6329
 5734TIP3    H238762   0.987   3.031   0.620  0.3683 -2.7560  2.2861
 5735TIP3   OH238763   6.543   5.862   1.977 -0.3861  0.8925 -0.5753
 5735TIP3    H138764   6.612   5.878   2.042 -0.2231  1.4356 -0.8757
 5735TIP3    H238765   6.479   5.807   2.023  0.6005 -0.2539 -0.5227
 5736TIP3   OH238766   6.367   2.288   8.080  0.0769 -0.0934  0.0733
 5736TIP3    H138767   6.304   2.326   8.141  0.3771  0.5589 -0.0141
 5736TIP3    H238768   6.318   2.220   8.033  0.0232 -1.1268  1.5442
 5737TIP3   OH238769   0.919   3.089   1.526 -0.0199 -0.2867  0.2564
 5737TIP3    H138770   0.840   3.076   1.580 -1.0640 -0.0262 -1.1582
 5737TIP3    H238771   0.990   3.057   1.581 -1.0077  0.1730  1.8770
 5738TIP3   OH238772   6.710   6.137   1.993  0.2806  0.3085 -0.1411
 5738TIP3    H138773   6.728   6.048   2.021  2.4823  1.0707  1.0809
 5738TIP3    H238774   6.626   6.159   2.033  1.3948 -0.0451  2.5800
 5739TIP3   OH238775   6.441   2.829   6.311  0.5207 -0.3086  0.5360
 5739TIP3    H138776   6.459   2.735   6.300  1.2502 -0.0820 -0.4539
 5739TIP3    H238777   6.420   2.839   6.403  0.2137 -1.4841  0.6116
 5740TIP3   OH238778   4.475   3.721   0.993 -0.4805  0.1899 -0.1345
 5740TIP3    H138779   4.486   3.734   0.899  1.9455  0.7810  0.1678
 5740TIP3    H238780   4.458   3.809   1.027  0.5427  0.2854  0.1654
 5741TIP3   OH238781   2.024   6.135   2.106 -0.0554 -0.0917 -0.1064
 5741TIP3    H138782   1.956   6.181   2.056  0.6777  1.2079  0.0546
 5741TIP3    H238783   1.980   6.057   2.139 -1.5135  0.7705  0.0854
 5742TIP3   OH238784   3.779   3.340   0.277  0.2050 -0.6459 -0.5475
 5742TIP3    H138785   3.683   3.334   0.280  0.3245 -2.8742  1.2166
 5742TIP3    H238786   3.799   3.422   0.323 -0.8298  0.5605 -2.1037
 5743TIP3   OH238787   1.342   0.031   7.812 -0.1199 -0.0861 -0.0697
 5743TIP3    H138788   1.306   0.114   7.842 -0.7983 -0.5137  0.3238
 5743TIP3    H238789   1.329   0.032   7.717  0.8704  0.7163 -0.2114
 5744TIP3   OH238790   0.952   0.576   6.971 -0.1604  0.0232 -0.0202
 5744TIP3    H138791   0.934   0.566   6.877  1.5184  0.7332 -0.4569
 5744TIP3    H238792   0.923   0.665   6.991 -0.5082 -0.1247  0.1488
 5745TIP3   OH238793   6.592   5.030   0.976  0.0056 -0.2952 -0.0908
 5745TIP3    H138794   6.570   4.956   0.919  0.3702 -1.1175  0.8084
 5745TIP3    H238795   6.673   5.003   1.019  0.9914  1.2904 -0.8744
 5746TIP3   OH238796   5.357   2.661   1.259 -0.1796  0.1060 -0.2439
 5746TIP3    H138797   5.392   2.628   1.342 -0.8818  0.8200  0.3452
 5746TIP3    H238798   5.432   2.659   1.199  0.1591 -1.1213  0.1856
 5747TIP3   OH238799   0.352   6.559   0.312  0.0110 -0.5070  0.1124
 5747TIP3    H138800   0.367   6.597   0.225  0.5543  0.7362  0.7316
 5747TIP3    H238801   0.257   6.561   0.323 -0.1081 -1.1466 -0.6361
 5748TIP3   OH238802   2.861   2.110   1.051 -0.3685 -0.2655  0.3840
 5748TIP3    H138803   2.927   2.083   1.115  0.8722  0.5139 -0.5247
 5748TIP3    H238804   2.784   2.133   1.103  0.9679  1.4210  1.7152
 5749TIP3   OH238805   0.519   1.950   8.404  0.1337 -0.1452 -0.5389
 5749TIP3    H138806   0.492   1.868   8.365  1.2268 -0.3777 -0.8364
 5749TIP3    H238807   0.614   1.948   8.402  0.1848  0.9530 -0.1832
 5750TIP3   OH238808   4.546   2.806   6.396  0.2546  0.1239 -0.3553
 5750TIP3    H138809   4.513   2.774   6.480 -1.0448 -0.5857 -1.1000
 5750TIP3    H238810   4.492   2.882   6.376  2.2648  1.8962  0.6341
 5751TIP3   OH238811   3.828   5.157   8.158  0.0596 -0.5308  0.1503
 5751TIP3    H138812   3.760   5.091   8.170 -0.4004 -0.0971 -0.0296
 5751TIP3    H238813   3.889   5.118   8.096  0.3949 -1.2362  0.9192
 5752TIP3   OH238814   2.126   2.412   7.220  0.0396 -0.1254 -0.3836
 5752TIP3    H138815   2.206   2.407   7.272  0.4587  2.0789 -0.7212
 5752TIP3    H238816   2.155   2.393   7.130  0.0966  0.1804 -0.4307
 5753TIP3   OH238817   1.762   2.955   7.314  0.1386 -0.3924  0.0221
 5753TIP3    H138818   1.848   2.996   7.306  0.5872 -1.3497 -0.2004
 5753TIP3    H238819   1.777   2.878   7.369 -1.1838  1.1233  2.6952
 5754TIP3   OH238820   2.379   4.990   1.809 -0.4621 -0.1512  0.4166
 5754TIP3    H138821   2.387   4.910   1.757  3.2113 -0.7422  1.6146
 5754TIP3    H238822   2.286   4.994   1.833 -1.4023 -2.1896 -2.4417
 5755TIP3   OH238823   5.291   5.269   0.703 -0.1618  0.0171  1.0206
 5755TIP3    H138824   5.358   5.205   0.730 -0.7898 -2.1273 -1.9342
 5755TIP3    H238825   5.216   5.251   0.759  0.6228  0.1639  2.1446
 5756TIP3   OH238826   3.480   6.654   0.015 -0.4375  0.2836 -0.4462
 5756TIP3    H138827   3.451   6.697   0.095 -1.1994 -0.0148 -0.5593
 5756TIP3    H238828   3.405   6.658  -0.044 -1.1333 -2.6060  0.1028
 5757TIP3   OH238829   2.156   4.486   8.433  0.2110 -0.5191 -0.1714
 5757TIP3    H138830   2.075   4.524   8.399 -0.8490 -1.4591  1.1480
 5757TIP3    H238831   2.226   4.542   8.399 -0.9201 -0.1197 -1.9635
 5758TIP3   OH238832   6.467   4.127   8.637 -0.2907  0.0003 -0.4594
 5758TIP3    H138833   6.506   4.068   8.702 -0.7297 -1.2186 -1.2723
 5758TIP3    H238834   6.457   4.210   8.684  3.0552  0.3398 -0.1489
 5759TIP3   OH238835   5.828   5.439   1.746 -0.1111  0.2727  0.3626
 5759TIP3    H138836   5.886   5.399   1.810  0.7363 -0.6432 -0.9094
 5759TIP3    H238837   5.873   5.518   1.717 -0.1692  0.3195  0.3995
 5760TIP3   OH238838   5.124   6.419   7.455 -0.0637 -0.8628 -0.3134
 5760TIP3    H138839   5.198   6.363   7.478  0.7753  0.2432 -0.2197
 5760TIP3    H238840   5.141   6.445   7.364 -0.0320 -0.1511 -0.1084
 5761TIP3   OH238841   3.349   1.274   8.563  0.0131 -0.4403  0.3688
 5761TIP3    H138842   3.332   1.251   8.654 -1.9843  2.1800  0.7579
 5761TIP3    H238843   3.269   1.249   8.517 -0.3141  1.1843 -0.0163
 5762TIP3   OH238844   2.700   5.481   0.612  0.1680  0.3930  0.7058
 5762TIP3    H138845   2.712   5.546   0.542 -0.9193  0.4861  0.5841
 5762TIP3    H238846   2.759   5.410   0.589  0.2083  0.6587 -0.0366
 5763TIP3   OH238847   5.584   2.838   0.541 -0.9430 -0.6614 -0.0067
 5763TIP3    H138848   5.545   2.925   0.530  0.3779 -0.1159 -0.6474
 5763TIP3    H238849   5.625   2.842   0.628 -0.7149 -0.5611 -0.1166
 5764TIP3   OH238850   0.649   4.601   0.588  0.3875  0.4398 -0.8582
 5764TIP3    H138851   0.658   4.687   0.547  0.9036  1.2203  0.8107
 5764TIP3    H238852   0.700   4.542   0.533  2.9218  1.8612 -0.1526
 5765TIP3   OH238853   5.135   1.937   6.130 -0.4692  0.1003 -0.0411
 5765TIP3    H138854   5.224   1.952   6.162 -0.3416 -0.5295 -0.0728
 5765TIP3    H238855   5.094   2.023   6.130  0.0835  0.3686  0.1515
 5766TIP3   OH238856   4.534   0.780   0.122  0.3982 -0.1333  0.0349
 5766TIP3    H138857   4.544   0.837   0.046 -0.6727  0.4649  0.3255
 5766TIP3    H238858   4.606   0.804   0.180  1.0499 -0.3932 -0.6533
 5767TIP3   OH238859   0.567   4.005   2.596 -0.2632 -0.3485 -0.2473
 5767TIP3    H138860   0.548   3.934   2.658 -1.4034  0.7335  0.7057
 5767TIP3    H238861   0.543   3.969   2.511 -1.6396 -0.8467  0.3129
 5768TIP3   OH238862   4.515   5.480   1.377  0.1900 -0.2248  0.6947
 5768TIP3    H138863   4.568   5.491   1.298 -0.6735 -0.1127  0.1162
 5768TIP3    H238864   4.462   5.402   1.360  0.6291 -0.7087  1.5326
 5769TIP3   OH238865   1.852   2.153   1.317  0.4154  0.1634  0.8689
 5769TIP3    H138866   1.840   2.121   1.406 -1.4919 -0.5536  0.4175
 5769TIP3    H238867   1.830   2.077   1.261  0.6508  0.8559 -0.1955
 5770TIP3   OH238868   0.822   4.121   2.620  0.3582 -0.0682 -0.4251
 5770TIP3    H138869   0.833   4.179   2.695 -0.8513 -0.5367  0.1500
 5770TIP3    H238870   0.730   4.093   2.625 -0.0162  0.5563 -2.5633
 5771TIP3   OH238871   5.784   6.504   6.510  0.0817 -0.6059  0.5573
 5771TIP3    H138872   5.826   6.453   6.579 -0.2497 -0.0695  1.1743
 5771TIP3    H238873   5.698   6.464   6.499 -0.0462 -0.4069  0.8002
 5772TIP3   OH238874   5.568   0.923   7.011 -0.0956  0.0157 -0.0111
 5772TIP3    H138875   5.612   0.838   7.018  1.1614  0.6212 -0.4089
 5772TIP3    H238876   5.519   0.917   6.929 -0.6055 -0.5784  0.3234
 5773TIP3   OH238877   3.886   2.484   1.482 -0.0771 -0.1435 -0.0101
 5773TIP3    H138878   3.806   2.524   1.516 -0.6147  0.1760 -1.5538
 5773TIP3    H238879   3.857   2.402   1.443  0.5679 -0.6376  0.5127
 5774TIP3   OH238880   5.876   5.011   7.755 -0.3577 -0.1348 -0.3564
 5774TIP3    H138881   5.876   5.107   7.758 -3.1708 -0.0357 -1.2768
 5774TIP3    H238882   5.795   4.985   7.798  0.8552 -2.2311  0.8710
 5775TIP3   OH238883   5.177   2.139   0.470 -0.7541  0.2598  0.4954
 5775TIP3    H138884   5.114   2.074   0.502  0.1226 -0.3938  0.9223
 5775TIP3    H238885   5.255   2.125   0.522  1.6968 -2.5692 -3.3699
 5776TIP3   OH238886   6.030   0.242   2.299 -0.5881 -0.2985 -0.3393
 5776TIP3    H138887   6.032   0.164   2.355 -2.0248  0.1547  0.3914
 5776TIP3    H238888   6.122   0.263   2.283 -0.1353 -0.4863  1.8028
 5777TIP3   OH238889   3.911   6.605   1.444  0.3361  0.3197  0.0171
 5777TIP3    H138890   3.963   6.634   1.519  0.5957 -0.8848  0.3293
 5777TIP3    H238891   3.975   6.592   1.374  0.4245 -0.7284  0.2697
 5778TIP3   OH238892   1.026   1.865   7.114  0.1152 -0.2907 -0.2257
 5778TIP3    H138893   1.088   1.847   7.185  2.1218  0.0309 -1.7885
 5778TIP3    H238894   1.004   1.958   7.123 -0.2592 -0.4379  0.4161
 5779TIP3   OH238895   1.780   0.203   2.214 -0.9434 -0.6453  0.2954
 5779TIP3    H138896   1.850   0.269   2.222 -0.2089 -1.4914  1.1513
 5779TIP3    H238897   1.711   0.247   2.164 -0.3021  0.6265  0.4834
 5780TIP3   OH238898   4.169   1.737   7.442  0.2184 -0.0302 -0.8856
 5780TIP3    H138899   4.115   1.760   7.367 -1.8488 -1.4413  0.0723
 5780TIP3    H238900   4.156   1.642   7.452  1.2729 -0.0513  0.6167
 5781TIP3   OH238901   6.517   0.441   7.215 -0.3158  0.1531  0.2271
 5781TIP3    H138902   6.467   0.511   7.174  1.9259  0.8554 -1.5275
 5781TIP3    H238903   6.451   0.386   7.258 -2.4409  1.5433 -1.0721
 5782TIP3   OH238904   1.288   2.987   7.292 -0.1764 -0.3851 -0.2048
 5782TIP3    H138905   1.289   2.946   7.378  0.4599  1.9828  0.9924
 5782TIP3    H238906   1.211   2.950   7.249 -0.0743 -2.1930  1.0268
 5783TIP3   OH238907   5.343   5.180   0.422 -0.2927  0.1858  0.1275
 5783TIP3    H138908   5.289   5.221   0.489 -0.5459 -1.6182  1.0805
 5783TIP3    H238909   5.304   5.209   0.339 -0.4207  1.8552  0.7271
 5784TIP3   OH238910   0.151   3.623   0.365 -0.1901  0.1505  0.3222
 5784TIP3    H138911   0.215   3.564   0.407  0.4256  1.1769  0.8604
 5784TIP3    H238912   0.101   3.659   0.437  2.7084  4.1307  0.6936
 5785TIP3   OH238913   4.197   5.993   6.993  0.7211 -0.0330 -0.6395
 5785TIP3    H138914   4.179   6.055   6.922 -0.2200  0.2433 -0.1885
 5785TIP3    H238915   4.292   5.989   6.998  0.8930  3.0021  0.6631
 5786TIP3   OH238916   5.932   3.120   6.712 -0.2778  0.1845 -0.0101
 5786TIP3    H138917   5.894   3.193   6.664  1.4326 -0.0347 -1.8172
 5786TIP3    H238918   5.872   3.048   6.699 -0.3884  0.4339 -0.9231
 5787TIP3   OH238919   4.828   1.772   0.164  0.0404 -0.4378  0.0068
 5787TIP3    H138920   4.822   1.816   0.080  2.8414  2.8687  1.3185
 5787TIP3    H238921   4.868   1.687   0.144  0.6412  0.2679 -1.9821
 5788TIP3   OH238922   4.731   4.342   1.644  0.0873 -0.5048  0.0273
 5788TIP3    H138923   4.714   4.406   1.714  0.0303 -2.1125  1.5569
 5788TIP3    H238924   4.771   4.268   1.689  2.6286 -0.5413 -2.0818
 5789TIP3   OH238925   0.770   2.434   0.742 -0.5778 -0.2595 -0.1481
 5789TIP3    H138926   0.759   2.437   0.837 -1.4278  0.1790 -0.2495
 5789TIP3    H238927   0.814   2.516   0.721 -1.9244  0.4548 -0.2999
 5790TIP3   OH238928   1.529   6.446   1.031 -0.1655  0.1167 -0.2956
 5790TIP3    H138929   1.502   6.387   0.961  0.8884 -1.8870  0.8911
 5790TIP3    H238930   1.448   6.487   1.061 -1.2549 -2.1945  0.0943
 5791TIP3   OH238931   0.899   4.701   1.738  0.5181  0.6225  0.2630
 5791TIP3    H138932   0.946   4.620   1.719 -0.0247  0.0438  1.3197
 5791TIP3    H238933   0.913   4.716   1.832 -0.5012  1.0183  0.3692
 5792TIP3   OH238934   0.527   0.747   7.295  0.0976 -0.6362  0.4373
 5792TIP3    H138935   0.560   0.671   7.247  0.0598 -1.6427  1.9225
 5792TIP3    H238936   0.477   0.709   7.367 -1.9593  0.8189 -0.1355
 5793TIP3   OH238937   4.091   1.255   0.504 -0.2804  0.1836 -0.2553
 5793TIP3    H138938   4.094   1.336   0.554 -3.5281  1.4980 -1.9240
 5793TIP3    H238939   4.081   1.187   0.571 -1.5546  1.5876  1.0733
 5794TIP3   OH238940   5.265   3.561   8.052 -0.1051  0.1504 -0.4358
 5794TIP3    H138941   5.326   3.571   8.125 -2.1395 -0.5900  1.4793
 5794TIP3    H238942   5.280   3.473   8.019  0.1903  0.1592 -0.3290
 5795TIP3   OH238943   1.081   3.776   0.278  0.0705  0.4748 -0.3580
 5795TIP3    H138944   1.130   3.813   0.351  0.3126 -1.7128  0.6751
 5795TIP3    H238945   1.126   3.694   0.258 -1.3929 -0.1262 -1.3820
 5796TIP3   OH238946   6.801   6.332   0.186  0.7310  0.4299  0.1733
 5796TIP3    H138947   6.803   6.412   0.239 -2.8121  2.5552 -2.4506
 5796TIP3    H238948   6.766   6.266   0.246  0.9854  1.5608  1.6573
 5797TIP3   OH238949   5.482   5.498   1.210  0.2486 -0.8968 -0.0450
 5797TIP3    H138950   5.509   5.567   1.271 -1.7469 -0.2458  0.1628
 5797TIP3    H238951   5.555   5.436   1.211  0.4016 -0.8105  2.8540
 5798TIP3   OH238952   4.627   2.030   0.460 -0.2097 -0.1204  0.8098
 5798TIP3    H138953   4.642   2.053   0.552 -1.8141  1.5317  0.7183
 5798TIP3    H238954   4.557   2.089   0.432  0.3238 -0.5091 -1.5219
 5799TIP3   OH238955   0.749   4.678   2.843  0.2028  0.0322 -0.1929
 5799TIP3    H138956   0.657   4.692   2.821  0.3938  0.9090 -0.4834
 5799TIP3    H238957   0.783   4.626   2.770  0.4465  1.5745 -1.2254
 5800TIP3   OH238958   1.591   6.286   7.821  0.5776  0.2087  0.3103
 5800TIP3    H138959   1.649   6.227   7.870 -0.5008 -0.1468  1.1892
 5800TIP3    H238960   1.503   6.264   7.851  0.1850  3.0315  1.6166
 5801TIP3   OH238961   1.291   4.996   0.296  0.4217  0.1826 -0.4395
 5801TIP3    H138962   1.385   5.013   0.303  0.8010 -1.2517 -1.5342
 5801TIP3    H238963   1.266   5.033   0.211  0.8155 -2.5766 -1.8541
 5802TIP3   OH238964   5.955   4.132   8.186 -0.3426 -0.0039 -0.0167
 5802TIP3    H138965   5.961   4.098   8.276 -0.0359  1.3092  0.4811
 5802TIP3    H238966   6.029   4.192   8.179 -1.5260  1.4501 -0.4674
 5803TIP3   OH238967   3.205   4.883   0.492 -0.2755 -0.2529 -0.1307
 5803TIP3    H138968   3.148   4.925   0.556  0.6779  1.5781 -0.4061
 5803TIP3    H238969   3.150   4.874   0.414 -0.5558  0.3612 -0.0134
 5804TIP3   OH238970   6.875   5.320   0.818  0.1646  0.0838 -0.3380
 5804TIP3    H138971   6.812   5.349   0.884  1.1373  1.6108 -0.0401
 5804TIP3    H238972   6.917   5.243   0.856  1.0630  1.2240  1.0798
 5805TIP3   OH238973   3.665   4.243   8.338 -0.4161  0.1918  0.1174
 5805TIP3    H138974   3.725   4.317   8.348  0.7825 -0.7506  0.2004
 5805TIP3    H238975   3.637   4.246   8.247  1.7861 -0.7837 -0.6713
 5806TIP3   OH238976   4.044   5.150   7.712 -0.3992 -0.5570 -0.7473
 5806TIP3    H138977   3.988   5.104   7.649  0.8825 -0.5599 -1.9175
 5806TIP3    H238978   3.994   5.148   7.794 -2.0524 -0.6528 -1.7185
 5807TIP3   OH238979   6.505   0.694   7.766  0.2750  0.1818 -0.3694
 5807TIP3    H138980   6.449   0.694   7.843  0.8570 -0.4650  0.0729
 5807TIP3    H238981   6.510   0.786   7.740  0.2633  0.4494  0.5167
 5808TIP3   OH238982   6.654   1.539   7.129 -0.0349 -0.2016  0.0859
 5808TIP3    H138983   6.697   1.458   7.154  2.7400  0.9309 -0.6616
 5808TIP3    H238984   6.585   1.512   7.068 -0.9505 -2.1480  1.8609
 5809TIP3   OH238985   3.222   3.970   7.648 -0.3187  0.2963 -0.0598
 5809TIP3    H138986   3.274   4.030   7.594 -1.5798  2.0164  0.5066
 5809TIP3    H238987   3.135   3.973   7.608  0.1237 -3.4307 -1.7170
 5810TIP3   OH238988   1.235   5.616   2.319 -0.3271  0.2472 -0.4707
 5810TIP3    H138989   1.319   5.631   2.361 -1.3524  2.4344  0.9799
 5810TIP3    H238990   1.213   5.525   2.341  0.7126  0.2856  0.8565
 5811TIP3   OH238991   0.439   2.284   7.906  0.4470  0.0113  0.7073
 5811TIP3    H138992   0.382   2.237   7.967 -1.6349  0.0448 -1.0996
 5811TIP3    H238993   0.492   2.216   7.866  1.7759 -0.0238  2.4039
 5812TIP3   OH238994   6.677   5.836   7.619  0.0258 -0.2132  0.0518
 5812TIP3    H138995   6.700   5.927   7.601  1.7946 -0.8116 -0.8976
 5812TIP3    H238996   6.667   5.796   7.533  0.3730 -1.1832  0.4467
 5813TIP3   OH238997   3.378   5.197   7.225 -0.1371 -0.4090 -0.4293
 5813TIP3    H138998   3.322   5.190   7.148  0.2534 -2.2035 -0.6075
 5813TIP3    H238999   3.379   5.290   7.247 -2.8188 -0.2662 -0.6578
 5814TIP3   OH239000   2.690   1.928   1.941  0.5175  0.0177  0.4886
 5814TIP3    H139001   2.755   1.874   1.986  1.8308  0.5003 -0.7349
 5814TIP3    H239002   2.701   2.015   1.980 -0.0685 -0.1078  0.9397
 5815TIP3   OH239003   6.163   4.236   0.923 -0.2617 -0.2569 -0.4000
 5815TIP3    H139004   6.086   4.279   0.884 -0.4361  0.0696  0.2996
 5815TIP3    H239005   6.144   4.232   1.016  0.0623 -1.2395 -0.3710
 5816TIP3   OH239006   6.865   3.890   2.029  0.4628 -0.1448 -0.9785
 5816TIP3    H139007   6.775   3.910   2.005 -0.1309 -2.7241 -1.1754
 5816TIP3    H239008   6.883   3.948   2.103 -1.3824  0.3999 -0.9019
 5817TIP3   OH239009   0.632   3.627   1.507 -0.3260 -0.2292  0.0937
 5817TIP3    H139010   0.674   3.709   1.480 -0.3005 -0.2845 -0.0351
 5817TIP3    H239011   0.654   3.565   1.438  0.6480 -0.6656  0.7690
 5818TIP3   OH239012   1.081   0.591   8.230 -0.0615  0.1416 -0.1056
 5818TIP3    H139013   1.087   0.674   8.183 -1.0029 -0.3344 -1.0998
 5818TIP3    H239014   1.059   0.527   8.163 -1.5666 -0.5443  0.9863
 5819TIP3   OH239015   2.376   1.964   8.332 -0.1208 -0.3429 -0.2233
 5819TIP3    H139016   2.289   1.927   8.350 -0.8006  0.5451 -1.5423
 5819TIP3    H239017   2.436   1.898   8.366 -1.2842 -0.6730  1.3423
 5820TIP3   OH239018   5.935   4.192   7.076  0.3911 -0.1365  0.3736
 5820TIP3    H139019   5.904   4.282   7.064 -0.5446 -0.4395  0.3676
 5820TIP3    H239020   5.993   4.176   7.001 -1.0160 -0.1819 -0.7633
 5821TIP3   OH239021   4.590   2.780   0.309  0.0472 -0.3753  0.0471
 5821TIP3    H139022   4.588   2.689   0.337  1.2143 -0.3770  0.1595
 5821TIP3    H239023   4.534   2.782   0.232 -0.2039 -1.1332  0.1991
 5822TIP3   OH239024   0.476   0.747   7.962  0.1612  0.2222  0.3321
 5822TIP3    H139025   0.388   0.751   7.998  0.0423 -0.6858  0.1607
 5822TIP3    H239026   0.478   0.815   7.894 -0.3865  0.2614  0.3549
 5823TIP3   OH239027   3.312   2.346   7.543  0.2717 -0.0470  0.0381
 5823TIP3    H139028   3.229   2.316   7.507  0.5124 -0.5318 -0.1301
 5823TIP3    H239029   3.317   2.438   7.521  0.5502 -0.4004 -1.4593
 5824TIP3   OH239030   0.479   3.329   2.424  1.2792  0.0535 -0.3835
 5824TIP3    H139031   0.489   3.414   2.467 -0.4181  0.9921 -1.7045
 5824TIP3    H239032   0.523   3.341   2.339  1.1826 -0.4479 -0.5048
 5825TIP3   OH239033   4.459   0.338   0.422  0.6611 -0.0858  0.4504
 5825TIP3    H139034   4.429   0.427   0.441  0.9382 -0.1145  1.0305
 5825TIP3    H239035   4.452   0.330   0.326 -1.9522 -0.3429  0.5758
 5826TIP3   OH239036   5.906   3.157   8.389 -0.2610  0.3703  0.0224
 5826TIP3    H139037   6.000   3.177   8.392 -0.3767  0.8917  0.3017
 5826TIP3    H239038   5.863   3.241   8.405 -0.7700  0.0548  0.3356
 5827TIP3   OH239039   1.635   5.707   1.321 -0.6006  0.1376 -0.8072
 5827TIP3    H139040   1.666   5.767   1.253  0.8104 -0.1160 -0.4236
 5827TIP3    H239041   1.545   5.735   1.339  0.3005  2.8143  0.0505
 5828TIP3   OH239042   4.687   2.675   8.287 -0.2188 -0.1273 -0.1136
 5828TIP3    H139043   4.740   2.644   8.213 -2.7358 -4.2889 -0.4973
 5828TIP3    H239044   4.752   2.704   8.351  2.2347 -0.0867 -2.4003
 5829TIP3   OH239045   0.601   6.441   7.004  0.0852 -0.2772 -0.2438
 5829TIP3    H139046   0.611   6.345   7.000  0.1033 -0.2420 -1.5236
 5829TIP3    H239047   0.691   6.474   7.002  0.0656 -0.2255 -0.2567
 5830TIP3   OH239048   2.222   3.274   1.759 -0.3865  0.0069 -0.5946
 5830TIP3    H139049   2.273   3.344   1.800 -3.1167  2.2496 -0.7103
 5830TIP3    H239050   2.204   3.213   1.830  3.0109 -1.3710 -0.7303
 5831TIP3   OH239051   0.433   2.876   1.133  0.4448  0.2450 -0.3245
 5831TIP3    H139052   0.416   2.886   1.227  0.7808 -0.3940 -0.1829
 5831TIP3    H239053   0.529   2.875   1.127  0.4506 -1.2605 -0.4697
 5832TIP3   OH239054   1.103   1.013   1.317  0.0633 -0.2423 -0.3952
 5832TIP3    H139055   1.151   0.935   1.346 -2.4111 -1.7650 -0.0311
 5832TIP3    H239056   1.061   1.046   1.396  0.7390  1.2535 -0.6287
 5833TIP3   OH239057   2.822   3.198   0.305 -0.0155  0.0914  0.0686
 5833TIP3    H139058   2.913   3.189   0.335 -0.3651 -0.7744  0.9421
 5833TIP3    H239059   2.782   3.258   0.368  0.3371  1.8115 -1.2714
 5834TIP3   OH239060   6.763   6.368   2.256  0.1206  0.4309 -0.3183
 5834TIP3    H139061   6.802   6.362   2.169  0.3354 -0.0015 -0.1967
 5834TIP3    H239062   6.677   6.326   2.247 -0.0191  0.7342 -0.4133
 5835TIP3   OH239063   1.670   3.215   7.561  0.3547 -0.2883 -0.2911
 5835TIP3    H139064   1.649   3.131   7.520 -1.5841  0.0636 -0.1066
 5835TIP3    H239065   1.649   3.202   7.654 -0.7560  0.6224 -0.3994
 5836TIP3   OH239066   0.699   3.235   7.769  0.2763 -0.5206 -0.9134
 5836TIP3    H139067   0.750   3.307   7.732 -1.6483  2.0713  1.0783
 5836TIP3    H239068   0.754   3.200   7.839  0.5316  0.2410 -0.7255
 5837TIP3   OH239069   3.673   1.956   2.039 -0.5698  0.0523  0.3756
 5837TIP3    H139070   3.670   2.051   2.029  1.3429  0.0751 -0.4054
 5837TIP3    H239071   3.723   1.942   2.119  0.7090 -0.2714 -0.4468
 5838TIP3   OH239072   2.457   2.372   8.209  0.1141 -0.0680 -0.3666
 5838TIP3    H139073   2.508   2.449   8.187 -0.2668  0.7830  1.4863
 5838TIP3    H239074   2.393   2.403   8.273  0.6458 -2.0991  1.2841
 5839TIP3   OH239075   6.441   3.515   7.270 -0.2127  0.3289 -0.5700
 5839TIP3    H139076   6.367   3.495   7.328 -0.0049  1.7545  0.2191
 5839TIP3    H239077   6.457   3.432   7.224 -1.5129 -0.3500  0.1182
 5840TIP3   OH239078   2.881   2.831   1.363 -0.6842 -0.3894  0.2636
 5840TIP3    H139079   2.945   2.826   1.291 -0.9127  0.3047  0.0029
 5840TIP3    H239080   2.902   2.756   1.419 -0.1675 -0.6400 -0.2510
 5841TIP3   OH239081   2.803   3.419   1.888  0.2634 -0.1772  0.0305
 5841TIP3    H139082   2.803   3.376   1.974 -0.7057  0.5346  0.4057
 5841TIP3    H239083   2.893   3.447   1.876  0.4235 -0.3217  0.8111
 5842TIP3   OH239084   6.227   5.891   8.316 -0.3845  0.3059 -0.1867
 5842TIP3    H139085   6.229   5.865   8.224 -0.7395 -0.0561 -0.0934
 5842TIP3    H239086   6.147   5.942   8.325  0.3553  1.5284 -0.3875
 5843TIP3   OH239087   0.415   0.623   7.610  0.1305  0.1875  0.0607
 5843TIP3    H139088   0.411   0.716   7.636 -1.1280  0.1955 -0.0855
 5843TIP3    H239089   0.507   0.600   7.618  0.2979  1.1449  1.1923
 5844TIP3   OH239090   1.237   5.878   0.284  0.4474 -0.2235 -0.3621
 5844TIP3    H139091   1.296   5.895   0.211  0.9044  0.1748  0.0942
 5844TIP3    H239092   1.177   5.953   0.285  0.8364  0.0882  0.0524
 5845TIP3   OH239093   3.823   5.690   7.214  0.0353 -0.1594  0.4756
 5845TIP3    H139094   3.913   5.723   7.211 -0.0570  0.0236 -1.1878
 5845TIP3    H239095   3.830   5.597   7.192 -0.3647  0.3725 -2.2019
 5846TIP3   OH239096   3.006   0.979   0.512 -0.2981 -0.1090  0.9183
 5846TIP3    H139097   2.977   0.891   0.535  0.2015 -0.3502  0.6564
 5846TIP3    H239098   3.069   1.002   0.580 -0.9957  0.3620  1.4165
 5847TIP3   OH239099   3.202   4.793   1.177 -0.0630  0.4107  0.5507
 5847TIP3    H139100   3.220   4.886   1.190  0.6521  0.3646 -0.0480
 5847TIP3    H239101   3.279   4.748   1.209  0.0798  0.0969 -0.1993
 5848TIP3   OH239102   0.672   6.065   0.479  0.2607 -0.2702 -0.2179
 5848TIP3    H139103   0.662   5.992   0.418 -0.6475 -1.1942  0.9912
 5848TIP3    H239104   0.733   6.125   0.435  0.0781 -1.1673 -1.7609
 5849TIP3   OH239105   2.408   2.716   7.021  0.2040 -0.2349  0.0907
 5849TIP3    H139106   2.465   2.792   7.026  0.7597 -0.6935  0.8915
 5849TIP3    H239107   2.450   2.650   7.075 -0.1292 -1.2189 -0.7999
 5850TIP3   OH239108   0.707   0.587   1.748 -0.6084  0.0823 -0.8609
 5850TIP3    H139109   0.778   0.531   1.779  0.1164  0.1973 -2.2514
 5850TIP3    H239110   0.628   0.544   1.778 -0.1140 -2.0853 -2.4459
 5851TIP3   OH239111   6.326   1.654   0.122  0.2341  0.3163  0.0336
 5851TIP3    H139112   6.409   1.700   0.136  1.0403 -1.0549 -0.0661
 5851TIP3    H239113   6.288   1.697   0.046  1.9820 -0.5144 -1.3829
 5852TIP3   OH239114   6.685   4.268   6.878  0.1685  0.3147  0.3030
 5852TIP3    H139115   6.671   4.358   6.848  1.7412  0.6185  0.4214
 5852TIP3    H239116   6.713   4.220   6.799 -1.4643 -0.3074  0.0480
 5853TIP3   OH239117   1.160   3.949   1.612  0.1414 -0.6436  0.7807
 5853TIP3    H139118   1.248   3.923   1.588 -0.2832 -2.3092  0.9398
 5853TIP3    H239119   1.152   3.927   1.704 -0.5401 -0.8066  0.6913
 5854TIP3   OH239120   4.871   5.966   0.866 -0.4809 -0.0177  0.1217
 5854TIP3    H139121   4.950   5.913   0.852 -0.9718 -0.6363 -0.3448
 5854TIP3    H239122   4.807   5.904   0.900 -0.2162  0.8491  2.3872
 5855TIP3   OH239123   0.350   6.299   6.817  0.6054 -0.3843  0.3609
 5855TIP3    H139124   0.317   6.377   6.861  0.4033  0.5362 -1.3488
 5855TIP3    H239125   0.278   6.272   6.759  2.4976  1.4246 -3.1365
 5856TIP3   OH239126   3.891   2.427   0.608 -0.3368 -0.4257 -0.0326
 5856TIP3    H139127   3.801   2.400   0.589 -0.6111  0.6171 -0.2840
 5856TIP3    H239128   3.881   2.504   0.664  0.4067 -0.1720 -0.2411
 5857TIP3   OH239129   3.992   5.930   0.154 -0.2442 -0.2290  0.0207
 5857TIP3    H139130   4.079   5.935   0.116  0.1537  0.8735  1.0194
 5857TIP3    H239131   3.976   6.018   0.189 -2.0072 -0.2321 -0.6840
 5858TIP3   OH239132   4.430   0.250   0.684  0.2552 -0.1935 -0.7589
 5858TIP3    H139133   4.476   0.319   0.732 -0.8523 -0.3492  0.5669
 5858TIP3    H239134   4.398   0.294   0.605 -2.9823  1.7189  1.3968
 5859TIP3   OH239135   1.069   1.333   7.303 -0.6027  0.1263 -0.1202
 5859TIP3    H139136   1.010   1.288   7.363 -0.3132  1.0683  0.9027
 5859TIP3    H239137   1.055   1.426   7.320  0.9147  0.3796 -0.0844
 5860TIP3   OH239138   2.872   6.122   1.291 -0.3926  0.5383 -0.0469
 5860TIP3    H139139   2.910   6.129   1.379  0.4826  0.2279 -0.3890
 5860TIP3    H239140   2.783   6.154   1.301  0.2093  2.1026  0.5959
 5861TIP3   OH239141   5.795   0.290   7.882  0.2231  0.0950 -0.8593
 5861TIP3    H139142   5.718   0.278   7.938  0.1317  2.1278 -0.4714
 5861TIP3    H239143   5.783   0.377   7.843  1.9327  0.1160 -1.4211
 5862TIP3   OH239144   3.726   6.542   0.508 -0.0430 -1.0062 -0.0076
 5862TIP3    H139145   3.658   6.546   0.440 -0.4648  0.0317  0.4517
 5862TIP3    H239146   3.806   6.569   0.464 -0.2566 -0.6306 -0.1714
 5863TIP3   OH239147   1.396   2.530   0.191 -0.6562 -0.0619  0.2183
 5863TIP3    H139148   1.486   2.552   0.167 -0.9005  1.0021  0.2143
 5863TIP3    H239149   1.385   2.440   0.161  0.9940 -0.8973  1.9365
 5864TIP3   OH239150   3.005   2.019   0.547 -0.3126  0.2467 -0.1637
 5864TIP3    H139151   2.944   2.051   0.613 -0.5336 -0.6014  0.0567
 5864TIP3    H239152   2.980   1.928   0.533 -0.0503  0.3135 -1.1730
 5865TIP3   OH239153   1.116   2.830   7.759  0.2618  0.0607 -0.0920
 5865TIP3    H139154   1.070   2.821   7.676  0.8306  0.0831 -0.4164
 5865TIP3    H239155   1.186   2.765   7.755  2.2984  2.1441 -1.0134
 5866TIP3   OH239156   1.177   0.341   0.679  0.0052 -0.1214  0.6939
 5866TIP3    H139157   1.216   0.413   0.729  1.9888 -1.8815  1.8427
 5866TIP3    H239158   1.150   0.278   0.746 -2.4984 -0.1222 -0.2387
 5867TIP3   OH239159   2.402   3.305   6.109  0.3935 -0.4442  0.3005
 5867TIP3    H139160   2.329   3.362   6.135 -0.0714 -0.1201 -1.5417
 5867TIP3    H239161   2.431   3.340   6.025 -0.1702 -3.1289 -1.1336
 5868TIP3   OH239162   1.961   0.873   1.541 -0.1899  1.1677  0.3443
 5868TIP3    H139163   1.875   0.854   1.579 -0.3072  1.4081  0.1995
 5868TIP3    H239164   1.964   0.822   1.461  0.7631 -0.7710  1.5299
 5869TIP3   OH239165   6.075   2.301   7.408 -0.0797  0.3874 -0.5613
 5869TIP3    H139166   6.123   2.230   7.367  1.8078  1.1315  0.2478
 5869TIP3    H239167   6.011   2.328   7.342 -1.0944 -2.2281 -0.7666
 5870TIP3   OH239168   2.027   2.489   1.117  0.2762  0.2807  0.2944
 5870TIP3    H139169   1.957   2.546   1.088 -0.7714 -1.1901 -0.1754
 5870TIP3    H239170   2.107   2.536   1.095 -0.5468  1.6581  0.1600
 5871TIP3   OH239171   0.671   1.016   1.504  0.2070  0.9162 -0.1798
 5871TIP3    H139172   0.762   1.047   1.503 -0.8653  4.4970  0.0092
 5871TIP3    H239173   0.658   0.985   1.594  0.2957  4.1018  1.0839
 5872TIP3   OH239174   1.198   4.214   8.520 -0.3491 -0.0692  0.3550
 5872TIP3    H139175   1.273   4.273   8.526  0.0322 -0.6384  1.4686
 5872TIP3    H239176   1.199   4.165   8.602  0.7696 -3.3097 -1.4000
 5873TIP3   OH239177   4.803   4.839   7.680 -0.3326 -0.1843  0.1862
 5873TIP3    H139178   4.886   4.883   7.697 -0.5205  0.3068 -0.1286
 5873TIP3    H239179   4.825   4.767   7.621  0.0491 -0.8132  1.0709
 5874TIP3   OH239180   5.951   1.010   7.282 -0.2908  0.2305 -0.1250
 5874TIP3    H139181   6.024   1.055   7.240  0.3154 -0.0005  0.6710
 5874TIP3    H239182   5.959   0.919   7.254 -0.4479  0.2602 -0.2695
 5875TIP3   OH239183   4.010   6.295   2.550 -0.1769 -0.7137 -0.2419
 5875TIP3    H139184   3.960   6.217   2.524  1.7253 -2.8981  2.0726
 5875TIP3    H239185   4.024   6.284   2.644 -0.3728  2.8603  0.3577
 5876TIP3   OH239186   5.101   4.542   1.505  0.2565 -0.2660 -0.1021
 5876TIP3    H139187   5.025   4.559   1.561  0.2882 -0.3666 -0.0281
 5876TIP3    H239188   5.120   4.626   1.464  1.1602  0.1938  1.1854
 5877TIP3   OH239189   0.739   2.413   1.940  0.1420 -0.8417  0.2721
 5877TIP3    H139190   0.705   2.371   2.019  1.4302 -0.1079  1.2554
 5877TIP3    H239191   0.675   2.482   1.921 -0.2866 -1.1546  0.5344
 5878TIP3   OH239192   0.889   3.844   0.751  0.1178 -0.6112 -0.2479
 5878TIP3    H139193   0.919   3.890   0.673  1.1359 -1.0091 -0.1099
 5878TIP3    H239194   0.970   3.817   0.795 -0.4491 -0.9547  0.6036
 5879TIP3   OH239195   6.122   4.011   0.140  0.0265  0.9344  0.2423
 5879TIP3    H139196   6.143   4.073   0.209  1.1322  1.5939 -0.6327
 5879TIP3    H239197   6.178   3.935   0.158 -0.3562  0.7308  0.5769
 5880TIP3   OH239198   2.750   0.737   0.901 -0.1582 -0.1200 -0.1212
 5880TIP3    H139199   2.822   0.677   0.878  0.5433  0.7541 -0.2609
 5880TIP3    H239200   2.675   0.705   0.850 -0.0341 -1.3748  0.4492
 5881TIP3   OH239201   4.993   0.057   6.686  0.0658 -0.1028  0.7180
 5881TIP3    H139202   5.004   0.014   6.601  2.4030  1.4685  0.1246
 5881TIP3    H239203   4.900   0.049   6.705 -0.3416 -1.4459 -1.4695
 5882TIP3   OH239204   2.282   3.613   6.542 -0.3740 -0.1095 -0.2511
 5882TIP3    H139205   2.187   3.608   6.536 -0.2915 -0.6473 -1.2663
 5882TIP3    H239206   2.299   3.691   6.596 -1.3659  0.6684 -1.0360
 5883TIP3   OH239207   6.483   2.296   7.185 -0.2021  0.0835  0.3561
 5883TIP3    H139208   6.397   2.338   7.192 -0.3117 -0.1766  0.6083
 5883TIP3    H239209   6.463   2.207   7.156 -0.0662 -0.1800  1.0739
 5884TIP3   OH239210   5.389   6.531   7.720 -0.2092 -0.5870 -0.5177
 5884TIP3    H139211   5.468   6.580   7.744 -1.5147  0.9311  0.9128
 5884TIP3    H239212   5.421   6.463   7.661  2.0934  0.2812 -0.3985
 5885TIP3   OH239213   1.199   6.259   6.504 -0.1408 -0.1690 -0.0729
 5885TIP3    H139214   1.225   6.236   6.414 -1.0521  0.6275 -0.5633
 5885TIP3    H239215   1.138   6.189   6.529 -2.6361  1.3742 -1.4325
 5886TIP3   OH239216   6.887   0.968   8.495  0.4507 -0.2958  0.0265
 5886TIP3    H139217   6.821   1.018   8.448 -1.7796 -1.6231  1.5323
 5886TIP3    H239218   6.968   1.017   8.484 -1.3627  3.0929  0.5888
 5887TIP3   OH239219   4.438   3.961   0.160 -0.2889  0.8585  0.4202
 5887TIP3    H139220   4.426   3.934   0.251  0.6822  0.9318  0.5828
 5887TIP3    H239221   4.508   4.027   0.164  0.5001  0.1023 -0.4899
 5888TIP3   OH239222   5.429   2.332   8.026  0.0338 -0.3970  0.8086
 5888TIP3    H139223   5.489   2.265   7.994  0.8659  0.1051  1.3131
 5888TIP3    H239224   5.438   2.404   7.964  0.2706 -0.1533  1.1252
 5889TIP3   OH239225   1.295   5.151   0.728 -0.2745  0.5601  0.2718
 5889TIP3    H139226   1.310   5.243   0.706 -2.4318  0.6295 -1.2986
 5889TIP3    H239227   1.238   5.154   0.804  0.5358  0.4763  0.8930
 5890TIP3   OH239228   1.811   0.239   1.117 -0.5868 -0.0589  0.2972
 5890TIP3    H139229   1.723   0.199   1.118 -0.7955  0.3997  0.9882
 5890TIP3    H239230   1.851   0.206   1.036 -0.8681 -1.4105  0.6857
 5891TIP3   OH239231   6.210   6.423   7.231  0.7190  0.0984  0.4637
 5891TIP3    H139232   6.241   6.438   7.320 -1.0164  3.3698  0.6663
 5891TIP3    H239233   6.168   6.337   7.234  0.1424  0.3930  3.0044
 5892TIP3   OH239234   1.677   3.889   1.574  0.3676 -0.2786 -0.3930
 5892TIP3    H139235   1.726   3.890   1.491  0.2970  1.9234 -0.4598
 5892TIP3    H239236   1.706   3.968   1.620 -2.0381  0.3440  0.1983
 5893TIP3   OH239237   5.888   6.415   7.068 -0.3952 -0.4283 -0.0244
 5893TIP3    H139238   5.865   6.323   7.078 -0.1638 -0.3901  0.9856
 5893TIP3    H239239   5.886   6.450   7.157  0.5014  0.2970 -0.2736
 5894TIP3   OH239240   0.133   3.197   6.208  0.1021 -0.2214  0.4324
 5894TIP3    H139241   0.193   3.177   6.280 -1.7640 -2.2820  1.5223
 5894TIP3    H239242   0.167   3.146   6.134  0.5998 -0.0747  0.5532
 5895TIP3   OH239243   3.824   6.700   7.871 -0.2602  0.0760  0.4234
 5895TIP3    H139244   3.748   6.647   7.847 -1.0000  1.3687 -0.1607
 5895TIP3    H239245   3.875   6.707   7.790  1.2337 -1.9011  1.1129
 5896TIP3   OH239246   0.639   2.375   8.326  0.2226  0.0007 -0.0302
 5896TIP3    H139247   0.612   2.467   8.333  2.4261  0.6737  0.4896
 5896TIP3    H239248   0.684   2.357   8.409  3.0245 -0.3685 -1.5312
 5897TIP3   OH239249   6.776   4.187   7.993  0.3960 -0.5896 -0.2843
 5897TIP3    H139250   6.806   4.106   8.035  1.0855 -1.3891 -2.2136
 5897TIP3    H239251   6.798   4.175   7.901 -1.2787  0.9915 -0.9280
 5898TIP3   OH239252   5.550   4.709   6.976 -0.1237  0.5475 -0.2645
 5898TIP3    H139253   5.574   4.801   6.968  1.3315  0.0723 -2.3777
 5898TIP3    H239254   5.632   4.662   6.959 -0.7635 -1.1446  1.1116
 5899TIP3   OH239255   3.838   4.310   8.622  0.3878 -0.0589  0.4082
 5899TIP3    H139256   3.853   4.359   8.542 -1.4527  2.3430  1.3752
 5899TIP3    H239257   3.889   4.230   8.613  0.4383  0.2514 -2.9967
 5900TIP3   OH239258   2.361   1.249   0.954  0.0288  0.1029  0.7840
 5900TIP3    H139259   2.430   1.267   0.889 -0.2243  0.3047  0.5676
 5900TIP3    H239260   2.357   1.154   0.958 -1.8926 -0.0248 -1.6277
 5901TIP3   OH239261   1.205   5.094   0.058 -1.2269 -0.0323  0.3504
 5901TIP3    H139262   1.258   5.172   0.045  0.1261 -0.6460  1.8344
 5901TIP3    H239263   1.199   5.055  -0.029  2.0337 -0.6699  0.2720
 5902TIP3   OH239264   5.879   5.772   0.990 -0.1776  0.0332  0.4923
 5902TIP3    H139265   5.815   5.734   0.930  0.3690 -0.0823 -0.0335
 5902TIP3    H239266   5.948   5.806   0.932 -1.7318  4.1011  0.6740
 5903TIP3   OH239267   0.837   2.090   1.579  0.2624  0.2702 -0.4416
 5903TIP3    H139268   0.758   2.136   1.607  0.8908  0.4397  1.1617
 5903TIP3    H239269   0.909   2.137   1.622  0.9863 -1.7466  0.6866
 5904TIP3   OH239270   3.128   1.411   6.698 -0.6803  0.2157 -0.1195
 5904TIP3    H139271   3.040   1.401   6.662 -0.2449 -0.0001 -1.1623
 5904TIP3    H239272   3.186   1.383   6.627  0.1839 -1.4142  1.1631
 5905TIP3   OH239273   5.971   4.524   1.784  0.1194 -0.0908  0.1109
 5905TIP3    H139274   5.900   4.462   1.772  1.3331 -1.2366 -1.7564
 5905TIP3    H239275   5.993   4.519   1.877  0.7278 -3.1643 -0.0927
 5906TIP3   OH239276   0.842   5.563   7.068 -0.6508  0.6355  0.6581
 5906TIP3    H139277   0.831   5.638   7.009  2.1568  0.7894  0.2093
 5906TIP3    H239278   0.826   5.487   7.013  2.2097  0.7639 -0.5485
 5907TIP3   OH239279   6.208   4.252   8.520  0.6411  0.3863 -0.4506
 5907TIP3    H139280   6.290   4.282   8.558  1.2666  0.1340 -1.5394
 5907TIP3    H239281   6.146   4.251   8.593  2.2562 -1.9967  1.0232
 5908TIP3   OH239282   5.453   4.611   1.432  0.4280  0.2826  0.4723
 5908TIP3    H139283   5.464   4.697   1.393 -0.3685  1.1869  2.1676
 5908TIP3    H239284   5.367   4.613   1.474  0.9337 -0.8634  1.6567
 5909TIP3   OH239285   1.630   4.247   7.383 -0.2214  0.4482  0.3952
 5909TIP3    H139286   1.701   4.210   7.330  1.1239 -1.7407  3.4884
 5909TIP3    H239287   1.668   4.325   7.423 -0.2534  0.4434  0.4356
 5910TIP3   OH239288   3.238   6.395   0.809  0.3514  0.2104 -0.4918
 5910TIP3    H139289   3.143   6.405   0.808  0.1447 -1.3953  0.0664
 5910TIP3    H239290   3.262   6.384   0.717  0.2004  2.0534 -0.7818
 5911TIP3   OH239291   6.824   3.946   7.510  0.2274  0.8548 -0.8731
 5911TIP3    H139292   6.844   3.916   7.599 -2.8355  1.3382  0.1049
 5911TIP3    H239293   6.859   4.035   7.506  0.0427  0.9777  0.0195
 5912TIP3   OH239294   0.136   2.884   8.095 -1.0142 -0.4476  0.8317
 5912TIP3    H139295   0.156   2.971   8.130 -1.5748  0.2485 -0.4912
 5912TIP3    H239296   0.180   2.824   8.154 -0.3214  0.7513  1.5869
 5913TIP3   OH239297   3.196   6.864   0.542 -0.1513 -0.0184 -0.2097
 5913TIP3    H139298   3.146   6.888   0.464  0.6850 -1.3818 -1.2102
 5913TIP3    H239299   3.287   6.866   0.513  0.1487 -0.8742  0.6237
 5914TIP3   OH239300   0.988   0.212   1.648  0.2407 -0.5118  0.2681
 5914TIP3    H139301   0.915   0.269   1.670 -1.1752 -2.2331  0.2341
 5914TIP3    H239302   1.052   0.228   1.718 -1.3589 -1.0142  1.9360
 5915TIP3   OH239303   6.285   5.210   8.190  0.1126  0.2176 -0.1965
 5915TIP3    H139304   6.314   5.157   8.264  0.5439  1.7364  0.7794
 5915TIP3    H239305   6.345   5.187   8.119  0.8111 -0.0013  0.4568
 5916TIP3   OH239306   5.389   3.080   2.164 -0.0008 -0.2326 -0.1374
 5916TIP3    H139307   5.395   3.086   2.260  2.3083 -2.0101 -0.0627
 5916TIP3    H239308   5.353   2.992   2.148  3.4155 -1.7123 -0.7468
 5917TIP3   OH239309   2.249   1.563   7.418  0.5769  0.2181 -0.5177
 5917TIP3    H139310   2.240   1.627   7.488 -1.9178  0.4026 -0.9142
 5917TIP3    H239311   2.344   1.557   7.402  1.0163  2.0625  1.0823
 5918TIP3   OH239312   4.513   5.742   0.657  0.2350  0.3667  0.4123
 5918TIP3    H139313   4.461   5.822   0.648  0.1822  0.1677 -1.5265
 5918TIP3    H239314   4.452   5.672   0.633  0.9430 -0.0244 -0.2546
 5919TIP3   OH239315   2.140   5.241   2.404  0.2745  0.2777 -0.3788
 5919TIP3    H139316   2.124   5.319   2.352  0.8775  0.2794 -0.5662
 5919TIP3    H239317   2.082   5.251   2.480  1.9620  2.0264  0.7698
 5920TIP3   OH239318   0.700   2.856   1.087  0.2296  0.2075  0.2170
 5920TIP3    H139319   0.763   2.883   1.153 -1.1355  2.8860  0.5480
 5920TIP3    H239320   0.728   2.901   1.007 -0.7663  0.8043  0.1821
 5921TIP3   OH239321   2.883   0.517   8.080  0.1672  0.3358 -0.4379
 5921TIP3    H139322   2.969   0.480   8.097 -0.5404 -0.5873  1.3767
 5921TIP3    H239323   2.875   0.590   8.142 -0.5425  0.1019 -0.2414
 5922TIP3   OH239324   4.607   6.799   7.825  0.2391  0.3278 -0.1757
 5922TIP3    H139325   4.661   6.725   7.850  0.6775  0.5644 -0.4198
 5922TIP3    H239326   4.570   6.775   7.740 -0.2003  0.0861  0.0760
 5923TIP3   OH239327   4.209   6.420   0.622  0.3074  0.1753  0.1940
 5923TIP3    H139328   4.203   6.388   0.532 -0.3784 -1.9740  0.9433
 5923TIP3    H239329   4.155   6.499   0.622  0.4451  0.3013 -1.3140
 5924TIP3   OH239330   3.080   1.862   1.058  0.1969  0.3263  0.0051
 5924TIP3    H139331   3.085   1.768   1.077  1.9172  0.7751  2.2380
 5924TIP3    H239332   3.141   1.875   0.985 -1.6161 -0.5102 -1.7655
 5925TIP3   OH239333   4.814   0.498   2.182  0.5474 -0.3082 -1.1560
 5925TIP3    H139334   4.891   0.529   2.135 -0.1811 -0.5891 -2.5847
 5925TIP3    H239335   4.740   0.541   2.139 -0.2070 -1.2297 -0.8236
 5926TIP3   OH239336   2.209   3.150   6.792  0.1037 -0.0212  0.8187
 5926TIP3    H139337   2.172   3.188   6.872  1.3228  1.7742  0.5713
 5926TIP3    H239338   2.193   3.215   6.724  0.9672 -0.5869  0.0453
 5927TIP3   OH239339   4.445   3.336   7.509  0.2586  0.3679  0.1266
 5927TIP3    H139340   4.350   3.352   7.507  0.2781  0.7433  1.5195
 5927TIP3    H239341   4.465   3.319   7.601  1.8063  1.9215  0.1322
 5928TIP3   OH239342   2.553   6.845   1.829 -0.6812  0.2895 -0.4294
 5928TIP3    H139343   2.642   6.878   1.839 -0.5777  0.2882 -1.2539
 5928TIP3    H239344   2.500   6.924   1.814 -0.6774  0.2238 -0.8117
 5929TIP3   OH239345   6.135   1.230   8.393  0.1578 -0.3213  0.2917
 5929TIP3    H139346   6.182   1.309   8.369 -2.6927  1.3894 -0.0849
 5929TIP3    H239347   6.065   1.222   8.328 -1.5197 -1.3803  2.1013
 5930TIP3   OH239348   3.537   1.520   1.101 -0.4832  0.0215 -0.2442
 5930TIP3    H139349   3.484   1.441   1.087 -0.7525  0.2537 -0.5537
 5930TIP3    H239350   3.574   1.509   1.188  3.4001 -2.7709 -1.9223
 5931TIP3   OH239351   0.784   3.503   8.417  0.0269  0.2908 -0.1165
 5931TIP3    H139352   0.870   3.478   8.381  0.5331  1.6086  0.1268
 5931TIP3    H239353   0.773   3.446   8.494  1.5837  1.3717  0.9764
 5932TIP3   OH239354   1.719   6.575   0.882 -0.7290  0.3383  0.4535
 5932TIP3    H139355   1.667   6.644   0.841 -1.2639  0.4544  1.3123
 5932TIP3    H239356   1.666   6.544   0.955  0.4155  0.4740  1.3725
 5933TIP3   OH239357   0.547   0.432   7.326  0.0398  0.2631 -0.3594
 5933TIP3    H139358   0.500   0.356   7.291 -0.5000  0.8719 -0.9626
 5933TIP3    H239359   0.574   0.404   7.413 -1.8505  0.0647  0.2027
 5934TIP3   OH239360   5.631   4.994   0.297 -0.2471 -0.2038 -0.5958
 5934TIP3    H139361   5.554   4.937   0.291  0.4946 -1.4374  0.8816
 5934TIP3    H239362   5.595   5.082   0.295 -1.7487 -0.7418  0.2276
 5935TIP3   OH239363   3.202   3.426   1.785 -0.1747 -0.6085  0.2278
 5935TIP3    H139364   3.146   3.484   1.837  1.0501  0.9058 -0.0906
 5935TIP3    H239365   3.143   3.390   1.718 -0.6078  1.7410 -0.7367
 5936TIP3   OH239366   5.382   1.963   1.172  0.2969  0.2084 -0.7744
 5936TIP3    H139367   5.411   1.979   1.263  1.0858  2.0967 -1.3008
 5936TIP3    H239368   5.455   1.917   1.132 -0.0247 -0.5687 -0.4812
 5937TIP3   OH239369   0.641   2.340   0.454 -0.4551 -0.1624 -0.2321
 5937TIP3    H139370   0.701   2.342   0.528  0.4070  0.2089 -0.9204
 5937TIP3    H239371   0.645   2.250   0.421  0.3752  0.0698 -0.7853
 5938TIP3   OH239372   5.534   1.723   1.514  0.2363 -0.1340  0.0954
 5938TIP3    H139373   5.611   1.704   1.460 -0.5407 -1.7800 -0.5060
 5938TIP3    H239374   5.557   1.692   1.601 -0.4953 -2.8455 -0.5707
 5939TIP3   OH239375   0.483   1.028   0.616  0.0133 -0.0523 -0.1026
 5939TIP3    H139376   0.393   1.022   0.583  0.1834 -3.0606 -0.2786
 5939TIP3    H239377   0.534   0.973   0.557  1.7036  0.3011  0.9454
 5940TIP3   OH239378   1.591   2.596   6.611 -0.7214 -0.5936 -0.3808
 5940TIP3    H139379   1.601   2.692   6.614  0.6946 -0.7081 -0.7605
 5940TIP3    H239380   1.645   2.569   6.537  0.1535 -1.8147  0.6647
 5941TIP3   OH239381   2.551   2.177   7.822  0.6930 -0.1186  0.0595
 5941TIP3    H139382   2.609   2.253   7.820 -0.0251  0.5129  1.5845
 5941TIP3    H239383   2.526   2.168   7.914 -1.3818 -0.5374 -0.4831
 5942TIP3   OH239384   2.844   0.094   7.226  0.3068  0.1783 -0.0512
 5942TIP3    H139385   2.888   0.038   7.162 -0.1820 -1.3799  0.9218
 5942TIP3    H239386   2.804   0.163   7.173 -2.4492 -2.5262 -1.8865
 5943TIP3   OH239387   4.017   4.775   7.136  0.0534  0.4320 -0.1805
 5943TIP3    H139388   4.036   4.855   7.185  1.3326  1.6720 -2.5084
 5943TIP3    H239389   4.053   4.792   7.048 -0.1761 -2.4723 -0.9344
 5944TIP3   OH239390   2.700   1.831   1.019  0.0939  0.5356  0.1064
 5944TIP3    H139391   2.735   1.920   1.016  2.0108 -0.1834 -1.0794
 5944TIP3    H239392   2.757   1.781   0.960 -0.5816 -1.5930  1.1456
 5945TIP3   OH239393   5.481   1.334   7.237 -0.5637 -0.5241 -0.0960
 5945TIP3    H139394   5.417   1.304   7.302 -0.5802 -0.4832 -0.0937
 5945TIP3    H239395   5.457   1.425   7.220 -0.5094 -0.5107 -0.0990
 5946TIP3   OH239396   3.650   0.357   7.742  0.1905 -0.6059  0.5375
 5946TIP3    H139397   3.596   0.436   7.733 -1.3233 -1.5254  1.1430
 5946TIP3    H239398   3.665   0.349   7.836  0.0201 -1.2404  0.5116
 5947TIP3   OH239399   1.861   4.153   8.543  0.1225 -0.4068  0.3444
 5947TIP3    H139400   1.875   4.091   8.613  1.3836  1.3537  1.7342
 5947TIP3    H239401   1.783   4.121   8.498  0.6012 -2.8229  1.1137
 5948TIP3   OH239402   0.070   4.441   0.873 -0.2049  0.2754  0.1707
 5948TIP3    H139403   0.140   4.380   0.852  0.0316  0.4017  0.5797
 5948TIP3    H239404   0.091   4.520   0.824 -0.6546 -0.0536 -0.5713
 5949TIP3   OH239405   0.851   2.893   1.303 -0.7082  0.7436 -0.1765
 5949TIP3    H139406   0.902   2.960   1.347  1.8164  0.2879 -2.1573
 5949TIP3    H239407   0.843   2.823   1.368 -2.7509  2.5265  1.6606
 5950TIP3   OH239408   3.241   1.810   0.811 -0.2957 -0.2100  0.0727
 5950TIP3    H139409   3.247   1.740   0.746 -2.6823  0.4819 -0.9860
 5950TIP3    H239410   3.306   1.875   0.783 -1.6991  0.3712 -2.0505
 5951TIP3   OH239411   5.154   6.573   8.393  0.9460  0.5788  0.0442
 5951TIP3    H139412   5.082   6.529   8.347  0.6330  1.7003 -0.5876
 5951TIP3    H239413   5.230   6.516   8.379  0.1787 -0.6730  0.8071
 5952TIP3   OH239414   4.914   3.759   8.524  0.2956 -0.7419  0.1630
 5952TIP3    H139415   4.900   3.853   8.529  0.1035 -0.7494 -0.1766
 5952TIP3    H239416   4.828   3.720   8.537  0.2574 -0.8442 -0.3392
 5953TIP3   OH239417   4.200   1.536   8.024  0.0838  0.0439 -0.1880
 5953TIP3    H139418   4.211   1.451   8.065 -0.5748  0.5634  1.1285
 5953TIP3    H239419   4.276   1.587   8.052 -1.3115  1.0146  2.0883
 5954TIP3   OH239420   6.771   6.690   1.689  0.2061  0.6130  0.3365
 5954TIP3    H139421   6.808   6.749   1.755  2.0617 -1.1376  0.9422
 5954TIP3    H239422   6.814   6.715   1.608  0.9599  0.1482  0.5844
 5955TIP3   OH239423   1.320   2.920   6.347 -0.3552  0.1723 -0.2080
 5955TIP3    H139424   1.290   2.845   6.400  1.1921 -0.3868 -0.0785
 5955TIP3    H239425   1.239   2.964   6.321 -1.2040  0.1861  2.2069
 5956TIP3   OH239426   3.623   3.324   5.838 -0.3865 -0.0954  0.9764
 5956TIP3    H139427   3.588   3.260   5.776 -2.0017  1.1494  0.5360
 5956TIP3    H239428   3.712   3.340   5.809 -0.1229 -1.7211  0.7810
 5957TIP3   OH239429   4.382   2.593   7.245 -0.0156 -0.0716  0.1908
 5957TIP3    H139430   4.378   2.499   7.232 -1.6312  0.1328 -1.0913
 5957TIP3    H239431   4.362   2.606   7.338  0.5356 -0.9841  0.4454
 5958TIP3   OH239432   1.823   3.618   1.850 -0.1987 -0.3701 -0.2446
 5958TIP3    H139433   1.846   3.687   1.912 -2.5792  0.5528 -0.2684
 5958TIP3    H239434   1.902   3.606   1.797  1.2037  0.2926  1.5883
 5959TIP3   OH239435   5.489   2.014   7.262 -0.0617 -0.2370  0.9778
 5959TIP3    H139436   5.504   2.071   7.187 -0.8854 -0.4871  0.6115
 5959TIP3    H239437   5.575   1.978   7.283 -0.0566 -1.4593 -0.9061
 5960TIP3   OH239438   4.716   6.207   2.141  0.0001 -0.2254 -0.6926
 5960TIP3    H139439   4.804   6.240   2.155  0.2861 -1.0194 -0.5626
 5960TIP3    H239440   4.659   6.283   2.154  0.4971 -0.1353  1.3243
 5961TIP3   OH239441   0.656   3.919   1.503  0.5086 -0.2394 -0.0617
 5961TIP3    H139442   0.622   3.967   1.579  1.0943  1.3514 -0.7671
 5961TIP3    H239443   0.750   3.938   1.501  0.6926 -1.1025 -0.6083
 5962TIP3   OH239444   5.406   4.595   0.842  0.4814 -0.4224  0.4203
 5962TIP3    H139445   5.379   4.599   0.750 -0.2872 -0.8854  0.6111
 5962TIP3    H239446   5.432   4.684   0.864 -0.1377 -0.1312 -0.0113
 5963TIP3   OH239447   4.698   3.386   7.980  0.8596 -0.4519  0.0034
 5963TIP3    H139448   4.787   3.388   7.945  0.5762  0.9496 -0.7524
 5963TIP3    H239449   4.694   3.462   8.038 -0.1923  0.2623 -0.9590
 5964TIP3   OH239450   0.285   0.658   8.459 -0.3750  0.4954  0.2211
 5964TIP3    H139451   0.324   0.745   8.466 -0.9779  0.7851  0.0674
 5964TIP3    H239452   0.192   0.671   8.480 -0.7564  0.1324 -1.1233
 5965TIP3   OH239453   1.180   1.491   6.183  0.4038  0.1936 -0.0635
 5965TIP3    H139454   1.239   1.449   6.120 -0.2191  0.4720 -0.8491
 5965TIP3    H239455   1.170   1.580   6.150 -0.0451  0.2987  0.3503
 5966TIP3   OH239456   3.143   3.516   7.222 -0.1744 -0.3839 -0.3535
 5966TIP3    H139457   3.235   3.518   7.194  0.2376  1.7091  0.9336
 5966TIP3    H239458   3.116   3.425   7.207  2.4589 -1.4068  0.4165
 5967TIP3   OH239459   6.135   1.687   8.239  0.0000  0.3161  0.2586
 5967TIP3    H139460   6.188   1.697   8.160 -0.7468 -1.6880 -0.5926
 5967TIP3    H239461   6.050   1.726   8.216  0.5138  1.9315  0.9861
 5968TIP3   OH239462   2.340   1.953   7.055  0.1817 -0.4444 -0.2969
 5968TIP3    H139463   2.287   1.875   7.037 -2.6896  1.0241  1.1298
 5968TIP3    H239464   2.295   2.023   7.009  0.2818  1.0453  1.7358
 5969TIP3   OH239465   5.303   6.659   6.592  0.1176  0.5993 -0.0719
 5969TIP3    H139466   5.220   6.664   6.545  0.9950 -0.9548 -1.9119
 5969TIP3    H239467   5.359   6.724   6.550  0.9820 -0.9589 -1.4291
 5970TIP3   OH239468   6.093   4.925   7.627 -0.3729  0.2438 -0.7089
 5970TIP3    H139469   6.020   4.986   7.641 -0.2805 -0.1158  1.7873
 5970TIP3    H239470   6.051   4.845   7.597 -0.8663  0.4763 -0.6516
 5971TIP3   OH239471   4.127   2.177   8.521 -0.6312  0.0849  0.4362
 5971TIP3    H139472   4.133   2.162   8.426 -1.6114 -0.0371  0.3898
 5971TIP3    H239473   4.095   2.094   8.556 -1.5546  0.5513  0.7184
 5972TIP3   OH239474   2.595   2.185   1.637 -0.6812  0.2977  0.1951
 5972TIP3    H139475   2.536   2.238   1.692  0.0346  0.5135  0.7700
 5972TIP3    H239476   2.682   2.223   1.652 -0.2392 -0.6841  0.1747
 5973TIP3   OH239477   1.905   1.632   1.388 -0.5158 -0.4701 -0.5237
 5973TIP3    H139478   1.911   1.649   1.482 -1.9289 -2.3365 -0.0449
 5973TIP3    H239479   1.986   1.585   1.367  0.1028  0.5106 -0.4087
 5974TIP3   OH239480   4.338   6.835   1.952  0.1489 -0.4298  0.7478
 5974TIP3    H139481   4.331   6.743   1.976  0.4668 -0.2836  1.4288
 5974TIP3    H239482   4.271   6.847   1.884  1.5056 -1.6402 -0.8957
 5975TIP3   OH239483   5.281   0.486   8.465  0.3695 -0.6413 -0.9209
 5975TIP3    H139484   5.275   0.440   8.549 -0.5752  0.1964 -0.5018
 5975TIP3    H239485   5.335   0.563   8.484  1.2965 -1.1552 -1.4262
 5976TIP3   OH239486   4.711   2.881   7.000  0.4451  0.2384 -0.0618
 5976TIP3    H139487   4.796   2.922   7.011  0.4028  0.7713 -1.5575
 5976TIP3    H239488   4.696   2.835   7.083  2.2750 -0.0600  0.1461
 5977TIP3   OH239489   3.856   4.049   8.411 -0.5761 -0.5289 -0.4468
 5977TIP3    H139490   3.786   4.096   8.365 -0.9077  0.9049  1.3988
 5977TIP3    H239491   3.811   3.987   8.468 -0.4359  0.7171  1.0892
 5978TIP3   OH239492   0.679   3.668   7.657  0.2209  0.3450  0.8104
 5978TIP3    H139493   0.619   3.701   7.724 -1.1353 -0.4557  0.0448
 5978TIP3    H239494   0.622   3.649   7.582  1.6209  0.7203 -0.3907
 5979TIP3   OH239495   4.682   4.385   1.117  0.0796  0.0483 -0.0374
 5979TIP3    H139496   4.704   4.355   1.206 -1.4897 -0.8311  0.0904
 5979TIP3    H239497   4.633   4.466   1.130  1.4983  0.9741 -0.2297
 5980TIP3   OH239498   6.017   3.051   0.043  0.4468 -0.0231  0.2339
 5980TIP3    H139499   5.978   3.025  -0.040 -0.6783 -0.0665  0.7653
 5980TIP3    H239500   6.111   3.056   0.024  0.1531  0.5417 -1.1755
 5981TIP3   OH239501   6.172   6.197   0.501  0.0828 -0.0145 -0.0417
 5981TIP3    H139502   6.242   6.242   0.548  2.4068 -1.9780 -1.3625
 5981TIP3    H239503   6.187   6.218   0.409  0.4378 -2.2487 -0.5698
 5982TIP3   OH239504   6.585   3.947   8.186  0.0138  0.1686 -0.9676
 5982TIP3    H139505   6.558   3.942   8.094  1.2239  1.4963 -1.4209
 5982TIP3    H239506   6.572   4.038   8.210  0.9441  0.1232 -0.2310
 5983TIP3   OH239507   2.281   3.560   1.480  0.1285 -0.2490  0.3169
 5983TIP3    H139508   2.246   3.547   1.392  0.2109 -1.0579  0.3897
 5983TIP3    H239509   2.282   3.472   1.518  0.1940  0.0784  1.0890
 5984TIP3   OH239510   4.293   0.872   6.003  0.8995  0.5230 -0.5936
 5984TIP3    H139511   4.260   0.792   6.045  0.2923  0.0537 -1.8986
 5984TIP3    H239512   4.222   0.935   6.012  0.8763  0.5088 -0.6806
 5985TIP3   OH239513   4.089   2.807   7.893 -0.1177  0.0445  0.0590
 5985TIP3    H139514   4.021   2.804   7.826 -0.3901  2.3791  0.1571
 5985TIP3    H239515   4.170   2.819   7.844 -0.0264 -0.5824  0.0497
 5986TIP3   OH239516   2.126   5.917   0.251  0.2046  0.1121  0.4492
 5986TIP3    H139517   2.070   5.938   0.176  0.5184 -0.5250  0.0304
 5986TIP3    H239518   2.215   5.940   0.222  0.2897  0.1401  0.7286
 5987TIP3   OH239519   5.758   0.500   0.307  0.6327 -0.1468 -0.0635
 5987TIP3    H139520   5.751   0.592   0.333  3.3635  0.1520 -0.1418
 5987TIP3    H239521   5.717   0.496   0.221  1.6511  1.3357 -0.6665
 5988TIP3   OH239522   0.359   3.500   1.005  0.0231 -0.7141 -0.0215
 5988TIP3    H139523   0.345   3.590   0.977 -1.2622 -0.2967  1.7577
 5988TIP3    H239524   0.440   3.504   1.055 -0.8858 -0.1348  1.4816
 5989TIP3   OH239525   6.274   0.417   1.272  0.5278  0.0613 -0.6450
 5989TIP3    H139526   6.245   0.340   1.323  1.1998  0.2185 -0.0150
 5989TIP3    H239527   6.282   0.487   1.337 -0.3775  0.7598 -1.2619
 5990TIP3   OH239528   0.438   5.779   0.088 -0.5417  0.3668  0.3020
 5990TIP3    H139529   0.482   5.811   0.009  1.4929  0.4755  1.4129
 5990TIP3    H239530   0.466   5.688   0.096 -0.2908  0.5093  1.1654
 5991TIP3   OH239531   5.402   1.811   0.251 -0.3308 -0.5988 -0.5389
 5991TIP3    H139532   5.417   1.727   0.293 -0.6361 -0.6942 -0.6208
 5991TIP3    H239533   5.387   1.872   0.323  0.1835 -0.5492 -0.4640
 5992TIP3   OH239534   1.272   1.300   0.377 -0.1927 -0.2641 -0.5253
 5992TIP3    H139535   1.182   1.322   0.351 -0.1743  0.9533  0.3413
 5992TIP3    H239536   1.320   1.381   0.368  0.3890 -0.4284  0.7789
 5993TIP3   OH239537   5.395   3.148   1.211 -0.0416 -0.3489  0.6085
 5993TIP3    H139538   5.342   3.079   1.251 -1.8034  0.6480  0.0820
 5993TIP3    H239539   5.409   3.120   1.121 -2.3146  0.7409 -0.1554
 5994TIP3   OH239540   4.226   0.832   7.342  0.3154 -0.5845 -0.5460
 5994TIP3    H139541   4.305   0.885   7.356 -0.2654  0.1860 -0.1467
 5994TIP3    H239542   4.155   0.895   7.336 -0.6026 -1.3471  1.3153
 5995TIP3   OH239543   5.176   4.651   7.500 -0.3067  0.5959  0.2892
 5995TIP3    H139544   5.244   4.651   7.567  0.8319 -0.0904 -0.8172
 5995TIP3    H239545   5.106   4.597   7.535 -0.4130  1.5082  1.5502
 5996TIP3   OH239546   2.074   4.815   6.487  0.1173 -0.5680 -0.0674
 5996TIP3    H139547   2.161   4.855   6.482 -0.4425  0.5122 -2.5485
 5996TIP3    H239548   2.025   4.870   6.549  0.4136  0.4861 -0.7501
 5997TIP3   OH239549   2.225   4.057   8.420  0.4312  0.2502 -0.0364
 5997TIP3    H139550   2.207   4.046   8.327  0.1644  0.3495  0.0049
 5997TIP3    H239551   2.313   4.095   8.423 -0.4768  2.4759 -0.3209
 5998TIP3   OH239552   1.488   2.121   1.546 -0.4836  0.0685 -0.2781
 5998TIP3    H139553   1.543   2.048   1.574 -0.2938 -0.3839 -1.7863
 5998TIP3    H239554   1.399   2.093   1.566 -0.2632  0.8730  2.3434
 5999TIP3   OH239555   2.198   6.843   7.204  0.2311 -0.3875 -0.1628
 5999TIP3    H139556   2.280   6.893   7.215  0.7067 -1.4278  1.2875
 5999TIP3    H239557   2.130   6.901   7.239  0.1831  0.8235 -2.1211
 6000TIP3   OH239558   4.441   3.002   7.554  0.1956 -0.4169 -0.1345
 6000TIP3    H139559   4.520   2.952   7.532  0.3017 -0.5507  0.5272
 6000TIP3    H239560   4.453   3.086   7.509  1.4803  0.1735  1.2184
 6001TIP3   OH239561   5.892   4.911   1.663  0.6206 -0.7364  0.1431
 6001TIP3    H139562   5.918   4.999   1.691  1.1676 -0.4918 -1.0824
 6001TIP3    H239563   5.973   4.860   1.666  0.2102 -1.3566  1.3468
 6002TIP3   OH239564   4.100   1.485   6.929 -0.1840 -0.0265  0.5636
 6002TIP3    H139565   4.108   1.452   7.018  0.2949 -1.1221  0.1316
 6002TIP3    H239566   4.028   1.548   6.933 -0.9233 -0.9012  1.4860
 6003TIP3   OH239567   4.168   4.888   1.336 -0.4105  0.2951 -0.1425
 6003TIP3    H139568   4.093   4.862   1.282 -1.5828  1.6635  0.7553
 6003TIP3    H239569   4.136   4.882   1.426  1.1699 -0.8879  0.3668
 6004TIP3   OH239570   1.914   1.624   1.665  0.6734  0.0947  0.0347
 6004TIP3    H139571   1.992   1.570   1.675  0.4203 -0.5292 -1.1112
 6004TIP3    H239572   1.866   1.614   1.747  1.2712 -0.3770  0.3281
 6005TIP3   OH239573   0.645   1.068   7.026 -0.3206 -0.2852  0.3119
 6005TIP3    H139574   0.672   1.049   7.117  0.2731  1.0648  0.4396
 6005TIP3    H239575   0.707   1.135   6.997 -1.5981  0.5800 -0.4943
 6006TIP3   OH239576   1.649   3.798   0.229 -0.3459 -0.3366 -0.0932
 6006TIP3    H139577   1.614   3.763   0.146  1.1714 -0.6510 -0.6223
 6006TIP3    H239578   1.681   3.885   0.206  1.6297 -1.0582 -0.2892
 6007TIP3   OH239579   0.632   4.641   0.216  0.2242 -0.3305  0.0028
 6007TIP3    H139580   0.539   4.665   0.213  0.6683  1.5067 -2.0822
 6007TIP3    H239581   0.670   4.701   0.280  0.4868  1.3149 -1.6149
 6008TIP3   OH239582   3.728   6.857   0.053  0.0706 -0.5922  0.0584
 6008TIP3    H139583   3.798   6.915   0.024  0.3896 -0.4236  1.1109
 6008TIP3    H239584   3.670   6.849  -0.023  0.5576  0.2776 -0.4231
 6009TIP3   OH239585   6.770   6.079   2.629 -0.0109  0.8270  0.6752
 6009TIP3    H139586   6.779   6.149   2.694  0.7711  3.2244 -1.8673
 6009TIP3    H239587   6.700   6.108   2.572  1.3159  0.3033 -1.3089
 6010TIP3   OH239588   5.110   2.125   0.204 -0.0773  0.5141  0.3043
 6010TIP3    H139589   5.172   2.059   0.174  1.7020  2.0640  0.3558
 6010TIP3    H239590   5.123   2.129   0.299  0.9563  1.9554  0.1316
 6011TIP3   OH239591   5.347   3.480   0.638  0.1547 -0.0374 -0.8394
 6011TIP3    H139592   5.428   3.443   0.601 -0.6267 -1.1152 -1.5377
 6011TIP3    H239593   5.363   3.480   0.732  0.9315 -0.3499 -0.9563
 6012TIP3   OH239594   1.382   0.749   8.285  0.0202  0.0728  0.2400
 6012TIP3    H139595   1.474   0.727   8.301 -0.5095 -3.6442 -0.8817
 6012TIP3    H239596   1.333   0.687   8.338 -1.8410  0.8196 -0.5324
 6013TIP3   OH239597   3.458   1.628   2.115  0.0133 -0.4703  0.2700
 6013TIP3    H139598   3.435   1.688   2.044 -1.3410 -0.8286  0.3688
 6013TIP3    H239599   3.434   1.541   2.082  0.4200 -0.7689  0.7424
 6014TIP3   OH239600   6.131   5.549   1.424 -1.1715  0.4048  0.2097
 6014TIP3    H139601   6.094   5.626   1.468 -0.5643  0.4021  0.7335
 6014TIP3    H239602   6.058   5.514   1.373 -1.3371  1.6096 -0.4359
 6015TIP3   OH239603   5.289   6.701   2.141  0.5361 -0.5688  0.6338
 6015TIP3    H139604   5.206   6.746   2.155 -0.7021 -2.6109  0.2912
 6015TIP3    H239605   5.285   6.625   2.199  2.5595 -0.3016  1.2164
 6016TIP3   OH239606   1.703   2.955   7.039 -0.5189  0.2455  0.0964
 6016TIP3    H139607   1.730   2.938   7.129  2.5580 -1.1319 -0.9664
 6016TIP3    H239608   1.666   2.872   7.009 -2.1652  0.8898  0.2139
 6017TIP3   OH239609   2.480   1.927   0.722  0.2156 -0.7667 -0.4202
 6017TIP3    H139610   2.490   1.832   0.722 -0.2069 -0.9920  3.8320
 6017TIP3    H239611   2.386   1.941   0.732  0.2611  0.1244 -1.1170
 6018TIP3   OH239612   5.264   3.417   0.194  0.1301 -0.1704  0.0146
 6018TIP3    H139613   5.197   3.399   0.259 -0.2193  1.0110  0.0083
 6018TIP3    H239614   5.300   3.331   0.171 -0.5002 -0.6935  0.9479
 6019TIP3   OH239615   2.422   6.302   7.064 -0.4819 -0.6701 -0.6030
 6019TIP3    H139616   2.360   6.353   7.012 -0.8672 -0.7388 -0.2268
 6019TIP3    H239617   2.475   6.254   7.000  1.4236  1.8787 -1.0839
 6020TIP3   OH239618   5.747   4.312   8.086 -0.5449 -0.5225  0.4551
 6020TIP3    H139619   5.737   4.299   7.992  0.8775 -0.5208  0.2831
 6020TIP3    H239620   5.824   4.261   8.109 -0.8016 -0.4163  1.6029
 6021TIP3   OH239621   4.392   0.381   0.116 -0.7852  0.6387 -0.7260
 6021TIP3    H139622   4.352   0.457   0.074 -0.6805  0.4436 -1.1901
 6021TIP3    H239623   4.400   0.317   0.046 -0.2084  0.4581 -0.5028
 6022TIP3   OH239624   2.660   6.358   0.703  0.8764  0.5384 -0.0322
 6022TIP3    H139625   2.575   6.395   0.677  0.8117 -1.1959 -2.6053
 6022TIP3    H239626   2.654   6.350   0.798 -2.1073 -0.0275 -0.1692
 6023TIP3   OH239627   2.077   3.607   2.301  0.8620  0.3052 -0.0561
 6023TIP3    H139628   2.116   3.520   2.292  0.1136  0.0562 -1.0616
 6023TIP3    H239629   2.142   3.657   2.350  1.9752 -0.4082 -0.7466
 6024TIP3   OH239630   0.458   4.691   1.953  0.4506 -0.0058  0.0759
 6024TIP3    H139631   0.403   4.684   2.031  0.9909  2.1951  0.7300
 6024TIP3    H239632   0.426   4.769   1.907  1.2828 -0.2386 -0.9546
 6025TIP3   OH239633   3.240   2.027   7.268  0.1336  0.3132  0.6364
 6025TIP3    H139634   3.322   1.999   7.309  0.4585  0.3114  0.0008
 6025TIP3    H239635   3.172   2.007   7.333  0.5334 -0.5026  0.8129
 6026TIP3   OH239636   3.871   4.262   2.119 -1.0188  0.0369  0.2539
 6026TIP3    H139637   3.842   4.172   2.105 -0.4972 -0.1778  0.5198
 6026TIP3    H239638   3.790   4.313   2.124 -1.2945 -0.3073 -0.5912
 6027TIP3   OH239639   5.289   4.419   1.031 -1.0626 -0.2881 -0.6003
 6027TIP3    H139640   5.328   4.494   0.984 -1.1060  0.6573  0.8062
 6027TIP3    H239641   5.353   4.398   1.099 -1.3504 -1.1340 -0.5825
 6028TIP3   OH239642   4.273   2.051   7.162  0.0909 -0.4127 -0.3654
 6028TIP3    H139643   4.324   2.011   7.232  0.1080 -1.9141 -1.1925
 6028TIP3    H239644   4.322   2.031   7.082  0.1506  1.3794 -0.8262
 6029TIP3   OH239645   3.475   6.359   0.926  0.3799  0.2470  0.5468
 6029TIP3    H139646   3.386   6.381   0.898  0.1172  0.6658  1.6729
 6029TIP3    H239647   3.530   6.423   0.882  0.2136 -0.3798 -0.6385
 6030TIP3   OH239648   0.039   6.468   8.513  0.2902 -0.0090 -0.1319
 6030TIP3    H139649  -0.029   6.425   8.460 -0.8840  0.7657  0.6813
 6030TIP3    H239650   0.110   6.485   8.452 -0.2085 -0.9158 -1.0015
 6031TIP3   OH239651   6.449   1.488   7.302 -0.3318  0.0346 -0.1971
 6031TIP3    H139652   6.500   1.537   7.238  1.6918 -1.8423 -0.1121
 6031TIP3    H239653   6.509   1.472   7.375 -1.5276 -0.8767  0.6424
 6032TIP3   OH239654   5.468   0.987   0.275  0.3703 -0.2509  0.1611
 6032TIP3    H139655   5.533   0.934   0.321  0.8503  0.4278  0.2781
 6032TIP3    H239656   5.419   0.925   0.222  1.5736 -0.6930 -0.4686
 6033TIP3   OH239657   0.056   1.064   8.193 -0.5710  0.0255 -0.3877
 6033TIP3    H139658  -0.010   1.070   8.263 -0.9940 -0.7087 -0.7089
 6033TIP3    H239659   0.140   1.069   8.238 -0.8097 -1.9379  0.3733
 6034TIP3   OH239660   2.385   0.146   1.519 -0.5834 -0.3266  0.3596
 6034TIP3    H139661   2.444   0.073   1.508 -1.4366 -1.0139  0.2206
 6034TIP3    H239662   2.369   0.151   1.613  1.5022  1.3593  0.7152
 6035TIP3   OH239663   6.189   1.854   8.029  0.0129 -0.4323 -0.2131
 6035TIP3    H139664   6.230   1.904   8.100 -0.4711 -0.2755 -0.0431
 6035TIP3    H239665   6.137   1.919   7.981  1.3149 -0.2652 -1.4775
 6036TIP3   OH239666   0.993   5.645   7.300  0.7083  0.3742  0.2411
 6036TIP3    H139667   1.087   5.651   7.319  0.3456  1.3049  1.8930
 6036TIP3    H239668   0.988   5.587   7.223  2.4206 -2.4493  2.0673
 6037TIP3   OH239669   6.592   3.929   1.955  0.8402 -0.4076 -0.3072
 6037TIP3    H139670   6.564   3.933   1.863 -0.5316  0.8770  0.1255
 6037TIP3    H239671   6.577   3.837   1.980 -0.4179 -0.3949 -0.9023
 6038TIP3   OH239672   6.507   2.391   1.399 -0.0360  0.5650 -0.2602
 6038TIP3    H139673   6.455   2.315   1.424 -0.6117  1.1445  0.3435
 6038TIP3    H239674   6.592   2.355   1.373 -0.6226 -0.3599 -0.9432
 6039TIP3   OH239675   5.758   1.450   0.099  0.2226  0.6086 -0.3879
 6039TIP3    H139676   5.819   1.456   0.172  1.4981 -0.9730 -1.2445
 6039TIP3    H239677   5.680   1.409   0.136  0.0087  1.7908  0.5237
 6040TIP3   OH239678   1.836   4.677   7.703 -0.2062  0.1993 -0.0483
 6040TIP3    H139679   1.843   4.700   7.795 -1.6143  1.1115 -0.1285
 6040TIP3    H239680   1.892   4.741   7.658 -0.5640  0.6092  0.0812
 6041TIP3   OH239681   1.152   0.053   2.078 -0.5699 -0.2447  0.1774
 6041TIP3    H139682   1.183   0.143   2.078 -0.7069 -0.1835 -1.2702
 6041TIP3    H239683   1.066   0.056   2.037  0.5794 -1.3639 -2.5531
 6042TIP3   OH239684   3.089   3.948   0.307  0.2659 -0.2991  0.1249
 6042TIP3    H139685   3.150   3.963   0.234  0.4482 -0.6034  0.2100
 6042TIP3    H239686   3.010   3.915   0.266  0.2839 -0.2400  0.0426
 6043TIP3   OH239687   0.644   3.541   0.478  0.4310  0.3564  0.5127
 6043TIP3    H139688   0.687   3.563   0.561 -2.5450 -0.4266  2.3989
 6043TIP3    H239689   0.599   3.622   0.453  0.6093  0.3303  0.0978
 6044TIP3   OH239690   1.805   6.322   8.294  0.2601  0.0535  0.0917
 6044TIP3    H139691   1.816   6.414   8.318  0.5995 -0.5111  2.3537
 6044TIP3    H239692   1.880   6.302   8.238  0.8973  0.8270  0.6455
 6045TIP3   OH239693   2.632   2.034   8.579 -0.6688 -0.4285  0.5143
 6045TIP3    H139694   2.554   2.062   8.627 -0.7254 -0.9493  0.7410
 6045TIP3    H239695   2.700   2.025   8.646  0.3097  2.3898  0.0258
 6046TIP3   OH239696   4.908   1.555   6.976 -0.2681  0.1737 -0.1261
 6046TIP3    H139697   4.858   1.540   6.895  1.2090  1.3967 -1.3203
 6046TIP3    H239698   4.965   1.629   6.956 -0.3539  0.9748  2.2989
 6047TIP3   OH239699   1.351   1.022   1.203  0.3206  0.1675  0.0641
 6047TIP3    H139700   1.257   1.021   1.223  0.3931 -1.8379  0.4685
 6047TIP3    H239701   1.387   0.951   1.255  2.1897  1.2665  0.3444
 6048TIP3   OH239702   4.649   4.689   0.646 -0.4053  0.4118  0.0978
 6048TIP3    H139703   4.631   4.596   0.632  3.1928 -0.4930  0.4450
 6048TIP3    H239704   4.605   4.711   0.727 -0.5877 -1.2579  0.4733
 6049TIP3   OH239705   1.225   3.356   0.773  0.2617  0.6499 -0.1887
 6049TIP3    H139706   1.187   3.372   0.686  1.0603  0.8051 -0.5253
 6049TIP3    H239707   1.301   3.300   0.755 -1.7828 -2.7168  0.8306
 6050TIP3   OH239708   1.738   4.560   7.273  0.0360  0.7822  0.0551
 6050TIP3    H139709   1.771   4.518   7.353 -1.3984 -0.7354 -0.0994
 6050TIP3    H239710   1.677   4.626   7.305 -0.9471 -0.1889  0.2332
 6051TIP3   OH239711   4.200   5.782   7.851  0.1498  0.0654 -0.5014
 6051TIP3    H139712   4.167   5.792   7.940 -0.4224 -1.9754 -0.4403
 6051TIP3    H239713   4.292   5.810   7.857  0.2223 -0.3786  0.8214
 6052TIP3   OH239714   1.429   4.068   2.032  0.1154 -0.0541 -0.6222
 6052TIP3    H139715   1.410   3.974   2.025  0.9009 -0.3720  0.9897
 6052TIP3    H239716   1.365   4.101   2.095  1.0169  0.0902  0.2435
 6053TIP3   OH239717   4.692   6.245   0.896  0.1055 -0.0355  0.2999
 6053TIP3    H139718   4.687   6.186   0.822 -0.2108  0.3619 -0.0014
 6053TIP3    H239719   4.614   6.224   0.948 -0.2424  0.4105 -0.0344
 6054TIP3   OH239720   3.180   0.850   7.737  0.3727 -0.5571 -0.1998
 6054TIP3    H139721   3.165   0.761   7.708  0.3105 -0.0841 -1.6958
 6054TIP3    H239722   3.219   0.841   7.824 -0.9648 -1.9995  0.2993
 6055TIP3   OH239723   0.874   4.286   6.611  0.1237 -0.1547  0.0059
 6055TIP3    H139724   0.807   4.270   6.544 -1.1171  0.9442  0.9245
 6055TIP3    H239725   0.923   4.362   6.579  0.6176 -0.6563 -0.4354
 6056TIP3   OH239726   4.353   1.134   0.665 -0.1449  0.0187  0.4163
 6056TIP3    H139727   4.375   1.197   0.733 -1.5605  3.5349 -2.0799
 6056TIP3    H239728   4.267   1.100   0.690  0.5218 -0.8181  1.6628
 6057TIP3   OH239729   1.589   0.011   8.633  0.0871 -0.0566  0.0417
 6057TIP3    H139730   1.541  -0.055   8.584  2.1741 -0.9337 -0.9215
 6057TIP3    H239731   1.675   0.015   8.591  1.0201  1.1507  1.9176
 6058TIP3   OH239732   5.869   1.860   7.613  0.1031  0.1773 -0.8990
 6058TIP3    H139733   5.944   1.802   7.599  0.8479  0.0956  2.5022
 6058TIP3    H239734   5.798   1.819   7.563  1.2124 -2.3101 -0.6213
 6059TIP3   OH239735   2.740   2.390   0.129  0.2474 -0.6831  0.5628
 6059TIP3    H139736   2.659   2.409   0.081  1.5076  1.3543 -0.9536
 6059TIP3    H239737   2.716   2.320   0.189 -2.5445 -0.4087 -0.0607
 6060TIP3   OH239738   1.080   5.340   7.776 -0.0965  0.3053 -0.0803
 6060TIP3    H139739   1.149   5.306   7.719 -0.6729  0.5901 -0.9583
 6060TIP3    H239740   1.095   5.297   7.860  0.1627 -0.8733 -0.7215
 6061TIP3   OH239741   0.487   5.129   1.873 -0.5574  0.1885  0.4103
 6061TIP3    H139742   0.498   5.035   1.857 -0.1847  0.4487 -1.0235
 6061TIP3    H239743   0.557   5.152   1.934  0.1486 -0.2309 -0.2372
 6062TIP3   OH239744   3.772   2.178   1.169  0.6032  0.4048  0.1832
 6062TIP3    H139745   3.761   2.083   1.177 -2.5869  0.6763  0.5626
 6062TIP3    H239746   3.849   2.189   1.114  0.9118 -2.4045 -0.0868
 6063TIP3   OH239747   4.447   4.842   1.420  0.3726 -0.5663 -0.5380
 6063TIP3    H139748   4.364   4.813   1.382  1.3536 -3.2401 -0.8565
 6063TIP3    H239749   4.487   4.762   1.453  2.3784  0.8043  0.5622
 6064TIP3   OH239750   3.241   0.948   7.400  0.6254  0.5510 -0.0186
 6064TIP3    H139751   3.190   1.027   7.383  0.7966  0.6080 -0.2573
 6064TIP3    H239752   3.189   0.900   7.465 -0.3723  0.0048 -1.1753
 6065TIP3   OH239753   0.782   1.959   7.410  0.0455  0.4488 -0.3692
 6065TIP3    H139754   0.709   2.020   7.396 -0.0703  0.1920 -0.9057
 6065TIP3    H239755   0.860   2.010   7.391 -0.0355  0.5226 -0.5073
 6066TIP3   OH239756   5.578   2.630   7.447 -0.2183  0.4793 -0.6217
 6066TIP3    H139757   5.499   2.579   7.466  1.2829 -2.0292 -0.5885
 6066TIP3    H239758   5.593   2.683   7.525 -1.9763  1.2010 -0.7424
 6067TIP3   OH239759   1.696   0.500   8.022 -0.1891  0.5111  0.1469
 6067TIP3    H139760   1.737   0.562   7.963 -1.9463  0.2378 -1.4547
 6067TIP3    H239761   1.768   0.464   8.073  1.4340  0.6618 -1.9120
 6068TIP3   OH239762   3.682   4.965   1.978 -0.4678  0.3023 -0.1491
 6068TIP3    H139763   3.689   4.882   2.025  1.6047  0.3082 -0.3498
 6068TIP3    H239764   3.634   5.022   2.037  2.2487  0.3956  2.2283
 6069TIP3   OH239765   0.646   5.786   7.459 -0.3412  0.3516 -0.1547
 6069TIP3    H139766   0.703   5.793   7.383 -0.8105  0.3222 -0.5170
 6069TIP3    H239767   0.588   5.862   7.452 -0.2799  0.4345  0.2604
 6070TIP3   OH239768   0.581   3.947   7.126 -0.3721 -0.2904 -1.2795
 6070TIP3    H139769   0.672   3.920   7.140 -0.7373 -2.0468 -2.0151
 6070TIP3    H239770   0.575   3.959   7.031 -1.0122 -0.6150 -1.2828
 6071TIP3   OH239771   0.026   5.696   8.005  0.1166 -0.0355 -0.1541
 6071TIP3    H139772   0.049   5.618   8.056 -0.6121 -0.0171  0.2151
 6071TIP3    H239773   0.074   5.767   8.046  0.9296 -0.3013 -0.6019
 6072TIP3   OH239774   4.971   3.851   0.988  0.6438  0.4038  0.2340
 6072TIP3    H139775   5.003   3.767   1.021  2.1756  1.3486  1.3116
 6072TIP3    H239776   4.885   3.862   1.028 -0.1219 -1.1835 -0.9062
 6073TIP3   OH239777   6.343   6.192   7.753 -0.7262  0.5230 -0.5166
 6073TIP3    H139778   6.349   6.174   7.847  0.0989  1.4782 -0.3667
 6073TIP3    H239779   6.313   6.282   7.747 -1.7137  0.1721 -1.2014
 6074TIP3   OH239780   0.602   2.290   7.392  0.0979  0.2070  0.5424
 6074TIP3    H139781   0.651   2.315   7.314  0.0531  0.5488  0.6218
 6074TIP3    H239782   0.669   2.270   7.457  0.1423 -0.7261  0.2210
 6075TIP3   OH239783   6.133   2.358   8.222 -0.1743 -0.4950  0.0604
 6075TIP3    H139784   6.052   2.308   8.210  0.7249 -2.2494  0.9930
 6075TIP3    H239785   6.116   2.414   8.298 -0.3251 -1.3047  0.6369
 6076TIP3   OH239786   0.476   5.497   1.984 -0.1486 -0.1255  0.2550
 6076TIP3    H139787   0.486   5.484   2.078  1.5517  0.8493  0.2573
 6076TIP3    H239788   0.468   5.592   1.974  1.4325 -0.0557 -0.6827
 6077TIP3   OH239789   6.745   3.239   0.243  0.5329 -0.3511 -0.4485
 6077TIP3    H139790   6.800   3.313   0.217 -0.8833  0.6898 -0.6086
 6077TIP3    H239791   6.807   3.171   0.270  1.8836  0.6971 -0.8020
 6078TIP3   OH239792   6.730   4.316   0.884  0.2812  0.5803  0.0589
 6078TIP3    H139793   6.814   4.361   0.895 -1.6794  4.0642  3.0913
 6078TIP3    H239794   6.682   4.371   0.822 -0.7067  0.2958  0.5491
 6079TIP3   OH239795   0.311   3.802   8.055 -0.9815  0.3147 -0.2131
 6079TIP3    H139796   0.318   3.810   8.150 -2.0615  0.6720 -0.1552
 6079TIP3    H239797   0.371   3.730   8.033  0.3951  1.1764  0.5564
 6080TIP3   OH239798   4.012   5.599   0.618  0.0338 -0.3616  1.2878
 6080TIP3    H139799   3.950   5.636   0.681 -0.2436 -0.6646  1.1935
 6080TIP3    H239800   4.097   5.608   0.660  0.0863  1.2077  0.9057
 6081TIP3   OH239801   2.569   3.236   6.617 -0.1757  0.2971 -0.5635
 6081TIP3    H139802   2.590   3.232   6.711 -1.7491  1.9230 -0.0710
 6081TIP3    H239803   2.633   3.179   6.575 -0.0114 -1.2327  1.5974
 6082TIP3   OH239804   5.325   6.506   0.262 -0.3283  0.0362  0.2259
 6082TIP3    H139805   5.264   6.481   0.193  0.2274 -0.0626 -0.2317
 6082TIP3    H239806   5.290   6.465   0.341  0.1962 -1.6402 -0.3775
 6083TIP3   OH239807   2.078   0.806   1.934  0.3772 -0.6179  0.0698
 6083TIP3    H139808   2.039   0.853   1.861 -0.8221 -0.9706  0.4641
 6083TIP3    H239809   2.170   0.832   1.933 -0.2360  1.8317  0.3354
 6084TIP3   OH239810   2.900   1.740   0.840 -0.3756  0.1475  0.2474
 6084TIP3    H139811   2.971   1.797   0.870 -0.1942 -0.1585  0.3927
 6084TIP3    H239812   2.901   1.750   0.745 -0.7660  0.8931  0.3101
 6085TIP3   OH239813   2.311   4.597   1.783 -0.3402  0.2404  0.8133
 6085TIP3    H139814   2.384   4.659   1.781  1.1444 -1.4178  0.0308
 6085TIP3    H239815   2.348   4.516   1.748 -2.9530 -0.2936 -1.0918
 6086TIP3   OH239816   6.875   1.495   0.922 -0.1409 -0.0651 -0.5881
 6086TIP3    H139817   6.881   1.405   0.954 -0.2698 -0.2187 -0.9893
 6086TIP3    H239818   6.889   1.488   0.827 -1.2541  0.1996 -0.7838
 6087TIP3   OH239819   2.450   1.790   8.128 -0.1320 -0.3892 -0.1099
 6087TIP3    H139820   2.482   1.724   8.191 -1.3656 -0.9988 -0.0951
 6087TIP3    H239821   2.422   1.863   8.183 -1.6432 -1.1046  0.1299
 6088TIP3   OH239822   0.533   5.041   7.556  0.5235 -0.4930  0.6994
 6088TIP3    H139823   0.509   4.977   7.489  0.5004 -0.0766  0.3000
 6088TIP3    H239824   0.582   5.108   7.508 -0.5425  0.4405  0.8593
 6089TIP3   OH239825   1.567   2.866   6.632  0.2542 -0.0405  0.7649
 6089TIP3    H139826   1.538   2.938   6.687 -3.6899 -0.8460  0.0058
 6089TIP3    H239827   1.581   2.906   6.546  2.6888  0.5184  1.3344
 6090TIP3   OH239828   0.408   6.761   0.103  0.1398  0.6659 -0.1025
 6090TIP3    H139829   0.503   6.763   0.092  0.1358  2.1920 -0.0539
 6090TIP3    H239830   0.384   6.852   0.120 -1.3028  0.2553  0.1727
 6091TIP3   OH239831   2.169   0.108   0.493 -0.4211  0.2719  0.3077
 6091TIP3    H139832   2.187   0.044   0.563 -0.5164 -2.0676 -1.6652
 6091TIP3    H239833   2.089   0.076   0.451 -2.1679  3.3672  0.9677
 6092TIP3   OH239834   4.232   1.389   7.798  0.1182  0.5498 -0.1135
 6092TIP3    H139835   4.323   1.418   7.785 -0.2029  2.0744  0.8139
 6092TIP3    H239836   4.202   1.438   7.875 -0.3468 -2.6141  1.8884
 6093TIP3   OH239837   1.721   5.401   7.843 -0.6043  0.0175 -0.4640
 6093TIP3    H139838   1.775   5.397   7.922  1.2620  0.1261 -1.6623
 6093TIP3    H239839   1.631   5.405   7.875  0.1461  1.4832  1.6906
 6094TIP3   OH239840   6.363   2.209   0.125 -0.2272  0.2662 -0.3776
 6094TIP3    H139841   6.289   2.185   0.068 -0.0535  0.6894 -0.7934
 6094TIP3    H239842   6.395   2.291   0.087  0.1919  0.2986  0.0551
 6095TIP3   OH239843   2.509   2.362   8.622 -0.3773  0.8191 -0.3530
 6095TIP3    H139844   2.519   2.455   8.602 -1.4806  0.6320 -2.0342
 6095TIP3    H239845   2.415   2.346   8.616 -0.0995 -0.6580 -1.5116
 6096TIP3   OH239846   2.104   1.454   1.693  0.4882 -0.0845  0.1205
 6096TIP3    H139847   2.125   1.374   1.645 -2.7880 -1.0763  0.1108
 6096TIP3    H239848   2.151   1.445   1.776 -0.0163 -2.1767  0.2251
 6097TIP3   OH239849   6.488   1.708   0.788  0.3142  0.2730  0.4387
 6097TIP3    H139850   6.487   1.613   0.799  0.2099  0.3878  1.5098
 6097TIP3    H239851   6.581   1.730   0.776  0.5696  0.2089  2.0421
 6098TIP3   OH239852   6.516   0.738   1.979  0.3085 -0.7582 -0.5159
 6098TIP3    H139853   6.536   0.820   1.933  1.0088 -1.0007 -0.6511
 6098TIP3    H239854   6.490   0.766   2.067  0.1418 -0.3677 -0.6834
 6099TIP3   OH239855   3.256   5.875   7.516 -0.0069 -0.4200  0.0552
 6099TIP3    H139856   3.235   5.924   7.596  1.1430  0.2111 -0.0202
 6099TIP3    H239857   3.215   5.925   7.446 -0.6988 -0.7718  0.1990
 6100TIP3   OH239858   6.761   5.205   6.231 -0.2012 -0.3342  0.3630
 6100TIP3    H139859   6.833   5.210   6.293  0.3198  1.2737 -0.3296
 6100TIP3    H239860   6.700   5.274   6.257 -1.1249 -1.1417  0.4485
 6101TIP3   OH239861   0.035   3.693   8.389  0.3647  0.2823  0.0731
 6101TIP3    H139862  -0.037   3.652   8.342 -0.1402  0.2830  0.8237
 6101TIP3    H239863   0.014   3.786   8.390  0.4128  0.2914  0.2371
 6102TIP3   OH239864   5.956   5.012   1.947 -0.2348 -0.1484  0.1233
 6102TIP3    H139865   5.984   4.920   1.941  1.7191  0.3445  1.0093
 6102TIP3    H239866   5.894   5.013   2.021  1.5353 -0.4027  1.6820
 6103TIP3   OH239867   2.543   3.523   1.505  0.5335 -0.1939 -0.1163
 6103TIP3    H139868   2.457   3.565   1.503  0.9033  0.5639 -1.3414
 6103TIP3    H239869   2.567   3.521   1.598 -0.2501  0.7424  0.1189
 6104TIP3   OH239870   5.067   6.170   0.822  0.0108  0.2203 -0.0246
 6104TIP3    H139871   5.126   6.145   0.751 -1.1246  2.1003 -1.7516
 6104TIP3    H239872   4.991   6.113   0.812 -0.2513  0.6444 -0.5024
 6105TIP3   OH239873   3.205   4.165   7.863 -0.3094 -0.5173 -0.5030
 6105TIP3    H139874   3.228   4.096   7.800 -0.0799  0.7075 -1.8110
 6105TIP3    H239875   3.115   4.145   7.888  0.2330 -2.1336  0.3094
 6106TIP3   OH239876   3.423   5.601   6.535 -0.4191 -0.1984 -0.7993
 6106TIP3    H139877   3.342   5.652   6.532  0.2401  1.0174  0.8548
 6106TIP3    H239878   3.485   5.656   6.582  0.8717 -1.8004 -0.5229
 6107TIP3   OH239879   0.218   1.298   7.806 -0.8588  0.0293 -0.0325
 6107TIP3    H139880   0.245   1.383   7.839 -0.0749 -0.1435 -0.2176
 6107TIP3    H239881   0.180   1.316   7.720 -0.8779  0.2141  0.0145
 6108TIP3   OH239882   1.238   3.064   1.419 -0.3266  0.2486  0.2268
 6108TIP3    H139883   1.171   3.109   1.367  0.3238 -0.8532 -1.6378
 6108TIP3    H239884   1.190   2.993   1.462 -0.4658 -0.2761 -0.7648
 6109TIP3   OH239885   4.932   2.568   7.436 -0.0957 -0.2332  0.2346
 6109TIP3    H139886   4.841   2.561   7.463  0.1939  0.0960  1.3940
 6109TIP3    H239887   4.982   2.560   7.518  0.7811  2.1665  0.0210
 6110TIP3   OH239888   0.914   3.159   6.976  0.3501  0.3621 -0.4678
 6110TIP3    H139889   1.005   3.130   6.980  0.3362  0.4282  2.0864
 6110TIP3    H239890   0.890   3.175   7.067 -2.2116  0.4242 -1.0701
 6111TIP3   OH239891   5.802   1.795   0.091 -0.3716 -0.0491 -0.2725
 6111TIP3    H139892   5.757   1.851   0.153 -0.6323 -0.4140 -0.1251
 6111TIP3    H239893   5.737   1.729   0.066 -0.2969  0.1398 -0.9946
 6112TIP3   OH239894   0.366   3.218   1.823  0.2138  0.1092  0.4015
 6112TIP3    H139895   0.395   3.284   1.761 -0.0436 -1.1873 -1.1794
 6112TIP3    H239896   0.376   3.135   1.776  0.3697 -0.9694  2.2446
 6113TIP3   OH239897   0.949   0.578   6.695 -0.5274 -0.0652  0.6317
 6113TIP3    H139898   0.994   0.497   6.673 -1.0626 -0.9712  2.7110
 6113TIP3    H239899   0.897   0.598   6.617  2.1235  0.1549 -1.2252
 6114TIP3   OH239900   3.456   1.933   7.402  0.4249 -0.7060  0.1534
 6114TIP3    H139901   3.452   1.994   7.476  0.6587  0.5795 -0.8409
 6114TIP3    H239902   3.549   1.921   7.385  0.3735 -1.0054  0.0762
 6115TIP3   OH239903   5.336   1.655   6.126  0.0100  0.2109  0.3500
 6115TIP3    H139904   5.244   1.635   6.143  0.1089 -1.0159 -0.4203
 6115TIP3    H239905   5.335   1.709   6.047 -0.0060 -0.8083 -0.3702
 6116TIP3   OH239906   6.568   3.569   1.384  0.6544 -0.7514  0.4218
 6116TIP3    H139907   6.612   3.583   1.468 -0.3275 -0.1927  0.8589
 6116TIP3    H239908   6.546   3.476   1.383 -0.2417 -0.5605  1.2571
 6117TIP3   OH239909   5.227   0.349   0.063  0.5075 -0.3405  0.4326
 6117TIP3    H139910   5.261   0.364   0.151 -0.6652  2.2740  0.5587
 6117TIP3    H239911   5.179   0.266   0.070 -0.1527  0.1380  2.4839
 6118TIP3   OH239912   1.819   5.774   7.234  0.7445 -0.1001 -0.7648
 6118TIP3    H139913   1.873   5.779   7.155  2.8550  0.2740  0.6308
 6118TIP3    H239914   1.736   5.813   7.208  0.8886 -1.1851 -3.1513
 6119TIP3   OH239915   6.761   6.202   8.077 -0.0103  0.3933  0.9609
 6119TIP3    H139916   6.843   6.249   8.061 -0.5034  1.3663  1.2389
 6119TIP3    H239917   6.758   6.135   8.009  0.3463  1.2471  0.0899
 6120TIP3   OH239918   2.567   0.292   7.310  0.2790 -0.6103  0.2779
 6120TIP3    H139919   2.621   0.231   7.361 -1.4003 -1.3815  1.2319
 6120TIP3    H239920   2.487   0.302   7.362 -0.4047  0.6874 -0.9497
 6121TIP3   OH239921   6.641   0.768   0.410  0.5590  0.0302 -0.1275
 6121TIP3    H139922   6.581   0.838   0.437 -0.8535 -0.6292 -1.4271
 6121TIP3    H239923   6.728   0.805   0.422 -0.1424  1.9112 -0.5156
 6122TIP3   OH239924   2.522   3.073   0.348 -0.4788  0.2190  0.2087
 6122TIP3    H139925   2.489   3.050   0.435 -0.0338 -2.1374 -0.1890
 6122TIP3    H239926   2.603   3.023   0.340 -1.4552 -1.1056 -2.2611
 6123TIP3   OH239927   0.547   1.215   0.832  0.1389 -0.3541  0.6457
 6123TIP3    H139928   0.641   1.217   0.815  0.1195  0.0771  0.5756
 6123TIP3    H239929   0.518   1.132   0.795  0.5475 -0.6484  0.9770
 6124TIP3   OH239930   3.862   1.570   0.319 -0.6574 -0.3352 -0.1521
 6124TIP3    H139931   3.782   1.573   0.266 -0.3045 -1.8651 -0.8487
 6124TIP3    H239932   3.918   1.507   0.273  0.6512  0.1551  0.7286
 6125TIP3   OH239933   3.717   1.082   0.689 -0.1895  0.3799  0.1924
 6125TIP3    H139934   3.735   1.139   0.614 -1.1914 -1.1987 -1.3082
 6125TIP3    H239935   3.641   1.030   0.662  0.5458 -1.5025  1.5700
 6126TIP3   OH239936   3.684   3.996   0.903 -0.1070 -0.2727  0.4967
 6126TIP3    H139937   3.701   4.060   0.834  0.6996 -0.8268  0.1673
 6126TIP3    H239938   3.648   4.048   0.975 -2.9923  0.0277 -1.0195
 6127TIP3   OH239939   2.186   0.374   0.388  0.4546  0.2713 -0.0600
 6127TIP3    H139940   2.182   0.283   0.419 -1.4534  0.1449 -0.5243
 6127TIP3    H239941   2.165   0.426   0.465  1.1167  0.2950  0.1060
 6128TIP3   OH239942   5.461   0.623   7.191 -0.4193 -0.3077  0.0613
 6128TIP3    H139943   5.398   0.630   7.119 -1.5464  0.5083  1.0688
 6128TIP3    H239944   5.434   0.544   7.238  1.3298 -1.7962 -1.2741
 6129TIP3   OH239945   0.196   4.128   7.770  0.5645  0.5217  0.9190
 6129TIP3    H139946   0.189   4.147   7.864  2.2606  0.2003  1.1491
 6129TIP3    H239947   0.276   4.173   7.743 -0.2994  1.2523 -0.5706
 6130TIP3   OH239948   0.397   2.411   7.051  0.3629  0.1570  0.0017
 6130TIP3    H139949   0.345   2.407   7.131 -1.1169  1.7019 -0.8280
 6130TIP3    H239950   0.475   2.461   7.076 -0.0691  0.6011  0.4963
 6131TIP3   OH239951   6.443   5.702   0.479  0.2376 -0.5715 -0.1077
 6131TIP3    H139952   6.385   5.630   0.454  1.8551 -1.7959 -0.5585
 6131TIP3    H239953   6.430   5.712   0.573 -1.1395 -0.3746 -0.3000
 6132TIP3   OH239954   2.937   4.890   1.312 -0.0151 -0.4579 -0.0159
 6132TIP3    H139955   2.984   4.949   1.370 -1.9285  1.3460 -0.1453
 6132TIP3    H239956   2.864   4.943   1.279 -1.7694 -2.8710 -0.2776
 6133TIP3   OH239957   2.152   5.495   8.195  0.4094  0.2004 -0.1935
 6133TIP3    H139958   2.200   5.415   8.176 -1.3148 -1.0819  0.6061
 6133TIP3    H239959   2.121   5.525   8.109  1.8142  0.5543 -0.6044
 6134TIP3   OH239960   4.812   3.935   6.702 -0.1377 -0.0690  0.3051
 6134TIP3    H139961   4.761   3.980   6.769 -1.6876  0.5105 -1.1853
 6134TIP3    H239962   4.787   3.843   6.709  2.2320 -0.6785  2.6457
 6135TIP3   OH239963   4.606   3.757   7.938 -0.2420  0.1991  0.6925
 6135TIP3    H139964   4.701   3.753   7.947 -0.2706  0.3720  1.1129
 6135TIP3    H239965   4.591   3.753   7.844  0.1757  0.0644  0.6260
 6136TIP3   OH239966   4.821   2.762   8.503  0.7726  0.5691  0.1390
 6136TIP3    H139967   4.853   2.810   8.580  0.1675 -1.6426  1.8591
 6136TIP3    H239968   4.733   2.732   8.528  1.7325 -2.8231 -0.1345
 6137TIP3   OH239969   1.652   4.015   8.417  0.2462  0.3048  0.3974
 6137TIP3    H139970   1.704   3.937   8.395  0.5143  0.3577  0.8284
 6137TIP3    H239971   1.603   4.035   8.337  0.2328 -0.2622  0.2610
 6138TIP3   OH239972   6.667   2.664   0.865  0.4037  0.2031  0.7062
 6138TIP3    H139973   6.605   2.661   0.939  0.8071  0.3326  1.0508
 6138TIP3    H239974   6.620   2.711   0.797 -0.1560 -0.3343  0.7113
 6139TIP3   OH239975   5.965   3.568   0.044  0.7035 -0.1348  0.1366
 6139TIP3    H139976   5.993   3.484   0.079  0.8171 -0.7771 -1.4521
 6139TIP3    H239977   5.873   3.575   0.070  0.7562 -0.6297  0.4748
 6140TIP3   OH239978   5.758   2.896   6.658 -0.3571 -0.1443 -0.2709
 6140TIP3    H139979   5.758   2.851   6.743 -0.3671  0.0861 -0.1474
 6140TIP3    H239980   5.784   2.829   6.595 -0.6384 -0.3919 -0.1252
 6141TIP3   OH239981   3.557   5.945   7.663 -0.1022  0.0273  0.2947
 6141TIP3    H139982   3.473   5.940   7.618  0.1266 -0.4435 -0.0848
 6141TIP3    H239983   3.620   5.969   7.595  0.5801 -2.5437 -0.1130
 6142TIP3   OH239984   0.702   6.606   2.415 -0.4638  0.1299 -0.3391
 6142TIP3    H139985   0.785   6.561   2.430 -0.2257 -0.2034 -2.3844
 6142TIP3    H239986   0.643   6.538   2.384 -0.4039  0.9507 -2.4363
 6143TIP3   OH239987   3.756   5.302   1.166  0.4027  0.1091  0.0144
 6143TIP3    H139988   3.795   5.356   1.097  1.7057 -1.5339 -0.6225
 6143TIP3    H239989   3.822   5.234   1.182 -1.2977 -1.5000  0.4902
 6144TIP3   OH239990   4.262   5.115   2.196 -0.3520  0.0353 -1.0111
 6144TIP3    H139991   4.300   5.094   2.111  1.4034  0.0467 -0.2728
 6144TIP3    H239992   4.211   5.038   2.219 -0.5921 -0.0911 -1.9359
 6145TIP3   OH239993   6.075   3.976   7.217  0.1058 -0.7699 -0.6276
 6145TIP3    H139994   6.017   3.903   7.195  0.2153 -0.2439 -2.9028
 6145TIP3    H239995   6.047   4.047   7.159  0.6320  0.6950  0.8556
 6146TIP3   OH239996   3.982   2.623   8.487  0.0007  0.2173  0.1847
 6146TIP3    H139997   3.905   2.604   8.541  0.7572  0.6717  1.4785
 6146TIP3    H239998   3.953   2.690   8.426 -0.7092  0.1860  0.4799
 6147TIP3   OH239999   3.094   3.038   6.989 -0.2769 -0.1053  0.2177
 6147TIP3    H140000   3.164   3.003   7.045 -0.6997 -1.2360  0.0660
 6147TIP3    H240001   3.074   2.967   6.929 -1.9854 -0.0238  0.6517
 6148TIP3   OH240002   5.257   3.404   6.789  0.2636  0.0235  0.2900
 6148TIP3    H140003   5.321   3.462   6.829 -0.0427  0.6491 -0.1154
 6148TIP3    H240004   5.181   3.409   6.847  0.7654 -1.1891  1.1098
 6149TIP3   OH240005   0.824   2.959   7.763 -0.2926 -0.4628  0.7256
 6149TIP3    H140006   0.752   2.980   7.704 -1.7144 -0.7185  2.2806
 6149TIP3    H240007   0.801   2.873   7.799  1.1182 -0.8355  0.7905
 6150TIP3   OH240008   6.007   6.400   6.697 -0.5383  0.0312  0.5207
 6150TIP3    H140009   5.988   6.332   6.762 -2.5518  1.4808  1.5526
 6150TIP3    H240010   6.103   6.409   6.699 -0.2269 -2.5441  0.5089
 6151TIP3   OH240011   3.628   5.376   8.158 -0.0531  0.3762 -0.4534
 6151TIP3    H140012   3.683   5.298   8.147 -0.7109 -0.1884  0.1446
 6151TIP3    H240013   3.546   5.354   8.113 -0.3878  0.5668  0.0569
 6152TIP3   OH240014   2.149   0.009   0.143 -0.0270 -0.4059  0.3072
 6152TIP3    H140015   2.182  -0.064   0.196  2.1538  1.1371  1.2682
 6152TIP3    H240016   2.097  -0.032   0.074  0.6575 -2.8017  1.1181
 6153TIP3   OH240017   4.430   6.176   8.627 -0.8669 -0.5141 -0.0243
 6153TIP3    H140018   4.519   6.205   8.609 -0.7547  3.0390  4.3591
 6153TIP3    H240019   4.438   6.082   8.644  2.2635 -0.1532  1.1303
 6154TIP3   OH240020   1.292   6.611   0.807  0.4999  0.2318 -0.0847
 6154TIP3    H140021   1.359   6.627   0.740  0.5790  1.9847  0.3540
 6154TIP3    H240022   1.303   6.684   0.868 -1.4197  0.2257  0.3139
 6155TIP3   OH240023   5.684   5.330   7.753 -0.0159 -0.1281  0.0214
 6155TIP3    H140024   5.639   5.414   7.747 -2.3980 -1.3338 -0.0226
 6155TIP3    H240025   5.768   5.351   7.795  0.4500  2.5661 -1.9501
 6156TIP3   OH240026   6.024   5.914   0.394  0.3106 -0.1038 -0.0950
 6156TIP3    H140027   6.111   5.913   0.353  1.4655  0.3398  2.1753
 6156TIP3    H240028   5.993   5.824   0.385  2.5185 -1.2027  1.9043
 6157TIP3   OH240029   6.763   3.393   6.696 -0.1151 -0.3924 -0.4061
 6157TIP3    H140030   6.728   3.367   6.611  1.6169 -0.5490 -1.1100
 6157TIP3    H240031   6.758   3.313   6.750 -1.1144 -0.3194 -0.3640
 6158TIP3   OH240032   4.935   3.351   1.534 -0.3047  0.0012 -0.2314
 6158TIP3    H140033   4.968   3.300   1.460  0.2391 -0.5162  0.3663
 6158TIP3    H240034   4.966   3.440   1.518  0.0935 -0.1777 -0.4470
 6159TIP3   OH240035   5.829   2.870   7.569 -0.4807 -0.1753  0.4259
 6159TIP3    H140036   5.870   2.920   7.640 -1.9366  0.6867  0.6995
 6159TIP3    H240037   5.878   2.788   7.566  0.8605  0.5604  1.1247
 6160TIP3   OH240038   2.588   1.691   0.338 -0.2951  0.3938 -0.0701
 6160TIP3    H140039   2.653   1.676   0.407  0.0317 -1.1263 -0.6818
 6160TIP3    H240040   2.594   1.785   0.319  0.0291  0.7167  1.5366
 6161TIP3   OH240041   4.683   1.132   8.376  0.8180  0.1154 -0.2301
 6161TIP3    H140042   4.650   1.074   8.308  1.0380 -0.5268  0.1937
 6161TIP3    H240043   4.778   1.130   8.366  0.7523  2.6659 -2.0170
 6162TIP3   OH240044   5.964   6.372   7.855  0.0083  0.0618 -0.7088
 6162TIP3    H140045   5.895   6.434   7.832  0.1362 -0.2509 -1.9929
 6162TIP3    H240046   5.923   6.286   7.846  0.1766 -0.0845 -0.1143
 6163TIP3   OH240047   3.489   4.315   0.594 -0.7474  0.4787  0.3286
 6163TIP3    H140048   3.418   4.364   0.634 -1.4533  0.0511 -0.3721
 6163TIP3    H240049   3.495   4.350   0.505 -0.9725 -0.3907 -0.0405
 6164TIP3   OH240050   2.286   3.234   6.367 -0.0337  0.4080 -1.0769
 6164TIP3    H140051   2.277   3.140   6.384 -1.3652  0.4394 -1.5396
 6164TIP3    H240052   2.213   3.274   6.414  2.1100  1.5609  1.5430
 6165TIP3   OH240053   3.699   5.193   8.413 -0.4802  0.2951 -0.4927
 6165TIP3    H140054   3.729   5.112   8.371 -1.2632  0.1048 -0.6957
 6165TIP3    H240055   3.662   5.164   8.497 -0.3558  0.4952 -0.3674
 6166TIP3   OH240056   5.448   3.794   2.081  0.4817  0.4673 -0.0531
 6166TIP3    H140057   5.503   3.769   2.155 -1.0416  1.1129  1.3309
 6166TIP3    H240058   5.388   3.860   2.116  0.3976  1.5734 -2.1162
 6167TIP3   OH240059   0.831   2.776   2.150 -0.0872  0.0538 -0.3530
 6167TIP3    H140060   0.739   2.772   2.125 -0.6865  0.4327  1.5889
 6167TIP3    H240061   0.846   2.868   2.174  0.0493 -0.4569  1.7391
 6168TIP3   OH240062   3.044   2.011   8.534  0.0985 -0.7983  0.3200
 6168TIP3    H140063   2.969   2.014   8.594 -0.2347 -0.9618 -0.0812
 6168TIP3    H240064   3.107   1.954   8.577 -0.4702 -1.5683  0.1434
 6169TIP3   OH240065   6.352   0.729   0.240  0.2014 -0.5933 -0.7569
 6169TIP3    H140066   6.411   0.795   0.277 -1.0717 -0.1187  0.5217
 6169TIP3    H240067   6.344   0.754   0.148  1.0611  0.0440 -0.6690
 6170TIP3   OH240068   6.558   4.685   1.529  0.7209  0.0201 -0.4385
 6170TIP3    H140069   6.636   4.739   1.514  1.9256 -0.7439  2.4517
 6170TIP3    H240070   6.505   4.734   1.591  0.5110 -0.8748  0.1156
 6171TIP3   OH240071   5.437   4.527   8.143 -0.5889 -0.3125 -0.0989
 6171TIP3    H140072   5.372   4.517   8.074  0.7347 -0.5003 -1.3600
 6171TIP3    H240073   5.510   4.572   8.102 -0.1001  0.3752  1.4256
 6172TIP3   OH240074   3.145   4.718   6.982  0.0390  0.2895 -0.1216
 6172TIP3    H140075   3.173   4.783   6.917  0.1313  0.9634  0.5818
 6172TIP3    H240076   3.079   4.764   7.034  0.1200 -0.1790  0.3947
 6173TIP3   OH240077   5.092   3.778   8.040 -0.3443 -0.5559 -0.3773
 6173TIP3    H140078   5.100   3.811   8.129  0.1249 -1.6092 -0.0122
 6173TIP3    H240079   5.136   3.693   8.042 -1.0694 -0.9766 -1.3991
 6174TIP3   OH240080   5.072   3.134   0.078  0.0136 -0.4221  0.3464
 6174TIP3    H140081   5.072   3.123   0.173 -0.5478 -1.1249  0.2769
 6174TIP3    H240082   4.988   3.175   0.059 -0.7085 -2.0078 -0.0095
 6175TIP3   OH240083   5.698   4.575   8.051 -0.0706 -0.9794  0.9456
 6175TIP3    H140084   5.765   4.576   7.982 -1.7201 -1.2248 -0.7458
 6175TIP3    H240085   5.708   4.489   8.093  1.5920 -0.4432  1.7301
 6176TIP3   OH240086   6.616   2.351   8.230  0.2116  0.4191  0.1611
 6176TIP3    H140087   6.554   2.418   8.257 -1.8330 -1.0400 -0.5583
 6176TIP3    H240088   6.569   2.303   8.161  1.7145 -1.4823  0.3812
 6177TIP3   OH240089   5.267   1.270   7.389  0.2504 -0.2834  0.3044
 6177TIP3    H140090   5.175   1.265   7.361  0.3130 -2.2183  0.3194
 6177TIP3    H240091   5.266   1.332   7.462 -1.0687 -0.3508  0.3750
 6178TIP3   OH240092   5.680   0.500   7.515  0.5523 -0.0959 -0.0004
 6178TIP3    H140093   5.740   0.426   7.527 -0.2668 -0.6194  1.0528
 6178TIP3    H240094   5.734   0.567   7.474  1.6586 -0.8259  0.1925
 6179TIP3   OH240095   4.732   0.233   0.583  0.4694  0.0178 -0.1576
 6179TIP3    H140096   4.691   0.314   0.612  1.8865  0.2864  1.2342
 6179TIP3    H240097   4.792   0.260   0.513  0.4022  0.0657 -0.1959
 6180TIP3   OH240098   5.831   6.366   2.500  0.2459 -0.2716  0.0534
 6180TIP3    H140099   5.769   6.315   2.552 -0.3904  1.6306  1.2635
 6180TIP3    H240100   5.778   6.438   2.464  1.2994  0.0997 -0.7874
 6181TIP3   OH240101   5.742   1.140   6.538  0.8158 -0.5522  0.5659
 6181TIP3    H140102   5.722   1.230   6.513  0.7113 -0.4681  0.9424
 6181TIP3    H240103   5.694   1.086   6.475  3.0534 -0.3816 -1.3928
 6182TIP3   OH240104   2.179   4.832   0.924  0.2743  0.1675  0.0395
 6182TIP3    H140105   2.262   4.878   0.913  0.9701 -1.3176 -1.2660
 6182TIP3    H240106   2.172   4.776   0.847 -3.2719  2.2144 -1.3541
 6183TIP3   OH240107   0.658   0.084   0.949 -0.1581 -0.0459 -0.0852
 6183TIP3    H140108   0.689   0.039   1.028  1.4857  1.7131  0.3484
 6183TIP3    H240109   0.628   0.170   0.980 -0.4423  0.2979 -1.2503
 6184TIP3   OH240110   0.238   2.804   6.648  0.0707  0.2422 -0.6712
 6184TIP3    H140111   0.281   2.762   6.722  0.2953 -1.0303 -1.4861
 6184TIP3    H240112   0.304   2.863   6.612 -0.3520  1.5795  0.6753
 6185TIP3   OH240113   1.276   4.867   6.482 -0.1286  0.1647 -0.3801
 6185TIP3    H140114   1.183   4.855   6.500 -0.6166  1.6535 -1.6817
 6185TIP3    H240115   1.296   4.956   6.511  0.4507  0.4685 -1.6005
 6186TIP3   OH240116   6.888   5.477   7.523 -0.2768 -0.1331 -0.0929
 6186TIP3    H140117   6.955   5.411   7.542 -0.9750 -0.4755  1.2924
 6186TIP3    H240118   6.904   5.546   7.587 -0.5840  0.2864 -0.4603
 6187TIP3   OH240119   3.964   3.629   7.336 -0.0620 -0.0515 -0.3852
 6187TIP3    H140120   3.936   3.616   7.246  0.2746  1.7137 -0.7968
 6187TIP3    H240121   4.056   3.657   7.328 -0.2831  0.9862  0.4027
 6188TIP3   OH240122   0.373   4.770   8.010  0.0728 -0.8287 -0.0600
 6188TIP3    H140123   0.459   4.744   7.976 -0.3642 -0.4256 -1.5505
 6188TIP3    H240124   0.341   4.836   7.948 -0.2625  0.8944  1.8315
 6189TIP3   OH240125   6.531   5.734   8.583 -0.0465 -0.5194 -0.0951
 6189TIP3    H140126   6.537   5.650   8.539  1.3858  0.5240 -2.0769
 6189TIP3    H240127   6.506   5.795   8.514 -1.3714  0.6752  1.3503
 6190TIP3   OH240128   2.097   0.086   1.696 -0.1835 -0.2451  0.3079
 6190TIP3    H140129   2.100   0.013   1.757 -0.2561  0.3667  1.0617
 6190TIP3    H240130   2.161   0.149   1.731  1.1040 -0.6284 -1.2419
 6191TIP3   OH240131   5.262   2.092   7.082  0.7675 -0.0406  0.0745
 6191TIP3    H140132   5.281   2.145   7.005 -0.2087  1.6673  0.9612
 6191TIP3    H240133   5.309   2.135   7.153 -0.8257  0.2706  0.9983
 6192TIP3   OH240134   2.793   3.126   0.031  0.6807 -0.5889 -0.4278
 6192TIP3    H140135   2.784   3.202  -0.025 -2.0275  0.2412  0.9775
 6192TIP3    H240136   2.829   3.161   0.113  2.3988 -1.4038 -0.7813
 6193TIP3   OH240137   0.999   4.412   8.157 -1.0385 -0.1698 -0.2988
 6193TIP3    H140138   1.033   4.352   8.091  1.3518 -0.9148  1.4654
 6193TIP3    H240139   0.986   4.357   8.235  0.7040  1.4304  1.2203
 6194TIP3   OH240140   2.388   5.495   1.450 -0.5959  0.0890  0.2439
 6194TIP3    H140141   2.388   5.428   1.519  0.1982 -1.6931 -1.3952
 6194TIP3    H240142   2.428   5.452   1.375  0.9016  2.7457 -0.6163
 6195TIP3   OH240143   4.918   3.620   0.396  0.2213  0.0990 -0.1826
 6195TIP3    H140144   5.000   3.574   0.413  0.3874  0.1726 -0.7741
 6195TIP3    H240145   4.866   3.557   0.345 -0.2405 -0.0910  0.5113
 6196TIP3   OH240146   0.592   3.945   7.399 -0.7854 -0.3748  0.0117
 6196TIP3    H140147   0.598   3.853   7.425 -0.7342 -0.6277 -0.8572
 6196TIP3    H240148   0.579   3.942   7.304  2.7798  0.5604 -0.6373
 6197TIP3   OH240149   3.719   5.870   0.237  0.2575 -0.2371 -0.1459
 6197TIP3    H140150   3.814   5.864   0.245  0.2996 -1.4090 -1.1862
 6197TIP3    H240151   3.704   5.954   0.194  0.7623  0.2594  0.6141
 6198TIP3   OH240152   4.855   4.918   7.233  0.0928 -0.3394 -0.2992
 6198TIP3    H140153   4.831   4.826   7.223  0.3829 -0.5364  0.7428
 6198TIP3    H240154   4.789   4.966   7.182  0.9686 -1.2033 -2.3460
 6199TIP3   OH240155   5.859   2.345   8.206 -0.1004 -0.4919  0.0805
 6199TIP3    H140156   5.766   2.336   8.226 -0.4222 -2.0062 -1.8625
 6199TIP3    H240157   5.876   2.439   8.216 -1.7250 -0.2373  0.8184
 6200TIP3   OH240158   1.742   1.176   7.786 -0.2430  1.0867  0.1696
 6200TIP3    H140159   1.729   1.269   7.767 -0.6031  0.9963 -0.0374
 6200TIP3    H240160   1.657   1.146   7.817  0.3350  1.2422  2.0500
 6201TIP3   OH240161   0.381   1.392   0.549 -0.6430  0.2588 -0.5599
 6201TIP3    H140162   0.475   1.381   0.560 -0.8210 -1.9103 -0.7678
 6201TIP3    H240163   0.347   1.403   0.638 -0.5542 -3.0840  0.0313
 6202TIP3   OH240164   1.854   5.969   1.515 -0.0384 -0.9213  0.0287
 6202TIP3    H140165   1.832   6.028   1.443  1.9368 -0.6868 -0.4439
 6202TIP3    H240166   1.893   6.025   1.581  1.7764 -1.6212 -0.3853
 6203TIP3   OH240167   3.142   5.002   0.902 -0.3664  0.1405  0.3658
 6203TIP3    H140168   3.200   5.066   0.861 -0.4277  1.0747  1.6630
 6203TIP3    H240169   3.107   5.047   0.979 -0.9851 -1.2132  0.9191
 6204TIP3   OH240170   3.953   6.784   7.624  0.2407 -0.1145  0.2205
 6204TIP3    H140171   3.914   6.859   7.668  0.9296 -0.1886  0.9839
 6204TIP3    H240172   4.044   6.811   7.608 -0.3493  0.5182 -2.5641
 6205TIP3   OH240173   4.946   5.210   1.110  0.2395  0.0411 -0.0418
 6205TIP3    H140174   4.938   5.117   1.133  1.7064  0.4680  2.4741
 6205TIP3    H240175   4.868   5.250   1.147  0.9543  0.2001  1.3480
 6206TIP3   OH240176   3.587   2.428   0.764 -0.5622  0.0062  0.0589
 6206TIP3    H140177   3.605   2.522   0.762  1.2065 -0.3017 -0.8112
 6206TIP3    H240178   3.623   2.399   0.848  0.2502 -0.1071 -0.3170
 6207TIP3   OH240179   4.580   3.395   0.556 -0.3249 -0.0772  0.3511
 6207TIP3    H140180   4.598   3.335   0.484  0.3262  1.3308 -0.7211
 6207TIP3    H240181   4.501   3.441   0.530  0.2073  0.8130  0.2488
 6208TIP3   OH240182   6.516   6.862   7.846 -0.0838  0.1894  0.1334
 6208TIP3    H140183   6.596   6.889   7.801 -0.3237  0.5221 -0.0998
 6208TIP3    H240184   6.498   6.933   7.908  1.1759 -1.0346  1.9934
 6209TIP3   OH240185   0.153   6.700   7.755 -0.5828  0.2354  0.0462
 6209TIP3    H140186   0.129   6.753   7.831 -1.0797 -1.0349  0.8170
 6209TIP3    H240187   0.114   6.614   7.773  1.6848 -0.9460 -0.2740
 6210TIP3   OH240188   3.116   0.973   0.941  0.1063  0.3643  0.0073
 6210TIP3    H140189   3.080   0.945   0.857 -1.8663 -0.0178  0.9249
 6210TIP3    H240190   3.112   1.069   0.939  1.2065  0.4188 -0.7648
 6211TIP3   OH240191   2.569   2.756   0.100 -0.1350  0.2507  0.0628
 6211TIP3    H140192   2.634   2.795   0.158 -1.4590  0.6681  1.3092
 6211TIP3    H240193   2.487   2.763   0.148 -0.9828 -0.9510 -1.1656
 6212TIP3   OH240194   2.226   4.260   1.650 -0.4707 -0.2961 -0.3493
 6212TIP3    H140195   2.228   4.182   1.595  1.3342 -0.4915 -0.0772
 6212TIP3    H240196   2.294   4.317   1.612  0.7436 -0.3855  1.5419
 6213TIP3   OH240197   5.819   4.856   1.397 -0.4290  0.3030  0.3601
 6213TIP3    H140198   5.845   4.894   1.481  0.4867  1.9083 -0.5875
 6213TIP3    H240199   5.810   4.762   1.414 -1.6881  0.7559  2.5655
 6214TIP3   OH240200   4.131   3.515   7.059  0.4710  0.5595 -0.2375
 6214TIP3    H140201   4.154   3.467   7.138 -1.2472  0.7493  0.4241
 6214TIP3    H240202   4.059   3.465   7.020  2.2844 -0.4114 -2.5848
 6215TIP3   OH240203   6.096   1.040   6.998 -0.0004 -0.5005 -0.1110
 6215TIP3    H140204   6.037   0.969   6.972  1.0178 -1.5282  0.2794
 6215TIP3    H240205   6.183   1.002   6.992  0.7277  1.2357 -1.4977
 6216TIP3   OH240206   2.511   4.320   8.019  0.2269  0.1688  0.1425
 6216TIP3    H140207   2.554   4.401   7.993  1.0450  0.0015  0.9225
 6216TIP3    H240208   2.550   4.298   8.104 -1.2190 -0.1403  0.7472
 6217TIP3   OH240209   6.852   6.521   7.808 -0.4171 -0.1511 -0.1600
 6217TIP3    H140210   6.792   6.449   7.786  1.1936 -2.8847  3.4073
 6217TIP3    H240211   6.802   6.577   7.867 -1.5340  1.6282 -2.6158
 6218TIP3   OH240212   6.031   1.529   1.736  0.9599 -0.2706  0.0004
 6218TIP3    H140213   5.998   1.451   1.779  0.0913 -0.3355 -0.7332
 6218TIP3    H240214   5.987   1.602   1.780  1.8930 -0.1751  0.7919
 6219TIP3   OH240215   6.073   5.362   0.165 -0.2332 -1.1851 -0.2967
 6219TIP3    H140216   6.145   5.325   0.113  0.3124 -0.4455 -0.0830
 6219TIP3    H240217   6.114   5.432   0.215 -1.2249 -0.3703 -0.6134
 6220TIP3   OH240218   0.177   3.820   2.314 -0.0028  0.0907  0.1646
 6220TIP3    H140219   0.116   3.772   2.370 -0.1383 -1.1461 -0.9710
 6220TIP3    H240220   0.171   3.776   2.229  1.1171  1.1048 -0.4797
 6221TIP3   OH240221   0.320   6.142   7.724  0.3340  0.5953  0.2836
 6221TIP3    H140222   0.391   6.116   7.783  0.7695  1.1900  0.0282
 6221TIP3    H240223   0.320   6.237   7.726 -1.7117  0.6111  1.7434
 6222TIP3   OH240224   4.761   3.701   2.039  0.6159 -0.2696  0.5520
 6222TIP3    H140225   4.709   3.696   2.118 -2.2286 -2.4853 -1.2517
 6222TIP3    H240226   4.830   3.635   2.051 -0.2229 -1.0973  0.9697
 6223TIP3   OH240227   3.793   2.594   0.338 -0.1011 -0.0083 -0.3008
 6223TIP3    H140228   3.805   2.523   0.401  0.2691  0.2234 -0.1046
 6223TIP3    H240229   3.698   2.603   0.329 -0.1483 -0.4436 -0.2312
 6224TIP3   OH240230   4.525   3.212   2.292  0.3270 -0.5023 -0.4065
 6224TIP3    H140231   4.604   3.175   2.332  0.5329 -1.6411 -1.7908
 6224TIP3    H240232   4.468   3.232   2.365  1.3149 -1.0291  0.5404
 6225TIP3   OH240233   6.587   6.189   1.692 -0.3742 -0.0265  0.2642
 6225TIP3    H140234   6.598   6.260   1.756  0.1102 -0.5007  0.7219
 6225TIP3    H240235   6.571   6.233   1.609  0.8786  0.6468  0.3634
 6226TIP3   OH240236   0.759   6.221   8.608 -0.2575  0.5341  0.3145
 6226TIP3    H140237   0.667   6.240   8.623 -0.3490  0.5712 -0.2531
 6226TIP3    H240238   0.782   6.275   8.532 -0.8171 -2.3472 -2.0787
 6227TIP3   OH240239   6.741   1.271   7.207  0.0060  0.0084  0.2800
 6227TIP3    H140240   6.720   1.180   7.187  0.7929  0.0031 -0.5671
 6227TIP3    H240241   6.835   1.278   7.189 -0.0534  0.9883  0.3295
 6228TIP3   OH240242   5.166   6.248   0.387 -0.0087 -0.5748  0.1876
 6228TIP3    H140243   5.182   6.179   0.323  0.1024 -0.9728  0.6379
 6228TIP3    H240244   5.080   6.283   0.364 -0.1825 -1.0414  0.1131
 6229TIP3   OH240245   4.072   3.785   6.958 -0.0672  0.2161 -0.5789
 6229TIP3    H140246   3.978   3.778   6.945 -0.3872 -0.6821  1.7746
 6229TIP3    H240247   4.101   3.697   6.980  0.5382  1.0842  2.7741
 6230TIP3   OH240248   0.975   5.708   0.710 -0.3902  0.0011 -0.0034
 6230TIP3    H140249   0.901   5.648   0.715 -0.1851 -0.3402 -0.7971
 6230TIP3    H240250   1.052   5.651   0.713 -0.1798  0.2817 -0.0386
 6231TIP3   OH240251   2.649   1.285   7.603  0.4712  0.6228 -0.0946
 6231TIP3    H140252   2.725   1.330   7.568  0.0267  0.8967 -0.7327
 6231TIP3    H240253   2.606   1.350   7.659  0.5142  0.5845 -0.0173
 6232TIP3   OH240254   3.459   0.476   8.216  0.4077  0.0830 -0.2699
 6232TIP3    H140255   3.416   0.445   8.296  0.9913  0.2991  0.1310
 6232TIP3    H240256   3.480   0.568   8.235  1.4834 -0.1538 -0.2702
 6233TIP3   OH240257   0.629   2.605   1.171 -0.4078 -0.5655 -0.1799
 6233TIP3    H140258   0.541   2.604   1.208 -1.0137 -1.8217 -1.5125
 6233TIP3    H240259   0.655   2.697   1.171 -2.0506 -0.0695 -0.4643
 6234TIP3   OH240260   3.523   1.180   1.311 -0.7552 -0.0029 -0.2962
 6234TIP3    H140261   3.519   1.097   1.358 -2.1880  0.1503 -0.0928
 6234TIP3    H240262   3.611   1.182   1.273 -0.4163 -1.2335  0.3617
 6235TIP3   OH240263   6.774   2.679   0.489 -0.3329  0.3836  0.4060
 6235TIP3    H140264   6.691   2.634   0.504  0.5071 -0.5939  2.6324
 6235TIP3    H240265   6.841   2.614   0.508  0.9514  1.5649  0.1466
 6236TIP3   OH240266   3.353   3.167   1.937  0.0771  0.3016  0.4005
 6236TIP3    H140267   3.290   3.155   1.866 -0.7117  2.5759  0.6446
 6236TIP3    H240268   3.313   3.125   2.013 -0.6222  0.7149  0.2710
 6237TIP3   OH240269   1.273   0.934   2.143  0.3490  0.3011  0.4178
 6237TIP3    H140270   1.194   0.971   2.183 -0.6358  0.0560 -1.2074
 6237TIP3    H240271   1.304   1.003   2.084  0.9962  0.1536  0.5811
 6238TIP3   OH240272   1.227   3.891   7.156  0.1954 -0.3782 -0.1901
 6238TIP3    H140273   1.256   3.959   7.096  1.9923 -0.2799  0.6965
 6238TIP3    H240274   1.158   3.932   7.208  0.1499  0.2365 -0.7240
 6239TIP3   OH240275   6.040   2.113   0.221  0.0032  0.4121  0.2933
 6239TIP3    H140276   6.044   2.207   0.203  0.2980  0.6084  1.3220
 6239TIP3    H240277   6.031   2.072   0.134 -2.8118  1.5027 -0.0454
 6240TIP3   OH240278   2.084   5.749   6.424  0.2500 -0.2141  0.4895
 6240TIP3    H140279   2.056   5.790   6.506 -0.0238  1.4018 -0.3848
 6240TIP3    H240280   2.005   5.747   6.370  1.1808  2.2353 -1.1303
 6241TIP3   OH240281   0.711   4.385   8.471 -0.7534 -0.2220  0.8806
 6241TIP3    H140282   0.653   4.323   8.514 -1.3440  0.3343  0.9031
 6241TIP3    H240283   0.654   4.458   8.446  0.0228  0.6143  1.4506
 6242TIP3   OH240284   0.958   4.969   0.327 -0.0615  0.0328  0.0282
 6242TIP3    H140285   1.009   5.003   0.401 -0.0445 -0.1148  0.0833
 6242TIP3    H240286   0.885   4.923   0.368 -0.5156  0.6716 -0.0533
 6243TIP3   OH240287   4.428   2.744   8.267 -0.3889 -0.1583 -0.3346
 6243TIP3    H140288   4.523   2.729   8.276 -0.3938 -0.1513 -0.2748
 6243TIP3    H240289   4.390   2.705   8.346 -0.3907  0.2683 -0.1227
 6244TIP3   OH240290   3.006   2.993   7.314 -0.1875  0.2807 -0.2437
 6244TIP3    H140291   2.964   2.923   7.265 -0.1543  0.0961 -0.0107
 6244TIP3    H240292   3.094   2.960   7.332 -0.5732 -0.1721  0.9865
 6245TIP3   OH240293   2.598   2.403   0.994  0.2879  0.3715  0.1254
 6245TIP3    H140294   2.515   2.364   0.966  0.7907  0.2009 -1.1806
 6245TIP3    H240295   2.649   2.329   1.026 -0.1187  0.5060  1.1404
 6246TIP3   OH240296   4.510   3.755   0.725 -0.0247 -0.3526  0.1828
 6246TIP3    H140297   4.588   3.763   0.670 -0.2731  0.1867 -0.0923
 6246TIP3    H240298   4.456   3.830   0.701 -0.1839 -0.1726  1.0859
 6247TIP3   OH240299   0.407   5.544   0.478 -0.3935 -0.2330  0.8896
 6247TIP3    H140300   0.480   5.493   0.442 -1.1213 -0.7807  0.1473
 6247TIP3    H240301   0.347   5.478   0.514 -0.6130  0.1975  1.3266
 6248TIP3   OH240302   6.082   0.627   1.928  0.1269 -0.0207 -0.0701
 6248TIP3    H140303   6.035   0.546   1.948  0.4290 -0.0876  0.3688
 6248TIP3    H240304   6.016   0.696   1.942  0.4020 -0.0308  1.5151
 6249TIP3   OH240305   1.859   1.689   0.642  0.2136  0.0789  0.1335
 6249TIP3    H140306   1.883   1.780   0.660  0.7050  0.4778 -2.2088
 6249TIP3    H240307   1.876   1.643   0.725 -0.3944  2.1499  1.4830
 6250TIP3   OH240308   2.636   5.319   6.508 -0.3686  0.3891 -0.3898
 6250TIP3    H140309   2.612   5.272   6.428  2.1595  0.3263 -1.1999
 6250TIP3    H240310   2.713   5.371   6.483 -0.2339  1.2902  1.7164
 6251TIP3   OH240311   2.688   4.352   8.227 -0.0267  0.7270 -0.2019
 6251TIP3    H140312   2.758   4.414   8.208  0.5989  0.3410  0.7822
 6251TIP3    H240313   2.644   4.386   8.305  0.1479  0.0947  0.1860
 6252TIP3   OH240314   1.093   3.065   1.841 -0.1464  0.4343  0.0292
 6252TIP3    H140315   1.109   3.068   1.935 -0.8287 -0.9788  0.2224
 6252TIP3    H240316   1.037   2.989   1.829 -1.4905  1.5750 -1.3311
 6253TIP3   OH240317   4.802   5.235   7.500  0.5250 -0.1105 -0.0342
 6253TIP3    H140318   4.737   5.165   7.495 -0.4618  0.8461 -1.0641
 6253TIP3    H240319   4.885   5.191   7.482  0.1919 -1.3559  1.3306
 6254TIP3   OH240320   2.731   2.502   2.192  0.4004  0.0805 -0.4382
 6254TIP3    H140321   2.805   2.452   2.158 -1.9966 -3.2220 -1.3434
 6254TIP3    H240322   2.753   2.593   2.173  4.4484 -0.6144 -0.0275
 6255TIP3   OH240323   4.952   5.706   8.444  0.1929 -0.1336  0.6194
 6255TIP3    H140324   4.941   5.699   8.349  1.2067  0.0021  0.4823
 6255TIP3    H240325   4.892   5.777   8.469  1.2779  1.1391 -0.2086
 6256TIP3   OH240326   2.994   0.607   0.849 -0.1395  0.0027 -0.1487
 6256TIP3    H140327   3.045   0.639   0.923  0.5681 -0.8180 -0.2674
 6256TIP3    H240328   2.961   0.522   0.877  0.0945 -0.2926 -0.7516
 6257TIP3   OH240329   4.446   6.459   1.112  1.0516  0.1539 -0.1280
 6257TIP3    H140330   4.534   6.495   1.100  1.6563 -1.0176  0.5927
 6257TIP3    H240331   4.428   6.471   1.205 -0.3351  2.0216 -0.5789
 6258TIP3   OH240332   6.839   1.501   6.872 -0.7434 -0.6580  0.3710
 6258TIP3    H140333   6.777   1.431   6.891 -0.6056 -0.3393  2.1543
 6258TIP3    H240334   6.854   1.544   6.956 -1.0896  1.7445 -0.6961
 6259TIP3   OH240335   4.502   1.121   0.450 -0.5378 -0.3208  0.0225
 6259TIP3    H140336   4.436   1.136   0.517 -1.1094  0.5956 -0.7188
 6259TIP3    H240337   4.454   1.126   0.367  0.0079 -2.1963 -0.4595
 6260TIP3   OH240338   2.909   4.879   7.496  0.1511 -0.0026  0.0458
 6260TIP3    H140339   2.823   4.889   7.454 -0.0470  1.4235  0.7134
 6260TIP3    H240340   2.971   4.911   7.431  0.1564 -0.7257 -0.3138
 6261TIP3   OH240341   2.067   1.378   0.779 -0.2560  0.4616 -0.5059
 6261TIP3    H140342   2.133   1.393   0.846 -1.7593 -1.1816  1.4563
 6261TIP3    H240343   2.108   1.316   0.719  0.5404  0.7211 -0.2499
 6262TIP3   OH240344   3.676   1.067   7.514  0.4999  0.1976 -1.3758
 6262TIP3    H140345   3.692   0.981   7.476 -1.1342 -0.0908 -1.4704
 6262TIP3    H240346   3.763   1.097   7.541  1.1374 -1.3734 -1.5417
 6263TIP3   OH240347   1.689   5.238   1.223  0.0657 -0.7484  0.2233
 6263TIP3    H140348   1.644   5.322   1.215  0.0160 -0.9609 -2.2752
 6263TIP3    H240349   1.618   5.174   1.232  0.0741 -0.6602  1.0444
 6264TIP3   OH240350   6.417   6.666   7.248  0.5696  0.0397 -0.8039
 6264TIP3    H140351   6.388   6.576   7.260  0.2441  0.0755 -1.2860
 6264TIP3    H240352   6.506   6.668   7.282 -0.1070  0.0132  1.0506
 6265TIP3   OH240353   4.927   1.809   6.244 -0.8658  0.2204 -0.4342
 6265TIP3    H140354   4.985   1.733   6.252 -0.8618  0.2114 -0.5458
 6265TIP3    H240355   4.982   1.877   6.205  0.3490  1.5853  3.1550
 6266TIP3   OH240356   5.972   2.380   0.137 -0.4556  0.1687 -0.3855
 6266TIP3    H140357   5.921   2.396   0.057  2.0824  0.8551 -1.9778
 6266TIP3    H240358   5.988   2.467   0.173 -0.2610 -0.0347  0.0284
 6267TIP3   OH240359   5.881   4.355   7.833 -0.1381 -0.1292  0.3360
 6267TIP3    H140360   5.906   4.276   7.785  2.1086  0.3164  0.6595
 6267TIP3    H240361   5.951   4.417   7.814 -1.9495  1.8849 -0.0645
 6268TIP3   OH240362   2.885   2.861   0.584  0.5665  0.0028 -0.0716
 6268TIP3    H140363   2.938   2.898   0.514  0.0559  2.0361  0.5506
 6268TIP3    H240364   2.886   2.928   0.653 -0.7520 -0.9771  0.9502
 6269TIP3   OH240365   2.080   5.365   0.376  0.1785 -0.9691  0.2410
 6269TIP3    H140366   2.115   5.429   0.313  0.1687 -0.4141  0.7965
 6269TIP3    H240367   1.993   5.397   0.397  0.7789 -0.2345  1.7774
 6270TIP3   OH240368   4.187   5.121   7.371 -0.8621 -0.1694 -0.4676
 6270TIP3    H140369   4.164   5.203   7.416  0.3435 -0.5809  0.9887
 6270TIP3    H240370   4.156   5.053   7.431 -1.6778 -0.8065 -1.5767
 6271TIP3   OH240371   3.641   0.999   8.074  0.1891  0.4553  0.5899
 6271TIP3    H140372   3.601   1.065   8.017 -0.8396 -1.6896 -1.3604
 6271TIP3    H240373   3.599   1.010   8.158  0.5378  2.6728  0.5340
 6272TIP3   OH240374   3.833   3.584   7.096 -0.2901  0.6219 -0.1660
 6272TIP3    H140375   3.818   3.491   7.078 -1.9992  1.1024 -1.4361
 6272TIP3    H240376   3.746   3.623   7.097  0.3372  2.0992  1.1706
 6273TIP3   OH240377   0.214   4.610   1.834 -0.2186  0.4661  0.0808
 6273TIP3    H140378   0.148   4.659   1.784 -1.8755 -1.0563  0.6459
 6273TIP3    H240379   0.254   4.676   1.892 -0.5439  1.6189 -0.9619
 6274TIP3   OH240380   0.800   5.080   1.905 -0.0761  0.8163 -0.0582
 6274TIP3    H140381   0.861   5.151   1.887 -0.8044  1.2813 -0.8014
 6274TIP3    H240382   0.749   5.111   1.981 -1.5436  1.8890 -1.4202
 6275TIP3   OH240383   6.663   1.755   8.233  0.0798 -0.8027 -0.4308
 6275TIP3    H140384   6.637   1.793   8.317 -2.2258 -2.1115 -0.4738
 6275TIP3    H240385   6.717   1.822   8.192  1.9829 -0.4270  2.3839
 6276TIP3   OH240386   5.781   3.440   0.865 -0.1454 -0.0893  0.5238
 6276TIP3    H140387   5.832   3.439   0.784  0.8550 -2.1314  1.1040
 6276TIP3    H240388   5.797   3.527   0.902  1.3987  0.0117 -0.2714
 6277TIP3   OH240389   5.670   0.724   8.370 -0.0981 -0.3699  0.3439
 6277TIP3    H140390   5.671   0.816   8.342 -0.0496 -0.8815 -1.4601
 6277TIP3    H240391   5.653   0.675   8.290 -4.2089 -1.7905  1.8148
 6278TIP3   OH240392   4.088   5.257   1.137 -0.2107 -0.0543  0.1722
 6278TIP3    H140393   4.054   5.209   1.213  1.0071  1.0811  1.4814
 6278TIP3    H240394   4.123   5.189   1.079 -2.4425 -1.0654 -0.1222
 6279TIP3   OH240395   2.648   0.948   8.250  0.2177  0.1231 -0.0663
 6279TIP3    H140396   2.552   0.956   8.248  0.3079  1.3198 -0.9736
 6279TIP3    H240397   2.678   1.036   8.274  1.0587 -0.6222  1.7004
 6280TIP3   OH240398   6.493   5.895   8.378 -0.4297 -1.5012  0.3607
 6280TIP3    H140399   6.524   5.905   8.288 -0.5106  0.0702  0.4740
 6280TIP3    H240400   6.398   5.892   8.371 -0.6544  1.6581  0.5331
 6281TIP3   OH240401   5.898   4.626   1.537  0.0750 -0.0606 -0.6406
 6281TIP3    H140402   5.943   4.608   1.620 -0.9945 -0.8251 -0.2042
 6281TIP3    H240403   5.953   4.585   1.471  1.7841  1.8790 -0.5526
 6282TIP3   OH240404   4.585   0.072   6.490 -0.0461  0.1999 -0.4408
 6282TIP3    H140405   4.640   0.139   6.449 -0.0402  0.5128  0.0734
 6282TIP3    H240406   4.613  -0.010   6.450  1.3122  0.2604  0.3584
 6283TIP3   OH240407   6.743   3.484   0.953 -0.3035  0.1076  0.1761
 6283TIP3    H140408   6.799   3.530   0.891 -1.7038  1.8442  0.1474
 6283TIP3    H240409   6.761   3.526   1.037 -0.4632 -0.3612  0.4471
 6284TIP3   OH240410   3.214   4.483   0.625  0.7910  0.0814 -0.0050
 6284TIP3    H140411   3.260   4.537   0.689 -2.2821  2.1341  0.7283
 6284TIP3    H240412   3.134   4.533   0.605 -0.3000 -2.3612 -2.4501
 6285TIP3   OH240413   4.070   0.898   2.179 -0.6650 -0.2766  0.0521
 6285TIP3    H140414   4.113   0.883   2.263  2.2504  0.3899 -1.1716
 6285TIP3    H240415   4.015   0.821   2.165 -0.5283 -0.8047  2.1310
 6286TIP3   OH240416   0.255   4.993   8.530 -0.3000  0.0724  0.0463
 6286TIP3    H140417   0.318   4.959   8.467  1.1267 -2.2704  2.5059
 6286TIP3    H240418   0.309   5.045   8.590 -0.8097 -1.1401  1.6167
 6287TIP3   OH240419   2.376   0.842   8.637 -0.2166  0.7055 -0.1740
 6287TIP3    H140420   2.363   0.772   8.573  1.8478 -0.4519  0.5986
 6287TIP3    H240421   2.288   0.861   8.669 -0.8108 -1.8621 -0.0740
 6288TIP3   OH240422   0.096   2.067   0.135 -0.3791 -0.0298  0.6602
 6288TIP3    H140423   0.081   2.154   0.174  1.5534  0.1722  1.0340
 6288TIP3    H240424   0.189   2.051   0.147 -0.2814 -1.2528 -1.3364
 6289TIP3   OH240425   2.814   1.629   0.017  0.3927 -0.0683  0.1218
 6289TIP3    H140426   2.867   1.692   0.066 -0.0051  0.3694 -0.0136
 6289TIP3    H240427   2.799   1.671  -0.068  1.2696 -0.9104 -0.4774
 6290TIP3   OH240428   0.302   6.733   0.637 -0.0496 -0.2112  0.0260
 6290TIP3    H140429   0.308   6.793   0.563 -0.3399  1.2058  1.1039
 6290TIP3    H240430   0.276   6.649   0.599  0.0249  0.4291 -1.4806
 6291TIP3   OH240431   1.883   6.313   0.397 -0.3484 -0.5881  0.6993
 6291TIP3    H140432   1.832   6.270   0.329  1.7940 -1.4250 -0.4685
 6291TIP3    H240433   1.929   6.242   0.442  1.0380  0.2082  0.6207
 6292TIP3   OH240434   5.826   6.340   8.400  0.1393  0.3437  0.4616
 6292TIP3    H140435   5.785   6.407   8.453 -1.2176  0.1659 -0.3282
 6292TIP3    H240436   5.848   6.384   8.318 -0.8549 -0.1868 -0.1002
 6293TIP3   OH240437   1.856   5.347   1.484  0.8572  0.1959 -0.7685
 6293TIP3    H140438   1.904   5.269   1.456  0.6454 -1.0304  2.0017
 6293TIP3    H240439   1.764   5.326   1.469  0.8399  0.1746 -0.6339
 6294TIP3   OH240440   6.070   6.672   7.234  0.2955 -0.1979 -0.3353
 6294TIP3    H140441   6.127   6.598   7.216  0.1178  0.3505 -3.7228
 6294TIP3    H240442   5.984   6.633   7.250  1.2190 -0.9741  4.1070
 6295TIP3   OH240443   3.925   3.074   1.383  0.3371  0.9157 -0.0433
 6295TIP3    H140444   3.897   3.027   1.304  0.4479  0.5225  0.1487
 6295TIP3    H240445   3.993   3.134   1.352  2.7114 -1.4428  0.2006
 6296TIP3   OH240446   3.844   4.804   0.124 -0.0214  0.0521 -0.0859
 6296TIP3    H140447   3.760   4.806   0.169  0.0399 -0.2942  0.0489
 6296TIP3    H240448   3.910   4.804   0.194  0.1552  2.1821 -0.1984
 6297TIP3   OH240449   3.563   0.757   0.637  0.7529 -0.1427  0.2417
 6297TIP3    H140450   3.534   0.786   0.550  0.6600 -0.4554  0.1658
 6297TIP3    H240451   3.600   0.670   0.621  0.4936 -0.3126  0.5579
 6298TIP3   OH240452   6.694   4.874   6.163 -0.3542 -0.1750  0.3069
 6298TIP3    H140453   6.785   4.866   6.194 -0.1585  0.1545 -0.1746
 6298TIP3    H240454   6.684   4.967   6.141 -0.6692 -0.2961 -0.0721
 6299TIP3   OH240455   5.448   2.195   1.669  0.1278  0.3223 -0.2887
 6299TIP3    H140456   5.391   2.190   1.593 -1.8385  0.7859  1.0891
 6299TIP3    H240457   5.493   2.279   1.659 -1.4367  1.2116 -0.0763
 6300TIP3   OH240458   0.328   0.505   7.092 -0.2361 -0.2937  0.6510
 6300TIP3    H140459   0.268   0.431   7.086 -1.0013  0.3796 -0.5189
 6300TIP3    H240460   0.352   0.510   7.184 -1.7389 -0.7813  1.0959
 6301TIP3   OH240461   6.804   1.067   0.391 -0.0663  0.0818 -0.6883
 6301TIP3    H140462   6.829   1.113   0.311  0.3436 -0.4650 -0.8840
 6301TIP3    H240463   6.888   1.039   0.429 -0.3009 -0.3972 -0.5140
 6302TIP3   OH240464   3.005   1.272   0.145 -0.2686  0.1533  0.2106
 6302TIP3    H140465   2.934   1.326   0.180  0.8983  0.0820  2.8701
 6302TIP3    H240466   2.981   1.259   0.053 -3.5244  0.3889  0.9014
 6303TIP3   OH240467   1.551   5.139   7.127  0.1252 -0.2190 -0.0854
 6303TIP3    H140468   1.597   5.222   7.145 -2.0564  0.9524  0.4269
 6303TIP3    H240469   1.484   5.163   7.063 -1.1964 -1.3710  0.8429
 6304TIP3   OH240470   0.410   0.899   8.476  0.3197 -0.4499  0.2151
 6304TIP3    H140471   0.477   0.895   8.544  1.1470  1.8476 -0.3652
 6304TIP3    H240472   0.370   0.985   8.486  0.7299  0.1498 -2.4068
 6305TIP3   OH240473   0.620   2.807   6.654  0.8246  0.0026 -0.0648
 6305TIP3    H140474   0.640   2.870   6.586  0.4920 -0.0906 -0.2527
 6305TIP3    H240475   0.655   2.845   6.734 -2.1596  1.9891  0.4425
 6306TIP3   OH240476   1.606   0.773   0.601  0.1027 -0.2656 -0.4391
 6306TIP3    H140477   1.587   0.867   0.596 -1.9316 -0.3627  2.3692
 6306TIP3    H240478   1.540   0.732   0.544 -0.0628 -0.0359 -0.4145
 6307TIP3   OH240479   6.085   5.830   6.764  0.1542  0.2525 -0.3663
 6307TIP3    H140480   6.126   5.750   6.795  1.7944  0.6301 -1.4097
 6307TIP3    H240481   6.035   5.803   6.687 -0.6249 -0.0272  0.2357
 6308TIP3   OH240482   0.676   0.450   0.484 -0.6148  0.2280 -0.3965
 6308TIP3    H140483   0.601   0.466   0.542 -0.8084 -0.2744 -0.5012
 6308TIP3    H240484   0.748   0.430   0.544 -0.3233  1.5717 -0.2527
 6309TIP3   OH240485   4.480   1.217   8.612  0.2499 -0.2007 -0.4487
 6309TIP3    H140486   4.508   1.196   8.523  0.2953 -1.8278 -0.0913
 6309TIP3    H240487   4.561   1.229   8.660  0.2325  0.3038 -0.5458
 6310TIP3   OH240488   6.127   6.079   8.636 -0.0510  0.1731  0.4231
 6310TIP3    H140489   6.203   6.035   8.673  0.4599  0.6626 -0.0237
 6310TIP3    H240490   6.102   6.024   8.561  0.1223  0.2285  0.3222
 6311TIP3   OH240491   4.842   3.478   6.846 -0.6120 -0.1845 -0.4921
 6311TIP3    H140492   4.894   3.505   6.770  0.3415 -0.8632 -0.0924
 6311TIP3    H240493   4.893   3.506   6.921 -1.4030  0.1962 -0.0884
 6312TIP3   OH240494   4.317   5.373   8.472  0.0306 -0.1315  0.2448
 6312TIP3    H140495   4.250   5.328   8.419 -0.7564 -0.1059  1.1807
 6312TIP3    H240496   4.266   5.422   8.537  0.9749 -1.4191  2.0380
 6313TIP3   OH240497   2.055   1.833   8.525 -0.0674 -0.1836  0.4819
 6313TIP3    H140498   2.086   1.917   8.491 -1.7823 -0.3383 -1.6985
 6313TIP3    H240499   1.971   1.854   8.567 -0.1332 -0.7035  0.6133
 6314TIP3   OH240500   1.603   2.822   0.028 -0.2517 -0.0762 -0.0041
 6314TIP3    H140501   1.593   2.777   0.112  2.3824  1.0750  1.0488
 6314TIP3    H240502   1.673   2.886   0.044 -0.7199  1.2304 -2.6847
 6315TIP3   OH240503   6.263   3.865   8.179  0.1523 -0.1128  0.3021
 6315TIP3    H140504   6.320   3.941   8.166 -0.6736  0.5724  0.5576
 6315TIP3    H240505   6.296   3.799   8.118 -0.9713  1.5152 -2.2459
 6316TIP3   OH240506   4.314   2.600   7.543 -0.8071 -0.0531  0.4977
 6316TIP3    H140507   4.404   2.609   7.573 -1.3691  3.2792  1.6008
 6316TIP3    H240508   4.268   2.559   7.616 -0.6739  0.8782  1.1274
 6317TIP3   OH240509   4.747   4.495   8.026 -0.3611 -0.7197  1.0202
 6317TIP3    H140510   4.800   4.551   8.083 -0.6216 -1.6576  2.2121
 6317TIP3    H240511   4.801   4.484   7.947 -0.2363  1.0435  0.8139
 6318TIP3   OH240512   1.049   3.670   7.254  0.1008  0.4343 -0.0172
 6318TIP3    H140513   1.098   3.672   7.337  0.3254  0.3507 -0.1448
 6318TIP3    H240514   1.117   3.676   7.187  0.0663 -1.1121 -0.2387
 6319TIP3   OH240515   4.862   1.959   7.190  0.7279 -0.5091  0.3437
 6319TIP3    H140516   4.790   1.903   7.160  0.7318  0.1066 -0.8870
 6319TIP3    H240517   4.941   1.913   7.162  0.7265  0.1919 -0.9056
 6320TIP3   OH240518   0.386   1.114   6.754  0.3735  0.1690 -0.0402
 6320TIP3    H140519   0.421   1.079   6.836 -0.0808  0.2917  0.2130
 6320TIP3    H240520   0.321   1.049   6.726  0.2645  0.3048 -0.1067
 6321TIP3   OH240521   2.970   6.416   0.781  0.3565  0.1766 -0.1845
 6321TIP3    H140522   2.915   6.343   0.753  0.8601 -0.1125 -0.4181
 6321TIP3    H240523   2.913   6.467   0.838  0.3484 -1.0237  0.9306
 6322TIP3   OH240524   1.646   1.851   1.696 -0.0961  0.0291  0.3551
 6322TIP3    H140525   1.556   1.822   1.680 -1.2352  2.9490  0.8086
 6322TIP3    H240526   1.668   1.815   1.782 -2.0892  1.7380  1.6852
 6323TIP3   OH240527   3.772   1.906   0.926 -0.2657 -0.5730 -0.0491
 6323TIP3    H140528   3.859   1.945   0.928  0.2765 -1.7324 -0.3672
 6323TIP3    H240529   3.713   1.980   0.914  0.6335  0.2816  0.6174
 6324TIP3   OH240530   1.466   3.957   7.975 -0.4012 -0.2935 -0.1972
 6324TIP3    H140531   1.507   3.986   8.056  0.4969  0.9157 -1.0522
 6324TIP3    H240532   1.504   4.012   7.907 -0.5234 -1.8243 -1.5770
 6325TIP3   OH240533   6.887   2.224   8.475 -0.5940 -0.4787 -0.3322
 6325TIP3    H140534   6.918   2.286   8.408 -0.4073 -0.2947 -0.0768
 6325TIP3    H240535   6.815   2.269   8.518  1.8276  1.1984  2.3850
 6326TIP3   OH240536   5.948   4.395   0.347  0.5050  0.1791 -0.7453
 6326TIP3    H140537   5.908   4.426   0.428  1.2388 -1.8151  0.4702
 6326TIP3    H240538   5.884   4.415   0.279 -2.2194 -1.9624  0.9617
 6327TIP3   OH240539   5.806   1.980   7.848 -0.2677 -0.5592  0.3605
 6327TIP3    H140540   5.826   1.932   7.768 -0.8771 -0.9727  0.4499
 6327TIP3    H240541   5.891   1.994   7.890 -0.2160 -4.0976  1.7722
 6328TIP3   OH240542   5.572   3.423   8.563 -0.1523 -0.2094  0.2976
 6328TIP3    H140543   5.515   3.491   8.599  0.7581  1.0983 -0.6334
 6328TIP3    H240544   5.512   3.354   8.535 -1.2103  0.7168  0.2041
 6329TIP3   OH240545   4.112   3.461   0.284  0.3444  0.4246 -0.1037
 6329TIP3    H140546   4.160   3.458   0.366 -1.6475  0.9832  1.1583
 6329TIP3    H240547   4.083   3.371   0.269 -0.6254  0.5865  0.6888
 6330TIP3   OH240548   2.672   0.073   7.479  0.2083 -0.0586 -0.0893
 6330TIP3    H140549   2.736   0.092   7.547 -0.5794 -2.5036  1.4616
 6330TIP3    H240550   2.718   0.019   7.415  0.5045  0.9124 -0.7388
 6331TIP3   OH240551   3.398   4.677   1.553 -0.3196 -0.3281  0.4055
 6331TIP3    H140552   3.389   4.754   1.609 -0.5589  1.3397 -1.8010
 6331TIP3    H240553   3.442   4.613   1.608  1.5464  2.0001  1.8249
 6332TIP3   OH240554   4.366   4.426   7.481  0.0602 -0.2235 -0.4222
 6332TIP3    H140555   4.400   4.513   7.500 -1.8749  0.6473 -0.6709
 6332TIP3    H240556   4.361   4.383   7.566  1.1858 -0.1652 -0.3173
 6333TIP3   OH240557   0.435   3.295   7.910  0.4044  0.1999  0.3565
 6333TIP3    H140558   0.517   3.282   7.862  1.4410 -2.6172  2.6009
 6333TIP3    H240559   0.369   3.248   7.858  0.9637 -0.5133  0.2663
 6334TIP3   OH240560   3.949   2.860   0.788  0.0045  0.0291 -0.4866
 6334TIP3    H140561   4.043   2.846   0.795 -0.3003 -1.7144  0.8120
 6334TIP3    H240562   3.933   2.876   0.695  1.4190 -0.9323 -0.9151
 6335TIP3   OH240563   5.117   2.422   0.621 -0.1985 -0.1194 -0.0323
 6335TIP3    H140564   5.138   2.504   0.666  1.3408  0.1369 -1.1607
 6335TIP3    H240565   5.027   2.435   0.590 -0.0262  1.1096 -0.0905
 6336TIP3   OH240566   5.902   3.723   7.143 -0.6697 -0.4211  0.8633
 6336TIP3    H140567   5.913   3.745   7.051  1.3338  1.4092  1.4637
 6336TIP3    H240568   5.927   3.630   7.149 -3.5919 -1.4571 -0.7899
 6337TIP3   OH240569   3.992   4.295   1.199  0.0991  0.7072  0.0350
 6337TIP3    H140570   4.021   4.379   1.236  0.2097  0.6549  0.0700
 6337TIP3    H240571   3.949   4.319   1.117  0.6529  0.7528 -0.2492
 6338TIP3   OH240572   1.265   6.337   0.525 -0.2217 -0.4552  0.1554
 6338TIP3    H140573   1.232   6.258   0.567  1.0980 -0.6014  0.9429
 6338TIP3    H240574   1.289   6.309   0.437  0.7934 -1.0709  0.6217
 6339TIP3   OH240575   3.984   5.704   7.481  0.1096  0.2067  0.1870
 6339TIP3    H140576   3.972   5.609   7.480 -1.7557  0.3732  1.1986
 6339TIP3    H240577   4.067   5.717   7.526 -0.1530 -0.9481  1.0754
 6340TIP3   OH240578   1.003   0.477   7.543 -0.1905  0.2400 -0.1858
 6340TIP3    H140579   0.917   0.469   7.502 -0.6128  1.1498  0.4898
 6340TIP3    H240580   1.064   0.492   7.470 -0.5659 -0.5478 -0.6803
 6341TIP3   OH240581   4.379   5.152   0.335  0.7338  0.9204 -0.8252
 6341TIP3    H140582   4.361   5.136   0.428 -0.1055  0.5605 -1.0448
 6341TIP3    H240583   4.293   5.150   0.293  1.0610  1.5333 -1.5480
 6342TIP3   OH240584   6.143   1.224   7.254 -0.7168  0.0784  0.0787
 6342TIP3    H140585   6.068   1.279   7.233 -1.5124 -0.3731  1.6479
 6342TIP3    H240586   6.203   1.237   7.180 -2.3637  0.3480 -1.2835
 6343TIP3   OH240587   1.646   6.711   0.176 -0.0262 -0.3087  0.0296
 6343TIP3    H140588   1.599   6.780   0.128  1.4370  1.0568  0.4548
 6343TIP3    H240589   1.728   6.701   0.129  0.1351 -1.1796  0.4788
 6344TIP3   OH240590   3.574   0.716   0.894 -0.3373  0.1038  0.1156
 6344TIP3    H140591   3.556   0.737   0.802 -0.0897  1.6161  0.3890
 6344TIP3    H240592   3.534   0.630   0.907 -1.0705  0.2190 -1.1949
 6345TIP3   OH240593   1.717   1.588   6.810  0.5417 -0.5035  0.3937
 6345TIP3    H140594   1.803   1.598   6.852  1.7363  2.7056 -2.2463
 6345TIP3    H240595   1.654   1.612   6.877  1.8683 -0.8491  1.8177
 6346TIP3   OH240596   4.559   0.553   7.395  0.7229  0.3641 -0.3078
 6346TIP3    H140597   4.567   0.535   7.302  1.6692  1.0617 -0.3836
 6346TIP3    H240598   4.608   0.635   7.408 -0.5155  1.0097  0.5741
 6347TIP3   OH240599   2.527   1.435   0.469 -0.1569  0.0303 -0.2852
 6347TIP3    H140600   2.558   1.484   0.546  3.2324 -2.5722  0.2728
 6347TIP3    H240601   2.566   1.481   0.395 -2.7792  2.0832 -0.5024
 6348TIP3   OH240602   0.061   3.150   6.677  0.1974 -0.0493 -0.1759
 6348TIP3    H140603   0.114   3.137   6.755 -2.2656  1.0492  1.8188
 6348TIP3    H240604   0.017   3.066   6.663  1.1793 -0.4679 -0.8738
 6349TIP3   OH240605   1.120   1.745   0.252 -0.1499  0.3047  0.3250
 6349TIP3    H140606   1.102   1.724   0.343 -2.6537  1.0971  0.1007
 6349TIP3    H240607   1.115   1.841   0.248 -0.6505  0.2535 -0.7309
 6350TIP3   OH240608   6.361   4.760   7.423 -0.0616  0.2141 -0.1333
 6350TIP3    H140609   6.306   4.681   7.432 -1.1229  0.8796 -0.5647
 6350TIP3    H240610   6.305   4.822   7.377  1.0696  0.9319 -0.5754
 6351TIP3   OH240611   0.551   2.174   2.019  0.3665  0.6008 -0.1871
 6351TIP3    H140612   0.505   2.095   1.991  1.5630 -0.2039  0.0484
 6351TIP3    H240613   0.487   2.221   2.073 -0.9200  0.6434 -1.6568
 6352TIP3   OH240614   1.473   3.075   0.239  0.4622  0.3621 -0.5867
 6352TIP3    H140615   1.391   3.035   0.268 -0.3006  2.0052 -0.3252
 6352TIP3    H240616   1.528   3.077   0.317  0.2250  0.5003 -0.4233
 6353TIP3   OH240617   6.077   6.035   2.213  0.3801 -0.1768 -0.2096
 6353TIP3    H140618   6.152   6.053   2.157  1.1784  1.5474  1.3145
 6353TIP3    H240619   6.039   6.121   2.233 -1.6053 -0.9567 -0.3801
 6354TIP3   OH240620   5.503   0.332   6.635  0.2230 -0.6181  0.0956
 6354TIP3    H140621   5.541   0.418   6.616 -2.7703  0.7734 -0.0613
 6354TIP3    H240622   5.495   0.290   6.549  1.2655 -0.9068  0.1240
 6355TIP3   OH240623   2.916   0.721   2.204 -0.0263  0.0290 -0.7645
 6355TIP3    H140624   2.881   0.809   2.188  1.5780  0.7250 -0.6960
 6355TIP3    H240625   2.844   0.673   2.245 -0.5061  1.7442  0.4976
 6356TIP3   OH240626   0.571   2.082   6.021 -0.4238 -0.4166 -0.3807
 6356TIP3    H140627   0.491   2.061   6.070 -0.8038 -1.3653 -1.3727
 6356TIP3    H240628   0.639   2.030   6.065 -0.5438 -0.3945 -0.1655
 6357TIP3   OH240629   3.704   1.406   7.430 -0.1189 -0.8006  0.4991
 6357TIP3    H140630   3.752   1.405   7.513  0.7435 -1.0402  0.0073
 6357TIP3    H240631   3.634   1.471   7.444  2.2242  2.0055  0.2054
 6358TIP3   OH240632   0.116   3.730   1.740  0.4495 -0.0816  0.4776
 6358TIP3    H140633   0.185   3.676   1.701  0.2062  0.7433 -1.1636
 6358TIP3    H240634   0.055   3.666   1.779  0.1205 -1.0577 -1.4881
 6359TIP3   OH240635   2.417   2.885   8.233  0.1955 -0.4954 -0.1938
 6359TIP3    H140636   2.405   2.970   8.274  1.0817  0.9685 -2.7483
 6359TIP3    H240637   2.496   2.850   8.274  1.0529  0.8949 -0.5985
 6360TIP3   OH240638   2.369   2.818   1.323  0.9480  0.3408 -0.4473
 6360TIP3    H140639   2.285   2.847   1.359 -0.2399  0.0725 -2.7912
 6360TIP3    H240640   2.347   2.739   1.274  2.5645  0.3304 -1.1994
 6361TIP3   OH240641   1.497   4.094   8.216 -0.4862 -0.1921  0.1097
 6361TIP3    H140642   1.408   4.067   8.195  0.1460 -0.9559 -1.8100
 6361TIP3    H240643   1.494   4.190   8.216 -1.0532 -0.1899 -1.2376
 6362TIP3   OH240644   6.724   3.362   1.551 -0.3460 -0.1706 -0.0975
 6362TIP3    H140645   6.810   3.379   1.514 -1.3859  0.2261 -2.5014
 6362TIP3    H240646   6.705   3.271   1.526 -1.2742  0.2658 -1.0595
 6363TIP3   OH240647   5.232   6.032   0.572 -0.0490 -0.8332 -0.0580
 6363TIP3    H140648   5.208   5.950   0.528  1.6565 -1.1588 -0.4444
 6363TIP3    H240649   5.235   6.097   0.502  1.5054 -1.1003 -0.2735
 6364TIP3   OH240650   2.335   6.251   1.320  0.0066  0.0395 -0.0908
 6364TIP3    H140651   2.246   6.246   1.285  0.5411  0.0531 -1.5238
 6364TIP3    H240652   2.390   6.217   1.249  1.1966  0.5604  0.5616
 6365TIP3   OH240653   1.830   2.034   1.592 -0.6117 -0.2171 -0.1076
 6365TIP3    H140654   1.754   1.977   1.608 -1.9789  1.3010 -0.8023
 6365TIP3    H240655   1.826   2.098   1.662  0.5337 -0.5754  0.2978
 6366TIP3   OH240656   3.826   3.600   7.759 -0.3334 -0.1485 -0.0468
 6366TIP3    H140657   3.862   3.688   7.770 -0.0880 -0.1532 -0.7531
 6366TIP3    H240658   3.857   3.552   7.836 -1.0508  0.5628  0.6946
 6367TIP3   OH240659   1.817   5.067   0.109 -0.3915 -0.3200  0.1507
 6367TIP3    H140660   1.746   5.005   0.090 -0.8655  0.2455  0.0518
 6367TIP3    H240661   1.780   5.126   0.175 -0.0309  0.0165  0.0517
 6368TIP3   OH240662   5.075   5.189   8.485  0.1920 -0.1714 -0.9467
 6368TIP3    H140663   5.068   5.094   8.484 -2.9890 -0.0855  0.5188
 6368TIP3    H240664   5.067   5.215   8.393 -1.3586 -1.2959 -1.1786
 6369TIP3   OH240665   1.636   3.880   1.837 -0.3643  0.2304  0.3316
 6369TIP3    H140666   1.643   3.839   1.751 -0.1970  0.1106  0.4027
 6369TIP3    H240667   1.596   3.813   1.893 -1.8038  0.7891  0.0118
 6370TIP3   OH240668   0.645   3.094   1.406 -0.2447  0.0015  0.0982
 6370TIP3    H140669   0.688   3.009   1.396  2.3000  1.2444 -0.5024
 6370TIP3    H240670   0.644   3.110   1.500 -1.5033 -1.0098  0.2811
 6371TIP3   OH240671   4.076   2.681   7.382 -0.2930  0.2646  0.0569
 6371TIP3    H140672   4.168   2.653   7.382  0.3019  2.0346 -1.0927
 6371TIP3    H240673   4.048   2.670   7.473  1.1532 -0.0378  0.5017
 6372TIP3   OH240674   1.498   2.352   1.378  0.2512  0.3934 -0.8886
 6372TIP3    H140675   1.574   2.352   1.319  0.1978 -1.6178 -1.0388
 6372TIP3    H240676   1.460   2.265   1.366 -2.8463  1.7571 -1.7727
 6373TIP3   OH240677   4.762   3.703   6.491 -0.0226  0.1765 -0.0433
 6373TIP3    H140678   4.693   3.727   6.429 -0.9133 -0.7123  0.5602
 6373TIP3    H240679   4.770   3.608   6.483  0.3228  0.1346  0.7096
 6374TIP3   OH240680   3.013   6.186   7.526  0.2977  0.5094 -0.6432
 6374TIP3    H140681   2.937   6.168   7.471 -0.8480  1.6425  0.5041
 6374TIP3    H240682   2.996   6.139   7.608  2.2841 -1.6984 -1.3794
 6375TIP3   OH240683   6.682   3.457   7.547  0.3285 -1.2185  0.2174
 6375TIP3    H140684   6.700   3.449   7.641 -0.6041  0.2563  0.5462
 6375TIP3    H240685   6.746   3.520   7.515 -1.4858  0.9355  0.5961
 6376TIP3   OH240686   6.112   6.277   1.002  0.2395  0.1635 -0.4520
 6376TIP3    H140687   6.125   6.229   1.084  1.7299  0.4687 -0.4869
 6376TIP3    H240688   6.200   6.298   0.972 -0.3238  2.6126 -0.6292
 6377TIP3   OH240689   5.218   4.910   0.465  0.1196  0.3907 -0.2181
 6377TIP3    H140690   5.291   4.970   0.452  0.6696 -0.7394 -3.0537
 6377TIP3    H240691   5.149   4.964   0.502  1.7311  1.9159  0.7379
 6378TIP3   OH240692   0.954   5.580   1.626  0.4450 -0.3694 -0.2914
 6378TIP3    H140693   1.005   5.507   1.592  1.3396 -0.3657  0.9734
 6378TIP3    H240694   0.976   5.584   1.719 -0.6613  0.6386 -0.0391
 6379TIP3   OH240695   0.082   1.916   0.712  0.2314 -0.5495  0.2752
 6379TIP3    H140696   0.116   1.863   0.640  0.2114  0.0225 -0.1597
 6379TIP3    H240697   0.013   1.969   0.672  0.9981  0.6119  0.4619
 6380TIP3   OH240698   2.470   4.738   1.359  0.1483 -0.2696  0.2950
 6380TIP3    H140699   2.402   4.701   1.303  0.6430 -0.2947 -0.3020
 6380TIP3    H240700   2.454   4.833   1.356 -3.0108 -0.4112  4.2282
 6381TIP3   OH240701   0.101   6.508   7.415 -0.7486  0.1104  0.1816
 6381TIP3    H140702   0.111   6.417   7.446 -1.2018  0.1350  0.4151
 6381TIP3    H240703   0.184   6.549   7.435 -0.9066  0.0245  1.0587
 6382TIP3   OH240704   4.095   0.356   1.778 -0.0816  0.3126  0.0408
 6382TIP3    H140705   4.190   0.353   1.763 -0.3819  0.6133 -2.2718
 6382TIP3    H240706   4.083   0.313   1.863  2.0676 -0.2212  0.1367
 6383TIP3   OH240707   0.045   2.723   2.337 -0.0171 -0.4872  0.1015
 6383TIP3    H140708   0.018   2.633   2.354  0.8418 -0.6393  0.7897
 6383TIP3    H240709   0.118   2.738   2.398 -0.9300  1.0785  0.8727
 6384TIP3   OH240710   1.634   3.342   0.995 -0.4072 -0.4761  0.3691
 6384TIP3    H140711   1.722   3.335   0.958 -0.4807 -0.0856  0.1061
 6384TIP3    H240712   1.628   3.272   1.059  1.0629  1.1546  2.4181
 6385TIP3   OH240713   3.208   4.093   0.728 -0.0840  0.3863 -0.7533
 6385TIP3    H140714   3.243   4.035   0.661 -2.6312  0.4362 -2.2935
 6385TIP3    H240715   3.139   4.143   0.682 -2.3166  0.0791  1.9950
 6386TIP3   OH240716   4.307   5.728   1.079  0.2683 -0.3157  0.1127
 6386TIP3    H140717   4.242   5.674   1.124 -0.5044  0.4073 -0.1063
 6386TIP3    H240718   4.258   5.805   1.050  0.6351 -0.9259 -2.3436
 6387TIP3   OH240719   4.129   2.017   7.849  0.3308 -0.2316 -0.0353
 6387TIP3    H140720   4.079   1.981   7.775 -0.8024  2.3340 -0.6619
 6387TIP3    H240721   4.208   1.964   7.853 -0.3242 -1.4854 -2.0743
 6388TIP3   OH240722   4.347   4.904   1.104 -0.4263 -0.2176  0.1426
 6388TIP3    H140723   4.293   4.913   1.182 -0.0037 -1.4120  0.5981
 6388TIP3    H240724   4.436   4.924   1.133 -0.3402 -0.1427 -0.1598
 6389TIP3   OH240725   6.801   6.427   1.139  0.3839 -0.4987 -0.2809
 6389TIP3    H140726   6.791   6.519   1.114  2.4010  0.4518  1.9801
 6389TIP3    H240727   6.723   6.408   1.190  0.8797  0.7132  1.0300
 6390TIP3   OH240728   0.495   4.692   2.744  0.4132 -0.1838  0.2208
 6390TIP3    H140729   0.456   4.629   2.805  1.2689  0.1085  1.0957
 6390TIP3    H240730   0.458   4.669   2.659 -1.7811  0.1767  1.0169
 6391TIP3   OH240731   6.522   0.974   1.824 -0.2065  0.5262  0.2184
 6391TIP3    H140732   6.500   1.021   1.744  1.0232  0.0084 -0.4598
 6391TIP3    H240733   6.508   1.037   1.894  4.8871  3.4181 -0.8816
 6392TIP3   OH240734   6.279   0.236   2.156  0.1024  0.2051 -0.0380
 6392TIP3    H140735   6.283   0.300   2.086 -0.6398 -0.8308 -1.0594
 6392TIP3    H240736   6.367   0.234   2.192  1.6021 -1.9330 -3.4135
 6393TIP3   OH240737   1.129   1.464   6.928  0.1481  0.4539  0.2418
 6393TIP3    H140738   1.113   1.479   7.022 -2.8528 -0.5491  0.0250
 6393TIP3    H240739   1.168   1.376   6.924 -0.7633  0.0215  0.5358
 6394TIP3   OH240740   0.111   1.674   1.365 -0.0899 -0.4028  0.3154
 6394TIP3    H140741   0.077   1.756   1.328  2.2374  0.6160  0.2532
 6394TIP3    H240742   0.179   1.647   1.303  0.6126 -1.2455  1.4248
 6395TIP3   OH240743   4.502   0.892   7.306  0.3405 -0.0670 -0.1217
 6395TIP3    H140744   4.525   0.816   7.359  0.7223  1.3481  1.8654
 6395TIP3    H240745   4.566   0.959   7.331 -1.1757  1.5365 -0.3214
 6396TIP3   OH240746   6.801   3.190   7.402  0.1346  0.3550  0.2101
 6396TIP3    H140747   6.752   3.111   7.424 -1.1334  1.2564  0.7963
 6396TIP3    H240748   6.736   3.247   7.360  1.5893  0.2008 -2.4283
 6397TIP3   OH240749   1.779   6.052   7.926  0.7604  0.1495  0.7348
 6397TIP3    H140750   1.684   6.046   7.915  0.9519  0.7002 -1.5685
 6397TIP3    H240751   1.805   5.963   7.951 -0.2922 -0.1447  0.8588
 6398TIP3   OH240752   5.777   3.994   7.982  0.2255 -0.5674  0.1696
 6398TIP3    H140753   5.809   4.049   8.053 -1.4669 -0.3739  0.8268
 6398TIP3    H240754   5.855   3.976   7.929  1.2512  0.4908  1.2458
 6399TIP3   OH240755   3.513   4.469   7.822 -0.0753 -0.8907 -0.1568
 6399TIP3    H140756   3.419   4.458   7.835 -0.0429 -1.1918 -0.1742
 6399TIP3    H240757   3.553   4.430   7.900  0.0373 -0.8370 -0.1868
 6400TIP3   OH240758   3.636   3.079   8.443  0.3085  0.0008  0.3384
 6400TIP3    H140759   3.595   3.157   8.481  1.7187  1.2414 -0.5789
 6400TIP3    H240760   3.730   3.096   8.448  0.6142  0.1071 -3.2280
 6401TIP3   OH240761   2.912   5.288   8.608  0.0304 -0.4424  0.6247
 6401TIP3    H140762   2.935   5.308   8.698  1.1953 -2.0923  0.7266
 6401TIP3    H240763   2.871   5.202   8.612  1.7333 -1.3694 -0.5858
 6402TIP3   OH240764   3.614   3.351   6.138  0.3521  0.3698 -0.1027
 6402TIP3    H140765   3.594   3.261   6.163 -0.0531  0.5804  0.3377
 6402TIP3    H240766   3.626   3.348   6.043  1.2637 -0.3205  0.0228
 6403TIP3   OH240767   4.256   3.666   8.451  0.0437  0.1973  0.1115
 6403TIP3    H140768   4.209   3.717   8.517 -2.3685 -3.1357  1.2298
 6403TIP3    H240769   4.308   3.603   8.501  0.2834 -0.6649 -1.1645
 6404TIP3   OH240770   1.638   5.831   7.025 -0.2670  0.2389 -0.1353
 6404TIP3    H140771   1.554   5.843   7.068  0.5959  2.8137  1.0308
 6404TIP3    H240772   1.617   5.780   6.946 -2.8083  0.3500  0.3694
 6405TIP3   OH240773   3.924   6.049   2.503  0.0339  0.1542 -0.4630
 6405TIP3    H140774   3.845   5.997   2.488  0.8955 -1.2059 -0.4216
 6405TIP3    H240775   3.995   5.986   2.504  1.0511  1.2584  0.3350
 6406TIP3   OH240776   1.404   6.297   0.838  0.5439 -0.4699 -0.4855
 6406TIP3    H140777   1.355   6.357   0.781 -0.9555 -0.9952  0.2043
 6406TIP3    H240778   1.367   6.211   0.818  0.1260 -0.6920  1.1123
 6407TIP3   OH240779   0.535   6.728   0.409 -0.0271  0.2952  0.5555
 6407TIP3    H140780   0.564   6.690   0.491  2.2769 -0.7318 -0.6464
 6407TIP3    H240781   0.488   6.657   0.365  0.9480  0.0229 -0.0668
 6408TIP3   OH240782   6.458   0.555   8.421  0.1737  0.1548  0.4236
 6408TIP3    H140783   6.389   0.616   8.395 -0.7767 -1.5653 -1.3594
 6408TIP3    H240784   6.493   0.521   8.339  2.1793 -0.1202  1.3272
 6409TIP3   OH240785   1.006   1.576   0.036  0.3578 -0.1069 -0.2029
 6409TIP3    H140786   1.077   1.590  -0.027 -0.0814  1.5599 -0.3901
 6409TIP3    H240787   1.018   1.644   0.101 -0.3304 -0.6075  0.4622
 6410TIP3   OH240788   2.968   5.367   1.197  0.2256 -0.3855  0.3452
 6410TIP3    H140789   3.033   5.436   1.193 -0.0488 -0.1634 -0.2360
 6410TIP3    H240790   2.884   5.411   1.181  0.2034 -1.0799 -1.7567
 6411TIP3   OH240791   4.554   5.931   1.464 -0.4499  0.4280 -0.3579
 6411TIP3    H140792   4.560   5.897   1.553 -1.4934 -2.8103 -1.3847
 6411TIP3    H240793   4.630   5.988   1.455 -1.5177  2.7639  3.2545
 6412TIP3   OH240794   2.416   4.831   8.644  0.2285  0.4023 -0.5760
 6412TIP3    H140795   2.379   4.875   8.721  0.9055 -0.5757  0.3353
 6412TIP3    H240796   2.362   4.862   8.571 -0.5931  1.1649  0.3194
 6413TIP3   OH240797   2.901   4.819   7.087  0.6962 -0.2831 -0.2419
 6413TIP3    H140798   2.848   4.899   7.078 -0.3918 -0.8981  0.4807
 6413TIP3    H240799   2.940   4.827   7.174 -0.7103 -1.2634  0.5148
 6414TIP3   OH240800   5.884   2.423   1.736  0.1170 -0.2009  0.4044
 6414TIP3    H140801   5.935   2.363   1.791  0.1440  0.2713  0.9060
 6414TIP3    H240802   5.888   2.507   1.782  0.1031  0.1970 -0.2974
 6415TIP3   OH240803   1.374   4.898   8.558  0.1059 -0.2050 -0.3977
 6415TIP3    H140804   1.338   4.888   8.470 -2.5731  2.2840  0.2566
 6415TIP3    H240805   1.351   4.817   8.604 -0.3181 -0.6698 -1.4207
 6416TIP3   OH240806   2.473   5.863   0.334  0.0858 -0.0818 -0.1069
 6416TIP3    H140807   2.511   5.938   0.379 -0.1665 -1.1930  2.0504
 6416TIP3    H240808   2.454   5.896   0.246  2.1558  1.6776  0.0185
 6417TIP3   OH240809   4.999   4.675   8.010 -0.3932  0.2211 -0.3717
 6417TIP3    H140810   4.918   4.721   8.028 -0.2823  0.0807  0.5559
 6417TIP3    H240811   5.062   4.743   7.990 -0.3370  0.4613  0.5653
 6418TIP3   OH240812   4.629   5.179   8.155 -0.8260  0.3488 -0.2024
 6418TIP3    H140813   4.717   5.142   8.168 -0.6562  0.7089 -0.3008
 6418TIP3    H240814   4.578   5.144   8.227 -0.6744 -0.0914 -0.3040
 6419TIP3   OH240815   4.155   4.416   8.514 -0.0832  0.4208 -0.5676
 6419TIP3    H140816   4.220   4.405   8.445 -0.2140  3.5670 -1.3580
 6419TIP3    H240817   4.074   4.383   8.475 -0.0941  1.8678 -1.8739
 6420TIP3   OH240818   1.204   1.821   7.308 -0.0547 -0.2235  0.0807
 6420TIP3    H140819   1.226   1.882   7.379 -0.9871  0.6286 -0.3524
 6420TIP3    H240820   1.281   1.823   7.251  0.1857  0.0499  0.4046
 6421TIP3   OH240821   1.641   0.142   7.234 -0.7442 -0.4004  0.2535
 6421TIP3    H140822   1.641   0.072   7.300  1.0865  0.8312  1.6694
 6421TIP3    H240823   1.666   0.221   7.283  1.9145  0.3668 -2.0591
 6422TIP3   OH240824   3.784   5.554   1.056  0.3199  0.5329  0.3118
 6422TIP3    H140825   3.789   5.635   1.006  0.6354  0.3844  0.1066
 6422TIP3    H240826   3.693   5.552   1.088 -0.3557 -0.1181 -1.5006
 6423TIP3   OH240827   3.378   6.747   0.726 -0.0079  0.8089 -0.5605
 6423TIP3    H140828   3.282   6.750   0.719 -0.3003 -2.8492  0.0953
 6423TIP3    H240829   3.409   6.772   0.639 -1.7762 -1.1620 -1.8536
 6424TIP3   OH240830   2.233   1.411   1.944 -0.1065  0.4125  0.0723
 6424TIP3    H140831   2.240   1.338   2.006  0.6245  0.7690  0.4215
 6424TIP3    H240832   2.170   1.471   1.985  0.7585  0.8916  0.7397
 6425TIP3   OH240833   0.358   3.448   0.418 -0.4361  0.3331  0.0031
 6425TIP3    H140834   0.372   3.368   0.368 -1.5250 -0.0288  0.2487
 6425TIP3    H240835   0.441   3.463   0.463 -0.4269 -1.0697  0.5218
 6426TIP3   OH240836   2.745   0.429   7.866 -0.3266  0.3966 -0.0313
 6426TIP3    H140837   2.775   0.442   7.956  0.5197 -1.7118  0.0617
 6426TIP3    H240838   2.711   0.514   7.839 -0.8733  1.0038  2.3677
 6427TIP3   OH240839   0.735   3.220   7.400  0.6599 -0.1187  0.4824
 6427TIP3    H140840   0.716   3.134   7.439  0.0410 -0.7576 -1.1366
 6427TIP3    H240841   0.810   3.204   7.343 -1.5595 -0.5330 -2.6005
 6428TIP3   OH240842   2.855   6.481   8.558  0.3111 -0.3109 -0.4464
 6428TIP3    H140843   2.909   6.408   8.528 -0.9975 -1.2714 -0.5446
 6428TIP3    H240844   2.828   6.526   8.477  2.3525  1.2787 -0.3438
 6429TIP3   OH240845   3.167   1.137   0.654 -0.8490 -0.3092  0.3190
 6429TIP3    H140846   3.205   1.151   0.568 -1.8200 -0.2267 -0.1074
 6429TIP3    H240847   3.243   1.125   0.712 -0.1424  1.1844 -0.2530
 6430TIP3   OH240848   3.163   5.328   7.489 -0.0901 -0.5683 -0.2288
 6430TIP3    H140849   3.211   5.247   7.506  0.5496 -0.2149 -0.3110
 6430TIP3    H240850   3.202   5.361   7.408 -1.4914 -1.0320 -1.1145
 6431TIP3   OH240851   0.709   3.466   0.966  0.4525 -0.4865  0.3891
 6431TIP3    H140852   0.679   3.478   1.056 -2.0551 -1.9198 -0.1706
 6431TIP3    H240853   0.770   3.392   0.970 -1.2402 -1.9201  0.6699
 6432TIP3   OH240854   3.701   1.469   8.445  0.0082 -0.4923 -0.1235
 6432TIP3    H140855   3.690   1.443   8.537  0.3264 -0.5923 -0.1141
 6432TIP3    H240856   3.616   1.450   8.405 -1.0156  1.9269  0.6996
 6433TIP3   OH240857   5.292   4.304   0.613  0.1604 -0.4435  0.1366
 6433TIP3    H140858   5.377   4.260   0.610  0.1959 -0.6221  2.2106
 6433TIP3    H240859   5.268   4.303   0.706 -2.5787 -1.2958 -0.4860
 6434TIP3   OH240860   3.094   2.390   2.544 -0.5914  0.2580  0.5782
 6434TIP3    H140861   3.189   2.384   2.559 -0.1805  0.9444 -1.4317
 6434TIP3    H240862   3.057   2.402   2.632  1.1688 -0.0551  1.4152
 6435TIP3   OH240863   0.848   1.162   6.367 -1.0195 -0.3397 -0.6550
 6435TIP3    H140864   0.823   1.070   6.373 -1.0761 -0.3890 -1.4943
 6435TIP3    H240865   0.771   1.206   6.332 -1.0398  0.0506 -0.1214
 6436TIP3   OH240866   5.795   4.382   0.103  0.3191 -0.5961  0.1300
 6436TIP3    H140867   5.745   4.463   0.116  0.8157  0.2002 -2.2703
 6436TIP3    H240868   5.729   4.316   0.083  0.0373 -0.2463 -0.1155
 6437TIP3   OH240869   5.931   2.349   2.083 -0.1126  0.0473  0.0761
 6437TIP3    H140870   5.969   2.296   2.013  0.5423 -0.0040  0.4654
 6437TIP3    H240871   5.895   2.285   2.144  1.0196  0.0106  0.7409
 6438TIP3   OH240872   2.031   2.116   8.466  0.1130  0.1547 -0.3466
 6438TIP3    H140873   2.101   2.175   8.493  0.4608 -0.9131  1.2272
 6438TIP3    H240874   1.972   2.112   8.542  0.2612 -1.7149 -0.2825
 6439TIP3   OH240875   0.679   3.115   1.677  0.5022  0.2934 -0.4617
 6439TIP3    H140876   0.597   3.066   1.668  0.2183 -0.1087  2.9131
 6439TIP3    H240877   0.654   3.194   1.724  2.0378  0.0843  0.7881
 6440TIP3   OH240878   4.884   2.282   7.169 -0.5315  0.2532  0.2471
 6440TIP3    H140879   4.840   2.201   7.144 -1.3082  1.1019 -1.3023
 6440TIP3    H240880   4.837   2.311   7.247 -1.5533  0.1891 -0.3152
 6441TIP3   OH240881   2.648   5.431   1.793 -0.2470  0.4233 -0.1642
 6441TIP3    H140882   2.618   5.343   1.815 -1.3458  0.8362  0.0630
 6441TIP3    H240883   2.636   5.436   1.698 -0.0326  0.2716 -0.1995
 6442TIP3   OH240884   2.673   3.314   7.000 -0.1207 -0.2548  0.2810
 6442TIP3    H140885   2.697   3.222   7.015 -2.4128 -1.2667 -1.5335
 6442TIP3    H240886   2.633   3.342   7.082  0.3846 -0.9635  0.7793
 6443TIP3   OH240887   3.424   0.847   7.635  0.5092 -0.2412 -0.1689
 6443TIP3    H140888   3.435   0.854   7.541  1.6123 -0.8696 -0.1075
 6443TIP3    H240889   3.333   0.872   7.651  0.9230  2.1894 -1.1306
 6444TIP3   OH240890   5.351   3.664   7.810 -0.4824  0.4212  0.3302
 6444TIP3    H140891   5.421   3.629   7.865 -2.1339 -0.6934  1.8606
 6444TIP3    H240892   5.284   3.693   7.873 -1.5364  1.1276 -1.0621
 6445TIP3   OH240893   5.517   1.828   7.989 -0.0731 -0.3877  0.1969
 6445TIP3    H140894   5.589   1.876   7.948  0.9688 -0.4993  1.8086
 6445TIP3    H240895   5.542   1.736   7.981  1.6463 -0.3449  3.5158
 6446TIP3   OH240896   6.223   1.816   1.001  0.2773 -0.1257 -0.3597
 6446TIP3    H140897   6.226   1.803   1.095  0.7227  0.1723 -0.3292
 6446TIP3    H240898   6.314   1.831   0.976  0.1607 -0.1899 -0.8361
 6447TIP3   OH240899   5.030   0.011   7.439  0.1121  0.3416 -0.3393
 6447TIP3    H140900   4.971  -0.032   7.377 -0.9111 -0.7069  1.2823
 6447TIP3    H240901   5.024  -0.042   7.519 -0.5374  2.9455  1.4933
 6448TIP3   OH240902   3.458   1.310   0.527 -0.3096  0.0546 -0.0140
 6448TIP3    H140903   3.483   1.359   0.604  0.7130  0.3164 -0.5029
 6448TIP3    H240904   3.396   1.367   0.481  1.9119  1.5528 -1.2990
 6449TIP3   OH240905   2.766   0.166   1.651 -0.1196 -0.6676  0.3126
 6449TIP3    H140906   2.777   0.138   1.742 -0.2747  0.9881  0.8635
 6449TIP3    H240907   2.833   0.117   1.602  1.1645 -0.2555  1.5974
 6450TIP3   OH240908   1.930   3.692   7.476 -0.2796  0.5605 -0.1655
 6450TIP3    H140909   1.924   3.597   7.486  0.2363  0.5023 -0.3590
 6450TIP3    H240910   1.884   3.711   7.395  1.5230  0.1968 -1.3302
 6451TIP3   OH240911   5.506   4.140   0.587  0.2652  0.4113 -0.3063
 6451TIP3    H140912   5.549   4.062   0.551  0.2334  0.1033  0.3217
 6451TIP3    H240913   5.552   4.214   0.546  0.1331  0.0716 -1.0943
 6452TIP3   OH240914   2.730   6.508   6.864 -0.8022  0.1465  0.0533
 6452TIP3    H140915   2.778   6.574   6.814  0.4366  0.6972  1.8251
 6452TIP3    H240916   2.654   6.486   6.811 -0.6264  2.1625 -1.1072
 6453TIP3   OH240917   6.386   1.160   1.651  0.0615 -0.0334  0.4607
 6453TIP3    H140918   6.373   1.250   1.682  1.1500  0.0755  0.6657
 6453TIP3    H240919   6.299   1.128   1.630 -0.5363  0.4656  2.0599
 6454TIP3   OH240920   5.525   1.456   0.997  0.1911  0.5234  0.1812
 6454TIP3    H140921   5.620   1.446   1.004  0.1279 -0.3552 -0.0955
 6454TIP3    H240922   5.490   1.383   1.047 -0.3430  0.8691  0.3118
 6455TIP3   OH240923   5.116   5.415   0.402 -0.0680 -0.8288  0.3102
 6455TIP3    H140924   5.079   5.356   0.337 -1.1116 -0.0931  0.2123
 6455TIP3    H240925   5.041   5.463   0.437  0.6941  0.1063  0.7215
 6456TIP3   OH240926   6.420   4.342   7.448 -0.5488  0.2337  0.8787
 6456TIP3    H140927   6.418   4.267   7.388 -0.7200 -0.2601  1.4847
 6456TIP3    H240928   6.327   4.358   7.469 -0.7998  2.4581 -1.4512
 6457TIP3   OH240929   2.275   4.657   1.193 -0.2008  0.8125  0.0705
 6457TIP3    H140930   2.241   4.719   1.128 -0.6201 -0.3984 -0.9119
 6457TIP3    H240931   2.341   4.606   1.145  0.1002  0.4678  0.8388
 6458TIP3   OH240932   4.953   1.071   2.303  0.4010 -0.1610  0.1913
 6458TIP3    H140933   4.969   0.977   2.300  0.3388 -0.1689  0.0885
 6458TIP3    H240934   4.865   1.080   2.338  1.0132 -0.0765  1.7877
 6459TIP3   OH240935   5.759   1.084   0.435 -0.0193 -0.3069 -0.5302
 6459TIP3    H140936   5.785   1.041   0.354  2.6030 -0.0164  0.0795
 6459TIP3    H240937   5.791   1.026   0.504 -0.3715  0.4634  0.3005
 6460TIP3   OH240938   2.665   4.750   8.589 -0.3100 -0.2198  0.3274
 6460TIP3    H140939   2.590   4.783   8.639 -0.0517  0.4883  0.2569
 6460TIP3    H240940   2.741   4.792   8.629  0.1904 -1.7615  1.1146
 6461TIP3   OH240941   1.922   5.497   0.800  0.1503 -0.0382 -0.4709
 6461TIP3    H140942   2.007   5.537   0.783  0.7112  0.3618  2.6719
 6461TIP3    H240943   1.913   5.429   0.734  3.0470 -0.2759 -0.7091
 6462TIP3   OH240944   3.298   4.124   1.387  0.1994 -0.4085  0.4056
 6462TIP3    H140945   3.359   4.079   1.447  0.0626  0.7710  1.4785
 6462TIP3    H240946   3.212   4.106   1.423 -0.0623 -1.4910 -0.7111
 6463TIP3   OH240947   2.449   1.478   7.703 -0.4831  0.2049  0.0601
 6463TIP3    H140948   2.383   1.410   7.704  0.6785 -0.9693  0.9982
 6463TIP3    H240949   2.402   1.557   7.729 -1.7876 -0.2730 -0.7292
 6464TIP3   OH240950   2.071   5.102   7.241 -0.0584  0.0673 -0.1303
 6464TIP3    H140951   2.038   5.191   7.252 -2.3756 -0.6858 -0.4152
 6464TIP3    H240952   2.008   5.060   7.181  0.4337 -2.0218  0.7206
 6465TIP3   OH240953   4.094   5.960   2.189 -0.0419 -0.6537 -0.2317
 6465TIP3    H140954   4.063   5.927   2.105  0.2696 -1.5135 -0.0152
 6465TIP3    H240955   4.170   5.906   2.210 -0.6158 -1.0106  0.9980
 6466TIP3   OH240956   6.242   0.268   7.385 -0.0173 -0.8737 -0.1139
 6466TIP3    H140957   6.298   0.193   7.364 -1.3213 -1.9366 -0.0136
 6466TIP3    H240958   6.242   0.272   7.480  2.8901  1.5685 -0.0972
 6467TIP3   OH240959   2.798   5.638   0.104 -0.1069 -0.1385 -0.5087
 6467TIP3    H140960   2.728   5.582   0.069  0.9192 -1.0495 -1.1569
 6467TIP3    H240961   2.836   5.588   0.176  0.6933 -0.2037 -0.9647
 6468TIP3   OH240962   1.852   5.343   2.267 -0.4235 -0.4327  0.3805
 6468TIP3    H140963   1.943   5.372   2.261 -0.0324 -1.5793  0.3485
 6468TIP3    H240964   1.827   5.325   2.177 -0.8725  0.3988  0.3335
 6469TIP3   OH240965   2.963   5.533   8.453  0.2803  0.2913  0.6044
 6469TIP3    H140966   2.880   5.573   8.426  0.8922  0.2130 -1.5702
 6469TIP3    H240967   2.938   5.468   8.519 -1.4489 -0.0524 -0.3338
 6470TIP3   OH240968   4.355   6.887   0.203 -0.2850  0.0796 -0.2474
 6470TIP3    H140969   4.387   6.870   0.115  1.2990 -2.3234  0.6978
 6470TIP3    H240970   4.428   6.930   0.248 -0.8627  0.7437  0.0856
 6471TIP3   OH240971   0.081   4.286   1.161  0.6465  0.0353 -0.1845
 6471TIP3    H140972   0.107   4.321   1.246 -1.4813  1.3088  0.0131
 6471TIP3    H240973   0.057   4.363   1.109 -0.9288 -0.8909 -0.9127
 6472TIP3   OH240974   2.954   4.655   1.086  0.0350 -0.6980  0.0038
 6472TIP3    H140975   3.021   4.700   1.138  0.4227  0.3238 -1.3362
 6472TIP3    H240976   3.004   4.602   1.023 -0.3862  0.5182 -1.3858
 6473TIP3   OH240977   6.406   0.266   1.737  0.1844  0.0368 -0.0518
 6473TIP3    H140978   6.312   0.246   1.738 -0.0924  1.2882  0.3687
 6473TIP3    H240979   6.427   0.291   1.827  1.0749 -0.8162  0.0028
 6474TIP3   OH240980   4.291   4.853   7.451  0.4313 -0.9663 -0.4288
 6474TIP3    H140981   4.277   4.910   7.527  1.2874 -0.7089 -0.4571
 6474TIP3    H240982   4.377   4.814   7.465  0.5014 -1.0929 -1.1571
 6475TIP3   OH240983   3.517   6.249   6.409 -0.5175  0.4663  0.0317
 6475TIP3    H140984   3.609   6.227   6.394 -0.0749  0.3790  2.5011
 6475TIP3    H240985   3.476   6.166   6.434 -1.4190  0.4028 -1.5497
 6476TIP3   OH240986   1.408   3.855   6.869 -0.1734  0.1894 -0.0772
 6476TIP3    H140987   1.337   3.871   6.807 -0.6936  1.3614  0.7789
 6476TIP3    H240988   1.426   3.941   6.908  2.0889  0.0352 -0.6376
 6477TIP3   OH240989   0.445   3.261   8.285  0.6137  0.4551  0.3497
 6477TIP3    H140990   0.437   3.348   8.247 -0.2469 -0.1991 -1.0391
 6477TIP3    H240991   0.457   3.203   8.210 -0.3258 -0.7944  1.1258
 6478TIP3   OH240992   1.836   6.684   7.311 -0.1794 -0.4136  0.1061
 6478TIP3    H140993   1.922   6.672   7.351 -0.6655 -2.1589  0.7147
 6478TIP3    H240994   1.781   6.718   7.382  0.2495  1.9008 -0.5968
 6479TIP3   OH240995   1.513   2.029   7.423 -0.4039 -0.5221  0.2916
 6479TIP3    H140996   1.429   2.054   7.387 -0.5601 -0.6852  0.5411
 6479TIP3    H240997   1.496   2.013   7.516  0.4576  2.2781  1.0330
 6480TIP3   OH240998   3.963   3.785   2.519 -0.1894 -0.9164 -0.6210
 6480TIP3    H140999   4.045   3.808   2.563  0.1023 -0.5656 -1.3276
 6480TIP3    H241000   3.985   3.785   2.426 -1.2556  0.3177 -0.9016
 6481TIP3   OH241001   1.465   0.447   7.867  0.0964  0.1802  0.3766
 6481TIP3    H141002   1.545   0.464   7.915  1.2440  0.8399 -1.6243
 6481TIP3    H241003   1.406   0.519   7.892 -0.4384 -1.0257  2.8583
 6482TIP3   OH241004   2.409   5.465   0.190  0.7051 -0.0424 -0.2367
 6482TIP3    H141005   2.375   5.515   0.264 -0.8125  0.7164 -1.3881
 6482TIP3    H241006   2.337   5.462   0.128  2.0867 -0.2122 -1.9193
 6483TIP3   OH241007   4.251   3.311   1.861 -0.1837 -0.0467  0.1004
 6483TIP3    H141008   4.201   3.230   1.847 -2.6252  1.4345 -0.2812
 6483TIP3    H241009   4.238   3.331   1.954  1.8522 -0.9145  0.6309
 6484TIP3   OH241010   4.808   6.571   1.272  0.2564 -0.4719  0.1652
 6484TIP3    H141011   4.802   6.611   1.185  0.8864  0.6542  0.6137
 6484TIP3    H241012   4.875   6.504   1.262 -0.7697 -1.4363 -0.5857
 6485TIP3   OH241013   1.389   2.422   7.463  0.4909 -0.2217  0.3359
 6485TIP3    H141014   1.417   2.412   7.372  1.1467 -2.0567  0.7016
 6485TIP3    H241015   1.294   2.435   7.457  0.7210  1.2825 -0.6655
 6486TIP3   OH241016   5.511   1.614   7.661  0.1991  0.4537  0.5759
 6486TIP3    H141017   5.483   1.703   7.685 -0.5554 -0.0146  1.5058
 6486TIP3    H241018   5.524   1.570   7.745 -0.5846 -0.6618  0.1378
 6487TIP3   OH241019   0.414   3.594   2.485  0.5351  0.3546  0.2773
 6487TIP3    H141020   0.451   3.673   2.448  0.8768 -0.7132 -1.7588
 6487TIP3    H241021   0.406   3.613   2.579 -0.0168  3.0151 -0.2295
 6488TIP3   OH241022   4.563   6.680   8.220 -1.0952  0.0476 -0.3728
 6488TIP3    H141023   4.511   6.601   8.238 -0.5851 -0.7184 -2.0794
 6488TIP3    H241024   4.648   6.647   8.191 -0.3214  1.2757  0.4014
 6489TIP3   OH241025   1.269   3.806   7.850 -0.0010 -0.2735 -0.0553
 6489TIP3    H141026   1.224   3.890   7.841 -0.6568 -0.5282  0.7302
 6489TIP3    H241027   1.339   3.823   7.914 -0.5456 -0.4753  0.6044
 6490TIP3   OH241028   4.003   6.117   7.133  0.0255  0.0199  0.0703
 6490TIP3    H141029   4.060   6.065   7.076 -0.2675  0.3417 -0.5326
 6490TIP3    H241030   3.986   6.061   7.208 -0.8445 -1.0399 -0.8785
 6491TIP3   OH241031   3.004   1.586   6.871  0.0487  0.2273  0.3892
 6491TIP3    H141032   3.051   1.517   6.824 -0.2847 -0.0108  0.4069
 6491TIP3    H241033   3.044   1.587   6.958 -1.6349 -1.6852  1.2519
 6492TIP3   OH241034   1.721   4.340   0.576 -0.2440  0.3569 -0.1087
 6492TIP3    H141035   1.663   4.314   0.647 -0.4432  1.0791  0.0065
 6492TIP3    H241036   1.788   4.272   0.574 -0.2020  0.3512  0.8108
 6493TIP3   OH241037   2.297   1.629   0.407 -0.5036 -0.2838  0.1558
 6493TIP3    H141038   2.391   1.636   0.393 -0.5492  2.5336  0.7037
 6493TIP3    H241039   2.288   1.584   0.491  0.2981 -1.2402 -0.2558
 6494TIP3   OH241040   4.767   1.202   1.503  0.0029 -0.0090  0.1225
 6494TIP3    H141041   4.819   1.279   1.477 -0.1040 -0.0285 -0.1525
 6494TIP3    H241042   4.687   1.239   1.539  0.2360  0.0232  0.6146
 6495TIP3   OH241043   6.800   0.421   8.290 -0.2061  0.0327  0.3999
 6495TIP3    H141044   6.894   0.414   8.305 -0.2249  1.5602  1.4827
 6495TIP3    H241045   6.784   0.515   8.279 -1.3244 -0.3393 -1.9561
 6496TIP3   OH241046   2.507   5.698   7.791  0.5792  0.1729 -0.6571
 6496TIP3    H141047   2.441   5.690   7.722  0.7173 -1.5604 -0.6330
 6496TIP3    H241048   2.587   5.721   7.744  0.2143  1.2028 -0.8039
 6497TIP3   OH241049   2.700   3.726   0.748  0.1514 -0.0572  0.6160
 6497TIP3    H141050   2.764   3.655   0.749  2.2284  1.6822  0.0394
 6497TIP3    H241051   2.615   3.682   0.744  1.2159 -2.5094  2.1730
 6498TIP3   OH241052   5.991   1.961   0.586 -0.1161  0.1577 -0.0615
 6498TIP3    H141053   5.941   1.886   0.620  0.9283  0.5869  2.6416
 6498TIP3    H241054   5.941   2.038   0.613 -1.0907  0.5313 -2.6730
 6499TIP3   OH241055   5.248   3.685   1.232 -0.3473  0.4145 -0.2560
 6499TIP3    H141056   5.155   3.667   1.216 -0.7938  3.2034 -1.2943
 6499TIP3    H241057   5.248   3.762   1.289  1.3764 -0.6205  1.2405
 6500TIP3   OH241058   2.770   4.058   8.546  0.5717  0.1354  0.6439
 6500TIP3    H141059   2.759   4.058   8.451 -4.1935  0.9272  0.9688
 6500TIP3    H241060   2.728   3.978   8.575  0.4640  0.7233  2.1706
 6501TIP3   OH241061   6.028   5.182   8.350  0.1403  0.5051 -0.1306
 6501TIP3    H141062   6.095   5.214   8.290  0.1557 -1.2225 -1.1142
 6501TIP3    H241063   5.979   5.117   8.299  0.1700 -1.0614  1.7094
 6502TIP3   OH241064   1.171   3.559   8.417 -0.0602  0.1269  0.2125
 6502TIP3    H141065   1.159   3.642   8.463  3.6803  0.5271  0.7693
 6502TIP3    H241066   1.176   3.584   8.324  2.5590  0.8974  0.4676
 6503TIP3   OH241067   6.198   2.134   6.087  0.2503  0.3101 -0.4498
 6503TIP3    H141068   6.140   2.067   6.051 -0.8024  0.8558  0.1665
 6503TIP3    H241069   6.192   2.123   6.182 -1.1786  2.2369 -0.2680
 6504TIP3   OH241070   0.815   6.510   1.734  0.2646 -0.3381 -0.2734
 6504TIP3    H141071   0.771   6.425   1.736 -0.7943  0.1043 -2.0194
 6504TIP3    H241072   0.756   6.569   1.781 -0.7670  0.0966 -1.9858
 6505TIP3   OH241073   3.220   0.502   7.275 -0.5685  0.5854 -0.0242
 6505TIP3    H141074   3.152   0.453   7.230  0.6720 -0.2016 -1.1126
 6505TIP3    H241075   3.256   0.439   7.338 -0.1133  0.6311 -0.2346
 6506TIP3   OH241076   5.849   5.853   8.147  0.4067 -0.2374  0.2988
 6506TIP3    H141077   5.865   5.946   8.165 -1.5904 -0.0855  1.6854
 6506TIP3    H241078   5.907   5.807   8.208  0.7113  0.1199  0.2841
 6507TIP3   OH241079   1.695   2.102   6.663  0.3327  0.0225 -0.1635
 6507TIP3    H141080   1.629   2.047   6.620  0.1998 -0.5100  0.6874
 6507TIP3    H241081   1.650   2.184   6.681  0.2668  0.0984 -0.6617
 6508TIP3   OH241082   0.332   1.491   1.364 -0.1587  0.3137 -0.2018
 6508TIP3    H141083   0.298   1.563   1.417 -1.0659 -0.1572 -0.1296
 6508TIP3    H241084   0.396   1.448   1.421 -0.7991  0.0828  0.3535
 6509TIP3   OH241085   3.484   4.520   1.770 -0.2015 -0.0775 -0.2798
 6509TIP3    H141086   3.513   4.433   1.797 -2.2693 -0.6473  0.3316
 6509TIP3    H241087   3.410   4.540   1.828 -0.9751  1.2467 -1.6400
 6510TIP3   OH241088   1.421   0.954   0.067  0.4737 -0.2836  0.0779
 6510TIP3    H141089   1.472   0.947  -0.014  1.1879 -0.3687  0.5249
 6510TIP3    H241090   1.369   1.033   0.055 -0.0091 -0.7159 -0.7850
 6511TIP3   OH241091   2.282   4.769   6.790  0.3048 -0.0015 -0.3115
 6511TIP3    H141092   2.354   4.806   6.842  1.4380 -1.7760 -0.5264
 6511TIP3    H241093   2.286   4.817   6.707  1.8590 -0.6701 -0.6562
 6512TIP3   OH241094   6.721   2.971   8.107 -0.0532  0.2746 -0.8094
 6512TIP3    H141095   6.682   3.014   8.031  0.9936 -0.9557 -2.1029
 6512TIP3    H241096   6.816   2.976   8.091  0.1343 -1.2511 -0.3235
 6513TIP3   OH241097   6.123   4.184   0.384 -0.6168  0.0829 -0.2980
 6513TIP3    H141098   6.061   4.257   0.380 -0.8602 -0.0423  0.7299
 6513TIP3    H241099   6.209   4.225   0.378 -0.7285  0.5430  0.9149
 6514TIP3   OH241100   6.778   4.662   0.771 -0.4373  0.5813  0.0523
 6514TIP3    H141101   6.728   4.678   0.850 -0.0057 -1.0775  0.7054
 6514TIP3    H241102   6.712   4.653   0.702 -1.3345 -3.3635  1.1898
 6515TIP3   OH241103   2.269   6.475   6.913 -0.5869  0.6739 -0.7550
 6515TIP3    H141104   2.210   6.448   6.843 -1.5194 -1.4793  0.7441
 6515TIP3    H241105   2.216   6.532   6.969 -0.0693  1.7740 -1.3446
 6516TIP3   OH241106   5.371   2.126   8.265 -0.0215 -0.0007  0.4507
 6516TIP3    H141107   5.399   2.109   8.355 -0.3888  0.7972  0.7192
 6516TIP3    H241108   5.441   2.181   8.229 -0.1071  0.0780  0.4039
 6517TIP3   OH241109   4.407   3.736   1.970 -0.0842  0.2141 -0.2054
 6517TIP3    H141110   4.416   3.809   2.031 -1.0539  0.6181 -0.5399
 6517TIP3    H241111   4.423   3.658   2.024 -1.1239  0.5521  0.6122
 6518TIP3   OH241112   2.597   2.896   1.887  0.2397 -0.0499  0.5592
 6518TIP3    H141113   2.646   2.912   1.807 -0.1331  0.8690  0.5078
 6518TIP3    H241114   2.512   2.863   1.858  0.2765 -0.1782  0.5956
 6519TIP3   OH241115   2.105   4.568   1.950 -0.1981 -0.1500 -0.5937
 6519TIP3    H141116   2.179   4.602   1.899 -0.9604 -0.2866 -1.8465
 6519TIP3    H241117   2.061   4.507   1.890 -1.0726 -0.3964  0.2770
 6520TIP3   OH241118   6.331   4.534   1.893 -0.2505 -0.1597  0.0175
 6520TIP3    H141119   6.395   4.606   1.891  0.3824 -0.6347  1.5427
 6520TIP3    H241120   6.329   4.501   1.803  1.6393 -0.1079 -0.0837
 6521TIP3   OH241121   5.916   1.693   1.918 -0.1271  0.4965  0.6458
 6521TIP3    H141122   5.826   1.660   1.908  0.2899 -1.2458  2.0523
 6521TIP3    H241123   5.915   1.779   1.877 -1.4903 -0.9717 -2.8221
 6522TIP3   OH241124   2.451   4.323   6.832 -0.2944  0.6266  0.1373
 6522TIP3    H141125   2.516   4.381   6.871 -1.8290  2.5063  0.0457
 6522TIP3    H241126   2.382   4.382   6.801 -0.1455 -0.8753 -3.6162
 6523TIP3   OH241127   5.566   6.331   6.513  0.5863  0.0254 -0.1234
 6523TIP3    H141128   5.530   6.337   6.425  3.0351  1.1457 -1.1579
 6523TIP3    H241129   5.552   6.240   6.539 -0.2935 -0.2991 -1.6086
 6524TIP3   OH241130   6.262   3.487   1.260  0.6407  0.0160  0.1866
 6524TIP3    H141131   6.310   3.416   1.303 -0.9579 -0.4594  1.2594
 6524TIP3    H241132   6.311   3.503   1.179  1.4046 -1.8589  0.2257
 6525TIP3   OH241133   6.299   0.992   1.365  0.1940 -0.5799 -0.2856
 6525TIP3    H141134   6.256   1.012   1.448 -1.3750 -0.8994 -0.9841
 6525TIP3    H241135   6.330   1.076   1.332  1.2906 -0.5204  0.8515
 6526TIP3   OH241136   3.075   5.466   7.040  0.1554 -0.1299  0.4327
 6526TIP3    H141137   3.004   5.479   6.977 -0.2738 -3.1452  0.1579
 6526TIP3    H241138   3.155   5.469   6.987 -0.0620 -0.5236  0.0745
 6527TIP3   OH241139   1.719   5.606   0.611 -0.4348  0.7417  0.4922
 6527TIP3    H141140   1.728   5.525   0.662  1.9934  0.7292  0.1641
 6527TIP3    H241141   1.792   5.661   0.639 -1.0735  2.1573 -0.4872
 6528TIP3   OH241142   4.398   3.599   6.964  0.0297 -0.0660  0.0715
 6528TIP3    H141143   4.432   3.511   6.947 -0.8936 -0.8459  1.8868
 6528TIP3    H241144   4.307   3.584   6.992 -1.0515  1.7094 -2.1119
 6529TIP3   OH241145   5.334   3.312   7.947  0.5079 -0.3088  0.1090
 6529TIP3    H141146   5.314   3.333   7.856 -0.1167  0.9978  0.5151
 6529TIP3    H241147   5.429   3.324   7.955  0.6117 -0.7430 -0.4310
 6530TIP3   OH241148   3.475   0.184   1.632  0.0996 -0.1927 -0.2869
 6530TIP3    H141149   3.541   0.136   1.582 -0.0455  1.5045 -2.2493
 6530TIP3    H241150   3.507   0.274   1.634 -2.4234  0.8603 -1.9805
 6531TIP3   OH241151   3.007   1.338   7.278  0.8112 -0.4308 -0.6149
 6531TIP3    H141152   3.099   1.362   7.272  1.1378 -1.5032 -0.0890
 6531TIP3    H241153   2.981   1.322   7.187  0.7220  1.2758 -0.9300
 6532TIP3   OH241154   0.352   4.207   1.152 -0.2023  0.0496 -0.1585
 6532TIP3    H141155   0.331   4.115   1.135  0.0269  0.0774 -0.6266
 6532TIP3    H241156   0.268   4.251   1.151 -0.3991 -0.2843  0.9408
 6533TIP3   OH241157   5.117   1.015   0.951 -0.2833 -0.2580 -0.2498
 6533TIP3    H141158   5.182   0.985   0.887  1.2346 -0.3813  1.2600
 6533TIP3    H241159   5.099   1.106   0.927  1.1305  0.0543 -0.1966
 6534TIP3   OH241160   1.829   0.358   7.698  0.1237 -0.4383  0.1544
 6534TIP3    H141161   1.780   0.281   7.727  1.3672 -1.9819 -1.6310
 6534TIP3    H241162   1.889   0.378   7.769  0.2547 -1.5574  0.3673
 6535TIP3   OH241163   3.244   1.494   0.826  0.2847  0.3120  0.1129
 6535TIP3    H141164   3.236   1.522   0.735  0.7459 -1.0875 -0.3836
 6535TIP3    H241165   3.337   1.472   0.835 -0.0693 -1.1495  0.4223
 6536TIP3   OH241166   0.920   5.610   2.550  0.2038  0.2200 -0.0142
 6536TIP3    H141167   0.837   5.610   2.598  0.3608  2.6495  0.3776
 6536TIP3    H241168   0.976   5.550   2.599 -1.4359 -1.9166 -0.6153
 6537TIP3   OH241169   4.398   6.496   8.301 -0.4664  0.3161 -0.1901
 6537TIP3    H141170   4.378   6.463   8.388  0.1030 -0.8842 -0.4825
 6537TIP3    H241171   4.321   6.474   8.249 -0.3703  0.0623 -0.2264
 6538TIP3   OH241172   0.227   2.259   0.890 -0.5067 -0.5356 -0.3380
 6538TIP3    H141173   0.214   2.182   0.836 -1.9213 -0.2454 -0.4540
 6538TIP3    H241174   0.280   2.228   0.964  2.3384 -0.7237 -2.2981
 6539TIP3   OH241175   4.368   3.983   1.023 -0.4003 -0.2300 -0.4981
 6539TIP3    H141176   4.300   3.998   1.088 -0.7825 -0.3408 -0.8707
 6539TIP3    H241177   4.436   4.047   1.045 -0.9899  0.4532 -0.6304
 6540TIP3   OH241178   3.713   3.104   6.633 -0.3763 -0.5100 -0.3855
 6540TIP3    H141179   3.743   3.098   6.543  0.8234 -1.9152  0.0624
 6540TIP3    H241180   3.693   3.014   6.658  1.4698 -0.5148  1.4020
 6541TIP3   OH241181   1.569   6.033   1.598  0.8721  0.4441  0.2961
 6541TIP3    H141182   1.543   6.004   1.686 -0.8574 -0.0123 -0.3331
 6541TIP3    H241183   1.556   5.956   1.543  0.7196  1.0900 -0.5833
 6542TIP3   OH241184   6.068   3.332   6.830 -0.1137  0.1411  0.2036
 6542TIP3    H141185   5.976   3.351   6.816 -0.2331  0.5073  1.4031
 6542TIP3    H241186   6.074   3.236   6.831 -0.8448  0.0650  2.1475
 6543TIP3   OH241187   0.073   5.735   8.507 -0.1232 -0.0718 -0.0928
 6543TIP3    H141188   0.141   5.726   8.441 -1.5904 -1.2169 -1.5181
 6543TIP3    H241189   0.098   5.814   8.556  2.0069 -0.2595 -0.7640
 6544TIP3   OH241190   4.295   0.091   6.313 -0.5576 -0.0701 -0.3087
 6544TIP3    H141191   4.377   0.138   6.324 -1.2784  1.5405 -1.4299
 6544TIP3    H241192   4.295   0.026   6.383  0.7500  1.2341  0.9737
 6545TIP3   OH241193   6.539   0.847   8.197 -0.3569  0.2638 -0.1012
 6545TIP3    H141194   6.464   0.886   8.243  0.5860  2.2903 -0.1491
 6545TIP3    H241195   6.605   0.916   8.197  0.9241 -0.8922 -1.5076
 6546TIP3   OH241196   0.464   6.046   0.307  0.4083 -0.7668 -0.3748
 6546TIP3    H141197   0.454   5.954   0.332 -1.1852 -0.1001  1.7401
 6546TIP3    H241198   0.527   6.082   0.369  1.3273 -0.4999 -1.4396
 6547TIP3   OH241199   5.445   6.453   2.560  0.2640  0.6984 -0.3795
 6547TIP3    H141200   5.372   6.394   2.581 -0.9755  2.4346  0.5160
 6547TIP3    H241201   5.523   6.405   2.588 -0.7177 -0.3642  0.6792
 6548TIP3   OH241202   4.910   1.517   1.142 -0.4395  0.5426 -0.1280
 6548TIP3    H141203   4.984   1.554   1.191 -2.3594  2.0353  1.8039
 6548TIP3    H241204   4.887   1.584   1.079 -0.0659  0.0004 -0.8559
 6549TIP3   OH241205   4.988   3.491   8.261 -0.1917  0.2045 -0.5657
 6549TIP3    H141206   5.059   3.551   8.285  0.3494 -0.3636 -0.7094
 6549TIP3    H241207   4.988   3.425   8.331  1.5168 -1.5640 -2.1272
 6550TIP3   OH241208   0.071   3.398   8.514  0.0898  0.0179 -0.2226
 6550TIP3    H141209   0.065   3.475   8.457 -0.4402 -0.0843 -0.3109
 6550TIP3    H241210   0.164   3.391   8.535  0.1844  0.5100 -0.4524
 6551TIP3   OH241211   2.256   6.628   1.613 -0.2896  1.1966 -0.2619
 6551TIP3    H141212   2.292   6.540   1.611  3.4300  2.5053  0.5668
 6551TIP3    H241213   2.187   6.627   1.546 -1.0081 -2.4698  0.3125
 6552TIP3   OH241214   1.498   4.258   0.723  0.2767  0.0464  0.7964
 6552TIP3    H141215   1.466   4.182   0.771  2.5583  0.3014  2.9186
 6552TIP3    H241216   1.421   4.315   0.715 -0.5222 -0.6086  3.0422
 6553TIP3   OH241217   4.779   2.531   0.537 -0.1726  0.1156 -0.3569
 6553TIP3    H141218   4.747   2.493   0.619 -2.2702 -1.3598 -1.7399
 6553TIP3    H241219   4.843   2.468   0.505  1.4787  1.2249  0.5804
 6554TIP3   OH241220   1.884   0.475   7.037 -0.2348 -0.6975  0.0157
 6554TIP3    H141221   1.887   0.519   7.121  0.4170 -1.6539  0.5148
 6554TIP3    H241222   1.933   0.532   6.978 -1.9234  0.7053 -0.1060
 6555TIP3   OH241223   3.602   1.306   1.757  0.2135 -0.6111  0.2598
 6555TIP3    H141224   3.520   1.356   1.753  0.3696 -0.4043 -0.4939
 6555TIP3    H241225   3.579   1.226   1.804 -0.9799 -1.5900 -1.8656
 6556TIP3   OH241226   0.902   6.625   0.829 -0.3462 -0.4744  0.0708
 6556TIP3    H141227   0.928   6.672   0.908 -2.3572  0.0060  0.5056
 6556TIP3    H241228   0.807   6.612   0.839 -0.5226 -1.0570 -1.9105
 6557TIP3   OH241229   3.181   5.257   2.205  0.6109 -0.4099  0.7355
 6557TIP3    H141230   3.233   5.195   2.153  1.0396  1.7207 -1.5660
 6557TIP3    H241231   3.095   5.216   2.213  0.7463 -1.1424 -1.0873
 6558TIP3   OH241232   2.626   0.496   1.316 -0.2294  0.2167  0.7716
 6558TIP3    H141233   2.551   0.541   1.275 -1.4725 -1.0992  1.5142
 6558TIP3    H241234   2.590   0.460   1.398  0.7947 -1.8242  0.3721
 6559TIP3   OH241235   5.378   3.182   0.905  0.3890 -0.7148 -0.2879
 6559TIP3    H141236   5.465   3.161   0.873  0.6869  0.1478 -0.0561
 6559TIP3    H241237   5.377   3.277   0.913  0.1148 -0.8407  1.6338
 6560TIP3   OH241238   1.261   4.544   8.103 -0.8117  0.2994  0.0947
 6560TIP3    H141239   1.165   4.539   8.109 -0.9824  1.6462 -1.0711
 6560TIP3    H241240   1.278   4.611   8.036  0.9542  0.4464  0.6363
 6561TIP3   OH241241   1.922   1.334   1.982  0.0458 -0.3688  0.2819
 6561TIP3    H141242   2.002   1.301   2.022 -1.6856 -1.6365  3.0002
 6561TIP3    H241243   1.883   1.258   1.940 -1.0501 -0.5008  1.4479
 6562TIP3   OH241244   2.539   3.059   0.945 -0.1338  0.3028 -0.0365
 6562TIP3    H141245   2.537   2.963   0.949  0.1864  0.2944 -0.0636
 6562TIP3    H241246   2.598   3.078   0.872 -2.8362  0.4900 -2.3191
 6563TIP3   OH241247   0.448   4.451   0.081 -0.5848  0.2423  0.2679
 6563TIP3    H141248   0.441   4.472  -0.012 -0.8055 -0.9796 -0.0202
 6563TIP3    H241249   0.527   4.496   0.110 -0.1625  0.1447 -0.6689
 6564TIP3   OH241250   0.849   1.127   0.386  0.0300 -0.1939 -0.4662
 6564TIP3    H141251   0.873   1.039   0.417 -0.7624 -0.1350  0.3429
 6564TIP3    H241252   0.926   1.157   0.338  0.2448 -1.3999 -0.9042
 6565TIP3   OH241253   0.525   5.736   8.274  0.4947  0.0306 -0.1410
 6565TIP3    H141254   0.547   5.666   8.212 -0.0524  0.3871 -0.7519
 6565TIP3    H241255   0.567   5.814   8.237 -1.1390  0.5733 -0.9336
 6566TIP3   OH241256   3.126   4.528   7.273  0.1256  0.3365 -0.2716
 6566TIP3    H141257   3.202   4.586   7.276  1.6175 -1.5387  0.7870
 6566TIP3    H241258   3.107   4.519   7.180  2.0415 -0.1123 -0.6730
 6567TIP3   OH241259   1.290   3.261   7.284 -0.0494  0.5553  0.6964
 6567TIP3    H141260   1.294   3.299   7.197 -0.3980  0.7089  0.7434
 6567TIP3    H241261   1.273   3.168   7.269 -2.2844  0.9307  0.6232
 6568TIP3   OH241262   4.749   3.814   1.139 -0.1644  1.0620  0.1170
 6568TIP3    H141263   4.690   3.863   1.195  0.4686  1.9091  0.0618
 6568TIP3    H241264   4.692   3.750   1.094 -0.6182  0.0758  1.9848
 6569TIP3   OH241265   4.730   4.006   8.180  0.3959 -0.5382  0.4371
 6569TIP3    H141266   4.666   3.956   8.231  2.0866 -0.6564  2.5426
 6569TIP3    H241267   4.740   3.954   8.099 -1.4590 -0.9768  0.4282
 6570TIP3   OH241268   5.340   3.940   7.685 -0.1651 -0.1251  0.0109
 6570TIP3    H141269   5.373   3.865   7.734  1.7331  0.9322  0.4403
 6570TIP3    H241270   5.418   3.991   7.662 -1.4661  2.6028  1.1564
 6571TIP3   OH241271   3.491   1.451   7.916  0.0402 -0.2418  0.1760
 6571TIP3    H141272   3.534   1.522   7.867 -1.8633 -0.2027 -1.6207
 6571TIP3    H241273   3.538   1.372   7.891 -0.4762 -0.1265 -1.2793
 6572TIP3   OH241274   3.240   2.127   0.497  0.0191  0.6038 -0.2075
 6572TIP3    H141275   3.221   2.220   0.484 -0.5805  0.1908 -2.9326
 6572TIP3    H241276   3.156   2.088   0.521 -0.5707  0.3055 -2.5008
 6573TIP3   OH241277   4.322   4.127   8.253 -0.1318  0.1766 -1.0250
 6573TIP3    H141278   4.253   4.066   8.226  0.4974 -0.6246 -0.8615
 6573TIP3    H241279   4.283   4.213   8.243 -1.1344 -0.2627 -1.0089
 6574TIP3   OH241280   6.583   1.065   0.562  0.2989 -0.0323  0.1388
 6574TIP3    H141281   6.663   1.082   0.513  0.8898  2.2298  1.7353
 6574TIP3    H241282   6.518   1.125   0.524  0.4088  0.8038  1.2321
 6575TIP3   OH241283   1.016   6.830   8.574 -0.6192  0.0698 -0.1153
 6575TIP3    H141284   1.044   6.771   8.645  0.0571  1.5793  0.9291
 6575TIP3    H241285   1.086   6.823   8.509 -0.0634  0.3980  0.4280
 6576TIP3   OH241286   6.580   2.213   7.821 -0.0337  0.3749 -0.4009
 6576TIP3    H141287   6.535   2.199   7.737 -0.6537  1.0791 -0.1946
 6576TIP3    H241288   6.650   2.275   7.801 -0.3102  0.7022 -0.3613
 6577TIP3   OH241289   6.494   6.619   6.245  0.0969 -0.1708 -0.0246
 6577TIP3    H141290   6.437   6.692   6.266 -0.0733 -0.5518  0.8862
 6577TIP3    H241291   6.583   6.655   6.252  0.0966 -0.5058  2.4151
 6578TIP3   OH241292   3.999   6.143   7.923 -0.6167  0.0573 -0.4538
 6578TIP3    H141293   3.937   6.095   7.867  0.5103  0.4505 -2.1145
 6578TIP3    H241294   3.965   6.232   7.925  0.1862  0.4446 -1.9471
 6579TIP3   OH241295   3.074   0.474   0.351  0.0170 -0.0818 -0.0825
 6579TIP3    H141296   3.030   0.403   0.397 -0.7070  0.7498  0.5348
 6579TIP3    H241297   3.101   0.534   0.420 -1.1665  1.2411 -0.7168
 6580TIP3   OH241298   4.775   4.385   7.089 -0.2824  0.0305 -0.4431
 6580TIP3    H141299   4.767   4.291   7.075  0.1987  0.2713 -2.7203
 6580TIP3    H241300   4.760   4.397   7.183 -1.2775 -2.1877 -0.2673
 6581TIP3   OH241301   1.510   2.486   8.555  0.0867  0.0165  0.3316
 6581TIP3    H141302   1.558   2.534   8.488 -0.5681  0.3140  0.0609
 6581TIP3    H241303   1.436   2.447   8.507  1.4692 -2.6630  0.1761
 6582TIP3   OH241304   5.818   4.775   0.318 -0.3870  0.1581  0.0343
 6582TIP3    H141305   5.789   4.861   0.288  1.9812  1.1590  0.3954
 6582TIP3    H241306   5.813   4.780   0.414  0.1491  0.0538  0.0719
 6583TIP3   OH241307   1.781   1.148   1.845 -0.3495 -0.3727 -0.4735
 6583TIP3    H141308   1.852   1.091   1.816 -0.9165 -0.6823 -1.2859
 6583TIP3    H241309   1.712   1.089   1.874  0.8935 -0.1387  3.5699
 6584TIP3   OH241310   5.972   6.699   1.932 -0.1605 -0.2443 -0.2728
 6584TIP3    H141311   6.010   6.770   1.984  3.4849 -1.0657 -1.5638
 6584TIP3    H241312   5.923   6.647   1.996  0.4177  1.2100  1.4471
 6585TIP3   OH241313   6.272   5.143   1.979  0.3030 -0.3158 -0.2284
 6585TIP3    H141314   6.294   5.161   2.071  0.0819 -0.2093 -0.1956
 6585TIP3    H241315   6.227   5.222   1.950  0.0687 -0.4856 -0.3284
 6586TIP3   OH241316   4.867   4.163   1.846 -0.0068  0.6427  0.9859
 6586TIP3    H141317   4.864   4.075   1.883  2.9817 -0.1479 -0.3695
 6586TIP3    H241318   4.895   4.219   1.918 -0.9961  0.3707  1.6086
 6587TIP3   OH241319   3.760   1.263   1.206  0.4338  0.4373 -0.4447
 6587TIP3    H141320   3.750   1.265   1.111 -1.5916  0.6896 -0.2718
 6587TIP3    H241321   3.814   1.339   1.226 -1.9688  2.4528 -1.1658
 6588TIP3   OH241322   3.280   0.972   0.347  0.0817 -0.7115 -0.0959
 6588TIP3    H141323   3.358   0.937   0.304 -1.3675 -3.7881 -0.4366
 6588TIP3    H241324   3.206   0.928   0.305 -1.8942  1.7234  0.5469
 6589TIP3   OH241325   5.352   3.796   1.786 -0.0194 -0.6648 -0.0759
 6589TIP3    H141326   5.402   3.807   1.867  1.0515  0.4327 -0.8457
 6589TIP3    H241327   5.363   3.704   1.762  0.6007 -0.7287  0.4324
 6590TIP3   OH241328   4.503   0.047   0.996 -0.2462 -0.2565 -0.0719
 6590TIP3    H141329   4.560   0.100   0.940  0.1549  0.1007  0.6563
 6590TIP3    H241330   4.551   0.039   1.078 -1.5396  0.6179  0.7992
 6591TIP3   OH241331   6.639   5.470   0.150  0.4180  0.0392 -0.2630
 6591TIP3    H141332   6.687   5.387   0.159  1.0837  0.4487  0.0386
 6591TIP3    H241333   6.608   5.470   0.060  2.5518  0.5660 -1.0652
 6592TIP3   OH241334   1.207   4.712   0.244 -0.0924  0.4230  0.0310
 6592TIP3    H141335   1.225   4.806   0.250 -1.6443  0.7159  0.4694
 6592TIP3    H241336   1.234   4.677   0.329  1.0658  0.3393 -0.3493
 6593TIP3   OH241337   5.056   2.729   6.634  0.3481  0.0798 -0.2337
 6593TIP3    H141338   4.966   2.695   6.630 -0.1215  1.3896 -1.8275
 6593TIP3    H241339   5.054   2.792   6.706  0.9596 -2.3312  2.0521
 6594TIP3   OH241340   1.126   2.849   8.046 -0.3278  0.1102  0.8051
 6594TIP3    H141341   1.105   2.939   8.073 -2.5224 -0.1769  0.1886
 6594TIP3    H241342   1.125   2.852   7.951  1.7402 -0.1441  0.7300
 6595TIP3   OH241343   1.512   3.253   0.766  0.0956 -0.2616 -0.3761
 6595TIP3    H141344   1.537   3.330   0.816 -1.2747 -0.5488  0.8262
 6595TIP3    H241345   1.490   3.188   0.832  1.2446 -1.7203 -1.3689
 6596TIP3   OH241346   0.190   2.878   0.960  0.6604  0.7159 -0.0227
 6596TIP3    H141347   0.134   2.815   0.915  0.8191 -0.8968  1.8835
 6596TIP3    H241348   0.278   2.861   0.926  0.6868 -0.0467  0.4114
 6597TIP3   OH241349   5.174   3.107   8.068  0.4426  0.2891 -0.0663
 6597TIP3    H141350   5.089   3.121   8.025 -0.0292 -0.8092  0.4509
 6597TIP3    H241351   5.227   3.183   8.044 -1.1843  1.7783  0.8546
 6598TIP3   OH241352   0.828   2.925   0.869  0.0322  0.0433  0.4019
 6598TIP3    H141353   0.877   2.855   0.914  0.6289 -1.2512 -2.0687
 6598TIP3    H241354   0.894   2.968   0.814 -0.5231  2.0228  1.2168
 6599TIP3   OH241355   5.941   3.451   7.811  0.0643 -0.0578 -0.2466
 6599TIP3    H141356   5.993   3.499   7.747  0.6927 -0.7865 -0.3045
 6599TIP3    H241357   5.983   3.365   7.816 -0.8480 -0.4994  0.0727
 6600TIP3   OH241358   0.911   1.970   1.103  1.1918  0.0854  0.2154
 6600TIP3    H141359   1.001   1.939   1.104  0.7920 -1.2494  2.3400
 6600TIP3    H241360   0.864   1.904   1.052  1.1533 -0.1640  0.5673
 6601TIP3   OH241361   5.377   5.912   8.090  0.1741  0.0093 -0.0975
 6601TIP3    H141362   5.286   5.922   8.062 -0.2171 -1.9945  0.3121
 6601TIP3    H241363   5.427   5.915   8.009 -0.2689  0.8520 -0.3507
 6602TIP3   OH241364   4.265   3.162   6.903  0.0519  0.0818 -0.0475
 6602TIP3    H141365   4.198   3.149   6.971  1.4490 -1.0308  1.1981
 6602TIP3    H241366   4.321   3.231   6.938 -0.2422  0.7865 -0.9388
 6603TIP3   OH241367   2.411   3.731   0.696 -0.5236  0.2627 -0.1356
 6603TIP3    H141368   2.371   3.661   0.747  0.0488 -0.2564 -0.3995
 6603TIP3    H241369   2.357   3.737   0.617 -0.7423  0.3206  0.0155
 6604TIP3   OH241370   0.720   2.960   8.225  0.2061  0.2797  0.0097
 6604TIP3    H141371   0.717   2.998   8.312 -0.5157 -1.1511  0.6392
 6604TIP3    H241372   0.798   2.905   8.225 -0.4462 -0.6681  0.1833
 6605TIP3   OH241373   5.986   4.535   2.074 -0.2797 -0.2739 -0.2191
 6605TIP3    H141374   5.934   4.606   2.038 -0.1505 -0.4799 -0.8270
 6605TIP3    H241375   5.922   4.475   2.112 -0.3447  0.5518  1.0400
 6606TIP3   OH241376   0.999   3.841   8.037  0.5197 -0.8570 -0.1726
 6606TIP3    H141377   0.940   3.916   8.033  3.9539  2.2785  1.2708
 6606TIP3    H241378   0.942   3.765   8.032 -3.3046  1.7771 -1.4068
 6607TIP3   OH241379   6.751   1.556   1.230  0.7090  0.4151  0.5062
 6607TIP3    H141380   6.786   1.467   1.220  2.1513  0.9400  0.6585
 6607TIP3    H241381   6.817   1.601   1.283 -1.4452  0.7520  3.1143
 6608TIP3   OH241382   4.949   6.155   1.410 -0.2827 -0.6243  0.7097
 6608TIP3    H141383   4.941   6.177   1.503 -0.8005  0.0821  0.4993
 6608TIP3    H241384   4.868   6.185   1.370  0.5915  0.5414 -0.2543
 6609TIP3   OH241385   5.650   4.580   1.024  0.2385  0.4373 -0.0474
 6609TIP3    H141386   5.611   4.618   1.103  0.6809  0.2103  0.2873
 6609TIP3    H241387   5.577   4.569   0.964 -0.1189  0.5269  0.3671
 6610TIP3   OH241388   5.429   1.867   7.717  0.2751  0.1217  0.2925
 6610TIP3    H141389   5.433   1.912   7.633  1.0280 -1.1820 -0.4040
 6610TIP3    H241390   5.412   1.936   7.781  0.3382  1.2265 -0.8521
 6611TIP3   OH241391   5.880   2.668   1.883  0.5288 -0.3352 -0.6810
 6611TIP3    H141392   5.797   2.695   1.845  0.7393  1.0334 -0.2019
 6611TIP3    H241393   5.887   2.717   1.965  2.5335  0.7886 -1.4611
 6612TIP3   OH241394   5.960   5.363   0.984 -0.0223  0.1187  0.0488
 6612TIP3    H141395   6.004   5.418   0.920 -2.0840 -0.3521 -1.8818
 6612TIP3    H241396   5.968   5.274   0.949 -1.1163 -0.1555  0.4531
 6613TIP3   OH241397   6.882   6.874   2.371 -0.4326  0.7250 -0.1910
 6613TIP3    H141398   6.954   6.826   2.413 -1.7609 -1.5780 -0.3877
 6613TIP3    H241399   6.891   6.853   2.278 -2.2763 -1.0482 -0.0493
 6614TIP3   OH241400   0.247   0.130   0.557 -0.2736  0.0101 -0.5224
 6614TIP3    H141401   0.274   0.191   0.626  0.0099 -0.7805  0.0727
 6614TIP3    H241402   0.327   0.082   0.535 -0.2957  0.4526 -1.6125
 6615TIP3   OH241403   0.520   4.300   6.820  0.7706 -0.3271  0.4996
 6615TIP3    H141404   0.570   4.336   6.747  0.6998 -2.2422 -0.5391
 6615TIP3    H241405   0.586   4.255   6.874  0.3353 -2.2671 -0.5095
 6616TIP3   OH241406   6.562   4.701   1.242  0.3725 -0.7374 -0.0349
 6616TIP3    H141407   6.543   4.666   1.329  0.8267 -0.9670 -0.0270
 6616TIP3    H241408   6.603   4.785   1.259 -0.8065 -0.1303 -0.0550
 6617TIP3   OH241409   4.624   3.125   8.140 -0.3563 -0.8130 -0.2191
 6617TIP3    H141410   4.624   3.220   8.130  1.0050 -0.8123 -0.3069
 6617TIP3    H241411   4.535   3.099   8.114 -1.1645  0.5363  1.0169
 6618TIP3   OH241412   4.252   3.432   0.567  0.2350 -0.5568 -0.0646
 6618TIP3    H141413   4.289   3.518   0.586  1.2523 -1.1891  0.9675
 6618TIP3    H241414   4.217   3.402   0.651  1.0580 -1.6721 -0.0877
 6619TIP3   OH241415   2.572   2.635   8.513  0.2216  0.0131 -0.2500
 6619TIP3    H141416   2.592   2.683   8.594 -0.0895  1.1575 -0.8356
 6619TIP3    H241417   2.626   2.677   8.446 -0.9006  0.3058 -0.9957
 6620TIP3   OH241418   6.680   3.679   8.217 -0.7413  0.0931 -0.5143
 6620TIP3    H141419   6.633   3.757   8.187  0.4002  1.7791  1.7851
 6620TIP3    H241420   6.619   3.607   8.202 -2.4705  1.6289 -1.2494
 6621TIP3   OH241421   2.334   6.194   7.286 -0.1199 -0.1206 -0.0403
 6621TIP3    H141422   2.418   6.177   7.329 -0.8615 -0.3263  1.4054
 6621TIP3    H241423   2.357   6.234   7.202  1.4299 -0.7983  0.0253
 6622TIP3   OH241424   3.152   4.800   0.179  0.6423  0.0270 -0.0996
 6622TIP3    H141425   3.088   4.858   0.139  0.9107  0.4423  0.0612
 6622TIP3    H241426   3.107   4.716   0.187 -0.6540  0.8218  1.9241
 6623TIP3   OH241427   1.042   1.600   7.379 -0.3152  0.2417 -0.2152
 6623TIP3    H141428   0.988   1.633   7.450 -0.6079 -0.6689  0.0046
 6623TIP3    H241429   1.098   1.674   7.354 -0.5375  0.7064  0.6389
 6624TIP3   OH241430   1.997   2.899   7.618  0.2562  0.0515 -0.0913
 6624TIP3    H141431   1.918   2.848   7.602 -0.3448  0.5990  0.9560
 6624TIP3    H241432   1.971   2.963   7.685  1.9532 -0.6718  1.3580
 6625TIP3   OH241433   5.019   0.268   6.404  0.0462 -0.5958 -0.3157
 6625TIP3    H141434   5.068   0.186   6.417 -1.3001 -1.5183 -0.7853
 6625TIP3    H241435   5.085   0.332   6.379  1.1952 -1.4479  0.4184
 6626TIP3   OH241436   3.467   0.743   8.359 -0.3760 -0.0833 -0.4074
 6626TIP3    H141437   3.401   0.794   8.312 -0.6760 -1.2774 -1.3397
 6626TIP3    H241438   3.443   0.749   8.451  0.1660  2.2422 -0.3656
 6627TIP3   OH241439   6.811   3.195   0.636  0.7210  0.1517  0.0986
 6627TIP3    H141440   6.841   3.105   0.652 -0.6583 -0.2960  0.2467
 6627TIP3    H241441   6.890   3.241   0.608  1.7072 -0.8048  1.1825
 6628TIP3   OH241442   4.786   3.999   8.531 -0.5615  0.2569 -0.3276
 6628TIP3    H141443   4.705   4.031   8.493 -0.1088  0.6434 -0.9808
 6628TIP3    H241444   4.781   4.023   8.624 -1.9427 -1.2333  0.0141
 6629TIP3   OH241445   2.738   1.794   8.467  0.1377 -0.1602  0.1250
 6629TIP3    H141446   2.804   1.832   8.408  1.0527  0.8165  1.6642
 6629TIP3    H241447   2.686   1.869   8.495 -0.2079 -0.5837  0.6315
 6630TIP3   OH241448   6.083   3.197   7.162 -0.1746 -0.3663 -0.5722
 6630TIP3    H141449   5.999   3.184   7.117 -1.5340  3.1347  0.6397
 6630TIP3    H241450   6.074   3.148   7.244 -1.2100  0.2670 -0.2931
 6631TIP3   OH241451   5.382   5.767   6.504  0.0603 -0.0927  0.1545
 6631TIP3    H141452   5.359   5.832   6.438  1.1488  1.1749  0.9784
 6631TIP3    H241453   5.407   5.818   6.581  2.3013 -1.4442  0.3953
 6632TIP3   OH241454   1.681   0.994   1.398 -0.0198 -0.3451 -0.8304
 6632TIP3    H141455   1.636   0.918   1.361  1.1519 -1.4664 -0.0266
 6632TIP3    H241456   1.707   0.966   1.486  2.1059  0.2895 -1.2130
 6633TIP3   OH241457   1.563   2.111   0.975  0.4809  0.1081  0.3082
 6633TIP3    H141458   1.640   2.154   1.013  0.3778  0.5485  0.0195
 6633TIP3    H241459   1.537   2.168   0.902 -0.3402  0.1514  0.6251
 6634TIP3   OH241460   6.783   5.670   1.643 -0.5065  0.5936  0.5295
 6634TIP3    H141461   6.853   5.719   1.598 -1.0561  1.5298  0.6542
 6634TIP3    H241462   6.773   5.715   1.727 -0.8310  0.0734  0.7732
 6635TIP3   OH241463   2.601   2.169   0.573  0.4607 -0.1273 -0.0700
 6635TIP3    H141464   2.535   2.194   0.638  1.0011 -0.6454  0.7060
 6635TIP3    H241465   2.619   2.077   0.593 -0.3275 -0.6915 -1.8203
 6636TIP3   OH241466   1.563   5.802   7.442 -0.1712 -0.2618 -0.5285
 6636TIP3    H141467   1.518   5.830   7.362 -0.0833 -0.5568 -0.6857
 6636TIP3    H241468   1.650   5.841   7.437 -0.7979  1.3437  0.3798
 6637TIP3   OH241469   6.653   1.009   8.642  0.2511 -0.1953  0.2017
 6637TIP3    H141470   6.743   0.992   8.612 -0.2990 -0.9982 -1.1107
 6637TIP3    H241471   6.638   0.944   8.710  0.5876 -0.2261  0.2480
 6638TIP3   OH241472   3.589   2.722   6.720 -0.4754  0.2677  0.4585
 6638TIP3    H141473   3.583   2.631   6.749 -1.4526  0.4282  0.8086
 6638TIP3    H241474   3.682   2.736   6.703 -0.3863 -1.0032 -0.2795
 6639TIP3   OH241475   1.375   1.575   1.905 -0.0505 -0.0720  0.1805
 6639TIP3    H141476   1.307   1.637   1.934  0.0224  0.2473 -0.3139
 6639TIP3    H241477   1.326   1.506   1.861 -0.0287  0.4225 -0.6423
 6640TIP3   OH241478   2.620   4.778   0.553  0.5168 -0.7641  0.1295
 6640TIP3    H141479   2.558   4.851   0.549  0.2837 -1.0030 -1.1404
 6640TIP3    H241480   2.655   4.781   0.642  0.1058  0.5554  0.2703
 6641TIP3   OH241481   1.857   3.754   0.630 -0.6488  0.3605 -0.2313
 6641TIP3    H141482   1.941   3.799   0.627 -0.8133  0.7863  0.9143
 6641TIP3    H241483   1.878   3.666   0.662 -0.5599  0.2397 -0.6173
 6642TIP3   OH241484   4.686   2.066   7.376  0.1506  0.2763 -0.0921
 6642TIP3    H141485   4.691   2.158   7.401  1.5958  0.0489  0.5746
 6642TIP3    H241486   4.748   2.057   7.304  0.9531 -0.4105  0.6697
 6643TIP3   OH241487   5.849   4.974   8.304 -0.0593 -0.3757 -0.2885
 6643TIP3    H141488   5.784   4.931   8.249 -2.2466 -0.1500  1.9213
 6643TIP3    H241489   5.843   4.929   8.388  1.8385  0.4356  0.3359
 6644TIP3   OH241490   6.864   6.149   1.224  0.5075  0.3863 -0.3750
 6644TIP3    H141491   6.892   6.100   1.146 -1.7613 -1.4946 -0.1263
 6644TIP3    H241492   6.828   6.230   1.189  1.7994  0.7021 -1.0447
 6645TIP3   OH241493   3.213   2.870   1.970 -0.0685 -0.2245 -0.0001
 6645TIP3    H141494   3.165   2.915   2.040 -0.8745 -1.0528 -0.0009
 6645TIP3    H241495   3.222   2.936   1.902 -2.1511 -0.3010 -0.4245
 6646TIP3   OH241496   2.580   0.608   7.526 -0.4701  0.7364  0.3259
 6646TIP3    H141497   2.519   0.624   7.454 -2.7715 -1.2265  1.6773
 6646TIP3    H241498   2.580   0.689   7.576 -1.6119  0.9545  0.0046
 6647TIP3   OH241499   1.773   2.728   7.532 -0.1963  0.4303 -0.1184
 6647TIP3    H141500   1.782   2.669   7.457  1.0983  1.9422 -1.2237
 6647TIP3    H241501   1.684   2.713   7.564 -1.0470  0.2095 -2.3732
 6648TIP3   OH241502   0.231   4.619   8.212 -0.7329  0.0110 -0.1709
 6648TIP3    H141503   0.258   4.661   8.130 -0.8101  0.1110 -0.1459
 6648TIP3    H241504   0.259   4.679   8.281  1.2350 -1.0498  0.0214
 6649TIP3   OH241505   6.139   0.367   0.250 -0.3375  0.2298 -0.2783
 6649TIP3    H141506   6.098   0.425   0.185 -0.0510  0.9205  0.1512
 6649TIP3    H241507   6.153   0.285   0.202 -1.8828  0.0815 -0.5452
 6650TIP3   OH241508   3.311   0.821   7.965 -0.0065 -0.8074 -0.2400
 6650TIP3    H141509   3.405   0.818   7.981  0.1855 -1.9495 -1.3881
 6650TIP3    H241510   3.286   0.729   7.954 -1.1246 -0.4682 -0.6279
 6651TIP3   OH241511   2.121   5.603   1.079  0.8165 -0.3337 -0.2235
 6651TIP3    H141512   2.199   5.571   1.034  1.2905  2.5932 -1.6800
 6651TIP3    H241513   2.048   5.583   1.020  0.8390 -0.5647 -0.1719
 6652TIP3   OH241514   3.587   0.756   7.966 -0.0787 -0.3562  0.0541
 6652TIP3    H141515   3.611   0.840   8.006 -0.0588 -0.6591  0.6752
 6652TIP3    H241516   3.646   0.748   7.891 -0.5302  0.5027 -0.4118
 6653TIP3   OH241517   3.337   3.810   1.608 -0.3137 -0.5088 -0.0838
 6653TIP3    H141518   3.368   3.728   1.646 -1.4607 -0.4866  0.9675
 6653TIP3    H241519   3.366   3.808   1.517  0.9061 -1.4205  0.3000
 6654TIP3   OH241520   6.866   4.571   7.098 -0.3534 -0.6107 -0.1537
 6654TIP3    H141521   6.933   4.504   7.082 -1.1266 -1.3860 -0.2761
 6654TIP3    H241522   6.860   4.577   7.193  1.6524  1.3190 -0.0771
 6655TIP3   OH241523   5.601   4.778   2.080  0.3458  0.0238  0.0745
 6655TIP3    H141524   5.584   4.731   2.161 -0.4405 -0.6164 -0.4511
 6655TIP3    H241525   5.605   4.870   2.105 -2.7740  0.1463  0.4400
 6656TIP3   OH241526   5.223   0.219   0.410 -0.2270 -0.2099  0.0495
 6656TIP3    H141527   5.234   0.272   0.488  1.5141  1.4382 -1.2124
 6656TIP3    H241528   5.137   0.242   0.376 -0.7155 -0.4428  1.0879
 6657TIP3   OH241529   4.745   2.232   0.239 -0.0066 -0.0026 -0.3978
 6657TIP3    H141530   4.706   2.148   0.265 -1.5936  0.2368 -1.8787
 6657TIP3    H241531   4.766   2.221   0.146  2.4786  0.2895  0.0637
 6658TIP3   OH241532   1.022   0.941   1.768  0.1473  0.1994  0.3506
 6658TIP3    H141533   0.970   0.989   1.833  0.1572  0.8418 -0.0989
 6658TIP3    H241534   1.081   0.887   1.819 -0.8977 -0.4728  0.8768
 6659TIP3   OH241535   1.446   4.069   1.746  0.1046 -0.3287 -0.3976
 6659TIP3    H141536   1.509   4.042   1.813  0.3779  0.0012 -0.5212
 6659TIP3    H241537   1.360   4.051   1.785  0.2402  0.6778  0.3945
 6660TIP3   OH241538   5.485   4.910   7.485 -0.1755 -0.1437  0.4041
 6660TIP3    H141539   5.489   4.997   7.524  1.4499 -0.1409  0.2927
 6660TIP3    H241540   5.542   4.916   7.408  0.2363 -1.4042  0.5966
 6661TIP3   OH241541   2.573   3.501   8.255 -0.1412 -0.1409 -0.4993
 6661TIP3    H141542   2.563   3.574   8.316 -0.2713  0.9722 -1.8168
 6661TIP3    H241543   2.668   3.497   8.239  0.0356 -1.1675  0.5945
 6662TIP3   OH241544   4.533   4.606   0.091  0.0225 -0.1934  0.1982
 6662TIP3    H141545   4.482   4.639   0.165  1.0376 -0.0305  0.8437
 6662TIP3    H241546   4.624   4.624   0.115  0.3089  1.0712 -1.6800
 6663TIP3   OH241547   4.005   4.045   0.793 -0.4465 -1.0546  0.2693
 6663TIP3    H141548   4.064   4.039   0.718 -0.9258 -1.3117 -0.0953
 6663TIP3    H241549   3.976   4.136   0.795 -0.1259 -0.9558  0.3797
 6664TIP3   OH241550   0.781   0.459   1.120  0.3282  0.2075 -0.4178
 6664TIP3    H141551   0.808   0.450   1.029 -0.2307 -0.7717 -0.5024
 6664TIP3    H241552   0.863   0.470   1.168  0.7222 -0.4847 -0.9103
 6665TIP3   OH241553   3.487   2.941   6.551 -0.3724  0.1034  0.2051
 6665TIP3    H141554   3.486   2.853   6.590  0.1548  0.3603  0.8206
 6665TIP3    H241555   3.541   2.931   6.472 -1.1564 -0.3404 -0.2947
 6666TIP3   OH241556   5.587   1.390   0.575 -0.2128 -0.1698 -0.2603
 6666TIP3    H141557   5.669   1.349   0.600 -1.0107 -0.0087  3.1576
 6666TIP3    H241558   5.567   1.449   0.648 -2.9192  0.4350 -1.3779
 6667TIP3   OH241559   1.739   4.898   2.374  0.1478  0.0326  0.0644
 6667TIP3    H141560   1.719   4.898   2.280  0.7327  1.2636 -0.0831
 6667TIP3    H241561   1.756   4.990   2.395 -1.4862  0.0335  1.7044
 6668TIP3   OH241562   4.395   5.245   1.254 -0.4599  0.7447  0.4046
 6668TIP3    H141563   4.365   5.298   1.180  0.1953 -0.0011 -0.4131
 6668TIP3    H241564   4.320   5.242   1.314 -0.2549  3.2602  0.8812
 6669TIP3   OH241565   1.911   3.304   0.929  0.4220  0.3350  0.1741
 6669TIP3    H141566   1.974   3.289   1.000 -2.1382  0.5058  2.6528
 6669TIP3    H241567   1.927   3.232   0.868  1.2472 -1.1959  2.0587
 6670TIP3   OH241568   1.284   2.046   6.976 -0.0541  0.2776  0.8807
 6670TIP3    H141569   1.264   1.953   6.964  1.9987 -0.1703  0.6320
 6670TIP3    H241570   1.279   2.083   6.888 -0.1399  0.2420  0.8705
 6671TIP3   OH241571   4.161   3.310   8.625 -0.4737  0.6123  0.0606
 6671TIP3    H141572   4.223   3.237   8.632  0.5785  1.1873 -2.2432
 6671TIP3    H241573   4.206   3.384   8.666 -0.1558  0.7305 -0.4960
 6672TIP3   OH241574   0.689   0.698   8.409  0.2759 -0.3678  0.4140
 6672TIP3    H141575   0.644   0.664   8.331  1.1381  0.4506 -0.4730
 6672TIP3    H241576   0.717   0.786   8.384 -0.1394  0.2315  1.9549
 6673TIP3   OH241577   0.233   3.157   7.341 -0.4893  0.2034 -0.2938
 6673TIP3    H141578   0.215   3.064   7.353 -1.9186  0.1934 -2.0501
 6673TIP3    H241579   0.185   3.200   7.412  1.0392 -0.3961  1.1822
 6674TIP3   OH241580   5.235   1.344   1.597 -0.0226  0.0192 -0.3913
 6674TIP3    H141581   5.248   1.378   1.509 -1.6829  2.7633  0.2807
 6674TIP3    H241582   5.145   1.312   1.598  0.3901 -1.1676 -0.0093
 6675TIP3   OH241583   5.573   3.024   8.029 -0.4061  0.3958 -0.4766
 6675TIP3    H141584   5.591   3.038   7.936 -1.4843 -0.2042 -0.7938
 6675TIP3    H241585   5.534   3.106   8.059 -1.9108 -0.0729 -1.0633
 6676TIP3   OH241586   2.022   1.480   7.218 -0.1775 -0.1646 -0.3803
 6676TIP3    H141587   2.077   1.507   7.291  2.4608 -0.9130 -1.9486
 6676TIP3    H241588   2.008   1.560   7.168 -1.4433  0.2245  0.5587
 6677TIP3   OH241589   3.369   2.861   7.562 -1.0436  0.1399  0.2610
 6677TIP3    H141590   3.448   2.861   7.615 -1.2296 -0.8353  0.5612
 6677TIP3    H241591   3.373   2.942   7.511  0.7831 -0.4808 -0.6635
 6678TIP3   OH241592   5.333   3.443   1.458  0.5946 -0.1326  0.6791
 6678TIP3    H141593   5.331   3.491   1.541  0.8780 -0.6523  0.9879
 6678TIP3    H241594   5.313   3.352   1.482  1.2690 -0.3967  0.2579
 6679TIP3   OH241595   4.643   3.371   1.682  0.7282 -0.6127 -0.1256
 6679TIP3    H141596   4.641   3.456   1.727  0.6918  0.2126 -1.6305
 6679TIP3    H241597   4.556   3.333   1.699  1.4987 -1.4513  2.4766
 6680TIP3   OH241598   5.515   6.337   7.558  0.1301  0.9147 -0.0253
 6680TIP3    H141599   5.460   6.259   7.564  0.4370  0.7145  0.2360
 6680TIP3    H241600   5.512   6.362   7.466 -0.1614  0.7308 -0.0663
 6681TIP3   OH241601   4.872   3.833   7.861  0.0167 -0.6153 -0.0020
 6681TIP3    H141602   4.904   3.822   7.772 -0.6368 -3.0807 -0.0069
 6681TIP3    H241603   4.950   3.823   7.916 -0.0126 -2.2040 -0.2026
 6682TIP3   OH241604   0.066   3.244   2.652  0.3539  0.3812 -0.0147
 6682TIP3    H141605   0.037   3.279   2.568 -0.7137  0.7000  0.4697
 6682TIP3    H241606  -0.011   3.199   2.687  1.1034 -0.6884  0.3116
 6683TIP3   OH241607   2.310   5.339   7.584  0.3176 -0.2251  0.0271
 6683TIP3    H141608   2.326   5.270   7.520 -2.3456 -1.4324  0.4835
 6683TIP3    H241609   2.272   5.411   7.534  1.1834  0.1176 -0.1556
 6684TIP3   OH241610   2.721   1.711   7.961 -0.2665 -1.0252 -0.2779
 6684TIP3    H141611   2.741   1.803   7.944 -1.9833 -0.6496 -0.3818
 6684TIP3    H241612   2.626   1.707   7.963 -0.2485 -3.0187 -1.4173
 6685TIP3   OH241613   5.346   1.580   5.790 -0.3014  0.1813 -0.0497
 6685TIP3    H141614   5.271   1.639   5.800  0.5913  1.1328  1.4046
 6685TIP3    H241615   5.321   1.501   5.836 -0.4711  0.4352  0.2969
 6686TIP3   OH241616   2.636   1.573   6.346 -0.1582  0.2228  0.3632
 6686TIP3    H141617   2.621   1.527   6.263  1.2519 -1.5412  1.0135
 6686TIP3    H241618   2.607   1.662   6.329 -2.1276 -0.6431 -1.2789
 6687TIP3   OH241619   2.435   5.406   7.832  1.0026  0.2771 -0.1717
 6687TIP3    H141620   2.425   5.500   7.847 -0.4059 -0.0988  1.7448
 6687TIP3    H241621   2.399   5.392   7.744  0.1090  1.3954 -0.0139
 6688TIP3   OH241622   2.450   4.061   7.245  0.3042  0.5810  0.3477
 6688TIP3    H141623   2.469   4.148   7.278  0.2442  0.0847  1.7767
 6688TIP3    H241624   2.440   4.007   7.324  0.1668 -0.6765 -0.4944
 6689TIP3   OH241625   3.996   0.642   8.157 -0.1844 -0.0011 -0.3493
 6689TIP3    H141626   4.050   0.566   8.136  0.0098 -0.0372  0.2652
 6689TIP3    H241627   3.907   0.615   8.132 -0.1915 -0.6071  0.3070
 6690TIP3   OH241628   2.301   4.389   2.028  0.1553  0.7656  0.1106
 6690TIP3    H141629   2.248   4.451   1.978 -0.1024  1.3275  1.0529
 6690TIP3    H241630   2.259   4.304   2.014 -0.3780  1.0433  0.0120
 6691TIP3   OH241631   3.614   3.583   6.754  0.7811  0.1653 -0.1164
 6691TIP3    H141632   3.681   3.606   6.690  2.0893 -0.0908  1.1079
 6691TIP3    H241633   3.605   3.488   6.745 -0.3891  0.3543 -1.1676
 6692TIP3   OH241634   3.766   0.302   6.249  0.1022 -0.0538 -0.0275
 6692TIP3    H141635   3.693   0.251   6.214 -0.5262 -1.2074  2.6746
 6692TIP3    H241636   3.728   0.386   6.272  0.4708  0.6299 -1.7608
 6693TIP3   OH241637   5.998   5.121   0.819 -0.3821 -0.0774 -0.0358
 6693TIP3    H141638   6.006   5.034   0.780  0.3578 -0.2637  0.5121
 6693TIP3    H241639   5.948   5.171   0.755  0.3855 -0.5241 -1.0221
 6694TIP3   OH241640   0.412   2.819   7.952 -0.5773  0.2497 -0.4391
 6694TIP3    H141641   0.335   2.814   8.010 -0.6398  0.0372 -0.5420
 6694TIP3    H241642   0.469   2.884   7.994 -0.6495  0.1413 -0.1720
 6695TIP3   OH241643   4.785   0.882   7.090 -0.4259 -0.6163  0.0034
 6695TIP3    H141644   4.692   0.866   7.102 -0.1477 -1.3859  1.3049
 6695TIP3    H241645   4.796   0.885   6.995 -1.8877  0.3247 -0.1762
 6696TIP3   OH241646   4.875   4.553   2.016 -0.5123  0.0624 -0.3373
 6696TIP3    H141647   4.847   4.631   1.968 -0.2805  0.0457 -0.5038
 6696TIP3    H241648   4.935   4.509   1.955 -1.7234 -0.9785 -0.8183
 6697TIP3   OH241649   0.286   4.394   2.085 -0.2295  0.0949  0.6415
 6697TIP3    H141650   0.264   4.486   2.069  1.8118  0.9056  2.1816
 6697TIP3    H241651   0.302   4.389   2.179  3.4680 -0.9163  0.0951
 6698TIP3   OH241652   6.827   5.389   7.887 -0.2063  0.2070  0.3022
 6698TIP3    H141653   6.913   5.397   7.846 -0.3190  0.5224  0.1291
 6698TIP3    H241654   6.782   5.471   7.867 -1.0526 -0.4881 -0.7481
 6699TIP3   OH241655   2.689   5.426   0.253  0.1963  0.1496 -0.1133
 6699TIP3    H141656   2.715   5.340   0.286  0.6713  0.0384 -0.7575
 6699TIP3    H241657   2.600   5.414   0.220  0.0207  0.0684  0.3853
 6700TIP3   OH241658   2.543   1.530   7.426 -0.2191  0.5737  0.0987
 6700TIP3    H141659   2.611   1.594   7.408 -0.7990  0.8397 -1.2309
 6700TIP3    H241660   2.545   1.520   7.522  1.3988  0.8532  0.1195
 6701TIP3   OH241661   0.839   1.783   6.616 -0.5416  0.2386  0.4876
 6701TIP3    H141662   0.874   1.781   6.527 -2.7006  3.2373 -0.6016
 6701TIP3    H241663   0.853   1.695   6.650  3.9767  0.0432 -1.2757
 6702TIP3   OH241664   0.551   3.967   0.771  0.0313  0.2530 -0.4210
 6702TIP3    H141665   0.502   3.887   0.787 -1.9634  1.3278 -0.8749
 6702TIP3    H241666   0.642   3.938   0.764 -0.4416 -1.7613  0.8668
 6703TIP3   OH241667   6.483   4.092   0.626 -0.0545  0.0211  0.3965
 6703TIP3    H141668   6.528   4.008   0.626  1.5751  0.8322  1.3859
 6703TIP3    H241669   6.473   4.113   0.719  0.0465  1.1456  0.1700
 6704TIP3   OH241670   1.077   2.432   6.488  0.0279  0.1849 -0.2056
 6704TIP3    H141671   1.014   2.408   6.556 -0.7650 -0.0686 -1.0164
 6704TIP3    H241672   1.162   2.404   6.524 -0.6682 -2.5261 -0.4517
 6705TIP3   OH241673   2.616   3.540   0.179  0.3183 -1.0392  0.0462
 6705TIP3    H141674   2.603   3.448   0.155 -0.0404 -0.7743 -0.8004
 6705TIP3    H241675   2.541   3.586   0.143  1.0303 -0.2526 -0.4858
 6706TIP3   OH241676   2.703   5.655   0.417  0.2107  0.3724 -0.4892
 6706TIP3    H141677   2.680   5.586   0.355 -0.2903 -1.6824  1.8694
 6706TIP3    H241678   2.637   5.723   0.402  0.0998 -0.0574 -2.1743
 6707TIP3   OH241679   5.135   1.691   8.591 -0.3444 -0.0925  0.1594
 6707TIP3    H141680   5.101   1.693   8.502  0.1706  0.7634 -0.0239
 6707TIP3    H241681   5.080   1.626   8.636 -1.3900  0.3495 -0.4533
 6708TIP3   OH241682   4.974   4.751   6.913  0.5099 -0.2159  0.4524
 6708TIP3    H141683   5.023   4.770   6.833 -0.0027  2.6727  0.7126
 6708TIP3    H241684   5.040   4.717   6.973  1.7093  1.1056 -0.0449
 6709TIP3   OH241685   2.111   2.944   0.137 -0.4688  0.2086 -0.0284
 6709TIP3    H141686   2.034   2.893   0.164 -1.0443  1.6569  1.2992
 6709TIP3    H241687   2.100   2.956   0.043 -0.4723 -1.7907 -0.3231
 6710TIP3   OH241688   5.413   0.323   2.410  0.2317  0.3985  0.6915
 6710TIP3    H141689   5.370   0.238   2.418  0.6351  0.1783  0.5655
 6710TIP3    H241690   5.365   0.379   2.471  0.1109  0.0194  0.9547
 6711TIP3   OH241691   5.423   4.761   8.574 -0.0494  0.1747 -0.0985
 6711TIP3    H141692   5.442   4.835   8.632 -1.0646  1.1415 -0.9412
 6711TIP3    H241693   5.407   4.688   8.633  1.4820  0.4796  0.7450
 6712TIP3   OH241694   3.746   6.864   1.013 -0.5569  0.0300 -0.2967
 6712TIP3    H141695   3.800   6.830   0.942 -2.2880 -1.4175 -1.0241
 6712TIP3    H241696   3.804   6.868   1.089  0.9589  0.1877 -1.4177
 6713TIP3   OH241697   1.699   0.093   6.807  0.6878 -0.0127 -0.0913
 6713TIP3    H141698   1.633   0.104   6.738  0.6347 -1.0073 -0.2157
 6713TIP3    H241699   1.776   0.060   6.760  0.5149 -1.1169  0.3640
 6714TIP3   OH241700   2.713   1.040   0.187 -0.1001 -0.3197  0.6002
 6714TIP3    H141701   2.637   1.099   0.185  0.8503  0.9917  1.2823
 6714TIP3    H241702   2.751   1.052   0.274  0.1828 -1.9109  0.7254
 6715TIP3   OH241703   6.180   4.506   7.906  0.4322 -0.3876  0.3965
 6715TIP3    H141704   6.153   4.537   7.992 -0.3059  0.4300 -0.1141
 6715TIP3    H241705   6.219   4.583   7.864  1.0435 -0.8485  0.1010
 6716TIP3   OH241706   0.160   5.075   0.707 -0.4634  0.0449 -0.0618
 6716TIP3    H141707   0.148   4.988   0.744  0.4218 -0.1328 -0.1620
 6716TIP3    H241708   0.101   5.078   0.631 -1.1380 -0.1445  0.4503
 6717TIP3   OH241709   1.159   0.753   7.156 -0.0060  0.3070  0.1434
 6717TIP3    H141710   1.190   0.711   7.076 -0.7088  2.0303 -1.0900
 6717TIP3    H241711   1.210   0.834   7.162 -0.7312  0.7249  0.8507
 6718TIP3   OH241712   0.315   6.107   8.177  0.5192  0.2385 -0.0276
 6718TIP3    H141713   0.253   6.034   8.168  0.1662  0.5079  0.1878
 6718TIP3    H241714   0.287   6.152   8.256  0.7249  0.6194 -0.1694
 6719TIP3   OH241715   5.712   3.102   2.219 -0.4071 -0.2832  0.2179
 6719TIP3    H141716   5.758   3.177   2.256 -1.3803 -0.1213  1.1694
 6719TIP3    H241717   5.715   3.035   2.288 -1.2279 -0.4075  0.1461
 6720TIP3   OH241718   3.061   2.972   8.284  0.4246  0.0779  0.4615
 6720TIP3    H141719   3.034   2.910   8.352 -0.4614 -0.3875 -0.3076
 6720TIP3    H241720   3.126   3.028   8.328 -0.7671  0.3420  1.9479
 6721TIP3   OH241721   1.119   5.408   7.186 -0.7723  0.1944 -0.1057
 6721TIP3    H141722   1.097   5.344   7.118 -1.8855  0.7971 -0.3345
 6721TIP3    H241723   1.160   5.481   7.138 -0.5585  0.1506  0.0096
 6722TIP3   OH241724   3.731   2.967   7.408 -0.3267 -0.1255 -0.3605
 6722TIP3    H141725   3.820   2.993   7.382 -0.5482  0.2310 -0.7705
 6722TIP3    H241726   3.684   3.049   7.418 -0.0303 -0.1858  2.0879
 6723TIP3   OH241727   5.866   2.051   0.904 -0.2592 -0.0215 -0.4887
 6723TIP3    H141728   5.807   2.000   0.960 -1.8469 -0.2829 -2.2898
 6723TIP3    H241729   5.819   2.134   0.890  1.1108  0.9236  0.2839
 6724TIP3   OH241730   5.488   6.281   7.959 -0.0614  0.3246  0.1177
 6724TIP3    H141731   5.433   6.275   8.037  1.7269 -0.6810  1.3922
 6724TIP3    H241732   5.534   6.365   7.969  2.3518 -1.0623  1.8088
 6725TIP3   OH241733   1.054   0.719   7.987  0.5219 -0.6291 -0.4613
 6725TIP3    H141734   1.059   0.652   7.918 -0.6843 -1.0806 -0.1311
 6725TIP3    H241735   0.978   0.772   7.963  1.1134  0.2852 -0.3932
 6726TIP3   OH241736   4.055   5.053   1.959  0.0647  0.4567  0.3114
 6726TIP3    H141737   4.149   5.069   1.952 -0.3422  3.2611  0.2371
 6726TIP3    H241738   4.036   5.068   2.052 -0.6524  2.4968 -0.1179
 6727TIP3   OH241739   4.666   6.342   8.320 -0.1163 -0.2099  0.2141
 6727TIP3    H141740   4.603   6.375   8.256  1.2228  2.0086 -0.0330
 6727TIP3    H241741   4.711   6.420   8.352  0.2505 -1.3929  2.8314
 6728TIP3   OH241742   6.241   3.584   1.525 -0.2275 -0.1031 -0.3712
 6728TIP3    H141743   6.251   3.570   1.431 -1.6396  0.7033 -0.6749
 6728TIP3    H241744   6.212   3.675   1.533 -0.5399 -0.2865  0.8124
 6729TIP3   OH241745   1.818   0.106   1.393 -0.1725  0.0100  0.1354
 6729TIP3    H141746   1.749   0.040   1.390 -1.3417  1.1913 -0.0104
 6729TIP3    H241747   1.811   0.152   1.310  1.6429 -0.6510 -0.4103
 6730TIP3   OH241748   6.319   4.914   7.782  0.2599 -0.1464 -0.4414
 6730TIP3    H141749   6.236   4.925   7.736  0.2115  0.8983 -0.1245
 6730TIP3    H241750   6.350   4.827   7.755 -1.9669 -1.5210  1.1428
 6731TIP3   OH241751   3.421   3.828   0.121  0.0958 -0.1421  0.0528
 6731TIP3    H141752   3.481   3.754   0.131  0.0135 -0.4036 -1.1988
 6731TIP3    H241753   3.462   3.899   0.169  0.1030 -1.0325  1.4057
 6732TIP3   OH241754   3.756   4.710   8.163 -0.6934  0.0069 -0.2663
 6732TIP3    H141755   3.691   4.779   8.180 -1.4445 -0.7156 -0.1294
 6732TIP3    H241756   3.839   4.748   8.193 -1.1455  0.7296  0.1153
 6733TIP3   OH241757   2.533   1.237   0.278  0.2833  0.4126 -0.0175
 6733TIP3    H141758   2.572   1.306   0.225  1.0173  0.7826  0.9815
 6733TIP3    H241759   2.529   1.273   0.366 -1.5283  0.0508  0.0835
 6734TIP3   OH241760   0.886   6.092   8.243 -0.4069  0.4939 -0.5051
 6734TIP3    H141761   0.869   6.160   8.178 -0.0510  1.1293  0.0559
 6734TIP3    H241762   0.975   6.062   8.224 -0.7459 -0.1904 -1.0743
 6735TIP3   OH241763   4.595   6.552   7.517  0.2530  0.2765  0.3745
 6735TIP3    H141764   4.542   6.545   7.596 -4.4426 -0.8945 -2.4911
 6735TIP3    H241765   4.593   6.645   7.495  0.5421  0.4239  0.9436
 6736TIP3   OH241766   1.685   4.259   0.230 -0.3961  0.0919  0.1363
 6736TIP3    H141767   1.638   4.271   0.148 -0.6830  0.8661  0.4028
 6736TIP3    H241768   1.617   4.253   0.297 -0.1588 -0.2708  0.3523
 6737TIP3   OH241769   1.073   5.106   6.761  0.6905 -0.0446  0.9338
 6737TIP3    H141770   1.164   5.098   6.733  1.0164  0.5874  1.7599
 6737TIP3    H241771   1.045   5.016   6.778  0.4590 -0.4651 -1.3608
 6738TIP3   OH241772   1.884   4.354   1.275  0.6673 -0.1075  0.1026
 6738TIP3    H141773   1.894   4.374   1.368  0.5312  1.2296 -0.1511
 6738TIP3    H241774   1.974   4.355   1.241  0.5836  1.5061 -0.1605
 6739TIP3   OH241775   3.580   3.339   6.658 -0.2080  0.3122  0.2642
 6739TIP3    H141776   3.594   3.369   6.568 -0.1786  0.3290  0.2743
 6739TIP3    H241777   3.627   3.256   6.663 -2.5713 -1.1845 -0.5911
 6740TIP3   OH241778   0.728   5.269   7.636 -0.1119  0.1817 -0.2001
 6740TIP3    H141779   0.745   5.354   7.595  0.7547  0.5967  0.9553
 6740TIP3    H241780   0.808   5.219   7.620 -0.4262 -0.2450 -0.4490
 6741TIP3   OH241781   5.337   5.646   8.446 -0.6751  0.2583 -0.3104
 6741TIP3    H141782   5.299   5.583   8.385 -0.5526 -0.1400  0.0226
 6741TIP3    H241783   5.401   5.595   8.496  0.4915  0.9685 -1.0378
 6742TIP3   OH241784   2.911   4.827   0.414 -0.3636  0.3776 -0.4160
 6742TIP3    H141785   2.851   4.896   0.442 -0.2858  0.9102 -1.5091
 6742TIP3    H241786   2.903   4.826   0.319 -0.1295 -0.9201 -0.4365
 6743TIP3   OH241787   2.115   5.048   1.877 -0.4891 -0.5344 -0.1273
 6743TIP3    H141788   2.141   5.131   1.917 -1.1604 -0.6841  0.6549
 6743TIP3    H241789   2.107   4.988   1.952 -0.4977 -1.1721 -0.6327
 6744TIP3   OH241790   3.574   0.260   1.925  0.4254 -0.7486  0.2948
 6744TIP3    H141791   3.561   0.313   1.847  1.0277 -2.3085 -0.9089
 6744TIP3    H241792   3.485   0.238   1.955  0.0257  2.8477  2.2907
 6745TIP3   OH241793   6.310   0.416   0.630  0.0603 -0.2298  0.0001
 6745TIP3    H141794   6.335   0.324   0.642  0.6735  0.1393  1.7123
 6745TIP3    H241795   6.328   0.433   0.537 -0.9678 -2.0877 -0.6019
 6746TIP3   OH241796   4.493   4.046   1.666 -0.1317 -0.2433  0.3874
 6746TIP3    H141797   4.567   4.100   1.638 -0.7523  1.3976  1.7097
 6746TIP3    H241798   4.530   3.988   1.733 -0.0989  0.9506  1.4491
 6747TIP3   OH241799   4.579   5.919   1.767  0.3010  0.4503 -0.3055
 6747TIP3    H141800   4.534   5.834   1.768  0.7643  0.2010 -0.3411
 6747TIP3    H241801   4.587   5.944   1.859  0.2078  0.4321 -0.2925
 6748TIP3   OH241802   0.740   4.209   6.401  0.8588  0.5004 -0.0643
 6748TIP3    H141803   0.689   4.154   6.342  1.1675  0.5209 -0.3521
 6748TIP3    H241804   0.831   4.186   6.383  0.9535  0.5097  0.4039
 6749TIP3   OH241805   3.375   3.525   1.078 -0.4717  0.1148 -0.3383
 6749TIP3    H141806   3.461   3.540   1.116 -0.2026  1.2056 -1.3193
 6749TIP3    H241807   3.359   3.602   1.023 -1.7755 -0.3913 -0.7117
 6750TIP3   OH241808   0.411   3.550   2.203 -0.1183  0.0179  0.1021
 6750TIP3    H141809   0.442   3.459   2.198  0.0128  0.0198  0.8075
 6750TIP3    H241810   0.413   3.571   2.296  2.1865  1.5295 -0.1818
 6751TIP3   OH241811   2.332   3.003   1.885  0.0942 -0.2884 -0.5668
 6751TIP3    H141812   2.255   3.031   1.934 -0.7521 -0.8201 -1.5286
 6751TIP3    H241813   2.403   3.058   1.918 -0.6963  0.2387  0.3296
 6752TIP3   OH241814   3.062   5.012   2.371 -0.1312  0.5003 -0.2622
 6752TIP3    H141815   3.097   5.047   2.453  0.5464  1.2243 -0.8393
 6752TIP3    H241816   2.970   5.039   2.371 -0.6136 -1.0045  1.0414
 6753TIP3   OH241817   1.534   3.588   1.067 -0.0335 -0.2850 -0.0927
 6753TIP3    H141818   1.579   3.503   1.058 -0.5386 -0.4267 -1.5749
 6753TIP3    H241819   1.486   3.598   0.985 -0.2772  1.2803  0.2174
 6754TIP3   OH241820   0.899   0.922   0.542 -0.7007 -0.3576 -0.3004
 6754TIP3    H141821   0.876   0.829   0.547  3.3160 -1.4925  1.2954
 6754TIP3    H241822   0.954   0.937   0.619  0.7200  2.7301 -1.7631
 6755TIP3   OH241823   5.609   6.279   1.284 -0.0333 -0.2049 -0.9331
 6755TIP3    H141824   5.525   6.254   1.246  0.5412 -0.6709 -1.9427
 6755TIP3    H241825   5.673   6.261   1.214  0.8386  0.6227 -0.3721
 6756TIP3   OH241826   0.993   0.596   0.071  0.0879 -0.0612 -0.4435
 6756TIP3    H141827   0.984   0.614  -0.022  1.2992 -2.6097 -1.1595
 6756TIP3    H241828   0.940   0.517   0.085  1.6394 -0.9953  0.4838
 6757TIP3   OH241829   2.942   1.287   1.375 -0.4518  0.0605 -0.5276
 6757TIP3    H141830   2.918   1.341   1.299  1.5568 -1.3253 -2.2761
 6757TIP3    H241831   2.925   1.197   1.346  0.8256 -0.5275  0.4781
 6758TIP3   OH241832   2.824   2.016   7.250 -0.4358 -0.1430 -0.0813
 6758TIP3    H141833   2.872   1.933   7.247  0.4289  0.2706  1.3474
 6758TIP3    H241834   2.732   1.990   7.249 -0.1854 -1.0649 -0.6711
 6759TIP3   OH241835   4.271   4.097   6.851 -0.2124 -0.3867  0.1041
 6759TIP3    H141836   4.212   4.110   6.777  1.2565  0.0677 -1.0305
 6759TIP3    H241837   4.315   4.014   6.833  0.5524 -0.0092  0.1637
 6760TIP3   OH241838   0.671   4.398   0.340  0.1020  0.1122 -0.7298
 6760TIP3    H141839   0.761   4.375   0.319  0.0896 -0.0241 -0.6297
 6760TIP3    H241840   0.659   4.484   0.300 -0.2107 -0.5367 -2.0904
 6761TIP3   OH241841   5.013   0.836   0.269 -0.2375  0.5553 -0.1218
 6761TIP3    H141842   5.098   0.847   0.228 -0.0951  2.1471  0.5114
 6761TIP3    H241843   5.032   0.797   0.355 -0.1872  0.4655 -0.1742
 6762TIP3   OH241844   5.653   3.426   7.136 -0.4302 -0.2372 -0.3500
 6762TIP3    H141845   5.721   3.449   7.199  0.2188 -3.9460  0.5592
 6762TIP3    H241846   5.698   3.422   7.052  0.1980 -1.2995  0.0192
 6763TIP3   OH241847   3.360   0.361   7.465  0.1746  0.4939  0.4722
 6763TIP3    H141848   3.339   0.269   7.482  1.3271  0.1521  0.1147
 6763TIP3    H241849   3.373   0.399   7.552  2.1712 -0.3109  0.5877
 6764TIP3   OH241850   2.231   1.879   1.131 -0.4686 -0.1849  0.6569
 6764TIP3    H141851   2.300   1.824   1.093  0.2354  0.7298  0.5703
 6764TIP3    H241852   2.155   1.864   1.075  0.1204 -0.0180 -0.2033
 6765TIP3   OH241853   2.815   1.635   7.475 -0.1888  0.2527  0.3987
 6765TIP3    H141854   2.892   1.586   7.501 -0.2434  0.2999  0.6525
 6765TIP3    H241855   2.826   1.721   7.515  0.0893  0.5791 -0.3473
 6766TIP3   OH241856   0.009   6.340   0.468 -0.0869  0.1253  0.2530
 6766TIP3    H141857   0.063   6.275   0.421  0.2790 -0.9210  2.0381
 6766TIP3    H241858  -0.046   6.288   0.526 -1.5182  1.3155  0.0250
 6767TIP3   OH241859   6.038   3.903   1.056  0.2854 -0.3809 -0.0677
 6767TIP3    H141860   6.086   3.905   1.139  0.6914  0.2957 -0.3080
 6767TIP3    H241861   6.106   3.908   0.989 -0.1182  4.6841 -0.4431
 6768TIP3   OH241862   1.553   6.743   0.744 -0.5271  0.2535 -0.0014
 6768TIP3    H141863   1.488   6.805   0.778 -1.0613 -0.2263 -0.1279
 6768TIP3    H241864   1.531   6.734   0.651 -2.7007 -2.7250  0.6370
 6769TIP3   OH241865   5.088   4.669   2.187 -0.3380 -0.4484  0.6453
 6769TIP3    H141866   5.019   4.709   2.240  0.6590 -0.2864  1.8741
 6769TIP3    H241867   5.131   4.607   2.246 -0.8709 -2.2573 -0.7830
 6770TIP3   OH241868   4.765   6.063   8.291 -0.4491 -0.2450 -0.9290
 6770TIP3    H141869   4.837   6.061   8.354 -0.9475 -0.5324 -0.3602
 6770TIP3    H241870   4.743   6.156   8.284 -0.5049 -0.2276 -0.5502
 6771TIP3   OH241871   4.449   2.430   1.604 -0.2009 -0.0394  0.6809
 6771TIP3    H141872   4.355   2.413   1.597 -0.7767  2.7605  0.4809
 6771TIP3    H241873   4.463   2.454   1.695 -0.4994  3.1963 -0.0019
 6772TIP3   OH241874   2.983   0.975   2.016  0.3337  0.2645 -0.0910
 6772TIP3    H141875   2.896   0.946   2.043  0.1435  0.5625 -0.3822
 6772TIP3    H241876   3.027   0.999   2.097  0.5670 -1.0129  0.1894
 6773TIP3   OH241877   5.606   1.344   7.655  0.2428  0.2328 -0.0375
 6773TIP3    H141878   5.516   1.314   7.664 -0.1227  1.3712  0.2237
 6773TIP3    H241879   5.599   1.439   7.643  1.3817  0.2872 -0.4131
 6774TIP3   OH241880   4.271   2.420   0.268 -0.2471  0.0395 -0.3974
 6774TIP3    H141881   4.324   2.500   0.270 -0.2265  0.0729 -1.7087
 6774TIP3    H241882   4.216   2.427   0.347 -0.8011  1.7335 -0.8785
 6775TIP3   OH241883   4.829   3.780   0.692  0.0852 -0.4837 -0.4529
 6775TIP3    H141884   4.825   3.735   0.776  0.6968  0.2001 -0.0399
 6775TIP3    H241885   4.898   3.735   0.644  0.7337  0.0304 -0.0206
 6776TIP3   OH241886   0.874   2.488   7.458  0.2497  0.4988  0.4204
 6776TIP3    H141887   0.933   2.527   7.522  0.5255  1.4384 -0.3710
 6776TIP3    H241888   0.932   2.446   7.394  0.0721  1.1360 -0.1800
 6777TIP3   OH241889   4.903   0.892   7.722 -0.2240 -0.9680 -0.3097
 6777TIP3    H141890   4.957   0.865   7.647 -0.5444 -0.9085 -0.5640
 6777TIP3    H241891   4.893   0.812   7.774 -1.4458 -1.4437 -1.2306
 6778TIP3   OH241892   2.255   3.312   0.107  0.2732  0.5732 -0.0658
 6778TIP3    H141893   2.267   3.356   0.023  1.7761 -0.6508 -0.5355
 6778TIP3    H241894   2.343   3.311   0.146 -0.6465  2.6732  2.3742
 6779TIP3   OH241895   4.658   2.686   6.791  0.0397 -0.0958 -0.1155
 6779TIP3    H141896   4.711   2.699   6.712 -0.2369 -0.5916 -0.3846
 6779TIP3    H241897   4.710   2.726   6.861  1.5984 -2.0277 -0.0784
 6780TIP3   OH241898   6.208   3.687   8.638 -0.1108 -0.5493  0.0396
 6780TIP3    H141899   6.123   3.657   8.672 -0.3421  0.2097  0.1465
 6780TIP3    H241900   6.246   3.737   8.710  0.1576 -0.3624 -0.2327
 6781TIP3   OH241901   3.662   2.829   0.995  0.1931 -0.2473  0.2148
 6781TIP3    H141902   3.581   2.778   0.990  1.2275 -1.9115 -0.2502
 6781TIP3    H241903   3.691   2.838   0.904  0.1650  1.0066  0.3069
 6782TIP3   OH241904   6.628   3.195   2.669 -0.2200 -0.2148 -0.2263
 6782TIP3    H141905   6.534   3.209   2.658 -0.1198  0.4066 -0.3525
 6782TIP3    H241906   6.645   3.109   2.632 -1.0593 -1.1823  1.5181
 6783TIP3   OH241907   3.795   4.893   0.537  0.4950 -0.0190 -0.3736
 6783TIP3    H141908   3.714   4.892   0.487  1.2045 -0.8951 -1.5570
 6783TIP3    H241909   3.768   4.915   0.626 -1.2034 -1.4745 -0.4772
 6784TIP3   OH241910   4.775   5.620   1.403  0.1419 -0.6894 -0.4005
 6784TIP3    H141911   4.820   5.689   1.354  1.2803 -1.5493 -0.5974
 6784TIP3    H241912   4.705   5.591   1.344 -1.5718  1.5044  0.3896
 6785TIP3   OH241913   3.223   2.316   8.279  0.0892 -0.3969  0.1377
 6785TIP3    H141914   3.172   2.352   8.207  1.3035 -1.1413 -1.1268
 6785TIP3    H241915   3.252   2.230   8.249 -0.5825 -1.3791  2.0869
 6786TIP3   OH241916   6.157   2.933   6.726 -0.2064  0.0543  0.1095
 6786TIP3    H141917   6.102   2.872   6.776 -1.2771 -0.6903 -1.8411
 6786TIP3    H241918   6.098   3.005   6.705 -0.5524 -0.7595 -2.0231
 6787TIP3   OH241919   6.366   3.229   0.961  0.3210 -0.1601 -0.2993
 6787TIP3    H141920   6.353   3.187   1.046 -2.7882 -0.9537 -1.0595
 6787TIP3    H241921   6.403   3.160   0.906  0.3533 -0.2709 -0.1400
 6788TIP3   OH241922   5.077   5.447   1.818 -0.5685 -0.1263 -0.0292
 6788TIP3    H141923   5.002   5.405   1.776  0.5236 -0.9977 -1.1985
 6788TIP3    H241924   5.127   5.375   1.856  0.0844  0.3658  0.0696
 6789TIP3   OH241925   3.963   4.144   7.584  0.5165  0.3926  0.4950
 6789TIP3    H141926   3.959   4.230   7.542  3.2681  0.8601  1.0002
 6789TIP3    H241927   4.011   4.089   7.521  1.4105  0.0885  1.4139
 6790TIP3   OH241928   4.131   1.876   6.425  0.1542  0.5814  0.6888
 6790TIP3    H141929   4.139   1.965   6.389 -1.2268  0.6921  0.6206
 6790TIP3    H241930   4.059   1.837   6.376  2.2611 -1.4723 -1.0218
 6791TIP3   OH241931   5.888   0.388   6.588 -0.2705  0.7345 -0.6107
 6791TIP3    H141932   5.936   0.469   6.607  0.5540  0.2671 -0.6520
 6791TIP3    H241933   5.847   0.403   6.503  0.7547  0.7260 -1.1206
 6792TIP3   OH241934   6.206   4.636   1.054  0.2373 -0.2398 -0.5642
 6792TIP3    H141935   6.265   4.662   0.984  0.0509  2.1106  0.0648
 6792TIP3    H241936   6.238   4.684   1.131 -1.9648  0.4151 -0.0104
 6793TIP3   OH241937   0.506   5.442   1.415 -0.2129  0.0791  0.3535
 6793TIP3    H141938   0.498   5.356   1.375  0.6758 -0.6204  1.6100
 6793TIP3    H241939   0.578   5.433   1.478  1.2701  2.2851 -0.8684
 6794TIP3   OH241940   4.406   5.152   7.979  0.5570 -0.1594  0.3556
 6794TIP3    H141941   4.346   5.219   7.945 -0.0257 -0.3684  0.9414
 6794TIP3    H241942   4.454   5.196   8.049  0.0653 -0.3890  0.8437
 6795TIP3   OH241943   1.717   0.791   6.852 -0.1500  0.2402  0.8625
 6795TIP3    H141944   1.688   0.804   6.761 -0.0178  0.9516  0.9147
 6795TIP3    H241945   1.787   0.726   6.846  1.8698  2.3533  0.0773
 6796TIP3   OH241946   2.004   2.206   0.216  0.3565  0.0853 -0.1923
 6796TIP3    H141947   2.056   2.207   0.136 -1.8969 -0.3983 -1.7637
 6796TIP3    H241948   1.980   2.114   0.229 -1.4466  0.4600 -0.5154
 6797TIP3   OH241949   2.176   6.332   2.228 -0.6115  0.0168  0.6165
 6797TIP3    H141950   2.238   6.374   2.169 -0.1775 -0.4545  0.7207
 6797TIP3    H241951   2.123   6.275   2.172 -0.7298  0.1714  0.5718
 6798TIP3   OH241952   4.717   5.162   1.436  0.0677  0.5422 -0.0454
 6798TIP3    H141953   4.666   5.187   1.359 -1.2537  1.6002  1.1115
 6798TIP3    H241954   4.808   5.177   1.411 -0.4374  2.6873 -0.8115
 6799TIP3   OH241955   6.181   3.194   8.297 -0.4636 -0.1484 -0.0955
 6799TIP3    H141956   6.167   3.288   8.292  0.2138  0.0037  0.6299
 6799TIP3    H241957   6.276   3.184   8.311 -0.2605 -1.0065 -1.8464
 6800TIP3   OH241958   0.396   0.767   6.989 -0.4300  0.1800 -0.1992
 6800TIP3    H141959   0.312   0.771   7.033  0.2484 -0.4423  1.2112
 6800TIP3    H241960   0.431   0.680   7.010 -0.0574 -0.1529 -1.9652
 6801TIP3   OH241961   1.134   5.107   7.053  0.3721 -0.4222 -0.1873
 6801TIP3    H141962   1.093   5.114   6.967  1.8469  0.5745 -0.8324
 6801TIP3    H241963   1.222   5.142   7.042  0.8708 -0.9887  1.5527
 6802TIP3   OH241964   3.031   1.872   6.708 -0.0554 -0.5155 -0.2434
 6802TIP3    H141965   2.969   1.803   6.730  0.9123 -1.4239 -0.2771
 6802TIP3    H241966   3.004   1.902   6.621 -0.6161 -0.6942 -0.1344
 6803TIP3   OH241967   0.880   3.463   7.688  0.1228  0.2868  0.1808
 6803TIP3    H141968   0.947   3.508   7.740  1.0111  0.9840 -1.4807
 6803TIP3    H241969   0.818   3.531   7.663 -0.2094 -0.0112  0.1696
 6804TIP3   OH241970   1.058   4.552   7.527 -0.3292  0.2751 -0.3836
 6804TIP3    H141971   1.051   4.623   7.463 -1.4336  0.9249  0.4120
 6804TIP3    H241972   1.149   4.556   7.557  0.0438  0.3364 -1.4706
 6805TIP3   OH241973   1.901   6.408   1.278  0.1728  0.0660  0.6855
 6805TIP3    H141974   1.872   6.407   1.369 -0.8763 -0.1820  0.3530
 6805TIP3    H241975   1.926   6.499   1.262 -0.7381  0.3592  0.8825
 6806TIP3   OH241976   6.789   0.182   8.590  0.1452  0.5053 -0.9666
 6806TIP3    H141977   6.756   0.094   8.572 -1.4746  1.0883 -1.0343
 6806TIP3    H241978   6.807   0.182   8.684 -0.9050  0.4032 -0.7481
 6807TIP3   OH241979   2.796   0.369   7.156  0.4299  0.5199  0.5483
 6807TIP3    H141980   2.777   0.412   7.073  1.5267 -1.7832 -1.0069
 6807TIP3    H241981   2.711   0.343   7.190  0.0767 -0.7323 -1.1711
 6808TIP3   OH241982   0.810   6.594   7.949 -0.4939 -0.3156 -0.6984
 6808TIP3    H141983   0.904   6.592   7.967 -0.2257 -1.4502 -2.0232
 6808TIP3    H241984   0.777   6.667   8.001  0.9954 -0.3446  0.3565
 6809TIP3   OH241985   3.348   5.423   1.383  0.0405 -0.1119  0.2382
 6809TIP3    H141986   3.328   5.401   1.474 -2.3165 -2.5809 -0.7165
 6809TIP3    H241987   3.401   5.350   1.352 -2.3730 -1.3924 -1.2652
 6810TIP3   OH241988   4.800   2.016   8.035 -0.0187  0.0491  0.2967
 6810TIP3    H141989   4.889   2.051   8.035  0.9886 -2.2802 -0.4628
 6810TIP3    H241990   4.748   2.084   7.993  2.0035  0.2602 -2.1148
 6811TIP3   OH241991   1.649   4.952   1.395  0.2550  0.7724 -0.1752
 6811TIP3    H141992   1.676   4.991   1.478 -2.5853  0.0786  1.1940
 6811TIP3    H241993   1.589   5.016   1.357  0.6095  0.5479 -1.1388
 6812TIP3   OH241994   1.884   6.632   0.640 -0.2533 -0.1018 -0.5401
 6812TIP3    H141995   1.933   6.705   0.677  0.8397 -1.0070 -0.1147
 6812TIP3    H241996   1.801   6.633   0.687  0.3508 -0.0389  0.5638
 6813TIP3   OH241997   3.262   6.838   1.652  0.3365 -0.2031 -0.1193
 6813TIP3    H141998   3.294   6.928   1.663 -1.4728  0.3512  0.8892
 6813TIP3    H241999   3.262   6.824   1.557  2.0779  0.2895 -0.2261
 6814TIP3   OH242000   2.767   4.681   1.375  0.7656  0.1150 -0.6730
 6814TIP3    H142001   2.798   4.770   1.360  0.1837  0.3721 -0.3976
 6814TIP3    H242002   2.671   4.689   1.376  0.7182 -0.4401 -0.2225
 6815TIP3   OH242003   3.791   3.165   7.771  0.1645  0.5348 -0.0915
 6815TIP3    H142004   3.725   3.230   7.747 -0.9354 -0.3571  0.4275
 6815TIP3    H242005   3.748   3.080   7.757  0.5327 -0.0506  2.0326
 6816TIP3   OH242006   0.474   5.498   7.355 -0.4973  0.6762 -0.0321
 6816TIP3    H142007   0.470   5.483   7.450 -0.5825  0.9355  0.0070
 6816TIP3    H242008   0.566   5.519   7.339 -0.2162 -0.5832 -0.2013
 6817TIP3   OH242009   1.078   2.752   7.453 -0.3691  0.2892  0.2120
 6817TIP3    H142010   1.042   2.836   7.481 -0.7881 -0.0192  0.6208
 6817TIP3    H242011   1.052   2.743   7.362  1.3605  1.4990 -0.4403
 6818TIP3   OH242012   0.410   3.858   3.213  0.0937  0.9761  0.2327
 6818TIP3    H142013   0.472   3.913   3.260 -0.3348  1.5486  0.1473
 6818TIP3    H242014   0.441   3.859   3.122 -0.0649  1.3016  0.1806
 6819TIP3   OH242015   1.777   5.097   6.954  0.1486  0.1208  0.1075
 6819TIP3    H142016   1.808   5.143   6.875  1.7488 -0.9858  0.0369
 6819TIP3    H242017   1.738   5.165   7.008  0.4940  1.1762 -0.9280
 6820TIP3   OH242018   1.926   4.005   7.559 -0.3552  0.4665  0.0477
 6820TIP3    H142019   1.994   3.996   7.625 -0.8342  1.0359  0.6366
 6820TIP3    H242020   1.971   4.036   7.480  0.3247 -0.8643 -0.1155
 6821TIP3   OH242021   0.634   5.106   2.121 -0.4185 -0.3259 -0.3973
 6821TIP3    H142022   0.552   5.100   2.169  0.4383 -0.3864  1.1110
 6821TIP3    H242023   0.701   5.123   2.188  0.4973  2.3566 -1.8257
 6822TIP3   OH242024   0.084   4.092   6.850 -0.0176  0.0867 -0.4385
 6822TIP3    H142025   0.076   3.997   6.844 -1.0786  0.1632 -0.5909
 6822TIP3    H242026   0.174   4.108   6.878  0.2481 -0.9482 -0.6825
 6823TIP3   OH242027   4.677   2.165   8.513  0.4328 -0.4074  0.4099
 6823TIP3    H142028   4.718   2.248   8.491 -0.2445 -0.6366 -1.9656
 6823TIP3    H242029   4.749   2.110   8.544  1.6426 -0.2019 -1.8680
 6824TIP3   OH242030   1.350   1.022   0.845 -0.2703  0.7201  0.0235
 6824TIP3    H142031   1.342   1.067   0.761 -2.0533  1.7230  0.6669
 6824TIP3    H242032   1.273   1.050   0.894  0.8980  0.4075  2.1240
 6825TIP3   OH242033   0.945   2.905   8.513 -0.6786  0.0536  0.2785
 6825TIP3    H142034   0.971   2.968   8.579  3.4773 -0.1047 -0.9175
 6825TIP3    H242035   1.023   2.894   8.458 -1.9646 -4.1701 -1.1250
 6826TIP3   OH242036   5.485   5.291   6.518  0.4631 -0.1772 -0.0908
 6826TIP3    H142037   5.569   5.313   6.478 -0.1940  0.7710 -1.0014
 6826TIP3    H242038   5.508   5.260   6.606  1.7738 -0.1902 -0.4124
 6827TIP3   OH242039   1.670   6.850   7.442  0.2985  0.4048 -0.0042
 6827TIP3    H142040   1.591   6.796   7.429  0.8209  0.0132 -1.8918
 6827TIP3    H242041   1.682   6.853   7.537  0.4052 -3.0775  0.2135
 6828TIP3   OH242042   5.932   5.838   1.366 -0.1578  0.2957 -0.1500
 6828TIP3    H142043   6.008   5.846   1.308  0.2731 -1.5555  0.1097
 6828TIP3    H242044   5.932   5.920   1.415  1.5914  0.4243 -0.2864
 6829TIP3   OH242045   2.416   0.123   7.123  0.1999 -0.3556 -0.7277
 6829TIP3    H142046   2.470   0.128   7.044  1.6653  1.1805  0.2718
 6829TIP3    H242047   2.468   0.169   7.190 -1.3535 -0.8564  0.9126
 6830TIP3   OH242048   5.978   5.606   7.921  0.2414 -0.1017  0.5032
 6830TIP3    H142049   5.902   5.601   7.980  0.2986  1.0541  0.7111
 6830TIP3    H242050   5.940   5.626   7.835  0.3425  2.3782  0.9365
 6831TIP3   OH242051   3.441   6.752   8.091  0.5858 -0.0227 -0.0187
 6831TIP3    H142052   3.460   6.695   8.166 -3.5725  0.3881  1.6193
 6831TIP3    H242053   3.417   6.691   8.021 -0.7104 -0.4126  0.7263
 6832TIP3   OH242054   6.783   4.253   7.690 -1.0001  0.4577 -0.1742
 6832TIP3    H142055   6.873   4.221   7.692 -1.5544 -1.2068 -0.2382
 6832TIP3    H242056   6.764   4.265   7.597 -0.9126  0.6260 -0.1711
 6833TIP3   OH242057   2.761   1.363   8.561 -0.0107  0.1079 -0.2591
 6833TIP3    H142058   2.713   1.331   8.638 -0.4365 -0.0560 -0.5879
 6833TIP3    H242059   2.782   1.454   8.583 -2.0964  0.7824 -0.8275
 6834TIP3   OH242060   6.253   2.521   6.559  0.3115  0.0638 -0.4652
 6834TIP3    H142061   6.272   2.434   6.523  2.4049 -0.1111  0.9184
 6834TIP3    H242062   6.157   2.525   6.562  0.1020 -2.9691  1.1484
 6835TIP3   OH242063   5.073   4.328   0.025  0.2387 -0.2138 -0.0299
 6835TIP3    H142064   5.077   4.420   0.050  0.1314 -0.1897 -0.1015
 6835TIP3    H242065   5.035   4.284   0.102  0.4051 -0.2170  0.0517
 6836TIP3   OH242066   2.312   5.579   8.403 -0.3499 -0.3957  0.2541
 6836TIP3    H142067   2.279   5.544   8.320 -0.4147  1.5320 -0.5640
 6836TIP3    H242068   2.380   5.641   8.378 -0.6275  0.4892  1.6270
 6837TIP3   OH242069   5.189   0.628   8.117  0.5109 -0.3774  0.5311
 6837TIP3    H142070   5.231   0.691   8.059 -0.6358  1.2159  1.3452
 6837TIP3    H242071   5.111   0.674   8.149 -0.6097 -2.3809  0.8323
 6838TIP3   OH242072   4.938   3.561   7.234  0.4093 -0.4300  0.1070
 6838TIP3    H142073   4.936   3.651   7.266  1.2793 -0.6790  0.8836
 6838TIP3    H242074   4.920   3.507   7.311 -2.3049 -0.8817 -0.7311
 6839TIP3   OH242075   0.614   0.618   0.027  0.5483 -0.2363 -0.2044
 6839TIP3    H142076   0.653   0.609  -0.060 -1.2562  0.0089 -1.0995
 6839TIP3    H242077   0.570   0.704   0.024  1.4381  0.3081  1.3782
 6840TIP3   OH242078   3.172   2.542   2.327  0.3971 -0.2338  0.0106
 6840TIP3    H142079   3.139   2.552   2.416 -3.2638  4.9601 -1.4839
 6840TIP3    H242080   3.254   2.591   2.326 -0.7769  1.8172  0.1178
 6841TIP3   OH242081   4.037   5.019   0.006 -0.1684 -0.3731  0.3704
 6841TIP3    H142082   3.953   4.972   0.003 -1.4539  1.6928  1.5488
 6841TIP3    H242083   4.015   5.108  -0.019  2.1377 -0.2210 -1.4673
 6842TIP3   OH242084   1.989   3.700   2.589  0.4879 -0.3223  0.5124
 6842TIP3    H142085   1.934   3.778   2.582  0.8959 -0.0403  0.3346
 6842TIP3    H242086   2.075   3.735   2.616  0.7995 -0.6530 -0.0344
 6843TIP3   OH242087   1.048   5.377   2.640  0.1342  0.0120 -0.6533
 6843TIP3    H142088   1.059   5.302   2.698  0.0537  0.2438 -0.3388
 6843TIP3    H242089   1.010   5.340   2.560  0.4489 -0.3403 -0.6432
 6844TIP3   OH242090   5.952   6.269   0.705  0.7437 -0.1753  0.2090
 6844TIP3    H142091   5.872   6.322   0.701  0.0346 -1.3090 -1.4990
 6844TIP3    H242092   5.989   6.288   0.792 -1.0024  0.9020  0.7574
 6845TIP3   OH242093   4.647   2.794   1.855  0.4369  0.2384 -0.0854
 6845TIP3    H142094   4.733   2.786   1.897  0.7744 -0.6541 -0.8887
 6845TIP3    H242095   4.586   2.807   1.927  0.9089 -1.8840  0.7841
 6846TIP3   OH242096   4.583   4.203   1.925 -0.5221 -0.4347 -0.3488
 6846TIP3    H142097   4.580   4.298   1.910  0.5932 -0.4778 -0.9794
 6846TIP3    H242098   4.676   4.181   1.919 -0.5104 -1.2566  1.8998
 6847TIP3   OH242099   2.243   3.048   7.144  0.3765 -0.2156 -0.2825
 6847TIP3    H142100   2.201   3.119   7.096 -0.0173  0.0567  0.4431
 6847TIP3    H242101   2.330   3.082   7.165 -0.4941  0.8892  1.8075
 6848TIP3   OH242102   6.465   6.211   8.015  0.1037  0.2793  0.2115
 6848TIP3    H142103   6.451   6.296   8.057  0.0854 -0.3290  1.4756
 6848TIP3    H242104   6.558   6.192   8.029 -0.4592 -1.1778  2.4749
 6849TIP3   OH242105   5.835   5.591   0.587  0.2932 -0.2421 -0.1440
 6849TIP3    H142106   5.817   5.530   0.515  0.1648  0.3406 -0.6221
 6849TIP3    H242107   5.905   5.551   0.637 -0.3659 -1.1851  0.0474
 6850TIP3   OH242108   6.735   0.033   0.473 -0.6313 -0.0989 -0.0684
 6850TIP3    H142109   6.718   0.029   0.567 -0.5291 -1.2843 -0.0782
 6850TIP3    H242110   6.703  -0.051   0.440 -0.1377  0.0670 -1.0004
 6851TIP3   OH242111   0.873   0.321   0.651 -0.1107  0.0177  0.1910
 6851TIP3    H142112   0.844   0.230   0.653  0.7467 -0.2809 -0.1153
 6851TIP3    H242113   0.961   0.317   0.613  0.5589  0.8095  1.5750
 6852TIP3   OH242114   5.567   0.128   1.593  0.2687 -0.6915 -0.4981
 6852TIP3    H142115   5.562   0.223   1.583 -0.0770 -0.6269  0.1770
 6852TIP3    H242116   5.553   0.093   1.505  1.3117 -0.0996 -0.9137
 6853TIP3   OH242117   2.266   6.062   2.621  0.1343 -0.0858 -0.5859
 6853TIP3    H142118   2.234   6.147   2.589  1.9148  1.1022  0.5868
 6853TIP3    H242119   2.197   6.000   2.597 -1.2495  1.6840 -1.4599
 6854TIP3   OH242120   6.751   4.147   1.838  0.0047 -0.3116 -0.3185
 6854TIP3    H142121   6.687   4.118   1.902  0.3570 -1.0941 -0.3037
 6854TIP3    H242122   6.809   4.207   1.885 -1.2767  1.1845 -0.5773
 6855TIP3   OH242123   2.695   1.667   7.110 -0.1653  0.1111  0.1585
 6855TIP3    H142124   2.750   1.699   7.181  0.0491  0.1483 -0.0243
 6855TIP3    H242125   2.607   1.697   7.133 -0.7401 -2.6354  2.1366
 6856TIP3   OH242126   3.021   4.907   2.038  0.2027 -0.2718  0.0403
 6856TIP3    H142127   3.087   4.975   2.026  2.2518 -2.0017  0.8679
 6856TIP3    H242128   2.945   4.953   2.074  1.8948  1.4256  1.6434
 6857TIP3   OH242129   1.331   5.088   8.291 -0.9014  0.3040  0.0455
 6857TIP3    H142130   1.311   5.174   8.329  0.5750 -0.5294  3.0368
 6857TIP3    H242131   1.266   5.029   8.330  2.2873 -1.0778  3.9515
 6858TIP3   OH242132   3.306   3.616   6.326  0.3053 -0.8055 -0.6618
 6858TIP3    H142133   3.389   3.660   6.311  0.5926 -0.4748  1.4837
 6858TIP3    H242134   3.320   3.565   6.406 -1.7632 -0.0877  0.2446
 6859TIP3   OH242135   1.309   6.778   1.410  0.7728  0.1746  0.3364
 6859TIP3    H142136   1.219   6.775   1.445  1.2760  1.2869  1.8450
 6859TIP3    H242137   1.355   6.708   1.456  0.8661  0.1198  0.1586
 6860TIP3   OH242138   0.873   3.420   1.537 -0.1251  0.2643  0.3165
 6860TIP3    H142139   0.808   3.437   1.605 -1.8672 -0.1258 -1.1568
 6860TIP3    H242140   0.930   3.353   1.574 -0.3695  0.8200  1.7614
 6861TIP3   OH242141   6.365   4.117   1.197 -0.0693 -0.2683  0.2709
 6861TIP3    H142142   6.364   4.043   1.136  0.8062  0.1020 -0.2081
 6861TIP3    H242143   6.338   4.079   1.281  2.0532 -1.5466  0.4486
 6862TIP3   OH242144   6.577   4.404   0.671 -0.5047 -0.0574 -0.3753
 6862TIP3    H142145   6.568   4.445   0.585 -1.4362  1.5482  0.4460
 6862TIP3    H242146   6.489   4.404   0.708 -0.1726 -0.9804  0.4842
 6863TIP3   OH242147   6.020   4.878   1.221  0.2271 -0.0311  0.1751
 6863TIP3    H142148   5.937   4.852   1.262  1.1247 -1.0568  1.4227
 6863TIP3    H242149   6.014   4.844   1.132 -1.3411  1.3379 -0.2986
 6864TIP3   OH242150   5.465   2.485   1.845  0.1390 -0.1607 -0.0410
 6864TIP3    H142151   5.481   2.451   1.933 -1.4299 -0.5502  0.1233
 6864TIP3    H242152   5.487   2.578   1.851 -0.6511 -0.0195  0.9761
 6865TIP3   OH242153   2.498   6.586   0.817  0.3465 -0.5477 -0.2599
 6865TIP3    H142154   2.466   6.667   0.855  0.0492 -0.8026  0.0463
 6865TIP3    H242155   2.422   6.528   0.817  0.1957 -0.3834 -1.7465
 6866TIP3   OH242156   3.044   3.476   8.512  0.3139  0.1131  0.6579
 6866TIP3    H142157   2.959   3.432   8.514 -0.6037  1.6213 -1.4068
 6866TIP3    H242158   3.038   3.543   8.579 -1.2725  1.9951 -1.2160
 6867TIP3   OH242159   2.681   6.631   7.119  0.3156  0.4333  0.3527
 6867TIP3    H142160   2.734   6.591   7.050 -3.1998 -0.4455 -2.1230
 6867TIP3    H242161   2.647   6.711   7.079 -1.6409  0.0261  1.1064
 6868TIP3   OH242162   0.095   1.173   0.840 -0.0596  0.7321 -0.0144
 6868TIP3    H142163   0.127   1.154   0.751  1.4372 -1.7774  0.9530
 6868TIP3    H242164   0.030   1.104   0.856  0.2732  0.6707  1.1157
 6869TIP3   OH242165   2.835   4.545   2.320 -0.1658  0.0672  0.3525
 6869TIP3    H142166   2.860   4.523   2.410 -0.1302 -1.3256  0.0291
 6869TIP3    H242167   2.888   4.622   2.298  0.3536 -0.0178  1.2752
 6870TIP3   OH242168   3.428   3.118   7.475  0.7323 -0.1296  0.8161
 6870TIP3    H142169   3.506   3.167   7.450  0.9015 -1.9164 -2.8537
 6870TIP3    H242170   3.355   3.177   7.456  1.0687  0.4419  1.2651
 6871TIP3   OH242171   0.126   3.472   2.412  0.4546 -0.5652 -0.2343
 6871TIP3    H142172   0.217   3.501   2.414  0.5737 -0.9666  0.5371
 6871TIP3    H242173   0.075   3.551   2.398  0.9230 -0.3363 -0.6549
 6872TIP3   OH242174   2.575   0.438   8.515  0.1851 -0.1834  0.1128
 6872TIP3    H142175   2.580   0.406   8.605 -0.0308 -0.0551  0.1685
 6872TIP3    H242176   2.630   0.516   8.514 -0.7538  0.4994  0.4237
 6873TIP3   OH242177   3.095   2.377   0.386 -0.2629  0.2788 -0.0837
 6873TIP3    H142178   3.046   2.356   0.466 -1.7181 -0.1278 -1.0396
 6873TIP3    H242179   3.044   2.447   0.344  0.5883  0.6226 -0.5638
 6874TIP3   OH242180   3.869   4.446   8.377 -0.1403 -0.2494 -0.3344
 6874TIP3    H142181   3.906   4.473   8.293 -1.4698 -0.7139 -1.1008
 6874TIP3    H242182   3.839   4.527   8.418 -1.2220 -0.1988 -1.1888
 6875TIP3   OH242183   4.559   6.098   0.673  0.3805 -0.1022 -0.2690
 6875TIP3    H142184   4.596   6.073   0.589 -1.6867  0.5680 -1.4450
 6875TIP3    H242185   4.531   6.016   0.713 -0.8587 -0.2424 -1.3754
 6876TIP3   OH242186   2.568   6.401   8.422  0.5784 -0.2680  0.8286
 6876TIP3    H142187   2.642   6.436   8.472  0.3894 -0.2522  1.1004
 6876TIP3    H242188   2.606   6.374   8.339  0.4317  2.2507 -0.1432
 6877TIP3   OH242189   2.967   5.779   7.766  0.1596 -0.2505 -0.0890
 6877TIP3    H142190   2.954   5.743   7.853  2.0368  0.7358  0.6702
 6877TIP3    H242191   3.018   5.713   7.720 -2.1184 -1.4531 -1.0209
 6878TIP3   OH242192   4.908   3.200   8.288  0.1926  0.2545  0.3207
 6878TIP3    H142193   4.841   3.247   8.337 -1.6471 -1.8830  0.0656
 6878TIP3    H242194   4.872   3.193   8.200  1.3042  0.0352 -0.1302
 6879TIP3   OH242195   5.973   1.528   1.458 -1.1550 -0.2380  0.0606
 6879TIP3    H142196   5.973   1.488   1.545  1.0659 -1.9663 -0.6659
 6879TIP3    H242197   5.957   1.456   1.398  1.3491  0.1475 -1.1953
 6880TIP3   OH242198   2.450   1.326   1.756  0.3124  0.3512 -0.3358
 6880TIP3    H142199   2.400   1.382   1.815  1.1951  1.0975 -0.2721
 6880TIP3    H242200   2.427   1.237   1.782  0.4718  0.6688  0.9515
 6881TIP3   OH242201   5.944   6.502   0.929  0.1750  0.1156  1.1753
 6881TIP3    H142202   6.011   6.444   0.965 -0.1411 -0.4021  0.9296
 6881TIP3    H242203   5.989   6.586   0.918  1.1112 -0.5100 -0.0296
 6882TIP3   OH242204   0.720   2.457   8.583 -0.0529 -0.3612  0.1350
 6882TIP3    H142205   0.704   2.551   8.587  2.0874  0.0186  2.1633
 6882TIP3    H242206   0.639   2.417   8.614 -1.7828  0.6055 -2.7388
 6883TIP3   OH242207   3.650   2.349   8.302  0.5857  0.1837  0.0915
 6883TIP3    H142208   3.610   2.297   8.233 -0.5158  1.2367 -0.0847
 6883TIP3    H242209   3.611   2.317   8.383  1.2117 -0.4370  0.1582
 6884TIP3   OH242210   1.886   1.592   1.953 -0.1836  0.0339  0.0515
 6884TIP3    H142211   1.911   1.500   1.945  0.2685  0.2428 -1.3406
 6884TIP3    H242212   1.821   1.594   2.022  0.9517 -1.0941  1.2050
 6885TIP3   OH242213   6.311   4.649   0.408 -0.7310  0.0913 -0.0391
 6885TIP3    H142214   6.283   4.605   0.328  0.8844 -0.7082 -0.2205
 6885TIP3    H242215   6.239   4.708   0.430 -1.5701 -0.2891 -1.6016
 6886TIP3   OH242216   5.731   4.214   8.348 -0.0994  0.5407  0.1217
 6886TIP3    H142217   5.732   4.256   8.261 -0.9852  0.2078 -0.0596
 6886TIP3    H242218   5.712   4.286   8.408  2.2138  1.1037  0.2626
 6887TIP3   OH242219   0.578   2.520   8.033 -0.0355 -0.5336 -0.8789
 6887TIP3    H142220   0.526   2.440   8.022  0.0200 -0.7984  0.5767
 6887TIP3    H242221   0.576   2.537   8.128  1.3565  0.2455 -0.9670
 6888TIP3   OH242222   3.398   5.708   1.556  0.7105  0.2484 -0.8491
 6888TIP3    H142223   3.434   5.635   1.506  1.0653 -0.1061 -0.0920
 6888TIP3    H242224   3.361   5.767   1.489  1.9416  0.2192 -1.5948
 6889TIP3   OH242225   5.289   2.475   8.229  0.3787  0.7804 -0.1317
 6889TIP3    H142226   5.349   2.428   8.170 -0.9354 -0.0007 -0.8758
 6889TIP3    H242227   5.256   2.547   8.175 -3.7014 -2.0122 -1.8023
 6890TIP3   OH242228   1.482   4.225   0.448 -0.3892 -0.1727 -0.3262
 6890TIP3    H142229   1.489   4.273   0.531 -1.4329  1.1844 -0.9753
 6890TIP3    H242230   1.537   4.148   0.460  1.6760  1.3617  0.6526
 6891TIP3   OH242231   4.346   0.016   7.880  0.5011  0.5290  0.0348
 6891TIP3    H142232   4.438   0.009   7.855  1.3157 -0.9494  2.9845
 6891TIP3    H242233   4.342  -0.023   7.967 -3.1918 -0.6595 -0.5104
 6892TIP3   OH242234   2.011   5.095   8.029 -0.1255 -0.3192  0.2983
 6892TIP3    H142235   1.958   5.048   7.964  1.1214 -0.6104 -0.5475
 6892TIP3    H242236   2.063   5.156   7.978  1.5905 -1.2259  0.8749
 6893TIP3   OH242237   4.361   6.564   1.360 -0.0122  0.3536 -0.0932
 6893TIP3    H142238   4.365   6.497   1.429 -2.7598 -1.5567 -1.5658
 6893TIP3    H242239   4.440   6.617   1.373 -0.0311 -0.2891  4.0238
 6894TIP3   OH242240   5.312   2.759   8.540  0.4836  0.2123  0.1555
 6894TIP3    H142241   5.317   2.666   8.517  1.7806  0.3314 -0.1186
 6894TIP3    H242242   5.276   2.802   8.462  1.3147  0.1246 -0.2865
 6895TIP3   OH242243   4.389   3.828   6.805 -0.5152 -0.1676  0.1190
 6895TIP3    H142244   4.474   3.872   6.805 -1.1033  1.0126 -0.6689
 6895TIP3    H242245   4.397   3.761   6.873  0.1927  1.6062  1.9007
 6896TIP3   OH242246   1.781   0.797   6.283  0.2509 -0.4101 -0.3451
 6896TIP3    H142247   1.777   0.881   6.328  0.0955 -0.6494  0.0945
 6896TIP3    H242248   1.813   0.736   6.350 -1.2142 -1.0296 -0.1829
 6897TIP3   OH242249   3.412   1.606   6.611 -0.0734 -0.1687 -0.4846
 6897TIP3    H142250   3.341   1.642   6.557 -1.6114  1.5270  2.4204
 6897TIP3    H242251   3.392   1.513   6.617 -1.1408  0.0062 -1.0320
 6898TIP3   OH242252   1.857   4.743   0.796  0.2344  0.2239 -0.0124
 6898TIP3    H142253   1.914   4.684   0.748  0.6417  0.9439 -0.4282
 6898TIP3    H242254   1.791   4.770   0.732  1.3712  1.9999 -0.5239
 6899TIP3   OH242255   2.497   3.095   7.631  0.4579 -0.8668  0.4919
 6899TIP3    H142256   2.512   3.041   7.554  0.4184 -1.1789  0.7028
 6899TIP3    H242257   2.584   3.131   7.653  1.1050 -3.1854  2.1015
 6900TIP3   OH242258   2.411   6.205   8.242  0.0920 -0.0499 -0.7831
 6900TIP3    H142259   2.469   6.277   8.268 -1.2257  0.9387 -0.4777
 6900TIP3    H242260   2.348   6.199   8.314  0.4222 -1.8111 -0.6057
 6901TIP3   OH242261   1.894   2.642   7.138  0.6013 -0.0894  0.0087
 6901TIP3    H142262   1.976   2.691   7.125  2.0050 -2.4155 -0.5365
 6901TIP3    H242263   1.895   2.617   7.230  1.8246 -2.1535 -0.4905
 6902TIP3   OH242264   6.547   6.092   8.611 -0.6266 -0.3422  0.0255
 6902TIP3    H142265   6.461   6.050   8.618 -0.2636 -1.1047 -0.0207
 6902TIP3    H242266   6.589   6.076   8.696 -0.8177  0.6961  0.3302
 6903TIP3   OH242267   1.023   4.429   0.469  0.1229 -0.0141 -0.1602
 6903TIP3    H142268   0.984   4.451   0.384  1.6316 -0.3163 -0.9675
 6903TIP3    H242269   1.105   4.478   0.471  0.3759 -0.4537  0.8843
 6904TIP3   OH242270   0.397   5.791   0.361 -0.2460 -0.6214  0.2241
 6904TIP3    H142271   0.380   5.780   0.268 -1.0129 -1.6997  0.4712
 6904TIP3    H242272   0.389   5.703   0.398 -2.6455  0.1132  1.7184
 6905TIP3   OH242273   6.614   2.760   1.262  0.8891 -0.6523  0.1316
 6905TIP3    H142274   6.694   2.727   1.222  1.4205  0.1243  0.5135
 6905TIP3    H242275   6.614   2.854   1.240  0.8768 -0.3307  1.3931
 6906TIP3   OH242276   1.776   4.999   1.960  0.8152  0.7242  0.5845
 6906TIP3    H142277   1.727   4.926   1.999  0.9583 -0.5165 -1.3867
 6906TIP3    H242278   1.868   4.973   1.968  0.8533  0.4955 -0.4100
 6907TIP3   OH242279   3.779   1.039   6.698 -0.4176  0.1013  0.0719
 6907TIP3    H142280   3.823   1.110   6.744 -0.8486  0.6729 -0.3876
 6907TIP3    H242281   3.716   1.005   6.761 -1.5384  1.3755 -0.3068
 6908TIP3   OH242282   3.955   3.774   8.066  0.5966  0.1332 -0.0242
 6908TIP3    H142283   4.044   3.762   8.100  0.4571  1.1621  0.7602
 6908TIP3    H242284   3.899   3.744   8.137  0.3160  0.7739  0.0346
 6909TIP3   OH242285   2.337   3.396   8.503  0.4500  0.1655  0.3199
 6909TIP3    H142286   2.255   3.390   8.454  0.8957 -1.7832 -0.3056
 6909TIP3    H242287   2.386   3.467   8.461 -0.0838 -0.0233 -0.6487
 6910TIP3   OH242288   4.261   2.321   7.254  0.4031 -0.2912  1.1793
 6910TIP3    H142289   4.269   2.281   7.341 -1.6571 -0.6186  1.2564
 6910TIP3    H242290   4.253   2.247   7.195 -1.1193 -0.0516  1.0599
 6911TIP3   OH242291   4.066   2.479   7.074  0.3526 -0.3100 -0.0672
 6911TIP3    H142292   4.120   2.549   7.037 -0.7511  0.8654  0.4537
 6911TIP3    H242293   4.121   2.439   7.141  0.2634  1.5544  1.2006
 6912TIP3   OH242294   6.020   6.592   6.893  0.1450 -0.1181 -0.5045
 6912TIP3    H142295   5.993   6.522   6.953 -1.3365  0.3535 -0.5900
 6912TIP3    H242296   6.025   6.551   6.807  0.9337 -0.4810 -0.2966
 6913TIP3   OH242297   2.042   1.514   8.174  0.7846  0.3375  0.1366
 6913TIP3    H142298   2.121   1.557   8.208 -0.7696  2.4924  1.2195
 6913TIP3    H242299   1.971   1.547   8.229 -0.8728 -1.8077 -0.5750
 6914TIP3   OH242300   4.806   3.252   0.059 -0.1125 -0.0281 -0.0598
 6914TIP3    H142301   4.815   3.320  -0.009  1.2940  0.4233  0.5273
 6914TIP3    H242302   4.733   3.198   0.029  0.1511  0.4397 -1.6887
 6915TIP3   OH242303   0.322   2.784   1.705  0.0306 -0.0099 -0.5930
 6915TIP3    H142304   0.230   2.808   1.701 -0.1897 -0.7381 -0.0508
 6915TIP3    H242305   0.322   2.692   1.728  0.9024  0.5378  1.8965
 6916TIP3   OH242306   1.413   3.558   7.268  0.4607 -0.0537 -0.1342
 6916TIP3    H142307   1.415   3.477   7.218 -3.1433 -1.0736  1.0648
 6916TIP3    H242308   1.445   3.533   7.355  0.6863  0.1429 -0.1612
 6917TIP3   OH242309   2.126   5.137   1.477  0.1107  0.0876  0.0521
 6917TIP3    H142310   2.217   5.151   1.505 -0.0911  1.2517  0.1890
 6917TIP3    H242311   2.076   5.134   1.558 -0.0516  0.1085 -0.0467
 6918TIP3   OH242312   3.381   4.786   2.074  0.2664 -0.0167 -0.8070
 6918TIP3    H142313   3.467   4.774   2.116 -0.1843  0.4168  0.2798
 6918TIP3    H242314   3.353   4.697   2.051  0.4288 -0.2956  0.0378
 6919TIP3   OH242315   3.981   5.113   2.206  0.2432 -0.0039 -0.5178
 6919TIP3    H142316   3.904   5.159   2.172  0.0246 -0.3348 -0.4724
 6919TIP3    H242317   3.977   5.126   2.301 -0.7623 -1.5356 -0.3177
 6920TIP3   OH242318   0.179   1.418   7.215 -0.3379 -0.1052 -0.3551
 6920TIP3    H142319   0.152   1.407   7.307  1.0158  0.6790  0.1632
 6920TIP3    H242320   0.136   1.499   7.188 -0.4025 -0.1155 -0.2869
 6921TIP3   OH242321   3.279   3.545   7.933 -0.3509  0.1849 -0.3342
 6921TIP3    H142322   3.362   3.543   7.886 -1.2466 -1.7672 -1.9801
 6921TIP3    H242323   3.275   3.461   7.980 -1.0447  0.6080  0.3984
 6922TIP3   OH242324   3.524   4.797   8.317  0.1841 -0.2125 -0.2690
 6922TIP3    H142325   3.567   4.723   8.360  0.1251  0.2356  0.5820
 6922TIP3    H242326   3.486   4.848   8.388 -2.2510 -0.8636 -0.9922
 6923TIP3   OH242327   5.666   3.838   7.687  0.2650 -0.1778  0.8960
 6923TIP3    H142328   5.629   3.784   7.616  2.8093  0.6358 -1.2285
 6923TIP3    H242329   5.722   3.777   7.735  2.9986  0.3189 -1.3950
 6924TIP3   OH242330   1.068   4.860   7.111 -0.0449 -0.4944 -0.0822
 6924TIP3    H142331   1.103   4.940   7.073  0.6041 -0.5843  0.3080
 6924TIP3    H242332   1.010   4.824   7.044 -0.3310  0.2925 -0.2611
 6925TIP3   OH242333   0.150   1.727   1.747 -0.2178  0.0766  0.4603
 6925TIP3    H142334   0.068   1.776   1.759 -0.4914 -0.2561 -0.0065
 6925TIP3    H242335   0.196   1.736   1.830  0.3846  2.3147 -0.0228
 6926TIP3   OH242336   6.725   0.533   7.842  0.4577 -0.0670 -0.3234
 6926TIP3    H142337   6.769   0.521   7.757  1.2718  3.0150 -0.4476
 6926TIP3    H242338   6.650   0.588   7.822  0.2006  0.0177  0.8482
 6927TIP3   OH242339   3.091   6.165   1.496  0.6332  0.5245 -0.4958
 6927TIP3    H142340   3.158   6.109   1.458  1.4054  1.5843 -0.7362
 6927TIP3    H242341   3.069   6.124   1.579  2.1716  0.5923 -0.0409
 6928TIP3   OH242342   3.219   5.826   1.321  0.1161 -0.3047 -0.5118
 6928TIP3    H142343   3.132   5.844   1.356 -0.4770  1.5912 -2.7010
 6928TIP3    H242344   3.220   5.870   1.236  2.1937 -2.7606 -1.9140
 6929TIP3   OH242345   2.400   0.658   7.297  0.2889  0.1579  0.2045
 6929TIP3    H142346   2.363   0.576   7.265  0.0609  0.1558  0.4697
 6929TIP3    H242347   2.474   0.676   7.239 -0.1482  0.1831 -0.3394
 6930TIP3   OH242348   4.652   4.307   0.480  0.4319  0.3607 -0.1550
 6930TIP3    H142349   4.644   4.359   0.560  0.6550  1.7926 -1.0123
 6930TIP3    H242350   4.562   4.302   0.447  0.2711 -0.6283  0.4089
 6931TIP3   OH242351   1.351   6.490   7.209 -0.1957 -0.0938 -0.1390
 6931TIP3    H142352   1.280   6.486   7.273 -1.1355 -2.2189 -1.2170
 6931TIP3    H242353   1.347   6.406   7.163  1.0224  0.9607 -2.3546
 6932TIP3   OH242354   1.310   0.415   1.064 -0.4934 -0.1874  0.4212
 6932TIP3    H142355   1.289   0.376   0.979  1.4685 -0.2346 -0.0899
 6932TIP3    H242356   1.242   0.383   1.123 -1.5142 -0.6852 -0.9790
 6933TIP3   OH242357   4.501   2.095   0.075  0.3549 -0.3106  0.0747
 6933TIP3    H142358   4.562   2.111   0.003  0.1775 -1.6830 -0.4215
 6933TIP3    H242359   4.502   1.999   0.085 -0.4434 -0.2151  1.1810
 6934TIP3   OH242360   4.456   4.741   2.457 -0.0101 -0.0157 -0.0353
 6934TIP3    H142361   4.551   4.757   2.453  0.2383 -0.9770  1.3072
 6934TIP3    H242362   4.418   4.829   2.466  0.8415  0.3192  0.4625
 6935TIP3   OH242363   2.984   6.394   7.703 -0.1566  0.2586  0.0961
 6935TIP3    H142364   3.023   6.333   7.641 -0.3569 -0.7095  0.9030
 6935TIP3    H242365   3.021   6.479   7.679  1.3266 -0.4008 -0.0652
 6936TIP3   OH242366   4.383   3.067   7.969  0.1683  0.1945  0.2888
 6936TIP3    H142367   4.324   3.013   8.021 -0.0383  1.9408  2.0101
 6936TIP3    H242368   4.329   3.100   7.897 -0.7696  1.0848  1.3600
 6937TIP3   OH242369   3.971   3.513   1.122  0.0660  0.5557  0.3797
 6937TIP3    H142370   3.987   3.594   1.170 -0.0493  0.8803 -0.1186
 6937TIP3    H242371   3.922   3.540   1.044 -1.3544 -0.1888  0.9741
 6938TIP3   OH242372   5.861   1.838   6.589  0.0973  0.8343  0.3934
 6938TIP3    H142373   5.877   1.800   6.503 -0.5884  1.1110  0.1422
 6938TIP3    H242374   5.904   1.777   6.650 -0.2436  0.1219 -0.0652
 6939TIP3   OH242375   0.104   6.867   1.054  0.4454  0.3663  0.1838
 6939TIP3    H142376   0.183   6.886   1.104  1.0052 -0.9287 -0.1607
 6939TIP3    H242377   0.109   6.773   1.037 -1.2440  0.2458  0.2620
 6940TIP3   OH242378   1.766   3.173   6.876  0.0037  0.1654  0.3583
 6940TIP3    H142379   1.780   3.165   6.782 -1.5937  1.8736 -0.0779
 6940TIP3    H242380   1.723   3.091   6.900  2.3585 -1.2427  0.0804
 6941TIP3   OH242381   3.263   5.237   0.113 -0.5756  0.1238 -0.2177
 6941TIP3    H142382   3.182   5.271   0.150  0.8321  0.8320  2.4529
 6941TIP3    H242383   3.288   5.165   0.170  1.2514  0.6700 -0.2654
 6942TIP3   OH242384   0.366   0.393   1.262  0.3709 -0.0234 -0.1923
 6942TIP3    H142385   0.324   0.315   1.299  1.8332 -0.0604  1.5083
 6942TIP3    H242386   0.447   0.403   1.312  1.3150  1.3105 -1.8861
 6943TIP3   OH242387   5.809   2.961   8.221 -0.2182  0.2043 -0.3246
 6943TIP3    H142388   5.741   2.978   8.155  0.8405  0.4431 -1.3742
 6943TIP3    H242389   5.815   3.043   8.270  0.4066  0.7289 -1.2530
 6944TIP3   OH242390   5.604   4.356   7.766 -0.3438 -0.6403  0.2471
 6944TIP3    H142391   5.588   4.269   7.731 -0.7275 -0.4111 -0.1591
 6944TIP3    H242392   5.700   4.364   7.766 -0.3175 -0.8770 -0.1844
 6945TIP3   OH242393   0.396   1.634   7.666 -0.1353 -0.3884 -0.3045
 6945TIP3    H142394   0.361   1.719   7.693  2.2539  0.6479 -0.1580
 6945TIP3    H242395   0.388   1.634   7.570 -0.4960 -0.1636 -0.2755
 6946TIP3   OH242396   5.711   5.790   0.741  0.2963 -0.0971 -0.2408
 6946TIP3    H142397   5.619   5.780   0.716 -0.2291 -0.0413  1.5450
 6946TIP3    H242398   5.756   5.716   0.698 -0.3049  0.6434 -2.2414
 6947TIP3   OH242399   1.365   1.749   0.862  0.2485 -0.6406 -0.0094
 6947TIP3    H142400   1.338   1.836   0.833 -1.7623 -0.5039  2.0134
 6947TIP3    H242401   1.461   1.751   0.856  0.1721  1.0664 -1.6745
 6948TIP3   OH242402   4.059   2.006   8.131  0.2126 -0.2303 -0.9510
 6948TIP3    H142403   4.063   2.099   8.153 -1.9399 -0.1922 -0.5176
 6948TIP3    H242404   4.044   2.005   8.036 -0.8883 -0.0763 -0.7912
 6949TIP3   OH242405   1.950   1.577   6.954  0.6539  0.0893 -0.2697
 6949TIP3    H142406   1.983   1.666   6.942  1.9307  0.0872  2.5172
 6949TIP3    H242407   2.022   1.521   6.928 -0.4285 -0.2455 -2.8081
 6950TIP3   OH242408   0.655   4.696   7.490  0.2112  0.5190  0.0265
 6950TIP3    H142409   0.709   4.630   7.534  0.5216  0.0127 -1.0913
 6950TIP3    H242410   0.684   4.694   7.399  0.5156  2.4817  0.0264
 6951TIP3   OH242411   4.932   2.641   0.221 -0.7164  0.0503  0.0453
 6951TIP3    H142412   4.974   2.559   0.192 -0.2955  1.1005 -2.6777
 6951TIP3    H242413   4.842   2.616   0.242 -0.9463 -0.9918 -1.8901
 6952TIP3   OH242414   4.933   1.078   8.071 -0.3339  0.2071 -0.9363
 6952TIP3    H142415   4.902   1.154   8.022 -1.3002  0.1126 -0.4834
 6952TIP3    H242416   4.943   1.109   8.161 -0.5530 -0.1562 -0.7864
 6953TIP3   OH242417   4.139   3.405   7.528  0.0137  0.1130  0.2236
 6953TIP3    H142418   4.069   3.359   7.575 -2.0617  3.2004  0.4332
 6953TIP3    H242419   4.120   3.388   7.436 -0.3415  0.0271  0.3092
 6954TIP3   OH242420   0.959   2.792   6.613  0.0639  0.9876 -0.2475
 6954TIP3    H142421   0.916   2.870   6.647  0.1467  1.6143 -1.5100
 6954TIP3    H242422   0.972   2.811   6.520 -2.1320 -1.4577 -1.1910
 6955TIP3   OH242423   6.244   5.203   0.655  0.9557  0.3215 -0.4802
 6955TIP3    H142424   6.320   5.187   0.712  0.6086  0.5658  0.0618
 6955TIP3    H242425   6.170   5.169   0.705  0.6046  0.8410 -0.6479
 6956TIP3   OH242426   1.844   3.616   1.139 -0.4898  0.1090 -0.8557
 6956TIP3    H142427   1.766   3.576   1.102 -1.5766  0.9473  0.4568
 6956TIP3    H242428   1.835   3.709   1.119 -0.9672  0.5388  1.1879
 6957TIP3   OH242429   4.786   0.923   0.899 -0.5311 -0.8820  0.1721
 6957TIP3    H142430   4.864   0.934   0.952  0.0737  2.1691 -1.1302
 6957TIP3    H242431   4.779   0.828   0.886  3.0411 -1.2794  0.1584
 6958TIP3   OH242432   5.929   6.341   1.396 -0.0436  0.3541  0.1446
 6958TIP3    H142433   5.908   6.430   1.368  0.9974  0.6945  0.4213
 6958TIP3    H242434   5.914   6.341   1.491 -0.9328 -0.0383  0.0193
 6959TIP3   OH242435   4.223   6.576   1.014  0.5777  0.6447 -0.0491
 6959TIP3    H142436   4.305   6.536   1.042 -0.3030  0.4129  2.4729
 6959TIP3    H242437   4.249   6.660   0.975  2.2039 -0.9494 -2.7141
 6960TIP3   OH242438   0.239   2.308   0.032  0.1381 -0.4029 -0.1482
 6960TIP3    H142439   0.196   2.370  -0.027 -1.3634  1.0248  2.2396
 6960TIP3    H242440   0.211   2.222   0.002 -0.3035  0.2399 -1.6837
 6961TIP3   OH242441   3.329   5.059   8.038  0.2924  0.2903  0.1208
 6961TIP3    H142442   3.385   5.057   8.116  0.1294  1.6212  0.2923
 6961TIP3    H242443   3.240   5.062   8.073  0.0593 -1.9323 -0.1510
 6962TIP3   OH242444   4.022   3.159   6.497  0.2824  0.1420  0.4538
 6962TIP3    H142445   3.957   3.111   6.446 -0.5683 -0.3942  1.9721
 6962TIP3    H242446   4.006   3.251   6.475 -0.5971 -0.0237  0.3494
 6963TIP3   OH242447   1.235   5.038   1.512  0.2847 -0.2005  0.7411
 6963TIP3    H142448   1.166   5.035   1.446  1.8215 -0.6494 -0.9418
 6963TIP3    H242449   1.201   4.986   1.585 -1.0611 -0.6050 -0.1447
 6964TIP3   OH242450   1.797   4.440   0.962 -0.3019 -0.4768  0.1002
 6964TIP3    H142451   1.807   4.412   1.053 -3.0292 -1.2085  0.2656
 6964TIP3    H242452   1.808   4.535   0.964  0.5925 -0.5855  1.0084
 6965TIP3   OH242453   4.368   2.810   0.605  0.0298 -0.4606  0.4210
 6965TIP3    H142454   4.461   2.793   0.592 -0.1548 -0.8576 -0.4893
 6965TIP3    H242455   4.333   2.818   0.517 -0.5502  1.1725  0.7766
 6966TIP3   OH242456   2.390   6.689   1.978  0.0920  0.7345 -0.3346
 6966TIP3    H142457   2.458   6.720   1.918  0.1222  0.9715 -0.1794
 6966TIP3    H242458   2.417   6.721   2.064  0.4856 -0.3071 -0.0552
 6967TIP3   OH242459   0.976   4.621   7.980  0.3834 -0.3549  0.0580
 6967TIP3    H142460   0.976   4.579   7.894 -1.8908 -0.9721  0.2827
 6967TIP3    H242461   0.968   4.549   8.042 -0.6461  0.2033  0.6079
 6968TIP3   OH242462   2.557   3.085   2.069 -0.3791 -0.5971 -0.2234
 6968TIP3    H142463   2.560   2.991   2.051  1.6517 -0.7098  0.5003
 6968TIP3    H242464   2.641   3.118   2.038 -0.4966  0.7257  0.7986
 6969TIP3   OH242465   2.756   6.428   0.455 -0.7611  0.9930  0.3836
 6969TIP3    H142466   2.729   6.402   0.544 -0.2635 -1.3699 -0.0697
 6969TIP3    H242467   2.806   6.353   0.424 -1.0309  1.7277 -1.9586
 6970TIP3   OH242468   0.415   2.098   1.715  0.2048 -0.9490  0.3980
 6970TIP3    H142469   0.428   2.045   1.794  2.7531  0.3710  0.9810
 6970TIP3    H242470   0.447   2.043   1.643 -0.1805 -1.3771  0.5491
 6971TIP3   OH242471   4.700   0.845   6.816  0.7333 -0.3505 -0.3599
 6971TIP3    H142472   4.652   0.927   6.825 -0.4687 -1.1206  0.3923
 6971TIP3    H242473   4.759   0.861   6.742  0.4994  1.1694 -0.2569
 6972TIP3   OH242474   3.421   2.330   7.280  0.0487  0.5054  0.2001
 6972TIP3    H142475   3.393   2.244   7.250 -1.6854  0.9952  0.3110
 6972TIP3    H242476   3.437   2.318   7.374  1.9854 -0.1814 -0.1785
 6973TIP3   OH242477   1.028   2.009   6.167  0.1190 -0.0069  0.5028
 6973TIP3    H142478   0.933   2.003   6.156  0.1251 -1.4205  1.0454
 6973TIP3    H242479   1.040   2.041   6.256  0.1630  1.1550  0.0967
 6974TIP3   OH242480   5.885   5.674   8.586  0.1030 -0.6407  0.8583
 6974TIP3    H142481   5.820   5.709   8.525 -1.4011  0.8998  3.1599
 6974TIP3    H242482   5.936   5.612   8.535 -0.8151  0.8153 -2.0054
 6975TIP3   OH242483   0.896   4.279   7.214  0.0281 -0.2877  0.1555
 6975TIP3    H142484   0.919   4.367   7.185 -1.8907 -0.1015 -0.9358
 6975TIP3    H242485   0.817   4.291   7.266 -1.6224 -1.5474 -1.9053
 6976TIP3   OH242486   1.335   6.872   1.748 -0.1303 -0.2994  0.2419
 6976TIP3    H142487   1.260   6.818   1.772 -0.7194 -0.4229 -1.6978
 6976TIP3    H242488   1.303   6.962   1.750  0.7956  0.0690  3.2658
 6977TIP3   OH242489   4.216   5.210   1.482  0.2102 -0.1960  0.0959
 6977TIP3    H142490   4.190   5.232   1.572  1.0405 -1.9923  0.8173
 6977TIP3    H242491   4.150   5.148   1.452 -0.3216  0.7344 -0.7482
 6978TIP3   OH242492   1.314   1.650   0.076  0.2863 -0.2376 -0.0255
 6978TIP3    H142493   1.310   1.714   0.004  0.0800  0.9774  1.0280
 6978TIP3    H242494   1.261   1.689   0.145  2.7984  0.0297  1.8766
 6979TIP3   OH242495   5.552   3.114   0.423 -0.7743  0.5567  0.4359
 6979TIP3    H142496   5.562   3.192   0.477 -0.6177  0.9726 -0.1815
 6979TIP3    H242497   5.635   3.107   0.375 -0.6010 -0.2634  0.8341
 6980TIP3   OH242498   0.510   5.016   1.502 -0.2685 -0.5617  0.0860
 6980TIP3    H142499   0.514   5.065   1.419 -0.4551  0.1191  0.4665
 6980TIP3    H242500   0.600   5.011   1.531  0.2161 -3.3487 -1.5710
 6981TIP3   OH242501   0.740   2.745   8.586 -0.4490 -0.2133 -0.4320
 6981TIP3    H142502   0.800   2.715   8.655 -2.0378  1.0127  1.6091
 6981TIP3    H242503   0.793   2.803   8.532  0.9911 -1.6440 -0.6474
 6982TIP3   OH242504   1.621   6.051   7.298 -0.0031 -0.9188  0.0828
 6982TIP3    H142505   1.667   6.129   7.268  0.1821 -1.3394 -0.7660
 6982TIP3    H242506   1.528   6.071   7.285 -0.2523  0.4916  3.1341
 6983TIP3   OH242507   5.692   6.080   8.500  0.2351  0.9159  0.2483
 6983TIP3    H142508   5.685   6.175   8.512 -1.8689  0.8800 -0.4560
 6983TIP3    H242509   5.687   6.045   8.589 -1.5249  1.3513  0.3460
 6984TIP3   OH242510   6.349   5.059   8.423 -0.1415  0.3153 -0.6323
 6984TIP3    H142511   6.322   5.110   8.500  1.0441 -0.7759  0.5557
 6984TIP3    H242512   6.389   4.980   8.459 -1.8196 -1.4646 -2.4219
 6985TIP3   OH242513   6.109   1.189   6.160  0.3118  0.2020 -0.1908
 6985TIP3    H142514   6.193   1.181   6.116  0.5830 -2.7645  0.6291
 6985TIP3    H242515   6.131   1.208   6.251  0.0128  0.9392 -0.2700
 6986TIP3   OH242516   1.536   6.312   1.539  0.0511  0.1218  0.1104
 6986TIP3    H142517   1.548   6.292   1.446 -0.2045 -0.3345  0.1719
 6986TIP3    H242518   1.541   6.227   1.582 -0.2751  0.2815  0.4674
 6987TIP3   OH242519   0.743   6.316   1.463 -0.0894  0.3216  0.1987
 6987TIP3    H142520   0.667   6.305   1.521 -1.6167  1.6111 -1.4593
 6987TIP3    H242521   0.727   6.255   1.391 -0.5593  1.9050 -1.0949
 6988TIP3   OH242522   0.250   4.080   2.322 -0.8125 -0.2932 -0.4124
 6988TIP3    H142523   0.235   4.084   2.417  0.8226 -1.1594 -0.0893
 6988TIP3    H242524   0.217   3.995   2.295  0.5577 -0.9109 -0.2324
 6989TIP3   OH242525   0.156   3.130   8.254  0.0694  0.5549  0.3247
 6989TIP3    H142526   0.107   3.185   8.193 -1.0016 -0.1376  0.5271
 6989TIP3    H242527   0.092   3.108   8.322  1.1661  1.1260  1.5861
 6990TIP3   OH242528   6.322   0.765   1.228 -0.3263  0.5105 -0.1584
 6990TIP3    H142529   6.400   0.727   1.269 -0.9179  0.5615  1.0622
 6990TIP3    H242530   6.322   0.856   1.255 -0.3915  0.7117 -0.8136
 6991TIP3   OH242531   3.103   5.618   1.727  0.0980  0.1392  0.2759
 6991TIP3    H142532   3.050   5.669   1.788 -1.8400  0.3535 -1.4665
 6991TIP3    H242533   3.148   5.683   1.673  0.0865 -0.0082  0.0865
 6992TIP3   OH242534   2.232   3.633   7.979  0.3362 -0.3853 -0.1461
 6992TIP3    H142535   2.152   3.664   7.937 -1.9426 -3.3247  1.5748
 6992TIP3    H242536   2.303   3.664   7.922 -2.1616  0.1019 -3.3023
 6993TIP3   OH242537   4.370   4.745   1.863  1.3291  0.1343 -0.4213
 6993TIP3    H142538   4.413   4.759   1.947  0.0734  0.6412  0.1649
 6993TIP3    H242539   4.330   4.829   1.842  0.8614 -0.2434 -1.0867
 6994TIP3   OH242540   2.681   6.876   1.022  0.4347  0.2128 -0.1930
 6994TIP3    H142541   2.709   6.889   1.113 -1.5356 -0.2836  0.5438
 6994TIP3    H242542   2.745   6.924   0.970  0.7913  1.7662  1.5596
 6995TIP3   OH242543   4.827   3.741   1.603 -0.2935  0.2204 -0.3839
 6995TIP3    H142544   4.911   3.696   1.590  1.0602  1.8990  1.7735
 6995TIP3    H242545   4.788   3.697   1.679 -0.7541  0.2852 -0.5816
 6996TIP3   OH242546   0.914   2.661   0.671  0.4105 -0.2211 -0.3212
 6996TIP3    H142547   0.959   2.708   0.600 -0.6331  1.7389  0.2301
 6996TIP3    H242548   0.941   2.707   0.750 -0.6775 -0.5428  0.2531
 6997TIP3   OH242549   0.082   3.385   1.414  0.2115  0.0978  0.0699
 6997TIP3    H142550   0.118   3.301   1.442  0.6844  0.3042  0.0942
 6997TIP3    H242551   0.094   3.385   1.319 -0.6553 -0.2601 -0.0501
 6998TIP3   OH242552   4.251   5.632   0.818 -0.1368  0.0265 -0.1980
 6998TIP3    H142553   4.268   5.669   0.904  3.0187 -0.6511 -0.4201
 6998TIP3    H242554   4.211   5.546   0.837  0.3529 -0.0386  0.5756
 6999TIP3   OH242555   2.267   4.989   7.036  0.1906  0.0847 -0.4128
 6999TIP3    H142556   2.331   4.936   7.082 -1.3806 -2.2728 -0.7381
 6999TIP3    H242557   2.206   5.018   7.105  1.0153  1.4965 -0.2436
 7000TIP3   OH242558   2.567   5.483   8.616 -0.3202  0.2372  0.1616
 7000TIP3    H142559   2.533   5.475   8.705  1.0309  0.7905  0.7551
 7000TIP3    H242560   2.497   5.527   8.567 -0.5693  1.1183  1.2707
 7001TIP3   OH242561   5.056   4.052   6.640  0.1509  0.0739  0.2632
 7001TIP3    H142562   5.130   4.022   6.693  0.1953  0.9379  0.7075
 7001TIP3    H242563   4.979   4.020   6.686  0.1980  0.6271  0.7443
 7002TIP3   OH242564   3.042   5.945   0.277  0.0103  0.0274 -0.2695
 7002TIP3    H142565   2.973   5.974   0.219 -1.0184 -0.0628  0.8702
 7002TIP3    H242566   2.997   5.899   0.348  0.8373  2.6277  2.1814
 7003TIP3   OH242567   0.658   0.508   7.647  0.3484  0.0165  0.3078
 7003TIP3    H142568   0.695   0.420   7.638  1.2181  0.2917  1.0076
 7003TIP3    H242569   0.698   0.542   7.727 -1.2697  0.4292  0.9703
 7004TIP3   OH242570   5.091   2.193   0.788 -0.5733  0.1925  0.1312
 7004TIP3    H142571   5.041   2.129   0.737  1.3174 -0.7742 -0.6133
 7004TIP3    H242572   5.125   2.254   0.723 -1.5580  1.4476  0.7418
 7005TIP3   OH242573   4.541   4.797   8.517  0.0261 -0.4096 -0.1980
 7005TIP3    H142574   4.580   4.865   8.573 -0.7149 -0.6331  0.6164
 7005TIP3    H242575   4.512   4.730   8.579  3.0056 -2.7191 -1.0874
 7006TIP3   OH242576   4.867   5.184   1.805  0.2574 -0.3373 -0.3935
 7006TIP3    H142577   4.789   5.192   1.750  0.6111  0.2426 -0.8154
 7006TIP3    H242578   4.904   5.099   1.783  1.0598  0.3827 -1.9411
 7007TIP3   OH242579   2.048   3.704   7.797  0.2709  0.1323  0.1539
 7007TIP3    H142580   1.975   3.682   7.854  0.8975 -0.9501  0.5666
 7007TIP3    H242581   2.016   3.684   7.709  0.3975 -1.2707  0.4182
 7008TIP3   OH242582   5.435   6.478   7.048 -0.5022  0.1940 -0.4430
 7008TIP3    H142583   5.468   6.446   6.965 -1.5503  1.1902 -1.2747
 7008TIP3    H242584   5.343   6.453   7.049 -0.7672  1.1475 -0.0860
 7009TIP3   OH242585   1.152   6.656   7.061  0.0235 -0.2024  0.4508
 7009TIP3    H142586   1.211   6.679   6.990 -0.5124 -1.1724 -0.3306
 7009TIP3    H242587   1.201   6.591   7.112  0.8554  1.3080  1.6621
 7010TIP3   OH242588   1.239   4.063   8.159  0.4320  0.2030  0.9785
 7010TIP3    H142589   1.232   4.046   8.065  1.3148 -1.3993  1.1790
 7010TIP3    H242590   1.155   4.034   8.195  0.3675  0.1340  0.7716
 7011TIP3   OH242591   3.175   1.732   1.598 -0.0227 -0.0927  0.3184
 7011TIP3    H142592   3.180   1.642   1.566 -0.5181 -0.3867  1.0550
 7011TIP3    H242593   3.127   1.726   1.680 -1.3478  1.0332 -0.3329
 7012TIP3   OH242594   5.893   3.748   8.152 -0.2867  0.0929  0.5226
 7012TIP3    H142595   5.806   3.744   8.114 -0.2974  0.9560  0.4319
 7012TIP3    H242596   5.938   3.816   8.101  0.2711  0.0181  0.9051
 7013TIP3   OH242597   5.707   5.981   7.332 -0.1950 -0.5990  0.2904
 7013TIP3    H142598   5.767   6.045   7.369  0.1308 -0.5080 -0.3839
 7013TIP3    H242599   5.659   5.947   7.408  0.8415 -0.8205  0.8698
 7014TIP3   OH242600   1.256   0.293   7.926 -1.0882  1.1866  0.3461
 7014TIP3    H142601   1.337   0.332   7.895 -1.2019 -0.1768 -1.8323
 7014TIP3    H242602   1.256   0.310   8.021  0.3366  3.6384 -0.0114
 7015TIP3   OH242603   6.767   4.263   1.598 -0.4805  0.2275 -0.0992
 7015TIP3    H142604   6.754   4.355   1.622  0.1013  0.4351 -0.5619
 7015TIP3    H242605   6.773   4.217   1.682 -1.8636  0.4376  0.1502
 7016TIP3   OH242606   3.618   5.834   8.211 -0.1366 -0.2070 -0.1882
 7016TIP3    H142607   3.545   5.773   8.220 -0.6654  0.2285 -1.2671
 7016TIP3    H242608   3.632   5.869   8.299 -1.0885 -0.4621  0.0719
 7017TIP3   OH242609   1.591   0.784   1.226  0.7986 -0.0272  0.6075
 7017TIP3    H142610   1.608   0.698   1.264  1.9707 -0.0971 -0.0204
 7017TIP3    H242611   1.518   0.770   1.165  1.3268 -0.7050  0.1142
 7018TIP3   OH242612   0.631   6.251   6.795  0.2420  0.2749 -0.2561
 7018TIP3    H142613   0.538   6.257   6.817  0.0071 -0.8820 -0.8197
 7018TIP3    H242614   0.645   6.319   6.730 -1.2087 -2.0241 -3.2216
 7019TIP3   OH242615   4.466   1.739   6.402  0.9333  0.0218  0.6238
 7019TIP3    H142616   4.478   1.686   6.323 -1.1727  1.1330 -0.5323
 7019TIP3    H242617   4.543   1.797   6.404  0.9276  0.1137 -0.7386
 7020TIP3   OH242618   5.519   1.646   6.338  0.3329  0.4403 -0.1284
 7020TIP3    H142619   5.455   1.630   6.269 -0.9363 -0.2367  1.1620
 7020TIP3    H242620   5.602   1.616   6.300 -0.1425  0.9922 -1.6937
 7021TIP3   OH242621   6.883   1.513   0.646 -0.1833  0.0246 -0.4890
 7021TIP3    H142622   6.874   1.452   0.573 -0.2650 -0.3930 -0.1370
 7021TIP3    H242623   6.824   1.585   0.625 -0.3237 -0.1659 -0.7599
 7022TIP3   OH242624   5.955   0.628   7.446  0.2082 -0.0354  0.2500
 7022TIP3    H142625   6.026   0.608   7.507  1.1513 -2.2735 -1.4337
 7022TIP3    H242626   5.998   0.664   7.369 -0.4894 -0.8950 -0.5805
 7023TIP3   OH242627   5.782   3.630   1.458  0.0168  0.0028 -0.4258
 7023TIP3    H142628   5.837   3.640   1.380 -1.4730  1.5530 -1.3217
 7023TIP3    H242629   5.693   3.642   1.427 -0.7097 -0.4508  1.3574
 7024TIP3   OH242630   0.066   3.082   0.308  0.2231  0.2183  0.2437
 7024TIP3    H142631   0.136   3.088   0.373 -0.3599  3.0774  0.7459
 7024TIP3    H242632   0.110   3.097   0.224  0.4863  0.0913  0.3571
 7025TIP3   OH242633   3.316   6.011   0.833 -0.1735  0.0425 -0.5103
 7025TIP3    H142634   3.379   6.026   0.763 -0.9194 -1.2068 -1.4948
 7025TIP3    H242635   3.259   6.087   0.832  1.3656  1.2779  0.5069
 7026TIP3   OH242636   3.194   6.842   6.836 -0.4507  0.2005 -0.6252
 7026TIP3    H142637   3.174   6.860   6.928  3.0148  1.1119  0.1139
 7026TIP3    H242638   3.269   6.782   6.839  0.9560  1.6891 -2.7443
 7027TIP3   OH242639   0.720   6.306   0.728 -0.3402  0.2556  1.0073
 7027TIP3    H142640   0.675   6.242   0.674  2.0890 -0.3953 -0.4422
 7027TIP3    H242641   0.660   6.381   0.731 -1.5380 -0.5469 -0.7336
 7028TIP3   OH242642   5.257   1.094   1.248 -0.1393 -1.0618 -0.1202
 7028TIP3    H142643   5.162   1.092   1.234  0.0791 -0.1865 -2.0384
 7028TIP3    H242644   5.269   1.159   1.318 -0.9234 -0.7142 -0.2982
 7029TIP3   OH242645   6.416   4.218   1.855  0.7250 -0.2543  0.0346
 7029TIP3    H142646   6.473   4.260   1.919  0.2264  0.5755 -0.0544
 7029TIP3    H242647   6.330   4.255   1.871  0.4935 -0.4264 -0.7681
 7030TIP3   OH242648   5.413   3.630   0.017  0.5837 -0.8091  0.5473
 7030TIP3    H142649   5.321   3.603   0.016  0.1529  0.6034  0.1181
 7030TIP3    H242650   5.411   3.720   0.049  1.6523 -0.2192 -0.9273
 7031TIP3   OH242651   1.407   0.382   7.327  0.5927  0.4711  0.3358
 7031TIP3    H142652   1.323   0.421   7.350  0.7046  0.7956  0.2012
 7031TIP3    H242653   1.448   0.362   7.411  0.2568  0.0359  0.4011
 7032TIP3   OH242654   3.870   1.243   6.857 -0.3123 -0.4541  0.0855
 7032TIP3    H142655   3.929   1.192   6.914  0.4101  2.2918  1.9796
 7032TIP3    H242656   3.928   1.281   6.791 -0.3149  0.3310  0.5218
 7033TIP3   OH242657   4.420   2.221   2.012 -0.3435  0.2201  0.6627
 7033TIP3    H142658   4.501   2.267   1.989 -0.7933  1.2342  1.0578
 7033TIP3    H242659   4.365   2.288   2.052 -0.9234 -0.7296  1.4975
 7034TIP3   OH242660   4.379   6.724   6.502 -0.4371 -0.0002  0.8796
 7034TIP3    H142661   4.467   6.710   6.468  0.0111 -0.4097  2.1579
 7034TIP3    H242662   4.330   6.647   6.474  0.3258 -1.0800  2.3760
 7035TIP3   OH242663   2.960   5.128   7.147  0.0582  0.2592  0.5832
 7035TIP3    H142664   2.950   5.213   7.191 -0.7234  0.3917  0.1688
 7035TIP3    H242665   2.870   5.098   7.133  0.3227 -0.3852  0.2403
 7036TIP3   OH242666   4.626   4.676   1.112 -0.1425 -0.0680 -0.1983
 7036TIP3    H142667   4.707   4.655   1.159  0.2490 -1.1944 -1.3234
 7036TIP3    H242668   4.604   4.764   1.142  0.1658 -0.6629  1.9492
 7037TIP3   OH242669   5.866   0.115   7.664 -0.3487 -0.2766 -0.2367
 7037TIP3    H142670   5.862   0.177   7.591  0.6034 -1.5256 -1.3772
 7037TIP3    H242671   5.854   0.170   7.742  1.3880  1.4922 -1.1406
 7038TIP3   OH242672   3.773   6.292   7.178  0.3738 -0.2954  0.6087
 7038TIP3    H142673   3.817   6.219   7.135  0.1180 -0.7495  1.1035
 7038TIP3    H242674   3.755   6.261   7.267  0.6283  0.5186  0.9600
 7039TIP3   OH242675   2.233   3.026   7.504  0.2328  0.1560  0.0213
 7039TIP3    H142676   2.258   3.104   7.552 -1.6676  1.1242 -0.4729
 7039TIP3    H242677   2.155   2.993   7.549 -1.5878  1.0708 -2.2519
 7040TIP3   OH242678   1.573   1.467   8.344 -0.7135  0.1672  0.3292
 7040TIP3    H142679   1.598   1.556   8.368 -0.0703  0.0081  0.2825
 7040TIP3    H242680   1.519   1.477   8.265  1.2485  0.4075 -1.0782
 7041TIP3   OH242681   6.190   1.335   7.939  0.6224  0.0048  0.2862
 7041TIP3    H142682   6.182   1.430   7.927 -0.1303 -0.1647 -0.7387
 7041TIP3    H242683   6.100   1.303   7.932  0.6591 -0.6333  2.3022
 7042TIP3   OH242684   2.570   4.807   7.716  0.1593 -0.6801 -0.3193
 7042TIP3    H142685   2.555   4.826   7.623 -1.7060 -1.8786 -0.3151
 7042TIP3    H242686   2.541   4.717   7.727  0.4776 -0.6005  1.4245
 7043TIP3   OH242687   5.702   5.389   1.338 -0.4862 -0.1947 -0.4350
 7043TIP3    H142688   5.732   5.445   1.266 -0.7778  0.3693 -0.1292
 7043TIP3    H242689   5.690   5.450   1.411 -2.3541 -0.3950 -0.5309
 7044TIP3   OH242690   2.906   0.295   0.487 -0.6646  0.1256 -0.6728
 7044TIP3    H142691   2.864   0.213   0.516  0.4752  0.3474  1.9041
 7044TIP3    H242692   2.865   0.363   0.541  0.3492  0.8677 -0.8201
 7045TIP3   OH242693   5.129   4.024   7.844 -0.6071  0.2479 -0.4592
 7045TIP3    H142694   5.177   4.024   7.927  0.0910  0.2791 -0.8561
 7045TIP3    H242695   5.185   3.974   7.784  0.1178  2.2907 -1.5905
 7046TIP3   OH242696   4.275   1.992   0.924 -0.1944  0.4594  0.2769
 7046TIP3    H142697   4.328   1.996   0.844 -0.2370 -1.3177  0.1266
 7046TIP3    H242698   4.332   2.030   0.992  0.4685  0.4851 -0.2815
 7047TIP3   OH242699   1.518   0.351   7.583  0.3343 -0.5505 -0.4442
 7047TIP3    H142700   1.504   0.369   7.676 -0.1256  1.2790 -0.8178
 7047TIP3    H242701   1.584   0.415   7.556 -0.6592  0.0098 -1.6977
 7048TIP3   OH242702   3.093   0.752   0.033  0.6182  0.0703  0.4089
 7048TIP3    H142703   3.188   0.760   0.026  0.6817  0.0431  1.1103
 7048TIP3    H242704   3.065   0.834   0.074  0.0722  1.0263 -1.7217
 7049TIP3   OH242705   0.355   6.542   1.642 -0.1371 -0.9059  0.9370
 7049TIP3    H142706   0.284   6.492   1.682 -1.0303 -0.4929 -0.0844
 7049TIP3    H242707   0.337   6.539   1.548  1.8435 -1.7562  0.5302
 7050TIP3   OH242708   1.279   5.366   0.040 -0.4581 -0.1401 -0.1955
 7050TIP3    H142709   1.325   5.448   0.022 -0.0588 -0.2861  0.1554
 7050TIP3    H242710   1.239   5.378   0.126 -0.3701 -0.3252 -0.1275
 7051TIP3   OH242711   5.339   0.418   8.210 -0.0040 -0.1670  0.4555
 7051TIP3    H142712   5.333   0.436   8.304 -0.3258  0.1169  0.3815
 7051TIP3    H242713   5.296   0.493   8.169 -0.4390 -0.6087  0.1015
 7052TIP3   OH242714   6.408   2.228   8.447  0.5459 -0.0908 -0.0394
 7052TIP3    H142715   6.352   2.302   8.473 -0.4117 -0.6177 -0.5542
 7052TIP3    H242716   6.437   2.249   8.359 -0.1418 -0.5578 -0.3828
 7053TIP3   OH242717   4.509   1.112   6.817 -0.4522  0.1961 -0.2477
 7053TIP3    H142718   4.566   1.189   6.827 -1.9725  1.2703  0.5326
 7053TIP3    H242719   4.512   1.092   6.723  0.3735  0.8796 -0.3830
 7054TIP3   OH242720   2.906   3.378   7.498 -0.1212 -0.0190 -0.4939
 7054TIP3    H142721   2.858   3.413   7.424 -1.1683  0.0243  0.1859
 7054TIP3    H242722   2.853   3.304   7.529 -0.1514  0.4915  0.7352
 7055TIP3   OH242723   1.566   4.692   0.247 -0.4020 -0.2956 -0.3160
 7055TIP3    H142724   1.573   4.626   0.316 -0.4011 -1.7534 -1.6359
 7055TIP3    H242725   1.634   4.756   0.267 -0.4021 -0.6910  1.0146
 7056TIP3   OH242726   2.678   4.401   0.105  0.3889  0.5068  0.5224
 7056TIP3    H142727   2.754   4.401   0.046  1.7219 -0.5386  2.1605
 7056TIP3    H242728   2.679   4.315   0.146 -1.3803  0.6811  1.0014
 7057TIP3   OH242729   6.682   3.300   8.085  0.2903 -0.4336  0.9950
 7057TIP3    H142730   6.630   3.370   8.124 -0.6237 -0.7263  0.3316
 7057TIP3    H242731   6.618   3.236   8.054  1.0182 -0.5973 -0.2468
 7058TIP3   OH242732   0.974   1.020   0.127  0.0323 -0.0196  0.6424
 7058TIP3    H142733   0.931   1.015   0.042 -1.2270 -0.5452  1.2890
 7058TIP3    H242734   1.050   1.076   0.112 -0.6538  0.6047 -0.6301
 7059TIP3   OH242735   5.162   3.384   0.430 -0.0292 -0.2034 -0.2458
 7059TIP3    H142736   5.157   3.291   0.451  1.8111 -0.5010 -0.9637
 7059TIP3    H242737   5.232   3.418   0.486 -0.8687  0.8342  0.2130
 7060TIP3   OH242738   6.367   5.064   1.749 -0.2380  0.9638  0.3309
 7060TIP3    H142739   6.402   5.143   1.708  0.1115  0.4940 -0.2918
 7060TIP3    H242740   6.329   5.094   1.831  0.4548  1.6798  0.3933
 7061TIP3   OH242741   2.605   4.415   1.345 -0.0391  0.1819  0.4926
 7061TIP3    H142742   2.578   4.330   1.309 -0.8430  0.2935  0.8054
 7061TIP3    H242743   2.642   4.461   1.270 -0.2493 -0.1814  0.1582
 7062TIP3   OH242744   1.961   4.646   8.323  0.0869  0.3024 -0.0728
 7062TIP3    H142745   1.906   4.583   8.368  1.2913  0.7208  2.1182
 7062TIP3    H242746   1.903   4.721   8.305 -0.4890 -0.0001  0.5151
 7063TIP3   OH242747   5.903   3.931   7.461  0.2537 -0.6445 -0.2661
 7063TIP3    H142748   5.894   3.839   7.436 -0.0395 -1.1339  1.5106
 7063TIP3    H242749   5.993   3.954   7.437  0.3186 -1.3807 -0.7403
 7064TIP3   OH242750   3.183   6.183   0.006  0.3074  0.7274 -0.2599
 7064TIP3    H142751   3.162   6.276   0.008 -0.0090  0.6552 -0.1836
 7064TIP3    H242752   3.277   6.179   0.023  0.1269  0.9648  0.9263
 7065TIP3   OH242753   3.709   3.147   1.594 -0.7443  0.1630 -0.0363
 7065TIP3    H142754   3.797   3.118   1.572 -1.2563 -2.8475  1.4283
 7065TIP3    H242755   3.664   3.157   1.510  0.6992  0.9245 -0.7482
 7066TIP3   OH242756   2.406   2.610   6.776 -0.0785  0.3353 -0.5082
 7066TIP3    H142757   2.372   2.671   6.711 -1.0950  1.1791  0.7589
 7066TIP3    H242758   2.393   2.654   6.860  0.9496 -0.8260  0.3044
 7067TIP3   OH242759   3.978   2.246   7.754  0.3317  0.8001 -0.0110
 7067TIP3    H142760   3.959   2.310   7.823 -0.9250  0.1360  0.2922
 7067TIP3    H242761   4.043   2.188   7.793 -0.1605  0.5976  0.5327
 7068TIP3   OH242762   2.076   2.039   6.285 -0.4543 -0.4185 -0.1912
 7068TIP3    H142763   2.037   2.099   6.348 -0.2343 -0.7830  0.3024
 7068TIP3    H242764   2.102   1.963   6.337 -0.3811 -0.7781 -0.7421
 7069TIP3   OH242765   1.923   2.302   7.358  0.1148  0.0714  0.3569
 7069TIP3    H142766   1.979   2.353   7.298  0.0767  0.6488  0.8044
 7069TIP3    H242767   1.878   2.239   7.301  1.0788 -0.2752 -0.0322
 7070TIP3   OH242768   5.809   0.764   7.919  0.1903 -0.5415  0.3086
 7070TIP3    H142769   5.801   0.849   7.875  2.4370 -0.9103 -0.9642
 7070TIP3    H242770   5.823   0.787   8.011  1.3837  0.5599 -0.0997
 7071TIP3   OH242771   3.785   6.163   8.303  0.7557  0.5526  0.3526
 7071TIP3    H142772   3.744   6.122   8.380  2.1612  0.7747  1.2621
 7071TIP3    H242773   3.766   6.103   8.231  0.0677 -0.0725  1.0345
 7072LIG      O42774   1.724   5.583   3.751 -0.0308  0.3814 -0.7309
 7072LIG     C142775   1.663   5.656   3.858 -0.1514 -0.3436 -0.5599
 7072LIG     C242776   1.631   5.554   3.962 -0.5042 -0.1569  0.4376
 7072LIG     C342777   1.763   5.762   3.903  0.0529  0.2200  0.2740
 7072LIG     H142778   1.569   5.707   3.830 -0.3270 -1.2575 -1.7496
 7072LIG     H242779   1.579   5.603   4.047 -1.4991 -1.4908  0.6379
 7072LIG     H342780   1.722   5.511   4.010  0.2577  2.4395  1.5244
 7072LIG     H442781   1.562   5.474   3.926  0.1646  0.3988 -2.2485
 7072LIG     H542782   1.861   5.718   3.932  0.9504  1.1906 -1.1199
 7072LIG     H642783   1.720   5.824   3.984  0.8384  0.0620  0.8214
 7072LIG     H742784   1.777   5.834   3.820 -0.6315 -0.6753 -0.6488
 7072LIG     H842785   1.792   5.530   3.792  1.4536  3.1421  0.6555
   6.88857   6.88857   8.65168
