Title
42785
    1SAPS     N    1   4.319   5.509   6.946  0.6507 -0.4493 -0.1339
    1SAPS   HN1    2   4.337   5.467   6.853 -0.5281 -0.5934 -0.3142
    1SAPS   HN2    3   4.227   5.557   6.942  1.4757  1.2628  0.5846
    1SAPS   HN3    4   4.395   5.574   6.972 -0.7972  0.8491  1.0374
    1SAPS   C12    5   4.315   5.392   7.045  0.5097  0.2264  0.2589
    1SAPS  H12A    6   4.420   5.372   7.062  0.2417 -1.0263  0.5572
    1SAPS   C13    7   4.248   5.443   7.180 -0.4384 -0.0133 -0.7727
    1SAPS  O13A    8   4.226   5.562   7.196  0.0958 -0.2115 -0.4298
    1SAPS  O13B    9   4.261   5.363   7.277  0.4240  0.4644 -0.2211
    1SAPS   C11   10   4.241   5.266   6.990  0.3996  0.0005 -0.0947
    1SAPS  H11A   11   4.132   5.285   7.003  0.7605  0.0917  4.3827
    1SAPS  H11B   12   4.272   5.182   7.056 -0.7324 -0.3307  0.0368
    1SAPS     P   13   4.192   5.143   6.766 -0.3262  0.3621  0.0993
    1SAPS   O13   14   4.072   5.102   6.847  0.2506  0.4422  0.3194
    1SAPS   O14   15   4.165   5.206   6.638 -0.2493 -0.4864  0.5196
    1SAPS   O12   16   4.275   5.238   6.859  0.6246 -1.0398 -0.0145
    1SAPS   O11   17   4.286   5.015   6.735 -0.5986 -0.5272 -0.3034
    1SAPS    C1   18   4.413   5.017   6.675  0.1865 -0.0513  0.1557
    1SAPS    HA   19   4.453   5.119   6.659 -1.1218  0.6121  0.8831
    1SAPS    HB   20   4.471   4.963   6.752  2.6186  1.6745 -0.3559
    1SAPS    C2   21   4.402   4.946   6.538 -0.5787  0.0436  0.6233
    1SAPS    HS   22   4.336   4.857   6.539 -0.1197 -0.4518 -2.5343
    1SAPS   O21   23   4.530   4.889   6.484 -0.1313  0.5612 -0.3223
    1SAPS   C21   24   4.579   4.786   6.559 -0.8714 -0.2091  0.6453
    1SAPS   O22   25   4.517   4.720   6.644  0.0066 -0.6669 -0.0423
    1SAPS   C22   26   4.719   4.774   6.499  0.6202  0.5858 -0.2936
    1SAPS   H2R   27   4.746   4.864   6.439 -0.2097  1.6312  0.8360
    1SAPS   H2S   28   4.788   4.778   6.586  0.8234 -0.6148 -0.3940
    1SAPS    C3   29   4.340   5.043   6.425  1.1995 -0.3953  0.1999
    1SAPS    HX   30   4.405   5.133   6.432 -1.1217  1.5539 -1.6752
    1SAPS    HY   31   4.237   5.073   6.452  0.2502 -1.6669 -1.7904
    1SAPS   O31   32   4.348   5.005   6.286 -0.1678 -0.4092  0.3662
    1SAPS   C31   33   4.328   4.882   6.248  0.4282 -0.6140  0.2504
    1SAPS   O32   34   4.262   4.799   6.309  0.0057 -0.2918 -0.1665
    1SAPS   C32   35   4.410   4.862   6.120  0.2873 -0.1730 -0.1923
    1SAPS   H2X   36   4.518   4.870   6.148  0.6593  0.0104 -1.6216
    1SAPS   H2Y   37   4.392   4.940   6.043  0.4305 -0.7856 -0.8579
    1SAPS   C23   38   4.724   4.635   6.431 -0.7780  1.1270 -0.5038
    1SAPS   H3R   39   4.693   4.552   6.498  2.6117  0.1956  0.1019
    1SAPS   H3S   40   4.834   4.617   6.423 -0.7189  1.6980 -1.0321
    1SAPS   C24   41   4.672   4.612   6.288 -0.5906 -0.4428 -0.4150
    1SAPS   H4R   42   4.742   4.670   6.224  0.3379 -0.5568  0.4817
    1SAPS   H4S   43   4.572   4.659   6.279  0.3095  2.0681  1.6539
    1SAPS   C25   44   4.642   4.470   6.249  0.1644  0.3289  0.3952
    1SAPS   H5R   45   4.577   4.411   6.316 -0.2647 -1.8505 -1.7655
    1SAPS   C26   46   4.691   4.401   6.144 -0.7970  0.2789  0.1275
    1SAPS   H6R   47   4.666   4.295   6.133  1.7787 -0.2823 -0.9065
    1SAPS   C27   48   4.781   4.441   6.030  0.1900 -0.3838  0.1204
    1SAPS   H7R   49   4.842   4.353   6.004 -1.7377 -1.4839 -0.9505
    1SAPS   H7S   50   4.846   4.519   6.075 -3.4047  2.3881  1.0959
    1SAPS   C28   51   4.708   4.516   5.923  0.3319 -0.2727 -0.8628
    1SAPS   H8R   52   4.625   4.576   5.965 -0.1190 -1.4295 -0.0604
    1SAPS   C29   53   4.734   4.524   5.793 -0.5676 -0.0504  0.3543
    1SAPS   H9R   54   4.672   4.579   5.720  0.2675 -1.0932 -1.1841
    1SAPS  C210   55   4.853   4.452   5.726 -0.4472 -0.7948  0.3631
    1SAPS  H10R   56   4.828   4.344   5.716 -0.7971 -0.8509  1.6748
    1SAPS  H10S   57   4.940   4.459   5.795 -2.5111 -3.6457  3.6404
    1SAPS  C211   58   4.881   4.519   5.595  0.0803  0.4751  0.2427
    1SAPS  H11R   59   4.879   4.629   5.597  2.6917  0.5724  1.4851
    1SAPS  C212   60   4.926   4.462   5.486  0.0900 -0.3476 -0.9999
    1SAPS  H12R   61   4.951   4.510   5.390  0.3978 -0.1827 -0.8394
    1SAPS  C213   62   4.952   4.316   5.473  0.3170  0.5049 -0.1014
    1SAPS  H13R   63   4.998   4.273   5.564 -4.0149 -1.7610  1.3304
    1SAPS  H13S   64   5.032   4.314   5.396  1.3457 -1.3255  0.9484
    1SAPS  C214   65   4.835   4.230   5.439  0.2829 -0.6328  0.2493
    1SAPS  H14R   66   4.779   4.190   5.525  2.7035  0.6742  2.6024
    1SAPS  C215   67   4.799   4.185   5.314  0.7989  0.1873  0.8518
    1SAPS  H15R   68   4.706   4.126   5.311  1.0319 -0.1467 -0.1945
    1SAPS  C216   69   4.867   4.228   5.182 -0.1078 -0.4675 -0.7123
    1SAPS  H16R   70   4.945   4.304   5.202 -1.5415  0.6281  1.1839
    1SAPS  H16S   71   4.803   4.286   5.111 -0.9074 -0.5683 -0.0917
    1SAPS  C217   72   4.940   4.111   5.119 -0.0356  0.9594  0.1328
    1SAPS  H17R   73   4.862   4.031   5.117  0.1012  0.8354 -0.3333
    1SAPS  H17S   74   5.017   4.071   5.189 -1.5272 -2.2778  0.1192
    1SAPS  C218   75   5.000   4.137   4.978 -0.2027 -0.0622  0.4584
    1SAPS  H18R   76   5.061   4.229   4.969  0.0671 -0.2760  0.0505
    1SAPS  H18S   77   4.918   4.159   4.905  0.7943  1.8015 -0.1705
    1SAPS  C219   78   5.075   4.019   4.917 -0.0844 -0.4532  0.6546
    1SAPS  H19R   79   5.026   3.922   4.937  0.1193 -0.6338  0.2884
    1SAPS  H19S   80   5.174   4.019   4.968  1.6006  2.4813 -2.1935
    1SAPS  C220   81   5.100   4.045   4.769 -0.3372  0.1820 -0.1292
    1SAPS  H20R   82   5.150   3.962   4.714  0.8838  1.4155 -0.9387
    1SAPS  H20S   83   5.146   4.145   4.751 -0.4555  0.0737 -1.1188
    1SAPS  H20T   84   5.008   4.050   4.707  0.2240  1.6052 -0.9035
    1SAPS   C33   85   4.388   4.723   6.063 -0.2798 -0.1260  0.3693
    1SAPS   H3X   86   4.394   4.641   6.138 -0.1802  0.1143  0.6268
    1SAPS   H3Y   87   4.480   4.714   6.003 -0.1897 -0.8040  0.6023
    1SAPS   C34   88   4.275   4.719   5.960  0.2535 -0.2625  0.1805
    1SAPS   H4X   89   4.191   4.784   5.993 -0.3488  0.8984 -3.2102
    1SAPS   H4Y   90   4.234   4.617   5.946 -0.6980  0.1957 -0.5400
    1SAPS   C35   91   4.307   4.787   5.825 -0.6835  0.6293 -0.2770
    1SAPS   H5X   92   4.316   4.898   5.826  2.2388  0.4897 -0.5570
    1SAPS   H5Y   93   4.216   4.756   5.769 -2.2112  0.5645  2.1264
    1SAPS   C36   94   4.429   4.731   5.744 -0.5687  0.6423 -0.1053
    1SAPS   H6X   95   4.417   4.621   5.755 -0.3990  0.6134 -0.2146
    1SAPS   H6Y   96   4.527   4.775   5.771 -0.3926  0.3013 -0.1837
    1SAPS   C37   97   4.403   4.747   5.589  0.3027  0.1426 -0.3086
    1SAPS   H7X   98   4.352   4.845   5.577 -0.9688 -0.5963 -1.2524
    1SAPS   H7Y   99   4.325   4.675   5.555 -0.4790  0.6593  0.3442
    1SAPS   C38  100   4.532   4.729   5.514 -0.2756  0.6690  0.9550
    1SAPS   H8X  101   4.583   4.635   5.545 -0.5008  0.0587 -0.4625
    1SAPS   H8Y  102   4.604   4.806   5.550  1.5690 -0.6667  0.2423
    1SAPS   C39  103   4.516   4.755   5.365 -0.3028  0.2802 -0.4240
    1SAPS   H9X  104   4.491   4.863   5.353 -2.1497 -0.2301 -1.4543
    1SAPS   H9Y  105   4.433   4.699   5.317 -0.2279 -1.4018  1.3245
    1SAPS  C310  106   4.644   4.734   5.284 -0.2488  0.0062  0.8051
    1SAPS  H10X  107   4.665   4.626   5.275 -1.3221 -0.0634 -1.7230
    1SAPS  H10Y  108   4.732   4.791   5.321  0.1429  0.1155 -0.2701
    1SAPS  C311  109   4.631   4.790   5.141  0.0283  0.5393  0.2847
    1SAPS  H11X  110   4.629   4.901   5.146 -0.8930  0.5345  4.8508
    1SAPS  H11Y  111   4.537   4.751   5.095  2.1994 -2.2617 -2.1528
    1SAPS  C312  112   4.739   4.748   5.046  0.0305  0.0342 -0.0114
    1SAPS  H12X  113   4.831   4.808   5.067  0.3321 -0.0281 -1.1302
    1SAPS  H12Y  114   4.696   4.772   4.947  2.2951  1.6649 -0.6838
    1SAPS  C313  115   4.788   4.607   5.044 -0.3371 -0.1633  0.2727
    1SAPS  H13X  116   4.713   4.528   5.022  0.5590 -0.7232 -0.9039
    1SAPS  H13Y  117   4.830   4.589   5.145 -0.9752  0.0197  0.5807
    1SAPS  C314  118   4.895   4.583   4.939 -0.6275  0.6446  0.3028
    1SAPS  H14X  119   4.960   4.499   4.972 -2.3853 -1.0664 -0.4502
    1SAPS  H14Y  120   4.967   4.665   4.915  0.2202  0.3904  1.8779
    1SAPS  C315  121   4.840   4.522   4.806 -0.4406 -0.5121 -0.4413
    1SAPS  H15X  122   4.779   4.596   4.751  0.1451  0.4036  0.1146
    1SAPS  H15Y  123   4.780   4.430   4.825 -0.5382 -0.5152 -0.7532
    1SAPS  C316  124   4.953   4.472   4.714 -0.7702  0.5219  0.1316
    1SAPS  H16X  125   4.907   4.395   4.648 -2.4455  1.9975 -0.5062
    1SAPS  H16Y  126   5.035   4.424   4.771  2.2193  1.2066 -3.2315
    1SAPS  C317  127   5.028   4.580   4.631  0.3716  0.2569 -0.4328
    1SAPS  H17X  128   5.065   4.658   4.701 -1.1989  1.6526 -1.0915
    1SAPS  H17Y  129   4.945   4.626   4.573 -0.0043 -0.8561 -0.7990
    1SAPS  C318  130   5.145   4.527   4.549  0.3422 -0.0401 -0.7187
    1SAPS  H18X  131   5.214   4.464   4.609 -1.7734 -0.0029  1.9082
    1SAPS  H18Y  132   5.212   4.610   4.517  1.0841 -1.7142 -3.9525
    1SAPS  H18Z  133   5.108   4.466   4.464 -0.1290  1.1373 -1.3797
    2SAPS     N  134   6.503   0.703   6.526  0.9185 -0.3688 -0.0076
    2SAPS   HN1  135   6.531   0.637   6.602 -1.1031  0.6685  1.7832
    2SAPS   HN2  136   6.449   0.649   6.455 -1.5807  0.4759  1.1200
    2SAPS   HN3  137   6.585   0.744   6.479  1.5220 -2.2764 -0.6928
    2SAPS   C12  138   6.410   0.808   6.585  0.3495 -0.5617  0.0181
    2SAPS  H12A  139   6.311   0.767   6.595 -0.2761  0.3577 -1.9575
    2SAPS   C13  140   6.461   0.849   6.722  0.0445 -0.0601  0.0391
    2SAPS  O13A  141   6.566   0.804   6.774  0.4186 -0.0600  0.0117
    2SAPS  O13B  142   6.369   0.888   6.801 -0.1216  0.0629 -0.4972
    2SAPS   C11  143   6.405   0.924   6.479 -0.1731 -0.9686 -0.4477
    2SAPS  H11A  144   6.309   0.978   6.475  0.2818  0.0591  1.2710
    2SAPS  H11B  145   6.402   0.879   6.378 -2.2919  0.1577 -0.9359
    2SAPS     P  146   6.632   1.024   6.398  0.5084  0.2373 -0.3770
    2SAPS   O13  147   6.732   1.118   6.460  0.2700 -1.0379  0.5416
    2SAPS   O14  148   6.677   0.883   6.379  0.2010  0.0838  0.1021
    2SAPS   O12  149   6.512   1.021   6.499  0.3425  0.4760 -0.2265
    2SAPS   O11  150   6.567   1.078   6.265  0.0474  0.4045 -0.7954
    2SAPS    C1  151   6.464   1.179   6.256 -0.0878 -0.8437 -0.2169
    2SAPS    HA  152   6.370   1.161   6.312 -2.0690  3.5091 -1.6636
    2SAPS    HB  153   6.506   1.277   6.290 -0.3190 -0.8036 -0.0429
    2SAPS    C2  154   6.420   1.198   6.101 -0.1244  0.0395  0.4979
    2SAPS    HS  155   6.446   1.101   6.052  1.7801  0.1893  1.1071
    2SAPS   O21  156   6.504   1.298   6.037 -0.3656 -0.1252  0.5941
    2SAPS   C21  157   6.618   1.257   5.991 -0.2625 -0.2623 -0.2767
    2SAPS   O22  158   6.660   1.142   5.995 -0.0746  0.2029 -0.1303
    2SAPS   C22  159   6.674   1.370   5.913  0.2094 -0.8792  0.8391
    2SAPS   H2R  160   6.592   1.423   5.860  2.2963  1.5200 -0.2379
    2SAPS   H2S  161   6.736   1.441   5.972  0.3113  0.2205 -0.5142
    2SAPS    C3  162   6.274   1.214   6.077 -0.2491 -0.4228  0.3482
    2SAPS    HX  163   6.244   1.317   6.106 -1.5985 -1.0581  1.3485
    2SAPS    HY  164   6.206   1.151   6.138 -2.1799  0.4901 -0.7671
    2SAPS   O31  165   6.262   1.205   5.936  0.3627 -0.5505  0.6676
    2SAPS   C31  166   6.209   1.096   5.889  0.2880 -0.2546  0.0706
    2SAPS   O32  167   6.184   0.994   5.951  0.8932 -0.3568 -0.1307
    2SAPS   C32  168   6.170   1.112   5.750 -0.6272  0.8614 -0.0890
    2SAPS   H2X  169   6.223   1.041   5.683 -3.2521 -0.9815 -0.3605
    2SAPS   H2Y  170   6.212   1.211   5.722  0.8248 -0.3760 -2.5795
    2SAPS   C23  171   6.764   1.313   5.797  0.1682 -0.2438 -0.6775
    2SAPS   H3R  172   6.839   1.240   5.835 -1.6317 -1.7466  0.1803
    2SAPS   H3S  173   6.809   1.407   5.760  0.1966  1.1647  2.5314
    2SAPS   C24  174   6.676   1.238   5.692  0.3807  0.4475  0.1102
    2SAPS   H4R  175   6.606   1.311   5.646 -0.4446 -1.2489 -1.4224
    2SAPS   H4S  176   6.615   1.160   5.740  0.2798  1.0700  1.0209
    2SAPS   C25  177   6.767   1.164   5.588  0.1346  0.3948  0.5681
    2SAPS   H5R  178   6.795   1.063   5.621 -1.0588 -0.6480 -1.4145
    2SAPS   C26  179   6.800   1.213   5.466 -0.1541 -0.6659 -0.7188
    2SAPS   H6R  180   6.873   1.158   5.404  1.8184  0.4297  0.5118
    2SAPS   C27  181   6.769   1.354   5.419  0.4503 -0.2606 -0.3035
    2SAPS   H7R  182   6.697   1.402   5.488  1.0331  0.4768 -0.1933
    2SAPS   H7S  183   6.718   1.354   5.321  0.3858  0.9101 -0.2803
    2SAPS   C28  184   6.900   1.423   5.394  0.0336  0.1808 -0.5859
    2SAPS   H8R  185   6.925   1.500   5.469 -0.2258 -1.7249  1.5604
    2SAPS   C29  186   6.982   1.408   5.297  0.0406  0.3582 -0.1981
    2SAPS   H9R  187   7.077   1.464   5.302  0.5108 -0.5111  1.3127
    2SAPS  C210  188   6.956   1.313   5.180  0.1358  0.2149  0.0041
    2SAPS  H10R  189   6.934   1.368   5.086 -1.9505 -0.6125 -0.0585
    2SAPS  H10S  190   6.860   1.260   5.200 -0.9648  1.7101 -1.1106
    2SAPS  C211  191   7.072   1.221   5.150 -0.3591  0.1619 -0.3606
    2SAPS  H11R  192   7.045   1.121   5.186  1.1137 -0.7198 -1.6273
    2SAPS  C212  193   7.189   1.236   5.084  0.2746  0.4447  0.7182
    2SAPS  H12R  194   7.258   1.151   5.074 -0.1314  0.1643  0.2355
    2SAPS  C213  195   7.223   1.364   5.014 -1.0748 -0.4167 -0.1078
    2SAPS  H13R  196   7.235   1.435   5.098  0.7744 -0.5797 -0.1950
    2SAPS  H13S  197   7.145   1.409   4.950  0.0186  3.9093  1.2430
    2SAPS  C214  198   7.360   1.364   4.953 -0.4910  0.0785  0.3570
    2SAPS  H14R  199   7.406   1.264   4.946 -2.3272 -0.9315  1.7195
    2SAPS  C215  200   7.444   1.469   4.923  0.3661 -0.3725 -0.5679
    2SAPS  H15R  201   7.546   1.451   4.885  0.5501  0.7443 -0.6228
    2SAPS  C216  202   7.400   1.618   4.921  0.1822  0.1147  0.2819
    2SAPS  H16R  203   7.289   1.631   4.923 -0.0346 -1.3570 -0.5456
    2SAPS  H16S  204   7.440   1.657   4.825  0.0526 -0.7115 -0.1254
    2SAPS  C217  205   7.451   1.696   5.049  0.7307 -0.6433 -0.3346
    2SAPS  H17R  206   7.461   1.804   5.021  1.0278 -0.9958 -1.6465
    2SAPS  H17S  207   7.551   1.658   5.080  2.0835  1.9071 -1.1606
    2SAPS  C218  208   7.367   1.663   5.176  0.7391 -0.3567  0.4266
    2SAPS  H18R  209   7.391   1.558   5.203 -0.1302 -1.2885 -2.1178
    2SAPS  H18S  210   7.259   1.681   5.157  0.7980  0.1473  0.5507
    2SAPS  C219  211   7.415   1.747   5.296  0.8776 -0.1215 -0.6601
    2SAPS  H19R  212   7.415   1.855   5.267  0.6215  0.0235 -0.1299
    2SAPS  H19S  213   7.514   1.703   5.322 -0.0525 -2.2329 -0.4955
    2SAPS  C220  214   7.339   1.742   5.428  0.0717  0.2636 -0.4676
    2SAPS  H20R  215   7.232   1.740   5.396 -0.0383  0.2129 -0.1040
    2SAPS  H20S  216   7.365   1.834   5.484  0.4957 -0.3556  0.3925
    2SAPS  H20T  217   7.359   1.653   5.492 -0.4833  0.6575  0.2706
    2SAPS   C33  218   6.015   1.091   5.732 -1.1151 -0.2550  0.2274
    2SAPS   H3X  219   5.957   1.148   5.807 -1.7633  0.8571 -1.0661
    2SAPS   H3Y  220   5.988   0.983   5.731 -3.3346  0.2452 -0.0884
    2SAPS   C34  221   5.976   1.160   5.597  0.5812  0.1262 -0.0420
    2SAPS   H4X  222   5.996   1.269   5.599 -3.1950  0.9433 -0.5998
    2SAPS   H4Y  223   5.871   1.135   5.571  0.1829  2.3917 -0.8996
    2SAPS   C35  224   6.062   1.103   5.482  0.1933 -0.8665  0.0159
    2SAPS   H5X  225   6.057   0.992   5.486  1.8662 -0.9564  0.5159
    2SAPS   H5Y  226   6.169   1.120   5.504  0.3073 -0.9668 -0.4508
    2SAPS   C36  227   6.036   1.175   5.347  0.4243  1.0502 -0.2848
    2SAPS   H6X  228   6.033   1.286   5.341  0.2054  0.9705 -2.5586
    2SAPS   H6Y  229   5.936   1.150   5.304 -0.1849  1.2825  0.9501
    2SAPS   C37  230   6.135   1.135   5.230  0.4765  0.5199 -0.4050
    2SAPS   H7X  231   6.235   1.109   5.272 -0.4543 -1.1735  0.9317
    2SAPS   H7Y  232   6.154   1.229   5.174 -3.1537  1.2340 -0.6527
    2SAPS   C38  233   6.088   1.020   5.140  0.2838 -0.9724 -0.0416
    2SAPS   H8X  234   6.041   0.941   5.201 -0.1762  0.2827  1.2837
    2SAPS   H8Y  235   6.178   0.992   5.081  1.0019  1.4417 -0.2290
    2SAPS   C39  236   5.982   1.074   5.042  0.1719 -0.0827 -0.3369
    2SAPS   H9X  237   5.888   1.102   5.094  0.6711  1.5521 -0.2507
    2SAPS   H9Y  238   5.957   0.987   4.978 -0.7469 -0.3715  0.3947
    2SAPS  C310  239   6.038   1.188   4.947 -0.3939 -0.3958 -0.3179
    2SAPS  H10X  240   6.142   1.217   4.976 -0.4041  0.6903 -1.2653
    2SAPS  H10Y  241   5.977   1.281   4.947  0.7594  0.4298 -1.9245
    2SAPS  C311  242   6.035   1.148   4.798 -0.6951 -0.6896 -0.1347
    2SAPS  H11X  243   5.927   1.138   4.771 -0.4154 -0.3250 -1.4815
    2SAPS  H11Y  244   6.094   1.055   4.785 -0.3061 -0.4065 -0.3936
    2SAPS  C312  245   6.090   1.264   4.709 -0.0402 -0.0100 -0.1042
    2SAPS  H12X  246   6.196   1.275   4.742 -0.8213  1.2550  2.2525
    2SAPS  H12Y  247   6.026   1.347   4.744 -0.7204 -1.0856  1.3420
    2SAPS  C313  248   6.076   1.231   4.562 -0.3555 -0.0255 -0.4678
    2SAPS  H13X  249   5.968   1.206   4.553 -0.1959 -0.8150 -0.2814
    2SAPS  H13Y  250   6.141   1.146   4.533 -0.5590 -0.4371  0.2459
    2SAPS  C314  251   6.104   1.346   4.467 -0.9639  0.0746 -0.3173
    2SAPS  H14X  252   6.210   1.377   4.456 -0.8992  0.3221  0.8433
    2SAPS  H14Y  253   6.068   1.446   4.500  0.0982  0.5195 -0.4522
    2SAPS  C315  254   6.025   1.330   4.335  0.4043  0.3146  0.2863
    2SAPS  H15X  255   5.918   1.316   4.363 -0.0635  1.4505 -0.8303
    2SAPS  H15Y  256   6.060   1.245   4.273  0.0672 -2.1536  3.2761
    2SAPS  C316  257   6.024   1.462   4.250 -0.5658 -0.5955 -0.1039
    2SAPS  H16X  258   6.127   1.496   4.227 -1.0737  0.9129 -0.2503
    2SAPS  H16Y  259   5.999   1.544   4.321  1.3502 -0.2597  0.2266
    2SAPS  C317  260   5.931   1.471   4.129 -0.1567 -0.8454 -0.4223
    2SAPS  H17X  261   5.832   1.433   4.161  0.2103  0.5506  2.7117
    2SAPS  H17Y  262   5.969   1.404   4.048 -1.5215  1.2880 -2.9612
    2SAPS  C318  263   5.906   1.611   4.064 -0.3559  0.6575 -0.5429
    2SAPS  H18X  264   5.852   1.610   3.967  1.7513  1.4339 -1.7984
    2SAPS  H18Y  265   5.999   1.670   4.051  0.5734 -0.9794 -1.6792
    2SAPS  H18Z  266   5.846   1.673   4.135 -0.4316  2.2059 -1.8955
    3SAPS     N  267   5.337   6.037   6.268  0.0225 -0.9949 -0.2837
    3SAPS   HN1  268   5.374   6.129   6.298 -4.6282  1.4626 -1.2037
    3SAPS   HN2  269   5.407   5.961   6.280 -0.6723 -1.2580  2.9765
    3SAPS   HN3  270   5.316   6.045   6.166 -0.5362 -2.3294 -0.3004
    3SAPS   C12  271   5.217   6.000   6.348  0.1868 -0.6208 -0.6006
    3SAPS  H12A  272   5.172   5.925   6.285  1.2534  0.2201 -2.4606
    3SAPS   C13  273   5.242   5.935   6.483 -1.1810 -0.3224 -0.4065
    3SAPS  O13A  274   5.362   5.925   6.527  0.6055 -0.4837  0.3868
    3SAPS  O13B  275   5.157   5.869   6.541 -0.4028  0.2722  0.2909
    3SAPS   C11  276   5.126   6.122   6.369 -0.2903  0.2369  0.3821
    3SAPS  H11A  277   5.176   6.198   6.432  1.0688  0.4538 -0.9255
    3SAPS  H11B  278   5.046   6.074   6.429  1.7486 -0.3598  2.7789
    3SAPS     P  279   5.029   6.336   6.249 -0.1880 -0.1537 -0.4108
    3SAPS   O13  280   4.880   6.332   6.265 -0.0174  0.2113 -0.0715
    3SAPS   O14  281   5.114   6.408   6.352  0.5315  0.3213 -0.0791
    3SAPS   O12  282   5.081   6.188   6.254 -1.2211 -0.4258  0.1606
    3SAPS   O11  283   5.059   6.389   6.107 -0.4145  0.0885 -0.4800
    3SAPS    C1  284   5.139   6.321   6.007 -0.0287  0.2648 -0.8443
    3SAPS    HA  285   5.176   6.397   5.934  1.1399  1.4284  0.8976
    3SAPS    HB  286   5.224   6.268   6.055 -0.0811 -0.1399 -1.1845
    3SAPS    C2  287   5.047   6.231   5.919  0.9483  0.2741  0.0329
    3SAPS    HS  288   5.023   6.147   5.988 -1.8163  1.6010  0.8315
    3SAPS   O21  289   5.126   6.193   5.806  0.2947  0.6710  0.1599
    3SAPS   C21  290   5.123   6.065   5.780  0.7596 -0.3684  0.1772
    3SAPS   O22  291   5.035   5.986   5.818  0.3318  0.0719 -0.6418
    3SAPS   C22  292   5.219   6.041   5.663  0.2562  0.1352 -0.1780
    3SAPS   H2R  293   5.277   5.952   5.693 -1.6278 -1.2212 -0.3567
    3SAPS   H2S  294   5.151   6.014   5.579  1.0406  0.5807 -0.9657
    3SAPS    C3  295   4.921   6.310   5.874 -0.9625 -0.1307  0.2870
    3SAPS    HX  296   4.960   6.405   5.830  0.7731 -1.1022 -0.4097
    3SAPS    HY  297   4.852   6.349   5.951 -2.0275  1.0575 -1.1891
    3SAPS   O31  298   4.857   6.242   5.767 -0.1238  0.8284  0.1884
    3SAPS   C31  299   4.786   6.140   5.816  0.6260  0.1077 -0.0159
    3SAPS   O32  300   4.767   6.121   5.937 -0.0261  0.2153  0.6307
    3SAPS   C32  301   4.729   6.043   5.709 -0.2778  1.0414  0.3605
    3SAPS   H2X  302   4.625   6.063   5.675 -1.3880  0.5107  3.1136
    3SAPS   H2Y  303   4.730   5.939   5.751 -0.2516  1.0370  0.3481
    3SAPS   C23  304   5.295   6.167   5.613 -0.4109  0.0664 -0.0369
    3SAPS   H3R  305   5.345   6.220   5.697  1.3953  0.3459 -1.2283
    3SAPS   H3S  306   5.220   6.240   5.577  1.6702  2.4380  0.2118
    3SAPS   C24  307   5.407   6.141   5.507  0.3139  0.2513 -0.6792
    3SAPS   H4R  308   5.363   6.076   5.428  0.6332  0.1958 -0.8127
    3SAPS   H4S  309   5.483   6.075   5.553  3.5751  3.2175 -1.3827
    3SAPS   C25  310   5.471   6.261   5.443  0.2511 -0.4331  0.0886
    3SAPS   H5R  311   5.422   6.358   5.462  2.1721  0.7485 -0.7326
    3SAPS   C26  312   5.589   6.264   5.380 -0.3702 -0.0114  0.3220
    3SAPS   H6R  313   5.615   6.366   5.346 -0.0564 -0.4168 -0.6839
    3SAPS   C27  314   5.690   6.163   5.353  0.0758  0.1455 -1.0196
    3SAPS   H7R  315   5.645   6.070   5.312 -0.1306 -0.0028 -0.4608
    3SAPS   H7S  316   5.739   6.128   5.446 -3.5546  1.2396  1.4916
    3SAPS   C28  317   5.794   6.217   5.265 -0.2581 -1.0207  0.0957
    3SAPS   H8R  318   5.874   6.280   5.306  1.6259 -3.0088 -0.3352
    3SAPS   C29  319   5.798   6.188   5.133  0.1499 -0.0034  0.2368
    3SAPS   H9R  320   5.890   6.214   5.080  0.6723  1.6451  1.8386
    3SAPS  C210  321   5.703   6.100   5.053 -0.6007 -1.3242 -0.9005
    3SAPS  H10R  322   5.605   6.152   5.041 -0.0301 -0.2597 -0.9965
    3SAPS  H10S  323   5.698   6.003   5.108  0.9280 -0.5265  0.7507
    3SAPS  C211  324   5.763   6.072   4.920 -0.2035  0.2604  0.3306
    3SAPS  H11R  325   5.861   6.118   4.899 -1.3143  1.7639 -2.0523
    3SAPS  C212  326   5.713   5.989   4.831  0.2079 -0.1370 -0.4482
    3SAPS  H12R  327   5.770   5.991   4.736 -0.1296  1.8836 -0.6587
    3SAPS  C213  328   5.593   5.897   4.832 -0.9340 -0.3007  0.5645
    3SAPS  H13R  329   5.544   5.905   4.732  2.0704  1.8957 -0.8962
    3SAPS  H13S  330   5.514   5.931   4.902  0.7169 -0.8008  2.7832
    3SAPS  C214  331   5.625   5.745   4.846  0.7664 -0.3021 -0.2743
    3SAPS  H14R  332   5.705   5.728   4.919 -0.3409  2.1471  1.6540
    3SAPS  C215  333   5.558   5.637   4.786 -0.0684  0.4506  0.1268
    3SAPS  H15R  334   5.579   5.532   4.812 -0.2309  0.3971  0.0448
    3SAPS  C216  335   5.447   5.646   4.683  0.5795  0.1132 -0.3278
    3SAPS  H16R  336   5.461   5.737   4.620  1.8705  0.4651  0.4230
    3SAPS  H16S  337   5.346   5.660   4.727  0.9136 -1.0040  0.8414
    3SAPS  C217  338   5.456   5.539   4.574  0.4227  0.4004 -0.3893
    3SAPS  H17R  339   5.364   5.538   4.511  1.7119  0.1227 -2.3440
    3SAPS  H17S  340   5.445   5.438   4.620  0.2560 -0.2837 -1.8513
    3SAPS  C218  341   5.584   5.529   4.486  0.1078 -0.5089  0.0048
    3SAPS  H18R  342   5.667   5.511   4.557 -0.0885  1.1206  0.6964
    3SAPS  H18S  343   5.610   5.633   4.456 -0.4300  0.8112  3.6103
    3SAPS  C219  344   5.576   5.438   4.361 -0.1659 -0.3708 -0.0572
    3SAPS  H19R  345   5.560   5.334   4.396 -0.3417  0.4060  2.3649
    3SAPS  H19S  346   5.495   5.475   4.295 -1.0846 -1.4250  0.4422
    3SAPS  C220  347   5.699   5.444   4.269 -0.4573 -0.0352  0.6729
    3SAPS  H20R  348   5.725   5.552   4.280  1.3337 -0.6260  3.2671
    3SAPS  H20S  349   5.681   5.422   4.162 -0.7249  0.6991  0.5556
    3SAPS  H20T  350   5.780   5.381   4.310 -1.5106 -1.2852  0.9041
    3SAPS   C33  351   4.823   6.037   5.581  0.7120 -0.5225 -0.0446
    3SAPS   H3X  352   4.840   5.929   5.563 -1.5827 -0.5970 -2.3289
    3SAPS   H3Y  353   4.910   6.100   5.611 -0.7608  1.0418  1.1106
    3SAPS   C34  354   4.754   6.081   5.453 -0.2423  0.4736  0.1906
    3SAPS   H4X  355   4.739   6.191   5.459  1.6401  0.6941  1.5955
    3SAPS   H4Y  356   4.662   6.020   5.447  1.1355 -1.7628  0.5936
    3SAPS   C35  357   4.843   6.049   5.331  0.3794  0.4313  0.6177
    3SAPS   H5X  358   4.947   6.088   5.337  0.0269  1.7590 -1.0575
    3SAPS   H5Y  359   4.838   5.940   5.311  1.6845  0.8254 -2.3793
    3SAPS   C36  360   4.781   6.114   5.211  0.2134  0.0384 -0.8487
    3SAPS   H6X  361   4.796   6.224   5.219  1.0920 -0.1160 -0.2496
    3SAPS   H6Y  362   4.671   6.096   5.202  0.0922  1.7709 -3.8569
    3SAPS   C37  363   4.860   6.085   5.084  0.4073  0.6897  0.4528
    3SAPS   H7X  364   4.805   6.001   5.036 -0.3052  0.1132  2.2282
    3SAPS   H7Y  365   4.965   6.060   5.110  1.5357  1.6723 -2.6016
    3SAPS   C38  366   4.870   6.203   4.982  0.8745 -0.1426  0.4712
    3SAPS   H8X  367   4.920   6.293   5.024  0.1851  0.0874  0.8181
    3SAPS   H8Y  368   4.767   6.218   4.944  1.2200  0.0101 -0.4117
    3SAPS   C39  369   4.941   6.154   4.855 -0.0568  0.3190 -0.1541
    3SAPS   H9X  370   4.891   6.058   4.833  1.2636 -0.4760  0.2319
    3SAPS   H9Y  371   5.046   6.129   4.884 -0.8587 -1.2682  1.5634
    3SAPS  C310  372   4.919   6.238   4.725  0.8442 -0.0607 -0.6963
    3SAPS  H10X  373   4.978   6.332   4.732  1.3249 -0.2919 -1.5184
    3SAPS  H10Y  374   4.813   6.264   4.708  0.0571 -1.7920  1.1997
    3SAPS  C311  375   4.959   6.167   4.605  0.0347  0.6805 -0.6051
    3SAPS  H11X  376   4.967   6.240   4.522  1.4150  1.7701  0.4446
    3SAPS  H11Y  377   4.884   6.085   4.594 -0.0977  0.7605 -0.2921
    3SAPS  C312  378   5.096   6.106   4.612 -0.0366  0.1185  0.8816
    3SAPS  H12X  379   5.131   6.089   4.716  0.0281 -0.1327  0.8189
    3SAPS  H12Y  380   5.159   6.178   4.554 -1.4361  0.8824  0.2660
    3SAPS  C313  381   5.110   5.981   4.532 -0.2470  0.2314  0.3955
    3SAPS  H13X  382   5.076   5.991   4.426  0.7387  0.2636  0.0704
    3SAPS  H13Y  383   5.045   5.911   4.587 -1.6635  1.2974  0.1337
    3SAPS  C314  384   5.251   5.935   4.516  0.1790  0.0664 -0.0134
    3SAPS  H14X  385   5.246   5.825   4.501  0.6129 -0.2519  1.8742
    3SAPS  H14Y  386   5.313   5.942   4.607  2.5675 -4.3972 -0.9925
    3SAPS  C315  387   5.322   6.007   4.400 -0.0358  0.0603  0.1279
    3SAPS  H15X  388   5.340   6.115   4.421  1.2829 -0.3711  1.4016
    3SAPS  H15Y  389   5.268   5.987   4.305  0.2552  0.8839 -0.2221
    3SAPS  C316  390   5.456   5.935   4.376 -0.3411 -0.6375 -0.0538
    3SAPS  H16X  391   5.448   5.829   4.343 -1.6765 -0.1769 -1.3275
    3SAPS  H16Y  392   5.506   5.943   4.475 -1.7100 -1.4903  0.7425
    3SAPS  C317  393   5.534   6.016   4.271 -0.0030  0.0968 -0.4963
    3SAPS  H17X  394   5.643   5.993   4.272 -0.0720 -0.4861  2.7242
    3SAPS  H17Y  395   5.536   6.124   4.297 -0.3878 -0.4088  1.8452
    3SAPS  C318  396   5.480   5.988   4.125  0.0582 -0.3639 -0.2174
    3SAPS  H18X  397   5.472   5.880   4.099  0.4184 -0.7744  1.3162
    3SAPS  H18Y  398   5.550   6.044   4.059  1.8715  0.1818  2.0591
    3SAPS  H18Z  399   5.375   6.024   4.112 -0.5382 -1.5080  1.1711
    4SAPS     N  400   3.285   0.725   6.218 -0.4242 -0.1914 -0.0036
    4SAPS   HN1  401   3.283   0.641   6.157 -0.2349  0.0722 -0.3763
    4SAPS   HN2  402   3.187   0.750   6.243 -0.7862 -2.8287  1.5638
    4SAPS   HN3  403   3.338   0.797   6.166  0.2908 -1.0056 -0.4291
    4SAPS   C12  404   3.343   0.688   6.345  0.3555  0.9573 -0.0496
    4SAPS  H12A  405   3.448   0.671   6.323 -0.1072 -2.8410 -0.0626
    4SAPS   C13  406   3.315   0.791   6.454  1.2966 -0.0505  0.0098
    4SAPS  O13A  407   3.263   0.903   6.419 -0.1040 -0.0894 -0.0202
    4SAPS  O13B  408   3.342   0.762   6.572 -0.5011  0.7339 -0.0406
    4SAPS   C11  409   3.273   0.557   6.392  0.6414  0.4569  0.0413
    4SAPS  H11A  410   3.171   0.582   6.429  1.3574  1.8374  1.1616
    4SAPS  H11B  411   3.331   0.526   6.481 -1.3522 -1.0617  0.9017
    4SAPS     P  412   3.251   0.299   6.329 -0.1942  0.1546 -0.2670
    4SAPS   O13  413   3.372   0.267   6.413  0.3414 -0.4744  0.4286
    4SAPS   O14  414   3.119   0.268   6.389 -0.2042 -0.1395 -0.5508
    4SAPS   O12  415   3.262   0.452   6.292 -0.3435  0.6192 -0.3854
    4SAPS   O11  416   3.261   0.221   6.195 -0.0636 -0.1006 -0.2770
    4SAPS    C1  417   3.253   0.296   6.074 -0.2941  0.3155  0.6838
    4SAPS    HA  418   3.204   0.233   5.997 -1.0994  1.5809  0.1462
    4SAPS    HB  419   3.187   0.385   6.077 -2.7274 -1.3292 -0.3118
    4SAPS    C2  420   3.403   0.328   6.025  0.2801  0.3751 -0.0731
    4SAPS    HS  421   3.456   0.401   6.090 -0.1520  0.1118  0.5894
    4SAPS   O21  422   3.406   0.377   5.888  0.2718  0.2615 -0.3748
    4SAPS   C21  423   3.374   0.507   5.887  0.0157 -0.5100 -0.6050
    4SAPS   O22  424   3.330   0.571   5.982 -0.2917 -0.2656  0.2486
    4SAPS   C22  425   3.414   0.560   5.751  0.1247  0.0377 -0.1506
    4SAPS   H2R  426   3.329   0.543   5.681  0.3465 -0.0010 -0.4112
    4SAPS   H2S  427   3.429   0.670   5.761 -1.9736  0.4960 -1.3336
    4SAPS    C3  428   3.495   0.205   6.035  0.2522 -0.2977  0.1752
    4SAPS    HX  429   3.450   0.126   5.972 -0.9485  2.1612 -2.2656
    4SAPS    HY  430   3.496   0.175   6.142 -1.4091  1.0385  0.5921
    4SAPS   O31  431   3.630   0.237   5.985 -0.3290  0.0660 -0.4214
    4SAPS   C31  432   3.711   0.133   5.968  0.5814 -0.8881 -0.0230
    4SAPS   O32  433   3.685   0.018   5.995 -0.6943  0.4891 -0.2052
    4SAPS   C32  434   3.842   0.174   5.906 -0.8879  0.3977  0.2323
    4SAPS   H2X  435   3.916   0.167   5.988  0.1619 -0.6327 -0.7671
    4SAPS   H2Y  436   3.832   0.280   5.873 -3.7729 -0.2564 -1.3962
    4SAPS   C23  437   3.538   0.491   5.684 -0.4694  0.0987 -0.2677
    4SAPS   H3R  438   3.525   0.381   5.680 -0.0491 -0.0065  0.7499
    4SAPS   H3S  439   3.632   0.499   5.743  0.3047 -0.5798 -1.3759
    4SAPS   C24  440   3.567   0.539   5.543 -0.4180  0.2315 -0.2852
    4SAPS   H4R  441   3.592   0.646   5.553  1.0619  0.1663 -2.5997
    4SAPS   H4S  442   3.478   0.533   5.476  0.1401 -1.4506 -0.9508
    4SAPS   C25  443   3.682   0.462   5.468  0.5765  0.2372  0.0990
    4SAPS   H5R  444   3.669   0.353   5.473 -1.3664  0.3775 -0.9395
    4SAPS   C26  445   3.770   0.523   5.390 -0.3580 -0.1330  0.6032
    4SAPS   H6R  446   3.825   0.465   5.314  0.1423  1.6145 -0.4056
    4SAPS   C27  447   3.784   0.679   5.375 -0.2590  0.3416  0.3047
    4SAPS   H7R  448   3.759   0.725   5.473  3.9964  1.6418  0.9650
    4SAPS   H7S  449   3.704   0.726   5.314 -0.8410  0.6673  1.2926
    4SAPS   C28  450   3.922   0.724   5.339  0.2308 -0.2675  0.2951
    4SAPS   H8R  451   3.988   0.723   5.426  1.0243  1.2899 -0.2528
    4SAPS   C29  452   3.970   0.774   5.224 -0.0633 -0.0511  0.0875
    4SAPS   H9R  453   4.075   0.807   5.229  0.3220 -1.1649 -0.4349
    4SAPS  C210  454   3.897   0.803   5.096 -0.7694  0.0512  0.0598
    4SAPS  H10R  455   3.794   0.762   5.105 -0.8303 -0.0087 -0.8330
    4SAPS  H10S  456   3.958   0.746   5.022  0.7802 -0.0601  1.3483
    4SAPS  C211  457   3.897   0.948   5.061 -0.0261 -0.0852 -0.7996
    4SAPS  H11R  458   3.885   1.018   5.145 -2.0488  0.9302 -1.8320
    4SAPS  C212  459   3.906   0.998   4.941  0.0691 -0.5027  0.2556
    4SAPS  H12R  460   3.895   1.107   4.940 -1.1043 -0.5819  1.5404
    4SAPS  C213  461   3.928   0.928   4.810  0.5239 -0.3125 -0.0560
    4SAPS  H13R  462   3.929   0.817   4.812 -1.7100 -0.3864 -0.5642
    4SAPS  H13S  463   4.020   0.972   4.767  0.5071 -1.0833 -0.9178
    4SAPS  C214  464   3.806   0.969   4.726  0.0450 -0.3449 -0.0180
    4SAPS  H14R  465   3.710   0.958   4.778  0.8069 -0.7208  1.3543
    4SAPS  C215  466   3.803   1.002   4.596 -0.3899 -0.2503  0.0721
    4SAPS  H15R  467   3.704   1.034   4.560 -0.5438 -0.1299  0.5977
    4SAPS  C216  468   3.916   1.018   4.501 -0.4752  0.3815  0.6961
    4SAPS  H16R  469   3.916   0.932   4.430 -0.6097  0.0982  1.0379
    4SAPS  H16S  470   4.006   0.995   4.561 -1.3942 -2.0216  1.2718
    4SAPS  C217  471   3.924   1.157   4.451 -0.0808  0.0435  0.3076
    4SAPS  H17R  472   3.835   1.182   4.390  1.5591  2.0900 -1.4234
    4SAPS  H17S  473   4.011   1.148   4.382  0.6980 -1.2777  1.4000
    4SAPS  C218  474   3.953   1.273   4.542 -0.0189  0.4974 -0.0714
    4SAPS  H18R  475   4.035   1.253   4.613  0.1051  1.3307  0.0342
    4SAPS  H18S  476   3.860   1.280   4.602  0.9746  1.7236  1.3850
    4SAPS  C219  477   3.985   1.415   4.475  0.3471  0.1696 -0.7985
    4SAPS  H19R  478   3.915   1.423   4.390 -0.8982  1.7309  0.3140
    4SAPS  H19S  479   4.088   1.410   4.433  1.0883 -0.9676  0.9852
    4SAPS  C220  480   3.958   1.537   4.564  0.2946  0.7718  0.0764
    4SAPS  H20R  481   3.853   1.522   4.598  0.7964 -1.8690  0.6985
    4SAPS  H20S  482   3.953   1.630   4.504 -0.3461  1.4197  1.1122
    4SAPS  H20T  483   4.031   1.558   4.646 -0.5424  0.3063  0.9595
    4SAPS   C33  484   3.894   0.087   5.785 -0.5688 -0.0398 -0.3161
    4SAPS   H3X  485   3.877  -0.019   5.812 -2.7228 -0.5816 -3.3111
    4SAPS   H3Y  486   3.996   0.117   5.752 -0.4917  0.3717  0.2863
    4SAPS   C34  487   3.819   0.121   5.652 -0.4592 -0.0892  0.1941
    4SAPS   H4X  488   3.770   0.221   5.642 -0.4877 -0.1756 -0.6052
    4SAPS   H4Y  489   3.738   0.045   5.656  0.3011 -0.8720  0.9857
    4SAPS   C35  490   3.916   0.107   5.531 -0.5773  1.2217 -0.6775
    4SAPS   H5X  491   3.968   0.009   5.539  1.2849  2.2981  1.2060
    4SAPS   H5Y  492   3.988   0.191   5.532  1.0089 -0.0782  0.9779
    4SAPS   C36  493   3.853   0.105   5.392  0.0994  0.1557 -0.7263
    4SAPS   H6X  494   3.775   0.184   5.400  0.9515  0.8634  0.9964
    4SAPS   H6Y  495   3.812   0.006   5.362 -0.9801  0.0234  0.9836
    4SAPS   C37  496   3.943   0.158   5.280 -0.2549 -0.3794 -0.6137
    4SAPS   H7X  497   4.037   0.099   5.274  0.2748  0.3535  0.1452
    4SAPS   H7Y  498   3.975   0.258   5.319  0.1215 -0.2538 -1.2210
    4SAPS   C38  499   3.891   0.186   5.142  0.2946  0.0313  0.7034
    4SAPS   H8X  500   3.791   0.232   5.152  0.8754  2.2070 -2.0537
    4SAPS   H8Y  501   3.866   0.095   5.084  1.1623  0.4900 -0.4265
    4SAPS   C39  502   3.988   0.268   5.046  0.2504  0.1351 -0.6815
    4SAPS   H9X  503   4.077   0.205   5.023  0.9852  0.1479  1.8043
    4SAPS   H9Y  504   4.023   0.353   5.108  0.9196 -0.8047  0.2774
    4SAPS  C310  505   3.915   0.303   4.919 -0.1299  0.2838  0.2516
    4SAPS  H10X  506   3.864   0.211   4.884  1.1392  0.5887 -2.6780
    4SAPS  H10Y  507   3.989   0.333   4.841 -0.2564  1.3626  0.5224
    4SAPS  C311  508   3.806   0.407   4.950  0.5517 -0.6132 -0.1027
    4SAPS  H11X  509   3.844   0.507   4.920 -2.9975  0.6644 -0.7701
    4SAPS  H11Y  510   3.781   0.413   5.058  0.2472  0.3249 -0.2128
    4SAPS  C312  511   3.678   0.376   4.875 -0.1765  0.7438 -0.3569
    4SAPS  H12X  512   3.720   0.356   4.774  3.8632  2.8553  0.6798
    4SAPS  H12Y  513   3.612   0.465   4.874 -0.3393  0.6356  0.4971
    4SAPS  C313  514   3.601   0.251   4.922  0.1860  0.0571  1.3884
    4SAPS  H13X  515   3.570   0.283   5.024 -0.7924  2.1011  0.4870
    4SAPS  H13Y  516   3.671   0.165   4.932  1.9413  0.9505 -1.9952
    4SAPS  C314  517   3.478   0.214   4.844  0.0308  0.2380  0.0374
    4SAPS  H14X  518   3.412   0.303   4.838 -0.7537 -0.1873  1.9623
    4SAPS  H14Y  519   3.416   0.137   4.895 -0.7494  1.3166  0.7604
    4SAPS  C315  520   3.511   0.156   4.697 -1.2340  0.3312 -0.3416
    4SAPS  H15X  521   3.571   0.063   4.697  3.2740  2.9379 -0.5083
    4SAPS  H15Y  522   3.581   0.231   4.652 -0.0617 -1.1527 -1.0715
    4SAPS  C316  523   3.391   0.113   4.625 -0.5031  0.2469  0.5811
    4SAPS  H16X  524   3.306   0.184   4.636  1.3789  2.3774  2.4561
    4SAPS  H16Y  525   3.351   0.022   4.674 -1.8636  0.8850  0.7162
    4SAPS  C317  526   3.425   0.083   4.474 -0.0159  0.1298 -0.1389
    4SAPS  H17X  527   3.483  -0.011   4.486 -1.5509 -0.8266  0.0175
    4SAPS  H17Y  528   3.479   0.170   4.430 -0.7437 -0.2513 -1.8999
    4SAPS  C318  529   3.299   0.058   4.390  0.1393 -0.2239 -0.3566
    4SAPS  H18X  530   3.220   0.136   4.396  1.4932  1.2027 -0.2545
    4SAPS  H18Y  531   3.250  -0.030   4.436 -1.7362  1.5226  1.2046
    4SAPS  H18Z  532   3.327   0.048   4.283  0.8501 -1.3001 -0.0844
    5SAPS     N  533   5.088   3.825   7.125 -0.2856 -0.3216 -0.1991
    5SAPS   HN1  534   5.053   3.751   7.060  1.2445 -1.0368 -0.2697
    5SAPS   HN2  535   5.051   3.820   7.222 -0.2084 -1.4301 -0.2050
    5SAPS   HN3  536   5.061   3.918   7.087 -0.8889 -1.8752 -4.0439
    5SAPS   C12  537   5.238   3.812   7.120  0.0000  0.3458 -0.5154
    5SAPS  H12A  538   5.289   3.873   7.194  0.9551  1.2115 -1.8566
    5SAPS   C13  539   5.279   3.666   7.124 -0.7892  0.3000 -0.3757
    5SAPS  O13A  540   5.191   3.580   7.143 -0.0989  0.3150 -0.0948
    5SAPS  O13B  541   5.400   3.638   7.146  0.1189 -0.2907  0.1035
    5SAPS   C11  542   5.272   3.877   6.982  0.1836  0.2359 -0.1175
    5SAPS  H11A  543   5.225   3.830   6.893  0.5585  1.5850 -1.0729
    5SAPS  H11B  544   5.383   3.876   6.974  0.1868 -0.9427  0.0104
    5SAPS     P  545   5.285   4.126   6.886 -0.1608 -0.1533  0.1530
    5SAPS   O13  546   5.223   4.256   6.909  1.5339 -0.4640  0.1816
    5SAPS   O14  547   5.430   4.124   6.884 -0.5906  0.2387 -0.0268
    5SAPS   O12  548   5.227   4.016   6.981 -0.1346  0.0887  0.5107
    5SAPS   O11  549   5.237   4.079   6.740 -0.3508 -0.2937 -0.7349
    5SAPS    C1  550   5.108   4.046   6.707 -0.4945 -0.0026  0.9509
    5SAPS    HA  551   5.091   3.938   6.728 -0.4808 -0.5541 -1.5806
    5SAPS    HB  552   5.033   4.098   6.770 -0.3958 -0.0782  1.1318
    5SAPS    C2  553   5.078   4.054   6.557  0.2574 -0.7740  1.0405
    5SAPS    HS  554   4.990   3.991   6.533 -0.9308  1.5929 -1.4885
    5SAPS   O21  555   5.179   4.016   6.462  0.5704  0.5633 -0.3662
    5SAPS   C21  556   5.226   3.893   6.476  0.0498  0.1235  1.0107
    5SAPS   O22  557   5.180   3.809   6.552 -0.3218 -0.0933 -0.2223
    5SAPS   C22  558   5.337   3.871   6.370 -0.0336  0.4194  0.1715
    5SAPS   H2R  559   5.300   3.819   6.279 -0.5271 -0.7778  1.0176
    5SAPS   H2S  560   5.373   3.973   6.345 -1.3439  0.5919 -1.1068
    5SAPS    C3  561   5.041   4.199   6.525  0.3825  0.0905  0.8134
    5SAPS    HX  562   5.107   4.268   6.581  0.9493  0.4215 -0.2427
    5SAPS    HY  563   4.936   4.220   6.556 -0.1820 -1.1632 -0.1705
    5SAPS   O31  564   5.037   4.227   6.384  0.4954  0.7015 -0.0046
    5SAPS   C31  565   5.152   4.251   6.324 -0.4376  0.3927  0.1170
    5SAPS   O32  566   5.261   4.262   6.376 -0.0144 -0.0246 -0.2800
    5SAPS   C32  567   5.128   4.263   6.181  0.3407  0.3991  0.5837
    5SAPS   H2X  568   5.130   4.370   6.150  0.7138  0.3621  0.4686
    5SAPS   H2Y  569   5.032   4.217   6.150  1.0751 -1.1746  0.5534
    5SAPS   C23  570   5.455   3.795   6.432 -0.7310  0.6668 -0.7175
    5SAPS   H3R  571   5.421   3.692   6.455  3.6227 -0.5124  1.6865
    5SAPS   H3S  572   5.482   3.840   6.530 -1.5122 -0.5272  0.0785
    5SAPS   C24  573   5.585   3.783   6.341 -0.1997  0.0284 -0.7847
    5SAPS   H4R  574   5.676   3.746   6.393  0.4429 -0.3945 -2.1509
    5SAPS   H4S  575   5.612   3.885   6.308 -1.0355 -0.1110 -1.9796
    5SAPS   C25  576   5.558   3.701   6.213 -0.5493 -0.7229 -0.2236
    5SAPS   H5R  577   5.551   3.591   6.220 -2.2363 -0.5984  0.3384
    5SAPS   C26  578   5.544   3.761   6.089  0.3726  0.2403 -0.2975
    5SAPS   H6R  579   5.525   3.709   5.994  3.2554  0.8597 -1.3037
    5SAPS   C27  580   5.547   3.904   6.055 -0.0235 -0.8204  1.0446
    5SAPS   H7R  581   5.497   3.967   6.131 -0.0995 -0.4706  0.7090
    5SAPS   H7S  582   5.487   3.911   5.962  1.3544 -0.1208  0.1696
    5SAPS   C28  583   5.685   3.957   6.030 -0.4225 -0.4879 -0.1463
    5SAPS   H8R  584   5.715   4.027   6.109 -1.0764  0.3088 -0.5891
    5SAPS   C29  585   5.764   3.945   5.915  0.5792 -0.1156 -0.2631
    5SAPS   H9R  586   5.854   4.008   5.917  0.0452  0.6745 -0.4988
    5SAPS  C210  587   5.737   3.869   5.789  0.0809  0.1568 -0.3208
    5SAPS  H10R  588   5.663   3.790   5.812 -0.0649  1.0768  2.7969
    5SAPS  H10S  589   5.834   3.824   5.759  1.5619  2.1321  1.2181
    5SAPS  C211  590   5.689   3.966   5.674 -0.3143  0.3261 -0.4227
    5SAPS  H11R  591   5.615   4.043   5.700  0.9181  1.3937  0.0667
    5SAPS  C212  592   5.723   3.960   5.544 -0.3659  0.9795 -0.3257
    5SAPS  H12R  593   5.689   4.037   5.474 -0.7046 -0.3552 -1.6902
    5SAPS  C213  594   5.813   3.862   5.473  0.6418  0.2879 -0.1648
    5SAPS  H13R  595   5.878   3.797   5.535  0.3936 -1.3518 -1.5357
    5SAPS  H13S  596   5.879   3.929   5.414  0.7868 -1.0489 -1.5945
    5SAPS  C214  597   5.728   3.756   5.402 -0.0188  0.0054  1.0485
    5SAPS  H14R  598   5.699   3.671   5.465  0.2728 -0.6589  0.3126
    5SAPS  C215  599   5.722   3.750   5.263 -0.3609  0.2032  0.7755
    5SAPS  H15R  600   5.662   3.673   5.212  1.7086 -1.0682  0.1453
    5SAPS  C216  601   5.787   3.853   5.169 -0.7974 -0.4092 -0.4992
    5SAPS  H16R  602   5.800   3.952   5.219  0.0012 -0.4250 -0.6602
    5SAPS  H16S  603   5.715   3.884   5.090  1.9606 -1.2677 -3.5210
    5SAPS  C217  604   5.927   3.828   5.114 -0.0875 -0.0996  0.8713
    5SAPS  H17R  605   5.931   3.774   5.017  1.4019 -0.4251  1.0775
    5SAPS  H17S  606   5.980   3.771   5.194 -1.7932 -0.4191  1.8246
    5SAPS  C218  607   6.009   3.964   5.103  0.9940  0.7016 -0.1712
    5SAPS  H18R  608   6.031   3.981   5.210 -0.3431 -1.1256  0.4457
    5SAPS  H18S  609   5.937   4.035   5.057  1.1560 -0.0804 -1.6975
    5SAPS  C219  610   6.142   3.961   5.032 -0.6660 -0.1035  0.2899
    5SAPS  H19R  611   6.204   3.870   5.043 -0.4721 -0.0106 -0.0180
    5SAPS  H19S  612   6.198   4.043   5.081  0.3612 -0.5085 -0.1980
    5SAPS  C220  613   6.140   4.014   4.888  0.3868  0.6195 -0.0476
    5SAPS  H20R  614   6.246   4.022   4.856  0.5235  3.9926  0.7989
    5SAPS  H20S  615   6.105   4.120   4.891 -1.0111  0.1623  2.1623
    5SAPS  H20T  616   6.090   3.953   4.811  1.3986 -0.0247 -0.2155
    5SAPS   C33  617   5.228   4.183   6.089  0.0679  0.1089 -0.4536
    5SAPS   H3X  618   5.238   4.079   6.128 -2.0309 -1.1916 -3.0961
    5SAPS   H3Y  619   5.331   4.220   6.108 -0.3480 -0.1097  2.8143
    5SAPS   C34  620   5.168   4.185   5.948  0.2887  0.3100 -0.4859
    5SAPS   H4X  621   5.170   4.289   5.909 -0.8109  0.1220 -1.0705
    5SAPS   H4Y  622   5.061   4.158   5.947  0.4904 -0.5781  0.5658
    5SAPS   C35  623   5.244   4.087   5.862  0.1556 -0.3852 -0.5604
    5SAPS   H5X  624   5.217   3.987   5.903 -2.2851  0.3947 -0.0862
    5SAPS   H5Y  625   5.352   4.112   5.870  0.0896  0.7925 -2.6529
    5SAPS   C36  626   5.208   4.111   5.715  0.6067  0.2345  0.4175
    5SAPS   H6X  627   5.254   4.205   5.677  0.8747 -0.5767 -1.3940
    5SAPS   H6Y  628   5.100   4.116   5.689  0.9069 -0.7959 -1.2055
    5SAPS   C37  629   5.266   4.004   5.627  0.1979 -0.4439 -0.2441
    5SAPS   H7X  630   5.216   3.909   5.655 -0.5524  0.2426  0.8447
    5SAPS   H7Y  631   5.374   3.996   5.649  0.1257  2.3619  1.7570
    5SAPS   C38  632   5.254   4.019   5.470 -0.2749  0.4222 -0.6908
    5SAPS   H8X  633   5.323   4.104   5.451  0.9403  0.4266  2.9788
    5SAPS   H8Y  634   5.151   4.040   5.433 -0.5092  2.9317  1.0648
    5SAPS   C39  635   5.310   3.896   5.406 -0.3478  0.1758  0.1543
    5SAPS   H9X  636   5.248   3.806   5.425 -0.6332  0.0504 -1.3130
    5SAPS   H9Y  637   5.401   3.877   5.467 -1.2263  2.2136  2.2568
    5SAPS  C310  638   5.334   3.916   5.260 -0.3623  0.2991 -0.5465
    5SAPS  H10X  639   5.439   3.953   5.262  0.2287 -1.1132  3.7478
    5SAPS  H10Y  640   5.262   3.984   5.209 -1.0288 -0.3432 -0.4755
    5SAPS  C311  641   5.340   3.781   5.192  0.3509 -0.3736 -0.3313
    5SAPS  H11X  642   5.241   3.731   5.200 -0.3941  1.1101 -0.0591
    5SAPS  H11Y  643   5.407   3.715   5.252  0.0182  0.8300  1.4389
    5SAPS  C312  644   5.384   3.798   5.050 -0.3708 -0.2671 -0.5852
    5SAPS  H12X  645   5.478   3.858   5.057  1.0739 -2.4524 -0.3538
    5SAPS  H12Y  646   5.315   3.850   4.980 -0.3804 -0.5546 -0.7891
    5SAPS  C313  647   5.441   3.673   4.986  0.4381  0.1216 -0.1806
    5SAPS  H13X  648   5.356   3.604   4.967 -1.4464  2.2988 -0.1067
    5SAPS  H13Y  649   5.511   3.630   5.061  0.7675  0.8160 -0.0822
    5SAPS  C314  650   5.506   3.699   4.852 -0.3276  0.3023 -0.1971
    5SAPS  H14X  651   5.577   3.781   4.874 -0.1083  0.5060 -1.5774
    5SAPS  H14Y  652   5.438   3.734   4.772  0.6295 -0.4101 -1.3612
    5SAPS  C315  653   5.586   3.585   4.789  0.4453 -0.0363  0.0862
    5SAPS  H15X  654   5.529   3.492   4.808  0.7868 -0.5208 -1.2158
    5SAPS  H15Y  655   5.685   3.571   4.837  0.8745  0.5472 -0.6037
    5SAPS  C316  656   5.625   3.603   4.647 -0.4885  0.1724  0.5886
    5SAPS  H16X  657   5.671   3.704   4.644 -0.5788  0.2097 -2.6204
    5SAPS  H16Y  658   5.539   3.620   4.579 -0.1875  0.9895  0.3979
    5SAPS  C317  659   5.714   3.502   4.577  0.4523  0.2991  0.1784
    5SAPS  H17X  660   5.680   3.398   4.599  0.7703 -0.5006 -2.6464
    5SAPS  H17Y  661   5.808   3.501   4.636  0.4173  0.1504  0.2324
    5SAPS  C318  662   5.736   3.523   4.428  0.9018 -0.0578  0.2032
    5SAPS  H18X  663   5.781   3.624   4.416  0.2514  0.0940 -1.0807
    5SAPS  H18Y  664   5.638   3.515   4.377  0.1142  1.0656  1.4570
    5SAPS  H18Z  665   5.803   3.442   4.394  0.7502  1.0875 -3.2835
    6SAPS     N  666   1.139   1.343   6.681  0.1335  0.0557 -0.3439
    6SAPS   HN1  667   1.126   1.313   6.780 -0.0192  0.6957 -0.1666
    6SAPS   HN2  668   1.242   1.352   6.668  0.2871  0.7328  1.1919
    6SAPS   HN3  669   1.096   1.437   6.670 -1.7077 -0.6000  0.7500
    6SAPS   C12  670   1.070   1.236   6.599  0.1164  0.3171 -0.2182
    6SAPS  H12A  671   1.094   1.135   6.628  1.0062 -0.3626 -2.9983
    6SAPS   C13  672   0.919   1.244   6.589 -0.5142 -1.3932 -0.2667
    6SAPS  O13A  673   0.868   1.351   6.630 -0.8540 -0.7501  0.1880
    6SAPS  O13B  674   0.853   1.140   6.575 -0.6653 -0.0812  0.0954
    6SAPS   C11  675   1.117   1.233   6.451  0.2217  0.2066 -0.6579
    6SAPS  H11A  676   1.092   1.332   6.406 -0.4595  0.4967  0.3271
    6SAPS  H11B  677   1.060   1.157   6.394 -1.6588 -0.5808  2.0867
    6SAPS     P  678   1.326   1.075   6.430  0.3069  0.1669  0.2205
    6SAPS   O13  679   1.469   1.087   6.410 -0.1073  0.0546 -0.3109
    6SAPS   O14  680   1.279   0.998   6.541  0.2980 -0.1975  0.4048
    6SAPS   O12  681   1.259   1.217   6.440  0.7159  0.0455  0.2757
    6SAPS   O11  682   1.259   1.033   6.294  0.1253  0.1419  0.5608
    6SAPS    C1  683   1.286   1.088   6.170 -0.2194 -0.2373  0.7729
    6SAPS    HA  684   1.354   1.176   6.178  1.0816 -1.3393  2.5572
    6SAPS    HB  685   1.338   1.015   6.104 -0.0464  0.2746  0.3349
    6SAPS    C2  686   1.158   1.141   6.097 -0.3060 -0.6073 -1.2294
    6SAPS    HS  687   1.097   1.203   6.166  1.0866 -0.2161 -0.3095
    6SAPS   O21  688   1.092   1.028   6.039  0.0130 -0.0393  0.9207
    6SAPS   C21  689   0.963   1.017   6.013 -0.7009 -0.8510 -0.2313
    6SAPS   O22  690   0.879   1.106   6.026 -0.7074  0.2212 -0.3518
    6SAPS   C22  691   0.933   0.873   5.982  0.8770  0.2167  0.4009
    6SAPS   H2R  692   1.015   0.831   5.920  1.2398 -0.0471  1.0433
    6SAPS   H2S  693   0.933   0.839   6.088 -1.7278  1.3295  0.8433
    6SAPS    C3  694   1.202   1.235   5.976 -0.6578  0.1414 -0.4139
    6SAPS    HX  695   1.231   1.336   6.011  0.4135 -0.7955  1.6167
    6SAPS    HY  696   1.117   1.245   5.905  1.6007  1.3366 -3.1392
    6SAPS   O31  697   1.301   1.161   5.904 -0.2646 -0.1209 -0.6896
    6SAPS   C31  698   1.379   1.235   5.813  0.1598  0.0499  0.6974
    6SAPS   O32  699   1.354   1.345   5.778  0.2613 -0.0909  0.4026
    6SAPS   C32  700   1.507   1.164   5.782  0.1748  0.7580  0.2387
    6SAPS   H2X  701   1.471   1.096   5.703 -2.1225  0.5685  1.3800
    6SAPS   H2Y  702   1.525   1.100   5.872  2.2595 -0.4860 -0.9653
    6SAPS   C23  703   0.792   0.858   5.913 -0.2359  0.1318 -0.1325
    6SAPS   H3R  704   0.713   0.925   5.953  1.6632  2.6837 -0.4107
    6SAPS   H3S  705   0.767   0.750   5.921  0.9802 -0.0216  2.4961
    6SAPS   C24  706   0.790   0.898   5.761 -0.1925 -0.2574  0.0388
    6SAPS   H4R  707   0.704   0.845   5.715  1.1395 -1.7383 -0.8557
    6SAPS   H4S  708   0.865   0.844   5.699 -1.8583 -2.2935 -0.3352
    6SAPS   C25  709   0.776   1.043   5.732 -0.7944  0.3841 -0.1506
    6SAPS   H5R  710   0.679   1.080   5.770 -1.3355 -1.5119  0.4516
    6SAPS   C26  711   0.876   1.121   5.688 -0.6545 -0.2610 -0.5898
    6SAPS   H6R  712   0.857   1.226   5.660 -1.6054 -0.1548  0.3878
    6SAPS   C27  713   1.013   1.075   5.650  0.2270  0.4241 -0.4892
    6SAPS   H7R  714   1.058   0.997   5.715  0.2553  1.5134  0.8384
    6SAPS   H7S  715   1.077   1.157   5.688 -0.6520  0.1579  1.6858
    6SAPS   C28  716   1.040   1.027   5.507  0.6275 -1.2539  1.0657
    6SAPS   H8R  717   0.958   0.976   5.455  0.9443  0.1901 -0.9829
    6SAPS   C29  718   1.143   1.062   5.420  0.4070  0.2479 -0.0002
    6SAPS   H9R  719   1.159   1.001   5.330 -1.2245 -3.3782  1.9697
    6SAPS  C210  720   1.272   1.139   5.447  0.3303 -0.0024  0.2820
    6SAPS  H10R  721   1.352   1.063   5.448  0.2574 -0.1053  2.5134
    6SAPS  H10S  722   1.265   1.186   5.548  0.0797 -2.0071  1.2306
    6SAPS  C211  723   1.292   1.254   5.343 -0.4371  0.1624 -0.6490
    6SAPS  H11R  724   1.262   1.356   5.371 -1.7004 -0.3675  0.0562
    6SAPS  C212  725   1.344   1.241   5.225 -0.4373 -0.0173  0.2469
    6SAPS  H12R  726   1.338   1.329   5.159  3.7263 -0.0044 -0.3421
    6SAPS  C213  727   1.402   1.119   5.155 -0.3856  0.2005 -0.1702
    6SAPS  H13R  728   1.413   1.033   5.224 -0.7382 -0.3916 -0.8418
    6SAPS  H13S  729   1.503   1.144   5.118 -0.4882 -1.2159 -1.5151
    6SAPS  C214  730   1.325   1.077   5.031  0.2197 -0.2535 -0.6139
    6SAPS  H14R  731   1.274   0.981   5.046 -1.1538  0.2498 -1.7925
    6SAPS  C215  732   1.326   1.136   4.911 -0.9615  0.3210  0.1671
    6SAPS  H15R  733   1.258   1.092   4.837 -0.7518  1.0780 -0.4835
    6SAPS  C216  734   1.400   1.265   4.885  0.1092 -0.6674  0.2759
    6SAPS  H16R  735   1.473   1.254   4.802  2.1168 -1.2341  2.0425
    6SAPS  H16S  736   1.461   1.301   4.970  1.4392  1.3886 -1.4304
    6SAPS  C217  737   1.319   1.388   4.849  0.3323 -0.1046  0.1088
    6SAPS  H17R  738   1.243   1.407   4.927  0.5732  0.7900  0.1385
    6SAPS  H17S  739   1.278   1.356   4.750 -0.3767 -0.3675  0.4822
    6SAPS  C218  740   1.389   1.525   4.824  0.3349  0.0454 -0.4201
    6SAPS  H18R  741   1.426   1.574   4.917 -0.8861 -0.2684  0.2439
    6SAPS  H18S  742   1.321   1.586   4.762 -0.2586  0.7840  0.9133
    6SAPS  C219  743   1.518   1.506   4.740  0.4703  0.9788 -0.4717
    6SAPS  H19R  744   1.488   1.441   4.655  1.0102 -0.3138  0.2862
    6SAPS  H19S  745   1.591   1.447   4.801 -0.9513 -0.8326 -0.4454
    6SAPS  C220  746   1.574   1.635   4.675  0.1401  0.8210 -0.3616
    6SAPS  H20R  747   1.490   1.679   4.618 -0.4099  1.1920  0.7020
    6SAPS  H20S  748   1.662   1.617   4.609  0.2389 -1.4365  0.3048
    6SAPS  H20T  749   1.601   1.711   4.752 -0.8276  1.1152 -0.2908
    6SAPS   C33  750   1.619   1.252   5.736  0.0380  0.0871  0.8103
    6SAPS   H3X  751   1.714   1.206   5.771  0.6741  0.0498 -0.8389
    6SAPS   H3Y  752   1.606   1.353   5.779  1.5363  1.1262 -0.9956
    6SAPS   C34  753   1.621   1.275   5.582 -0.1545 -0.5884  0.1300
    6SAPS   H4X  754   1.517   1.304   5.553  0.6563  0.2465 -2.1504
    6SAPS   H4Y  755   1.636   1.177   5.532  0.7555  0.7176 -2.2523
    6SAPS   C35  756   1.712   1.378   5.518  0.0253 -0.3715 -0.4821
    6SAPS   H5X  757   1.820   1.360   5.540 -0.0687 -0.0334  0.2814
    6SAPS   H5Y  758   1.677   1.471   5.567 -0.4407 -0.6214 -0.3384
    6SAPS   C36  759   1.699   1.382   5.368  0.6533  0.6236 -0.4547
    6SAPS   H6X  760   1.593   1.381   5.335 -0.0483  0.0455  1.6182
    6SAPS   H6Y  761   1.747   1.294   5.321 -0.8737 -1.0108  0.9139
    6SAPS   C37  762   1.757   1.510   5.301  0.6992  0.6916  0.3939
    6SAPS   H7X  763   1.863   1.493   5.273  0.7934  0.7037  0.7472
    6SAPS   H7Y  764   1.751   1.598   5.368 -1.3596  0.5440  0.4736
    6SAPS   C38  765   1.679   1.537   5.170 -0.1236 -0.1125 -0.2186
    6SAPS   H8X  766   1.712   1.633   5.123 -0.3915 -0.1813 -0.5484
    6SAPS   H8Y  767   1.572   1.541   5.198  0.3449  2.1910  1.5879
    6SAPS   C39  768   1.699   1.424   5.068  0.7949 -0.6295 -0.1425
    6SAPS   H9X  769   1.611   1.430   5.000  1.0093 -0.4217 -0.4071
    6SAPS   H9Y  770   1.697   1.327   5.121  0.0340  0.0264  1.0816
    6SAPS  C310  771   1.821   1.424   4.971  0.2591 -0.0703  0.6392
    6SAPS  H10X  772   1.914   1.434   5.032  0.5021  3.1265 -0.0962
    6SAPS  H10Y  773   1.817   1.515   4.907 -1.1052 -1.2624 -1.0205
    6SAPS  C311  774   1.831   1.311   4.867  0.1011 -0.1493 -0.3377
    6SAPS  H11X  775   1.743   1.318   4.800 -0.7825 -2.6002  0.4413
    6SAPS  H11Y  776   1.821   1.213   4.918 -0.7346 -0.0094 -0.2167
    6SAPS  C312  777   1.971   1.304   4.794  0.2090 -0.7741 -0.3381
    6SAPS  H12X  778   2.047   1.251   4.857 -1.9258 -1.8789  1.4711
    6SAPS  H12Y  779   2.007   1.407   4.774  0.8991 -0.7187  1.0302
    6SAPS  C313  780   1.957   1.230   4.667  0.4862  0.5210  0.9636
    6SAPS  H13X  781   1.890   1.142   4.678  1.2476 -0.3009 -0.5444
    6SAPS  H13Y  782   2.056   1.189   4.636 -0.0994  0.1867 -0.5644
    6SAPS  C314  783   1.899   1.312   4.547  0.8322  0.3596 -0.5259
    6SAPS  H14X  784   1.960   1.403   4.528  0.5331  0.5854 -0.4114
    6SAPS  H14Y  785   1.797   1.344   4.577  1.2805  0.7875  0.6018
    6SAPS  C315  786   1.902   1.221   4.428 -0.3741  0.8307  0.5514
    6SAPS  H15X  787   1.814   1.153   4.425  1.6506 -1.9606 -0.1534
    6SAPS  H15Y  788   1.985   1.147   4.437  0.6435  2.0781  2.0088
    6SAPS  C316  789   1.907   1.291   4.287 -0.7965 -0.1496 -0.6281
    6SAPS  H16X  790   1.829   1.370   4.278  0.6446  1.2948 -0.9153
    6SAPS  H16Y  791   1.884   1.211   4.214  2.3741 -2.6813  0.8585
    6SAPS  C317  792   2.038   1.353   4.259  0.0403  0.3038  0.0592
    6SAPS  H17X  793   2.121   1.305   4.316 -0.2262  2.4256  2.4144
    6SAPS  H17Y  794   2.046   1.458   4.295 -1.8825  0.5695 -0.1936
    6SAPS  C318  795   2.069   1.348   4.110 -0.5418 -0.3935  0.5225
    6SAPS  H18X  796   2.050   1.246   4.070 -3.2955  0.0334  0.5455
    6SAPS  H18Y  797   2.176   1.370   4.090 -0.6924 -0.8507 -0.9284
    6SAPS  H18Z  798   2.015   1.423   4.048  0.2227 -0.0395  0.2729
    7SAPS     N  799   3.780   6.546   6.553  0.2221  0.3705  0.4184
    7SAPS   HN1  800   3.686   6.510   6.524 -0.1677  0.0183  2.0182
    7SAPS   HN2  801   3.847   6.521   6.478 -2.3410  0.3133 -2.0446
    7SAPS   HN3  802   3.812   6.502   6.641  0.1356 -3.3579 -1.2349
    7SAPS   C12  803   3.774   6.696   6.573 -0.3058 -0.0778  0.3243
    7SAPS  H12A  804   3.772   6.741   6.475  0.2794  1.1900  0.8639
    7SAPS   C13  805   3.643   6.751   6.633  0.0437  0.5058 -0.8460
    7SAPS  O13A  806   3.551   6.668   6.659  0.3089  0.0596 -0.2063
    7SAPS  O13B  807   3.628   6.872   6.673  0.1163  0.3186 -0.3140
    7SAPS   C11  808   3.895   6.751   6.633 -0.2441  0.1750 -0.2235
    7SAPS  H11A  809   3.877   6.751   6.743 -0.3451 -1.0816 -0.2263
    7SAPS  H11B  810   3.908   6.857   6.602 -2.4518 -0.2045 -2.8475
    7SAPS     P  811   4.162   6.731   6.611  0.3503  0.2546  0.2309
    7SAPS   O13  812   4.182   6.823   6.718  1.0275  0.0132  0.0440
    7SAPS   O14  813   4.247   6.612   6.606 -0.5573 -0.6597 -0.1562
    7SAPS   O12  814   4.013   6.664   6.609  0.1475  0.4068 -0.3991
    7SAPS   O11  815   4.173   6.807   6.472  0.0676  0.6346 -0.0377
    7SAPS    C1  816   4.079   6.800   6.367  0.8408  0.4436 -0.2595
    7SAPS    HA  817   4.010   6.714   6.378 -1.3745  2.0558 -0.7791
    7SAPS    HB  818   4.024   6.897   6.372  1.0678  0.5246  1.0251
    7SAPS    C2  819   4.144   6.787   6.233 -0.5715 -0.2865  0.5985
    7SAPS    HS  820   4.202   6.693   6.235 -0.7566 -0.5251 -2.0960
    7SAPS   O21  821   4.211   6.903   6.203 -0.2974 -0.5717 -0.3019
    7SAPS   C21  822   4.325   6.897   6.124  0.3148 -0.4116 -0.0862
    7SAPS   O22  823   4.362   6.793   6.069  0.1082 -0.2827 -0.2901
    7SAPS   C22  824   4.384   7.035   6.089 -0.4179  0.3296  0.0956
    7SAPS   H2R  825   4.455   7.068   6.168 -1.4142  1.0871  0.7027
    7SAPS   H2S  826   4.447   7.026   5.998 -1.9312  0.4452 -0.9993
    7SAPS    C3  827   4.041   6.767   6.125 -0.7082  0.8844  0.1216
    7SAPS    HX  828   3.978   6.857   6.140 -3.1167 -0.6897  0.0174
    7SAPS    HY  829   3.977   6.677   6.139 -0.6305  0.6872 -0.7461
    7SAPS   O31  830   4.095   6.785   5.995  0.3024  0.2048  0.5752
    7SAPS   C31  831   4.134   6.679   5.936 -0.7362  0.6002  0.8248
    7SAPS   O32  832   4.132   6.565   5.981 -0.1774  0.1617 -0.8314
    7SAPS   C32  833   4.182   6.698   5.797 -0.6207 -0.2077  0.4071
    7SAPS   H2X  834   4.218   6.802   5.785  0.4998 -0.8352 -2.4434
    7SAPS   H2Y  835   4.091   6.690   5.733 -0.2500  1.1850 -0.3450
    7SAPS   C23  836   4.281   7.151   6.062 -0.3485  0.5197 -0.1004
    7SAPS   H3R  837   4.332   7.249   6.072  0.4109  0.1075  0.0552
    7SAPS   H3S  838   4.197   7.142   6.134  0.3399 -0.8584  0.5630
    7SAPS   C24  839   4.229   7.157   5.922 -0.2838  0.3488  0.6837
    7SAPS   H4R  840   4.151   7.082   5.898 -0.6337  1.2988 -1.3292
    7SAPS   H4S  841   4.314   7.127   5.857 -0.3678 -0.0022  0.7379
    7SAPS   C25  842   4.170   7.290   5.876 -0.2590 -0.8795 -0.1359
    7SAPS   H5R  843   4.125   7.346   5.959 -0.9463 -3.5644  1.4114
    7SAPS   C26  844   4.162   7.342   5.755 -0.3430  0.0244 -0.5051
    7SAPS   H6R  845   4.114   7.440   5.739 -0.1028  0.1531 -0.4411
    7SAPS   C27  846   4.229   7.275   5.641 -0.5836  0.3335 -0.4480
    7SAPS   H7R  847   4.243   7.165   5.649  0.2994  0.2184 -2.7342
    7SAPS   H7S  848   4.333   7.310   5.627 -0.4196  0.4067  0.8136
    7SAPS   C28  849   4.142   7.302   5.525 -0.1912  0.4003 -0.1260
    7SAPS   H8R  850   4.034   7.281   5.531  0.0573 -0.9094  0.2755
    7SAPS   C29  851   4.187   7.355   5.410 -0.7910 -0.1257 -1.2398
    7SAPS   H9R  852   4.104   7.370   5.340 -1.4358  2.4723 -0.0621
    7SAPS  C210  853   4.329   7.398   5.371  0.2615  0.0028 -0.5412
    7SAPS  H10R  854   4.340   7.418   5.263 -3.5017 -0.9667 -1.2407
    7SAPS  H10S  855   4.401   7.315   5.382  0.7477  0.2602 -1.6509
    7SAPS  C211  856   4.394   7.514   5.438  0.3683 -0.0994  0.1440
    7SAPS  H11R  857   4.429   7.483   5.537 -1.4572 -1.0763  0.5213
    7SAPS  C212  858   4.400   7.642   5.394 -0.3789 -0.3020  0.4563
    7SAPS  H12R  859   4.443   7.709   5.470 -1.0117 -0.2539  0.7808
    7SAPS  C213  860   4.354   7.704   5.266 -0.1981  0.9310  0.0618
    7SAPS  H13R  861   4.326   7.810   5.285  0.0135  0.8365  0.9201
    7SAPS  H13S  862   4.264   7.647   5.235  0.2106 -0.6791  1.6681
    7SAPS  C214  863   4.442   7.681   5.140 -0.0964 -0.8204 -0.0349
    7SAPS  H14R  864   4.526   7.610   5.149 -0.9131 -1.7008  0.9347
    7SAPS  C215  865   4.439   7.760   5.026 -0.2397 -0.0197  0.7988
    7SAPS  H15R  866   4.498   7.731   4.938  1.6352 -0.6392  2.1869
    7SAPS  C216  867   4.347   7.881   5.006  0.2387  0.3709  0.4153
    7SAPS  H16R  868   4.407   7.973   5.024 -0.1380  0.5652  0.7005
    7SAPS  H16S  869   4.257   7.871   5.071 -0.4667 -2.0763 -0.8203
    7SAPS  C217  870   4.289   7.901   4.861  0.4994  0.4644  0.2765
    7SAPS  H17R  871   4.216   7.985   4.870  0.3891  0.3374  0.5599
    7SAPS  H17S  872   4.235   7.812   4.822 -0.8515  2.1339 -1.9496
    7SAPS  C218  873   4.396   7.944   4.759  0.2393  0.5831  0.6734
    7SAPS  H18R  874   4.474   7.866   4.775 -1.8394 -1.2027  2.7598
    7SAPS  H18S  875   4.448   8.038   4.787 -0.0245  1.5129 -1.7354
    7SAPS  C219  876   4.338   7.954   4.618  0.2866 -0.3744  0.3971
    7SAPS  H19R  877   4.251   8.023   4.619  0.7074  0.2259 -1.3221
    7SAPS  H19S  878   4.309   7.851   4.590  0.7662 -0.6237  0.8043
    7SAPS  C220  879   4.439   8.022   4.518 -0.5274  0.3255 -0.7578
    7SAPS  H20R  880   4.385   8.030   4.421 -0.7639 -2.2292 -0.9043
    7SAPS  H20S  881   4.531   7.961   4.514  1.1194  2.6903 -0.8866
    7SAPS  H20T  882   4.480   8.120   4.551  3.9378 -0.9599 -1.7678
    7SAPS   C33  883   4.291   6.609   5.742 -0.6383 -0.0528 -0.1700
    7SAPS   H3X  884   4.279   6.500   5.761 -0.1329 -0.3878 -1.6011
    7SAPS   H3Y  885   4.393   6.633   5.777 -1.7905  0.9372  2.7976
    7SAPS   C34  886   4.276   6.630   5.588  0.4422 -0.0116  0.1800
    7SAPS   H4X  887   4.187   6.572   5.554  3.4802 -3.5540 -2.6179
    7SAPS   H4Y  888   4.359   6.572   5.542  0.6335  0.8839 -0.6319
    7SAPS   C35  889   4.287   6.778   5.534 -0.0663  0.4386 -0.1747
    7SAPS   H5X  890   4.370   6.832   5.584  1.1057 -0.5167 -1.0041
    7SAPS   H5Y  891   4.191   6.825   5.561 -1.6051 -2.2517 -0.5443
    7SAPS   C36  892   4.297   6.782   5.381 -0.4285 -0.2265  0.3718
    7SAPS   H6X  893   4.202   6.748   5.336 -0.6017  0.3362  0.3021
    7SAPS   H6Y  894   4.378   6.712   5.352 -0.0097  1.1739 -2.1979
    7SAPS   C37  895   4.327   6.929   5.341 -0.2166  0.2615 -0.6188
    7SAPS   H7X  896   4.421   6.965   5.386  0.3195 -1.8861  0.1212
    7SAPS   H7Y  897   4.244   6.994   5.375  1.9714  2.1221  1.5683
    7SAPS   C38  898   4.342   6.944   5.187  0.8747  0.0895 -0.0463
    7SAPS   H8X  899   4.258   6.883   5.149  1.0295  0.5349 -1.1240
    7SAPS   H8Y  900   4.434   6.888   5.161  0.8455 -1.1239  2.2108
    7SAPS   C39  901   4.353   7.080   5.124  0.8608 -0.3527  0.1286
    7SAPS   H9X  902   4.430   7.138   5.179 -2.4684  2.4798  2.2715
    7SAPS   H9Y  903   4.254   7.128   5.141  0.6944 -0.4051 -0.6818
    7SAPS  C310  904   4.377   7.076   4.971  0.1092  0.1636  0.0273
    7SAPS  H10X  905   4.296   7.023   4.916  1.3227 -1.5285 -0.2067
    7SAPS  H10Y  906   4.462   7.004   4.964  0.1982  0.0862  1.5331
    7SAPS  C311  907   4.401   7.212   4.920 -0.3747 -0.1093  0.1451
    7SAPS  H11X  908   4.429   7.202   4.812 -2.8688 -0.7601 -0.5066
    7SAPS  H11Y  909   4.480   7.265   4.976  0.0548 -0.7699  0.1862
    7SAPS  C312  910   4.271   7.292   4.925  0.2280  0.2475  0.0232
    7SAPS  H12X  911   4.230   7.311   5.026 -1.9448 -0.8906 -0.5963
    7SAPS  H12Y  912   4.190   7.241   4.868 -0.7923 -0.0572  1.6775
    7SAPS  C313  913   4.290   7.433   4.872  0.0904  0.3079  0.0575
    7SAPS  H13X  914   4.378   7.483   4.916 -0.1104 -0.5048  1.4680
    7SAPS  H13Y  915   4.202   7.494   4.902  1.4540  1.8860  0.9938
    7SAPS  C314  916   4.305   7.438   4.719  0.6165 -0.2375  0.5081
    7SAPS  H14X  917   4.351   7.352   4.667 -0.8749 -0.3972 -0.6094
    7SAPS  H14Y  918   4.375   7.522   4.698 -0.0680  0.5812  1.4395
    7SAPS  C315  919   4.168   7.467   4.644 -0.8043 -0.4332 -0.7726
    7SAPS  H15X  920   4.120   7.564   4.670 -1.4637 -0.7246 -0.8751
    7SAPS  H15Y  921   4.105   7.379   4.667 -0.9759  0.3119  2.0714
    7SAPS  C316  922   4.184   7.476   4.491 -0.5528  0.2367 -0.2452
    7SAPS  H16X  923   4.245   7.389   4.458  0.1531 -0.6762  3.0820
    7SAPS  H16Y  924   4.242   7.571   4.485 -0.5663  0.3067  0.5794
    7SAPS  C317  925   4.051   7.493   4.421  0.1223 -0.0170 -0.8328
    7SAPS  H17X  926   4.076   7.539   4.323  1.8955 -2.2900 -1.5377
    7SAPS  H17Y  927   3.990   7.563   4.483  2.5901  2.1268 -0.6353
    7SAPS  C318  928   3.964   7.371   4.416  0.5061  0.5564  0.2760
    7SAPS  H18X  929   3.958   7.318   4.513 -0.2484 -0.8202 -0.4839
    7SAPS  H18Y  930   4.013   7.305   4.341 -0.4850  0.3823 -0.2362
    7SAPS  H18Z  931   3.861   7.389   4.378  0.3335 -2.3407 -0.8596
    8SAPS     N  932   3.103   2.781   6.980  0.6307 -0.4296  0.8061
    8SAPS   HN1  933   3.046   2.862   7.011 -1.3252 -0.7345 -1.7084
    8SAPS   HN2  934   3.128   2.729   7.067  1.1561 -2.1105 -0.3177
    8SAPS   HN3  935   3.192   2.809   6.935  0.3208  0.4011  0.6927
    8SAPS   C12  936   3.013   2.703   6.880  0.0620 -0.2349  0.1261
    8SAPS  H12A  937   3.063   2.609   6.863  0.3701  0.1672 -1.4005
    8SAPS   C13  938   2.864   2.681   6.941 -0.0586 -0.1339 -0.5585
    8SAPS  O13A  939   2.836   2.729   7.054  0.5062 -1.1980  0.2083
    8SAPS  O13B  940   2.778   2.617   6.870 -0.0949 -0.5152  0.6275
    8SAPS   C11  941   3.002   2.798   6.753 -0.3503  0.2907 -0.5532
    8SAPS  H11A  942   2.963   2.898   6.785  3.4675  2.0704 -0.9786
    8SAPS  H11B  943   2.929   2.755   6.681 -1.0202  1.3083 -0.5152
    8SAPS     P  944   3.193   2.708   6.601 -0.6424 -0.1255  0.1697
    8SAPS   O13  945   3.289   2.773   6.512  0.2489  0.2319  0.3002
    8SAPS   O14  946   3.245   2.594   6.682  0.5638 -0.0310  0.1873
    8SAPS   O12  947   3.126   2.816   6.691  0.1846 -0.9999  0.0524
    8SAPS   O11  948   3.084   2.642   6.506 -0.2714 -0.2358  1.0926
    8SAPS    C1  949   3.013   2.521   6.539  0.2303  0.1573  0.4040
    8SAPS    HA  950   3.083   2.435   6.542  1.2799  0.9607 -0.3660
    8SAPS    HB  951   2.973   2.524   6.643 -0.4707 -1.0259  0.1825
    8SAPS    C2  952   2.881   2.506   6.455  0.3737 -1.0422  0.0825
    8SAPS    HS  953   2.814   2.436   6.509 -1.4386  0.4291 -0.1727
    8SAPS   O21  954   2.907   2.456   6.323 -0.0034 -0.4946 -0.4963
    8SAPS   C21  955   2.947   2.332   6.316  0.2314  0.0978  0.1097
    8SAPS   O22  956   2.958   2.255   6.413  0.4749  0.3318  0.3629
    8SAPS   C22  957   2.977   2.299   6.170 -0.0434  0.2924 -0.3276
    8SAPS   H2R  958   2.881   2.301   6.114  0.6366  2.3193 -1.5707
    8SAPS   H2S  959   3.037   2.383   6.128  0.1504  1.4259  2.0280
    8SAPS    C3  960   2.810   2.642   6.433  0.4966 -0.3818 -0.0166
    8SAPS    HX  961   2.882   2.716   6.391 -1.7346  1.9730  0.0360
    8SAPS    HY  962   2.788   2.688   6.532  2.5417  2.0939 -0.5845
    8SAPS   O31  963   2.696   2.623   6.345 -0.0914  0.0865 -0.1806
    8SAPS   C31  964   2.590   2.567   6.393  0.1626 -0.5912  0.0427
    8SAPS   O32  965   2.580   2.514   6.507 -0.1418 -0.4913 -0.3708
    8SAPS   C32  966   2.482   2.572   6.292  0.1177 -0.1561 -0.8181
    8SAPS   H2X  967   2.404   2.645   6.323  1.7909  1.0102  0.8750
    8SAPS   H2Y  968   2.426   2.475   6.295 -0.6091  0.2282 -1.4768
    8SAPS   C23  969   3.063   2.173   6.160  0.3242  0.5393  0.4767
    8SAPS   H3R  970   3.012   2.085   6.203  0.5398  0.0249 -0.3079
    8SAPS   H3S  971   3.154   2.195   6.219 -0.9372  0.2270  2.6435
    8SAPS   C24  972   3.095   2.137   6.016 -0.5101  0.2586 -0.1869
    8SAPS   H4R  973   3.174   2.059   6.016 -0.4627  0.3026  0.2099
    8SAPS   H4S  974   3.138   2.227   5.967  0.8034  0.4895  1.3266
    8SAPS   C25  975   2.973   2.081   5.949  0.6057 -0.0542  0.4353
    8SAPS   H5R  976   2.881   2.075   6.008  1.4128  0.3704  1.7772
    8SAPS   C26  977   2.968   2.039   5.819  0.4155  0.0445 -0.9544
    8SAPS   H6R  978   2.870   2.014   5.777 -0.4867  0.2840  0.9407
    8SAPS   C27  979   3.074   2.047   5.717 -0.7628 -0.2604 -0.0708
    8SAPS   H7R  980   3.066   1.958   5.651  0.3823 -0.8712  0.5851
    8SAPS   H7S  981   3.180   2.054   5.750 -0.9630 -3.2153  1.5228
    8SAPS   C28  982   3.065   2.178   5.639 -0.3172  0.3209  0.5878
    8SAPS   H8R  983   3.034   2.262   5.703  3.5428  1.2816  1.4306
    8SAPS   C29  984   3.105   2.203   5.515 -0.6056 -0.6980  0.0542
    8SAPS   H9R  985   3.075   2.299   5.472  1.3578 -0.2824 -0.4748
    8SAPS  C210  986   3.165   2.101   5.424  0.2288  0.1781 -0.5158
    8SAPS  H10R  987   3.100   2.045   5.354  0.8702  0.2372 -1.1758
    8SAPS  H10S  988   3.209   2.022   5.489  0.7812 -0.6354 -1.8351
    8SAPS  C211  989   3.283   2.159   5.360 -0.4649 -0.4974 -0.2159
    8SAPS  H11R  990   3.361   2.201   5.425 -0.5497  0.7967 -0.9081
    8SAPS  C212  991   3.314   2.153   5.227 -0.2768 -0.9976  0.6717
    8SAPS  H12R  992   3.403   2.210   5.197 -0.8201 -0.9042 -0.8649
    8SAPS  C213  993   3.247   2.075   5.111  0.0616  0.8487 -0.2161
    8SAPS  H13R  994   3.242   2.136   5.018  1.9445  0.9256 -0.3105
    8SAPS  H13S  995   3.139   2.067   5.135  0.8587 -1.0350  3.4406
    8SAPS  C214  996   3.310   1.944   5.075 -0.5515  0.2631  0.4965
    8SAPS  H14R  997   3.275   1.851   5.122  0.0367 -1.1494 -1.6729
    8SAPS  C215  998   3.417   1.930   4.985  0.3147 -0.3217  0.3741
    8SAPS  H15R  999   3.457   1.831   4.958 -0.2396  0.1985 -2.6976
    8SAPS  C216 1000   3.479   2.050   4.917 -0.6683 -0.0004  0.1478
    8SAPS  H16R 1001   3.563   2.095   4.974 -1.0200  1.3270 -0.3307
    8SAPS  H16S 1002   3.400   2.127   4.902 -1.7900 -0.7865  1.7851
    8SAPS  C217 1003   3.524   2.007   4.777 -0.0302 -1.0945 -0.6849
    8SAPS  H17R 1004   3.449   1.963   4.709  0.1610 -1.8836 -0.3984
    8SAPS  H17S 1005   3.605   1.933   4.789  0.2734 -0.7636 -0.6918
    8SAPS  C218 1006   3.575   2.131   4.699 -0.2917  1.0040  0.4130
    8SAPS  H18R 1007   3.626   2.088   4.610 -1.2827  0.4074  0.1193
    8SAPS  H18S 1008   3.649   2.191   4.756 -1.9694  3.0086  0.6097
    8SAPS  C219 1009   3.462   2.221   4.638 -0.1901  0.0178 -0.0160
    8SAPS  H19R 1010   3.403   2.266   4.721  1.1761  1.5304  0.1856
    8SAPS  H19S 1011   3.390   2.160   4.579 -0.2118  0.2643 -0.2459
    8SAPS  C220 1012   3.521   2.342   4.563 -0.2877 -0.3776  0.6050
    8SAPS  H20R 1013   3.590   2.300   4.487 -1.1525 -0.2543 -0.2759
    8SAPS  H20S 1014   3.581   2.403   4.633 -1.9505  1.3214  0.6373
    8SAPS  H20T 1015   3.447   2.414   4.520  0.4625 -0.3633 -0.7200
    8SAPS   C33 1016   2.528   2.610   6.154  0.1493 -0.1507 -0.5589
    8SAPS   H3X 1017   2.581   2.708   6.158 -2.6222  1.4065  0.5996
    8SAPS   H3Y 1018   2.439   2.639   6.095  0.1517  0.2696 -0.3621
    8SAPS   C34 1019   2.604   2.493   6.083  0.2117 -0.6375  0.1863
    8SAPS   H4X 1020   2.571   2.396   6.127 -0.5858 -0.5559 -0.2314
    8SAPS   H4Y 1021   2.714   2.490   6.100  0.1699 -2.2292  0.3172
    8SAPS   C35 1022   2.580   2.491   5.932  0.5992 -0.1386  0.1942
    8SAPS   H5X 1023   2.622   2.587   5.895  2.1916 -0.8969 -0.0584
    8SAPS   H5Y 1024   2.471   2.474   5.917  1.0804 -4.5254  0.3236
    8SAPS   C36 1025   2.648   2.371   5.862  0.2490  0.8183  0.1405
    8SAPS   H6X 1026   2.625   2.276   5.915  0.7404  1.5053  1.6531
    8SAPS   H6Y 1027   2.758   2.365   5.873  0.2838 -1.3515 -0.8799
    8SAPS   C37 1028   2.593   2.362   5.720  0.3036  0.4867  0.3935
    8SAPS   H7X 1029   2.598   2.468   5.686 -1.3275  0.6781  0.6715
    8SAPS   H7Y 1030   2.483   2.347   5.722  0.1580  1.2246 -0.9201
    8SAPS   C38 1031   2.671   2.279   5.619 -0.3655 -0.5679 -0.0364
    8SAPS   H8X 1032   2.674   2.174   5.654  3.8389  0.1715  2.4523
    8SAPS   H8Y 1033   2.774   2.320   5.622 -1.3201  1.9970  2.7753
    8SAPS   C39 1034   2.611   2.276   5.477 -0.2885  0.6413 -0.1998
    8SAPS   H9X 1035   2.502   2.288   5.498 -0.9265  1.8435 -3.5446
    8SAPS   H9Y 1036   2.635   2.179   5.430 -0.7502  0.3432  0.1718
    8SAPS  C310 1037   2.664   2.377   5.382  0.2269 -0.2267 -0.2971
    8SAPS  H10X 1038   2.775   2.371   5.379  0.2018 -0.8861  0.0607
    8SAPS  H10Y 1039   2.638   2.479   5.419  0.9527  0.7773 -2.3927
    8SAPS  C311 1040   2.612   2.359   5.235 -0.5326 -0.6738  0.1270
    8SAPS  H11X 1041   2.512   2.407   5.229  0.0937  0.5594 -0.8943
    8SAPS  H11Y 1042   2.618   2.254   5.200  1.7953 -1.2062  1.8491
    8SAPS  C312 1043   2.713   2.432   5.137 -0.8533 -0.0649 -0.2073
    8SAPS  H12X 1044   2.814   2.388   5.146 -1.8628 -2.6771 -0.8807
    8SAPS  H12Y 1045   2.716   2.537   5.174 -1.7160  0.3881 -1.3644
    8SAPS  C313 1046   2.675   2.417   4.995 -1.0803  0.2550  0.0227
    8SAPS  H13X 1047   2.586   2.478   4.967 -0.6867  0.3933 -0.9649
    8SAPS  H13Y 1048   2.659   2.307   4.986  0.7922  0.0247 -1.0123
    8SAPS  C314 1049   2.786   2.457   4.897  0.5147  0.1078  0.4940
    8SAPS  H14X 1050   2.877   2.394   4.901 -0.1223 -0.8008  1.2291
    8SAPS  H14Y 1051   2.815   2.564   4.897  0.5008  0.1392 -0.8654
    8SAPS  C315 1052   2.741   2.431   4.745  0.1755  0.2122  1.1238
    8SAPS  H15X 1053   2.655   2.495   4.714 -0.2833 -0.8890  0.0522
    8SAPS  H15Y 1054   2.707   2.326   4.736  0.4746 -0.1166  3.2418
    8SAPS  C316 1055   2.849   2.447   4.641 -0.2627 -0.8358  0.5594
    8SAPS  H16X 1056   2.938   2.398   4.686  1.4148  1.3617 -0.2264
    8SAPS  H16Y 1057   2.868   2.554   4.620 -2.0369 -0.7925 -1.1454
    8SAPS  C317 1058   2.806   2.382   4.508  0.3258 -0.6170  0.4496
    8SAPS  H17X 1059   2.697   2.397   4.492  0.5210 -0.0341 -0.3718
    8SAPS  H17Y 1060   2.836   2.275   4.509 -0.9513 -1.0383 -1.3893
    8SAPS  C318 1061   2.867   2.433   4.368  0.2184 -0.3064  0.1780
    8SAPS  H18X 1062   2.807   2.393   4.283 -1.5170  0.7560  0.8534
    8SAPS  H18Y 1063   2.970   2.396   4.349  0.9626  1.9895 -0.4954
    8SAPS  H18Z 1064   2.875   2.543   4.363  0.7281 -0.2356  1.8827
    9SAPS     N 1065   3.395   0.113   6.655 -0.3362 -0.0971 -0.7194
    9SAPS   HN1 1066   3.494   0.088   6.675 -1.1515 -2.4531  0.9228
    9SAPS   HN2 1067   3.357   0.032   6.601 -0.4782 -0.1823 -0.4941
    9SAPS   HN3 1068   3.396   0.196   6.593 -2.4447 -0.8669 -1.8808
    9SAPS   C12 1069   3.314   0.131   6.782  0.5106 -0.2722 -0.3428
    9SAPS  H12A 1070   3.371   0.078   6.857  0.1656  1.1614  0.9622
    9SAPS   C13 1071   3.299   0.280   6.837  0.3105 -0.2151 -0.7017
    9SAPS  O13A 1072   3.349   0.371   6.768 -0.8548  0.0205  0.1034
    9SAPS  O13B 1073   3.236   0.306   6.939  0.7387 -0.4039  0.1273
    9SAPS   C11 1074   3.171   0.072   6.753 -0.0066 -0.5022 -0.1464
    9SAPS  H11A 1075   3.137   0.120   6.659  0.7017  1.0091  0.3394
    9SAPS  H11B 1076   3.112   0.097   6.843 -0.8373 -1.2829 -0.4536
    9SAPS     P 1077   3.172  -0.157   6.607 -0.6323  0.4336  0.0732
    9SAPS   O13 1078   3.273  -0.111   6.511  0.5473  0.4099 -0.1574
    9SAPS   O14 1079   3.176  -0.303   6.643  0.4937 -0.3068  0.5087
    9SAPS   O12 1080   3.178  -0.071   6.740 -0.3847  0.4870  0.1934
    9SAPS   O11 1081   3.026  -0.127   6.553 -0.1676 -0.0013 -0.1720
    9SAPS    C1 1082   2.952  -0.233   6.487  0.0383 -0.2551  0.0170
    9SAPS    HA 1083   2.973  -0.333   6.530 -0.8716  0.0939  1.3641
    9SAPS    HB 1084   2.844  -0.205   6.490 -0.5912 -2.3717 -1.1741
    9SAPS    C2 1085   2.993  -0.249   6.341  0.3892 -0.7811 -0.3062
    9SAPS    HS 1086   3.104  -0.246   6.333  0.4776  3.4954  0.4419
    9SAPS   O21 1087   2.936  -0.133   6.271 -0.2498 -0.2138  0.2018
    9SAPS   C21 1088   3.026  -0.079   6.182  0.0269  0.3467  0.4681
    9SAPS   O22 1089   3.139  -0.128   6.153  0.7131 -0.1310 -0.5628
    9SAPS   C22 1090   2.968   0.043   6.114 -0.0028 -0.7390 -0.0259
    9SAPS   H2R 1091   2.857   0.040   6.127 -0.0888  0.6749 -0.2710
    9SAPS   H2S 1092   3.005   0.129   6.173 -1.0215 -0.6674  0.5417
    9SAPS    C3 1093   2.940  -0.376   6.267  0.7581 -0.4262 -0.1343
    9SAPS    HX 1094   2.830  -0.370   6.276  0.6817 -2.9057  1.7365
    9SAPS    HY 1095   2.960  -0.472   6.320 -2.2156 -0.5985  0.8651
    9SAPS   O31 1096   2.982  -0.374   6.129 -0.2002 -0.1864 -0.1395
    9SAPS   C31 1097   3.115  -0.402   6.112  0.2961  0.1662 -0.4951
    9SAPS   O32 1098   3.181  -0.446   6.206  0.8952 -0.0950  0.2973
    9SAPS   C32 1099   3.167  -0.374   5.973  0.3215 -0.4607 -0.1821
    9SAPS   H2X 1100   3.119  -0.279   5.943  1.1408 -0.0084 -0.1059
    9SAPS   H2Y 1101   3.137  -0.464   5.915  2.2482 -0.2385 -1.6113
    9SAPS   C23 1102   2.994   0.044   5.957 -0.1737 -0.3493  0.0733
    9SAPS   H3R 1103   2.957  -0.055   5.922 -2.1443  0.2627  0.3046
    9SAPS   H3S 1104   3.102   0.067   5.943 -0.7040  1.5840 -1.1312
    9SAPS   C24 1105   2.913   0.151   5.879 -0.3050  0.1412 -0.1418
    9SAPS   H4R 1106   2.961   0.174   5.781  1.8039 -0.8422  0.5876
    9SAPS   H4S 1107   2.916   0.236   5.950 -1.7334  0.3119 -0.2696
    9SAPS   C25 1108   2.769   0.135   5.864  0.6360  0.2399 -0.4808
    9SAPS   H5R 1109   2.713   0.129   5.959  0.0617  0.6266 -0.7859
    9SAPS   C26 1110   2.700   0.125   5.747 -0.3017 -0.3645 -0.0487
    9SAPS   H6R 1111   2.594   0.099   5.739 -0.3645  0.1161 -0.8460
    9SAPS   C27 1112   2.764   0.138   5.616 -0.4773  0.3554  0.0201
    9SAPS   H7R 1113   2.842   0.217   5.609 -0.2305  0.0901 -0.2729
    9SAPS   H7S 1114   2.685   0.166   5.543  0.5730  1.0077 -0.9082
    9SAPS   C28 1115   2.835   0.012   5.577  0.1506 -0.6155 -0.1454
    9SAPS   H8R 1116   2.843  -0.061   5.659  1.5676 -0.1079  0.1889
    9SAPS   C29 1117   2.893  -0.010   5.458  0.3796 -0.1260  0.6960
    9SAPS   H9R 1118   2.947  -0.105   5.445  1.9596  0.8687 -0.4495
    9SAPS  C210 1119   2.908   0.097   5.353  0.0226  0.1945 -0.2378
    9SAPS  H10R 1120   3.012   0.110   5.316 -0.0044  3.1290  0.5054
    9SAPS  H10S 1121   2.893   0.201   5.387 -2.0933  0.9046 -2.9746
    9SAPS  C211 1122   2.823   0.079   5.225  0.4226 -0.1917 -0.9631
    9SAPS  H11R 1123   2.713   0.082   5.234  0.4725  0.8665 -0.5585
    9SAPS  C212 1124   2.872   0.051   5.099  0.1524  0.1604 -0.2483
    9SAPS  H12R 1125   2.799   0.053   5.018 -1.2840 -0.3688  0.9844
    9SAPS  C213 1126   3.019   0.066   5.055 -0.9481 -0.6309  0.1962
    9SAPS  H13R 1127   3.075  -0.026   5.080  0.0045 -0.4204 -1.0617
    9SAPS  H13S 1128   3.054   0.154   5.112 -1.8541 -0.7521  0.9712
    9SAPS  C214 1129   3.029   0.091   4.903  0.1671  0.1022  0.9142
    9SAPS  H14R 1130   3.066   0.192   4.879  0.1329 -0.1145 -0.0731
    9SAPS  C215 1131   3.002   0.011   4.805 -0.1702  0.2598  1.0606
    9SAPS  H15R 1132   3.001   0.050   4.702  0.9639 -0.3288  0.8174
    9SAPS  C216 1133   2.957  -0.127   4.818 -0.2508  0.1117  0.1980
    9SAPS  H16R 1134   2.881  -0.152   4.742  0.7933 -1.1794 -0.4536
    9SAPS  H16S 1135   2.912  -0.134   4.920 -1.2508  2.0076 -0.0596
    9SAPS  C217 1136   3.076  -0.226   4.796  0.0541  0.7631  0.3132
    9SAPS  H17R 1137   3.022  -0.321   4.816  0.3791  0.2629 -1.0558
    9SAPS  H17S 1138   3.156  -0.210   4.871  1.2864 -0.0715 -0.7834
    9SAPS  C218 1139   3.131  -0.226   4.651 -1.0062  0.4557 -0.1771
    9SAPS  H18R 1140   3.159  -0.120   4.635  2.6589 -0.5747 -1.7759
    9SAPS  H18S 1141   3.052  -0.246   4.576  0.7615 -1.4023 -1.6615
    9SAPS  C219 1142   3.258  -0.307   4.623  0.2783 -0.0926 -0.1042
    9SAPS  H19R 1143   3.292  -0.343   4.723 -0.6120 -2.1130 -0.4794
    9SAPS  H19S 1144   3.336  -0.244   4.576 -0.1910  1.2781  0.9073
    9SAPS  C220 1145   3.241  -0.434   4.535 -0.0207  0.1427 -0.5987
    9SAPS  H20R 1146   3.186  -0.411   4.441  0.2378  0.6845 -0.6171
    9SAPS  H20S 1147   3.171  -0.500   4.592 -0.9092  0.3195 -1.4650
    9SAPS  H20T 1148   3.335  -0.492   4.531  1.2567  1.7864  2.3306
    9SAPS   C33 1149   3.324  -0.358   5.972  0.3447 -0.8535  0.0325
    9SAPS   H3X 1150   3.355  -0.465   5.973 -0.3511 -1.0583 -0.4452
    9SAPS   H3Y 1151   3.367  -0.312   6.064  2.1558 -2.5460  0.1008
    9SAPS   C34 1152   3.378  -0.285   5.844  0.4335  0.4227  0.2842
    9SAPS   H4X 1153   3.325  -0.329   5.756  1.8315  1.1613 -0.9810
    9SAPS   H4Y 1154   3.481  -0.320   5.822 -1.3117 -3.5204 -2.8294
    9SAPS   C35 1155   3.369  -0.130   5.849  0.4793  0.3072  0.2063
    9SAPS   H5X 1156   3.401  -0.085   5.945 -0.9393 -0.3354  1.0134
    9SAPS   H5Y 1157   3.260  -0.107   5.853  0.9647  2.8641  0.0609
    9SAPS   C36 1158   3.426  -0.068   5.721 -0.9282  0.2285 -0.1394
    9SAPS   H6X 1159   3.407  -0.152   5.650  1.0169 -0.6783  0.3602
    9SAPS   H6Y 1160   3.536  -0.060   5.732 -0.7875 -1.0077 -0.4882
    9SAPS   C37 1161   3.357   0.062   5.691 -0.2559  0.4929  0.3819
    9SAPS   H7X 1162   3.372   0.151   5.755 -0.6065  2.2305 -1.8069
    9SAPS   H7Y 1163   3.246   0.049   5.688 -0.0468 -1.4014 -1.1707
    9SAPS   C38 1164   3.415   0.105   5.560  0.4884 -0.3440  0.0658
    9SAPS   H8X 1165   3.402   0.027   5.482 -0.2492  0.1466 -0.3135
    9SAPS   H8Y 1166   3.523   0.130   5.570  0.3400 -0.3403  2.0125
    9SAPS   C39 1167   3.329   0.224   5.509 -0.5069 -0.0721 -0.1057
    9SAPS   H9X 1168   3.325   0.313   5.576  1.6148 -1.1042  1.5179
    9SAPS   H9Y 1169   3.223   0.195   5.498 -0.6439  0.8275 -1.3645
    9SAPS  C310 1170   3.384   0.270   5.376  0.7272 -0.4426 -0.1035
    9SAPS  H10X 1171   3.389   0.188   5.302  1.8750 -2.4216  2.0318
    9SAPS  H10Y 1172   3.489   0.305   5.383  0.1475  1.2271  0.6677
    9SAPS  C311 1173   3.285   0.379   5.321  0.2004 -0.6473  0.6967
    9SAPS  H11X 1174   3.265   0.451   5.403 -1.5343 -1.1952  0.7854
    9SAPS  H11Y 1175   3.193   0.329   5.286  0.5187 -0.7273 -0.0525
    9SAPS  C312 1176   3.344   0.470   5.206 -0.5847 -0.1263  0.1076
    9SAPS  H12X 1177   3.410   0.411   5.139 -0.9873 -0.4076 -0.0397
    9SAPS  H12Y 1178   3.397   0.553   5.258 -0.3552 -0.0620 -0.2224
    9SAPS  C313 1179   3.243   0.532   5.114  0.8070  0.8570  0.0836
    9SAPS  H13X 1180   3.264   0.633   5.074 -0.2304  0.5476 -1.3520
    9SAPS  H13Y 1181   3.143   0.539   5.163 -0.3748 -1.5347 -1.7579
    9SAPS  C314 1182   3.233   0.457   4.982 -0.0483  0.3179  0.5378
    9SAPS  H14X 1183   3.235   0.348   5.003 -0.3306  0.5839  2.0519
    9SAPS  H14Y 1184   3.320   0.481   4.918 -1.0337 -1.0250 -1.4332
    9SAPS  C315 1185   3.105   0.487   4.916  0.0415 -0.1506  0.3578
    9SAPS  H15X 1186   3.088   0.439   4.817  0.9819 -3.7920  1.8316
    9SAPS  H15Y 1187   3.109   0.597   4.896 -1.1888 -0.1608 -0.0231
    9SAPS  C316 1188   2.966   0.454   4.979 -0.0697 -0.3440  0.2494
    9SAPS  H16X 1189   2.955   0.519   5.068 -0.7668  2.5536 -1.8020
    9SAPS  H16Y 1190   2.958   0.349   5.014 -0.4508 -0.0655  1.0042
    9SAPS  C317 1191   2.848   0.474   4.890  0.0417  0.2161  0.4827
    9SAPS  H17X 1192   2.760   0.437   4.946 -0.2386 -0.4113 -0.3439
    9SAPS  H17Y 1193   2.857   0.410   4.799  0.6096  1.5818 -0.4530
    9SAPS  C318 1194   2.827   0.619   4.854 -0.8508 -0.3958  0.3033
    9SAPS  H18X 1195   2.789   0.676   4.941  0.1872  1.0495 -0.1554
    9SAPS  H18Y 1196   2.758   0.625   4.768 -0.3381  0.8532 -0.0378
    9SAPS  H18Z 1197   2.924   0.662   4.820 -0.7857 -1.9375 -1.6015
   10SAPS     N 1198   3.332   5.673   6.479  0.2167  0.0468 -0.6638
   10SAPS   HN1 1199   3.426   5.677   6.435 -0.0297 -1.6823 -1.4650
   10SAPS   HN2 1200   3.283   5.586   6.449 -0.8518  0.4060  0.0062
   10SAPS   HN3 1201   3.290   5.759   6.441  0.2386  1.8829  3.0063
   10SAPS   C12 1202   3.348   5.680   6.630  0.5824  0.6217 -0.5607
   10SAPS  H12A 1203   3.366   5.578   6.663 -3.0020 -0.5436 -1.7451
   10SAPS   C13 1204   3.454   5.777   6.680  0.1262 -0.1659 -0.2881
   10SAPS  O13A 1205   3.515   5.848   6.598  0.1257 -0.0274  0.0483
   10SAPS  O13B 1206   3.512   5.752   6.791  0.6033 -0.0227 -0.0868
   10SAPS   C11 1207   3.206   5.710   6.691  0.3039  0.3836 -0.2371
   10SAPS  H11A 1208   3.211   5.700   6.802 -2.1185  1.3453  0.0359
   10SAPS  H11B 1209   3.135   5.633   6.653  2.2073 -3.0111  2.4884
   10SAPS     P 1210   3.037   5.906   6.711 -0.2498 -0.0666  0.3271
   10SAPS   O13 1211   3.035   5.883   6.857  0.2328  0.3527  0.0151
   10SAPS   O14 1212   3.020   6.050   6.677  0.1169 -0.0824 -0.1788
   10SAPS   O12 1213   3.169   5.842   6.655 -0.0842  0.1153  0.9832
   10SAPS   O11 1214   2.919   5.823   6.649  0.3174 -0.0217 -0.0709
   10SAPS    C1 1215   2.915   5.758   6.523 -0.6918  0.7326 -0.1267
   10SAPS    HA 1216   3.017   5.722   6.496 -0.2494 -0.5965  2.9187
   10SAPS    HB 1217   2.845   5.675   6.545 -0.5974  0.9672  1.1074
   10SAPS    C2 1218   2.848   5.850   6.412  0.3222 -0.8800  0.2522
   10SAPS    HS 1219   2.820   5.782   6.329  0.7797 -1.9026  0.9088
   10SAPS   O21 1220   2.925   5.957   6.361 -0.6857  0.7076  0.3360
   10SAPS   C21 1221   3.031   5.920   6.281  0.2428 -0.1003 -0.0578
   10SAPS   O22 1222   3.079   5.810   6.274  0.5537  0.0009  0.0458
   10SAPS   C22 1223   3.091   6.047   6.221  0.0427  0.1386 -0.4188
   10SAPS   H2R 1224   3.092   6.136   6.287  1.5410  1.5839 -2.2576
   10SAPS   H2S 1225   3.196   6.019   6.197 -0.1833 -0.4132 -0.7900
   10SAPS    C3 1226   2.702   5.893   6.455  0.8918 -0.2376  0.4691
   10SAPS    HX 1227   2.703   5.940   6.556 -0.4659 -0.0287  0.4106
   10SAPS    HY 1228   2.638   5.803   6.462 -2.0874  1.4869 -1.9984
   10SAPS   O31 1229   2.646   5.992   6.358  0.2165  0.0357  0.5946
   10SAPS   C31 1230   2.559   5.954   6.264  0.5952 -0.1852 -0.8221
   10SAPS   O32 1231   2.509   5.844   6.257  1.2946 -0.5563  0.4885
   10SAPS   C32 1232   2.546   6.081   6.189 -0.1240  0.0906  0.2264
   10SAPS   H2X 1233   2.651   6.114   6.173  1.0141 -2.8069  1.1654
   10SAPS   H2Y 1234   2.497   6.148   6.263 -1.1817 -0.2064 -0.1935
   10SAPS   C23 1235   3.018   6.087   6.096  0.7212 -0.0834  0.0651
   10SAPS   H3R 1236   3.064   6.173   6.042  3.9492 -1.0457  1.0624
   10SAPS   H3S 1237   2.912   6.115   6.117 -0.3328 -0.5284 -3.9203
   10SAPS   C24 1238   3.004   5.977   5.982  0.3996 -0.2349  0.2372
   10SAPS   H4R 1239   2.929   6.017   5.911  0.6507 -0.5405 -0.2053
   10SAPS   H4S 1240   2.960   5.884   6.022  1.2591 -0.2184  1.2689
   10SAPS   C25 1241   3.124   5.949   5.903 -0.6226 -0.2278 -0.0036
   10SAPS   H5R 1242   3.183   5.860   5.929  0.1482  0.5940  1.1799
   10SAPS   C26 1243   3.170   6.015   5.791  0.6166  0.8000  0.2635
   10SAPS   H6R 1244   3.265   5.976   5.751 -0.1143 -0.7823 -0.0079
   10SAPS   C27 1245   3.118   6.132   5.721  0.1538 -0.7856  0.6006
   10SAPS   H7R 1246   3.147   6.224   5.776 -0.7403 -1.7211  2.7550
   10SAPS   H7S 1247   3.007   6.135   5.731  0.3189 -0.2163  2.6584
   10SAPS   C28 1248   3.151   6.117   5.572 -0.2196 -0.6125 -0.7188
   10SAPS   H8R 1249   3.115   6.020   5.536 -0.8599  0.7944 -4.3606
   10SAPS   C29 1250   3.202   6.200   5.480 -0.3406 -0.7665  0.2687
   10SAPS   H9R 1251   3.202   6.165   5.375  1.2580  2.0471 -0.7709
   10SAPS  C210 1252   3.241   6.344   5.483 -0.5399  0.2011 -0.9721
   10SAPS  H10R 1253   3.332   6.350   5.419 -0.0412  0.6707 -0.2465
   10SAPS  H10S 1254   3.266   6.374   5.587 -1.3913 -0.2694 -0.6291
   10SAPS  C211 1255   3.143   6.438   5.414 -0.6208  0.1351 -0.1557
   10SAPS  H11R 1256   3.079   6.492   5.485  1.1324  1.7262  0.2979
   10SAPS  C212 1257   3.134   6.463   5.280  0.0180 -0.4148  0.1495
   10SAPS  H12R 1258   3.054   6.531   5.247  0.8352 -0.0971 -1.2521
   10SAPS  C213 1259   3.228   6.401   5.179  0.1734  0.3734  0.2311
   10SAPS  H13R 1260   3.250   6.295   5.202  1.5625  0.7534  0.7626
   10SAPS  H13S 1261   3.323   6.457   5.173  0.4305 -0.0150  0.6167
   10SAPS  C214 1262   3.187   6.415   5.036  0.8094 -1.1873 -0.5201
   10SAPS  H14R 1263   3.159   6.518   5.012  0.3689 -1.3554 -0.7388
   10SAPS  C215 1264   3.176   6.322   4.940 -0.4266 -0.4664  0.1278
   10SAPS  H15R 1265   3.157   6.345   4.834 -2.8122 -2.0676  0.1031
   10SAPS  C216 1266   3.205   6.175   4.966  0.3529 -0.6097  0.1461
   10SAPS  H16R 1267   3.130   6.132   5.036  0.7086 -1.7939 -0.1862
   10SAPS  H16S 1268   3.309   6.168   5.004  1.1917  0.0048 -1.9034
   10SAPS  C217 1269   3.202   6.097   4.830 -0.2763 -0.7633  0.3353
   10SAPS  H17R 1270   3.109   6.124   4.774  1.9408  0.5332 -3.0722
   10SAPS  H17S 1271   3.205   5.993   4.867  0.3133 -0.8623  0.0117
   10SAPS  C218 1272   3.313   6.138   4.730 -0.2782  0.5364 -0.1090
   10SAPS  H18R 1273   3.418   6.130   4.765 -0.4142  0.7027  0.3527
   10SAPS  H18S 1274   3.311   6.249   4.723  1.8070  0.8211  2.3251
   10SAPS  C219 1275   3.311   6.069   4.592 -0.3112 -0.0458 -0.2985
   10SAPS  H19R 1276   3.223   6.093   4.529 -0.1488  2.3597  0.2895
   10SAPS  H19S 1277   3.310   5.959   4.607 -2.8657 -0.3549 -2.1032
   10SAPS  C220 1278   3.428   6.101   4.503  0.0982 -0.2044  0.5754
   10SAPS  H20R 1279   3.418   6.199   4.452 -1.2418  0.2294  1.5881
   10SAPS  H20S 1280   3.428   6.015   4.432  0.1931  0.4863 -0.2741
   10SAPS  H20T 1281   3.522   6.113   4.561 -0.2914 -0.8017  1.3559
   10SAPS   C33 1282   2.463   6.070   6.057 -0.1380  0.2985 -0.2607
   10SAPS   H3X 1283   2.446   6.173   6.020 -1.8063  0.4966  0.9126
   10SAPS   H3Y 1284   2.359   6.038   6.081 -0.1972  0.2331 -0.5973
   10SAPS   C34 1285   2.533   5.976   5.964  0.1664 -0.7734 -0.0278
   10SAPS   H4X 1286   2.455   5.930   5.899  1.0476 -1.2744 -0.7652
   10SAPS   H4Y 1287   2.576   5.893   6.024  2.0356  1.0840  1.3577
   10SAPS   C35 1288   2.644   6.039   5.874  0.5067  0.5300 -0.6260
   10SAPS   H5X 1289   2.730   6.079   5.933  0.2812 -0.6039  0.5220
   10SAPS   H5Y 1290   2.601   6.132   5.832 -0.0656  0.8403  0.6079
   10SAPS   C36 1291   2.679   5.956   5.754 -0.5920 -0.1751  0.5385
   10SAPS   H6X 1292   2.601   5.880   5.734 -1.8776  1.1711  0.2304
   10SAPS   H6Y 1293   2.766   5.896   5.788 -1.2996 -1.8790 -0.5293
   10SAPS   C37 1294   2.716   6.037   5.636  0.2260  0.5353  0.0815
   10SAPS   H7X 1295   2.796   6.108   5.667  0.8137  0.0533 -0.3022
   10SAPS   H7Y 1296   2.624   6.089   5.600 -0.4833 -1.0159 -0.4453
   10SAPS   C38 1297   2.779   5.957   5.510 -0.4326  0.1604  0.2013
   10SAPS   H8X 1298   2.714   5.873   5.476 -0.6714  0.6261 -0.5154
   10SAPS   H8Y 1299   2.878   5.922   5.545  0.2005  1.8491  0.2003
   10SAPS   C39 1300   2.783   6.035   5.384 -0.8079  0.2012  0.2360
   10SAPS   H9X 1301   2.854   6.121   5.390 -0.7798  0.3023 -1.1803
   10SAPS   H9Y 1302   2.680   6.067   5.357 -1.8362 -0.9205  2.5233
   10SAPS  C310 1303   2.836   5.957   5.253 -0.9321 -0.1183 -0.7005
   10SAPS  H10X 1304   2.757   5.881   5.235 -2.0986  0.9101 -0.1270
   10SAPS  H10Y 1305   2.930   5.909   5.285 -1.1110  0.8847  1.5007
   10SAPS  C311 1306   2.850   6.040   5.123  0.0619  0.3696  0.1623
   10SAPS  H11X 1307   2.917   6.127   5.138  0.0269  0.5994 -0.9338
   10SAPS  H11Y 1308   2.751   6.078   5.089 -0.6940 -2.4754 -1.0891
   10SAPS  C312 1309   2.906   5.953   5.001 -0.8448 -0.2194 -0.0780
   10SAPS  H12X 1310   3.009   5.924   5.029 -0.4582 -0.0061 -1.2099
   10SAPS  H12Y 1311   2.920   6.022   4.915  0.7840 -1.1419 -0.5966
   10SAPS  C313 1312   2.817   5.833   4.961  0.5116  0.3244  0.1581
   10SAPS  H13X 1313   2.812   5.768   5.051 -0.6357  0.2154  0.0318
   10SAPS  H13Y 1314   2.875   5.795   4.875  0.9124  3.1506 -0.9271
   10SAPS  C314 1315   2.675   5.867   4.919 -0.4608  0.3812  0.3313
   10SAPS  H14X 1316   2.686   5.932   4.829 -2.0902 -0.8654 -0.8344
   10SAPS  H14Y 1317   2.638   5.916   5.012 -1.9160  2.6749 -1.3133
   10SAPS  C315 1318   2.588   5.750   4.877 -0.1300  0.0313  0.0280
   10SAPS  H15X 1319   2.484   5.788   4.877 -0.3621 -0.5683  1.3319
   10SAPS  H15Y 1320   2.598   5.694   4.972 -1.3288  0.4054  0.3915
   10SAPS  C316 1321   2.646   5.670   4.759  0.3627  0.5157  0.7700
   10SAPS  H16X 1322   2.755   5.658   4.778  0.2430 -0.5519  0.8445
   10SAPS  H16Y 1323   2.635   5.725   4.663  0.5870 -0.7195  0.0147
   10SAPS  C317 1324   2.576   5.534   4.748  0.1265 -0.1416 -0.5896
   10SAPS  H17X 1325   2.469   5.562   4.737  1.0645  3.4293 -2.0517
   10SAPS  H17Y 1326   2.588   5.473   4.840 -0.5908  0.3836 -0.1364
   10SAPS  C318 1327   2.633   5.454   4.632  0.0354 -0.0137  0.3533
   10SAPS  H18X 1328   2.634   5.511   4.537 -0.4916 -0.2112  0.2270
   10SAPS  H18Y 1329   2.571   5.364   4.616 -2.2591  1.0226  2.7225
   10SAPS  H18Z 1330   2.734   5.417   4.661 -1.0854 -1.6074  2.5362
   11SAPS     N 1331   4.756   4.746   2.140 -0.3042  0.4802 -0.6239
   11SAPS   HN1 1332   4.858   4.732   2.123 -0.3464 -0.7689  0.0763
   11SAPS   HN2 1333   4.731   4.844   2.113  0.2737  1.5777  2.4462
   11SAPS   HN3 1334   4.741   4.742   2.243 -0.2976  2.5141 -0.5044
   11SAPS   C12 1335   4.673   4.644   2.071 -0.7210 -0.6055 -0.6951
   11SAPS  H12A 1336   4.579   4.696   2.057 -0.8868 -1.3670 -2.7785
   11SAPS   C13 1337   4.722   4.573   1.933 -0.4577  0.3677 -0.2212
   11SAPS  O13A 1338   4.833   4.610   1.874 -0.2004  0.4170 -0.3087
   11SAPS  O13B 1339   4.677   4.459   1.920  0.9243  0.2429 -0.0165
   11SAPS   C11 1340   4.650   4.536   2.187 -0.8014  0.4110 -0.0982
   11SAPS  H11A 1341   4.743   4.480   2.211 -2.4194 -2.0453  0.9214
   11SAPS  H11B 1342   4.583   4.453   2.153  1.3478 -1.6793  0.5386
   11SAPS     P 1343   4.442   4.603   2.341  0.2670 -0.3707  0.0323
   11SAPS   O13 1344   4.415   4.725   2.426 -0.1969 -0.4009 -0.1090
   11SAPS   O14 1345   4.366   4.585   2.216  0.7764 -0.1533  0.9139
   11SAPS   O12 1346   4.593   4.595   2.302 -0.5419  0.1142 -0.5320
   11SAPS   O11 1347   4.428   4.471   2.434  0.0314  0.3173  0.5739
   11SAPS    C1 1348   4.542   4.414   2.504  0.2792 -0.3868 -0.5251
   11SAPS    HA 1349   4.606   4.365   2.427 -2.0796 -0.6085 -2.5028
   11SAPS    HB 1350   4.596   4.494   2.557  0.6045 -0.3986 -0.8351
   11SAPS    C2 1351   4.493   4.314   2.605  0.6202 -0.3192 -0.5664
   11SAPS    HS 1352   4.430   4.230   2.568  1.1379 -1.0496  0.1807
   11SAPS   O21 1353   4.416   4.386   2.716 -0.1303  0.5915 -0.0082
   11SAPS   C21 1354   4.344   4.314   2.795 -0.4225  0.4121 -0.8937
   11SAPS   O22 1355   4.318   4.193   2.779  0.1644 -0.2809  0.3470
   11SAPS   C22 1356   4.290   4.404   2.907  0.1009 -0.0836 -0.1946
   11SAPS   H2R 1357   4.364   4.487   2.910  1.4748 -1.1970 -1.4727
   11SAPS   H2S 1358   4.186   4.433   2.883 -0.4795  0.1314  2.2996
   11SAPS    C3 1359   4.614   4.251   2.672  0.9509 -0.0574  0.7550
   11SAPS    HX 1360   4.670   4.190   2.598 -0.7538 -1.3261  0.4408
   11SAPS    HY 1361   4.574   4.167   2.734  0.1605 -1.3407 -1.3938
   11SAPS   O31 1362   4.693   4.349   2.742  0.2122 -0.1831  0.1206
   11SAPS   C31 1363   4.724   4.319   2.870 -0.4937 -0.1438  0.4230
   11SAPS   O32 1364   4.688   4.224   2.935 -0.1073  0.5876  0.2205
   11SAPS   C32 1365   4.816   4.430   2.932 -0.6876 -0.4010  0.0545
   11SAPS   H2X 1366   4.862   4.489   2.851 -1.0276  3.4993  2.4518
   11SAPS   H2Y 1367   4.893   4.372   2.988  0.1183  1.6625  1.1948
   11SAPS   C23 1368   4.309   4.351   3.051 -0.4140  0.1464  0.1527
   11SAPS   H3R 1369   4.304   4.434   3.124  0.5664  2.3195 -2.1077
   11SAPS   H3S 1370   4.407   4.300   3.063 -0.2380  0.5115  0.2567
   11SAPS   C24 1371   4.187   4.260   3.093 -0.6379 -0.4607  0.1494
   11SAPS   H4R 1372   4.164   4.193   3.006  0.2306 -0.0283 -0.4277
   11SAPS   H4S 1373   4.102   4.325   3.122  1.0359  3.0242 -2.0862
   11SAPS   C25 1374   4.236   4.196   3.215  0.2790  1.1747  0.1378
   11SAPS   H5R 1375   4.298   4.108   3.190 -1.1094 -0.1571  1.1855
   11SAPS   C26 1376   4.210   4.227   3.343  0.9982 -0.0849 -0.5841
   11SAPS   H6R 1377   4.252   4.159   3.419 -0.5847 -0.2781  0.1619
   11SAPS   C27 1378   4.129   4.341   3.401  0.1070  0.5989 -0.1327
   11SAPS   H7R 1379   4.073   4.307   3.491  0.2699 -0.0752 -0.2795
   11SAPS   H7S 1380   4.048   4.369   3.329 -0.8278  1.6597  1.2826
   11SAPS   C28 1381   4.222   4.459   3.422 -0.4089 -0.2805 -0.5737
   11SAPS   H8R 1382   4.295   4.483   3.343 -0.2913  0.5735 -0.2196
   11SAPS   C29 1383   4.219   4.532   3.533 -0.1520 -0.1602 -1.0695
   11SAPS   H9R 1384   4.284   4.621   3.534  0.8811 -0.9104 -0.6262
   11SAPS  C210 1385   4.133   4.523   3.653 -0.4612  0.2381 -0.3019
   11SAPS  H10R 1386   4.048   4.457   3.624  1.2295 -1.8616 -0.7073
   11SAPS  H10S 1387   4.094   4.626   3.667  1.1370  1.2109 -2.5876
   11SAPS  C211 1388   4.191   4.463   3.780 -0.8847  0.0729  0.2281
   11SAPS  H11R 1389   4.259   4.378   3.764  0.3182  1.1640 -0.6210
   11SAPS  C212 1390   4.169   4.501   3.904  0.2364  0.1784 -0.3863
   11SAPS  H12R 1391   4.212   4.439   3.985  0.5613  0.8908  0.0007
   11SAPS  C213 1392   4.079   4.608   3.952  0.0140  0.6266  0.6706
   11SAPS  H13R 1393   3.978   4.613   3.906  1.7644  2.6124 -3.5190
   11SAPS  H13S 1394   4.126   4.699   3.906 -0.4503  1.2714  1.4458
   11SAPS  C214 1395   4.066   4.626   4.102 -0.2513  0.0744  0.2255
   11SAPS  H14R 1396   4.019   4.540   4.153  0.5333 -0.1425  0.5946
   11SAPS  C215 1397   4.125   4.712   4.182 -0.5873  0.1923 -0.1735
   11SAPS  H15R 1398   4.101   4.704   4.289  1.0001 -0.6206  0.1663
   11SAPS  C216 1399   4.232   4.820   4.151  0.6532  0.1911 -0.3495
   11SAPS  H16R 1400   4.186   4.893   4.081  0.9514 -0.3824 -1.1517
   11SAPS  H16S 1401   4.326   4.784   4.105  0.4144 -0.2235 -0.5101
   11SAPS  C217 1402   4.268   4.910   4.268 -0.0992  0.2391 -0.2582
   11SAPS  H17R 1403   4.355   4.974   4.241 -0.5312  0.5567 -0.9346
   11SAPS  H17S 1404   4.305   4.842   4.348 -2.0407 -0.5918  0.0123
   11SAPS  C218 1405   4.153   4.996   4.314 -0.0375  0.2442 -0.8310
   11SAPS  H18R 1406   4.063   4.937   4.338  1.0871 -1.1684  0.0360
   11SAPS  H18S 1407   4.145   5.073   4.234 -1.8909 -1.7579 -2.7058
   11SAPS  C219 1408   4.203   5.066   4.443 -0.6024 -0.0909  0.4459
   11SAPS  H19R 1409   4.154   5.165   4.458  0.4468  0.4674  0.3194
   11SAPS  H19S 1410   4.307   5.091   4.414 -1.3985 -1.2574 -4.1232
   11SAPS  C220 1411   4.210   4.988   4.578  0.0948  0.4089  0.7273
   11SAPS  H20R 1412   4.117   5.019   4.630  0.3866  0.1879  1.3924
   11SAPS  H20S 1413   4.286   5.040   4.640  0.2700  1.1772 -0.1060
   11SAPS  H20T 1414   4.231   4.879   4.568  1.1460  0.7776 -1.6242
   11SAPS   C33 1415   4.740   4.529   3.024 -0.2430 -0.6136 -0.1340
   11SAPS   H3X 1416   4.659   4.578   2.967 -0.6794 -0.7296  0.3821
   11SAPS   H3Y 1417   4.808   4.608   3.062  0.8443 -1.3602 -0.4674
   11SAPS   C34 1418   4.682   4.468   3.151  0.2083 -0.6055 -0.2341
   11SAPS   H4X 1419   4.612   4.385   3.131  0.4852 -1.0952  0.7636
   11SAPS   H4Y 1420   4.610   4.545   3.184 -1.3297 -2.5400  1.1564
   11SAPS   C35 1421   4.783   4.432   3.258 -0.4828 -0.0450 -0.1392
   11SAPS   H5X 1422   4.847   4.520   3.278  0.2798 -0.3887 -0.9865
   11SAPS   H5Y 1423   4.850   4.349   3.225 -2.0493 -1.6881  0.6248
   11SAPS   C36 1424   4.713   4.384   3.388  0.0046 -0.6653 -0.7477
   11SAPS   H6X 1425   4.786   4.322   3.445  0.6605  1.0773  0.3983
   11SAPS   H6Y 1426   4.622   4.328   3.359  1.1052 -3.0039  0.0408
   11SAPS   C37 1427   4.671   4.513   3.468 -0.2797  0.3736 -0.6128
   11SAPS   H7X 1428   4.606   4.573   3.400 -1.0768  0.6368  0.3687
   11SAPS   H7Y 1429   4.762   4.574   3.484  0.2226  0.0233 -1.9536
   11SAPS   C38 1430   4.611   4.497   3.607 -0.5798 -0.1497  0.4375
   11SAPS   H8X 1431   4.664   4.421   3.669 -0.1193  1.5997  2.2893
   11SAPS   H8Y 1432   4.511   4.451   3.593 -1.1911  1.0152  0.8893
   11SAPS   C39 1433   4.596   4.620   3.695  0.4509  0.4448  0.3368
   11SAPS   H9X 1434   4.512   4.680   3.654  1.4714  2.3563  0.8983
   11SAPS   H9Y 1435   4.690   4.680   3.697  0.8135 -0.1261  0.4756
   11SAPS  C310 1436   4.567   4.590   3.848  0.0235 -0.6573 -0.5384
   11SAPS  H10X 1437   4.619   4.498   3.884 -0.2085 -0.6273 -0.1169
   11SAPS  H10Y 1438   4.457   4.575   3.856 -0.1123  1.0083  1.4109
   11SAPS  C311 1439   4.596   4.708   3.935 -0.1814 -0.3601 -0.4156
   11SAPS  H11X 1440   4.521   4.787   3.915 -0.9520  0.0551  3.2981
   11SAPS  H11Y 1441   4.694   4.750   3.902  0.4415  1.4799  3.1962
   11SAPS  C312 1442   4.592   4.666   4.085  0.9088  0.0327 -0.1433
   11SAPS  H12X 1443   4.665   4.584   4.103  0.1993 -0.5899 -0.0629
   11SAPS  H12Y 1444   4.487   4.634   4.103  0.6405  1.8071  1.9039
   11SAPS  C313 1445   4.625   4.777   4.182  0.1456 -0.2591  0.2530
   11SAPS  H13X 1446   4.550   4.859   4.170 -0.7753 -1.2238 -0.8467
   11SAPS  H13Y 1447   4.726   4.818   4.162 -1.2369  2.7047 -1.2479
   11SAPS  C314 1448   4.613   4.730   4.331  0.1894  0.4564  0.5535
   11SAPS  H14X 1449   4.689   4.657   4.365  0.7390  1.0331  0.5735
   11SAPS  H14Y 1450   4.517   4.675   4.346  0.1310  0.4676  0.2302
   11SAPS  C315 1451   4.614   4.846   4.432  0.5777  0.4901 -0.2540
   11SAPS  H15X 1452   4.585   4.802   4.530 -1.4903 -1.1724 -1.5253
   11SAPS  H15Y 1453   4.539   4.923   4.402  0.6363 -0.1250 -2.1315
   11SAPS  C316 1454   4.752   4.923   4.427  0.5107  0.4452 -0.3599
   11SAPS  H16X 1455   4.774   4.958   4.324 -0.7791 -1.8670 -1.5108
   11SAPS  H16Y 1456   4.832   4.852   4.457 -0.8249 -0.4255  1.3210
   11SAPS  C317 1457   4.757   5.045   4.530 -0.3956  0.0052  0.9919
   11SAPS  H17X 1458   4.862   5.080   4.523  0.4241 -2.5860 -2.1263
   11SAPS  H17Y 1459   4.744   5.002   4.632 -1.7311  0.4693  1.0400
   11SAPS  C318 1460   4.654   5.157   4.509 -0.3430 -1.2068 -0.6614
   11SAPS  H18X 1461   4.656   5.180   4.400 -0.2351  2.2689 -0.0522
   11SAPS  H18Y 1462   4.688   5.244   4.569 -0.3234 -1.4737 -0.2856
   11SAPS  H18Z 1463   4.547   5.133   4.527 -1.1599  0.1147 -3.1728
   12SAPS     N 1464   2.375   4.244   2.005 -0.1429 -0.0602 -0.6926
   12SAPS   HN1 1465   2.360   4.345   2.027  0.2373  0.0672 -1.0062
   12SAPS   HN2 1466   2.472   4.232   1.971  0.7732 -1.0469  1.9992
   12SAPS   HN3 1467   2.301   4.222   1.935 -0.5825  0.7182 -0.4820
   12SAPS   C12 1468   2.359   4.163   2.131 -0.8703  0.1189 -0.7269
   12SAPS  H12A 1469   2.265   4.186   2.180 -0.3257 -0.3119  0.5562
   12SAPS   C13 1470   2.341   4.004   2.113 -0.8193 -0.1948  0.6566
   12SAPS  O13A 1471   2.315   3.959   1.999  0.0053 -0.5726 -0.3578
   12SAPS  O13B 1472   2.334   3.930   2.213  0.0053 -0.1137 -0.2190
   12SAPS   C11 1473   2.474   4.196   2.229 -0.9206  1.1670 -0.1343
   12SAPS  H11A 1474   2.569   4.153   2.191 -1.5338  1.7604 -2.4895
   12SAPS  H11B 1475   2.475   4.159   2.334 -0.3139  0.5064 -0.3680
   12SAPS     P 1476   2.390   4.411   2.341  0.1437 -0.4098  0.0658
   12SAPS   O13 1477   2.465   4.527   2.390 -0.4627 -0.4245 -0.8521
   12SAPS   O14 1478   2.265   4.443   2.275 -0.3813 -0.5058  0.1969
   12SAPS   O12 1479   2.482   4.343   2.232 -0.2518 -0.9952 -0.2001
   12SAPS   O11 1480   2.371   4.309   2.458 -0.1155  0.2434 -0.1919
   12SAPS    C1 1481   2.317   4.348   2.589  0.1038 -0.4760 -0.3193
   12SAPS    HA 1482   2.277   4.451   2.584  0.4961 -0.3580 -1.1265
   12SAPS    HB 1483   2.238   4.278   2.625  0.6483 -1.2590 -0.6088
   12SAPS    C2 1484   2.424   4.352   2.695  0.1331 -0.4573  0.1384
   12SAPS    HS 1485   2.506   4.410   2.648  0.7296 -3.2176 -2.5535
   12SAPS   O21 1486   2.466   4.220   2.723 -0.1284  0.2898 -0.3920
   12SAPS   C21 1487   2.599   4.189   2.696 -0.0187 -0.2734 -0.0352
   12SAPS   O22 1488   2.679   4.264   2.647 -0.2897  0.0440  0.3012
   12SAPS   C22 1489   2.623   4.039   2.722 -0.3694  0.7826  0.4549
   12SAPS   H2R 1490   2.537   3.979   2.758  0.4167 -0.1501  0.8064
   12SAPS   H2S 1491   2.657   3.991   2.628 -0.9444  0.2794  0.4980
   12SAPS    C3 1492   2.376   4.410   2.834  0.2224 -0.0430 -0.2764
   12SAPS    HX 1493   2.305   4.336   2.874 -0.5655 -0.1916 -1.8663
   12SAPS    HY 1494   2.324   4.505   2.807  0.1964  0.1849  0.5504
   12SAPS   O31 1495   2.485   4.430   2.924 -0.5609 -0.2137  0.1620
   12SAPS   C31 1496   2.519   4.549   2.968 -0.1013 -0.5360 -0.6550
   12SAPS   O32 1497   2.476   4.655   2.929  0.3692  0.1480 -0.1906
   12SAPS   C32 1498   2.636   4.543   3.066  0.6375  0.1583  0.1092
   12SAPS   H2X 1499   2.695   4.637   3.060  1.8719 -0.5088  1.2445
   12SAPS   H2Y 1500   2.707   4.462   3.040 -1.0641 -0.5360 -2.8412
   12SAPS   C23 1501   2.742   4.022   2.830  0.8931 -0.1951 -0.3159
   12SAPS   H3R 1502   2.828   4.073   2.782 -0.0517  0.2664 -1.5897
   12SAPS   H3S 1503   2.763   3.913   2.830  2.0413  0.0148 -0.2971
   12SAPS   C24 1504   2.703   4.078   2.969 -0.0167 -0.6820  0.0909
   12SAPS   H4R 1505   2.677   4.186   2.970 -0.6725 -0.8284  1.9080
   12SAPS   H4S 1506   2.790   4.081   3.037  0.6511 -0.2158 -0.7554
   12SAPS   C25 1507   2.591   3.992   3.025  0.2141  0.3669  0.0133
   12SAPS   H5R 1508   2.582   3.889   2.988  1.0633 -1.0746  3.4268
   12SAPS   C26 1509   2.492   4.037   3.108  0.0712 -0.2758 -0.6687
   12SAPS   H6R 1510   2.413   3.964   3.132  0.6868 -1.4582 -2.0837
   12SAPS   C27 1511   2.482   4.176   3.151 -0.0498 -0.4084 -0.4948
   12SAPS   H7R 1512   2.489   4.246   3.065  0.9277  2.8550  2.0612
   12SAPS   H7S 1513   2.559   4.194   3.229 -1.7189 -0.4480  1.2218
   12SAPS   C28 1514   2.348   4.195   3.214  0.3541  0.2628 -0.2955
   12SAPS   H8R 1515   2.278   4.251   3.150 -0.0935  1.0007  0.8102
   12SAPS   C29 1516   2.308   4.184   3.344  0.4561  0.1327 -0.3564
   12SAPS   H9R 1517   2.203   4.209   3.368  0.4929  1.8938 -1.8154
   12SAPS  C210 1518   2.399   4.133   3.453  0.2998 -0.2983  0.1936
   12SAPS  H10R 1519   2.383   4.197   3.542 -1.3254 -1.3302  0.6985
   12SAPS  H10S 1520   2.506   4.149   3.432  0.6812  0.3640  2.3368
   12SAPS  C211 1521   2.390   3.986   3.479 -0.8688  0.0116 -0.2607
   12SAPS  H11R 1522   2.379   3.929   3.385  2.2276 -1.8136  0.3411
   12SAPS  C212 1523   2.424   3.914   3.589  0.9343 -0.2055  0.7850
   12SAPS  H12R 1524   2.423   3.804   3.578  1.4461 -0.0332 -1.3594
   12SAPS  C213 1525   2.463   3.971   3.719 -0.1188 -0.3918 -0.2279
   12SAPS  H13R 1526   2.442   4.079   3.726  0.4103 -0.3831  2.7930
   12SAPS  H13S 1527   2.573   3.956   3.732  0.2470  2.0722 -0.0255
   12SAPS  C214 1528   2.393   3.887   3.826 -0.8315  0.0798 -0.4372
   12SAPS  H14R 1529   2.410   3.778   3.822 -2.6320 -0.2357 -0.2435
   12SAPS  C215 1530   2.311   3.940   3.923 -0.1182 -0.0881 -0.1508
   12SAPS  H15R 1531   2.259   3.871   3.991  0.8647  0.5600  1.3361
   12SAPS  C216 1532   2.264   4.081   3.935 -0.3602  0.3909  0.3059
   12SAPS  H16R 1533   2.288   4.143   3.846  0.5465  2.0153  1.6153
   12SAPS  H16S 1534   2.332   4.132   4.007  1.0944 -1.6663  0.4893
   12SAPS  C217 1535   2.116   4.095   3.973 -0.4811 -0.5832  0.0366
   12SAPS  H17R 1536   2.085   4.057   4.072 -1.9473 -0.1656 -0.2448
   12SAPS  H17S 1537   2.058   4.029   3.904  0.3742  1.1291 -2.4908
   12SAPS  C218 1538   2.049   4.233   3.959 -0.4740  0.1943  0.2011
   12SAPS  H18R 1539   2.096   4.299   4.035 -3.6277 -0.0095  2.5329
   12SAPS  H18S 1540   1.942   4.217   3.984 -0.5633  0.8721  0.2795
   12SAPS  C219 1541   2.059   4.301   3.822 -0.4848  0.3062 -0.5844
   12SAPS  H19R 1542   2.001   4.236   3.753  1.0580  0.0983 -1.7355
   12SAPS  H19S 1543   2.164   4.295   3.785 -0.4557  0.4030 -0.5179
   12SAPS  C220 1544   1.992   4.436   3.827  0.1067  0.4348 -0.1500
   12SAPS  H20R 1545   2.050   4.510   3.887  1.4470  1.7342 -2.8486
   12SAPS  H20S 1546   1.890   4.428   3.870  0.6976 -0.5515  1.1537
   12SAPS  H20T 1547   1.993   4.485   3.727  3.3332 -1.1312 -1.0359
   12SAPS   C33 1548   2.578   4.529   3.206  0.6106 -0.1640  0.8829
   12SAPS   H3X 1549   2.665   4.504   3.270  1.8136  0.5693 -0.4147
   12SAPS   H3Y 1550   2.519   4.436   3.218 -0.7817  0.7962  1.7609
   12SAPS   C34 1551   2.499   4.654   3.256 -0.6258 -0.7280  1.1323
   12SAPS   H4X 1552   2.406   4.651   3.195 -0.3599  2.2628  0.4367
   12SAPS   H4Y 1553   2.552   4.750   3.239  0.4781 -1.7938 -2.1517
   12SAPS   C35 1554   2.477   4.644   3.412  0.7543  0.1387  0.4028
   12SAPS   H5X 1555   2.422   4.738   3.434 -0.4973 -1.0018  2.3567
   12SAPS   H5Y 1556   2.572   4.650   3.469  0.1590  2.7473  1.2351
   12SAPS   C36 1557   2.393   4.526   3.447  0.1548  0.1063  0.0365
   12SAPS   H6X 1558   2.448   4.432   3.422  0.2558  0.6940 -2.2433
   12SAPS   H6Y 1559   2.311   4.511   3.374  1.7106 -0.4123 -1.7164
   12SAPS   C37 1560   2.343   4.516   3.589  0.6440  0.4923 -0.5998
   12SAPS   H7X 1561   2.268   4.435   3.597  0.4538  0.7545  0.5286
   12SAPS   H7Y 1562   2.286   4.605   3.624 -0.8637 -0.4380 -0.6050
   12SAPS   C38 1563   2.457   4.486   3.698 -0.0743  0.1739  0.6120
   12SAPS   H8X 1564   2.545   4.550   3.674 -0.9622  1.0770 -0.3704
   12SAPS   H8Y 1565   2.474   4.377   3.687 -1.8977  0.0191 -1.4195
   12SAPS   C39 1566   2.429   4.516   3.843 -0.0297 -0.5934  0.4971
   12SAPS   H9X 1567   2.352   4.448   3.885 -0.4683 -0.5141 -0.1537
   12SAPS   H9Y 1568   2.396   4.622   3.849 -0.5328 -0.5106 -2.1766
   12SAPS  C310 1569   2.557   4.493   3.928 -0.0619 -0.4973  0.3830
   12SAPS  H10X 1570   2.647   4.538   3.880  0.8209 -0.8741  1.6431
   12SAPS  H10Y 1571   2.567   4.382   3.933 -2.0506 -0.8612 -1.9744
   12SAPS  C311 1572   2.548   4.533   4.079 -0.1216 -0.8613  0.5653
   12SAPS  H11X 1573   2.544   4.644   4.086  0.9950 -0.8170  0.6049
   12SAPS  H11Y 1574   2.646   4.494   4.112 -0.1924 -1.8909 -0.3877
   12SAPS  C312 1575   2.439   4.461   4.158  0.1467 -0.3588  0.2128
   12SAPS  H12X 1576   2.429   4.357   4.120 -2.7475  0.2180 -0.8824
   12SAPS  H12Y 1577   2.334   4.490   4.138 -0.1722 -1.5352  0.1380
   12SAPS  C313 1578   2.468   4.465   4.310 -0.1364  0.1372 -0.2575
   12SAPS  H13X 1579   2.455   4.572   4.334  1.9340  0.3506  0.1647
   12SAPS  H13Y 1580   2.573   4.427   4.315  0.2469  1.1850 -0.2309
   12SAPS  C314 1581   2.380   4.377   4.399  0.1819  0.5287  0.7488
   12SAPS  H14X 1582   2.390   4.274   4.358  2.5272  1.7593 -2.1641
   12SAPS  H14Y 1583   2.271   4.398   4.403 -0.7970 -3.6129  0.8887
   12SAPS  C315 1584   2.435   4.374   4.544  0.5659 -0.3130 -0.0251
   12SAPS  H15X 1585   2.359   4.316   4.600 -1.8090  1.3276 -1.3853
   12SAPS  H15Y 1586   2.424   4.475   4.588 -1.2680 -1.7510  3.1367
   12SAPS  C316 1587   2.574   4.314   4.570 -0.2665 -0.0876  0.0219
   12SAPS  H16X 1588   2.640   4.358   4.493 -0.5785 -0.8480 -0.7018
   12SAPS  H16Y 1589   2.576   4.204   4.553 -0.4961 -0.2342  0.9163
   12SAPS  C317 1590   2.642   4.342   4.705  0.1820  0.2208 -0.6950
   12SAPS  H17X 1591   2.745   4.304   4.693 -0.0727  0.0566 -2.6650
   12SAPS  H17Y 1592   2.593   4.296   4.794 -0.1692  1.2705 -0.3330
   12SAPS  C318 1593   2.647   4.494   4.744  0.8070  0.0035  0.1445
   12SAPS  H18X 1594   2.733   4.509   4.813  1.0702 -1.0944  0.0628
   12SAPS  H18Y 1595   2.547   4.526   4.782 -0.6395 -3.2473 -0.5939
   12SAPS  H18Z 1596   2.671   4.563   4.661  1.9720  1.0292  1.2894
   13SAPS     N 1597   0.511   3.627   1.910 -0.8800  0.4639  0.0785
   13SAPS   HN1 1598   0.412   3.659   1.904 -0.8703  0.6631  0.9501
   13SAPS   HN2 1599   0.539   3.587   1.818 -1.7732 -0.9069  0.3845
   13SAPS   HN3 1600   0.531   3.555   1.981  0.1775 -1.0007 -1.6092
   13SAPS   C12 1601   0.593   3.745   1.940  0.1318 -0.3566 -0.4035
   13SAPS  H12A 1602   0.697   3.716   1.948  0.4353  0.1746 -1.9665
   13SAPS   C13 1603   0.587   3.853   1.826  0.7728 -0.6399  0.1024
   13SAPS  O13A 1604   0.512   3.838   1.723  0.2553  0.1561 -0.1162
   13SAPS  O13B 1605   0.659   3.957   1.834 -0.1487  0.3258 -0.1738
   13SAPS   C11 1606   0.553   3.814   2.076 -0.0312  0.8055 -0.0620
   13SAPS  H11A 1607   0.636   3.881   2.105  1.6599 -0.9421 -0.6432
   13SAPS  H11B 1608   0.569   3.744   2.161  1.4612  1.3496  0.1335
   13SAPS     P 1609   0.286   3.814   2.094 -0.5996 -0.1340  0.1094
   13SAPS   O13 1610   0.191   3.929   2.074 -0.2064  0.9166 -0.0708
   13SAPS   O14 1611   0.266   3.701   2.002  0.2894  1.2051  0.1818
   13SAPS   O12 1612   0.430   3.888   2.078  0.2759  0.3141  0.5513
   13SAPS   O11 1613   0.277   3.761   2.247 -0.6053 -0.2477  0.2398
   13SAPS    C1 1614   0.314   3.857   2.342 -0.6249 -0.3006 -0.2521
   13SAPS    HA 1615   0.424   3.870   2.347 -0.6485  0.1545 -0.8015
   13SAPS    HB 1616   0.262   3.951   2.313 -1.0451 -0.4172  0.1131
   13SAPS    C2 1617   0.266   3.817   2.485 -0.7854  0.1127 -0.0057
   13SAPS    HS 1618   0.283   3.891   2.566 -2.3730  0.6342 -0.1312
   13SAPS   O21 1619   0.326   3.692   2.527 -0.1136  0.0882 -0.3569
   13SAPS   C21 1620   0.451   3.687   2.577  0.2209  0.3323 -0.2622
   13SAPS   O22 1621   0.529   3.777   2.591 -0.6794 -0.8439 -0.0070
   13SAPS   C22 1622   0.486   3.545   2.606  0.3002  0.2445 -0.0275
   13SAPS   H2R 1623   0.389   3.497   2.631  1.0422 -0.3739  1.7995
   13SAPS   H2S 1624   0.522   3.507   2.508 -0.6483 -0.5726 -0.0731
   13SAPS    C3 1625   0.112   3.799   2.487  0.3362 -0.7657  0.0312
   13SAPS    HX 1626   0.071   3.735   2.406  0.7698 -0.3191 -0.5505
   13SAPS    HY 1627   0.072   3.901   2.466 -1.2142 -1.5995 -1.1952
   13SAPS   O31 1628   0.063   3.757   2.618 -0.1929  0.0305  0.5757
   13SAPS   C31 1629   0.055   3.627   2.632 -0.2911  0.0498 -0.1783
   13SAPS   O32 1630   0.060   3.549   2.533 -0.0174  0.3762 -0.6408
   13SAPS   C32 1631   0.029   3.580   2.777  0.2901 -0.2914  1.0592
   13SAPS   H2X 1632  -0.035   3.491   2.763  0.8053 -0.4930 -0.1704
   13SAPS   H2Y 1633  -0.028   3.663   2.826 -0.0005 -0.8293  1.6441
   13SAPS   C23 1634   0.604   3.533   2.702 -1.0634 -0.9421  0.2974
   13SAPS   H3R 1635   0.603   3.614   2.779  1.2798 -0.6011  0.0413
   13SAPS   H3S 1636   0.698   3.556   2.649 -1.5172 -1.7839 -0.8981
   13SAPS   C24 1637   0.617   3.393   2.771  0.7905  0.2442  0.3800
   13SAPS   H4R 1638   0.723   3.372   2.797  0.0422 -1.9668  2.0129
   13SAPS   H4S 1639   0.589   3.320   2.692 -2.1182  2.6708 -1.0351
   13SAPS   C25 1640   0.528   3.378   2.895 -0.3580  0.7452 -0.4007
   13SAPS   H5R 1641   0.419   3.378   2.880 -0.4817 -2.8258 -0.2719
   13SAPS   C26 1642   0.569   3.351   3.021  0.5088  0.7678  0.3946
   13SAPS   H6R 1643   0.488   3.346   3.095 -0.6793 -0.7519 -0.9434
   13SAPS   C27 1644   0.712   3.321   3.068  0.7466 -0.4206  0.2957
   13SAPS   H7R 1645   0.759   3.257   2.991  2.2934  1.6646 -0.5998
   13SAPS   H7S 1646   0.721   3.272   3.167  0.5480  0.3515  0.7044
   13SAPS   C28 1647   0.804   3.438   3.070  0.4016  0.1133  0.0803
   13SAPS   H8R 1648   0.796   3.500   2.980  2.5956  0.4252  0.0257
   13SAPS   C29 1649   0.848   3.500   3.184  0.0099  0.3234  0.7325
   13SAPS   H9R 1650   0.916   3.586   3.176  1.4704 -0.8314  0.2230
   13SAPS  C210 1651   0.848   3.441   3.315 -0.6981  0.7469  0.3324
   13SAPS  H10R 1652   0.950   3.456   3.357 -0.6288  2.0101 -0.2439
   13SAPS  H10S 1653   0.827   3.332   3.322 -0.2890  0.5115 -1.5723
   13SAPS  C211 1654   0.757   3.528   3.400  0.0094 -0.5921 -0.0469
   13SAPS  H11R 1655   0.707   3.608   3.342 -1.7252 -1.4401  0.2151
   13SAPS  C212 1656   0.736   3.511   3.534  0.1555  0.0597 -1.0123
   13SAPS  H12R 1657   0.663   3.571   3.589 -2.9108 -1.0436 -3.5535
   13SAPS  C213 1658   0.780   3.393   3.619  0.2894  0.1071 -0.0356
   13SAPS  H13R 1659   0.790   3.299   3.560  2.3915  0.4035 -0.2276
   13SAPS  H13S 1660   0.700   3.368   3.692 -0.2715  1.7334 -0.0667
   13SAPS  C214 1661   0.908   3.422   3.687 -0.3400  0.5765 -0.3373
   13SAPS  H14R 1662   0.995   3.445   3.624 -0.2211 -0.3179 -0.5186
   13SAPS  C215 1663   0.922   3.414   3.826  0.8909  0.1026  0.3445
   13SAPS  H15R 1664   1.012   3.413   3.889  0.1229 -2.4448  1.5195
   13SAPS  C216 1665   0.812   3.380   3.920 -0.5218  0.3105 -0.3676
   13SAPS  H16R 1666   0.742   3.298   3.892 -2.7207  1.7365  0.6854
   13SAPS  H16S 1667   0.759   3.473   3.950 -1.3741 -0.6660  1.2304
   13SAPS  C217 1668   0.861   3.342   4.060 -0.0376  0.1546  0.0766
   13SAPS  H17R 1669   0.918   3.421   4.114  1.8793  0.5875 -2.4228
   13SAPS  H17S 1670   0.922   3.249   4.063 -1.0801 -0.5484  0.0772
   13SAPS  C218 1671   0.752   3.284   4.151 -0.4370  0.2765 -0.9326
   13SAPS  H18R 1672   0.786   3.220   4.235 -2.4279 -1.0295 -1.0666
   13SAPS  H18S 1673   0.690   3.221   4.084 -0.4327  0.2601 -0.9210
   13SAPS  C219 1674   0.662   3.384   4.220  0.6756 -0.2648  0.0608
   13SAPS  H19R 1675   0.591   3.324   4.281  0.7975 -1.6519 -1.1034
   13SAPS  H19S 1676   0.601   3.434   4.142 -0.2957 -1.4167  0.0448
   13SAPS  C220 1677   0.718   3.474   4.328 -0.3867 -0.3577  0.8829
   13SAPS  H20R 1678   0.796   3.533   4.276  0.9484 -2.7905 -0.0804
   13SAPS  H20S 1679   0.768   3.427   4.416  0.5267 -0.0616  0.5373
   13SAPS  H20T 1680   0.641   3.540   4.372  0.0477  0.6934  0.0933
   13SAPS   C33 1681   0.166   3.551   2.850  0.0167  0.3754 -0.4015
   13SAPS   H3X 1682   0.234   3.479   2.801  1.1563  0.6425  0.7281
   13SAPS   H3Y 1683   0.131   3.495   2.939  0.8884 -3.3401 -2.2271
   13SAPS   C34 1684   0.245   3.675   2.897 -0.2384  0.2730 -0.2817
   13SAPS   H4X 1685   0.169   3.744   2.940 -0.0957  0.5312 -0.4388
   13SAPS   H4Y 1686   0.298   3.729   2.816  2.7818 -0.8300  0.8080
   13SAPS   C35 1687   0.337   3.644   3.026 -0.3603  0.5460 -0.4826
   13SAPS   H5X 1688   0.358   3.741   3.077 -0.3110  0.5551 -0.5210
   13SAPS   H5Y 1689   0.431   3.598   2.991  0.6354  0.5372  1.9721
   13SAPS   C36 1690   0.280   3.549   3.125 -0.0453  0.0834  0.6419
   13SAPS   H6X 1691   0.278   3.444   3.090 -1.5540  1.0758 -2.7190
   13SAPS   H6Y 1692   0.175   3.585   3.139  0.6393  1.8497  1.6475
   13SAPS   C37 1693   0.344   3.556   3.261 -0.2655  0.8919 -0.7723
   13SAPS   H7X 1694   0.374   3.660   3.286  3.4841  1.0065 -4.5671
   13SAPS   H7Y 1695   0.443   3.506   3.260 -0.0563  1.1438  1.7539
   13SAPS   C38 1696   0.259   3.481   3.365 -0.0103  0.4090  0.1314
   13SAPS   H8X 1697   0.258   3.372   3.343  0.0190  0.2948  0.6912
   13SAPS   H8Y 1698   0.157   3.525   3.358  0.4080  1.2071 -1.2229
   13SAPS   C39 1699   0.323   3.507   3.506  0.7738  0.1217  0.5035
   13SAPS   H9X 1700   0.308   3.616   3.519  0.3178  0.5726 -2.8008
   13SAPS   H9Y 1701   0.431   3.483   3.512  0.5093 -1.8595 -1.2727
   13SAPS  C310 1702   0.243   3.439   3.618 -0.4521 -0.6386  0.0034
   13SAPS  H10X 1703   0.225   3.332   3.591  1.4472 -1.3992  1.4795
   13SAPS  H10Y 1704   0.142   3.481   3.637 -0.2077  0.0827 -0.2934
   13SAPS  C311 1705   0.338   3.422   3.734  0.1758 -0.2546 -0.0152
   13SAPS  H11X 1706   0.385   3.518   3.763  1.4777 -0.7946 -0.2517
   13SAPS  H11Y 1707   0.428   3.359   3.719  0.0145 -0.8020  1.2184
   13SAPS  C312 1708   0.263   3.384   3.859 -0.2161 -0.5369 -0.6123
   13SAPS  H12X 1709   0.234   3.278   3.852  0.9924 -1.1645  2.3877
   13SAPS  H12Y 1710   0.172   3.444   3.885  1.7260  2.6802 -0.6427
   13SAPS  C313 1711   0.344   3.400   3.987 -0.2888  0.9908 -0.4146
   13SAPS  H13X 1712   0.366   3.508   4.002  1.2937  0.6965 -0.4248
   13SAPS  H13Y 1713   0.444   3.351   3.979 -0.7185 -0.5285  2.2790
   13SAPS  C314 1714   0.272   3.360   4.117 -0.2582  0.0052  0.0107
   13SAPS  H14X 1715   0.168   3.388   4.140  0.3079  0.2055  2.6122
   13SAPS  H14Y 1716   0.330   3.408   4.198  1.4323 -1.5721 -0.1808
   13SAPS  C315 1717   0.287   3.211   4.142  0.6631 -0.0877  0.3432
   13SAPS  H15X 1718   0.393   3.178   4.138  0.3470 -0.9595 -1.6629
   13SAPS  H15Y 1719   0.238   3.139   4.075  0.3010  1.2289 -0.8527
   13SAPS  C316 1720   0.247   3.170   4.291 -0.1864 -0.0390 -0.2212
   13SAPS  H16X 1721   0.144   3.207   4.307 -0.3362 -1.5656  3.1215
   13SAPS  H16Y 1722   0.315   3.223   4.362 -0.9291  0.5156  0.0836
   13SAPS  C317 1723   0.257   3.015   4.314  0.4472  0.2737 -0.5589
   13SAPS  H17X 1724   0.357   2.978   4.284  1.0577  0.1393  1.4600
   13SAPS  H17Y 1725   0.178   2.967   4.253  1.2340 -0.8152 -0.7300
   13SAPS  C318 1726   0.230   2.974   4.456  0.2751 -0.0487 -0.2236
   13SAPS  H18X 1727   0.134   3.014   4.494  0.3458 -1.2964  1.3682
   13SAPS  H18Y 1728   0.309   3.011   4.525 -1.1218  1.7181  0.5091
   13SAPS  H18Z 1729   0.212   2.865   4.470  0.1439 -0.1590 -1.1613
   14SAPS     N 1730   4.948   4.360   1.814 -0.1210  0.4224  0.6965
   14SAPS   HN1 1731   4.911   4.445   1.861 -2.3908 -0.5383  0.7448
   14SAPS   HN2 1732   5.009   4.380   1.732 -0.7958  2.8251  0.7071
   14SAPS   HN3 1733   4.871   4.294   1.792  0.7151 -0.2455 -0.3180
   14SAPS   C12 1734   5.040   4.289   1.902  0.9706 -0.1415 -0.0622
   14SAPS  H12A 1735   4.984   4.245   1.982  1.8573 -2.4654 -0.6400
   14SAPS   C13 1736   5.115   4.176   1.829  1.1105 -0.7505 -0.2720
   14SAPS  O13A 1737   5.086   4.155   1.708 -0.2354 -0.2238 -0.1109
   14SAPS  O13B 1738   5.210   4.119   1.888 -0.0204 -0.3022  0.2906
   14SAPS   C11 1739   5.153   4.386   1.950 -0.5205  0.2446  0.2940
   14SAPS  H11A 1740   5.220   4.421   1.869 -0.7367  0.4847  0.2176
   14SAPS  H11B 1741   5.223   4.347   2.026  0.5883  3.6402  1.2115
   14SAPS     P 1742   5.060   4.521   2.148  0.0160  0.0501 -0.2620
   14SAPS   O13 1743   5.011   4.660   2.179 -0.2308 -0.5839  0.4181
   14SAPS   O14 1744   4.982   4.407   2.188 -0.1077 -0.1326 -0.0159
   14SAPS   O12 1745   5.095   4.513   1.995 -0.8936  0.3143 -0.0048
   14SAPS   O11 1746   5.205   4.498   2.205  0.0482  0.0574  0.3478
   14SAPS    C1 1747   5.319   4.568   2.174 -0.3106  0.4178 -0.5568
   14SAPS    HA 1748   5.396   4.497   2.136 -0.0220 -1.0651  2.4840
   14SAPS    HB 1749   5.297   4.649   2.102  0.3149  0.5069 -0.6566
   14SAPS    C2 1750   5.381   4.639   2.308  0.3106  0.2454  1.2744
   14SAPS    HS 1751   5.467   4.698   2.269  0.2075 -0.4360 -0.0358
   14SAPS   O21 1752   5.423   4.540   2.405  0.2059 -0.2256  0.7394
   14SAPS   C21 1753   5.543   4.555   2.457 -0.1656  0.3341  0.1337
   14SAPS   O22 1754   5.620   4.647   2.429  0.0386  0.0478  0.3002
   14SAPS   C22 1755   5.567   4.438   2.552  0.2236 -0.5245  0.0428
   14SAPS   H2R 1756   5.480   4.439   2.622  0.2061  0.1019  0.0175
   14SAPS   H2S 1757   5.570   4.336   2.508 -0.2580 -1.3371  1.7766
   14SAPS    C3 1758   5.270   4.732   2.364 -0.1801 -0.0647  0.2477
   14SAPS    HX 1759   5.193   4.665   2.408 -1.9046  0.3000 -2.0066
   14SAPS    HY 1760   5.219   4.786   2.281 -3.7482 -1.7022  1.1770
   14SAPS   O31 1761   5.331   4.821   2.460  0.2880 -0.3167 -0.4690
   14SAPS   C31 1762   5.281   4.824   2.582 -0.0053 -0.1087 -0.1332
   14SAPS   O32 1763   5.188   4.753   2.630 -0.2033 -0.1947  0.5626
   14SAPS   C32 1764   5.352   4.936   2.659 -1.0864  0.9335 -0.2075
   14SAPS   H2X 1765   5.329   5.031   2.606 -1.5930  0.5009 -0.7886
   14SAPS   H2Y 1766   5.462   4.927   2.648 -0.8797  1.0024  1.5148
   14SAPS   C23 1767   5.698   4.446   2.626  0.0200 -0.4367 -0.3019
   14SAPS   H3R 1768   5.691   4.528   2.700  1.6086  0.5625 -1.1928
   14SAPS   H3S 1769   5.786   4.455   2.559 -1.0989 -2.9733 -2.2737
   14SAPS   C24 1770   5.734   4.325   2.724  0.6937 -0.2416 -0.6573
   14SAPS   H4R 1771   5.643   4.307   2.785  0.7564 -1.3997 -0.8674
   14SAPS   H4S 1772   5.809   4.356   2.799  0.7473 -3.7636  0.9667
   14SAPS   C25 1773   5.784   4.197   2.661  0.0045  0.2549 -0.0526
   14SAPS   H5R 1774   5.853   4.203   2.575 -0.9844 -2.7580 -1.1728
   14SAPS   C26 1775   5.778   4.071   2.705  0.1581  0.4576 -0.1472
   14SAPS   H6R 1776   5.846   4.000   2.654  0.5640  2.1698 -2.1262
   14SAPS   C27 1777   5.712   4.022   2.828  0.2151  0.3863 -0.5902
   14SAPS   H7R 1778   5.633   4.086   2.874 -0.9517 -0.7535 -0.9322
   14SAPS   H7S 1779   5.791   4.007   2.905 -1.0670  1.5076  1.0192
   14SAPS   C28 1780   5.639   3.896   2.790 -0.2423  0.7789 -0.3623
   14SAPS   H8R 1781   5.595   3.902   2.689 -1.0307  0.0763 -0.0668
   14SAPS   C29 1782   5.624   3.784   2.865  0.2522 -0.6592  0.5449
   14SAPS   H9R 1783   5.576   3.700   2.813 -1.2904 -0.0364  0.9158
   14SAPS  C210 1784   5.692   3.754   2.997  0.1567  0.3037  0.4259
   14SAPS  H10R 1785   5.752   3.840   3.033  2.3520  0.4529 -3.0534
   14SAPS  H10S 1786   5.775   3.680   2.993 -1.6456 -1.8538  1.2712
   14SAPS  C211 1787   5.600   3.712   3.109 -0.2038 -0.8642 -0.1087
   14SAPS  H11R 1788   5.494   3.705   3.082 -0.0276  1.2342 -1.5411
   14SAPS  C212 1789   5.634   3.694   3.239  0.8149  0.2208 -0.4135
   14SAPS  H12R 1790   5.558   3.658   3.310  0.1043  0.5619 -0.9861
   14SAPS  C213 1791   5.775   3.712   3.283 -0.4828 -0.1586 -0.6346
   14SAPS  H13R 1792   5.844   3.726   3.197  0.0464 -0.0400 -0.1993
   14SAPS  H13S 1793   5.803   3.625   3.346  1.4777  0.8897  0.0427
   14SAPS  C214 1794   5.789   3.836   3.362 -0.4065  0.4967 -0.1053
   14SAPS  H14R 1795   5.770   3.922   3.296  1.9606 -0.6840 -2.5289
   14SAPS  C215 1796   5.821   3.860   3.489 -0.4721 -0.2049 -0.4971
   14SAPS  H15R 1797   5.824   3.965   3.520  0.2842 -0.4739  0.4266
   14SAPS  C216 1798   5.864   3.765   3.596 -0.0790  0.1042  0.2252
   14SAPS  H16R 1799   5.953   3.815   3.640  2.0381 -3.3189  0.2078
   14SAPS  H16S 1800   5.900   3.664   3.566 -0.4982  0.0306 -0.0474
   14SAPS  C217 1801   5.746   3.748   3.698  0.0437  0.1063  0.2444
   14SAPS  H17R 1802   5.671   3.671   3.671 -0.2050 -0.0744  1.4170
   14SAPS  H17S 1803   5.686   3.840   3.710 -1.0044 -0.5498  0.1290
   14SAPS  C218 1804   5.791   3.733   3.841 -0.3521 -0.8759 -0.7468
   14SAPS  H18R 1805   5.862   3.818   3.852 -0.7211 -0.4017 -1.8811
   14SAPS  H18S 1806   5.859   3.645   3.846  1.0646  0.2450  2.2415
   14SAPS  C219 1807   5.690   3.733   3.952  0.3103 -0.3231 -0.6682
   14SAPS  H19R 1808   5.628   3.641   3.958  2.0538 -1.4463  1.0822
   14SAPS  H19S 1809   5.626   3.823   3.939  2.5886  1.4581 -0.1914
   14SAPS  C220 1810   5.744   3.763   4.090  0.2440 -0.0649  0.1421
   14SAPS  H20R 1811   5.841   3.817   4.095 -0.5100  1.2080  3.6694
   14SAPS  H20S 1812   5.780   3.669   4.138  0.7898  0.2089  0.2694
   14SAPS  H20T 1813   5.667   3.816   4.149 -0.6768  0.1522 -1.2281
   14SAPS   C33 1814   5.321   4.939   2.810 -0.8862 -0.3254  0.0457
   14SAPS   H3X 1815   5.343   4.842   2.857  0.0343  0.1839  0.6980
   14SAPS   H3Y 1816   5.219   4.974   2.837 -0.0564  0.6930  2.0988
   14SAPS   C34 1817   5.411   5.043   2.877 -0.6047  0.0322  0.4289
   14SAPS   H4X 1818   5.415   5.139   2.821  0.4395  0.3224  0.9657
   14SAPS   H4Y 1819   5.513   4.997   2.880 -1.0440 -0.9278  2.5609
   14SAPS   C35 1820   5.380   5.087   3.021 -0.1644 -0.0718  0.0802
   14SAPS   H5X 1821   5.271   5.090   3.041 -0.4455 -5.3067  0.8750
   14SAPS   H5Y 1822   5.435   5.183   3.030 -1.1005  0.9234 -3.2310
   14SAPS   C36 1823   5.446   4.994   3.129 -0.3919  0.0987 -0.2367
   14SAPS   H6X 1824   5.554   5.003   3.107 -0.8041  0.7715 -2.1041
   14SAPS   H6Y 1825   5.418   4.886   3.124  2.9562 -0.9849  1.3814
   14SAPS   C37 1826   5.414   5.035   3.268 -0.0395 -0.5354  0.4786
   14SAPS   H7X 1827   5.306   5.045   3.288 -0.0846  1.8225 -0.6189
   14SAPS   H7Y 1828   5.459   5.136   3.267 -1.6181  0.1921  0.5021
   14SAPS   C38 1829   5.486   4.954   3.367  0.0258  0.4196  0.5439
   14SAPS   H8X 1830   5.593   4.942   3.338 -0.0160 -0.8928  0.8489
   14SAPS   H8Y 1831   5.443   4.852   3.362  0.6808  0.1487  0.2702
   14SAPS   C39 1832   5.484   5.002   3.507  0.0739 -0.2322 -0.2007
   14SAPS   H9X 1833   5.384   5.012   3.555 -0.1923  0.2321 -0.8327
   14SAPS   H9Y 1834   5.519   5.107   3.509 -3.2278  1.0049 -0.3172
   14SAPS  C310 1835   5.565   4.914   3.609 -0.3920 -0.2437  0.2688
   14SAPS  H10X 1836   5.654   4.879   3.552 -0.6691 -2.1616  0.9169
   14SAPS  H10Y 1837   5.508   4.821   3.632  0.8202 -0.8386  0.9848
   14SAPS  C311 1838   5.573   4.990   3.738  0.0262 -0.0528 -1.0912
   14SAPS  H11X 1839   5.471   5.010   3.779  1.1548  1.7401  1.1038
   14SAPS  H11Y 1840   5.617   5.091   3.723 -0.1378 -0.3331 -3.7674
   14SAPS  C312 1841   5.664   4.911   3.839  0.0800 -0.1899 -0.6808
   14SAPS  H12X 1842   5.752   4.883   3.777 -0.7670 -1.3225 -1.4010
   14SAPS  H12Y 1843   5.611   4.819   3.868  0.6250 -0.4049 -0.3602
   14SAPS  C313 1844   5.694   4.983   3.971  0.6081 -0.2264 -0.6135
   14SAPS  H13X 1845   5.751   5.077   3.953  0.2193  0.0061 -0.6501
   14SAPS  H13Y 1846   5.763   4.927   4.038  2.1239  0.9531 -1.1419
   14SAPS  C314 1847   5.561   5.024   4.047  0.4557 -0.2900  0.2444
   14SAPS  H14X 1848   5.504   4.931   4.064 -1.7157  0.7302 -1.0294
   14SAPS  H14Y 1849   5.494   5.094   3.993  1.7628 -0.0577 -1.1415
   14SAPS  C315 1850   5.589   5.089   4.178 -0.0120  0.4397 -0.6554
   14SAPS  H15X 1851   5.637   5.187   4.157 -1.8093  1.5226  0.0581
   14SAPS  H15Y 1852   5.661   5.024   4.232 -0.8193 -1.2266 -1.5140
   14SAPS  C316 1853   5.468   5.100   4.269 -0.0156  0.2790  0.5695
   14SAPS  H16X 1854   5.511   5.132   4.367 -2.6799  2.8868  1.0319
   14SAPS  H16Y 1855   5.416   5.003   4.284  0.6874 -0.1730  0.1228
   14SAPS  C317 1856   5.351   5.190   4.219 -0.3969 -0.4374 -0.6653
   14SAPS  H17X 1857   5.321   5.136   4.127 -1.1603 -0.9187 -0.1511
   14SAPS  H17Y 1858   5.395   5.286   4.185  0.3587  0.0699  1.5476
   14SAPS  C318 1859   5.243   5.224   4.316  0.2756 -0.4520  0.2149
   14SAPS  H18X 1860   5.283   5.279   4.404 -1.5911  0.1312  0.7555
   14SAPS  H18Y 1861   5.194   5.136   4.364 -1.9970 -0.1916 -1.4260
   14SAPS  H18Z 1862   5.170   5.299   4.278 -1.1680  0.3248  4.0313
   15SAPS     N 1863   6.603   5.626   1.831  0.1302 -0.5316 -0.2488
   15SAPS   HN1 1864   6.566   5.537   1.790 -0.3203 -2.0416  3.1474
   15SAPS   HN2 1865   6.688   5.614   1.889 -0.6277 -0.6666  0.8552
   15SAPS   HN3 1866   6.528   5.674   1.884 -0.8968 -0.4799 -1.6646
   15SAPS   C12 1867   6.639   5.716   1.724 -0.3319  0.1090 -0.4141
   15SAPS  H12A 1868   6.720   5.669   1.670  0.2580  0.9353 -0.2665
   15SAPS   C13 1869   6.530   5.750   1.628  0.0288  0.1028  0.7927
   15SAPS  O13A 1870   6.423   5.687   1.622 -0.5499 -0.2155 -0.4645
   15SAPS  O13B 1871   6.565   5.830   1.540  0.1158 -0.0216  0.4067
   15SAPS   C11 1872   6.679   5.848   1.790 -0.7470  0.2016  1.0434
   15SAPS  H11A 1873   6.599   5.884   1.858 -1.4863 -2.3486  1.6253
   15SAPS  H11B 1874   6.690   5.934   1.721  0.2081 -1.8016 -1.4668
   15SAPS     P 1875   6.890   5.955   1.903  0.2591  0.0023  0.4774
   15SAPS   O13 1876   7.000   5.916   1.999  0.0307 -0.0436  0.3340
   15SAPS   O14 1877   6.936   6.038   1.790 -0.1801 -0.1291  0.2269
   15SAPS   O12 1878   6.802   5.830   1.862 -0.1580 -0.3894  0.3546
   15SAPS   O11 1879   6.785   6.038   1.987  0.2791  0.2856 -0.4705
   15SAPS    C1 1880   6.783   6.050   2.130 -0.2396 -0.2096  0.5298
   15SAPS    HA 1881   6.682   6.017   2.162 -0.1323 -0.3054  0.7680
   15SAPS    HB 1882   6.843   5.965   2.170  0.6954 -0.2914 -0.9462
   15SAPS    C2 1883   6.820   6.194   2.177  0.2847  0.0020 -0.0904
   15SAPS    HS 1884   6.739   6.266   2.154  1.4458  1.5900  0.5678
   15SAPS   O21 1885   6.938   6.234   2.110 -0.4587 -0.1436  0.7721
   15SAPS   C21 1886   6.985   6.352   2.139 -0.2855 -0.8387  0.6073
   15SAPS   O22 1887   6.915   6.454   2.167 -0.6304 -0.4446  0.4913
   15SAPS   C22 1888   7.136   6.355   2.135  0.7182  0.4934  0.0621
   15SAPS   H2R 1889   7.172   6.281   2.060 -0.1229 -0.4379  0.5451
   15SAPS   H2S 1890   7.152   6.457   2.094 -0.5677  1.8374  2.6243
   15SAPS    C3 1891   6.844   6.198   2.332 -0.0064  0.5855 -0.4175
   15SAPS    HX 1892   6.747   6.176   2.380  0.0833 -0.7272 -0.8222
   15SAPS    HY 1893   6.876   6.300   2.363 -0.7770  0.1002  2.1377
   15SAPS   O31 1894   6.950   6.105   2.365 -0.3884  0.0160  0.2924
   15SAPS   C31 1895   6.928   5.990   2.426 -0.7267 -0.2617  0.0505
   15SAPS   O32 1896   6.818   5.947   2.452 -0.3234 -0.5583 -0.1579
   15SAPS   C32 1897   7.059   5.909   2.434  0.4591  0.0529  0.2202
   15SAPS   H2X 1898   7.141   5.964   2.382 -1.2263 -1.3991 -4.5516
   15SAPS   H2Y 1899   7.036   5.813   2.384  1.0997  0.2078 -0.3888
   15SAPS   C23 1900   7.210   6.339   2.263 -0.4729 -0.2192 -0.0149
   15SAPS   H3R 1901   7.317   6.312   2.246 -0.9292 -3.2769  1.3326
   15SAPS   H3S 1902   7.173   6.253   2.323 -2.3441  0.1037 -0.6470
   15SAPS   C24 1903   7.210   6.467   2.355  0.0356 -0.0237 -0.1800
   15SAPS   H4R 1904   7.104   6.500   2.354  0.1442  0.3948  1.1989
   15SAPS   H4S 1905   7.271   6.544   2.303 -1.2162  0.1511 -1.4507
   15SAPS   C25 1906   7.249   6.456   2.495  0.1632  0.1633 -0.0005
   15SAPS   H5R 1907   7.358   6.447   2.506  0.3469  0.7622 -1.2588
   15SAPS   C26 1908   7.167   6.448   2.602  0.1606 -0.3317  0.8498
   15SAPS   H6R 1909   7.199   6.426   2.704 -1.6244 -0.8460  1.3426
   15SAPS   C27 1910   7.017   6.456   2.584 -0.2275 -0.3036  0.2748
   15SAPS   H7R 1911   6.990   6.387   2.502 -0.3163 -1.0610  0.9246
   15SAPS   H7S 1912   6.987   6.557   2.550 -3.5534 -0.8688  1.1830
   15SAPS   C28 1913   6.940   6.410   2.709 -0.0576 -0.3413 -0.5232
   15SAPS   H8R 1914   6.954   6.305   2.739 -2.0179 -0.1816  1.1903
   15SAPS   C29 1915   6.859   6.485   2.784  0.2160  0.0069 -0.4808
   15SAPS   H9R 1916   6.802   6.433   2.862 -0.2657 -0.5360 -1.1891
   15SAPS  C210 1917   6.829   6.632   2.758  0.4354 -0.7260 -0.1004
   15SAPS  H10R 1918   6.902   6.689   2.696 -1.6199  0.6336 -1.4466
   15SAPS  H10S 1919   6.837   6.693   2.850  0.3544  1.4552 -1.4523
   15SAPS  C211 1920   6.687   6.645   2.698 -0.1314 -0.4866 -0.1123
   15SAPS  H11R 1921   6.694   6.664   2.590  2.7305  1.4187  0.2923
   15SAPS  C212 1922   6.569   6.659   2.765 -0.1921  0.7440  0.9782
   15SAPS  H12R 1923   6.478   6.653   2.703  0.0539  0.5139  0.6332
   15SAPS  C213 1924   6.535   6.636   2.912 -0.2282 -0.0067 -0.3183
   15SAPS  H13R 1925   6.566   6.532   2.931 -0.6979 -0.1010 -0.0445
   15SAPS  H13S 1926   6.426   6.634   2.937  0.0416  0.0643  0.9029
   15SAPS  C214 1927   6.603   6.725   3.015 -0.3968 -0.3358  0.3051
   15SAPS  H14R 1928   6.678   6.791   2.968  0.7580 -0.6835  1.5941
   15SAPS  C215 1929   6.576   6.742   3.144 -0.3158 -0.2047  0.1085
   15SAPS  H15R 1930   6.635   6.808   3.209  0.2366 -1.6466  1.1317
   15SAPS  C216 1931   6.466   6.676   3.218  0.5029  0.0899  0.0999
   15SAPS  H16R 1932   6.374   6.653   3.159  1.1152 -1.7110 -0.2038
   15SAPS  H16S 1933   6.442   6.750   3.298  3.7938 -0.4753  1.7573
   15SAPS  C217 1934   6.522   6.552   3.287 -0.0106  0.0909  0.0610
   15SAPS  H17R 1935   6.442   6.510   3.352  0.3364  0.1411  0.5251
   15SAPS  H17S 1936   6.606   6.580   3.353 -0.9646 -1.9384  2.3024
   15SAPS  C218 1937   6.572   6.445   3.192  0.1218  0.2135 -0.1720
   15SAPS  H18R 1938   6.654   6.472   3.122  1.8821 -3.0337  0.4370
   15SAPS  H18S 1939   6.490   6.419   3.121  1.4110 -1.8482 -1.0239
   15SAPS  C219 1940   6.614   6.323   3.269 -0.4657  0.5074  0.7554
   15SAPS  H19R 1941   6.537   6.258   3.316 -0.0067 -3.1416 -2.9373
   15SAPS  H19S 1942   6.683   6.353   3.351 -0.0047 -0.8428  0.8907
   15SAPS  C220 1943   6.692   6.228   3.174 -0.5442  0.3991 -0.2031
   15SAPS  H20R 1944   6.635   6.173   3.097 -0.3288  2.0062 -1.5789
   15SAPS  H20S 1945   6.735   6.143   3.231 -0.3649  0.7977  0.2747
   15SAPS  H20T 1946   6.790   6.267   3.139  0.9660 -1.1644  1.9809
   15SAPS   C33 1947   7.102   5.885   2.573  0.3410  0.2352  0.7078
   15SAPS   H3X 1948   7.192   5.820   2.581 -1.2131 -2.4088 -1.2361
   15SAPS   H3Y 1949   7.020   5.830   2.624 -1.6759  1.8021 -0.6712
   15SAPS   C34 1950   7.132   6.007   2.652 -0.2037 -0.1861 -0.0445
   15SAPS   H4X 1951   7.063   6.094   2.644  1.9793  1.5566 -1.0410
   15SAPS   H4Y 1952   7.235   6.039   2.625 -0.0031 -1.4351 -0.8312
   15SAPS   C35 1953   7.117   5.981   2.804 -0.3610 -0.1383  0.4130
   15SAPS   H5X 1954   7.191   5.903   2.833 -0.4532 -0.5775 -0.5023
   15SAPS   H5Y 1955   7.020   5.929   2.818 -0.5931  0.0839 -0.3271
   15SAPS   C36 1956   7.123   6.096   2.896  0.5958  0.2984 -0.0646
   15SAPS   H6X 1957   7.044   6.169   2.868 -0.4091 -1.5206 -2.3744
   15SAPS   H6Y 1958   7.223   6.143   2.888  0.3800  1.1598  1.8333
   15SAPS   C37 1959   7.098   6.048   3.040  0.4447  0.0030  0.0031
   15SAPS   H7X 1960   7.109   5.938   3.049 -1.2562 -0.4619 -2.4408
   15SAPS   H7Y 1961   6.992   6.074   3.061 -0.0823  0.9293 -3.1737
   15SAPS   C38 1962   7.191   6.114   3.140  0.4066 -0.0935 -0.4623
   15SAPS   H8X 1963   7.201   6.214   3.094 -1.7222  1.3295  1.9098
   15SAPS   H8Y 1964   7.293   6.071   3.131  0.6427  0.8788 -3.1729
   15SAPS   C39 1965   7.133   6.090   3.281  0.1594  0.5403  0.0383
   15SAPS   H9X 1966   7.096   5.985   3.284  0.9999  0.0109 -3.4049
   15SAPS   H9Y 1967   7.051   6.162   3.303 -0.1253 -0.0206  0.8367
   15SAPS  C310 1968   7.241   6.127   3.391 -0.1421 -0.1202 -0.2734
   15SAPS  H10X 1969   7.259   6.236   3.386  1.8237 -0.3764  0.3332
   15SAPS  H10Y 1970   7.331   6.072   3.357  0.3183  0.1935  0.4146
   15SAPS  C311 1971   7.208   6.094   3.537  0.6609 -0.1424 -0.0855
   15SAPS  H11X 1972   7.192   5.986   3.560 -3.4240  0.4394  0.5578
   15SAPS  H11Y 1973   7.114   6.145   3.567  1.7278  0.4265  2.5859
   15SAPS  C312 1974   7.304   6.164   3.636 -0.2260 -0.3925 -0.4406
   15SAPS  H12X 1975   7.296   6.275   3.637  2.4300 -0.1291  0.1737
   15SAPS  H12Y 1976   7.408   6.147   3.601  0.7608  1.4799  1.2988
   15SAPS  C313 1977   7.303   6.097   3.776 -0.5705  0.6170  0.8720
   15SAPS  H13X 1978   7.369   6.159   3.840 -2.8571  0.5533  3.4418
   15SAPS  H13Y 1979   7.346   5.995   3.784 -0.1870  0.6028 -0.9264
   15SAPS  C314 1980   7.162   6.098   3.839 -0.4695  0.4232  0.0204
   15SAPS  H14X 1981   7.091   6.038   3.777 -0.4839  0.2095  0.2435
   15SAPS  H14Y 1982   7.119   6.201   3.842 -1.9063 -0.1737  0.9179
   15SAPS  C315 1983   7.165   6.025   3.971  0.3286 -0.4397  0.3043
   15SAPS  H15X 1984   7.205   6.087   4.054  0.3052 -0.3709  0.2643
   15SAPS  H15Y 1985   7.241   5.946   3.952  2.8955  1.6035  1.4279
   15SAPS  C316 1986   7.037   5.942   3.998  0.8966  0.2532 -0.0339
   15SAPS  H16X 1987   7.056   5.854   4.064 -2.5140  0.2152  1.0965
   15SAPS  H16Y 1988   6.985   5.900   3.909  0.6624 -3.3815  1.6511
   15SAPS  C317 1989   6.935   6.023   4.076  0.5592  0.0028  0.1416
   15SAPS  H17X 1990   6.897   6.112   4.022 -2.4344 -0.9802  0.4404
   15SAPS  H17Y 1991   6.991   6.061   4.165  2.8155 -2.8279  0.0749
   15SAPS  C318 1992   6.808   5.940   4.106  0.5368 -0.6330 -0.0208
   15SAPS  H18X 1993   6.825   5.875   4.195 -2.3232  0.8799  1.8058
   15SAPS  H18Y 1994   6.788   5.883   4.013  3.1419 -0.6846 -0.6156
   15SAPS  H18Z 1995   6.718   6.003   4.126  1.4842  0.8143 -0.1517
   16SAPS     N 1996   6.056   6.413   2.224 -0.0629 -0.9034 -0.0822
   16SAPS   HN1 1997   6.027   6.331   2.168 -3.8457 -0.6863  1.3021
   16SAPS   HN2 1998   6.137   6.384   2.283  0.4422 -0.9047 -0.7659
   16SAPS   HN3 1999   5.976   6.436   2.286 -0.7275 -1.8435 -0.5694
   16SAPS   C12 2000   6.101   6.527   2.138 -0.2470  0.5693 -0.1238
   16SAPS  H12A 2001   6.196   6.493   2.099 -1.1828 -1.2229 -0.9531
   16SAPS   C13 2002   6.021   6.552   2.009 -0.1796  0.7799 -0.0315
   16SAPS  O13A 2003   5.913   6.493   1.979  0.6596  0.6823  0.2889
   16SAPS  O13B 2004   6.080   6.620   1.925 -0.1863  0.3449 -0.5237
   16SAPS   C11 2005   6.121   6.653   2.234 -0.1538  0.1566  0.3072
   16SAPS  H11A 2006   6.021   6.693   2.259 -0.9004  0.2333 -2.4500
   16SAPS  H11B 2007   6.165   6.730   2.167  0.4110 -2.4490 -2.5548
   16SAPS     P 2008   6.194   6.723   2.475 -0.2090  0.5101 -0.4573
   16SAPS   O13 2009   6.114   6.652   2.582  0.4378  0.0829  0.2913
   16SAPS   O14 2010   6.329   6.763   2.512 -0.7374  0.3324 -0.6945
   16SAPS   O12 2011   6.202   6.632   2.349  0.4443  0.4932 -0.1696
   16SAPS   O11 2012   6.128   6.839   2.403  0.6483 -0.2393 -0.2516
   16SAPS    C1 2013   6.021   6.920   2.459 -0.2229  0.6823  0.1772
   16SAPS    HA 2014   5.951   6.957   2.382  1.6030  0.9746 -1.4076
   16SAPS    HB 2015   5.962   6.862   2.534 -2.1748  0.1210 -1.6935
   16SAPS    C2 2016   6.077   7.043   2.539 -0.0112  0.5506  0.0444
   16SAPS    HS 2017   6.114   7.113   2.461 -1.3066 -0.0950 -1.2053
   16SAPS   O21 2018   6.183   7.007   2.630 -0.6509  0.2618  0.2452
   16SAPS   C21 2019   6.265   7.105   2.670  0.6548  0.7993 -0.2131
   16SAPS   O22 2020   6.270   7.217   2.629 -0.5527 -0.0138 -0.3627
   16SAPS   C22 2021   6.357   7.041   2.777 -0.1541 -0.5530 -0.1601
   16SAPS   H2R 2022   6.441   7.001   2.718  0.4430  2.0014 -1.1703
   16SAPS   H2S 2023   6.411   7.119   2.836 -0.9212 -1.5016  1.9209
   16SAPS    C3 2024   5.962   7.112   2.616  0.2233  0.0971 -0.2158
   16SAPS    HX 2025   5.920   7.037   2.685  0.4486 -0.0555 -0.2414
   16SAPS    HY 2026   5.882   7.146   2.548 -0.9111  1.3608  1.6813
   16SAPS   O31 2027   5.998   7.211   2.704 -0.1042 -0.3041  0.0618
   16SAPS   C31 2028   5.987   7.342   2.662 -0.8557  1.1383 -0.1432
   16SAPS   O32 2029   5.941   7.376   2.556 -0.0022 -0.1160  0.0060
   16SAPS   C32 2030   6.051   7.437   2.765 -0.2399  0.0179  0.3683
   16SAPS   H2X 2031   6.062   7.529   2.704 -1.5219 -1.0206 -1.5392
   16SAPS   H2Y 2032   6.154   7.401   2.787 -0.2280  0.7296  1.5631
   16SAPS   C23 2033   6.291   6.941   2.861  0.2360 -0.0686  0.5323
   16SAPS   H3R 2034   6.376   6.872   2.883 -0.3324 -1.0363 -0.2083
   16SAPS   H3S 2035   6.219   6.873   2.811  1.4906 -2.7275  2.0667
   16SAPS   C24 2036   6.217   6.992   2.985  0.3598 -0.0165  0.2227
   16SAPS   H4R 2037   6.138   6.918   3.011  0.8084  0.1369  2.1760
   16SAPS   H4S 2038   6.158   7.082   2.955  0.8842  1.5363  3.3448
   16SAPS   C25 2039   6.312   7.034   3.095 -0.1545  1.3201  0.0924
   16SAPS   H5R 2040   6.392   6.959   3.102  0.7376  2.2699  0.4003
   16SAPS   C26 2041   6.320   7.147   3.171  0.5558  0.1045  0.4393
   16SAPS   H6R 2042   6.404   7.163   3.240 -0.0017  0.3948  1.0620
   16SAPS   C27 2043   6.216   7.257   3.163 -0.4029  0.1945 -0.3387
   16SAPS   H7R 2044   6.158   7.252   3.068 -0.2046  1.8370 -0.5842
   16SAPS   H7S 2045   6.266   7.356   3.173  0.4254 -0.3131  0.7335
   16SAPS   C28 2046   6.121   7.249   3.282 -0.2192  0.0296  0.2308
   16SAPS   H8R 2047   6.057   7.159   3.280  0.8274 -0.7281 -1.5489
   16SAPS   C29 2048   6.111   7.333   3.382 -0.0407 -0.1963  0.2509
   16SAPS   H9R 2049   6.030   7.314   3.454 -1.3119  1.7064 -0.5911
   16SAPS  C210 2050   6.199   7.452   3.416 -0.8307 -0.1164  0.9061
   16SAPS  H10R 2051   6.250   7.493   3.326 -0.7709 -0.2335  0.8854
   16SAPS  H10S 2052   6.276   7.401   3.478  1.8858  0.2786 -1.9051
   16SAPS  C211 2053   6.131   7.558   3.484 -0.2194 -0.2723 -0.6564
   16SAPS  H11R 2054   6.089   7.633   3.415 -2.3111 -0.6921  0.0805
   16SAPS  C212 2055   6.112   7.575   3.621  0.5580  0.5852  0.4023
   16SAPS  H12R 2056   6.059   7.667   3.649 -2.1144 -0.8818  0.5443
   16SAPS  C213 2057   6.132   7.485   3.735 -0.0288  0.3544  0.3510
   16SAPS  H13R 2058   6.225   7.500   3.794  0.3530  0.9551 -0.3883
   16SAPS  H13S 2059   6.139   7.382   3.693  0.0919  0.4800  0.0617
   16SAPS  C214 2060   6.009   7.501   3.826 -0.0897 -0.9100  0.4147
   16SAPS  H14R 2061   5.915   7.510   3.769  0.6457  0.4071 -0.6810
   16SAPS  C215 2062   5.992   7.486   3.962 -0.4988 -0.4442  0.1661
   16SAPS  H15R 2063   5.888   7.488   3.997 -0.8569  1.3582 -0.8442
   16SAPS  C216 2064   6.109   7.457   4.061  0.4414  0.0442 -0.2238
   16SAPS  H16R 2065   6.108   7.532   4.143  2.7084 -1.7439  1.5535
   16SAPS  H16S 2066   6.209   7.472   4.016  0.9818 -1.2592  0.5055
   16SAPS  C217 2067   6.111   7.322   4.130  0.4998  0.4831  0.6499
   16SAPS  H17R 2068   6.206   7.302   4.183  1.2337  4.6172  1.1639
   16SAPS  H17S 2069   6.082   7.241   4.059 -0.0001 -0.5513  2.0047
   16SAPS  C218 2070   6.003   7.304   4.237 -0.0687 -0.7082 -0.2675
   16SAPS  H18R 2071   5.902   7.290   4.194 -0.5816 -0.8044  0.9198
   16SAPS  H18S 2072   5.989   7.395   4.299 -0.5721 -0.3854 -0.8412
   16SAPS  C219 2073   6.035   7.197   4.336  0.0831 -0.2094  0.2548
   16SAPS  H19R 2074   6.131   7.207   4.391  0.6145 -2.5605 -0.1341
   16SAPS  H19S 2075   6.053   7.111   4.267 -0.0246  1.9892 -2.7292
   16SAPS  C220 2076   5.913   7.180   4.430 -0.9768  0.1977  0.3181
   16SAPS  H20R 2077   5.839   7.120   4.373  0.1711 -1.3655  0.4013
   16SAPS  H20S 2078   5.875   7.278   4.467 -1.6124 -0.2837  0.9666
   16SAPS  H20T 2079   5.958   7.118   4.511  3.6572  1.0841 -1.2728
   16SAPS   C33 2080   5.966   7.465   2.888  0.5346  0.6208  0.5580
   16SAPS   H3X 2081   5.932   7.371   2.936 -2.0038  0.1930 -1.8575
   16SAPS   H3Y 2082   5.873   7.519   2.860 -0.4158 -0.2657  1.8979
   16SAPS   C34 2083   6.043   7.559   2.985 -0.1934 -0.4136  0.2204
   16SAPS   H4X 2084   6.048   7.655   2.928 -0.1125 -0.4713  0.1303
   16SAPS   H4Y 2085   6.145   7.525   3.013 -0.0442  1.8380  2.8186
   16SAPS   C35 2086   5.978   7.598   3.122  0.1955 -0.2961 -0.9415
   16SAPS   H5X 2087   6.069   7.628   3.179 -0.3635  0.7497 -0.5832
   16SAPS   H5Y 2088   5.931   7.511   3.172 -0.1885  1.2762  1.5659
   16SAPS   C36 2089   5.879   7.708   3.100  0.3415 -0.1039 -0.7200
   16SAPS   H6X 2090   5.793   7.676   3.039 -1.3613  0.1675  1.3991
   16SAPS   H6Y 2091   5.926   7.803   3.066 -0.6048 -0.1897 -2.3529
   16SAPS   C37 2092   5.807   7.740   3.239 -1.1279  0.1441  0.4414
   16SAPS   H7X 2093   5.885   7.770   3.312 -0.9636  0.4044  0.1632
   16SAPS   H7Y 2094   5.768   7.640   3.266 -0.5742 -0.3277 -0.4504
   16SAPS   C38 2095   5.705   7.851   3.216 -0.0555  0.3557 -0.4461
   16SAPS   H8X 2096   5.635   7.829   3.133 -0.4718 -0.7536  0.1834
   16SAPS   H8Y 2097   5.755   7.947   3.189  1.3465 -0.2925 -0.2397
   16SAPS   C39 2098   5.621   7.867   3.344  0.1218 -0.3217  0.3313
   16SAPS   H9X 2099   5.547   7.949   3.330  0.7706  0.1923 -0.1353
   16SAPS   H9Y 2100   5.697   7.898   3.419 -1.1553  1.0854  1.1011
   16SAPS  C310 2101   5.545   7.738   3.389  0.4542 -0.6969  0.1137
   16SAPS  H10X 2102   5.612   7.662   3.434  0.5397  0.4892  2.0735
   16SAPS  H10Y 2103   5.501   7.687   3.300  3.3953 -0.3988 -1.6522
   16SAPS  C311 2104   5.433   7.775   3.485 -0.6284  0.0481  0.3166
   16SAPS  H11X 2105   5.369   7.851   3.436 -0.0365 -1.1076 -2.4172
   16SAPS  H11Y 2106   5.481   7.819   3.575 -1.8361  0.6384  0.6952
   16SAPS  C312 2107   5.338   7.656   3.507  0.1459 -0.7142  0.2324
   16SAPS  H12X 2108   5.391   7.566   3.545  1.9505 -0.3408 -1.1937
   16SAPS  H12Y 2109   5.312   7.628   3.403  0.2865  0.5942 -0.1719
   16SAPS  C313 2110   5.218   7.691   3.596 -0.5121 -0.1041  1.0346
   16SAPS  H13X 2111   5.157   7.599   3.606  0.3033 -1.2516 -2.8857
   16SAPS  H13Y 2112   5.144   7.757   3.546  2.2615  1.3219 -1.5070
   16SAPS  C314 2113   5.254   7.741   3.732  0.7687  0.0138 -0.2022
   16SAPS  H14X 2114   5.305   7.839   3.722  0.9445 -0.2715 -2.4227
   16SAPS  H14Y 2115   5.321   7.666   3.779  1.5900  0.5929 -0.4450
   16SAPS  C315 2116   5.142   7.772   3.819 -0.2591 -0.0907 -1.1218
   16SAPS  H15X 2117   5.076   7.683   3.818  0.4812 -0.6816  0.0882
   16SAPS  H15Y 2118   5.083   7.862   3.791 -3.0180 -1.7678 -1.1237
   16SAPS  C316 2119   5.180   7.780   3.968  0.0201  0.6946  0.2684
   16SAPS  H16X 2120   5.228   7.682   3.988  0.7977  1.1987  0.9292
   16SAPS  H16Y 2121   5.098   7.798   4.041 -2.2188  0.4873 -2.0454
   16SAPS  C317 2122   5.287   7.884   3.999  0.5696 -0.4641 -0.3388
   16SAPS  H17X 2123   5.237   7.983   3.998  1.4212  0.0438  1.6836
   16SAPS  H17Y 2124   5.376   7.880   3.933  0.4792  0.9893 -0.5738
   16SAPS  C318 2125   5.341   7.871   4.147  0.2397  0.0498 -0.5129
   16SAPS  H18X 2126   5.307   7.962   4.200  0.0366 -0.2259 -0.1609
   16SAPS  H18Y 2127   5.452   7.866   4.153  0.1330 -1.2685  1.6827
   16SAPS  H18Z 2128   5.305   7.783   4.205  1.7284 -0.6386 -0.5818
   17SAPS     N 2129   1.779   6.595   1.905  0.8531  0.5461  0.4673
   17SAPS   HN1 2130   1.687   6.611   1.950 -0.0673 -0.9125 -0.8101
   17SAPS   HN2 2131   1.769   6.512   1.844  0.8700 -0.3232  1.6195
   17SAPS   HN3 2132   1.860   6.570   1.965  1.8642  1.2545 -0.5572
   17SAPS   C12 2133   1.828   6.717   1.818 -0.0116  0.2291  0.3684
   17SAPS  H12A 2134   1.923   6.684   1.779 -0.2943 -0.0094 -0.1236
   17SAPS   C13 2135   1.742   6.761   1.697 -0.0784  0.7363 -0.3285
   17SAPS  O13A 2136   1.626   6.720   1.684 -0.3549 -0.0054  0.0271
   17SAPS  O13B 2137   1.801   6.840   1.621  0.3553 -0.6875  0.3209
   17SAPS   C11 2138   1.836   6.837   1.920 -0.0969 -0.2904 -0.0788
   17SAPS  H11A 2139   1.735   6.872   1.951  1.0312  0.4180  3.1529
   17SAPS  H11B 2140   1.882   6.918   1.859  0.4045 -0.8599 -0.4640
   17SAPS     P 2141   1.904   6.890   2.172 -0.2824 -0.0085  0.1925
   17SAPS   O13 2142   2.024   6.983   2.180  0.2461  0.6472 -0.6400
   17SAPS   O14 2143   1.770   6.961   2.188  0.2560  0.3459  0.0856
   17SAPS   O12 2144   1.920   6.811   2.036 -0.5679 -0.6786  0.2823
   17SAPS   O11 2145   1.917   6.776   2.280 -0.0358 -0.4108  0.2408
   17SAPS    C1 2146   1.819   6.679   2.301  0.6377 -0.1330 -0.1859
   17SAPS    HA 2147   1.736   6.687   2.227 -0.4476  0.3980  1.0390
   17SAPS    HB 2148   1.868   6.579   2.294  0.1683 -0.4110  0.3647
   17SAPS    C2 2149   1.751   6.692   2.439  0.8946 -0.6582 -0.8956
   17SAPS    HS 2150   1.695   6.788   2.445  1.6051 -0.2773 -0.2455
   17SAPS   O21 2151   1.845   6.683   2.550  0.6826 -0.1092 -0.0077
   17SAPS   C21 2152   1.903   6.800   2.577  0.5466 -0.1947 -0.2480
   17SAPS   O22 2153   1.871   6.907   2.527  0.3723  0.3326  0.0243
   17SAPS   C22 2154   2.011   6.787   2.686  0.9003  0.7173  0.0011
   17SAPS   H2R 2155   2.066   6.691   2.686  0.9372  0.6713  2.4504
   17SAPS   H2S 2156   2.084   6.864   2.652  0.4945  0.9624 -0.3269
   17SAPS    C3 2157   1.643   6.578   2.453 -0.0034 -0.2366 -0.1009
   17SAPS    HX 2158   1.689   6.479   2.433 -0.3024 -0.3397 -0.2793
   17SAPS    HY 2159   1.566   6.600   2.376  0.4470  0.9637 -0.2325
   17SAPS   O31 2160   1.588   6.583   2.587 -0.4978  0.1810 -0.0849
   17SAPS   C31 2161   1.536   6.469   2.633 -0.2706 -0.3706  0.6147
   17SAPS   O32 2162   1.540   6.356   2.586 -0.5129 -0.0787  0.1420
   17SAPS   C32 2163   1.477   6.507   2.770  0.4290 -0.1494  0.8076
   17SAPS   H2X 2164   1.372   6.535   2.745 -0.4553 -2.6709  1.4054
   17SAPS   H2Y 2165   1.537   6.584   2.822  1.0217 -0.5888  0.7770
   17SAPS   C23 2166   1.952   6.820   2.830 -0.1729 -0.2412  0.8510
   17SAPS   H3R 2167   1.893   6.914   2.831 -0.3256 -0.3398  1.4786
   17SAPS   H3S 2168   2.031   6.822   2.908  1.7304 -2.5709 -0.8473
   17SAPS   C24 2169   1.854   6.705   2.871  0.1139  0.8344 -1.2260
   17SAPS   H4R 2170   1.803   6.664   2.782  3.0985 -0.2428 -2.5672
   17SAPS   H4S 2171   1.776   6.752   2.935 -0.7572  1.8358 -2.9541
   17SAPS   C25 2172   1.930   6.594   2.941  0.3397 -0.4773  0.4146
   17SAPS   H5R 2173   1.993   6.526   2.883  0.5988 -0.2954  0.4826
   17SAPS   C26 2174   1.930   6.565   3.071  0.0011 -0.4035 -0.3771
   17SAPS   H6R 2175   1.997   6.484   3.104  0.6605  0.7072  1.1443
   17SAPS   C27 2176   1.861   6.645   3.181 -0.4669  0.6494 -0.2242
   17SAPS   H7R 2177   1.758   6.681   3.160 -1.6378 -1.8002  1.0040
   17SAPS   H7S 2178   1.929   6.733   3.193  1.4011 -0.9018  1.2259
   17SAPS   C28 2179   1.860   6.564   3.306 -0.2267  0.3432  0.1819
   17SAPS   H8R 2180   1.830   6.459   3.292 -1.4214  1.0672 -3.9114
   17SAPS   C29 2181   1.896   6.605   3.429  0.1616  0.0788 -0.5045
   17SAPS   H9R 2182   1.898   6.532   3.511  1.8402  1.2374  0.5412
   17SAPS  C210 2183   1.931   6.751   3.456  0.5514  0.4140  0.0965
   17SAPS  H10R 2184   1.858   6.818   3.405 -1.2464 -0.7411  1.0518
   17SAPS  H10S 2185   2.031   6.777   3.416  0.9830 -2.2043 -0.6854
   17SAPS  C211 2186   1.935   6.773   3.604 -0.1409  0.2031 -0.7501
   17SAPS  H11R 2187   2.019   6.723   3.654  1.7287  2.2458 -1.6803
   17SAPS  C212 2188   1.850   6.844   3.682  0.2908  0.1860 -0.8141
   17SAPS  H12R 2189   1.899   6.863   3.779  0.4475  0.1784 -0.8922
   17SAPS  C213 2190   1.729   6.929   3.654  0.5086 -0.2234 -0.1075
   17SAPS  H13R 2191   1.671   6.889   3.568  0.6560 -0.0986 -0.2655
   17SAPS  H13S 2192   1.769   7.030   3.628 -0.7396  0.5825  0.9392
   17SAPS  C214 2193   1.638   6.946   3.774  0.4715 -0.4858 -0.5530
   17SAPS  H14R 2194   1.546   6.887   3.763  0.9337 -1.3734  0.1756
   17SAPS  C215 2195   1.651   7.026   3.881 -0.1740 -0.1173 -0.1141
   17SAPS  H15R 2196   1.573   7.019   3.958 -0.8746 -0.4983 -0.8330
   17SAPS  C216 2197   1.767   7.117   3.926  0.3220  0.3435 -0.1219
   17SAPS  H16R 2198   1.859   7.090   3.870  0.2412 -1.5039  0.5822
   17SAPS  H16S 2199   1.783   7.104   4.035 -2.5174  0.0642  0.3362
   17SAPS  C217 2200   1.735   7.263   3.921  0.2496 -0.6596  0.4406
   17SAPS  H17R 2201   1.809   7.319   3.981 -0.4198 -0.2634  0.9051
   17SAPS  H17S 2202   1.641   7.281   3.979 -0.5604 -2.4549 -0.2099
   17SAPS  C218 2203   1.714   7.315   3.778  0.2438 -0.3386 -0.1745
   17SAPS  H18R 2204   1.646   7.251   3.719  1.5630 -0.8585 -1.1822
   17SAPS  H18S 2205   1.809   7.310   3.721  0.4124 -0.1661  0.0872
   17SAPS  C219 2206   1.653   7.458   3.773  0.8911 -0.4068 -0.1542
   17SAPS  H19R 2207   1.720   7.520   3.835  1.3113 -1.0801  0.0782
   17SAPS  H19S 2208   1.552   7.451   3.819  0.1701  0.7179 -1.5037
   17SAPS  C220 2209   1.642   7.531   3.639 -0.1687  0.3044 -1.1309
   17SAPS  H20R 2210   1.581   7.463   3.577 -4.5232  2.3846  0.4427
   17SAPS  H20S 2211   1.744   7.553   3.600  1.5185  1.9142  3.4692
   17SAPS  H20T 2212   1.600   7.634   3.637  0.1680  0.4365 -1.8539
   17SAPS   C33 2213   1.478   6.381   2.861 -0.9674  0.0943  0.3395
   17SAPS   H3X 2214   1.435   6.298   2.801 -1.3351  1.7019 -1.7309
   17SAPS   H3Y 2215   1.412   6.390   2.950  1.0371 -1.7159  2.1161
   17SAPS   C34 2216   1.626   6.341   2.906 -0.2748 -0.4131  0.1582
   17SAPS   H4X 2217   1.680   6.432   2.937 -2.0109  1.6976 -2.5447
   17SAPS   H4Y 2218   1.684   6.291   2.826  2.1379  1.4023  0.6798
   17SAPS   C35 2219   1.623   6.231   3.013  0.6417  0.2368 -0.7031
   17SAPS   H5X 2220   1.570   6.143   2.970 -1.5416  2.0923 -2.1016
   17SAPS   H5Y 2221   1.562   6.277   3.093  1.4474 -1.1473  0.7424
   17SAPS   C36 2222   1.761   6.201   3.056  0.0464 -0.4671 -0.5859
   17SAPS   H6X 2223   1.804   6.304   3.062 -1.9807  0.5331 -1.9398
   17SAPS   H6Y 2224   1.819   6.141   2.984  1.1540 -2.3832  1.7691
   17SAPS   C37 2225   1.789   6.157   3.203  0.1814  0.0183  0.6061
   17SAPS   H7X 2226   1.725   6.067   3.206 -1.1086  0.8882  0.1657
   17SAPS   H7Y 2227   1.746   6.236   3.268 -2.3530  0.5556 -1.5503
   17SAPS   C38 2228   1.932   6.121   3.233 -0.2608 -0.2615 -0.0998
   17SAPS   H8X 2229   2.000   6.204   3.208  1.0137 -1.8712 -2.3341
   17SAPS   H8Y 2230   1.971   6.056   3.152  0.1573  0.2377 -0.3023
   17SAPS   C39 2231   1.970   6.067   3.367 -0.3483  0.5059  0.4804
   17SAPS   H9X 2232   1.937   6.138   3.445  0.2303  2.9159 -1.3516
   17SAPS   H9Y 2233   2.081   6.055   3.364 -0.3219  0.8709 -0.3150
   17SAPS  C310 2234   1.926   5.923   3.391  0.5861 -0.6014 -1.0444
   17SAPS  H10X 2235   1.955   5.852   3.310  2.4585 -0.4754 -0.5403
   17SAPS  H10Y 2236   1.816   5.923   3.402  0.6594 -0.3539 -0.2376
   17SAPS  C311 2237   1.980   5.866   3.530 -0.5351  0.6523  0.8338
   17SAPS  H11X 2238   2.090   5.871   3.516 -0.4661  1.5228  1.6341
   17SAPS  H11Y 2239   1.947   5.760   3.538  1.3230 -0.0337  0.0412
   17SAPS  C312 2240   1.928   5.934   3.653 -0.4594 -0.0060 -0.7723
   17SAPS  H12X 2241   1.822   5.966   3.640  0.0326  1.2351 -2.0532
   17SAPS  H12Y 2242   1.984   6.029   3.660  0.4922 -0.2728 -3.4752
   17SAPS  C313 2243   1.941   5.855   3.782 -0.2630 -0.5998 -0.6689
   17SAPS  H13X 2244   1.880   5.764   3.765 -1.3552  0.5432 -3.3545
   17SAPS  H13Y 2245   1.885   5.901   3.866  0.5613 -2.4459  0.9688
   17SAPS  C314 2246   2.086   5.812   3.826  0.4402  0.2266  0.6231
   17SAPS  H14X 2247   2.150   5.779   3.742  2.4566 -0.5891  2.3959
   17SAPS  H14Y 2248   2.069   5.732   3.901  1.5611 -1.3977 -0.7857
   17SAPS  C315 2249   2.153   5.931   3.896 -0.1142  0.0621 -0.0033
   17SAPS  H15X 2250   2.168   6.016   3.826 -1.5764  0.4721  0.1512
   17SAPS  H15Y 2251   2.253   5.886   3.917 -0.0903  0.1405  0.0484
   17SAPS  C316 2252   2.087   5.969   4.036  0.2164 -0.5055 -0.1742
   17SAPS  H16X 2253   1.976   5.972   4.024  0.1154  1.5428  0.8180
   17SAPS  H16Y 2254   2.111   6.074   4.063 -2.7906 -0.0526  1.1769
   17SAPS  C317 2255   2.129   5.882   4.154 -0.4397  0.5486 -0.0423
   17SAPS  H17X 2256   2.110   5.778   4.120 -0.3422  1.0859 -1.8234
   17SAPS  H17Y 2257   2.065   5.892   4.244 -1.9306 -0.3412 -0.9717
   17SAPS  C318 2258   2.278   5.885   4.185  0.1494 -0.0738  0.0529
   17SAPS  H18X 2259   2.344   5.890   4.095 -0.1724  0.2609 -0.1701
   17SAPS  H18Y 2260   2.300   5.785   4.228 -3.0655 -1.3327 -0.9365
   17SAPS  H18Z 2261   2.303   5.966   4.257  1.4103 -1.6752  1.4867
   18SAPS     N 2262   6.715   4.250   2.273 -0.1380 -1.3892 -0.2027
   18SAPS   HN1 2263   6.668   4.216   2.360  0.3355 -0.2014  0.5541
   18SAPS   HN2 2264   6.776   4.173   2.241  1.7170  0.8974 -2.7023
   18SAPS   HN3 2265   6.772   4.332   2.302  1.7718 -2.4833 -0.7521
   18SAPS   C12 2266   6.603   4.291   2.181 -0.5050 -0.3173  0.0829
   18SAPS  H12A 2267   6.617   4.389   2.137 -1.7558  0.6077  1.6512
   18SAPS   C13 2268   6.576   4.197   2.062 -0.2171  0.5645  0.6092
   18SAPS  O13A 2269   6.650   4.093   2.050 -0.1969 -0.2776  0.3805
   18SAPS  O13B 2270   6.513   4.248   1.960 -0.3302  0.2416  0.0862
   18SAPS   C11 2271   6.470   4.312   2.254  0.3989 -0.0348  0.9408
   18SAPS  H11A 2272   6.449   4.216   2.305  0.5947  1.3956  3.8705
   18SAPS  H11B 2273   6.388   4.345   2.187 -0.5104 -0.0680  2.0162
   18SAPS     P 2274   6.491   4.550   2.373  0.1262  0.0530  0.1835
   18SAPS   O13 2275   6.575   4.603   2.264 -0.6112 -0.3879 -0.4422
   18SAPS   O14 2276   6.351   4.601   2.388  0.1520  0.1231  0.1621
   18SAPS   O12 2277   6.488   4.393   2.361  0.6689 -0.3370 -0.2896
   18SAPS   O11 2278   6.570   4.565   2.508 -0.1296 -0.3462  0.6357
   18SAPS    C1 2279   6.569   4.462   2.605 -0.6947 -0.8559 -0.2529
   18SAPS    HA 2280   6.577   4.356   2.573 -0.7893 -0.8733 -0.2189
   18SAPS    HB 2281   6.650   4.485   2.678 -1.5451 -1.2740  0.8499
   18SAPS    C2 2282   6.452   4.471   2.693  0.2384 -0.0350 -0.2228
   18SAPS    HS 2283   6.365   4.456   2.625 -0.8294 -1.6740  1.4000
   18SAPS   O21 2284   6.460   4.592   2.771 -0.5645 -0.3121 -0.9278
   18SAPS   C21 2285   6.346   4.650   2.789  0.1763  0.5865  0.3548
   18SAPS   O22 2286   6.242   4.608   2.743 -0.0123  0.3399  0.0913
   18SAPS   C22 2287   6.358   4.785   2.851 -0.1163  0.5130  0.1953
   18SAPS   H2R 2288   6.440   4.785   2.926 -1.1449 -0.8501  1.3741
   18SAPS   H2S 2289   6.393   4.853   2.770  2.2997  1.8006  2.1774
   18SAPS    C3 2290   6.444   4.345   2.791  0.0062  0.5857  0.3247
   18SAPS    HX 2291   6.535   4.357   2.853 -0.6651 -0.6701  1.6320
   18SAPS    HY 2292   6.456   4.247   2.740  1.0922 -0.6223  2.7035
   18SAPS   O31 2293   6.327   4.347   2.879 -0.1896 -0.0086  0.2038
   18SAPS   C31 2294   6.221   4.276   2.842 -0.4046 -0.4363 -1.0224
   18SAPS   O32 2295   6.210   4.208   2.740 -0.8366 -0.2138  0.0554
   18SAPS   C32 2296   6.107   4.299   2.941 -0.0975  0.2499 -0.4472
   18SAPS   H2X 2297   6.024   4.355   2.894 -0.7777  0.7722  1.3030
   18SAPS   H2Y 2298   6.143   4.363   3.024  1.0561 -0.1167 -0.6309
   18SAPS   C23 2299   6.233   4.853   2.922  0.4042  0.0382 -0.3684
   18SAPS   H3R 2300   6.143   4.852   2.857 -0.0291 -1.8407  0.1720
   18SAPS   H3S 2301   6.270   4.957   2.934 -0.4756  0.2836  0.2928
   18SAPS   C24 2302   6.213   4.797   3.061 -0.8887 -0.0534 -0.6748
   18SAPS   H4R 2303   6.144   4.875   3.101 -0.9874  0.1531 -1.2380
   18SAPS   H4S 2304   6.305   4.813   3.122  0.2712 -0.3586 -2.2880
   18SAPS   C25 2305   6.168   4.653   3.069  0.1062  0.7574 -0.2071
   18SAPS   H5R 2306   6.207   4.567   3.012 -1.7641 -1.1382  1.2048
   18SAPS   C26 2307   6.065   4.621   3.149 -0.4312 -0.5708  0.7229
   18SAPS   H6R 2308   6.022   4.522   3.127 -2.6241  0.9935 -3.1115
   18SAPS   C27 2309   5.976   4.715   3.226  0.4715 -0.4364 -0.0538
   18SAPS   H7R 2310   5.873   4.677   3.243  0.4102 -0.2247  0.0585
   18SAPS   H7S 2311   5.960   4.805   3.163  1.8569 -0.6196 -0.6988
   18SAPS   C28 2312   6.034   4.763   3.359 -0.4710  0.6460  0.4613
   18SAPS   H8R 2313   6.086   4.857   3.334  1.5748 -1.1431 -2.6117
   18SAPS   C29 2314   6.021   4.711   3.481  0.2029  0.4345  0.5823
   18SAPS   H9R 2315   6.071   4.758   3.567 -2.4759  0.8761  2.0084
   18SAPS  C210 2316   5.932   4.603   3.534 -0.1446 -0.4469  0.3270
   18SAPS  H10R 2317   5.910   4.525   3.457 -0.3905 -1.1638  1.1012
   18SAPS  H10S 2318   5.840   4.642   3.582 -0.1207  1.9320 -1.3800
   18SAPS  C211 2319   5.996   4.525   3.646  0.2980 -0.1663  0.0291
   18SAPS  H11R 2320   6.076   4.461   3.608 -0.6495 -1.5413  0.2708
   18SAPS  C212 2321   5.969   4.529   3.779  0.1322  0.3526  0.0728
   18SAPS  H12R 2322   6.005   4.461   3.858 -1.6739  1.7779  2.2849
   18SAPS  C213 2323   5.866   4.620   3.839  0.6291 -0.2593  0.1190
   18SAPS  H13R 2324   5.836   4.694   3.763 -1.5006 -1.0935  0.0695
   18SAPS  H13S 2325   5.903   4.675   3.928 -0.5463  0.2705  0.2982
   18SAPS  C214 2326   5.750   4.538   3.887 -0.3224 -0.4542 -0.2066
   18SAPS  H14R 2327   5.698   4.477   3.811 -2.0923  1.6480 -0.7703
   18SAPS  C215 2328   5.682   4.552   4.003  0.4777  0.0628  0.0681
   18SAPS  H15R 2329   5.595   4.486   4.013  0.1392 -0.0151 -2.6768
   18SAPS  C216 2330   5.713   4.642   4.119 -0.2640  0.0251 -1.1826
   18SAPS  H16R 2331   5.641   4.725   4.137  0.1704 -0.0509  1.2051
   18SAPS  H16S 2332   5.812   4.691   4.108 -1.5769  3.6543  1.1487
   18SAPS  C217 2333   5.714   4.560   4.253 -0.1371 -0.8493 -0.2353
   18SAPS  H17R 2334   5.799   4.488   4.247  0.1055 -0.6414  0.5263
   18SAPS  H17S 2335   5.615   4.510   4.259 -0.8770  0.6918  1.1506
   18SAPS  C218 2336   5.741   4.649   4.375  0.0966 -0.3749 -0.1403
   18SAPS  H18R 2337   5.657   4.711   4.412  0.5363 -1.3540  2.6867
   18SAPS  H18S 2338   5.822   4.721   4.353  0.5685 -0.1931  2.0127
   18SAPS  C219 2339   5.782   4.572   4.502  0.0474  0.0111 -0.5260
   18SAPS  H19R 2340   5.776   4.648   4.583  0.3191  0.2207 -0.7019
   18SAPS  H19S 2341   5.882   4.522   4.503 -0.9537 -2.0915  0.5177
   18SAPS  C220 2342   5.681   4.461   4.543 -0.0325  0.1052  0.2580
   18SAPS  H20R 2343   5.692   4.436   4.651 -1.6125  1.3026  0.7432
   18SAPS  H20S 2344   5.701   4.377   4.474 -0.1653 -0.9754  1.4952
   18SAPS  H20T 2345   5.580   4.505   4.530  0.8120  2.2757  0.6403
   18SAPS   C33 2346   6.064   4.158   2.990  0.8132 -0.3950 -0.5338
   18SAPS   H3X 2347   6.042   4.091   2.905  1.1779  2.4024 -3.0034
   18SAPS   H3Y 2348   5.961   4.163   3.033  0.6724  0.6367 -0.9491
   18SAPS   C34 2349   6.152   4.087   3.095 -0.4485  0.4996 -0.0856
   18SAPS   H4X 2350   6.175   4.146   3.186  0.8380 -2.9091  1.9531
   18SAPS   H4Y 2351   6.255   4.082   3.054  0.5392  1.6926  2.0730
   18SAPS   C35 2352   6.124   3.936   3.139 -0.2844  0.3280  0.2997
   18SAPS   H5X 2353   6.136   3.872   3.050  1.2558 -0.2813  0.9097
   18SAPS   H5Y 2354   6.020   3.917   3.174  0.2627 -3.8762  0.1873
   18SAPS   C36 2355   6.217   3.897   3.252 -0.4410 -0.3855 -0.1941
   18SAPS   H6X 2356   6.317   3.933   3.221 -0.5894 -1.3033 -1.8840
   18SAPS   H6Y 2357   6.221   3.786   3.250  1.3284 -0.3478 -1.2723
   18SAPS   C37 2358   6.184   3.963   3.391 -0.0816  0.5484 -0.2718
   18SAPS   H7X 2359   6.076   3.960   3.416  0.0344  1.3895  0.3700
   18SAPS   H7Y 2360   6.211   4.070   3.378 -1.5190  0.8661 -0.8687
   18SAPS   C38 2361   6.265   3.899   3.493 -0.2678  0.0538 -0.3848
   18SAPS   H8X 2362   6.373   3.911   3.471 -0.1836  0.3231  0.1393
   18SAPS   H8Y 2363   6.253   3.789   3.503  1.5261 -0.3090 -1.7750
   18SAPS   C39 2364   6.227   3.970   3.619  0.3432  0.1033 -0.4511
   18SAPS   H9X 2365   6.116   3.984   3.619  0.0792 -1.4718  1.6059
   18SAPS   H9Y 2366   6.245   4.079   3.622 -1.6443  0.4651  0.1442
   18SAPS  C310 2367   6.285   3.916   3.753  0.2392  0.0248 -0.3906
   18SAPS  H10X 2368   6.394   3.895   3.756  0.4015  0.9005 -0.0340
   18SAPS  H10Y 2369   6.245   3.812   3.762  1.7155 -0.6332 -1.0053
   18SAPS  C311 2370   6.258   4.003   3.876  0.1179 -0.5799 -0.5421
   18SAPS  H11X 2371   6.154   4.042   3.874  0.7992  1.5320  0.9826
   18SAPS  H11Y 2372   6.322   4.093   3.862 -0.4665  0.0626  0.6324
   18SAPS  C312 2373   6.290   3.948   4.011  0.2181 -0.2210 -0.7966
   18SAPS  H12X 2374   6.341   4.028   4.069  0.5362  0.2938 -1.7644
   18SAPS  H12Y 2375   6.366   3.867   4.008  0.1497 -0.4193  1.2198
   18SAPS  C313 2376   6.163   3.902   4.086  0.8075 -0.7043  0.0904
   18SAPS  H13X 2377   6.103   3.821   4.040 -0.7287  1.5378 -2.0958
   18SAPS  H13Y 2378   6.098   3.992   4.095  0.4092 -1.0244  0.5076
   18SAPS  C314 2379   6.191   3.872   4.236  0.3095 -0.0772  0.0847
   18SAPS  H14X 2380   6.239   3.965   4.274 -0.1956  0.0974  0.3052
   18SAPS  H14Y 2381   6.271   3.795   4.236 -1.1785 -1.6946  1.5501
   18SAPS  C315 2382   6.079   3.818   4.326  0.5031 -0.3819  1.4478
   18SAPS  H15X 2383   6.048   3.721   4.282 -1.5837  0.5200  0.8073
   18SAPS  H15Y 2384   5.996   3.891   4.322  0.4334 -0.5177 -0.4374
   18SAPS  C316 2385   6.115   3.788   4.470  0.6177  0.2647 -0.2970
   18SAPS  H16X 2386   6.170   3.875   4.512  0.6693 -0.6250  1.5826
   18SAPS  H16Y 2387   6.185   3.702   4.465 -0.4504 -0.5789 -1.5638
   18SAPS  C317 2388   5.999   3.759   4.573 -0.8171  0.0749 -0.5379
   18SAPS  H17X 2389   6.048   3.749   4.672 -1.2189 -1.9972 -0.5234
   18SAPS  H17Y 2390   5.940   3.668   4.551 -2.1826  1.1290 -1.3766
   18SAPS  C318 2391   5.901   3.879   4.603 -0.3946  0.1411  0.5855
   18SAPS  H18X 2392   5.819   3.854   4.674 -2.1861 -0.0366 -1.4274
   18SAPS  H18Y 2393   5.849   3.903   4.507  1.3192  2.0514  0.0596
   18SAPS  H18Z 2394   5.941   3.976   4.640  1.1257 -0.5122  0.6913
   19SAPS     N 2395   5.321   2.466   1.772  0.0988  0.0395  0.1676
   19SAPS   HN1 2396   5.404   2.444   1.714 -1.1122 -0.9088 -1.2453
   19SAPS   HN2 2397   5.291   2.385   1.829 -0.2485  0.3285  0.4008
   19SAPS   HN3 2398   5.250   2.499   1.704 -0.0049 -0.0338  0.2410
   19SAPS   C12 2399   5.361   2.590   1.860  0.5755  0.4650 -0.4292
   19SAPS  H12A 2400   5.453   2.560   1.907 -1.5005 -2.0656  2.4390
   19SAPS   C13 2401   5.396   2.712   1.778  0.3970  0.5701  0.3146
   19SAPS  O13A 2402   5.363   2.718   1.661 -0.1167 -0.6517  0.2248
   19SAPS  O13B 2403   5.464   2.805   1.834 -0.1685  0.0504  0.4215
   19SAPS   C11 2404   5.252   2.621   1.967 -0.7159  0.4133 -0.0210
   19SAPS  H11A 2405   5.158   2.643   1.911  0.6132  0.0899 -2.5709
   19SAPS  H11B 2406   5.288   2.703   2.033 -0.2399 -1.6354  2.4069
   19SAPS     P 2407   5.124   2.515   2.185 -0.3649 -0.0029 -0.1016
   19SAPS   O13 2408   5.069   2.649   2.195  0.4952 -0.2648 -0.0460
   19SAPS   O14 2409   5.030   2.404   2.177  0.0815 -0.1583 -0.1841
   19SAPS   O12 2410   5.227   2.511   2.058 -0.3524  0.2441  0.6239
   19SAPS   O11 2411   5.216   2.481   2.309  0.1092 -0.3912  0.3423
   19SAPS    C1 2412   5.350   2.514   2.321 -0.7077  0.3965  0.3645
   19SAPS    HA 2413   5.388   2.572   2.234 -0.9520 -1.8141 -1.3212
   19SAPS    HB 2414   5.375   2.564   2.417 -0.6110 -1.0524  1.1347
   19SAPS    C2 2415   5.434   2.382   2.346  0.0084 -0.0179  0.2368
   19SAPS    HS 2416   5.414   2.309   2.264 -0.2748  0.8229 -0.4663
   19SAPS   O21 2417   5.376   2.333   2.467  0.1922 -0.7356  0.8711
   19SAPS   C21 2418   5.423   2.222   2.518  0.3037 -0.3694 -0.3485
   19SAPS   O22 2419   5.496   2.144   2.464  0.2401  0.3950  0.2186
   19SAPS   C22 2420   5.368   2.202   2.658  0.1034 -0.2137  0.0448
   19SAPS   H2R 2421   5.328   2.298   2.698 -1.1655 -1.0465  0.8646
   19SAPS   H2S 2422   5.274   2.143   2.654  1.2354 -2.3998  2.6686
   19SAPS    C3 2423   5.590   2.410   2.360 -0.1364  0.2230  0.0641
   19SAPS    HX 2424   5.635   2.430   2.261 -0.9299 -0.1602 -0.3905
   19SAPS    HY 2425   5.641   2.322   2.405  2.0383  1.8401  0.9342
   19SAPS   O31 2426   5.607   2.524   2.443 -0.2500 -0.4386 -0.1435
   19SAPS   C31 2427   5.729   2.571   2.461 -0.0654 -0.6340  0.2414
   19SAPS   O32 2428   5.826   2.537   2.398  0.2210 -0.2126 -0.5694
   19SAPS   C32 2429   5.725   2.679   2.563 -0.5127 -0.5635  0.0159
   19SAPS   H2X 2430   5.625   2.708   2.601 -0.2810 -0.1154  0.2854
   19SAPS   H2Y 2431   5.777   2.765   2.515 -1.2956 -0.4044 -0.5615
   19SAPS   C23 2432   5.462   2.137   2.765 -0.2760 -0.1610 -0.3196
   19SAPS   H3R 2433   5.505   2.042   2.726  0.0624 -0.2799  0.3229
   19SAPS   H3S 2434   5.410   2.113   2.860 -2.7114  2.7885 -0.7752
   19SAPS   C24 2435   5.581   2.230   2.811  0.5351 -0.0765 -0.5713
   19SAPS   H4R 2436   5.635   2.248   2.716 -1.0283  1.9134 -1.1575
   19SAPS   H4S 2437   5.650   2.164   2.868 -0.1158  1.3642  2.0545
   19SAPS   C25 2438   5.565   2.361   2.884 -0.4571  0.1171 -0.2324
   19SAPS   H5R 2439   5.529   2.438   2.814  0.7190  0.4503 -0.4774
   19SAPS   C26 2440   5.560   2.391   3.012  0.4097  0.0927  0.1973
   19SAPS   H6R 2441   5.528   2.491   3.043 -5.4029 -1.5809  0.6905
   19SAPS   C27 2442   5.594   2.299   3.135 -1.0103 -0.5839 -0.4928
   19SAPS   H7R 2443   5.689   2.343   3.173 -1.6735 -0.3864  1.0005
   19SAPS   H7S 2444   5.621   2.195   3.106 -0.3685 -0.4326 -0.4402
   19SAPS   C28 2445   5.493   2.298   3.248 -0.6307  0.7750  0.3370
   19SAPS   H8R 2446   5.393   2.260   3.222  0.0082 -1.1057  0.4511
   19SAPS   C29 2447   5.524   2.319   3.380  0.1554  0.1097 -0.3170
   19SAPS   H9R 2448   5.437   2.309   3.445  0.5899  1.2619  0.4692
   19SAPS  C210 2449   5.657   2.358   3.445 -0.0689 -0.2244 -0.1729
   19SAPS  H10R 2450   5.663   2.461   3.487 -2.0487 -1.7239  4.5180
   19SAPS  H10S 2451   5.741   2.354   3.373  1.4447  0.3043  1.5068
   19SAPS  C211 2452   5.676   2.267   3.562 -0.0490 -0.4930 -0.1387
   19SAPS  H11R 2453   5.737   2.180   3.532  1.4788  0.6580 -0.5054
   19SAPS  C212 2454   5.612   2.269   3.680  0.1160 -0.1190 -0.2091
   19SAPS  H12R 2455   5.644   2.197   3.756  2.1137 -0.2597 -1.1034
   19SAPS  C213 2456   5.545   2.392   3.725  0.2759 -0.0405  0.0610
   19SAPS  H13R 2457   5.529   2.461   3.640 -0.2866 -0.8920 -0.5371
   19SAPS  H13S 2458   5.626   2.439   3.785  2.5283 -2.0275 -1.2526
   19SAPS  C214 2459   5.414   2.374   3.793 -0.8465 -0.5264 -0.1702
   19SAPS  H14R 2460   5.333   2.360   3.720  1.0986  0.4010 -2.6316
   19SAPS  C215 2461   5.406   2.387   3.925  0.9068  0.9327 -0.1458
   19SAPS  H15R 2462   5.310   2.381   3.978  0.7289 -0.4727 -0.5965
   19SAPS  C216 2463   5.524   2.399   4.018  0.1530  0.6679 -0.1463
   19SAPS  H16R 2464   5.565   2.500   4.000 -1.6084  1.5580  0.5731
   19SAPS  H16S 2465   5.588   2.314   3.987  1.0424  1.8465 -1.6919
   19SAPS  C217 2466   5.491   2.383   4.162  0.6336 -0.0168 -0.4288
   19SAPS  H17R 2467   5.424   2.297   4.181  3.2556 -1.3789  4.1211
   19SAPS  H17S 2468   5.445   2.478   4.194  1.6364  1.6071 -3.3648
   19SAPS  C218 2469   5.616   2.343   4.246  0.2252 -0.1745  0.0332
   19SAPS  H18R 2470   5.691   2.424   4.240 -0.3190  0.3924  0.7546
   19SAPS  H18S 2471   5.658   2.254   4.194 -0.5219  0.8623 -2.5103
   19SAPS  C219 2472   5.576   2.316   4.392  0.7464 -0.1855  0.0203
   19SAPS  H19R 2473   5.484   2.253   4.385 -0.7375  1.9622 -0.8331
   19SAPS  H19S 2474   5.553   2.415   4.438  1.0340  0.4630 -1.1885
   19SAPS  C220 2475   5.679   2.231   4.458  0.5587 -0.4722 -0.8915
   19SAPS  H20R 2476   5.640   2.211   4.560  1.2623 -1.2942 -0.7723
   19SAPS  H20S 2477   5.775   2.287   4.467  1.1562 -1.4963 -0.7383
   19SAPS  H20T 2478   5.691   2.137   4.400  0.1077  0.6769 -2.9466
   19SAPS   C33 2479   5.804   2.637   2.688  0.1003  0.0939 -0.1737
   19SAPS   H3X 2480   5.911   2.616   2.668 -0.2714 -3.5297  0.9195
   19SAPS   H3Y 2481   5.764   2.539   2.720 -0.9455  0.0236 -1.5951
   19SAPS   C34 2482   5.774   2.723   2.810  1.1403  0.1996  0.5702
   19SAPS   H4X 2483   5.666   2.714   2.832  1.2375 -1.7723  0.3709
   19SAPS   H4Y 2484   5.793   2.829   2.781 -1.0257  0.2589 -0.9348
   19SAPS   C35 2485   5.856   2.687   2.932  0.0131  0.3597  0.0658
   19SAPS   H5X 2486   5.961   2.719   2.917 -1.0133  3.0244 -2.5083
   19SAPS   H5Y 2487   5.866   2.577   2.947  0.3147  0.1718 -1.4275
   19SAPS   C36 2488   5.787   2.746   3.057  0.0880 -0.5087 -0.1704
   19SAPS   H6X 2489   5.682   2.710   3.050 -0.3565 -0.1315  2.8708
   19SAPS   H6Y 2490   5.778   2.857   3.057 -4.3737 -0.6996 -1.7655
   19SAPS   C37 2491   5.840   2.693   3.192 -0.1540  0.2030 -1.0679
   19SAPS   H7X 2492   5.950   2.706   3.197 -0.1950  0.1627  0.8375
   19SAPS   H7Y 2493   5.812   2.586   3.194 -0.3479  0.2130  2.3535
   19SAPS   C38 2494   5.768   2.757   3.311 -0.0223 -0.3883  0.4807
   19SAPS   H8X 2495   5.667   2.712   3.323 -0.1712  0.5349  3.6068
   19SAPS   H8Y 2496   5.755   2.866   3.294  0.7257 -0.2787  0.6070
   19SAPS   C39 2497   5.827   2.726   3.445 -0.1239  0.1792  0.3762
   19SAPS   H9X 2498   5.926   2.776   3.435  0.0389 -0.3834 -0.9275
   19SAPS   H9Y 2499   5.850   2.619   3.464  0.3421  0.6222  2.6085
   19SAPS  C310 2500   5.757   2.790   3.570  0.2575  0.8294 -0.5208
   19SAPS  H10X 2501   5.650   2.759   3.574  0.5250  0.0096  0.4479
   19SAPS  H10Y 2502   5.753   2.901   3.569  0.6970  0.8710 -2.4753
   19SAPS  C311 2503   5.815   2.733   3.702 -0.7801 -0.3674 -0.5250
   19SAPS  H11X 2504   5.916   2.779   3.709 -0.2610 -1.5441  0.1677
   19SAPS  H11Y 2505   5.818   2.622   3.688 -0.1101 -0.7112  1.8655
   19SAPS  C312 2506   5.737   2.760   3.829 -0.4518  0.1087  0.9979
   19SAPS  H12X 2507   5.640   2.711   3.808  0.1993  0.3711 -3.8215
   19SAPS  H12Y 2508   5.720   2.868   3.852 -2.6211 -0.1057  0.6257
   19SAPS  C313 2509   5.808   2.707   3.955  0.2409  0.1441 -0.3144
   19SAPS  H13X 2510   5.915   2.737   3.958  0.9270 -2.1126 -0.4704
   19SAPS  H13Y 2511   5.802   2.598   3.939 -1.0154  0.3873 -1.7772
   19SAPS  C314 2512   5.744   2.748   4.092  0.3874 -0.7083 -0.3741
   19SAPS  H14X 2513   5.636   2.721   4.094  0.7295 -2.1582  1.7818
   19SAPS  H14Y 2514   5.758   2.858   4.098  0.3875 -0.6400 -1.4036
   19SAPS  C315 2515   5.819   2.681   4.209 -1.2007 -0.1244 -0.1086
   19SAPS  H15X 2516   5.915   2.734   4.224 -0.2350 -1.2427 -1.9327
   19SAPS  H15Y 2517   5.854   2.577   4.189  3.2263  0.7626  1.8919
   19SAPS  C316 2518   5.742   2.679   4.346  0.8202  0.2380 -0.1728
   19SAPS  H16X 2519   5.647   2.627   4.321  0.2990  0.3190  1.5196
   19SAPS  H16Y 2520   5.720   2.781   4.383  0.6945 -0.2981  1.3070
   19SAPS  C317 2521   5.813   2.602   4.460 -0.0748 -0.6799 -0.4922
   19SAPS  H17X 2522   5.842   2.503   4.418 -1.7508 -1.3227 -0.1874
   19SAPS  H17Y 2523   5.745   2.592   4.546  2.8173 -1.0385  1.9126
   19SAPS  C318 2524   5.938   2.684   4.513 -0.5205 -0.6780 -0.2936
   19SAPS  H18X 2525   5.964   2.646   4.614 -0.8651  1.5914  0.7081
   19SAPS  H18Y 2526   5.914   2.792   4.527 -1.4760 -1.0683  1.3032
   19SAPS  H18Z 2527   6.017   2.675   4.436 -2.9232 -1.2277 -2.8669
   20SAPS     N 2528   0.276   2.905   2.181  0.9985 -0.1200  0.2032
   20SAPS   HN1 2529   0.271   2.825   2.114  2.5543 -1.6237  1.7843
   20SAPS   HN2 2530   0.369   2.950   2.168  0.6590  0.1914 -1.3421
   20SAPS   HN3 2531   0.268   2.855   2.272  1.0908  0.4485  0.5286
   20SAPS   C12 2532   0.161   2.984   2.154  0.1446 -0.3631  0.9522
   20SAPS  H12A 2533   0.144   3.037   2.247  2.2281  0.0535  1.1495
   20SAPS   C13 2534   0.181   3.090   2.041  0.2215 -0.2027 -0.0521
   20SAPS  O13A 2535   0.282   3.102   1.972 -0.3655  0.2625  0.4483
   20SAPS  O13B 2536   0.075   3.157   2.009  0.3799 -0.1376  0.1062
   20SAPS   C11 2537   0.052   2.882   2.116  0.2245 -0.5083 -0.0678
   20SAPS  H11A 2538  -0.053   2.918   2.116  0.3929  0.0299 -1.3687
   20SAPS  H11B 2539   0.055   2.807   2.198  2.3611 -0.6091 -0.1781
   20SAPS     P 2540  -0.022   2.745   1.907 -0.0391 -0.0464 -0.8256
   20SAPS   O13 2541  -0.134   2.835   1.875  0.5208  0.7107  0.0466
   20SAPS   O14 2542   0.049   2.685   1.790 -0.1002 -0.0754 -0.3009
   20SAPS   O12 2543   0.087   2.821   1.992 -0.2446 -0.4491  0.3044
   20SAPS   O11 2544  -0.069   2.637   2.005 -0.2262  0.6503 -0.6220
   20SAPS    C1 2545  -0.210   2.612   2.031  0.4887  0.3513 -0.3521
   20SAPS    HA 2546  -0.273   2.615   1.939 -2.0238  1.2126  1.2723
   20SAPS    HB 2547  -0.221   2.505   2.060  3.8927  0.0963  0.3480
   20SAPS    C2 2548  -0.272   2.696   2.150 -0.0836  0.1830  0.6141
   20SAPS    HS 2549  -0.246   2.801   2.127 -1.0292  0.6145  1.4345
   20SAPS   O21 2550  -0.214   2.643   2.269  0.7590 -0.3678 -0.7532
   20SAPS   C21 2551  -0.188   2.732   2.367 -0.2547 -0.2696 -0.2105
   20SAPS   O22 2552  -0.200   2.856   2.357  0.4740  0.6889  0.9142
   20SAPS   C22 2553  -0.140   2.656   2.488  0.0887 -0.0606  0.6872
   20SAPS   H2R 2554  -0.192   2.559   2.497  0.4120 -0.2470  0.5782
   20SAPS   H2S 2555  -0.032   2.633   2.472  0.4385  0.2051  2.5249
   20SAPS    C3 2556  -0.431   2.680   2.150 -0.0425 -0.4896  0.8442
   20SAPS    HX 2557  -0.453   2.572   2.136  2.7577 -0.9045 -1.3048
   20SAPS    HY 2558  -0.463   2.723   2.053 -0.3663 -2.7415 -0.1010
   20SAPS   O31 2559  -0.505   2.745   2.258  0.7235  0.4897 -0.4307
   20SAPS   C31 2560  -0.525   2.666   2.368 -0.0782 -0.0648 -0.2645
   20SAPS   O32 2561  -0.487   2.550   2.371  0.1827 -0.6346 -0.6854
   20SAPS   C32 2562  -0.615   2.737   2.466  0.7260 -0.3605 -0.0596
   20SAPS   H2X 2563  -0.709   2.765   2.414  1.0242  2.4036  0.7177
   20SAPS   H2Y 2564  -0.572   2.832   2.504  1.6525 -0.3397 -1.1233
   20SAPS   C23 2565  -0.164   2.730   2.624  0.6493 -0.2560  0.1772
   20SAPS   H3R 2566  -0.267   2.770   2.617  1.3108  1.1969 -1.8318
   20SAPS   H3S 2567  -0.098   2.819   2.629 -3.6220  3.3950 -1.4443
   20SAPS   C24 2568  -0.134   2.653   2.751 -0.4206  0.6803  0.4704
   20SAPS   H4R 2569  -0.195   2.560   2.745  0.0596  0.2654  1.7002
   20SAPS   H4S 2570  -0.180   2.691   2.844 -1.4282 -0.7833  0.6028
   20SAPS   C25 2571   0.013   2.612   2.763 -0.1337 -0.1400 -0.3420
   20SAPS   H5R 2572   0.049   2.535   2.694 -0.3547  1.2452 -2.0831
   20SAPS   C26 2573   0.106   2.682   2.828 -0.7505  0.2687  0.0043
   20SAPS   H6R 2574   0.206   2.636   2.831  0.5224  2.8335  3.4498
   20SAPS   C27 2575   0.081   2.802   2.914 -0.0187  0.0256 -0.0372
   20SAPS   H7R 2576   0.026   2.879   2.857 -0.2003 -0.1899 -0.1544
   20SAPS   H7S 2577   0.179   2.848   2.939 -0.5265  1.5365 -0.7193
   20SAPS   C28 2578  -0.002   2.786   3.038  0.2969  0.1362  0.4925
   20SAPS   H8R 2579  -0.110   2.803   3.027  0.1211 -1.9027 -2.0534
   20SAPS   C29 2580   0.044   2.754   3.159 -0.4742  0.8468 -0.1390
   20SAPS   H9R 2581  -0.023   2.739   3.244 -0.1666 -0.2004 -0.0622
   20SAPS  C210 2582   0.190   2.737   3.194 -0.5075 -0.0986 -0.1688
   20SAPS  H10R 2583   0.209   2.792   3.289 -0.9557  1.8320 -1.1329
   20SAPS  H10S 2584   0.259   2.788   3.124  0.1097  0.4018  0.7780
   20SAPS  C211 2585   0.219   2.588   3.207 -0.1927  0.4504 -0.7715
   20SAPS  H11R 2586   0.233   2.528   3.116  0.9752 -0.1503 -0.2140
   20SAPS  C212 2587   0.213   2.520   3.327  0.4643  0.5487  0.1829
   20SAPS  H12R 2588   0.241   2.414   3.338 -0.7826  0.2231  0.3722
   20SAPS  C213 2589   0.168   2.586   3.461  0.1428 -0.0379  0.0721
   20SAPS  H13R 2590   0.111   2.504   3.510 -1.2049  0.6818 -0.2293
   20SAPS  H13S 2591   0.078   2.647   3.436  0.6528  0.4964 -0.4793
   20SAPS  C214 2592   0.276   2.655   3.543 -0.2343 -0.3340 -0.0586
   20SAPS  H14R 2593   0.278   2.765   3.535  0.4826 -0.4956 -2.9092
   20SAPS  C215 2594   0.362   2.596   3.628  0.4585  0.1016 -0.0727
   20SAPS  H15R 2595   0.447   2.639   3.682  0.1273 -1.2979  1.6439
   20SAPS  C216 2596   0.367   2.447   3.639  0.1186  0.3958 -0.0751
   20SAPS  H16R 2597   0.440   2.418   3.560 -0.5430 -1.4463 -0.0684
   20SAPS  H16S 2598   0.268   2.403   3.612 -0.4639  0.1439  2.2090
   20SAPS  C217 2599   0.403   2.394   3.775  0.1109  0.6151 -0.1905
   20SAPS  H17R 2600   0.402   2.283   3.779 -1.3926  0.5875 -0.7614
   20SAPS  H17S 2601   0.325   2.420   3.849 -0.3648 -2.0909  0.3485
   20SAPS  C218 2602   0.545   2.423   3.822 -0.1555  0.6210  0.1636
   20SAPS  H18R 2603   0.584   2.525   3.799  1.4984  0.1709  0.8397
   20SAPS  H18S 2604   0.605   2.358   3.754 -2.7239 -1.1045 -0.5779
   20SAPS  C219 2605   0.584   2.408   3.972  0.2568  0.3816  0.1750
   20SAPS  H19R 2606   0.694   2.397   3.979  0.4802  1.7277 -0.8723
   20SAPS  H19S 2607   0.547   2.312   4.015  3.1287 -0.6581  0.5736
   20SAPS  C220 2608   0.538   2.524   4.059 -0.0230 -0.2550 -0.3181
   20SAPS  H20R 2609   0.430   2.508   4.081  0.4708 -4.0826  0.0619
   20SAPS  H20S 2610   0.542   2.616   3.997  1.1487 -0.4035 -0.4828
   20SAPS  H20T 2611   0.588   2.527   4.158 -2.3858  1.7589  0.9330
   20SAPS   C33 2612  -0.652   2.651   2.591 -0.2062 -0.3241 -0.2668
   20SAPS   H3X 2613  -0.664   2.545   2.560  0.8080 -0.4848 -0.1347
   20SAPS   H3Y 2614  -0.744   2.700   2.631  1.0832  1.6852  0.3756
   20SAPS   C34 2615  -0.532   2.662   2.699 -0.0416  0.6122 -0.0745
   20SAPS   H4X 2616  -0.501   2.769   2.712  1.1353  0.2136  0.6418
   20SAPS   H4Y 2617  -0.442   2.616   2.653  0.2692  0.8976  0.2356
   20SAPS   C35 2618  -0.569   2.623   2.838 -0.5136 -0.0198 -0.2734
   20SAPS   H5X 2619  -0.582   2.513   2.828  0.9794 -0.6396  3.2028
   20SAPS   H5Y 2620  -0.666   2.666   2.872 -0.2724 -2.7939  5.0591
   20SAPS   C36 2621  -0.461   2.667   2.945 -0.3317  0.3263  0.5533
   20SAPS   H6X 2622  -0.467   2.777   2.958  1.3360  0.1959  3.0320
   20SAPS   H6Y 2623  -0.355   2.648   2.917 -0.3967 -0.7683  1.0084
   20SAPS   C37 2624  -0.485   2.618   3.081  0.0433  0.4420 -0.6660
   20SAPS   H7X 2625  -0.479   2.508   3.092  0.2827  0.3683 -1.5132
   20SAPS   H7Y 2626  -0.583   2.649   3.123 -0.1604 -1.6013  0.4988
   20SAPS   C38 2627  -0.376   2.664   3.178 -0.0296 -0.3701 -0.5865
   20SAPS   H8X 2628  -0.353   2.773   3.177  2.2526 -0.6184  3.3263
   20SAPS   H8Y 2629  -0.278   2.619   3.154  0.4190 -0.1158  0.6905
   20SAPS   C39 2630  -0.407   2.617   3.323 -0.3262 -0.0246 -0.0909
   20SAPS   H9X 2631  -0.415   2.507   3.326  0.4257 -0.0761  0.2368
   20SAPS   H9Y 2632  -0.505   2.657   3.358 -0.5089 -1.0126  0.5741
   20SAPS  C310 2633  -0.290   2.633   3.417 -0.4584 -0.2023  1.0543
   20SAPS  H10X 2634  -0.294   2.739   3.451  0.8621  0.0278  0.5841
   20SAPS  H10Y 2635  -0.198   2.609   3.360  0.3119 -0.7652  2.4826
   20SAPS  C311 2636  -0.296   2.558   3.547 -0.6734 -0.4078  0.3808
   20SAPS  H11X 2637  -0.309   2.449   3.533 -0.0893 -0.6575  1.6361
   20SAPS  H11Y 2638  -0.383   2.596   3.605 -0.4705 -0.1795  0.5393
   20SAPS  C312 2639  -0.177   2.590   3.629  0.1225 -0.2589 -1.0305
   20SAPS  H12X 2640  -0.164   2.699   3.649 -0.1078 -0.4904  0.4899
   20SAPS  H12Y 2641  -0.079   2.555   3.592  0.5727  0.1050 -0.2163
   20SAPS  C313 2642  -0.178   2.537   3.775 -0.1100 -0.2673 -0.1205
   20SAPS  H13X 2643  -0.168   2.427   3.764  1.1098  0.0112 -2.3551
   20SAPS  H13Y 2644  -0.273   2.560   3.829  0.3628 -0.4716  0.8250
   20SAPS  C314 2645  -0.063   2.594   3.858  0.2928  0.1935 -0.3291
   20SAPS  H14X 2646  -0.069   2.705   3.866 -1.9759 -0.0011  1.7791
   20SAPS  H14Y 2647   0.034   2.574   3.807 -0.1347 -0.1999 -0.9934
   20SAPS  C315 2648  -0.059   2.544   4.007 -0.0071 -0.1992 -0.0673
   20SAPS  H15X 2649  -0.020   2.441   3.998  2.0442  0.3562  1.7300
   20SAPS  H15Y 2650  -0.162   2.545   4.050 -0.7236  1.2369 -1.6609
   20SAPS  C316 2651   0.030   2.627   4.093  0.4961 -0.0674 -0.2870
   20SAPS  H16X 2652   0.033   2.732   4.058 -0.9870  0.3677  0.8146
   20SAPS  H16Y 2653   0.134   2.591   4.077  0.6818 -0.1414  1.0078
   20SAPS  C317 2654  -0.020   2.612   4.240 -0.0926 -0.0477  0.4478
   20SAPS  H17X 2655  -0.058   2.509   4.256  0.9896 -0.6714 -0.7940
   20SAPS  H17Y 2656  -0.097   2.691   4.255  0.5363  0.7601 -0.4528
   20SAPS  C318 2657   0.091   2.626   4.350  0.6257 -0.4547 -0.4167
   20SAPS  H18X 2658   0.046   2.606   4.450 -0.6361 -0.3489 -0.9473
   20SAPS  H18Y 2659   0.122   2.733   4.350  0.1255 -0.2796  1.2687
   20SAPS  H18Z 2660   0.173   2.555   4.329  1.2867  0.1702 -0.0182
   21CHL1    C3 2661   3.515   4.935   6.127  0.4999  0.4748  0.4512
   21CHL1    H3 2662   3.569   5.004   6.058  0.3025  0.0020 -0.1930
   21CHL1    O3 2663   3.538   4.979   6.264 -0.2867 -0.3315  0.2628
   21CHL1   H3' 2664   3.515   4.904   6.320 -1.8580 -0.6057 -0.6843
   21CHL1    C4 2665   3.363   4.948   6.114  0.6707 -0.2237  0.6476
   21CHL1   H4A 2666   3.319   4.888   6.196  0.2786  1.2513  1.5640
   21CHL1   H4B 2667   3.340   5.057   6.118  2.4294  0.1584  1.3955
   21CHL1    C5 2668   3.312   4.884   5.983  0.0859 -0.1391  1.0712
   21CHL1    C6 2669   3.232   4.952   5.898 -0.4493  0.6341  0.4268
   21CHL1    H6 2670   3.200   5.053   5.925  1.5178  0.8868  2.0405
   21CHL1    C7 2671   3.173   4.907   5.766 -0.2836  0.2094 -0.1317
   21CHL1   H7A 2672   3.066   4.935   5.762 -1.2202 -1.9217  4.1459
   21CHL1   H7B 2673   3.228   4.952   5.680  1.1600 -1.3830 -0.1035
   21CHL1    C8 2674   3.182   4.752   5.754 -0.0553 -0.2055  0.3240
   21CHL1    H8 2675   3.111   4.708   5.828 -3.5790  0.6837 -2.2224
   21CHL1   C14 2676   3.144   4.711   5.610  0.0051  0.1928  0.2236
   21CHL1   H14 2677   3.230   4.759   5.561  1.2031 -0.6108  1.4556
   21CHL1   C15 2678   3.013   4.768   5.556  0.3543 -0.4006  0.1396
   21CHL1  H15A 2679   2.923   4.748   5.617  0.7057 -0.6602  0.5768
   21CHL1  H15B 2680   3.011   4.878   5.536  0.5385 -0.6272 -1.2301
   21CHL1   C16 2681   3.007   4.695   5.425  0.1145 -0.2055 -0.3441
   21CHL1  H16A 2682   2.910   4.641   5.417 -0.0429 -0.0280  0.2699
   21CHL1  H16B 2683   3.020   4.757   5.334 -1.2783 -0.1870 -0.5623
   21CHL1   C17 2684   3.118   4.581   5.424 -0.4724 -0.4960  0.0772
   21CHL1   H17 2685   3.205   4.621   5.369 -1.8517  2.8919  0.1215
   21CHL1   C13 2686   3.159   4.571   5.573 -0.4072 -0.4028  0.2518
   21CHL1   C18 2687   3.065   4.488   5.666  0.3732  0.8854 -0.4335
   21CHL1  H18A 2688   2.959   4.515   5.647  0.2267 -0.4618 -1.8156
   21CHL1  H18B 2689   3.071   4.381   5.636  0.5701  0.4455  1.0970
   21CHL1  H18C 2690   3.086   4.493   5.774  0.7160 -1.1998 -0.3448
   21CHL1   C12 2691   3.308   4.535   5.603  0.9808 -0.0412 -0.9954
   21CHL1  H12A 2692   3.342   4.438   5.562  3.5981 -0.2779  1.4161
   21CHL1  H12B 2693   3.369   4.605   5.542 -2.2499  4.6993  0.6267
   21CHL1   C11 2694   3.355   4.564   5.746  0.1154 -0.5626 -0.5764
   21CHL1  H11A 2695   3.293   4.499   5.811 -1.7576  2.2102  0.5762
   21CHL1  H11B 2696   3.465   4.545   5.752 -0.0812 -1.7543 -0.4409
   21CHL1    C9 2697   3.329   4.715   5.785  0.4140  0.0047 -0.4606
   21CHL1    H9 2698   3.395   4.775   5.719  2.4411 -1.2694  0.2815
   21CHL1   C10 2699   3.365   4.744   5.941  0.4083 -1.1668 -0.5267
   21CHL1   C19 2700   3.303   4.641   6.032 -0.5429  0.6246 -0.1704
   21CHL1  H19A 2701   3.192   4.655   6.027 -0.2477  3.4785 -0.5639
   21CHL1  H19B 2702   3.322   4.536   6.003 -1.3879  0.6885 -1.0123
   21CHL1  H19C 2703   3.331   4.654   6.139 -1.5963 -1.6382  0.4294
   21CHL1    C1 2704   3.518   4.749   5.965  0.1262  0.6951  0.6438
   21CHL1   H1A 2705   3.554   4.645   5.959  2.1346  1.2843  1.6423
   21CHL1   H1B 2706   3.569   4.799   5.880  0.2618  0.6937  0.7245
   21CHL1    C2 2707   3.571   4.802   6.105  0.2512  0.3999  0.5197
   21CHL1   H2A 2708   3.680   4.809   6.086  0.1625  2.4665  0.5741
   21CHL1   H2B 2709   3.555   4.720   6.179 -0.2293 -1.7982 -1.8421
   21CHL1   C20 2710   3.078   4.455   5.342 -0.2889  0.0502  0.7815
   21CHL1   H20 2711   2.981   4.421   5.385 -1.5157  1.1729 -0.9784
   21CHL1   C21 2712   3.183   4.338   5.344  0.2876 -0.0337 -0.3457
   21CHL1  H21A 2713   3.285   4.382   5.336  0.4524 -0.1038  1.0764
   21CHL1  H21B 2714   3.167   4.268   5.259 -0.3413 -0.9396  0.5007
   21CHL1  H21C 2715   3.176   4.283   5.440  1.7558  1.0559  0.4342
   21CHL1   C22 2716   3.039   4.488   5.194  0.4452  0.4113 -0.0733
   21CHL1  H22A 2717   2.993   4.401   5.142  0.5885  0.2826  0.0128
   21CHL1  H22B 2718   2.956   4.560   5.204  0.2662 -0.1056  2.8375
   21CHL1   C23 2719   3.153   4.558   5.112  0.8196  0.0226  0.0537
   21CHL1  H23A 2720   3.197   4.643   5.169  1.4758 -0.7246  0.6806
   21CHL1  H23B 2721   3.225   4.474   5.101 -1.1917 -1.7088 -0.4320
   21CHL1   C24 2722   3.113   4.604   4.973 -0.3115 -0.1566  0.7195
   21CHL1  H24A 2723   3.039   4.685   4.987  0.2727  0.5394 -0.1305
   21CHL1  H24B 2724   3.202   4.637   4.915  0.0884 -2.5896 -0.1716
   21CHL1   C25 2725   3.031   4.507   4.876  0.7767 -1.4259 -0.6146
   21CHL1   H25 2726   2.934   4.475   4.918  1.2230  0.0361  1.6683
   21CHL1   C26 2727   3.003   4.586   4.746  0.4306 -0.0017 -0.4753
   21CHL1  H26A 2728   2.946   4.524   4.674  0.3562 -0.4664 -0.0243
   21CHL1  H26B 2729   2.945   4.678   4.770  0.0269  0.3124 -2.4459
   21CHL1  H26C 2730   3.095   4.626   4.698 -0.5753  0.2605 -2.2538
   21CHL1   C27 2731   3.116   4.386   4.845 -0.4347 -0.0357  0.2969
   21CHL1  H27A 2732   3.212   4.414   4.797 -0.2104  2.3846  2.0102
   21CHL1  H27B 2733   3.152   4.347   4.942 -0.2964 -0.2973  0.1410
   21CHL1  H27C 2734   3.060   4.308   4.788 -0.9528 -0.1851  1.0019
   22CHL1    C3 2735   3.397   3.838   6.148 -0.2800  1.1429  0.4194
   22CHL1    H3 2736   3.401   3.936   6.097 -2.3802  0.1615 -1.8915
   22CHL1    O3 2737   3.350   3.837   6.280 -0.2231 -0.1463 -0.8129
   22CHL1   H3' 2738   3.363   3.749   6.316 -0.6450  0.6719  1.5335
   22CHL1    C4 2739   3.314   3.737   6.069  0.1437  0.0203  0.0824
   22CHL1   H4A 2740   3.316   3.638   6.119  0.2271  0.6095  1.2707
   22CHL1   H4B 2741   3.207   3.767   6.068  0.4171  1.0445 -0.3570
   22CHL1    C5 2742   3.360   3.719   5.926  0.9353 -0.6863 -0.0272
   22CHL1    C6 2743   3.285   3.742   5.818 -0.7089 -0.8674  0.4358
   22CHL1    H6 2744   3.177   3.762   5.827 -0.6405  0.4292 -1.2063
   22CHL1    C7 2745   3.328   3.730   5.672  0.5234 -0.0520  0.9327
   22CHL1   H7A 2746   3.259   3.661   5.619  0.2802 -0.7748  2.1635
   22CHL1   H7B 2747   3.331   3.827   5.619 -0.7328 -0.0025  0.9251
   22CHL1    C8 2748   3.467   3.656   5.665  0.3658 -0.1932  0.1211
   22CHL1    H8 2749   3.439   3.550   5.686 -0.3570  0.3996  2.4741
   22CHL1   C14 2750   3.522   3.686   5.523 -0.3981 -0.1005 -0.1117
   22CHL1   H14 2751   3.542   3.795   5.520  0.1318 -0.2168 -2.6321
   22CHL1   C15 2752   3.433   3.657   5.399  0.4931  0.1301 -0.0890
   22CHL1  H15A 2753   3.385   3.557   5.407  0.1384  0.2583 -0.5494
   22CHL1  H15B 2754   3.355   3.735   5.384  0.0458 -0.0998  0.9416
   22CHL1   C16 2755   3.531   3.658   5.283  0.4890  0.6880 -0.8137
   22CHL1  H16A 2756   3.507   3.573   5.214  2.6608  0.3279 -1.1894
   22CHL1  H16B 2757   3.523   3.749   5.220 -0.5628  0.4541 -1.0445
   22CHL1   C17 2758   3.676   3.652   5.343 -0.1343 -0.2218  0.3737
   22CHL1   H17 2759   3.722   3.753   5.338 -0.2867 -0.2016 -1.4078
   22CHL1   C13 2760   3.653   3.619   5.489 -0.2502  0.5787 -0.3595
   22CHL1   C18 2761   3.636   3.466   5.499 -0.1485  0.5085  0.2635
   22CHL1  H18A 2762   3.569   3.437   5.583 -0.1282 -2.4740 -0.6119
   22CHL1  H18B 2763   3.594   3.426   5.404  2.1924  2.7005 -1.8314
   22CHL1  H18C 2764   3.727   3.410   5.530 -1.0889 -0.6276  1.1126
   22CHL1   C12 2765   3.756   3.672   5.592  0.6095 -0.4604  0.4609
   22CHL1  H12A 2766   3.852   3.621   5.573  0.8828  0.6961 -1.5658
   22CHL1  H12B 2767   3.764   3.783   5.594  1.8025 -0.5415  1.7981
   22CHL1   C11 2768   3.711   3.631   5.736 -0.0530 -0.5365  0.1416
   22CHL1  H11A 2769   3.705   3.520   5.744  0.0188 -0.5691 -0.2416
   22CHL1  H11B 2770   3.777   3.671   5.816  0.3894  2.3533 -1.5247
   22CHL1    C9 2771   3.565   3.698   5.769 -0.4117  0.5008 -0.2029
   22CHL1    H9 2772   3.574   3.807   5.746  1.5004  0.1522 -1.2415
   22CHL1   C10 2773   3.505   3.679   5.916 -0.2815 -0.5335 -0.4798
   22CHL1   C19 2774   3.520   3.532   5.955  0.0270 -0.7003  0.5686
   22CHL1  H19A 2775   3.488   3.516   6.060  1.8176  1.4057  1.4972
   22CHL1  H19B 2776   3.479   3.456   5.885  0.6466 -0.2479 -0.3052
   22CHL1  H19C 2777   3.630   3.515   5.960  0.8227  3.6867  1.4192
   22CHL1    C1 2778   3.597   3.764   6.009 -0.1871 -0.0242 -0.4432
   22CHL1   H1A 2779   3.697   3.719   6.020  0.4629  1.6329  1.1305
   22CHL1   H1B 2780   3.605   3.867   5.967 -2.3162  0.7208  0.8155
   22CHL1    C2 2781   3.537   3.782   6.152 -0.5739  0.6380 -0.5957
   22CHL1   H2A 2782   3.593   3.857   6.212 -0.6609 -0.6162  1.1423
   22CHL1   H2B 2783   3.544   3.683   6.202 -2.2681  0.8065  0.0446
   22CHL1   C20 2784   3.776   3.578   5.240 -0.2284  0.1735  0.0154
   22CHL1   H20 2785   3.740   3.474   5.225 -2.4633  1.0918 -1.4154
   22CHL1   C21 2786   3.921   3.570   5.304  0.5615  0.2563  0.0131
   22CHL1  H21A 2787   3.926   3.496   5.386  0.8123 -0.0862 -0.3078
   22CHL1  H21B 2788   3.949   3.672   5.338  1.2436 -0.1033  0.5454
   22CHL1  H21C 2789   3.987   3.534   5.223  0.1187  2.6215 -1.5213
   22CHL1   C22 2790   3.783   3.631   5.094 -0.1836 -0.2399 -0.2480
   22CHL1  H22A 2791   3.677   3.645   5.062 -0.3139 -0.9691 -0.1458
   22CHL1  H22B 2792   3.828   3.733   5.098 -0.4730 -0.1247  0.0912
   22CHL1   C23 2793   3.852   3.529   4.993 -0.4113  0.1923 -0.7529
   22CHL1  H23A 2794   3.958   3.519   5.022 -0.6881 -2.0924 -0.3405
   22CHL1  H23B 2795   3.796   3.433   4.998 -0.4536  0.2519  3.2138
   22CHL1   C24 2796   3.861   3.592   4.848  0.3558  0.0644  0.0301
   22CHL1  H24A 2797   3.916   3.689   4.847 -0.6708  0.6960  1.3370
   22CHL1  H24B 2798   3.908   3.525   4.773  1.9770  0.3952  0.7170
   22CHL1   C25 2799   3.726   3.618   4.782  0.2812 -0.8964 -0.5367
   22CHL1   H25 2800   3.656   3.653   4.860  0.6773  0.0839 -0.6025
   22CHL1   C26 2801   3.738   3.719   4.667 -1.1170  0.5495  0.1194
   22CHL1  H26A 2802   3.642   3.750   4.621 -1.5714  0.0609  0.7256
   22CHL1  H26B 2803   3.789   3.808   4.710  3.0040 -2.1968  1.5999
   22CHL1  H26C 2804   3.805   3.674   4.590 -1.0878 -1.7716  1.4127
   22CHL1   C27 2805   3.668   3.480   4.732  0.7527 -0.8233 -0.6780
   22CHL1  H27A 2806   3.723   3.448   4.641 -0.4402  0.7205 -2.0000
   22CHL1  H27B 2807   3.680   3.401   4.809  0.6458  0.2083  0.4305
   22CHL1  H27C 2808   3.563   3.504   4.704  0.7628 -0.6175 -0.5457
   23CHL1    C3 2809   2.541   3.029   5.950  0.5118 -0.0132 -0.1349
   23CHL1    H3 2810   2.629   3.097   5.954  1.7640 -1.6245  1.5252
   23CHL1    O3 2811   2.486   3.015   6.080 -1.2183 -0.4827 -0.2486
   23CHL1   H3' 2812   2.557   2.978   6.133 -0.8100 -0.0551 -0.4911
   23CHL1    C4 2813   2.436   3.087   5.856  0.1563  0.5032 -0.4414
   23CHL1   H4A 2814   2.348   3.020   5.868 -0.8650  1.3729 -2.5166
   23CHL1   H4B 2815   2.394   3.188   5.875 -1.7620 -0.3098 -0.0575
   23CHL1    C5 2816   2.501   3.076   5.717  0.3868 -0.4410 -0.2388
   23CHL1    C6 2817   2.511   3.188   5.640 -0.5370 -0.2724 -0.1213
   23CHL1    H6 2818   2.486   3.281   5.693  4.0158  0.8477  0.4216
   23CHL1    C7 2819   2.565   3.198   5.503  0.0649 -0.4249 -0.0572
   23CHL1   H7A 2820   2.497   3.266   5.447  1.0649 -1.0300 -2.1150
   23CHL1   H7B 2821   2.668   3.240   5.497 -0.8073  2.1130  1.3013
   23CHL1    C8 2822   2.563   3.065   5.425 -0.3907  0.1831 -0.5881
   23CHL1    H8 2823   2.460   3.036   5.397 -0.5093 -0.4986  0.4776
   23CHL1   C14 2824   2.647   3.060   5.297 -0.7871 -0.2911 -0.1683
   23CHL1   H14 2825   2.751   3.086   5.326 -0.1235 -1.3304 -1.5061
   23CHL1   C15 2826   2.610   3.169   5.192  0.1868 -0.0634 -0.1256
   23CHL1  H15A 2827   2.501   3.187   5.179  0.5741  1.2542 -1.9250
   23CHL1  H15B 2828   2.652   3.265   5.228  0.7351 -0.2254 -0.3271
   23CHL1   C16 2829   2.668   3.118   5.060 -0.4211  0.3236  0.4500
   23CHL1  H16A 2830   2.584   3.107   4.988 -1.2021 -0.6669  1.4633
   23CHL1  H16B 2831   2.740   3.193   5.022 -0.0500 -1.3831 -2.5297
   23CHL1   C17 2832   2.741   2.982   5.098 -0.2250 -0.4346  0.0399
   23CHL1   H17 2833   2.842   3.000   5.141 -0.0405 -1.1156 -0.0950
   23CHL1   C13 2834   2.653   2.933   5.219 -0.0151 -0.5559 -0.0759
   23CHL1   C18 2835   2.525   2.889   5.164  0.7228 -0.5311 -0.0907
   23CHL1  H18A 2836   2.477   2.967   5.101 -0.1288 -0.8938  0.0949
   23CHL1  H18B 2837   2.525   2.790   5.114  1.6966 -0.5790 -0.0221
   23CHL1  H18C 2838   2.448   2.897   5.244 -1.0310  1.8304 -1.8678
   23CHL1   C12 2839   2.715   2.830   5.313 -0.4900  0.3165  0.0772
   23CHL1  H12A 2840   2.707   2.731   5.262 -2.3591  0.7141 -0.4699
   23CHL1  H12B 2841   2.821   2.844   5.342 -0.1822 -1.0247 -0.3301
   23CHL1   C11 2842   2.634   2.820   5.440  0.5563 -0.3374  0.2775
   23CHL1  H11A 2843   2.528   2.793   5.418  1.1227 -2.1631 -0.3173
   23CHL1  H11B 2844   2.682   2.738   5.496 -0.0787  0.6485  2.3658
   23CHL1    C9 2845   2.622   2.953   5.517 -0.5868  0.0181 -0.7033
   23CHL1    H9 2846   2.723   2.985   5.550 -0.5791 -0.9354  0.2525
   23CHL1   C10 2847   2.545   2.938   5.664 -0.3152 -0.3018 -0.0448
   23CHL1   C19 2848   2.418   2.848   5.647  0.1052  0.6207 -0.4688
   23CHL1  H19A 2849   2.348   2.853   5.733  1.3006 -2.4040  0.7957
   23CHL1  H19B 2850   2.374   2.878   5.550 -1.3042 -0.0471 -0.0527
   23CHL1  H19C 2851   2.445   2.742   5.631  1.2277  0.8059  0.0939
   23CHL1    C1 2852   2.640   2.875   5.768  0.1109 -0.1676  0.7620
   23CHL1   H1A 2853   2.672   2.773   5.738 -0.4063  0.3478 -1.7438
   23CHL1   H1B 2854   2.729   2.941   5.757  0.5779 -1.2418 -3.4096
   23CHL1    C2 2855   2.579   2.883   5.907 -0.1559 -0.5958  0.0222
   23CHL1   H2A 2856   2.654   2.840   5.976  0.9216  0.0918 -0.6700
   23CHL1   H2B 2857   2.492   2.816   5.919 -0.1273 -0.6444 -0.0419
   23CHL1   C20 2858   2.780   2.883   4.978 -0.0429 -0.5625  0.3949
   23CHL1   H20 2859   2.698   2.810   4.960 -0.1392 -0.3643  0.0216
   23CHL1   C21 2860   2.906   2.806   5.029  0.5907 -0.4005  0.1750
   23CHL1  H21A 2861   2.930   2.723   4.960 -1.8090 -2.3058  1.4500
   23CHL1  H21B 2862   2.891   2.768   5.132  2.1452  2.6046  1.6285
   23CHL1  H21C 2863   2.989   2.879   5.030  0.4526 -0.2287 -0.4730
   23CHL1   C22 2864   2.804   2.960   4.848 -0.7452  0.6997 -0.1184
   23CHL1  H22A 2865   2.721   3.033   4.840 -1.0257  0.5166  0.9512
   23CHL1  H22B 2866   2.904   3.009   4.849  0.6942 -1.8757  2.8350
   23CHL1   C23 2867   2.792   2.861   4.734 -0.0276  0.7444  0.3843
   23CHL1  H23A 2868   2.872   2.784   4.736 -0.9752 -0.3588 -1.6781
   23CHL1  H23B 2869   2.698   2.804   4.751  2.0509 -2.9316  0.6712
   23CHL1   C24 2870   2.793   2.925   4.597  0.2444  0.4978 -0.2668
   23CHL1  H24A 2871   2.711   2.999   4.586 -1.5055 -1.2728  0.2187
   23CHL1  H24B 2872   2.892   2.974   4.584  0.2868  0.2041 -1.1375
   23CHL1   C25 2873   2.790   2.828   4.480 -0.3933 -0.3374  0.4915
   23CHL1   H25 2874   2.884   2.767   4.477 -0.2554 -0.2357 -3.9191
   23CHL1   C26 2875   2.666   2.732   4.473 -0.8137  1.3670  0.0133
   23CHL1  H26A 2876   2.568   2.782   4.468 -1.1720  0.8696  1.5413
   23CHL1  H26B 2877   2.677   2.668   4.382 -0.0399  2.0620 -0.3930
   23CHL1  H26C 2878   2.672   2.668   4.564  0.0763  0.3936 -0.7073
   23CHL1   C27 2879   2.783   2.907   4.350  0.5184  0.5513 -0.5417
   23CHL1  H27A 2880   2.685   2.959   4.344 -0.3430 -1.0502 -0.7874
   23CHL1  H27B 2881   2.861   2.985   4.340 -1.3626  2.3878 -1.7831
   23CHL1  H27C 2882   2.797   2.845   4.259  1.2632  0.3392 -0.2885
   24CHL1    C3 2883   3.236   0.933   5.823  0.0661 -0.1412  0.1034
   24CHL1    H3 2884   3.277   0.830   5.829  1.8958  0.6069  1.3245
   24CHL1    O3 2885   3.210   0.976   5.953 -0.6279 -0.0880  0.7912
   24CHL1   H3' 2886   3.206   1.072   5.956  1.6308  0.0937 -0.1534
   24CHL1    C4 2887   3.350   1.022   5.759  0.3448  1.0653 -0.8274
   24CHL1   H4A 2888   3.330   1.130   5.779 -0.6590  0.5504  1.3629
   24CHL1   H4B 2889   3.446   1.004   5.811 -0.3137 -2.4448 -0.5689
   24CHL1    C5 2890   3.365   0.996   5.609 -0.2392  0.2664  0.5836
   24CHL1    C6 2891   3.486   0.966   5.555  0.5780 -0.0251  0.0089
   24CHL1    H6 2892   3.571   0.953   5.624 -0.7803 -2.1239  1.3743
   24CHL1    C7 2893   3.509   0.949   5.409  0.3320 -0.1973  0.5865
   24CHL1   H7A 2894   3.593   1.018   5.388 -1.1616  1.7347  0.6432
   24CHL1   H7B 2895   3.531   0.845   5.377 -0.2899 -1.3667  3.6714
   24CHL1    C8 2896   3.387   1.003   5.320 -0.0750 -1.0842  0.3982
   24CHL1    H8 2897   3.384   1.114   5.325 -1.3561 -1.1366  1.4043
   24CHL1   C14 2898   3.405   0.955   5.169 -0.2065  0.1512 -0.1017
   24CHL1   H14 2899   3.391   0.845   5.173 -2.6444  0.3706 -0.7925
   24CHL1   C15 2900   3.535   0.989   5.101  0.2909 -0.3726 -0.3003
   24CHL1  H15A 2901   3.556   1.097   5.121  2.3851 -0.7873 -0.1088
   24CHL1  H15B 2902   3.619   0.932   5.145  1.0542  0.0437 -1.1895
   24CHL1   C16 2903   3.501   0.956   4.955  0.4692 -0.0312 -0.5733
   24CHL1  H16A 2904   3.533   1.036   4.885 -0.1375  1.2899  0.6064
   24CHL1  H16B 2905   3.553   0.865   4.919 -0.5578 -1.7814  2.0053
   24CHL1   C17 2906   3.347   0.936   4.945 -0.0556  0.2120  0.6530
   24CHL1   H17 2907   3.328   0.828   4.960  1.2950 -0.0622  0.5335
   24CHL1   C13 2908   3.285   0.996   5.074  0.5809 -0.3890  0.3445
   24CHL1   C18 2909   3.278   1.153   5.051 -0.5379 -0.9952  0.4122
   24CHL1  H18A 2910   3.375   1.191   5.014 -1.0254 -1.3629 -1.3368
   24CHL1  H18B 2911   3.199   1.188   4.981  0.2281 -0.5619 -0.2415
   24CHL1  H18C 2912   3.255   1.214   5.141  1.2063 -2.1316  1.6963
   24CHL1   C12 2913   3.159   0.937   5.140  0.5019  0.7545 -0.8708
   24CHL1  H12A 2914   3.068   0.945   5.077 -0.8008 -0.5303  0.7854
   24CHL1  H12B 2915   3.174   0.827   5.140  0.6178  0.7206  1.4357
   24CHL1   C11 2916   3.126   0.977   5.287  0.1521 -0.4027  0.4447
   24CHL1  H11A 2917   3.101   1.084   5.273  0.6836 -0.3051  0.2265
   24CHL1  H11B 2918   3.033   0.921   5.309 -2.3692  2.4929 -1.9284
   24CHL1    C9 2919   3.252   0.965   5.377 -0.2632  0.6398 -0.0815
   24CHL1    H9 2920   3.259   0.854   5.383 -0.6295  0.6545  0.7138
   24CHL1   C10 2921   3.234   1.007   5.526 -0.3171 -0.5304  0.5020
   24CHL1   C19 2922   3.191   1.156   5.517 -0.4755 -0.5984 -0.2391
   24CHL1  H19A 2923   3.087   1.164   5.480 -1.2998 -3.0853  1.2409
   24CHL1  H19B 2924   3.199   1.208   5.615 -0.6854 -0.3377 -0.3620
   24CHL1  H19C 2925   3.250   1.224   5.452 -1.2818  2.0292  1.6411
   24CHL1    C1 2926   3.127   0.915   5.596 -0.7600 -0.4327 -0.2711
   24CHL1   H1A 2927   3.035   0.921   5.534 -2.2549  0.7617  1.9122
   24CHL1   H1B 2928   3.171   0.814   5.589  0.6648  0.2653 -3.0809
   24CHL1    C2 2929   3.101   0.923   5.743 -0.1152  0.1835 -0.7211
   24CHL1   H2A 2930   3.048   0.840   5.794  0.7178  1.3111  2.2093
   24CHL1   H2B 2931   3.059   1.022   5.770 -0.0554  0.4590 -1.6169
   24CHL1   C20 2932   3.291   0.976   4.807 -0.5751  0.1452 -0.3924
   24CHL1   H20 2933   3.309   1.085   4.798 -2.0497  0.3686 -0.8074
   24CHL1   C21 2934   3.136   0.953   4.800 -0.4176  0.0301  0.0883
   24CHL1  H21A 2935   3.102   0.971   4.696 -0.6176 -1.5913 -0.1606
   24CHL1  H21B 2936   3.082   1.014   4.875  0.3397  0.5239  0.2437
   24CHL1  H21C 2937   3.100   0.852   4.831 -3.4771  0.2361 -2.4270
   24CHL1   C22 2938   3.364   0.914   4.689  0.6429 -0.0972 -0.3660
   24CHL1  H22A 2939   3.323   0.961   4.597  1.9059  2.4460  0.2910
   24CHL1  H22B 2940   3.474   0.934   4.690  0.3312  1.6992 -0.2121
   24CHL1   C23 2941   3.349   0.758   4.685 -1.0197 -0.1981 -0.3762
   24CHL1  H23A 2942   3.390   0.715   4.780 -3.8163 -4.8524 -0.9482
   24CHL1  H23B 2943   3.241   0.731   4.685 -1.0527 -0.0611 -0.5299
   24CHL1   C24 2944   3.433   0.688   4.568 -0.5654 -0.4801  0.3760
   24CHL1  H24A 2945   3.389   0.736   4.478 -0.8680  0.2553  0.9097
   24CHL1  H24B 2946   3.540   0.717   4.561 -0.8958  1.3147  1.9826
   24CHL1   C25 2947   3.406   0.537   4.542  0.3803  0.1600 -0.4914
   24CHL1   H25 2948   3.471   0.478   4.610 -1.3539 -1.0211  0.1991
   24CHL1   C26 2949   3.258   0.496   4.573 -0.3758 -0.5756  0.0170
   24CHL1  H26A 2950   3.251   0.491   4.684  1.7143 -2.9010  0.1383
   24CHL1  H26B 2951   3.175   0.553   4.527 -0.3962 -0.3754  0.2967
   24CHL1  H26C 2952   3.240   0.389   4.550  0.6824 -1.0783  1.3960
   24CHL1   C27 2953   3.443   0.497   4.397  0.3323  0.4706  0.3957
   24CHL1  H27A 2954   3.376   0.526   4.313  0.8756 -1.6399 -0.8406
   24CHL1  H27B 2955   3.546   0.537   4.382  0.3461  0.2178 -0.2060
   24CHL1  H27C 2956   3.456   0.387   4.391 -1.2914  0.3275 -1.2686
   25CHL1    C3 2957   6.500   4.619   6.195 -0.5775  0.1445  0.4572
   25CHL1    H3 2958   6.607   4.588   6.199 -0.3155  0.6544 -1.3917
   25CHL1    O3 2959   6.452   4.618   6.323  0.1071  0.3352  0.0403
   25CHL1   H3' 2960   6.463   4.705   6.362 -0.4931 -0.4844  2.1675
   25CHL1    C4 2961   6.474   4.753   6.134 -0.7326  0.2270 -0.3100
   25CHL1   H4A 2962   6.368   4.783   6.145 -0.5578  1.0915 -0.9351
   25CHL1   H4B 2963   6.542   4.819   6.191 -0.2446 -1.5198  1.2210
   25CHL1    C5 2964   6.520   4.758   5.989  0.4010  0.0158 -0.4218
   25CHL1    C6 2965   6.624   4.829   5.949  0.2097  0.2815 -0.0089
   25CHL1    H6 2966   6.678   4.890   6.022 -0.2959 -0.3713  0.9393
   25CHL1    C7 2967   6.675   4.844   5.808  0.4543 -0.7442  1.7265
   25CHL1   H7A 2968   6.687   4.953   5.788  1.1407 -0.3826  3.8945
   25CHL1   H7B 2969   6.773   4.794   5.799  2.4164  2.5798  2.7622
   25CHL1    C8 2970   6.569   4.788   5.708  0.0199 -0.6835 -0.6537
   25CHL1    H8 2971   6.492   4.867   5.702  0.7405  0.0467 -0.4599
   25CHL1   C14 2972   6.631   4.774   5.568 -0.6835  0.4648 -0.1380
   25CHL1   H14 2973   6.710   4.696   5.574 -0.3400  0.8782  0.9727
   25CHL1   C15 2974   6.698   4.896   5.509 -0.3078 -0.0940 -0.3673
   25CHL1  H15A 2975   6.635   4.983   5.536  0.1395  0.3117 -0.6117
   25CHL1  H15B 2976   6.798   4.914   5.553  1.4907  0.9281 -4.3718
   25CHL1   C16 2977   6.708   4.866   5.358 -0.2613 -0.0563  0.0360
   25CHL1  H16A 2978   6.673   4.952   5.297 -0.0224  0.3228  0.4347
   25CHL1  H16B 2979   6.814   4.840   5.337  0.2112 -0.9050  3.0280
   25CHL1   C17 2980   6.618   4.740   5.331  0.2641  0.3312 -0.2419
   25CHL1   H17 2981   6.687   4.653   5.337  2.8456  2.3635  2.2293
   25CHL1   C13 2982   6.531   4.727   5.459  0.0541 -0.4141 -1.0852
   25CHL1   C18 2983   6.404   4.820   5.448 -0.2214 -0.1232 -0.0612
   25CHL1  H18A 2984   6.352   4.835   5.544 -0.7455 -0.3924 -0.2969
   25CHL1  H18B 2985   6.428   4.921   5.410  0.6222 -0.0833  0.5609
   25CHL1  H18C 2986   6.329   4.775   5.379  1.7081 -0.3705 -2.1200
   25CHL1   C12 2987   6.484   4.590   5.504 -0.7626 -0.2402 -0.6896
   25CHL1  H12A 2988   6.415   4.543   5.432  0.9958 -1.0209 -1.9454
   25CHL1  H12B 2989   6.569   4.521   5.523 -0.4904 -0.3187 -2.0569
   25CHL1   C11 2990   6.415   4.597   5.648 -0.0329 -0.6545 -0.0319
   25CHL1  H11A 2991   6.320   4.654   5.635 -1.0617 -2.1804  0.5042
   25CHL1  H11B 2992   6.384   4.491   5.664 -1.6697 -0.0530  1.0359
   25CHL1    C9 2993   6.511   4.652   5.759 -0.0410 -0.5314  0.5377
   25CHL1    H9 2994   6.606   4.595   5.762  1.6229  2.0117 -0.2308
   25CHL1   C10 2995   6.444   4.661   5.898  0.1178  0.0731  1.1585
   25CHL1   C19 2996   6.293   4.693   5.882 -0.2449 -0.1585 -0.6373
   25CHL1  H19A 2997   6.272   4.773   5.808 -0.2064  0.6532  0.2168
   25CHL1  H19B 2998   6.240   4.611   5.829  0.3382  0.0799 -1.6184
   25CHL1  H19C 2999   6.242   4.707   5.979  0.5125  1.0246 -0.3854
   25CHL1    C1 3000   6.460   4.513   5.963  0.0975  0.1258  0.4194
   25CHL1   H1A 3001   6.392   4.440   5.914  0.1578  0.4621 -0.1716
   25CHL1   H1B 3002   6.566   4.480   5.950  0.0850  0.1649  0.2191
   25CHL1    C2 3003   6.426   4.509   6.110 -0.3066 -0.0573 -0.6321
   25CHL1   H2A 3004   6.444   4.410   6.158  1.4154  0.1949 -0.7085
   25CHL1   H2B 3005   6.318   4.530   6.123 -0.0878  1.4860 -1.1068
   25CHL1   C20 3006   6.550   4.753   5.190 -0.0489 -0.3418  0.8788
   25CHL1   H20 3007   6.492   4.847   5.179  0.2368 -0.2623 -0.0908
   25CHL1   C21 3008   6.465   4.629   5.164  0.0203 -0.2340  0.0289
   25CHL1  H21A 3009   6.403   4.595   5.250  0.5860 -0.5395  0.3206
   25CHL1  H21B 3010   6.525   4.540   5.136  0.0512  0.0066 -0.6878
   25CHL1  H21C 3011   6.401   4.658   5.078  1.0719  2.2921  0.0203
   25CHL1   C22 3012   6.661   4.770   5.079 -0.5848  0.2362 -0.6425
   25CHL1  H22A 3013   6.722   4.859   5.103 -1.6357  1.8265 -3.3756
   25CHL1  H22B 3014   6.731   4.684   5.090 -0.1836  0.6557  0.0853
   25CHL1   C23 3015   6.618   4.782   4.935  0.2518  0.4266 -0.0226
   25CHL1  H23A 3016   6.569   4.688   4.902  3.9144 -1.9462  0.7489
   25CHL1  H23B 3017   6.556   4.875   4.933  1.0802  1.0101  0.9031
   25CHL1   C24 3018   6.728   4.803   4.828  0.1038 -0.7581  0.3352
   25CHL1  H24A 3019   6.782   4.895   4.861 -0.5212 -0.9897  2.1015
   25CHL1  H24B 3020   6.809   4.727   4.824 -0.4769 -1.3784  0.3192
   25CHL1   C25 3021   6.673   4.830   4.681 -0.1593 -0.1880  0.1908
   25CHL1   H25 3022   6.610   4.922   4.684 -0.3203 -0.2903 -0.0414
   25CHL1   C26 3023   6.800   4.866   4.600  0.6882  0.3324 -0.4725
   25CHL1  H26A 3024   6.782   4.880   4.491 -0.4960 -0.3426 -0.3825
   25CHL1  H26B 3025   6.847   4.958   4.640  1.7770 -0.7745  0.9298
   25CHL1  H26C 3026   6.875   4.783   4.603  0.7876  0.4369  0.1085
   25CHL1   C27 3027   6.593   4.717   4.615 -0.2448 -0.2447  0.1135
   25CHL1  H27A 3028   6.504   4.685   4.673 -1.1496  0.6967 -0.7149
   25CHL1  H27B 3029   6.551   4.769   4.526  2.4157  0.0296 -1.0799
   25CHL1  H27C 3030   6.655   4.629   4.587  0.0143 -0.2767  0.7815
   26CHL1    C3 3031   1.739   5.842   5.620 -0.3825 -0.0373 -0.1480
   26CHL1    H3 3032   1.808   5.755   5.617  0.1888  0.4372 -1.9017
   26CHL1    O3 3033   1.716   5.873   5.752 -0.3328 -0.4815 -0.1223
   26CHL1   H3' 3034   1.668   5.957   5.751  0.0010 -0.2939 -0.5145
   26CHL1    C4 3035   1.791   5.956   5.537  0.1840  0.0570 -0.6162
   26CHL1   H4A 3036   1.717   6.038   5.555 -1.0222 -0.8088 -1.4255
   26CHL1   H4B 3037   1.880   6.004   5.583 -1.5752 -0.4769  3.8785
   26CHL1    C5 3038   1.810   5.921   5.394  0.3821  0.1590  0.2223
   26CHL1    C6 3039   1.935   5.923   5.346 -0.4900  0.3680 -0.4206
   26CHL1    H6 3040   2.019   5.950   5.412 -1.1959 -0.8223  1.0258
   26CHL1    C7 3041   1.973   5.857   5.218  0.1135 -0.0847  1.0331
   26CHL1   H7A 3042   2.049   5.920   5.167  0.6209 -0.9198  0.7208
   26CHL1   H7B 3043   2.018   5.758   5.243  0.3316 -0.7523 -1.6449
   26CHL1    C8 3044   1.848   5.829   5.123 -0.5515 -0.2641  0.1073
   26CHL1    H8 3045   1.816   5.930   5.090  0.7781  0.1980  0.1888
   26CHL1   C14 3046   1.882   5.755   4.999  0.5629 -0.5352 -0.0956
   26CHL1   H14 3047   1.934   5.658   5.017  1.1639 -0.4039 -1.0257
   26CHL1   C15 3048   1.988   5.824   4.915 -0.2319 -0.1351 -0.3391
   26CHL1  H15A 3049   1.964   5.932   4.898 -0.0156  0.3970  2.3066
   26CHL1  H15B 3050   2.089   5.826   4.960 -1.0884  0.7393  1.7043
   26CHL1   C16 3051   1.982   5.756   4.779  0.8010  0.5943  0.7031
   26CHL1  H16A 3052   1.992   5.826   4.693 -2.4517 -1.2422 -1.4029
   26CHL1  H16B 3053   2.064   5.682   4.768 -0.1983 -0.3055 -1.1808
   26CHL1   C17 3054   1.844   5.680   4.777  0.2283 -0.5585  0.6147
   26CHL1   H17 3055   1.868   5.576   4.807  0.2454 -0.9643 -0.7371
   26CHL1   C13 3056   1.764   5.739   4.903 -0.9792  0.3177 -0.2978
   26CHL1   C18 3057   1.702   5.863   4.855  0.7699  0.0208  0.8580
   26CHL1  H18A 3058   1.614   5.839   4.791 -0.0537  2.4366  1.0141
   26CHL1  H18B 3059   1.658   5.929   4.932  1.0063 -1.7625  2.6085
   26CHL1  H18C 3060   1.774   5.929   4.802  0.2007 -0.0495 -0.0257
   26CHL1   C12 3061   1.665   5.641   4.988  0.1627  0.4106 -0.0323
   26CHL1  H12A 3062   1.581   5.611   4.922  0.7052 -2.5983  0.4678
   26CHL1  H12B 3063   1.710   5.543   5.017 -0.2358 -0.2129 -1.4127
   26CHL1   C11 3064   1.614   5.721   5.105 -0.3741  0.5694 -0.1631
   26CHL1  H11A 3065   1.554   5.810   5.076 -2.7256 -0.0767  2.2589
   26CHL1  H11B 3066   1.543   5.655   5.159  0.7344 -1.1610 -0.7268
   26CHL1    C9 3067   1.728   5.766   5.201 -0.3568  0.4563 -0.2518
   26CHL1    H9 3068   1.763   5.670   5.244 -0.2438  0.5595 -0.1148
   26CHL1   C10 3069   1.688   5.847   5.327  0.1630 -0.3775 -0.4851
   26CHL1   C19 3070   1.585   5.960   5.284 -0.2700  0.2369 -0.0820
   26CHL1  H19A 3071   1.610   6.027   5.198  1.6708 -0.0227  0.2272
   26CHL1  H19B 3072   1.492   5.904   5.260  0.6961 -1.1743 -0.6963
   26CHL1  H19C 3073   1.558   6.020   5.373  2.3120  0.4659  0.6333
   26CHL1    C1 3074   1.622   5.743   5.426  0.7634  0.0204  0.0498
   26CHL1   H1A 3075   1.518   5.714   5.398  0.2195  0.6412  1.3077
   26CHL1   H1B 3076   1.688   5.655   5.438 -0.6964 -0.9702  1.2593
   26CHL1    C2 3077   1.609   5.794   5.566  0.1696 -0.0188  0.2079
   26CHL1   H2A 3078   1.561   5.718   5.632 -2.4934  1.8099  0.5178
   26CHL1   H2B 3079   1.526   5.868   5.570 -1.8013 -2.0296 -0.8751
   26CHL1   C20 3080   1.795   5.663   4.630  0.4440 -1.1932 -0.0965
   26CHL1   H20 3081   1.759   5.757   4.583 -0.6240 -0.8114  1.4034
   26CHL1   C21 3082   1.677   5.566   4.648 -0.0778  0.4743 -0.0824
   26CHL1  H21A 3083   1.700   5.470   4.699  0.6116  0.4216 -0.4842
   26CHL1  H21B 3084   1.626   5.533   4.555 -1.3087 -2.0669  1.3899
   26CHL1  H21C 3085   1.605   5.606   4.723  0.9423  0.7301  0.7870
   26CHL1   C22 3086   1.912   5.596   4.548 -0.0161 -0.2389  0.4921
   26CHL1  H22A 3087   2.001   5.661   4.555 -0.4784  0.5811 -0.9141
   26CHL1  H22B 3088   1.950   5.506   4.601 -1.0468 -0.4044  0.9766
   26CHL1   C23 3089   1.872   5.559   4.404  0.3234  0.0284 -0.1241
   26CHL1  H23A 3090   1.949   5.506   4.343 -0.4510  0.5194 -1.5554
   26CHL1  H23B 3091   1.796   5.478   4.405  1.1902 -0.8105 -0.0525
   26CHL1   C24 3092   1.829   5.682   4.323 -0.1914  0.3151  0.0601
   26CHL1  H24A 3093   1.749   5.740   4.373  0.2902  0.9356  0.1183
   26CHL1  H24B 3094   1.913   5.752   4.305  0.2381 -0.4222 -0.9881
   26CHL1   C25 3095   1.766   5.640   4.187  0.1473 -0.4891  0.3911
   26CHL1   H25 3096   1.682   5.571   4.211  0.1634 -0.4500  0.5557
   26CHL1   C26 3097   1.709   5.765   4.123 -0.0463 -0.0012  0.4713
   26CHL1  H26A 3098   1.630   5.804   4.190 -1.8775 -2.0576 -0.3938
   26CHL1  H26B 3099   1.787   5.842   4.103  1.0559 -0.9838  0.8499
   26CHL1  H26C 3100   1.663   5.746   4.024 -0.6532  2.1688  0.2966
   26CHL1   C27 3101   1.870   5.590   4.086  0.0440 -0.0560  0.8386
   26CHL1  H27A 3102   1.926   5.505   4.130  0.9653  0.3981  0.5669
   26CHL1  H27B 3103   1.821   5.568   3.988  0.1312  0.5444  0.6566
   26CHL1  H27C 3104   1.944   5.671   4.069  0.2163 -0.0438  1.6216
   27CHL1    C3 3105   1.945   2.085   5.827 -0.4723  0.0313 -0.8713
   27CHL1    H3 3106   2.044   2.121   5.792 -0.2068 -0.0331 -0.2011
   27CHL1    O3 3107   1.958   2.080   5.966  0.5068  0.2660 -0.6301
   27CHL1   H3' 3108   1.986   2.168   5.990  0.0906 -0.0300  1.0735
   27CHL1    C4 3109   1.832   2.180   5.777 -0.4812 -0.6375  0.0497
   27CHL1   H4A 3110   1.733   2.156   5.820  0.5957 -1.2714  2.3002
   27CHL1   H4B 3111   1.851   2.282   5.818  1.1521 -1.6709  1.9991
   27CHL1    C5 3112   1.817   2.171   5.625 -0.0357 -0.0956  0.3834
   27CHL1    C6 3113   1.813   2.282   5.557  0.1245 -0.0729 -0.1658
   27CHL1    H6 3114   1.819   2.379   5.610  0.3120 -0.5800  0.7734
   27CHL1    C7 3115   1.777   2.288   5.408 -0.0808  0.5293 -0.9338
   27CHL1   H7A 3116   1.677   2.336   5.397 -1.1538 -1.5021 -0.7016
   27CHL1   H7B 3117   1.855   2.351   5.361  1.0811  0.1151  0.4020
   27CHL1    C8 3118   1.753   2.157   5.335 -0.1374 -0.4525  0.7880
   27CHL1    H8 3119   1.646   2.129   5.339 -0.5537  0.5346 -1.8264
   27CHL1   C14 3120   1.806   2.161   5.191 -0.6570  0.4765 -0.2554
   27CHL1   H14 3121   1.916   2.176   5.193 -0.9252  3.2085 -1.5842
   27CHL1   C15 3122   1.745   2.279   5.108  0.0151  0.3803  0.3868
   27CHL1  H15A 3123   1.638   2.296   5.132 -0.4711  0.5785 -1.6578
   27CHL1  H15B 3124   1.792   2.378   5.119  0.3251  0.1308  1.3384
   27CHL1   C16 3125   1.775   2.227   4.960 -0.0850  0.7829  0.3532
   27CHL1  H16A 3126   1.689   2.228   4.890  1.0026 -1.7305 -1.1408
   27CHL1  H16B 3127   1.856   2.292   4.921  0.2206  0.9223  1.1834
   27CHL1   C17 3128   1.827   2.078   4.980  0.3565 -0.3777  0.3893
   27CHL1   H17 3129   1.936   2.099   4.988  0.0443  1.3679  0.6014
   27CHL1   C13 3130   1.774   2.030   5.111 -0.1684  0.3448  0.1658
   27CHL1   C18 3131   1.625   1.986   5.098  0.3900 -0.2381 -0.4762
   27CHL1  H18A 3132   1.564   2.062   5.045  1.9688  0.1999 -1.7283
   27CHL1  H18B 3133   1.617   1.901   5.028  0.1233 -0.2430 -0.4383
   27CHL1  H18C 3134   1.577   1.961   5.195  0.4328  0.5795 -0.2325
   27CHL1   C12 3135   1.854   1.916   5.180  0.4990 -0.4147 -0.4471
   27CHL1  H12A 3136   1.830   1.817   5.138 -2.8439  1.3121 -3.1220
   27CHL1  H12B 3137   1.963   1.935   5.171  0.4816 -1.3336 -3.9236
   27CHL1   C11 3138   1.814   1.909   5.326  0.0723 -1.0110 -0.2831
   27CHL1  H11A 3139   1.707   1.883   5.338 -1.6918  4.1771 -1.8519
   27CHL1  H11B 3140   1.881   1.832   5.369 -0.9526 -0.7055  2.0561
   27CHL1    C9 3141   1.832   2.045   5.406  0.0946 -0.0999 -0.3134
   27CHL1    H9 3142   1.939   2.072   5.392 -0.4949  2.3935 -0.4021
   27CHL1   C10 3143   1.817   2.032   5.558 -0.3239 -0.1194  0.6453
   27CHL1   C19 3144   1.685   1.970   5.590 -0.1719 -0.7753  0.0255
   27CHL1  H19A 3145   1.672   1.965   5.700  1.9684  1.2019  0.4429
   27CHL1  H19B 3146   1.602   2.034   5.551  0.9014 -0.8459 -2.5984
   27CHL1  H19C 3147   1.673   1.868   5.548  1.5415 -0.7321 -0.6286
   27CHL1    C1 3148   1.930   1.945   5.622 -0.6177 -0.1888 -0.3759
   27CHL1   H1A 3149   1.917   1.840   5.591 -0.1357 -0.3416 -0.0682
   27CHL1   H1B 3150   2.030   1.984   5.594 -0.7982  0.3339 -0.3234
   27CHL1    C2 3151   1.931   1.945   5.779 -0.4431 -0.3188  0.1089
   27CHL1   H2A 3152   2.024   1.887   5.801 -0.1721 -0.3846 -1.1602
   27CHL1   H2B 3153   1.840   1.903   5.826  1.3067 -3.0861  1.3315
   27CHL1   C20 3154   1.813   1.994   4.848  0.0649 -0.1680 -0.0688
   27CHL1   H20 3155   1.708   1.993   4.812  0.4308  0.3818 -1.1715
   27CHL1   C21 3156   1.856   1.856   4.874  0.1754  0.8089 -0.7342
   27CHL1  H21A 3157   1.782   1.791   4.925  2.1676 -1.3506 -0.3793
   27CHL1  H21B 3158   1.958   1.844   4.917 -0.4353  1.9898  1.1688
   27CHL1  H21C 3159   1.873   1.802   4.779  1.2726 -1.7454  0.7982
   27CHL1   C22 3160   1.908   2.062   4.741  0.3668  0.0075  0.7292
   27CHL1  H22A 3161   1.892   2.172   4.735 -0.1300 -0.1310 -0.8813
   27CHL1  H22B 3162   2.016   2.048   4.763  0.5506  1.7326  1.1146
   27CHL1   C23 3163   1.892   2.022   4.590  0.9756  0.2070  0.1334
   27CHL1  H23A 3164   1.918   1.914   4.581  0.5021  0.2339 -2.7554
   27CHL1  H23B 3165   1.790   2.047   4.553  2.4405  3.4203 -2.1971
   27CHL1   C24 3166   1.975   2.089   4.483  0.6694  0.3213  0.6466
   27CHL1  H24A 3167   1.950   2.197   4.485  0.0208  0.1910 -0.0113
   27CHL1  H24B 3168   2.083   2.068   4.496  0.4709 -2.1690 -0.9172
   27CHL1   C25 3169   1.932   2.043   4.337  0.3415  0.1747  0.6956
   27CHL1   H25 3170   1.821   2.034   4.344  0.4591 -2.5652  0.3349
   27CHL1   C26 3171   1.967   2.150   4.230  0.4810  1.4419 -0.8743
   27CHL1  H26A 3172   1.934   2.247   4.272 -1.8450  0.6149 -0.6358
   27CHL1  H26B 3173   2.076   2.152   4.206  0.9824  0.3787  1.1051
   27CHL1  H26C 3174   1.909   2.125   4.138  0.2289  0.5734 -0.4886
   27CHL1   C27 3175   1.975   1.896   4.303  0.4894 -0.7195  0.2427
   27CHL1  H27A 3176   1.925   1.815   4.362 -2.0122 -0.3956 -1.2678
   27CHL1  H27B 3177   2.086   1.893   4.302  0.5037 -0.8076 -1.7928
   27CHL1  H27C 3178   1.949   1.878   4.197 -0.3603  1.3870  0.0488
   28CHL1    C3 3179   6.089   1.507   5.919 -0.7669  0.2195 -0.0051
   28CHL1    H3 3180   6.047   1.406   5.902 -0.8820  0.2372  0.1761
   28CHL1    O3 3181   6.091   1.533   6.061 -0.4115 -0.0351  0.1054
   28CHL1   H3' 3182   6.025   1.474   6.096  0.0251 -1.4137 -1.2966
   28CHL1    C4 3183   6.228   1.526   5.862  0.2571 -0.1628 -0.4687
   28CHL1   H4A 3184   6.276   1.618   5.903  2.2407 -0.7798 -1.2905
   28CHL1   H4B 3185   6.296   1.452   5.909 -1.5032 -1.6678 -0.1931
   28CHL1    C5 3186   6.240   1.527   5.717 -0.5447  0.3809  0.4120
   28CHL1    C6 3187   6.325   1.443   5.656 -0.0369 -0.0192  0.6348
   28CHL1    H6 3188   6.390   1.382   5.721 -0.2399 -0.3403  0.5363
   28CHL1    C7 3189   6.341   1.428   5.505  0.3151 -0.2193 -0.7064
   28CHL1   H7A 3190   6.445   1.431   5.467  0.5645 -0.7142 -0.0952
   28CHL1   H7B 3191   6.301   1.328   5.476 -0.3910 -0.8392  2.0933
   28CHL1    C8 3192   6.259   1.530   5.427  0.1243 -0.1210 -0.4587
   28CHL1    H8 3193   6.326   1.619   5.436 -1.3435  0.8498  1.9296
   28CHL1   C14 3194   6.251   1.497   5.276  0.7947 -0.1529 -0.0489
   28CHL1   H14 3195   6.192   1.404   5.260 -0.6550  0.8737 -0.8784
   28CHL1   C15 3196   6.379   1.472   5.195 -0.9599 -0.1955 -0.3979
   28CHL1  H15A 3197   6.447   1.551   5.234 -2.5382  0.7799  0.5464
   28CHL1  H15B 3198   6.416   1.373   5.228 -1.1722 -0.6630 -1.5219
   28CHL1   C16 3199   6.347   1.480   5.050 -0.1011 -0.3472 -0.0212
   28CHL1  H16A 3200   6.432   1.528   4.997 -0.8888  0.6467 -0.4301
   28CHL1  H16B 3201   6.321   1.377   5.018 -1.2858 -0.2739  0.6347
   28CHL1   C17 3202   6.204   1.562   5.056  0.5903  0.1420  0.6878
   28CHL1   H17 3203   6.129   1.482   5.041  1.2543 -0.0595 -2.2155
   28CHL1   C13 3204   6.186   1.614   5.199  1.1078 -0.1486  0.0445
   28CHL1   C18 3205   6.256   1.750   5.210 -0.2804  0.4282  0.1243
   28CHL1  H18A 3206   6.286   1.793   5.308  0.5037 -0.0878  0.1165
   28CHL1  H18B 3207   6.344   1.739   5.144 -0.8123  0.1804 -0.5617
   28CHL1  H18C 3208   6.190   1.821   5.156  1.0754  1.9534  0.4165
   28CHL1   C12 3209   6.046   1.618   5.257 -0.3281 -0.7647 -0.3714
   28CHL1  H12A 3210   5.993   1.691   5.192  2.4883  1.4838 -0.3398
   28CHL1  H12B 3211   5.998   1.518   5.248  0.2901 -1.1432  0.3714
   28CHL1   C11 3212   6.040   1.668   5.400 -0.0712  0.3195 -0.4681
   28CHL1  H11A 3213   6.076   1.773   5.406 -0.0395  0.2699  0.3307
   28CHL1  H11B 3214   5.934   1.666   5.431 -0.2017  0.5601 -0.8860
   28CHL1    C9 3215   6.123   1.563   5.490  0.7447 -0.3335  0.4031
   28CHL1    H9 3216   6.066   1.468   5.483  2.7108 -1.6355  0.9626
   28CHL1   C10 3217   6.130   1.602   5.642  0.1707 -0.2731  0.5187
   28CHL1   C19 3218   6.175   1.746   5.648  0.2581 -0.0741 -0.3440
   28CHL1  H19A 3219   6.099   1.816   5.606 -0.4622 -0.1287  0.8427
   28CHL1  H19B 3220   6.199   1.783   5.750  0.5263 -2.0755  0.3533
   28CHL1  H19C 3221   6.266   1.762   5.586  0.4358  1.9818  0.3691
   28CHL1    C1 3222   5.991   1.580   5.703 -0.3711  0.5715 -0.1527
   28CHL1   H1A 3223   5.910   1.641   5.657 -0.7644  0.1157 -0.0734
   28CHL1   H1B 3224   5.946   1.479   5.688  0.6036 -0.3158  2.4673
   28CHL1    C2 3225   5.991   1.600   5.862  0.6255 -0.6578  0.0908
   28CHL1   H2A 3226   5.890   1.580   5.903  0.3449  1.7631  0.7716
   28CHL1   H2B 3227   6.022   1.706   5.879 -0.2284 -0.3700 -0.0811
   28CHL1   C20 3228   6.173   1.661   4.943  0.7932  0.8813 -0.0885
   28CHL1   H20 3229   6.166   1.767   4.973  0.1562  0.5848  0.8220
   28CHL1   C21 3230   6.028   1.623   4.892 -0.0972 -0.6207  0.1178
   28CHL1  H21A 3231   5.956   1.615   4.977 -0.7995  0.4059 -0.3489
   28CHL1  H21B 3232   6.043   1.526   4.841  0.4575  1.2290 -3.5508
   28CHL1  H21C 3233   5.986   1.697   4.820 -1.2139 -0.3952  0.9752
   28CHL1   C22 3234   6.270   1.659   4.821  0.3144  0.8576  0.5732
   28CHL1  H22A 3235   6.370   1.685   4.863  0.4004  0.4987  0.5946
   28CHL1  H22B 3236   6.275   1.558   4.774 -1.7962  1.6655 -1.6199
   28CHL1   C23 3237   6.235   1.751   4.703 -0.9944 -0.2493 -0.3300
   28CHL1  H23A 3238   6.135   1.729   4.660 -0.3304 -0.1284 -2.0493
   28CHL1  H23B 3239   6.242   1.859   4.728  0.4374 -0.3294 -0.3014
   28CHL1   C24 3240   6.338   1.729   4.592  0.5295  0.3642  0.0444
   28CHL1  H24A 3241   6.435   1.736   4.646  0.6936  0.7325 -0.2919
   28CHL1  H24B 3242   6.332   1.628   4.548  0.7316  0.7810 -0.9556
   28CHL1   C25 3243   6.341   1.840   4.481 -0.3874  0.4044  0.0136
   28CHL1   H25 3244   6.337   1.940   4.529  0.1815  0.1490  0.6097
   28CHL1   C26 3245   6.480   1.826   4.413  0.0793 -0.3502  0.0878
   28CHL1  H26A 3246   6.554   1.851   4.491 -0.3113  0.9268  0.0684
   28CHL1  H26B 3247   6.495   1.723   4.374 -0.7974 -0.1154 -0.9279
   28CHL1  H26C 3248   6.491   1.902   4.333 -0.9066  0.0735  0.3441
   28CHL1   C27 3249   6.223   1.818   4.383 -0.1066 -0.3750  0.0133
   28CHL1  H27A 3250   6.127   1.834   4.436  0.8013  0.9376  1.3373
   28CHL1  H27B 3251   6.237   1.888   4.298  0.5208 -0.3159  0.1591
   28CHL1  H27C 3252   6.224   1.712   4.350  1.2976 -0.8050  1.3043
   29CHL1    C3 3253   3.220   5.680   5.387  0.4392 -0.3724 -0.8459
   29CHL1    H3 3254   3.121   5.659   5.341 -0.1888  0.9774 -0.1927
   29CHL1    O3 3255   3.199   5.688   5.529  0.1141  0.1774  0.0120
   29CHL1   H3' 3256   3.282   5.723   5.561  0.3752  0.2993 -0.7844
   29CHL1    C4 3257   3.322   5.567   5.367 -0.2538  0.2683 -0.0047
   29CHL1   H4A 3258   3.413   5.581   5.430  1.7495 -0.9364 -2.4182
   29CHL1   H4B 3259   3.274   5.470   5.393  0.5532  0.1143  0.9563
   29CHL1    C5 3260   3.363   5.564   5.219 -1.2474 -0.1613 -0.8393
   29CHL1    C6 3261   3.357   5.455   5.139  0.8331  0.1006  0.5974
   29CHL1    H6 3262   3.317   5.362   5.181  0.1240  0.6348  1.1399
   29CHL1    C7 3263   3.409   5.447   4.997 -0.6266 -0.0244 -0.6873
   29CHL1   H7A 3264   3.477   5.359   4.998 -0.0518  0.3984  1.1595
   29CHL1   H7B 3265   3.332   5.422   4.921  0.6709 -1.6508 -1.5618
   29CHL1    C8 3266   3.498   5.567   4.951  0.1193  0.3247 -0.5851
   29CHL1    H8 3267   3.604   5.557   4.980  0.6769  1.3343 -2.1540
   29CHL1   C14 3268   3.480   5.577   4.794 -0.1095 -0.4583 -0.8220
   29CHL1   H14 3269   3.377   5.603   4.761 -0.7669 -2.0391 -0.1128
   29CHL1   C15 3270   3.526   5.457   4.706 -0.9493  0.2071 -0.1408
   29CHL1  H15A 3271   3.625   5.424   4.744  0.1826  1.2194 -2.0630
   29CHL1  H15B 3272   3.454   5.372   4.710 -1.8797  0.9977  1.8512
   29CHL1   C16 3273   3.552   5.515   4.568 -0.3212 -0.0283 -0.4847
   29CHL1  H16A 3274   3.644   5.475   4.518  0.3111 -0.8016  1.2363
   29CHL1  H16B 3275   3.482   5.462   4.500  1.4287 -2.7366 -0.3668
   29CHL1   C17 3276   3.543   5.668   4.590  0.6610 -0.1250  0.6354
   29CHL1   H17 3277   3.435   5.692   4.575  0.8116 -0.0344 -0.3583
   29CHL1   C13 3278   3.560   5.698   4.740 -0.7286 -0.1320  0.0212
   29CHL1   C18 3279   3.708   5.684   4.784 -0.4835  0.1193 -0.1792
   29CHL1  H18A 3280   3.723   5.678   4.894  0.5059  0.6897 -0.2737
   29CHL1  H18B 3281   3.760   5.595   4.741  1.3262  1.4057 -0.7525
   29CHL1  H18C 3282   3.766   5.771   4.747  1.6594 -1.1610 -0.0070
   29CHL1   C12 3283   3.505   5.830   4.798  0.1418 -0.6986 -0.3340
   29CHL1  H12A 3284   3.573   5.908   4.755  1.2793 -2.5438 -2.0682
   29CHL1  H12B 3285   3.402   5.841   4.759  0.3716  1.3737 -0.4880
   29CHL1   C11 3286   3.519   5.816   4.951  0.4610 -0.8887 -0.3796
   29CHL1  H11A 3287   3.627   5.832   4.975 -0.2852  4.9215  0.6894
   29CHL1  H11B 3288   3.472   5.907   4.994  1.1359 -1.4790  1.7305
   29CHL1    C9 3289   3.438   5.694   5.008  0.2887 -0.2008 -0.2624
   29CHL1    H9 3290   3.336   5.708   4.965 -0.9594 -0.7641  2.3149
   29CHL1   C10 3291   3.422   5.700   5.160 -0.0095  0.1034  0.3464
   29CHL1   C19 3292   3.561   5.726   5.230 -0.2850  0.1625 -0.3050
   29CHL1  H19A 3293   3.549   5.727   5.340 -3.0072 -1.4469 -0.4946
   29CHL1  H19B 3294   3.630   5.644   5.201  1.5461  1.7482 -0.6188
   29CHL1  H19C 3295   3.610   5.818   5.190  1.0251 -0.4034 -0.0510
   29CHL1    C1 3296   3.322   5.812   5.194 -0.2394 -0.5906  0.0417
   29CHL1   H1A 3297   3.343   5.919   5.171  1.9298 -0.9344  0.1976
   29CHL1   H1B 3298   3.225   5.790   5.144  0.1669 -0.5228 -0.7865
   29CHL1    C2 3299   3.282   5.812   5.347 -0.5968 -0.3769  0.4685
   29CHL1   H2A 3300   3.207   5.889   5.376  0.6227  0.5601  1.2573
   29CHL1   H2B 3301   3.379   5.825   5.400 -0.0002 -0.2889 -0.6276
   29CHL1   C20 3302   3.615   5.754   4.480  0.0019  0.2911  0.3182
   29CHL1   H20 3303   3.608   5.864   4.497  0.1594  0.5677 -1.3241
   29CHL1   C21 3304   3.533   5.749   4.350 -0.1643  0.0223  0.6270
   29CHL1  H21A 3305   3.524   5.646   4.311 -2.4661  0.7506 -1.0043
   29CHL1  H21B 3306   3.588   5.805   4.271 -1.4892  0.7593  0.1911
   29CHL1  H21C 3307   3.430   5.789   4.366 -0.2951  0.4120 -0.9797
   29CHL1   C22 3308   3.761   5.703   4.456  0.2417  0.2752 -0.1569
   29CHL1  H22A 3309   3.794   5.647   4.546  1.0910 -0.1952 -0.7499
   29CHL1  H22B 3310   3.753   5.633   4.370 -3.0243  1.4663 -0.9734
   29CHL1   C23 3311   3.853   5.822   4.436 -0.7248  0.8297  0.1490
   29CHL1  H23A 3312   3.809   5.879   4.352  2.3725  2.6438 -0.3754
   29CHL1  H23B 3313   3.858   5.879   4.531  0.2351  2.8036 -1.0275
   29CHL1   C24 3314   3.996   5.796   4.401 -0.3262 -0.1715 -0.2981
   29CHL1  H24A 3315   4.049   5.735   4.477  1.9756  0.7359 -1.1055
   29CHL1  H24B 3316   3.989   5.726   4.314 -2.0782  0.4654 -0.7252
   29CHL1   C25 3317   4.082   5.928   4.385  1.3109  0.1667 -0.4569
   29CHL1   H25 3318   4.065   5.985   4.478  0.8578 -1.0520  0.2388
   29CHL1   C26 3319   4.226   5.894   4.394 -0.1246  0.2455  0.1591
   29CHL1  H26A 3320   4.284   5.989   4.395  0.7270 -0.2580  1.7281
   29CHL1  H26B 3321   4.243   5.842   4.491 -4.5655 -0.4689  0.7431
   29CHL1  H26C 3322   4.253   5.823   4.313  3.3067  0.7487  0.7020
   29CHL1   C27 3323   4.050   6.019   4.263 -0.0222 -0.0200 -0.5453
   29CHL1  H27A 3324   4.116   6.106   4.244  0.3114 -0.1419  0.0306
   29CHL1  H27B 3325   4.059   5.962   4.167  0.9824  0.6245 -0.8430
   29CHL1  H27C 3326   3.944   6.051   4.266 -0.1551 -0.5152  0.3815
   30CHL1    C3 3327   4.014   6.012   5.598 -0.1036 -0.6674 -0.2131
   30CHL1    H3 3328   4.092   5.933   5.598  1.4398  0.7886  0.6265
   30CHL1    O3 3329   3.922   5.977   5.701 -0.1376  0.5415 -0.1038
   30CHL1   H3' 3330   3.869   6.056   5.712  0.3525  0.7863  0.5029
   30CHL1    C4 3331   4.083   6.143   5.631 -0.3639 -0.0556  0.3001
   30CHL1   H4A 3332   4.014   6.227   5.653  0.1941  0.0714  1.6680
   30CHL1   H4B 3333   4.141   6.125   5.724 -1.5896  1.5628  1.4316
   30CHL1    C5 3334   4.179   6.196   5.525 -0.8025  0.7136 -0.1254
   30CHL1    C6 3335   4.303   6.230   5.558 -0.2361  0.4149 -0.2300
   30CHL1    H6 3336   4.336   6.217   5.662  5.2717 -0.4080 -1.7426
   30CHL1    C7 3337   4.396   6.269   5.453 -0.4092 -0.5417  0.4650
   30CHL1   H7A 3338   4.462   6.353   5.482  1.6599 -1.8027 -0.3547
   30CHL1   H7B 3339   4.480   6.198   5.436  0.8803  0.3965  2.4687
   30CHL1    C8 3340   4.327   6.319   5.320  0.5445  0.4575 -0.1045
   30CHL1    H8 3341   4.279   6.417   5.342  0.1128  0.4665 -1.0749
   30CHL1   C14 3342   4.430   6.340   5.216  0.5393  0.1040  0.7709
   30CHL1   H14 3343   4.480   6.242   5.198 -1.8278 -0.8941 -0.8691
   30CHL1   C15 3344   4.545   6.438   5.247  0.4678  0.0270 -0.3215
   30CHL1  H15A 3345   4.512   6.531   5.298  0.1604 -0.2094 -0.0882
   30CHL1  H15B 3346   4.617   6.389   5.315  0.8133  0.9513  0.0030
   30CHL1   C16 3347   4.600   6.473   5.108 -0.2860 -1.0496  0.0322
   30CHL1  H16A 3348   4.607   6.584   5.097  0.2685 -1.0325  0.4596
   30CHL1  H16B 3349   4.702   6.432   5.093  0.2830  0.4322 -0.4071
   30CHL1   C17 3350   4.508   6.404   5.005  0.0798 -0.4106  0.0231
   30CHL1   H17 3351   4.548   6.303   4.987 -0.6736 -1.2528  2.6493
   30CHL1   C13 3352   4.373   6.383   5.084 -0.7783 -1.1984  0.3957
   30CHL1   C18 3353   4.315   6.529   5.087  0.5168  0.1659 -0.3812
   30CHL1  H18A 3354   4.236   6.530   5.164  0.3189 -0.4302 -0.5716
   30CHL1  H18B 3355   4.395   6.605   5.103 -1.0116  1.7469  0.0414
   30CHL1  H18C 3356   4.263   6.561   4.994 -0.1494  1.0133  0.2629
   30CHL1   C12 3357   4.278   6.285   5.025 -0.1028 -0.8706  0.0358
   30CHL1  H12A 3358   4.233   6.323   4.930 -0.3142 -0.5423  0.2639
   30CHL1  H12B 3359   4.330   6.191   4.996 -0.8145 -0.5284 -2.6718
   30CHL1   C11 3360   4.169   6.251   5.126  0.8327 -0.6298  0.2986
   30CHL1  H11A 3361   4.107   6.343   5.121  2.1335  0.2591 -0.0115
   30CHL1  H11B 3362   4.108   6.165   5.089  0.1830 -1.3307  2.8134
   30CHL1    C9 3363   4.225   6.221   5.269  0.1411 -0.4131 -0.3159
   30CHL1    H9 3364   4.274   6.122   5.257 -2.1959 -1.5318 -1.3145
   30CHL1   C10 3365   4.117   6.203   5.380  0.4691 -0.3661  0.7826
   30CHL1   C19 3366   3.999   6.311   5.373 -0.1057  0.3737  0.1504
   30CHL1  H19A 3367   3.934   6.313   5.463 -1.6929  0.6963 -0.9614
   30CHL1  H19B 3368   4.051   6.409   5.370 -0.2251  0.4542  0.5939
   30CHL1  H19C 3369   3.933   6.296   5.285  2.3245  0.2272 -1.7713
   30CHL1    C1 3370   4.041   6.065   5.357 -0.4371  0.9826 -0.0502
   30CHL1   H1A 3371   3.989   6.073   5.259  1.3018  0.6088 -1.0339
   30CHL1   H1B 3372   4.124   5.992   5.361 -0.2627  1.2123  3.1264
   30CHL1    C2 3373   3.941   6.017   5.463 -0.0400  0.9625  0.9687
   30CHL1   H2A 3374   3.922   5.914   5.428  2.4667  0.3689  1.2166
   30CHL1   H2B 3375   3.847   6.077   5.456 -1.1893 -0.9227 -0.6421
   30CHL1   C20 3376   4.503   6.478   4.868 -0.6729 -0.3089 -0.9262
   30CHL1   H20 3377   4.427   6.559   4.882  0.0506  0.0159  1.8520
   30CHL1   C21 3378   4.462   6.378   4.755  0.1744  0.3307 -0.3177
   30CHL1  H21A 3379   4.362   6.335   4.778  0.4418  0.7101  1.7706
   30CHL1  H21B 3380   4.544   6.307   4.732 -0.6833 -0.5590 -0.6910
   30CHL1  H21C 3381   4.448   6.445   4.667  0.8635  1.5731  0.4867
   30CHL1   C22 3382   4.632   6.550   4.824 -0.3798  0.1915  0.1728
   30CHL1  H22A 3383   4.647   6.626   4.905 -0.7299  1.7643 -1.1814
   30CHL1  H22B 3384   4.722   6.486   4.814  0.8936  1.5821  1.9721
   30CHL1   C23 3385   4.615   6.642   4.696 -0.3441  0.0952  0.5478
   30CHL1  H23A 3386   4.602   6.567   4.615 -0.0077  0.6276  0.0001
   30CHL1  H23B 3387   4.522   6.703   4.698 -1.8395 -1.9707 -1.0751
   30CHL1   C24 3388   4.733   6.738   4.667  0.0928  0.3855  0.5140
   30CHL1  H24A 3389   4.714   6.818   4.593  2.6649 -0.1324 -0.8398
   30CHL1  H24B 3390   4.754   6.797   4.759 -0.5489  0.1343  0.8260
   30CHL1   C25 3391   4.865   6.661   4.650 -0.3272  0.6225  0.3631
   30CHL1   H25 3392   4.879   6.607   4.746  0.8773 -0.3134 -0.3030
   30CHL1   C26 3393   4.864   6.552   4.536 -0.1507 -0.1022  0.4685
   30CHL1  H26A 3394   4.785   6.476   4.555  1.2144 -2.2496 -1.7633
   30CHL1  H26B 3395   4.830   6.589   4.437  2.2440 -0.7564 -0.6498
   30CHL1  H26C 3396   4.965   6.506   4.532  0.4295  1.1021  0.9017
   30CHL1   C27 3397   4.978   6.757   4.617 -0.0344  0.0438 -0.0352
   30CHL1  H27A 3398   4.956   6.848   4.678 -0.6718 -1.0538  1.4434
   30CHL1  H27B 3399   5.075   6.723   4.660 -0.3021  0.1812  0.7062
   30CHL1  H27C 3400   5.002   6.786   4.513  3.0395  0.2893  0.6437
   31CHL1    C3 3401   0.819   0.385   5.670  0.4352 -0.4521  0.3955
   31CHL1    H3 3402   0.880   0.295   5.650  0.2707 -1.3639  3.5429
   31CHL1    O3 3403   0.745   0.354   5.780 -0.1840 -0.4533  0.0863
   31CHL1   H3' 3404   0.694   0.436   5.779  1.4292  0.6047 -0.9768
   31CHL1    C4 3405   0.903   0.503   5.682  0.1226 -0.0539 -0.4684
   31CHL1   H4A 3406   0.840   0.592   5.703  2.0194  1.0450  0.8212
   31CHL1   H4B 3407   0.972   0.491   5.768 -1.0796 -0.4299  0.4659
   31CHL1    C5 3408   0.978   0.531   5.550 -0.3295  0.4458 -0.3548
   31CHL1    C6 3409   1.109   0.530   5.541 -0.3257  0.4948  0.1777
   31CHL1    H6 3410   1.166   0.515   5.633  0.2674  1.6724  0.0210
   31CHL1    C7 3411   1.177   0.569   5.417 -0.3258  0.1577 -0.7957
   31CHL1   H7A 3412   1.265   0.630   5.448 -0.3908  0.1665 -0.6272
   31CHL1   H7B 3413   1.229   0.478   5.380  0.7857  0.5369 -0.2110
   31CHL1    C8 3414   1.092   0.635   5.315  0.0577 -0.3907  0.4672
   31CHL1    H8 3415   1.068   0.739   5.344  1.8025  1.7188 -4.5080
   31CHL1   C14 3416   1.170   0.643   5.185 -0.2607 -0.1784 -0.4311
   31CHL1   H14 3417   1.199   0.537   5.173  1.6239  0.2817 -0.3435
   31CHL1   C15 3418   1.305   0.722   5.186  1.2054  0.4749  1.1587
   31CHL1  H15A 3419   1.288   0.827   5.215  1.2247  0.2909  1.8505
   31CHL1  H15B 3420   1.380   0.677   5.254  1.9321  0.6213  0.4727
   31CHL1   C16 3421   1.343   0.712   5.037  1.1798 -0.7697  0.1870
   31CHL1  H16A 3422   1.382   0.813   5.013  2.1834 -1.5776 -1.7753
   31CHL1  H16B 3423   1.421   0.635   5.020  2.8287  1.0498 -0.9212
   31CHL1   C17 3424   1.208   0.674   4.960  0.5138  0.0093 -0.3535
   31CHL1   H17 3425   1.219   0.564   4.949 -2.6569 -0.6676  1.8371
   31CHL1   C13 3426   1.088   0.682   5.060  0.1541  0.2472  0.5499
   31CHL1   C18 3427   1.032   0.820   5.075 -0.2646  0.2069 -0.2123
   31CHL1  H18A 3428   1.112   0.897   5.068  1.8693 -1.9193 -0.3519
   31CHL1  H18B 3429   0.969   0.834   4.984 -0.2380  2.1027  0.0118
   31CHL1  H18C 3430   0.971   0.830   5.167  1.2632  2.2814  0.6449
   31CHL1   C12 3431   0.970   0.585   5.045  0.0348 -0.0138  0.5711
   31CHL1  H12A 3432   0.914   0.613   4.954  3.1055  1.7227 -0.9599
   31CHL1  H12B 3433   1.010   0.482   5.031 -0.3004 -0.1539  0.6507
   31CHL1   C11 3434   0.882   0.576   5.170 -0.0812  0.0903 -0.6243
   31CHL1  H11A 3435   0.837   0.677   5.175  0.8166  0.5056 -0.6917
   31CHL1  H11B 3436   0.812   0.491   5.155 -1.5503  1.1350  0.1647
   31CHL1    C9 3437   0.969   0.547   5.299 -1.1832  0.3805 -0.2823
   31CHL1    H9 3438   1.009   0.445   5.279 -2.6740 -0.1676 -0.5907
   31CHL1   C10 3439   0.888   0.551   5.427 -0.4372 -0.9618  1.1218
   31CHL1   C19 3440   0.812   0.689   5.443 -0.3488  0.4753 -0.4386
   31CHL1  H19A 3441   0.731   0.708   5.370 -1.9000  0.5492  1.2449
   31CHL1  H19B 3442   0.756   0.685   5.538  2.7715  2.7030  1.7110
   31CHL1  H19C 3443   0.882   0.773   5.462  1.7076 -1.2787  0.1024
   31CHL1    C1 3444   0.785   0.432   5.423  0.0307  0.0109  0.3880
   31CHL1   H1A 3445   0.702   0.459   5.355  1.2887  2.7846 -0.2060
   31CHL1   H1B 3446   0.836   0.338   5.394 -1.6610 -0.2781 -1.8569
   31CHL1    C2 3447   0.720   0.403   5.554  0.6863 -1.1955  0.7212
   31CHL1   H2A 3448   0.645   0.323   5.531 -1.6754  1.3205 -0.9011
   31CHL1   H2B 3449   0.650   0.482   5.589 -0.5809 -1.9880  0.0872
   31CHL1   C20 3450   1.207   0.751   4.826 -0.3395 -0.3333 -0.0929
   31CHL1   H20 3451   1.205   0.862   4.837 -0.3862  0.0129 -2.9086
   31CHL1   C21 3452   1.086   0.705   4.738  0.4030 -0.4697 -0.5863
   31CHL1  H21A 3453   1.084   0.594   4.736 -1.0645 -0.4455 -1.8634
   31CHL1  H21B 3454   1.108   0.733   4.633  0.9412 -1.8942 -0.8655
   31CHL1  H21C 3455   0.986   0.746   4.765  0.6014  0.4443 -1.1950
   31CHL1   C22 3456   1.336   0.712   4.740 -0.3232 -0.6323 -0.3463
   31CHL1  H22A 3457   1.427   0.688   4.799  1.0624  1.9519 -1.2381
   31CHL1  H22B 3458   1.325   0.624   4.672  1.8983  0.8443 -2.8563
   31CHL1   C23 3459   1.382   0.833   4.649  0.4655 -0.2284 -0.8960
   31CHL1  H23A 3460   1.289   0.880   4.610  0.6556 -1.8237 -3.5056
   31CHL1  H23B 3461   1.417   0.911   4.719 -1.8562 -0.8032  1.0271
   31CHL1   C24 3462   1.472   0.790   4.538 -0.7265  0.0880  0.1854
   31CHL1  H24A 3463   1.545   0.719   4.582  1.1784  1.0005 -1.3538
   31CHL1  H24B 3464   1.413   0.732   4.464 -0.1870  0.0148 -0.1935
   31CHL1   C25 3465   1.542   0.906   4.461  0.6989  0.1417  0.2642
   31CHL1   H25 3466   1.613   0.941   4.539 -1.8980  1.2129  2.2776
   31CHL1   C26 3467   1.617   0.838   4.348  0.5246 -0.6600 -0.7576
   31CHL1  H26A 3468   1.693   0.904   4.301 -0.5829  1.1378 -0.1269
   31CHL1  H26B 3469   1.672   0.751   4.391  0.3096 -0.9103 -0.9807
   31CHL1  H26C 3470   1.555   0.811   4.259 -3.6069  2.4456  0.8555
   31CHL1   C27 3471   1.445   1.014   4.418  1.0184 -0.1461  0.2121
   31CHL1  H27A 3472   1.501   1.103   4.382  2.2953 -1.2427 -0.6214
   31CHL1  H27B 3473   1.392   0.993   4.322  1.7306  1.5820 -0.5957
   31CHL1  H27C 3474   1.373   1.050   4.495 -0.0366 -1.3811 -0.1593
   32CHL1    C3 3475   2.993   3.261   6.021  0.2843  0.7170  0.8007
   32CHL1    H3 3476   2.944   3.346   5.970  0.6884  0.3588 -0.2116
   32CHL1    O3 3477   2.942   3.248   6.155  0.4357  0.0254 -0.2867
   32CHL1   H3' 3478   2.954   3.157   6.185  3.6314  0.2581 -0.5213
   32CHL1    C4 3479   2.966   3.127   5.948 -0.0730  0.2164  0.5153
   32CHL1   H4A 3480   3.005   3.040   6.005  2.8097  1.1585  0.1178
   32CHL1   H4B 3481   2.857   3.107   5.949 -0.2385  0.8267 -1.3884
   32CHL1    C5 3482   3.020   3.133   5.803  0.5166  0.1607 -0.7909
   32CHL1    C6 3483   2.935   3.126   5.697 -0.2322 -0.0966 -0.3431
   32CHL1    H6 3484   2.828   3.115   5.719 -0.4417 -0.7041 -1.5622
   32CHL1    C7 3485   2.975   3.115   5.552 -0.2815  0.1576 -1.1045
   32CHL1   H7A 3486   2.939   3.018   5.511 -0.1697  0.5185 -2.0926
   32CHL1   H7B 3487   2.923   3.194   5.494 -2.1867  0.6785  1.1614
   32CHL1    C8 3488   3.128   3.092   5.544 -0.2921 -0.3399  0.0421
   32CHL1    H8 3489   3.140   2.989   5.583  2.0533 -0.1877 -0.1643
   32CHL1   C14 3490   3.179   3.109   5.408 -0.0723 -0.0987  0.9366
   32CHL1   H14 3491   3.165   3.219   5.397 -0.0175 -0.2381 -0.8503
   32CHL1   C15 3492   3.092   3.054   5.292 -0.3570  0.1220  0.1993
   32CHL1  H15A 3493   3.041   2.957   5.311  0.3599 -0.9311 -2.7088
   32CHL1  H15B 3494   3.012   3.121   5.254 -1.2932 -0.6740  0.7245
   32CHL1   C16 3495   3.193   3.037   5.173  0.4575 -0.3026 -0.1324
   32CHL1  H16A 3496   3.220   2.930   5.164 -0.4658 -0.4883 -0.8099
   32CHL1  H16B 3497   3.151   3.070   5.076  0.1654  0.1842  0.1552
   32CHL1   C17 3498   3.320   3.109   5.224  0.1251 -0.2990 -0.0472
   32CHL1   H17 3499   3.291   3.216   5.214 -1.0225 -0.5909  0.0395
   32CHL1   C13 3500   3.320   3.081   5.377 -0.2798 -0.1372  0.0808
   32CHL1   C18 3501   3.357   2.934   5.404  0.0555 -0.5225 -0.0465
   32CHL1  H18A 3502   3.299   2.860   5.344  1.2074 -1.0257 -0.5734
   32CHL1  H18B 3503   3.462   2.911   5.374  0.2984 -2.5251  2.0786
   32CHL1  H18C 3504   3.347   2.903   5.510  0.6422  0.5983  0.3457
   32CHL1   C12 3505   3.399   3.184   5.461  0.4873 -0.3405  0.3055
   32CHL1  H12A 3506   3.509   3.169   5.456  0.8736  2.2400 -2.4895
   32CHL1  H12B 3507   3.378   3.282   5.413  0.4706 -0.2416  0.5144
   32CHL1   C11 3508   3.365   3.171   5.611 -0.1369 -0.7149 -0.7704
   32CHL1  H11A 3509   3.402   3.068   5.634  1.0386 -0.1902 -0.2130
   32CHL1  H11B 3510   3.422   3.250   5.664 -0.6750  0.0676 -1.3408
   32CHL1    C9 3511   3.210   3.183   5.643 -1.0513 -0.2823 -0.4773
   32CHL1    H9 3512   3.185   3.286   5.610 -0.1678 -0.0688 -0.5092
   32CHL1   C10 3513   3.172   3.156   5.794  0.1613 -0.3192 -0.1574
   32CHL1   C19 3514   3.260   3.043   5.855  0.2498 -0.3022  0.3551
   32CHL1  H19A 3515   3.219   3.029   5.958  0.3122 -0.1346  0.4038
   32CHL1  H19B 3516   3.243   2.952   5.794  0.6383  1.2855 -2.2466
   32CHL1  H19C 3517   3.367   3.071   5.844  0.4147 -1.4307 -1.2054
   32CHL1    C1 3518   3.201   3.288   5.873 -0.5688 -0.4251  0.7967
   32CHL1   H1A 3519   3.312   3.293   5.878 -0.4982  1.0237 -0.9377
   32CHL1   H1B 3520   3.174   3.377   5.811  0.1736 -0.2328  0.7400
   32CHL1    C2 3521   3.146   3.299   6.018 -0.0014 -0.3772  0.6634
   32CHL1   H2A 3522   3.162   3.403   6.054  0.2580 -0.1859  0.0245
   32CHL1   H2B 3523   3.195   3.232   6.091 -0.5950 -0.0056  1.4064
   32CHL1   C20 3524   3.452   3.103   5.143  0.5117 -0.2533  0.6190
   32CHL1   H20 3525   3.539   3.092   5.211  0.4278  0.0284  0.7747
   32CHL1   C21 3526   3.470   3.239   5.062 -0.2818 -0.0008 -0.5712
   32CHL1  H21A 3527   3.473   3.330   5.126 -1.0964  0.9115 -1.7808
   32CHL1  H21B 3528   3.381   3.241   4.995 -1.2114 -0.9631  0.5810
   32CHL1  H21C 3529   3.562   3.229   5.001 -0.9822  0.6420 -1.7783
   32CHL1   C22 3530   3.462   2.981   5.048 -0.2753 -0.1007  0.2793
   32CHL1  H22A 3531   3.466   2.893   5.116 -0.0159 -2.1429 -2.2316
   32CHL1  H22B 3532   3.366   2.971   4.992 -1.3979  1.3516  1.8237
   32CHL1   C23 3533   3.581   2.967   4.956  0.1007 -1.3874 -0.3210
   32CHL1  H23A 3534   3.578   3.052   4.884  1.1492 -1.4037 -0.4013
   32CHL1  H23B 3535   3.676   2.960   5.013  0.6642 -3.0096 -1.4008
   32CHL1   C24 3536   3.580   2.840   4.858  0.3635  0.3599 -0.4414
   32CHL1  H24A 3537   3.599   2.753   4.924  2.0916 -0.6929 -2.2402
   32CHL1  H24B 3538   3.477   2.833   4.816 -0.1476  1.8332  0.4657
   32CHL1   C25 3539   3.688   2.834   4.755 -0.0744 -0.1643  0.7320
   32CHL1   H25 3540   3.782   2.863   4.807 -1.1941  1.0056  2.1954
   32CHL1   C26 3541   3.716   2.697   4.688  0.8898  0.6131  0.2234
   32CHL1  H26A 3542   3.626   2.656   4.638  2.0738 -0.4942 -1.1028
   32CHL1  H26B 3543   3.783   2.710   4.600 -0.1923 -0.0115 -0.7161
   32CHL1  H26C 3544   3.750   2.621   4.761 -3.0938 -1.2944  0.3549
   32CHL1   C27 3545   3.673   2.932   4.638  0.0375  0.0971  0.7848
   32CHL1  H27A 3546   3.582   2.904   4.580 -0.2393 -1.9229  2.0865
   32CHL1  H27B 3547   3.660   3.038   4.670 -1.1705 -0.4408  2.2295
   32CHL1  H27C 3548   3.764   2.927   4.575  2.0725  0.3348  3.5188
   33CHL1    C3 3549   1.403   2.226   5.651  0.1813  0.3321 -1.4779
   33CHL1    H3 3550   1.508   2.207   5.618  0.8608 -3.4088  2.0267
   33CHL1    O3 3551   1.398   2.241   5.797 -0.3043 -0.2145 -0.1582
   33CHL1   H3' 3552   1.309   2.255   5.830  0.6169  0.6448  2.1292
   33CHL1    C4 3553   1.359   2.356   5.588  0.5939  0.3595 -0.3141
   33CHL1   H4A 3554   1.256   2.379   5.623 -0.4168  0.3520 -3.0317
   33CHL1   H4B 3555   1.424   2.437   5.628 -0.5192  0.2293  1.9139
   33CHL1    C5 3556   1.346   2.356   5.438  0.7166 -0.1156  0.8482
   33CHL1    C6 3557   1.403   2.454   5.365  0.1229  0.0778 -0.0275
   33CHL1    H6 3558   1.452   2.536   5.420  1.2876  0.1744 -1.1559
   33CHL1    C7 3559   1.389   2.473   5.214  0.0923 -0.4528 -0.1660
   33CHL1   H7A 3560   1.353   2.575   5.188  0.9158 -0.2716 -0.6480
   33CHL1   H7B 3561   1.486   2.464   5.160 -0.1733 -2.3070 -0.3773
   33CHL1    C8 3562   1.285   2.374   5.163 -0.5956 -0.1808  0.4561
   33CHL1    H8 3563   1.186   2.424   5.173 -0.4021  0.2060  0.4727
   33CHL1   C14 3564   1.306   2.360   5.012 -0.1550  0.0138  0.0740
   33CHL1   H14 3565   1.412   2.328   5.000 -0.4144 -0.9655  0.3546
   33CHL1   C15 3566   1.301   2.492   4.928 -0.2871 -0.6531 -0.1713
   33CHL1  H15A 3567   1.215   2.555   4.959 -0.1098 -0.5694  0.1602
   33CHL1  H15B 3568   1.393   2.548   4.958  0.8749 -2.7789  0.4372
   33CHL1   C16 3569   1.308   2.451   4.789  0.1956  0.6388  0.3038
   33CHL1  H16A 3570   1.231   2.502   4.727 -0.6166 -0.0001  0.7663
   33CHL1  H16B 3571   1.403   2.482   4.740  1.5835 -0.5814  2.1145
   33CHL1   C17 3572   1.283   2.288   4.790 -0.2103 -0.0416 -0.0725
   33CHL1   H17 3573   1.382   2.239   4.791  0.3870  1.1484  0.3598
   33CHL1   C13 3574   1.227   2.261   4.934 -0.6029 -0.2461 -0.6443
   33CHL1   C18 3575   1.074   2.294   4.931  0.1078 -0.4341 -0.2919
   33CHL1  H18A 3576   1.025   2.234   4.852 -0.7360 -0.9736  0.6235
   33CHL1  H18B 3577   1.019   2.268   5.023  1.5252 -2.2293  0.1178
   33CHL1  H18C 3578   1.065   2.404   4.917 -0.2078 -0.4777 -0.4284
   33CHL1   C12 3579   1.244   2.128   5.004 -0.3988  0.6333  0.4616
   33CHL1  H12A 3580   1.169   2.056   4.964  0.7274 -0.2063 -0.1819
   33CHL1  H12B 3581   1.343   2.085   4.977 -1.7565 -2.3611 -0.1910
   33CHL1   C11 3582   1.219   2.123   5.154  0.1499 -0.1599 -0.2196
   33CHL1  H11A 3583   1.111   2.145   5.171  0.2083  1.3004 -1.5033
   33CHL1  H11B 3584   1.245   2.020   5.187 -2.0279 -0.4074  0.9411
   33CHL1    C9 3585   1.299   2.234   5.227 -0.7002 -0.7298 -0.3148
   33CHL1    H9 3586   1.406   2.209   5.212  0.0845  2.0917  0.0098
   33CHL1   C10 3587   1.277   2.236   5.381  0.0684 -0.4624  0.1076
   33CHL1   C19 3588   1.119   2.256   5.405 -0.2023  0.0114 -0.3664
   33CHL1  H19A 3589   1.074   2.344   5.354 -0.2819 -0.9775 -2.0692
   33CHL1  H19B 3590   1.072   2.164   5.362 -0.6837 -0.3533  0.9047
   33CHL1  H19C 3591   1.095   2.260   5.513 -0.0213 -2.1897 -0.1984
   33CHL1    C1 3592   1.322   2.106   5.456 -0.5815  0.3350  1.4578
   33CHL1   H1A 3593   1.256   2.023   5.421 -1.0821  1.1576  0.3871
   33CHL1   H1B 3594   1.425   2.082   5.422 -1.2112  0.0235 -0.3215
   33CHL1    C2 3595   1.315   2.112   5.605  0.6790  0.8300 -0.0710
   33CHL1   H2A 3596   1.357   2.023   5.656  1.9540  2.0730  1.1365
   33CHL1   H2B 3597   1.209   2.115   5.638  0.6193 -2.3945  0.4001
   33CHL1   C20 3598   1.211   2.232   4.662 -0.1485 -0.3207 -0.3289
   33CHL1   H20 3599   1.110   2.279   4.658 -0.4973 -0.8376  1.5627
   33CHL1   C21 3600   1.184   2.084   4.679  0.6193  0.0127  0.3970
   33CHL1  H21A 3601   1.146   2.050   4.580 -2.4789  0.7754  1.2152
   33CHL1  H21B 3602   1.091   2.072   4.739 -0.0382  3.8712  0.4293
   33CHL1  H21C 3603   1.263   2.022   4.726  0.1456  0.4425  1.8313
   33CHL1   C22 3604   1.287   2.256   4.531 -0.3452 -0.4732  0.7701
   33CHL1  H22A 3605   1.224   2.221   4.446  1.2891 -0.4295 -0.5182
   33CHL1  H22B 3606   1.313   2.361   4.509  2.9021 -1.6683 -2.0388
   33CHL1   C23 3607   1.417   2.171   4.522  0.2106  0.7154 -0.3746
   33CHL1  H23A 3608   1.460   2.189   4.622 -0.6026 -2.1953  0.5898
   33CHL1  H23B 3609   1.402   2.061   4.524  0.2449  0.7012 -0.7341
   33CHL1   C24 3610   1.516   2.199   4.407  0.6971  0.0740  0.6321
   33CHL1  H24A 3611   1.589   2.116   4.393 -0.2032 -0.2720 -2.6808
   33CHL1  H24B 3612   1.460   2.201   4.311  0.5080  1.6118  0.7440
   33CHL1   C25 3613   1.578   2.346   4.411  0.4626  0.5059  0.1977
   33CHL1   H25 3614   1.509   2.433   4.404  0.8919  0.7614 -1.0196
   33CHL1   C26 3615   1.660   2.349   4.532 -0.5573 -0.1725 -0.2354
   33CHL1  H26A 3616   1.719   2.256   4.545  0.2622  0.5164  1.3413
   33CHL1  H26B 3617   1.729   2.436   4.536 -0.4374 -0.2626 -0.3377
   33CHL1  H26C 3618   1.585   2.371   4.611 -0.5257 -0.0816 -0.2299
   33CHL1   C27 3619   1.664   2.358   4.289  0.2657 -0.6851 -0.2833
   33CHL1  H27A 3620   1.730   2.446   4.278  1.8585 -1.9617 -1.2913
   33CHL1  H27B 3621   1.719   2.262   4.276  0.5744 -0.2475 -2.6575
   33CHL1  H27C 3622   1.593   2.361   4.203  0.2815 -1.6633 -0.3379
   34CHL1    C3 3623   2.260   4.984   5.918  0.5577 -0.0528  0.2386
   34CHL1    H3 3624   2.191   4.898   5.900 -0.3736  0.9332 -1.0573
   34CHL1    O3 3625   2.249   5.026   6.053 -0.3497 -0.4959  0.1602
   34CHL1   H3' 3626   2.317   5.094   6.057  1.2547 -1.8402 -2.2433
   34CHL1    C4 3627   2.401   4.940   5.884  0.0524 -0.6069 -0.4986
   34CHL1   H4A 3628   2.468   5.014   5.933 -2.4152  0.3608  1.6498
   34CHL1   H4B 3629   2.418   4.851   5.949 -1.6313  1.4614  3.1153
   34CHL1    C5 3630   2.443   4.921   5.743 -0.3514  0.1058 -0.0614
   34CHL1    C6 3631   2.494   4.802   5.705  0.8608 -0.4167  0.8068
   34CHL1    H6 3632   2.513   4.724   5.779  0.4996 -1.0947  0.1964
   34CHL1    C7 3633   2.540   4.781   5.561 -0.1319 -0.5901  0.2028
   34CHL1   H7A 3634   2.640   4.732   5.552  0.1086  0.2969 -4.3699
   34CHL1   H7B 3635   2.476   4.714   5.499 -1.2896 -0.3017  1.0498
   34CHL1    C8 3636   2.543   4.919   5.482  0.7059  0.5108  0.3176
   34CHL1    H8 3637   2.636   4.977   5.503 -0.3600  2.4894 -0.2377
   34CHL1   C14 3638   2.564   4.889   5.334 -0.5456 -0.0184  0.4606
   34CHL1   H14 3639   2.476   4.829   5.302 -0.6435 -1.6888  3.5588
   34CHL1   C15 3640   2.687   4.804   5.292  0.7385 -0.3157 -0.0145
   34CHL1  H15A 3641   2.765   4.852   5.353 -0.4733  1.3946  0.2657
   34CHL1  H15B 3642   2.675   4.697   5.322  0.3080 -0.2597  0.0249
   34CHL1   C16 3643   2.688   4.827   5.135  0.5733 -0.8410  0.1269
   34CHL1  H16A 3644   2.792   4.855   5.107 -0.0869  0.9455 -0.6620
   34CHL1  H16B 3645   2.663   4.733   5.082 -0.3849 -0.7259  0.3569
   34CHL1   C17 3646   2.586   4.945   5.109  0.4842  0.4139 -0.2172
   34CHL1   H17 3647   2.497   4.889   5.072  0.1340 -0.3065  1.6300
   34CHL1   C13 3648   2.563   5.011   5.242 -0.8378 -0.3861  0.1061
   34CHL1   C18 3649   2.683   5.108   5.278 -0.2850  0.6315  0.2413
   34CHL1  H18A 3650   2.667   5.170   5.369  1.9570  1.6847 -0.0074
   34CHL1  H18B 3651   2.777   5.048   5.286 -1.1129 -0.8663 -0.8248
   34CHL1  H18C 3652   2.706   5.187   5.203  1.5172 -1.4115 -1.5211
   34CHL1   C12 3653   2.433   5.086   5.264 -0.4961  1.1172  0.0961
   34CHL1  H12A 3654   2.442   5.185   5.216  2.6649  1.8691  1.9111
   34CHL1  H12B 3655   2.340   5.033   5.235  0.2391  0.5432 -1.3061
   34CHL1   C11 3656   2.406   5.125   5.412  0.1693  0.3724 -0.2390
   34CHL1  H11A 3657   2.481   5.202   5.441  1.8289 -0.7653 -1.3652
   34CHL1  H11B 3658   2.314   5.187   5.427 -0.2508 -0.2473 -0.2339
   34CHL1    C9 3659   2.417   5.002   5.504 -0.2274 -0.2964 -0.1599
   34CHL1    H9 3660   2.340   4.929   5.470 -1.0297  0.0530  0.8584
   34CHL1   C10 3661   2.411   5.044   5.650  0.2559 -0.3814 -0.2037
   34CHL1   C19 3662   2.511   5.157   5.674 -0.3170 -0.4212  0.0283
   34CHL1  H19A 3663   2.475   5.253   5.631  0.4102  0.6333  1.6450
   34CHL1  H19B 3664   2.526   5.180   5.782 -0.4352  0.7765 -0.1905
   34CHL1  H19C 3665   2.610   5.148   5.624 -0.9075  0.0478 -1.2529
   34CHL1    C1 3666   2.267   5.089   5.683  0.1493 -0.1442 -0.3465
   34CHL1   H1A 3667   2.252   5.182   5.623  0.5499  0.2878  0.2018
   34CHL1   H1B 3668   2.206   5.002   5.651  1.5166 -0.6876 -1.6046
   34CHL1    C2 3669   2.235   5.103   5.835 -0.3559 -0.0169  0.1469
   34CHL1   H2A 3670   2.130   5.137   5.849 -0.4814 -0.6130  0.7101
   34CHL1   H2B 3671   2.289   5.195   5.864 -2.2188  0.6826  1.6565
   34CHL1   C20 3672   2.637   5.034   4.990  0.6594  0.5765 -0.6938
   34CHL1   H20 3673   2.726   5.080   5.039  0.1801 -1.6289  2.5422
   34CHL1   C21 3674   2.544   5.155   4.967  0.6530 -0.7436 -0.3849
   34CHL1  H21A 3675   2.443   5.119   4.940 -0.1621  1.9254 -1.1777
   34CHL1  H21B 3676   2.586   5.221   4.888  0.5951 -0.3003 -0.0496
   34CHL1  H21C 3677   2.540   5.227   5.051 -1.7050 -1.7320  0.4247
   34CHL1   C22 3678   2.675   4.957   4.868  0.4566  0.6211  0.2236
   34CHL1  H22A 3679   2.734   4.864   4.881 -0.2539 -0.0163 -0.9312
   34CHL1  H22B 3680   2.579   4.923   4.824 -1.1272  2.0855  2.3396
   34CHL1   C23 3681   2.749   5.040   4.763 -0.2041  0.1914  0.0541
   34CHL1  H23A 3682   2.704   5.139   4.744 -0.5951  0.4638  2.2313
   34CHL1  H23B 3683   2.845   5.066   4.812 -0.5057 -0.5445  1.0754
   34CHL1   C24 3684   2.776   4.966   4.632  0.4010 -0.4231  0.3833
   34CHL1  H24A 3685   2.852   4.886   4.643  3.3871  1.7351 -2.7159
   34CHL1  H24B 3686   2.683   4.911   4.602 -0.3830 -0.0794  2.0439
   34CHL1   C25 3687   2.840   5.046   4.520  0.4169 -1.1593 -0.7214
   34CHL1   H25 3688   2.783   5.139   4.498 -2.2754 -2.7056 -0.7501
   34CHL1   C26 3689   2.984   5.068   4.559  0.2165  0.0308 -0.0096
   34CHL1  H26A 3690   3.029   4.972   4.593 -0.8322 -0.2104  0.7801
   34CHL1  H26B 3691   3.041   5.109   4.473 -1.7571  2.4886 -0.2851
   34CHL1  H26C 3692   2.990   5.134   4.648  2.8172 -2.1531  1.5863
   34CHL1   C27 3693   2.847   4.967   4.385  0.4372  0.1023  0.5314
   34CHL1  H27A 3694   2.918   4.882   4.386 -0.3132 -0.6603 -2.3551
   34CHL1  H27B 3695   2.750   4.925   4.353  1.9760 -2.8729 -0.6072
   34CHL1  H27C 3696   2.877   5.041   4.307  0.1109  1.6911  1.8388
   35CHL1    C3 3697   5.163   4.695   6.260  0.6011 -0.4634  0.6861
   35CHL1    H3 3698   5.128   4.590   6.257  3.7064 -1.6074  1.1206
   35CHL1    O3 3699   5.143   4.757   6.386  0.4984  0.3091 -0.1349
   35CHL1   H3' 3700   5.161   4.851   6.377  1.1513  0.0746 -1.5264
   35CHL1    C4 3701   5.315   4.698   6.234  0.2966 -0.1748  0.4038
   35CHL1   H4A 3702   5.355   4.801   6.218  0.6669 -0.3180  0.3875
   35CHL1   H4B 3703   5.360   4.646   6.322  3.2263  1.6378  0.1451
   35CHL1    C5 3704   5.353   4.633   6.104  0.4517  0.3915 -0.0477
   35CHL1    C6 3705   5.444   4.534   6.087 -0.3850 -0.3271  0.2232
   35CHL1    H6 3706   5.503   4.500   6.174 -1.1431 -2.0212  0.1125
   35CHL1    C7 3707   5.491   4.484   5.957 -0.6551  0.5822  0.6049
   35CHL1   H7A 3708   5.602   4.496   5.965  0.0394 -4.0207  0.3573
   35CHL1   H7B 3709   5.471   4.375   5.964 -0.4566  0.5916  1.4598
   35CHL1    C8 3710   5.440   4.550   5.831 -0.2220  0.0891 -0.5725
   35CHL1    H8 3711   5.507   4.637   5.810  1.0902 -0.8188 -0.2571
   35CHL1   C14 3712   5.446   4.453   5.712  0.1194  0.0854 -0.1186
   35CHL1   H14 3713   5.372   4.372   5.729 -0.7185  0.9143  0.2941
   35CHL1   C15 3714   5.579   4.381   5.678 -0.1010  0.1971 -0.1063
   35CHL1  H15A 3715   5.660   4.453   5.703  0.0781  0.4020 -1.2082
   35CHL1  H15B 3716   5.606   4.288   5.732 -4.5733 -1.7048 -0.6907
   35CHL1   C16 3717   5.564   4.359   5.524 -0.3361  0.6642 -0.9349
   35CHL1  H16A 3718   5.659   4.390   5.476  0.0758  0.3389 -0.3539
   35CHL1  H16B 3719   5.558   4.249   5.510 -2.1378  0.7264 -0.8597
   35CHL1   C17 3720   5.429   4.415   5.488  0.6624 -0.5101  0.3601
   35CHL1   H17 3721   5.360   4.336   5.525  0.9662 -0.9305  0.0357
   35CHL1   C13 3722   5.397   4.524   5.581  0.5950  0.9084  0.3005
   35CHL1   C18 3723   5.486   4.644   5.542 -0.0973  0.1739 -0.1247
   35CHL1  H18A 3724   5.592   4.625   5.571 -0.6643 -1.5729  0.9293
   35CHL1  H18B 3725   5.484   4.659   5.432 -1.2221 -0.9909 -0.2822
   35CHL1  H18C 3726   5.459   4.735   5.600 -0.4824  2.0234 -2.9888
   35CHL1   C12 3727   5.251   4.570   5.601  0.7351 -0.3094  0.1421
   35CHL1  H12A 3728   5.202   4.619   5.514  0.2265 -1.8919 -0.4897
   35CHL1  H12B 3729   5.178   4.488   5.612  0.3632 -0.0803 -0.5558
   35CHL1   C11 3730   5.248   4.674   5.718 -0.0640 -0.1340  0.0059
   35CHL1  H11A 3731   5.304   4.768   5.698  1.1646  0.5609  5.1705
   35CHL1  H11B 3732   5.141   4.701   5.737  0.3386  1.6773 -0.0721
   35CHL1    C9 3733   5.293   4.606   5.851 -0.7712  0.1504 -0.0113
   35CHL1    H9 3734   5.216   4.525   5.849  0.0287 -0.6463  0.4787
   35CHL1   C10 3735   5.266   4.688   5.986 -0.7640 -0.1998  0.3609
   35CHL1   C19 3736   5.317   4.824   5.954 -0.8886 -0.6315 -0.0060
   35CHL1  H19A 3737   5.297   4.898   6.034  4.6838  2.6936 -1.1617
   35CHL1  H19B 3738   5.428   4.820   5.950 -0.5254  3.0347  1.7651
   35CHL1  H19C 3739   5.273   4.872   5.864  0.1968  0.2230 -0.1060
   35CHL1    C1 3740   5.115   4.694   6.017 -0.3435  0.0433 -0.5565
   35CHL1   H1A 3741   5.059   4.738   5.932 -0.4649  0.1676 -0.4125
   35CHL1   H1B 3742   5.092   4.587   6.034  3.1071 -0.7025  0.2149
   35CHL1    C2 3743   5.084   4.767   6.146  0.3841  1.0176  0.3435
   35CHL1   H2A 3744   4.973   4.764   6.156  0.2817 -1.3182 -0.8020
   35CHL1   H2B 3745   5.119   4.872   6.147 -0.3487  1.2744 -0.0081
   35CHL1   C20 3746   5.414   4.426   5.337  0.4388 -0.0586  0.3156
   35CHL1   H20 3747   5.434   4.529   5.302 -0.1914 -0.1259 -0.2573
   35CHL1   C21 3748   5.267   4.402   5.294 -0.4133  0.0728 -0.4322
   35CHL1  H21A 3749   5.205   4.471   5.356  0.3542  1.8012 -1.5145
   35CHL1  H21B 3750   5.244   4.297   5.321  0.4946 -0.3078 -1.0977
   35CHL1  H21C 3751   5.255   4.418   5.185  1.7821  0.4334 -0.6610
   35CHL1   C22 3752   5.500   4.327   5.248  0.8478  0.5086  0.1084
   35CHL1  H22A 3753   5.610   4.338   5.258  0.8281  1.8373 -0.8572
   35CHL1  H22B 3754   5.468   4.227   5.285  2.2416  0.4802  1.3552
   35CHL1   C23 3755   5.479   4.317   5.095 -0.2170 -0.4036  0.6812
   35CHL1  H23A 3756   5.394   4.247   5.091 -1.2258  0.7008  1.8861
   35CHL1  H23B 3757   5.439   4.410   5.048  0.8760  0.5782  1.6149
   35CHL1   C24 3758   5.604   4.259   5.026  0.2100  0.3666  0.7512
   35CHL1  H24A 3759   5.688   4.329   5.045  0.3400  0.0798  1.2376
   35CHL1  H24B 3760   5.625   4.165   5.081  1.2420  0.6035  0.7819
   35CHL1   C25 3761   5.586   4.232   4.870 -0.0945 -0.0636 -0.1139
   35CHL1   H25 3762   5.537   4.325   4.833 -3.0119 -0.7553  1.6813
   35CHL1   C26 3763   5.721   4.222   4.806 -0.2109 -0.0281  0.0855
   35CHL1  H26A 3764   5.784   4.311   4.828 -0.1905 -0.1847  0.6930
   35CHL1  H26B 3765   5.763   4.126   4.842  1.3028  0.4204 -0.4241
   35CHL1  H26C 3766   5.706   4.217   4.696  0.4199  1.7617 -0.1072
   35CHL1   C27 3767   5.499   4.110   4.832  0.5129 -0.5021  0.1377
   35CHL1  H27A 3768   5.398   4.123   4.877  0.9288 -1.1575  1.3293
   35CHL1  H27B 3769   5.496   4.104   4.721 -0.0937  0.4321  0.0926
   35CHL1  H27C 3770   5.552   4.017   4.862  1.9900 -0.6014 -2.5056
   36CHL1    C3 3771   2.153   3.820   6.039  0.0812 -0.1239 -0.5482
   36CHL1    H3 3772   2.225   3.741   6.069 -1.4787 -1.5757 -0.4769
   36CHL1    O3 3773   2.078   3.868   6.151  0.7383 -0.7306  0.5097
   36CHL1   H3' 3774   2.113   3.952   6.180  1.3575 -0.3960 -1.0910
   36CHL1    C4 3775   2.218   3.938   5.973 -0.1249 -0.6306  0.1156
   36CHL1   H4A 3776   2.141   4.013   5.947  0.7835  0.4257  0.3699
   36CHL1   H4B 3777   2.293   3.985   6.040  1.0117 -1.6061 -0.4332
   36CHL1    C5 3778   2.291   3.905   5.844 -0.2745 -0.6880 -0.5250
   36CHL1    C6 3779   2.419   3.937   5.823 -0.2064  0.5061  0.3043
   36CHL1    H6 3780   2.475   3.986   5.904  1.3641 -0.7882  0.0687
   36CHL1    C7 3781   2.505   3.890   5.711 -0.6725  0.0587 -0.5819
   36CHL1   H7A 3782   2.575   3.971   5.682 -0.8112 -0.2984 -1.9647
   36CHL1   H7B 3783   2.571   3.805   5.738  0.0730 -0.0033 -2.4637
   36CHL1    C8 3784   2.415   3.845   5.589  0.0080  0.3890 -0.4763
   36CHL1    H8 3785   2.363   3.933   5.544 -1.7219  0.4771  1.5138
   36CHL1   C14 3786   2.497   3.770   5.485  0.3578 -0.0991 -0.5236
   36CHL1   H14 3787   2.547   3.688   5.541  1.9550  1.4135  0.4081
   36CHL1   C15 3788   2.607   3.857   5.419 -0.9054  0.1740 -0.4437
   36CHL1  H15A 3789   2.571   3.959   5.396 -0.6044  0.3968  0.0529
   36CHL1  H15B 3790   2.692   3.867   5.490 -0.2777  3.1362 -1.4822
   36CHL1   C16 3791   2.648   3.771   5.295  1.0576  0.3043 -0.5692
   36CHL1  H16A 3792   2.618   3.833   5.208  1.2008 -0.6230 -1.2902
   36CHL1  H16B 3793   2.753   3.736   5.288  0.5369 -1.2613 -0.8108
   36CHL1   C17 3794   2.540   3.650   5.293  0.1805 -0.5747  0.3173
   36CHL1   H17 3795   2.586   3.562   5.343 -0.4028 -1.3645 -0.4951
   36CHL1   C13 3796   2.418   3.704   5.373  0.0015  0.7132 -0.0465
   36CHL1   C18 3797   2.337   3.808   5.294 -0.6022  0.1819 -0.9409
   36CHL1  H18A 3798   2.410   3.881   5.253 -2.7594  1.4240 -2.7878
   36CHL1  H18B 3799   2.291   3.771   5.200 -1.8626  1.0025 -0.6775
   36CHL1  H18C 3800   2.255   3.863   5.345 -1.3901 -0.5067 -1.4444
   36CHL1   C12 3801   2.321   3.604   5.438 -0.5626 -0.1571  0.5157
   36CHL1  H12A 3802   2.252   3.548   5.372  1.2767  0.0931 -1.7137
   36CHL1  H12B 3803   2.384   3.533   5.496 -0.2498 -0.1555  0.1825
   36CHL1   C11 3804   2.231   3.674   5.540 -0.4448  0.3254  0.1585
   36CHL1  H11A 3805   2.162   3.745   5.489  0.7973  1.1763 -0.3626
   36CHL1  H11B 3806   2.173   3.596   5.596  1.9309 -0.6124  1.4509
   36CHL1    C9 3807   2.307   3.755   5.645 -0.2495  0.0371 -0.5588
   36CHL1    H9 3808   2.363   3.684   5.708 -0.6771  0.3582  0.1946
   36CHL1   C10 3809   2.206   3.825   5.747  0.0627 -0.8189  0.0813
   36CHL1   C19 3810   2.119   3.925   5.667 -0.3387 -0.0971 -0.1812
   36CHL1  H19A 3811   2.051   3.864   5.604  2.0924  0.3917 -3.5857
   36CHL1  H19B 3812   2.059   3.982   5.740 -0.2356 -0.7521  0.4228
   36CHL1  H19C 3813   2.172   3.999   5.603  2.1013 -1.4946  0.0694
   36CHL1    C1 3814   2.122   3.712   5.815  0.0404  0.2076  0.3877
   36CHL1   H1A 3815   2.044   3.675   5.746 -0.1842  1.1330  0.1361
   36CHL1   H1B 3816   2.199   3.638   5.846  2.9382  2.0319 -1.8910
   36CHL1    C2 3817   2.051   3.761   5.936 -0.3417  0.0441 -0.8853
   36CHL1   H2A 3818   1.983   3.681   5.973  0.9588 -0.4846  0.4733
   36CHL1   H2B 3819   1.983   3.842   5.903  0.0941  0.0745 -1.7590
   36CHL1   C20 3820   2.510   3.608   5.151  0.3133 -0.0959  0.1956
   36CHL1   H20 3821   2.477   3.691   5.084  1.6700 -0.5383 -1.0764
   36CHL1   C21 3822   2.394   3.497   5.157 -0.0357 -0.4962  0.9063
   36CHL1  H21A 3823   2.424   3.423   5.234  2.0149 -1.4749 -0.7244
   36CHL1  H21B 3824   2.382   3.430   5.069  1.5687 -2.0041  1.7683
   36CHL1  H21C 3825   2.296   3.542   5.183 -1.5715 -3.9829  1.6775
   36CHL1   C22 3826   2.630   3.541   5.075  0.0140 -0.3264  0.5031
   36CHL1  H22A 3827   2.703   3.620   5.051 -0.3788  0.0703  0.5939
   36CHL1  H22B 3828   2.681   3.466   5.139  1.1351 -1.7716 -1.9672
   36CHL1   C23 3829   2.588   3.473   4.949  0.0915  0.2902 -0.3846
   36CHL1  H23A 3830   2.547   3.372   4.971 -0.5313  0.5724 -0.2284
   36CHL1  H23B 3831   2.501   3.517   4.895  0.1639 -0.9995 -1.6234
   36CHL1   C24 3832   2.706   3.445   4.849 -0.4727  0.0711  0.1294
   36CHL1  H24A 3833   2.742   3.544   4.813  1.7086 -0.8626 -0.4074
   36CHL1  H24B 3834   2.778   3.381   4.904 -2.4876 -1.9950  0.5014
   36CHL1   C25 3835   2.662   3.362   4.726  0.4812 -0.1383  1.1131
   36CHL1   H25 3836   2.600   3.276   4.758  0.8823 -0.8304  0.1061
   36CHL1   C26 3837   2.581   3.454   4.628 -0.3514  0.0856 -0.3077
   36CHL1  H26A 3838   2.532   3.407   4.540 -0.0175  1.0650 -1.0379
   36CHL1  H26B 3839   2.507   3.512   4.687 -1.1020 -1.3285  0.2024
   36CHL1  H26C 3840   2.651   3.526   4.582  0.3628 -0.9595 -0.9008
   36CHL1   C27 3841   2.787   3.300   4.658  0.5369  0.9908  0.2757
   36CHL1  H27A 3842   2.858   3.376   4.617  1.7085 -1.3858 -2.4849
   36CHL1  H27B 3843   2.843   3.239   4.732  1.6006  1.9183  0.2628
   36CHL1  H27C 3844   2.760   3.226   4.580  1.3163 -1.4672  2.2030
   37CHL1    C3 3845   6.522   6.710   5.522 -0.1011 -0.1102 -0.2286
   37CHL1    H3 3846   6.449   6.627   5.506 -1.0039  0.5142  0.5278
   37CHL1    O3 3847   6.486   6.754   5.653 -0.5274 -0.2902 -0.5316
   37CHL1   H3' 3848   6.435   6.833   5.635  0.7597  1.4102  2.4108
   37CHL1    C4 3849   6.661   6.656   5.536  0.1928  0.4178  1.3226
   37CHL1   H4A 3850   6.723   6.733   5.588 -0.4596 -0.1803  3.0319
   37CHL1   H4B 3851   6.676   6.573   5.609 -1.2611 -0.7102  0.3773
   37CHL1    C5 3852   6.724   6.627   5.405  0.4472 -0.4086  0.7078
   37CHL1    C6 3853   6.772   6.498   5.385 -0.2823 -0.7955  0.4664
   37CHL1    H6 3854   6.777   6.436   5.476  0.2301 -0.6167  0.5628
   37CHL1    C7 3855   6.831   6.459   5.256  0.7112  0.1632 -0.2753
   37CHL1   H7A 3856   6.917   6.391   5.277  0.9776  0.7788  0.6976
   37CHL1   H7B 3857   6.755   6.407   5.194  0.8507  0.2307 -0.5062
   37CHL1    C8 3858   6.876   6.587   5.172 -0.5451 -0.0188  0.1428
   37CHL1    H8 3859   6.961   6.635   5.226 -1.6549  2.1997  0.0464
   37CHL1   C14 3860   6.911   6.540   5.024 -0.3633  0.0201 -0.1292
   37CHL1   H14 3861   6.818   6.503   4.975  0.5144 -2.5130 -0.0269
   37CHL1   C15 3862   7.008   6.423   5.003 -0.5274  0.3781  0.1372
   37CHL1  H15A 3863   7.092   6.436   5.075 -0.1395 -3.3617  0.5685
   37CHL1  H15B 3864   6.958   6.327   5.029 -2.8737  1.2186 -1.0670
   37CHL1   C16 3865   7.062   6.430   4.857 -0.3192  0.0418  0.9834
   37CHL1  H16A 3866   7.171   6.448   4.848 -0.3895 -0.1324 -0.4670
   37CHL1  H16B 3867   7.023   6.339   4.806  1.0153 -0.4073  0.7052
   37CHL1   C17 3868   6.994   6.557   4.802  0.4142 -0.4298  0.3070
   37CHL1   H17 3869   6.899   6.517   4.760  1.6531  0.2411 -3.4893
   37CHL1   C13 3870   6.962   6.645   4.921  0.1292  0.3080  0.3637
   37CHL1   C18 3871   7.095   6.717   4.973 -0.2482  0.2740 -0.0770
   37CHL1  H18A 3872   7.126   6.777   4.885 -1.1795 -1.9573 -1.9978
   37CHL1  H18B 3873   7.074   6.786   5.058 -1.9803  0.1991 -0.4059
   37CHL1  H18C 3874   7.175   6.646   5.001  1.0491  0.8739 -2.1100
   37CHL1   C12 3875   6.844   6.747   4.914 -0.0834  1.0316  0.4137
   37CHL1  H12A 3876   6.884   6.825   4.846  1.3667 -0.0179  0.0047
   37CHL1  H12B 3877   6.765   6.690   4.859  0.4438  0.2466  0.4457
   37CHL1   C11 3878   6.789   6.804   5.047 -0.0662 -0.0028 -0.2582
   37CHL1  H11A 3879   6.867   6.870   5.090 -0.8693  0.4687  0.4960
   37CHL1  H11B 3880   6.699   6.867   5.032 -0.8830 -1.0054  0.3364
   37CHL1    C9 3881   6.764   6.691   5.153  0.1220 -0.5594  0.5799
   37CHL1    H9 3882   6.679   6.638   5.105 -0.3256  0.8151 -0.2023
   37CHL1   C10 3883   6.709   6.738   5.293 -0.2175  0.5145  0.5301
   37CHL1   C19 3884   6.799   6.858   5.327 -0.6819 -0.2070 -0.6980
   37CHL1  H19A 3885   6.773   6.905   5.425 -4.0391 -2.0794 -0.5247
   37CHL1  H19B 3886   6.909   6.847   5.333 -0.5655  1.3739  1.0328
   37CHL1  H19C 3887   6.781   6.947   5.262  0.7562  2.3965  2.1685
   37CHL1    C1 3888   6.558   6.783   5.287  0.1092 -0.8556  0.9716
   37CHL1   H1A 3889   6.546   6.854   5.202  0.5705  1.6601  2.8620
   37CHL1   H1B 3890   6.497   6.696   5.254  0.5158 -0.5827 -0.5786
   37CHL1    C2 3891   6.503   6.829   5.426  0.2887  0.0618  0.6010
   37CHL1   H2A 3892   6.401   6.871   5.426 -0.0467 -0.6557 -0.8557
   37CHL1   H2B 3893   6.566   6.916   5.454 -0.0598  0.6468 -0.3970
   37CHL1   C20 3894   7.068   6.622   4.682 -0.2373 -0.4196  0.0686
   37CHL1   H20 3895   7.162   6.660   4.727 -0.7773 -0.4070  1.2364
   37CHL1   C21 3896   6.987   6.726   4.603  0.6762  0.1083  0.6060
   37CHL1  H21A 3897   7.042   6.736   4.507 -0.6869 -1.9417 -0.4739
   37CHL1  H21B 3898   6.989   6.819   4.663 -1.9381  1.0067 -0.5485
   37CHL1  H21C 3899   6.881   6.692   4.591 -0.0354  2.5141 -0.7453
   37CHL1   C22 3900   7.105   6.503   4.577 -0.4462 -0.3785 -0.1277
   37CHL1  H22A 3901   7.157   6.416   4.623  0.9253  0.0837 -0.7510
   37CHL1  H22B 3902   7.007   6.459   4.549  1.2904 -4.1819 -0.8659
   37CHL1   C23 3903   7.180   6.531   4.452  0.5962  0.1982  0.4302
   37CHL1  H23A 3904   7.180   6.439   4.390  1.4336  0.9109 -0.6609
   37CHL1  H23B 3905   7.134   6.605   4.383  0.3904  1.1195  1.5197
   37CHL1   C24 3906   7.322   6.588   4.483  0.3611  0.0267 -0.7422
   37CHL1  H24A 3907   7.310   6.679   4.547  1.3272  0.5096 -1.2298
   37CHL1  H24B 3908   7.364   6.517   4.557 -0.2244  0.3720 -0.0623
   37CHL1   C25 3909   7.407   6.598   4.363 -0.5887 -0.1435 -0.2473
   37CHL1   H25 3910   7.362   6.662   4.285 -0.6736  2.7214  1.9609
   37CHL1   C26 3911   7.542   6.653   4.391  0.5633 -0.3433 -0.3912
   37CHL1  H26A 3912   7.611   6.650   4.304  0.6119  0.7310 -0.4094
   37CHL1  H26B 3913   7.524   6.757   4.426 -1.8745 -0.0555 -2.2262
   37CHL1  H26C 3914   7.599   6.595   4.467 -0.2483 -0.4635  0.1292
   37CHL1   C27 3915   7.436   6.461   4.294 -0.3582 -0.5701  0.2356
   37CHL1  H27A 3916   7.346   6.409   4.255 -0.5768 -0.2060  0.2557
   37CHL1  H27B 3917   7.486   6.476   4.196 -1.3688  0.2944 -0.1685
   37CHL1  H27C 3918   7.487   6.388   4.361 -1.3523 -2.6015 -1.1028
   38CHL1    C3 3919   3.568   2.540   6.096  0.4768  0.0383 -0.1430
   38CHL1    H3 3920   3.652   2.467   6.101  0.6415  0.2385 -0.0307
   38CHL1    O3 3921   3.514   2.576   6.221  0.5197 -0.1594 -0.6541
   38CHL1   H3' 3922   3.456   2.503   6.245  1.5118 -0.5830  0.5492
   38CHL1    C4 3923   3.625   2.666   6.040 -0.2879  1.0649 -0.2155
   38CHL1   H4A 3924   3.566   2.756   6.067 -1.1053  1.2308 -2.3403
   38CHL1   H4B 3925   3.722   2.675   6.093 -0.1389  0.7561 -0.4301
   38CHL1    C5 3926   3.658   2.654   5.888  0.5914  0.4782 -0.3301
   38CHL1    C6 3927   3.775   2.687   5.841 -0.5245  0.1016  0.2971
   38CHL1    H6 3928   3.846   2.740   5.906  0.5076 -0.6022 -0.2349
   38CHL1    C7 3929   3.830   2.679   5.701 -0.2235  0.0940 -0.4403
   38CHL1   H7A 3930   3.870   2.776   5.665 -0.7133  0.1972 -0.7225
   38CHL1   H7B 3931   3.913   2.606   5.712  0.4297  0.6294 -1.5878
   38CHL1    C8 3932   3.724   2.638   5.604  0.6419  0.0648 -0.3022
   38CHL1    H8 3933   3.657   2.723   5.581 -0.6156 -1.1076 -1.1944
   38CHL1   C14 3934   3.798   2.577   5.480  0.3009 -0.5307 -0.4072
   38CHL1   H14 3935   3.846   2.487   5.524 -0.3577  0.2599  2.1243
   38CHL1   C15 3936   3.912   2.662   5.422 -0.5450  0.0729 -0.7677
   38CHL1  H15A 3937   3.887   2.770   5.428  1.2721  0.5419 -0.8941
   38CHL1  H15B 3938   4.010   2.654   5.474 -2.1965 -2.9690  2.2891
   38CHL1   C16 3939   3.908   2.606   5.277  0.2495 -1.2411 -0.3916
   38CHL1  H16A 3940   3.895   2.689   5.204 -0.9163 -0.5017  0.6273
   38CHL1  H16B 3941   4.004   2.557   5.249  0.1073 -1.1875 -0.9967
   38CHL1   C17 3942   3.802   2.496   5.260 -0.5199 -0.7269  0.2021
   38CHL1   H17 3943   3.846   2.401   5.297  0.6232 -0.6244 -0.8126
   38CHL1   C13 3944   3.701   2.538   5.377  0.0553 -0.0536  0.2657
   38CHL1   C18 3945   3.622   2.658   5.323  0.0457  0.2009  0.3364
   38CHL1  H18A 3946   3.582   2.616   5.228  0.0385 -2.4084  1.4120
   38CHL1  H18B 3947   3.541   2.685   5.395  0.3964  4.6217 -0.6503
   38CHL1  H18C 3948   3.685   2.747   5.303 -0.3772  0.7322  1.3108
   38CHL1   C12 3949   3.605   2.431   5.428 -0.3822  0.1396 -0.5009
   38CHL1  H12A 3950   3.534   2.394   5.350 -0.8139 -0.5037  0.1885
   38CHL1  H12B 3951   3.661   2.337   5.447  0.8047  0.8075 -0.5730
   38CHL1   C11 3952   3.520   2.476   5.555 -0.1639 -0.0736  1.1656
   38CHL1  H11A 3953   3.446   2.556   5.531  0.2639 -1.0218 -4.7930
   38CHL1  H11B 3954   3.472   2.382   5.590 -0.4368 -0.6293 -0.5844
   38CHL1    C9 3955   3.620   2.537   5.661  0.0654 -0.8018 -0.4971
   38CHL1    H9 3956   3.687   2.452   5.687  0.1515 -0.4190  0.5442
   38CHL1   C10 3957   3.558   2.567   5.802 -0.0971 -0.2819  0.7876
   38CHL1   C19 3958   3.441   2.665   5.783 -0.1699  0.0798  0.0377
   38CHL1  H19A 3959   3.419   2.722   5.877  0.3671  1.2381 -0.5126
   38CHL1  H19B 3960   3.460   2.751   5.715 -1.2625  0.4161  0.1392
   38CHL1  H19C 3961   3.354   2.610   5.742 -0.0877 -0.9582  1.1941
   38CHL1    C1 3962   3.509   2.435   5.870  0.3043 -0.5142  0.7417
   38CHL1   H1A 3963   3.439   2.382   5.803 -0.0654  0.4232  0.3701
   38CHL1   H1B 3964   3.594   2.365   5.885  0.5601 -0.7207 -1.3696
   38CHL1    C2 3965   3.456   2.471   6.011  0.7717 -0.1655  0.3117
   38CHL1   H2A 3966   3.434   2.378   6.066 -1.0908 -0.1218 -0.2894
   38CHL1   H2B 3967   3.362   2.530   6.003  1.0539  0.4102  1.1824
   38CHL1   C20 3968   3.759   2.459   5.114 -0.7400 -0.1281 -0.0986
   38CHL1   H20 3969   3.729   2.547   5.054  2.0536  1.0042  0.0061
   38CHL1   C21 3970   3.642   2.360   5.117 -1.5603  0.2070 -0.2093
   38CHL1  H21A 3971   3.556   2.417   5.157  0.5645  3.6613 -0.1314
   38CHL1  H21B 3972   3.661   2.283   5.194  0.9261  1.2284  0.3109
   38CHL1  H21C 3973   3.617   2.317   5.017  1.5056 -1.5802 -0.3518
   38CHL1   C22 3974   3.887   2.389   5.048  0.0003  0.0827 -0.3676
   38CHL1  H22A 3975   3.974   2.459   5.053 -0.2612  0.3275  1.0906
   38CHL1  H22B 3976   3.915   2.295   5.099 -1.3143 -0.1661 -0.0790
   38CHL1   C23 3977   3.864   2.363   4.903 -1.2854  0.4346  0.3555
   38CHL1  H23A 3978   3.800   2.274   4.884  0.1253 -0.2386 -1.5868
   38CHL1  H23B 3979   3.825   2.454   4.852 -0.4382 -1.0946 -3.4093
   38CHL1   C24 3980   4.011   2.354   4.830 -0.1513  0.2552  0.3605
   38CHL1  H24A 3981   4.065   2.448   4.854 -2.5029  2.2527 -1.5335
   38CHL1  H24B 3982   4.061   2.270   4.882  1.3282  1.5231  1.0647
   38CHL1   C25 3983   4.015   2.343   4.676 -0.2313 -0.5295  0.2226
   38CHL1   H25 3984   3.973   2.436   4.632  0.2750  0.9318  2.6812
   38CHL1   C26 3985   4.165   2.336   4.646 -0.2065  0.0465  0.0964
   38CHL1  H26A 3986   4.176   2.338   4.535 -0.9842  1.3244  0.0291
   38CHL1  H26B 3987   4.214   2.427   4.686  0.1919  1.0736 -2.5191
   38CHL1  H26C 3988   4.221   2.246   4.681  1.2041  1.0447  0.4688
   38CHL1   C27 3989   3.952   2.214   4.616  0.3683  0.3148 -0.6420
   38CHL1  H27A 3990   3.982   2.193   4.511 -0.2326 -0.1407 -0.7239
   38CHL1  H27B 3991   3.985   2.123   4.671 -3.0273 -1.2739 -0.9710
   38CHL1  H27C 3992   3.843   2.216   4.635  0.5668 -1.7094  0.9892
   39CHL1    C3 3993   5.337   2.493   6.496  1.0342 -1.0522 -0.0129
   39CHL1    H3 3994   5.443   2.460   6.497  1.0539 -1.0993 -1.8143
   39CHL1    O3 3995   5.307   2.526   6.629 -0.6238  0.0542  0.9611
   39CHL1   H3' 3996   5.279   2.442   6.666 -0.0240 -0.7211 -0.2652
   39CHL1    C4 3997   5.312   2.611   6.404 -0.3080 -0.4974  1.2126
   39CHL1   H4A 3998   5.205   2.638   6.412 -0.2422 -0.3212  1.5178
   39CHL1   H4B 3999   5.366   2.703   6.435 -0.6928  0.1456  0.0184
   39CHL1    C5 4000   5.352   2.564   6.257  0.1762 -0.4165 -0.2110
   39CHL1    C6 4001   5.451   2.632   6.184  0.7664  0.1497  0.4218
   39CHL1    H6 4002   5.501   2.717   6.233 -2.2144  0.9478  2.3821
   39CHL1    C7 4003   5.466   2.608   6.037  0.9839  0.0267  0.3375
   39CHL1   H7A 4004   5.489   2.697   5.974 -0.1861 -1.5417 -2.5156
   39CHL1   H7B 4005   5.555   2.542   6.032  1.2150  0.2759  1.0748
   39CHL1    C8 4006   5.349   2.523   5.970 -0.4463  0.1743  0.0536
   39CHL1    H8 4007   5.264   2.590   5.944 -1.2503 -1.6516 -2.3643
   39CHL1   C14 4008   5.408   2.468   5.844 -0.9939 -0.1048  0.4250
   39CHL1   H14 4009   5.499   2.407   5.865  0.4713  1.3898 -1.2673
   39CHL1   C15 4010   5.462   2.577   5.751  0.2534 -0.3547  0.3311
   39CHL1  H15A 4011   5.396   2.666   5.764  0.9609 -0.1574  3.3796
   39CHL1  H15B 4012   5.565   2.611   5.776  0.9804  0.2772 -3.0129
   39CHL1   C16 4013   5.465   2.509   5.612 -0.7475  0.2169  0.0825
   39CHL1  H16A 4014   5.406   2.567   5.538 -2.5874 -0.6442  0.8134
   39CHL1  H16B 4015   5.570   2.501   5.577 -0.8626 -0.9779 -0.0599
   39CHL1   C17 4016   5.396   2.368   5.634 -0.3363  0.4801  0.1664
   39CHL1   H17 4017   5.483   2.301   5.651 -0.3574 -0.0251 -1.4895
   39CHL1   C13 4018   5.312   2.381   5.767 -0.0984 -0.1752  1.0252
   39CHL1   C18 4019   5.185   2.453   5.730  0.4155 -0.0312 -0.3699
   39CHL1  H18A 4020   5.126   2.489   5.818 -0.6810 -0.6706 -0.8238
   39CHL1  H18B 4021   5.213   2.540   5.667  0.7710 -0.9580 -1.5213
   39CHL1  H18C 4022   5.126   2.384   5.666  0.9719 -0.7952 -0.0609
   39CHL1   C12 4023   5.286   2.265   5.855 -0.0267  1.1378  0.6261
   39CHL1  H12A 4024   5.209   2.213   5.794  2.0164 -3.8025  1.8702
   39CHL1  H12B 4025   5.379   2.208   5.871 -0.8974 -1.5365 -2.6741
   39CHL1   C11 4026   5.222   2.306   5.988 -0.5300  0.0183 -0.8459
   39CHL1  H11A 4027   5.119   2.339   5.964 -0.8367 -1.0567 -1.0524
   39CHL1  H11B 4028   5.206   2.212   6.045 -1.1278 -0.0104 -1.0521
   39CHL1    C9 4029   5.313   2.407   6.061  0.3850 -0.0133 -0.4252
   39CHL1    H9 4030   5.403   2.345   6.081  0.2391  0.2384  1.0998
   39CHL1   C10 4031   5.267   2.456   6.201 -0.4847 -0.1926  0.7336
   39CHL1   C19 4032   5.123   2.513   6.190  0.1346  0.1325 -0.1619
   39CHL1  H19A 4033   5.084   2.537   6.290  3.6760 -0.8907  1.6367
   39CHL1  H19B 4034   5.119   2.605   6.128 -0.6060  0.1644 -0.0779
   39CHL1  H19C 4035   5.065   2.435   6.135  0.9535  1.1434 -2.6213
   39CHL1    C1 4036   5.272   2.341   6.308  0.6128  0.2200 -0.0601
   39CHL1   H1A 4037   5.182   2.283   6.278  0.8481  1.2890 -3.1934
   39CHL1   H1B 4038   5.372   2.294   6.309  0.9090  0.8048  1.8199
   39CHL1    C2 4039   5.250   2.381   6.454 -0.2201 -0.2527  0.2187
   39CHL1   H2A 4040   5.265   2.294   6.521  3.1049  0.4170  0.4933
   39CHL1   H2B 4041   5.144   2.416   6.463 -1.1110 -2.9764  1.2801
   39CHL1   C20 4042   5.333   2.316   5.500 -0.0653 -0.1904  0.0963
   39CHL1   H20 4043   5.246   2.378   5.469  1.2806  1.8383  0.2411
   39CHL1   C21 4044   5.284   2.165   5.517 -0.3890  0.6658  0.4213
   39CHL1  H21A 4045   5.358   2.108   5.577 -0.5936  0.1857  0.2251
   39CHL1  H21B 4046   5.279   2.116   5.417  1.8436 -0.5184  0.8324
   39CHL1  H21C 4047   5.187   2.148   5.569  0.1503  1.5114  1.7567
   39CHL1   C22 4048   5.421   2.317   5.375  0.1244 -0.0642  0.2228
   39CHL1  H22A 4049   5.492   2.402   5.381  1.0990 -0.8523 -0.0384
   39CHL1  H22B 4050   5.478   2.222   5.368  1.2943  0.6178  0.2831
   39CHL1   C23 4051   5.336   2.330   5.238 -0.2287 -0.1093 -0.4529
   39CHL1  H23A 4052   5.282   2.234   5.232 -0.8697  0.2796 -1.0044
   39CHL1  H23B 4053   5.248   2.398   5.250  0.8527  1.0714  1.4388
   39CHL1   C24 4054   5.433   2.345   5.121  0.2932 -0.6888  0.0787
   39CHL1  H24A 4055   5.498   2.430   5.152  1.4055 -1.5740  0.2253
   39CHL1  H24B 4056   5.499   2.256   5.119 -0.4618 -1.2699  0.4177
   39CHL1   C25 4057   5.378   2.371   4.979  0.2225 -0.1480  0.4844
   39CHL1   H25 4058   5.280   2.423   4.981 -0.3417 -0.9924 -1.8717
   39CHL1   C26 4059   5.477   2.453   4.890  0.2829  0.3284  0.0621
   39CHL1  H26A 4060   5.560   2.391   4.850  1.0932  1.4270 -0.0110
   39CHL1  H26B 4061   5.423   2.498   4.804  2.2302 -1.1883 -2.0725
   39CHL1  H26C 4062   5.522   2.534   4.951  1.9529 -0.5274  0.0441
   39CHL1   C27 4063   5.364   2.232   4.911  0.2053  0.2048 -0.3725
   39CHL1  H27A 4064   5.460   2.180   4.893 -0.0414  0.1875 -1.7585
   39CHL1  H27B 4065   5.322   2.164   4.988 -0.0394  0.7457 -0.0287
   39CHL1  H27C 4066   5.289   2.218   4.830 -0.0167 -1.0532  0.0298
   40CHL1    C3 4067   4.745   6.667   5.538 -0.2118 -0.3061  0.2379
   40CHL1    H3 4068   4.690   6.574   5.512 -0.1513 -0.0965 -0.6681
   40CHL1    O3 4069   4.689   6.722   5.658 -0.2218  0.0962  0.3011
   40CHL1   H3' 4070   4.692   6.648   5.719 -1.7815 -1.6743 -1.5973
   40CHL1    C4 4071   4.892   6.618   5.570 -0.7253  0.0977 -0.3587
   40CHL1   H4A 4072   4.930   6.710   5.619  1.2012  0.1893 -1.9001
   40CHL1   H4B 4073   4.888   6.538   5.647 -1.5351 -0.1718 -0.6734
   40CHL1    C5 4074   4.975   6.574   5.449  0.2837 -1.0118  0.2618
   40CHL1    C6 4075   5.037   6.459   5.461 -0.4757  0.0845  0.0515
   40CHL1    H6 4076   5.037   6.392   5.548  3.2057 -2.2133 -1.4987
   40CHL1    C7 4077   5.123   6.401   5.354 -0.0090  0.5531 -0.0569
   40CHL1   H7A 4078   5.223   6.371   5.393  0.0405  2.6246  1.6237
   40CHL1   H7B 4079   5.080   6.311   5.306  2.5410  0.2333 -1.9365
   40CHL1    C8 4080   5.150   6.509   5.243 -0.3916  0.9346  0.3573
   40CHL1    H8 4081   5.234   6.568   5.285 -1.1587  0.9998  1.8555
   40CHL1   C14 4082   5.203   6.439   5.111  0.2378  0.5475  0.1412
   40CHL1   H14 4083   5.127   6.369   5.071  1.2023 -0.5557  0.1787
   40CHL1   C15 4084   5.327   6.353   5.136  0.5035  0.5007  0.2544
   40CHL1  H15A 4085   5.380   6.423   5.204 -2.3248  3.5426 -0.3787
   40CHL1  H15B 4086   5.298   6.257   5.184  2.5999 -1.0961 -1.4747
   40CHL1   C16 4087   5.387   6.340   5.001 -0.2223 -0.1228 -0.0381
   40CHL1  H16A 4088   5.489   6.381   5.013  1.0360 -3.2293  0.7811
   40CHL1  H16B 4089   5.408   6.236   4.968  3.9749  0.7486 -0.6415
   40CHL1   C17 4090   5.291   6.419   4.897  0.4462  0.1212 -0.7929
   40CHL1   H17 4091   5.216   6.344   4.861 -0.1727  0.9842 -1.3291
   40CHL1   C13 4092   5.225   6.522   4.992 -0.3302 -0.2327  0.3864
   40CHL1   C18 4093   5.333   6.634   5.029 -0.0483  0.3503  0.1110
   40CHL1  H18A 4094   5.306   6.708   5.108  0.2417  0.7596 -0.1710
   40CHL1  H18B 4095   5.428   6.580   5.050 -0.0690 -1.1934 -3.1584
   40CHL1  H18C 4096   5.352   6.701   4.942  0.1556 -1.7354 -1.5291
   40CHL1   C12 4097   5.089   6.594   4.957 -0.5503  0.3749 -0.4687
   40CHL1  H12A 4098   5.104   6.664   4.871 -2.5414  0.7947 -0.5464
   40CHL1  H12B 4099   5.018   6.516   4.922 -0.6813 -0.7396  2.1242
   40CHL1   C11 4100   5.024   6.676   5.071  0.6246  0.2294  0.2244
   40CHL1  H11A 4101   5.078   6.769   5.096 -0.1502  1.1297 -1.2637
   40CHL1  H11B 4102   4.923   6.706   5.035 -0.2157 -2.3501  0.2341
   40CHL1    C9 4103   5.027   6.592   5.206 -0.1478  0.1142 -0.3379
   40CHL1    H9 4104   4.950   6.514   5.189  0.2690 -0.7203  1.3431
   40CHL1   C10 4105   4.976   6.669   5.330  1.3180  0.5979  0.2455
   40CHL1   C19 4106   5.071   6.783   5.355  0.9302 -0.2481 -0.3353
   40CHL1  H19A 4107   5.058   6.862   5.279  1.5498 -0.0226 -0.2118
   40CHL1  H19B 4108   5.040   6.828   5.452  2.4879  0.8696 -0.3141
   40CHL1  H19C 4109   5.179   6.757   5.361  0.3953 -2.6555  0.2336
   40CHL1    C1 4110   4.831   6.720   5.309 -0.1676  0.0531  0.2228
   40CHL1   H1A 4111   4.834   6.796   5.228  0.2490 -0.2937 -0.0959
   40CHL1   H1B 4112   4.769   6.634   5.278  0.0850  0.4506 -1.4675
   40CHL1    C2 4113   4.752   6.773   5.431  0.1297 -0.0211 -0.3801
   40CHL1   H2A 4114   4.647   6.802   5.411 -0.1606 -0.9790 -0.3043
   40CHL1   H2B 4115   4.805   6.860   5.475 -0.3657  1.3215 -2.3185
   40CHL1   C20 4116   5.370   6.457   4.775 -0.2458 -0.2803 -0.1838
   40CHL1   H20 4117   5.453   6.524   4.806 -1.1138  1.2976 -1.1443
   40CHL1   C21 4118   5.284   6.530   4.670 -0.2886 -0.1137  0.2485
   40CHL1  H21A 4119   5.337   6.559   4.577 -0.9663  1.9960  0.4559
   40CHL1  H21B 4120   5.259   6.630   4.713  1.1472  0.1521  0.5232
   40CHL1  H21C 4121   5.194   6.474   4.639  1.4184 -1.9233 -1.7801
   40CHL1   C22 4122   5.440   6.340   4.705  0.0688 -0.1684 -0.4642
   40CHL1  H22A 4123   5.502   6.289   4.782  0.8699  1.1890 -0.1736
   40CHL1  H22B 4124   5.363   6.267   4.673 -1.8279  0.6336  1.9744
   40CHL1   C23 4125   5.536   6.384   4.598  0.5239 -0.5624  0.2780
   40CHL1  H23A 4126   5.481   6.410   4.505  0.8754 -0.4337  0.1033
   40CHL1  H23B 4127   5.584   6.480   4.625 -0.3569 -0.0245 -0.0316
   40CHL1   C24 4128   5.659   6.292   4.574 -0.1879 -0.5738  0.3591
   40CHL1  H24A 4129   5.724   6.297   4.664  0.1938  0.0090  0.0502
   40CHL1  H24B 4130   5.630   6.185   4.566  1.2937 -1.0586  1.0542
   40CHL1   C25 4131   5.737   6.320   4.445  0.4605  0.1744 -0.9131
   40CHL1   H25 4132   5.676   6.283   4.359 -0.6700  0.7957 -0.4059
   40CHL1   C26 4133   5.767   6.465   4.417  0.2056 -0.2314 -0.5053
   40CHL1  H26A 4134   5.837   6.471   4.331  2.3518 -0.6215  1.1338
   40CHL1  H26B 4135   5.676   6.513   4.375  1.4460  0.1451 -3.0107
   40CHL1  H26C 4136   5.800   6.523   4.506  1.2193 -0.0826 -0.9640
   40CHL1   C27 4137   5.871   6.242   4.451 -1.0330 -0.1137  0.1322
   40CHL1  H27A 4138   5.937   6.273   4.367 -2.2436  0.4102 -0.6386
   40CHL1  H27B 4139   5.909   6.249   4.555 -1.9771  1.0452  0.4166
   40CHL1  H27C 4140   5.840   6.136   4.436 -0.1833 -0.2285 -0.9635
   41CHL1    C3 4141   1.470   5.215   5.704 -0.1787 -0.1302 -0.2834
   41CHL1    H3 4142   1.577   5.195   5.725 -0.3887  0.8081  1.9505
   41CHL1    O3 4143   1.412   5.273   5.822 -0.3906 -0.4441 -0.5715
   41CHL1   H3' 4144   1.486   5.288   5.881 -3.1234 -0.4288  3.2256
   41CHL1    C4 4145   1.454   5.323   5.595  0.0484 -0.1288  0.4189
   41CHL1   H4A 4146   1.353   5.370   5.593  0.4091  0.7076 -1.6466
   41CHL1   H4B 4147   1.513   5.414   5.620  0.0174  0.0062  0.0199
   41CHL1    C5 4148   1.495   5.276   5.453 -0.2534 -0.9296  0.5399
   41CHL1    C6 4149   1.572   5.347   5.372 -0.2153  0.2201 -0.1423
   41CHL1    H6 4150   1.603   5.452   5.387  0.6903 -0.2381  1.3907
   41CHL1    C7 4151   1.622   5.304   5.241  0.1775  0.4571  0.2554
   41CHL1   H7A 4152   1.626   5.396   5.178  1.4257 -0.2663 -0.7900
   41CHL1   H7B 4153   1.726   5.268   5.256 -0.5247 -2.4309 -1.0286
   41CHL1    C8 4154   1.537   5.186   5.178 -0.2204 -0.2260  0.4331
   41CHL1    H8 4155   1.440   5.229   5.144  0.0486 -0.1531 -0.2546
   41CHL1   C14 4156   1.607   5.125   5.052  0.1752 -0.5266  0.0163
   41CHL1   H14 4157   1.710   5.094   5.079  1.3641  3.2178  0.3390
   41CHL1   C15 4158   1.646   5.222   4.944  0.2905  0.2472 -0.1673
   41CHL1  H15A 4159   1.571   5.287   4.895 -0.2006  1.0748  1.6038
   41CHL1  H15B 4160   1.730   5.281   4.986 -0.0364  0.0873  0.7208
   41CHL1   C16 4161   1.688   5.129   4.831 -0.0637 -0.1619 -0.7209
   41CHL1  H16A 4162   1.657   5.161   4.730  0.1984  0.6799 -0.5397
   41CHL1  H16B 4163   1.799   5.124   4.835 -0.0710 -0.2680 -0.6288
   41CHL1   C17 4164   1.635   4.987   4.870 -0.4894 -0.0155  0.0959
   41CHL1   H17 4165   1.722   4.929   4.907  0.1820 -0.3147 -1.8445
   41CHL1   C13 4166   1.537   5.005   4.990 -0.7191 -0.5031  0.2092
   41CHL1   C18 4167   1.399   5.055   4.936  0.1038  0.0178  0.5366
   41CHL1  H18A 4168   1.349   4.976   4.876 -0.4373 -1.1022  2.4115
   41CHL1  H18B 4169   1.323   5.081   5.012 -0.2584  1.0398 -0.1424
   41CHL1  H18C 4170   1.397   5.148   4.874 -0.4170 -0.4211 -0.1145
   41CHL1   C12 4171   1.527   4.891   5.093  0.7123  0.1388  0.2533
   41CHL1  H12A 4172   1.478   4.797   5.060 -0.8966 -0.0314  2.8208
   41CHL1  H12B 4173   1.631   4.858   5.114  0.2690 -1.4713  0.0759
   41CHL1   C11 4174   1.467   4.941   5.231 -0.2937  0.2327 -0.9127
   41CHL1  H11A 4175   1.358   4.951   5.209 -0.6757  0.2620  0.8368
   41CHL1  H11B 4176   1.480   4.877   5.321 -0.9476  2.3431  0.7717
   41CHL1    C9 4177   1.519   5.078   5.283 -0.3651  0.1677  0.8299
   41CHL1    H9 4178   1.626   5.057   5.307 -0.4888 -1.3589  0.1156
   41CHL1   C10 4179   1.449   5.138   5.410  0.5609  1.1308  0.4793
   41CHL1   C19 4180   1.300   5.149   5.368  0.1173  0.4518  0.2460
   41CHL1  H19A 4181   1.294   5.219   5.281  2.3283 -1.2175 -1.3822
   41CHL1  H19B 4182   1.253   5.051   5.342  0.0870  0.7216 -0.7556
   41CHL1  H19C 4183   1.243   5.185   5.456  0.6747  0.2112  0.7138
   41CHL1    C1 4184   1.464   5.041   5.530  0.5591  0.3659  0.3780
   41CHL1   H1A 4185   1.422   4.938   5.522 -1.1852  1.0314  0.6069
   41CHL1   H1B 4186   1.574   5.027   5.540  0.3748  0.3090  2.8921
   41CHL1    C2 4187   1.405   5.090   5.657  0.4162 -0.0397  0.1027
   41CHL1   H2A 4188   1.397   5.009   5.733  0.4287 -1.4941 -1.4027
   41CHL1   H2B 4189   1.296   5.099   5.641  0.0419 -1.5673  1.4823
   41CHL1   C20 4190   1.588   4.897   4.755  0.0165 -0.0072  0.1713
   41CHL1   H20 4191   1.517   4.826   4.803 -2.3701  1.5694 -0.8465
   41CHL1   C21 4192   1.714   4.842   4.693  0.5926  0.0228 -0.1044
   41CHL1  H21A 4193   1.770   4.932   4.659  1.2775 -0.5467 -0.5188
   41CHL1  H21B 4194   1.686   4.790   4.599  0.0509  0.2918 -0.0897
   41CHL1  H21C 4195   1.760   4.763   4.756 -0.5111 -0.9228 -0.4534
   41CHL1   C22 4196   1.508   4.971   4.641  0.8084 -0.0366  0.2639
   41CHL1  H22A 4197   1.450   5.056   4.682  0.2339 -0.9492  1.4239
   41CHL1  H22B 4198   1.590   5.010   4.577  0.1125  0.3186 -0.4147
   41CHL1   C23 4199   1.420   4.876   4.554  0.5022 -0.3281 -0.2275
   41CHL1  H23A 4200   1.478   4.786   4.524  0.0076 -0.8033  0.2192
   41CHL1  H23B 4201   1.332   4.847   4.614 -0.0232  0.7256 -0.4581
   41CHL1   C24 4202   1.385   4.945   4.426 -0.7608  0.5488  0.3893
   41CHL1  H24A 4203   1.351   5.050   4.439  1.3402  1.3248 -0.0515
   41CHL1  H24B 4204   1.477   4.948   4.364  0.1318  0.3732  1.6711
   41CHL1   C25 4205   1.280   4.871   4.334  0.4574  0.0484  0.5186
   41CHL1   H25 4206   1.283   4.915   4.232 -0.9487  0.1733  0.5151
   41CHL1   C26 4207   1.313   4.721   4.325  0.5261  0.4289 -0.2293
   41CHL1  H26A 4208   1.240   4.676   4.254  1.7887 -0.9690 -0.6984
   41CHL1  H26B 4209   1.417   4.696   4.294  0.7401  0.2618  0.6220
   41CHL1  H26C 4210   1.291   4.669   4.420 -2.9265 -0.9598 -1.6040
   41CHL1   C27 4211   1.145   4.883   4.396 -0.0833 -0.2344  0.2415
   41CHL1  H27A 4212   1.136   4.844   4.500  0.7578 -1.9776 -0.2954
   41CHL1  H27B 4213   1.115   4.990   4.391  0.2174 -0.0626  1.5936
   41CHL1  H27C 4214   1.066   4.829   4.342  0.7954 -0.6019 -0.7087
   42CHL1    C3 4215   0.448   3.626   6.234  0.7301 -0.3303  0.0209
   42CHL1    H3 4216   0.341   3.599   6.247 -0.6991  4.3717 -0.0908
   42CHL1    O3 4217   0.505   3.635   6.369 -0.6131 -0.4066  0.2966
   42CHL1   H3' 4218   0.591   3.672   6.348 -0.8744 -1.4737 -3.1688
   42CHL1    C4 4219   0.532   3.526   6.154  0.0231 -0.1869 -0.4198
   42CHL1   H4A 4220   0.641   3.531   6.173 -0.0221 -0.6150 -0.0204
   42CHL1   H4B 4221   0.494   3.431   6.196 -1.3917  1.3091  1.9133
   42CHL1    C5 4222   0.504   3.535   6.006  0.2330  0.1175  0.6217
   42CHL1    C6 4223   0.469   3.427   5.935  0.7029 -0.0008 -0.1401
   42CHL1    H6 4224   0.456   3.332   5.989 -0.0063 -0.2359 -0.7123
   42CHL1    C7 4225   0.450   3.427   5.785  0.0784 -0.0648 -0.1402
   42CHL1   H7A 4226   0.478   3.337   5.727  0.5036  1.0144 -1.6820
   42CHL1   H7B 4227   0.342   3.446   5.769  0.3485  1.7563 -0.0241
   42CHL1    C8 4228   0.515   3.544   5.716  0.2074 -0.4151  0.0273
   42CHL1    H8 4229   0.625   3.542   5.726  0.3798  0.5202 -1.4583
   42CHL1   C14 4230   0.464   3.545   5.571 -0.4214 -0.5147 -1.0971
   42CHL1   H14 4231   0.354   3.555   5.581 -0.2335  0.2904  0.6646
   42CHL1   C15 4232   0.467   3.418   5.482  0.0556 -0.4720 -0.2212
   42CHL1  H15A 4233   0.563   3.363   5.496  0.7135  0.4500 -1.0093
   42CHL1  H15B 4234   0.374   3.360   5.502 -1.2694  0.6097 -2.8064
   42CHL1   C16 4235   0.477   3.474   5.338  0.6225 -0.6062 -0.1580
   42CHL1  H16A 4236   0.579   3.458   5.296  2.2851  6.0583  0.1676
   42CHL1  H16B 4237   0.399   3.430   5.273 -1.6471 -0.8051  2.5490
   42CHL1   C17 4238   0.444   3.630   5.354 -0.3197  0.1899 -0.3225
   42CHL1   H17 4239   0.333   3.633   5.359 -0.2475  2.7175  2.4031
   42CHL1   C13 4240   0.514   3.665   5.491 -0.2614 -0.3307 -0.6703
   42CHL1   C18 4241   0.662   3.663   5.469  0.1683 -0.0341  0.0939
   42CHL1  H18A 4242   0.710   3.751   5.420  1.8216 -1.0354 -0.1820
   42CHL1  H18B 4243   0.714   3.667   5.568 -3.5212 -1.5013  2.2824
   42CHL1  H18C 4244   0.697   3.576   5.410  0.8678  0.3254 -0.0365
   42CHL1   C12 4245   0.465   3.800   5.565 -0.3344  0.3453  0.2585
   42CHL1  H12A 4246   0.516   3.890   5.524  0.9726 -0.4618  0.0579
   42CHL1  H12B 4247   0.355   3.811   5.559 -0.7265 -1.6289  2.4478
   42CHL1   C11 4248   0.505   3.800   5.713 -0.4560 -0.1337  0.7409
   42CHL1  H11A 4249   0.614   3.822   5.713 -0.3037 -0.7983  1.5358
   42CHL1  H11B 4250   0.472   3.888   5.773  0.3355 -0.8161  2.2365
   42CHL1    C9 4251   0.475   3.674   5.789 -0.1171 -0.8199  0.2520
   42CHL1    H9 4252   0.365   3.670   5.794 -0.0361 -1.5200  3.3046
   42CHL1   C10 4253   0.522   3.675   5.934  0.1537 -0.2190  0.3298
   42CHL1   C19 4254   0.668   3.717   5.941  0.0123 -0.1562  0.4963
   42CHL1  H19A 4255   0.674   3.825   5.917 -1.1181  0.0603  1.0862
   42CHL1  H19B 4256   0.710   3.704   6.043 -0.6249  0.5579  0.8602
   42CHL1  H19C 4257   0.730   3.667   5.863 -0.7644  0.6853 -0.6973
   42CHL1    C1 4258   0.430   3.766   6.018 -0.0497  0.7182 -0.6012
   42CHL1   H1A 4259   0.435   3.871   5.982 -0.3487  1.0088  0.1928
   42CHL1   H1B 4260   0.329   3.725   6.000 -1.1151  3.0761 -0.3591
   42CHL1    C2 4261   0.467   3.762   6.169 -0.0846  0.1018  0.0741
   42CHL1   H2A 4262   0.404   3.838   6.219 -0.4127  2.0510 -3.0540
   42CHL1   H2B 4263   0.570   3.798   6.187 -0.1742  0.2502  0.2892
   42CHL1   C20 4264   0.480   3.713   5.230 -0.6270 -0.3520 -0.3138
   42CHL1   H20 4265   0.579   3.763   5.233 -2.1137  2.8784 -0.2469
   42CHL1   C21 4266   0.391   3.836   5.239 -0.1011  0.2095  1.0945
   42CHL1  H21A 4267   0.402   3.903   5.152  2.6184 -4.0525 -2.2803
   42CHL1  H21B 4268   0.416   3.884   5.336 -0.4818  1.4448  0.6042
   42CHL1  H21C 4269   0.284   3.806   5.249 -0.3914 -0.0071 -1.8420
   42CHL1   C22 4270   0.466   3.640   5.101  0.0846  0.0592  0.2838
   42CHL1  H22A 4271   0.522   3.544   5.112  1.6004  1.1102  2.9637
   42CHL1  H22B 4272   0.359   3.620   5.082 -0.1300 -1.0696  2.3729
   42CHL1   C23 4273   0.526   3.723   4.976 -0.0416  0.0582  0.6649
   42CHL1  H23A 4274   0.459   3.806   4.947 -0.2931  0.0580  1.2249
   42CHL1  H23B 4275   0.619   3.777   5.003  0.3728  1.1209 -2.5336
   42CHL1   C24 4276   0.530   3.634   4.853 -0.0131 -0.0037  0.8265
   42CHL1  H24A 4277   0.581   3.537   4.871  0.6034  0.0129 -0.6999
   42CHL1  H24B 4278   0.431   3.601   4.814 -0.0802 -1.1991  1.9334
   42CHL1   C25 4279   0.602   3.705   4.734 -0.1063 -0.3522  0.6583
   42CHL1   H25 4280   0.576   3.813   4.741 -1.4469 -0.4916 -1.3300
   42CHL1   C26 4281   0.752   3.690   4.732  0.0473 -0.4567 -0.7311
   42CHL1  H26A 4282   0.800   3.747   4.815 -0.9255 -0.9931  0.2287
   42CHL1  H26B 4283   0.791   3.586   4.727  3.6592  0.8116 -1.8686
   42CHL1  H26C 4284   0.790   3.731   4.636 -0.4884 -1.4919 -1.4046
   42CHL1   C27 4285   0.535   3.654   4.607  0.2542  0.7161  0.1709
   42CHL1  H27A 4286   0.572   3.708   4.517 -1.5274  2.9909  0.6937
   42CHL1  H27B 4287   0.547   3.544   4.596 -2.6708  0.2436  0.8235
   42CHL1  H27C 4288   0.425   3.666   4.622  0.0958 -1.8474  1.5825
   43CHL1    C3 4289   1.760   3.260   6.061 -0.0831 -0.2430  0.0572
   43CHL1    H3 4290   1.660   3.252   6.013  0.4699  1.2439 -1.4681
   43CHL1    O3 4291   1.753   3.297   6.195  0.5740  0.2533  0.1490
   43CHL1   H3' 4292   1.731   3.390   6.197 -1.8325  0.0619 -4.2060
   43CHL1    C4 4293   1.852   3.141   6.044 -0.2918  0.1199  0.5791
   43CHL1   H4A 4294   1.946   3.155   6.102  0.7674 -1.3996 -0.6715
   43CHL1   H4B 4295   1.801   3.053   6.090  0.6291 -0.1911  1.0294
   43CHL1    C5 4296   1.883   3.103   5.899 -0.7270  0.0148  0.3204
   43CHL1    C6 4297   1.862   2.983   5.842 -0.0030 -0.0616 -0.0016
   43CHL1    H6 4298   1.831   2.898   5.905  2.8623 -1.5665 -0.4792
   43CHL1    C7 4299   1.897   2.952   5.702  0.5605  0.5722 -0.2219
   43CHL1   H7A 4300   1.950   2.854   5.701  0.2346  0.3925 -1.5630
   43CHL1   H7B 4301   1.799   2.938   5.652  0.1239 -0.0585  0.7885
   43CHL1    C8 4302   1.979   3.060   5.626  0.0295 -0.2919 -0.4838
   43CHL1    H8 4303   2.080   3.040   5.669 -1.7771 -0.9190  4.0380
   43CHL1   C14 4304   1.973   3.030   5.478 -0.5480 -0.2832  0.5610
   43CHL1   H14 4305   1.866   3.044   5.450 -0.6206 -0.7949  0.5695
   43CHL1   C15 4306   2.008   2.888   5.434 -0.4058 -0.9974  0.3448
   43CHL1  H15A 4307   2.097   2.863   5.496  1.4798 -1.3035 -2.3066
   43CHL1  H15B 4308   1.928   2.818   5.467 -2.6760  0.3799 -1.9525
   43CHL1   C16 4309   2.039   2.902   5.285  0.1443  0.0494 -0.1555
   43CHL1  H16A 4310   2.146   2.878   5.267  0.6330  0.8640  1.5183
   43CHL1  H16B 4311   1.972   2.833   5.229 -1.4044  1.7556 -0.5066
   43CHL1   C17 4312   2.024   3.050   5.249 -0.0536 -0.1387 -0.5800
   43CHL1   H17 4313   1.917   3.067   5.226  0.0530  0.6550 -0.5280
   43CHL1   C13 4314   2.050   3.122   5.388 -0.5835  0.4621 -0.1687
   43CHL1   C18 4315   2.201   3.111   5.418  0.0804  0.6658  0.1464
   43CHL1  H18A 4316   2.246   3.009   5.410 -0.8700  0.3323 -1.2643
   43CHL1  H18B 4317   2.264   3.176   5.353 -1.1705  4.1896  2.2175
   43CHL1  H18C 4318   2.224   3.155   5.517  2.9097  1.4490 -0.7741
   43CHL1   C12 4319   1.987   3.265   5.409 -0.0658 -0.2923  0.5548
   43CHL1  H12A 4320   2.034   3.344   5.346 -1.7021  1.2234  1.1602
   43CHL1  H12B 4321   1.880   3.275   5.381  0.3733  0.3401 -0.9983
   43CHL1   C11 4322   1.994   3.308   5.553  0.7759 -0.4671 -0.9308
   43CHL1  H11A 4323   2.097   3.324   5.590 -0.2879 -0.0321  2.0864
   43CHL1  H11B 4324   1.959   3.413   5.562  2.1951  0.0178 -0.7669
   43CHL1    C9 4325   1.933   3.201   5.659 -0.4212 -0.0248  0.4787
   43CHL1    H9 4326   1.823   3.193   5.646 -0.3255 -0.0575 -0.4329
   43CHL1   C10 4327   1.940   3.229   5.811 -0.0586  0.4555 -0.0937
   43CHL1   C19 4328   2.083   3.253   5.853  0.3319  0.3570  0.0093
   43CHL1  H19A 4329   2.091   3.278   5.962  1.5237  0.3947 -0.0783
   43CHL1  H19B 4330   2.153   3.172   5.825 -0.9464 -0.5193 -0.7669
   43CHL1  H19C 4331   2.134   3.343   5.813 -0.1043 -0.1449 -1.7166
   43CHL1    C1 4332   1.855   3.357   5.838  0.5096 -0.2028 -0.1563
   43CHL1   H1A 4333   1.913   3.444   5.801  1.6866 -1.2855 -0.9593
   43CHL1   H1B 4334   1.760   3.352   5.781 -0.6374 -0.3449  1.7062
   43CHL1    C2 4335   1.824   3.380   5.989  0.1933  0.4069 -0.3044
   43CHL1   H2A 4336   1.753   3.465   5.988 -1.6735 -1.0552  0.5181
   43CHL1   H2B 4337   1.915   3.410   6.046 -2.0833  1.2928  3.1896
   43CHL1   C20 4338   2.106   3.096   5.127  0.4028 -0.1271 -0.3364
   43CHL1   H20 4339   2.210   3.127   5.152  0.4272  0.9750 -1.6715
   43CHL1   C21 4340   2.036   3.222   5.065 -0.1008  0.7003  0.0299
   43CHL1  H21A 4341   2.110   3.273   5.000  0.5923  0.4698  0.6143
   43CHL1  H21B 4342   1.986   3.292   5.136 -2.0977 -1.3850  0.8095
   43CHL1  H21C 4343   1.953   3.186   5.001 -2.6379  0.9117  2.9377
   43CHL1   C22 4344   2.121   2.989   5.018  0.0244 -0.2232 -0.2822
   43CHL1  H22A 4345   2.192   2.914   5.059 -0.7806 -0.9441 -0.1859
   43CHL1  H22B 4346   2.024   2.937   5.003  0.0251 -0.9299  1.7733
   43CHL1   C23 4347   2.190   3.037   4.886  0.8406 -0.1187  0.3069
   43CHL1  H23A 4348   2.109   3.090   4.832  0.7098 -2.1892 -1.6880
   43CHL1  H23B 4349   2.280   3.101   4.902  0.3975  0.1672  1.8272
   43CHL1   C24 4350   2.234   2.918   4.796  0.3812  0.8503  0.1308
   43CHL1  H24A 4351   2.309   2.854   4.847 -0.9795 -0.2841  0.8236
   43CHL1  H24B 4352   2.141   2.861   4.773 -0.6287  1.7476  1.7848
   43CHL1   C25 4353   2.283   2.968   4.662 -0.3669 -0.9802 -0.1146
   43CHL1   H25 4354   2.204   3.030   4.613 -0.4701  1.2815  2.6633
   43CHL1   C26 4355   2.401   3.061   4.672  0.1794  0.4283  0.2017
   43CHL1  H26A 4356   2.466   3.021   4.753 -0.0817  0.2976  0.3485
   43CHL1  H26B 4357   2.465   3.052   4.581  0.1230  1.8054  0.0166
   43CHL1  H26C 4358   2.383   3.166   4.703 -1.2113  0.4575 -0.6022
   43CHL1   C27 4359   2.317   2.845   4.574 -0.0877  0.5798 -0.1672
   43CHL1  H27A 4360   2.375   2.771   4.632 -1.6514 -0.5742 -0.0058
   43CHL1  H27B 4361   2.222   2.791   4.554 -0.6469  0.9532  1.3747
   43CHL1  H27C 4362   2.368   2.866   4.478  0.2168  1.8565  0.2559
   44CHL1    C3 4363   1.265   3.843   6.041  0.2532  0.1576  0.6291
   44CHL1    H3 4364   1.239   3.938   5.991  0.4276  0.0837  0.3953
   44CHL1    O3 4365   1.197   3.843   6.161 -0.8087  0.2157  0.3133
   44CHL1   H3' 4366   1.270   3.834   6.222  0.0467 -0.6211 -0.7668
   44CHL1    C4 4367   1.216   3.730   5.948  0.8958 -0.1635  0.1290
   44CHL1   H4A 4368   1.224   3.636   6.006  0.6087 -0.5962 -0.5171
   44CHL1   H4B 4369   1.107   3.744   5.932  0.5438 -1.8548  0.8006
   44CHL1    C5 4370   1.292   3.735   5.813  0.8540 -0.1234  0.4860
   44CHL1    C6 4371   1.229   3.747   5.693 -0.6136  0.3879  0.1379
   44CHL1    H6 4372   1.120   3.748   5.679 -0.3764 -1.1318 -2.8686
   44CHL1    C7 4373   1.310   3.753   5.564  0.4942 -0.3763 -0.4657
   44CHL1   H7A 4374   1.252   3.708   5.480 -3.2830  1.3757  0.9760
   44CHL1   H7B 4375   1.317   3.859   5.531  0.8475  0.1728  1.3077
   44CHL1    C8 4376   1.450   3.699   5.571 -0.2877 -0.0830  0.5701
   44CHL1    H8 4377   1.448   3.589   5.589  3.2216 -0.3550 -0.0014
   44CHL1   C14 4378   1.528   3.723   5.448 -0.1018 -0.1456  0.1186
   44CHL1   H14 4379   1.546   3.833   5.439  0.1826 -0.3176 -1.6805
   44CHL1   C15 4380   1.472   3.683   5.311  0.6574  0.5114  0.1365
   44CHL1  H15A 4381   1.434   3.579   5.313 -0.8076  0.9750  3.8122
   44CHL1  H15B 4382   1.384   3.744   5.278  0.3643 -0.6114 -1.2621
   44CHL1   C16 4383   1.595   3.693   5.213 -0.1721  0.1476 -0.5322
   44CHL1  H16A 4384   1.587   3.591   5.170 -0.4756 -0.5770  1.2040
   44CHL1  H16B 4385   1.584   3.766   5.129  1.0575 -0.5059 -1.2793
   44CHL1   C17 4386   1.727   3.701   5.304 -0.6074  0.9621 -0.3766
   44CHL1   H17 4387   1.754   3.809   5.298 -0.2770  0.9305  0.4463
   44CHL1   C13 4388   1.676   3.665   5.447  0.3471 -0.7672  0.0272
   44CHL1   C18 4389   1.675   3.511   5.461  0.1023  0.3063 -0.2758
   44CHL1  H18A 4390   1.662   3.462   5.362  0.5122 -2.4153  0.9241
   44CHL1  H18B 4391   1.766   3.472   5.512  0.7225 -1.1775 -2.3836
   44CHL1  H18C 4392   1.599   3.476   5.533  0.2607  0.1876 -0.1659
   44CHL1   C12 4393   1.753   3.738   5.563 -0.1234 -0.4247 -0.4546
   44CHL1  H12A 4394   1.857   3.698   5.561  0.3944  0.8716 -0.4447
   44CHL1  H12B 4395   1.757   3.847   5.540 -1.5685 -0.2376  0.1103
   44CHL1   C11 4396   1.673   3.711   5.691  0.3751  0.6961 -0.3796
   44CHL1  H11A 4397   1.684   3.603   5.716 -0.4578  0.2992 -1.6462
   44CHL1  H11B 4398   1.725   3.770   5.769  1.6028  1.6658 -1.8739
   44CHL1    C9 4399   1.527   3.752   5.690 -0.1633 -0.1626 -0.2204
   44CHL1    H9 4400   1.532   3.862   5.675 -0.2867 -0.4249 -2.5364
   44CHL1   C10 4401   1.451   3.726   5.823  0.2593  0.9834 -0.3726
   44CHL1   C19 4402   1.468   3.589   5.872 -0.7003  0.8926  0.3938
   44CHL1  H19A 4403   1.411   3.567   5.965 -1.1970 -2.0127 -0.4898
   44CHL1  H19B 4404   1.440   3.505   5.805 -1.4834  1.6027 -0.1913
   44CHL1  H19C 4405   1.575   3.577   5.899 -1.0276  1.6546  2.2292
   44CHL1    C1 4406   1.491   3.834   5.923  0.6003 -0.4622  0.2134
   44CHL1   H1A 4407   1.598   3.819   5.945  0.8619  0.5980 -0.2661
   44CHL1   H1B 4408   1.498   3.932   5.872  1.3507 -1.3502 -1.4529
   44CHL1    C2 4409   1.420   3.837   6.056 -0.6599 -0.3107 -0.0735
   44CHL1   H2A 4410   1.445   3.930   6.112 -2.1322  0.8515 -1.2573
   44CHL1   H2B 4411   1.444   3.753   6.124  0.2295 -1.3048 -1.5663
   44CHL1   C20 4412   1.834   3.616   5.237 -0.5157 -0.0432 -0.6296
   44CHL1   H20 4413   1.823   3.509   5.263 -0.7348 -0.0002 -0.5488
   44CHL1   C21 4414   1.973   3.648   5.289 -1.1303  0.2064  0.3520
   44CHL1  H21A 4415   2.053   3.584   5.246 -2.1664  0.0701 -1.4750
   44CHL1  H21B 4416   1.969   3.641   5.400 -2.5935  2.9011  0.5347
   44CHL1  H21C 4417   2.001   3.751   5.262  0.6636 -0.1697  0.6412
   44CHL1   C22 4418   1.828   3.625   5.084  0.8029  0.0621  0.5060
   44CHL1  H22A 4419   1.761   3.553   5.031 -2.1207  1.8971  1.4921
   44CHL1  H22B 4420   1.805   3.730   5.055  1.0456  0.6366  2.3045
   44CHL1   C23 4421   1.961   3.589   5.012 -0.0491  0.2947  0.5010
   44CHL1  H23A 4422   2.026   3.677   5.031  0.5419 -0.3368  1.5060
   44CHL1  H23B 4423   1.988   3.495   5.063 -2.3703 -0.9186 -0.3568
   44CHL1   C24 4424   1.936   3.554   4.865 -0.1780  0.4086 -0.5395
   44CHL1  H24A 4425   1.854   3.480   4.860  0.6950 -0.6394  0.2026
   44CHL1  H24B 4426   1.906   3.646   4.810 -2.3509 -1.0395 -1.8929
   44CHL1   C25 4427   2.061   3.502   4.792 -0.8203 -0.3681 -0.4099
   44CHL1   H25 4428   2.090   3.403   4.831 -1.5921 -1.1394 -1.6933
   44CHL1   C26 4429   2.035   3.477   4.643  0.0539  0.6230  0.0492
   44CHL1  H26A 4430   2.000   3.563   4.582  1.1997 -0.3003 -2.0313
   44CHL1  H26B 4431   2.124   3.428   4.597 -0.4201 -0.3050  0.1000
   44CHL1  H26C 4432   1.947   3.409   4.640  0.1423  0.4720  0.8218
   44CHL1   C27 4433   2.179   3.601   4.808 -0.4647  0.0081 -0.3036
   44CHL1  H27A 4434   2.272   3.569   4.756 -0.4864  2.5488 -2.1044
   44CHL1  H27B 4435   2.148   3.696   4.761  1.0770  0.0264 -1.3641
   44CHL1  H27C 4436   2.194   3.629   4.915 -3.1168 -0.1155  0.1770
   45CHL1    C3 4437   0.990   4.673   5.823  0.3714 -0.3153 -0.1226
   45CHL1    H3 4438   0.879   4.675   5.818  0.3808 -0.2022 -0.2798
   45CHL1    O3 4439   1.017   4.675   5.959  0.2315 -0.6474  0.0134
   45CHL1   H3' 4440   0.961   4.605   5.994 -1.9954  1.7171  1.5220
   45CHL1    C4 4441   1.047   4.542   5.771  0.2013 -0.2143 -0.5369
   45CHL1   H4A 4442   1.154   4.529   5.799 -0.0365 -1.4534 -0.1073
   45CHL1   H4B 4443   0.993   4.460   5.823 -1.9229  1.9301  0.7948
   45CHL1    C5 4444   1.055   4.523   5.622  0.8460 -0.5410 -0.8213
   45CHL1    C6 4445   1.006   4.406   5.567  0.6932 -0.1425 -0.2819
   45CHL1    H6 4446   0.973   4.328   5.637  0.8257 -0.7390 -0.8733
   45CHL1    C7 4447   1.017   4.375   5.419  0.1692  0.4513 -0.5665
   45CHL1   H7A 4448   1.068   4.276   5.413  1.1041  0.5011  3.5627
   45CHL1   H7B 4449   0.916   4.358   5.373 -0.0610 -0.5536  0.2683
   45CHL1    C8 4450   1.086   4.480   5.331  0.5186  0.3140 -0.3360
   45CHL1    H8 4451   1.195   4.460   5.342  0.0884 -1.9470  0.1994
   45CHL1   C14 4452   1.057   4.481   5.183  0.0373  0.1606 -0.5765
   45CHL1   H14 4453   0.952   4.516   5.173  0.0222  0.5804  0.8147
   45CHL1   C15 4454   1.059   4.344   5.107 -0.3379 -0.8177 -0.6369
   45CHL1  H15A 4455   1.155   4.291   5.125  0.3831  1.3079  2.5739
   45CHL1  H15B 4456   0.970   4.286   5.136 -1.0036  0.4395 -0.0825
   45CHL1   C16 4457   1.049   4.383   4.963  0.0174  0.3298 -0.1290
   45CHL1  H16A 4458   1.121   4.321   4.907 -2.4159 -0.9037 -2.0469
   45CHL1  H16B 4459   0.948   4.371   4.920 -0.2008 -0.4035  0.5679
   45CHL1   C17 4460   1.086   4.538   4.958 -0.4403 -0.0719 -0.1151
   45CHL1   H17 4461   0.983   4.577   4.950 -0.5496 -0.7093 -3.0850
   45CHL1   C13 4462   1.143   4.574   5.103 -0.0351  0.1355  0.4287
   45CHL1   C18 4463   1.299   4.548   5.117 -0.2100 -0.1069 -0.3559
   45CHL1  H18A 4464   1.350   4.596   5.204  3.5467  0.8198 -2.8448
   45CHL1  H18B 4465   1.323   4.439   5.123 -2.5585 -0.7276 -1.2453
   45CHL1  H18C 4466   1.351   4.581   5.025 -1.6227  2.3515 -0.3408
   45CHL1   C12 4467   1.108   4.723   5.147 -0.6156  0.4250 -0.4824
   45CHL1  H12A 4468   1.185   4.783   5.095  0.6873 -0.9971 -0.2560
   45CHL1  H12B 4469   1.006   4.746   5.107 -0.1430  1.0445 -1.3572
   45CHL1   C11 4470   1.121   4.739   5.300  0.2460 -0.4858  0.3635
   45CHL1  H11A 4471   1.231   4.752   5.311 -0.2003  2.5277  2.5382
   45CHL1  H11B 4472   1.065   4.832   5.323 -0.2715 -0.0171 -2.3969
   45CHL1    C9 4473   1.063   4.626   5.391  0.1156 -0.0402  0.0618
   45CHL1    H9 4474   0.953   4.636   5.396  0.0921 -0.1125 -0.2510
   45CHL1   C10 4475   1.107   4.645   5.543  0.7546 -0.4892  0.4002
   45CHL1   C19 4476   1.257   4.643   5.563  0.0187 -0.1567  0.6527
   45CHL1  H19A 4477   1.297   4.600   5.658  1.3511  1.2995  0.7885
   45CHL1  H19B 4478   1.307   4.576   5.491 -0.5074  0.6867 -0.5287
   45CHL1  H19C 4479   1.304   4.742   5.547  1.8112 -0.7441  1.9436
   45CHL1    C1 4480   1.047   4.778   5.595 -0.3655  0.2991 -0.1043
   45CHL1   H1A 4481   1.095   4.867   5.548  1.1079 -0.1561  0.4636
   45CHL1   H1B 4482   0.940   4.775   5.569 -0.7859  0.2336  1.5109
   45CHL1    C2 4483   1.049   4.798   5.748  0.1050 -0.3466  0.1625
   45CHL1   H2A 4484   0.991   4.886   5.784 -0.9213 -1.3675  1.0727
   45CHL1   H2B 4485   1.154   4.801   5.784  0.3406 -2.8414 -0.1996
   45CHL1   C20 4486   1.162   4.589   4.831 -0.2872  0.8002 -0.0932
   45CHL1   H20 4487   1.265   4.552   4.851 -0.3469  1.1550  0.9398
   45CHL1   C21 4488   1.180   4.738   4.830  0.2698 -0.3009 -0.2097
   45CHL1  H21A 4489   1.110   4.805   4.886  0.8318 -0.6491  0.9343
   45CHL1  H21B 4490   1.178   4.794   4.734  0.7268  0.0181 -0.0388
   45CHL1  H21C 4491   1.285   4.756   4.860  0.5009  1.7078 -2.0172
   45CHL1   C22 4492   1.101   4.540   4.694  0.3122  0.8607  0.5780
   45CHL1  H22A 4493   1.167   4.576   4.612  0.3518  0.2402  0.3298
   45CHL1  H22B 4494   1.127   4.432   4.694 -0.0375  0.5767 -3.8188
   45CHL1   C23 4495   0.956   4.574   4.676  1.2622 -0.0623 -0.4147
   45CHL1  H23A 4496   0.906   4.524   4.761  1.7965  1.8977  1.1257
   45CHL1  H23B 4497   0.938   4.683   4.687 -2.8387 -0.5889 -0.4621
   45CHL1   C24 4498   0.898   4.529   4.534  0.4368  1.0385  0.6385
   45CHL1  H24A 4499   0.970   4.552   4.453 -0.3080  2.7068  0.4064
   45CHL1  H24B 4500   0.903   4.418   4.536  1.1631  1.0506 -0.1008
   45CHL1   C25 4501   0.757   4.589   4.495 -0.2959 -0.1193 -0.1460
   45CHL1   H25 4502   0.719   4.531   4.408 -1.6625  0.1379  0.2464
   45CHL1   C26 4503   0.641   4.556   4.605 -0.1142  0.6709 -0.2187
   45CHL1  H26A 4504   0.632   4.448   4.631  1.4958  0.6710  0.4138
   45CHL1  H26B 4505   0.669   4.608   4.699 -0.5204  0.0321  0.2637
   45CHL1  H26C 4506   0.547   4.591   4.556 -0.0275 -1.0431 -1.7101
   45CHL1   C27 4507   0.768   4.737   4.469  0.2144  0.1933  0.3435
   45CHL1  H27A 4508   0.679   4.791   4.430  0.8049  0.4277 -0.6929
   45CHL1  H27B 4509   0.808   4.793   4.556  2.8319 -0.5471 -0.3048
   45CHL1  H27C 4510   0.847   4.759   4.395 -0.5143  1.7875  0.0095
   46CHL1    C3 4511   1.988   6.137   5.943 -0.2944 -0.3619 -0.1159
   46CHL1    H3 4512   1.921   6.062   5.896 -1.0614 -0.0943  0.5138
   46CHL1    O3 4513   1.971   6.138   6.077  0.2822  0.6255 -0.1705
   46CHL1   H3' 4514   2.031   6.204   6.113  0.5801  0.1347  0.2475
   46CHL1    C4 4515   2.128   6.107   5.900  0.6525 -0.0071  0.0385
   46CHL1   H4A 4516   2.190   6.187   5.947  2.0737  0.5487 -2.5889
   46CHL1   H4B 4517   2.152   6.012   5.953  0.9512  0.1833  0.2518
   46CHL1    C5 4518   2.163   6.108   5.756 -0.0001  0.0410 -0.1327
   46CHL1    C6 4519   2.226   6.006   5.704  0.5050  0.4270  0.0337
   46CHL1    H6 4520   2.240   5.915   5.763  0.4108 -0.3215 -1.0612
   46CHL1    C7 4521   2.269   5.994   5.558  0.6594  0.1437 -0.0292
   46CHL1   H7A 4522   2.379   5.978   5.555  0.6932 -0.6755  2.8833
   46CHL1   H7B 4523   2.203   5.917   5.513  1.8018 -0.2865 -1.0436
   46CHL1    C8 4524   2.247   6.131   5.487 -0.4189  0.1216  0.2312
   46CHL1    H8 4525   2.329   6.197   5.522  0.6047 -1.3167  0.6749
   46CHL1   C14 4526   2.252   6.127   5.336 -0.3255 -0.2623 -0.4747
   46CHL1   H14 4527   2.161   6.065   5.316 -0.9877  0.7959 -0.8308
   46CHL1   C15 4528   2.363   6.052   5.261 -0.0818  0.1411  0.3908
   46CHL1  H15A 4529   2.464   6.098   5.267  0.1474 -0.4623  1.5526
   46CHL1  H15B 4530   2.377   5.948   5.295  0.4200  0.0354 -0.1187
   46CHL1   C16 4531   2.315   6.062   5.115 -0.3445  0.4875  0.1812
   46CHL1  H16A 4532   2.393   6.046   5.037 -0.4020 -1.2223  0.4474
   46CHL1  H16B 4533   2.241   5.985   5.088 -1.4078  1.7059 -0.4909
   46CHL1   C17 4534   2.241   6.206   5.109 -0.4943  0.5661 -0.1233
   46CHL1   H17 4535   2.134   6.181   5.091 -0.2045  0.0353 -1.2001
   46CHL1   C13 4536   2.231   6.262   5.251 -0.2767  0.2791  0.2720
   46CHL1   C18 4537   2.351   6.350   5.280 -0.6061 -0.5383 -0.0260
   46CHL1  H18A 4538   2.450   6.305   5.261  0.5753  1.2967  1.4254
   46CHL1  H18B 4539   2.340   6.448   5.228 -0.3172 -0.6994 -0.4008
   46CHL1  H18C 4540   2.360   6.370   5.389  0.0459 -3.1573  0.4639
   46CHL1   C12 4541   2.107   6.327   5.303  0.4571 -0.3434  0.4410
   46CHL1  H12A 4542   2.092   6.425   5.253  0.6516 -0.6566 -0.2410
   46CHL1  H12B 4543   2.018   6.265   5.276  1.3775 -1.0094 -1.1610
   46CHL1   C11 4544   2.110   6.342   5.458 -0.4838  0.4370  1.2447
   46CHL1  H11A 4545   2.198   6.408   5.477 -1.0472  1.9759 -1.0918
   46CHL1  H11B 4546   2.017   6.385   5.500 -0.7041 -1.5607  2.9801
   46CHL1    C9 4547   2.119   6.206   5.530 -0.8080  0.3428  0.3261
   46CHL1    H9 4548   2.030   6.141   5.512 -1.3592  0.8489  1.1806
   46CHL1   C10 4549   2.114   6.234   5.689 -0.2991 -0.1051  0.2622
   46CHL1   C19 4550   2.211   6.354   5.728  0.2121  0.1865 -0.2425
   46CHL1  H19A 4551   2.175   6.448   5.680 -0.6823  1.2217  2.2990
   46CHL1  H19B 4552   2.215   6.366   5.838  3.4962  0.9828 -0.3520
   46CHL1  H19C 4553   2.316   6.352   5.692  0.8596  0.7017  1.5236
   46CHL1    C1 4554   1.969   6.273   5.731 -0.0033 -0.5139  0.3438
   46CHL1   H1A 4555   1.956   6.378   5.695 -0.4753 -0.7255 -0.1084
   46CHL1   H1B 4556   1.884   6.209   5.698 -1.9556  1.4422  1.2512
   46CHL1    C2 4557   1.941   6.268   5.883  0.4418 -0.2479  0.4860
   46CHL1   H2A 4558   1.833   6.268   5.907  0.6314 -1.2891  1.4247
   46CHL1   H2B 4559   1.982   6.360   5.930  0.2291 -0.0533  0.2912
   46CHL1   C20 4560   2.301   6.308   5.007  0.9686 -0.3772  0.0859
   46CHL1   H20 4561   2.399   6.347   5.041 -0.1583  0.0664  3.1759
   46CHL1   C21 4562   2.197   6.424   4.996 -0.6258  0.1739  0.8780
   46CHL1  H21A 4563   2.196   6.502   5.076 -0.6385  0.9557  0.1335
   46CHL1  H21B 4564   2.095   6.381   5.001 -0.5055 -0.5212 -1.3575
   46CHL1  H21C 4565   2.203   6.484   4.902  0.6297  0.5530  1.1750
   46CHL1   C22 4566   2.322   6.243   4.870 -0.3791 -0.0533 -0.1257
   46CHL1  H22A 4567   2.354   6.325   4.803 -1.8973 -0.1940 -1.0824
   46CHL1  H22B 4568   2.409   6.174   4.873  0.9378  1.5221 -0.7856
   46CHL1   C23 4569   2.200   6.172   4.810  0.6757  0.4631  0.2840
   46CHL1  H23A 4570   2.187   6.065   4.838 -0.5387  0.1385 -1.3792
   46CHL1  H23B 4571   2.115   6.234   4.845 -0.3590 -1.6201  1.6190
   46CHL1   C24 4572   2.191   6.191   4.658  0.2175 -0.3626  0.3563
   46CHL1  H24A 4573   2.108   6.125   4.627  0.2268 -1.3632  2.2871
   46CHL1  H24B 4574   2.180   6.298   4.633  1.8877  0.0236  1.1261
   46CHL1   C25 4575   2.319   6.146   4.585 -0.0646  1.7216 -0.2200
   46CHL1   H25 4576   2.411   6.200   4.619  1.2663 -0.9929  0.7738
   46CHL1   C26 4577   2.329   5.996   4.608 -0.0783  0.6960 -0.3448
   46CHL1  H26A 4578   2.338   5.973   4.716 -1.5780  1.9547  0.0740
   46CHL1  H26B 4579   2.256   5.934   4.552 -0.1872  1.7060 -1.3425
   46CHL1  H26C 4580   2.422   5.955   4.563  2.3949  1.2868  3.6892
   46CHL1   C27 4581   2.310   6.163   4.430  0.3083  0.4169 -0.3745
   46CHL1  H27A 4582   2.393   6.141   4.360 -0.2002 -0.7513 -0.6357
   46CHL1  H27B 4583   2.221   6.110   4.389 -0.1286 -0.3079  1.4079
   46CHL1  H27C 4584   2.277   6.269   4.422 -0.0590  0.4116  0.8296
   47CHL1    C3 4585   4.778   5.629   6.386  0.4664  0.2634  0.0488
   47CHL1    H3 4586   4.753   5.521   6.380 -0.4227  0.4946 -0.6007
   47CHL1    O3 4587   4.761   5.671   6.515 -0.2685  0.1152  0.1770
   47CHL1   H3' 4588   4.680   5.624   6.536 -0.4393 -0.3392 -1.4048
   47CHL1    C4 4589   4.919   5.663   6.342 -0.2735  0.0942  0.5564
   47CHL1   H4A 4590   4.932   5.773   6.353  0.0339 -0.0826  2.1656
   47CHL1   H4B 4591   4.993   5.620   6.413  0.3434  1.8812  1.0349
   47CHL1    C5 4592   4.936   5.608   6.200  0.7308 -0.0421  0.1984
   47CHL1    C6 4593   5.030   5.517   6.174  0.3804 -0.2152  0.2632
   47CHL1    H6 4594   5.093   5.491   6.260  0.8495  1.1863  0.3768
   47CHL1    C7 4595   5.070   5.469   6.037 -0.4335  0.3896 -0.3229
   47CHL1   H7A 4596   5.181   5.455   6.033 -0.2860  1.4586 -0.3717
   47CHL1   H7B 4597   5.026   5.367   6.033 -0.5318  0.4149  0.0740
   47CHL1    C8 4598   5.009   5.553   5.926 -0.3780  0.6725 -0.1147
   47CHL1    H8 4599   5.066   5.647   5.914 -1.3952  1.2907 -0.2045
   47CHL1   C14 4600   5.015   5.476   5.792 -0.1287 -0.6998  0.0699
   47CHL1   H14 4601   4.942   5.393   5.802  2.4843 -3.5181 -2.3350
   47CHL1   C15 4602   5.145   5.403   5.751 -0.2047  0.0173 -0.1309
   47CHL1  H15A 4603   5.231   5.466   5.781 -1.0608  0.9357  0.4878
   47CHL1  H15B 4604   5.161   5.296   5.780  1.9794  0.2523 -0.3245
   47CHL1   C16 4605   5.149   5.403   5.594 -0.3720 -0.0432  0.6287
   47CHL1  H16A 4606   5.231   5.467   5.555 -0.6556 -1.0728 -1.8407
   47CHL1  H16B 4607   5.155   5.298   5.558  2.0604  0.7049 -1.5015
   47CHL1   C17 4608   5.005   5.459   5.551 -1.0264 -0.0482  0.0868
   47CHL1   H17 4609   4.940   5.368   5.556  0.4672 -1.4165 -2.9909
   47CHL1   C13 4610   4.966   5.557   5.669 -0.0308  0.0266 -0.4774
   47CHL1   C18 4611   5.046   5.693   5.650 -0.3521 -0.5271  0.7165
   47CHL1  H18A 4612   5.005   5.756   5.568  0.0463 -1.5523 -0.2865
   47CHL1  H18B 4613   5.039   5.764   5.736 -1.3177 -0.0650  0.2666
   47CHL1  H18C 4614   5.154   5.673   5.631 -0.2139  0.2281  0.6740
   47CHL1   C12 4615   4.817   5.580   5.696  0.4161 -0.7635  0.3528
   47CHL1  H12A 4616   4.776   5.628   5.605  0.7506 -2.7328 -0.8917
   47CHL1  H12B 4617   4.779   5.478   5.717  2.6722 -1.9925 -1.1666
   47CHL1   C11 4618   4.795   5.658   5.834  0.5053  0.3676  0.1731
   47CHL1  H11A 4619   4.829   5.762   5.816 -1.1780  0.8723 -0.2674
   47CHL1  H11B 4620   4.687   5.665   5.860  0.9242  3.0943  1.4760
   47CHL1    C9 4621   4.864   5.589   5.962  0.8667  0.7804 -0.2121
   47CHL1    H9 4622   4.808   5.495   5.982  0.7950  0.6713 -0.8830
   47CHL1   C10 4623   4.852   5.671   6.093  0.4255  0.0759  0.3824
   47CHL1   C19 4624   4.903   5.817   6.071 -0.5860  0.5508 -0.4485
   47CHL1  H19A 4625   4.884   5.881   6.160 -1.5779 -1.9071  1.1996
   47CHL1  H19B 4626   5.009   5.832   6.040  0.5388  1.6432  3.3427
   47CHL1  H19C 4627   4.838   5.879   6.005 -0.2645 -0.3246 -1.6148
   47CHL1    C1 4628   4.703   5.672   6.148 -0.0523  0.3151 -0.3560
   47CHL1   H1A 4629   4.636   5.737   6.087 -1.3462 -1.2582 -0.6561
   47CHL1   H1B 4630   4.654   5.573   6.146 -0.0197  0.2669  0.7066
   47CHL1    C2 4631   4.682   5.704   6.295  0.0116  0.0561  0.1839
   47CHL1   H2A 4632   4.578   5.683   6.329 -0.0911  3.1107  2.1361
   47CHL1   H2B 4633   4.690   5.813   6.315  2.1476  0.4490 -2.3067
   47CHL1   C20 4634   5.002   5.505   5.407 -0.4555  0.3611  0.0658
   47CHL1   H20 4635   4.930   5.589   5.401  0.4870  1.4497  2.6392
   47CHL1   C21 4636   4.973   5.381   5.319  0.7302 -0.9581 -0.6793
   47CHL1  H21A 4637   4.989   5.403   5.211 -1.7250  1.6797 -0.6363
   47CHL1  H21B 4638   4.862   5.371   5.317  0.4989  0.9797  0.1638
   47CHL1  H21C 4639   5.025   5.288   5.350  1.8042 -0.4543 -0.9265
   47CHL1   C22 4640   5.135   5.572   5.354  0.8076 -0.4105  0.2209
   47CHL1  H22A 4641   5.192   5.627   5.432  2.6345  2.4669 -2.9066
   47CHL1  H22B 4642   5.195   5.482   5.328  0.3201 -0.2676 -1.4574
   47CHL1   C23 4643   5.122   5.672   5.251  1.0659  0.4403 -0.0976
   47CHL1  H23A 4644   5.089   5.636   5.151 -2.4108  1.7256  0.4368
   47CHL1  H23B 4645   5.055   5.747   5.299  0.5653 -1.0822  1.7137
   47CHL1   C24 4646   5.260   5.744   5.217  0.5594 -0.1331 -0.5180
   47CHL1  H24A 4647   5.298   5.788   5.312 -0.0357 -1.4347  0.3558
   47CHL1  H24B 4648   5.341   5.680   5.176 -0.1257 -1.9745  0.8696
   47CHL1   C25 4649   5.241   5.865   5.121  0.1950  0.4092  0.3257
   47CHL1   H25 4650   5.141   5.910   5.138 -0.9197 -0.9629 -2.1418
   47CHL1   C26 4651   5.354   5.971   5.147 -0.1153  0.2271  1.0736
   47CHL1  H26A 4652   5.358   6.013   5.250 -0.2518 -0.6465  1.4446
   47CHL1  H26B 4653   5.446   5.920   5.114 -1.5402 -0.2063 -2.7488
   47CHL1  H26C 4654   5.327   6.056   5.080 -0.2928  0.0873  0.9667
   47CHL1   C27 4655   5.226   5.822   4.971 -0.0131  0.5064 -0.6554
   47CHL1  H27A 4656   5.209   5.916   4.914  0.4274  1.4582  0.7346
   47CHL1  H27B 4657   5.319   5.769   4.941  0.3436  0.9148 -0.2934
   47CHL1  H27C 4658   5.140   5.753   4.955  1.5425 -1.2668 -1.7495
   48CHL1    C3 4659   0.655   5.064   5.685 -0.0532  0.4638  0.0744
   48CHL1    H3 4660   0.545   5.058   5.670 -0.4846  0.2511  2.8409
   48CHL1    O3 4661   0.678   5.060   5.824 -0.1748  0.3060  0.1423
   48CHL1   H3' 4662   0.754   5.117   5.836 -1.3695  2.5027 -1.8956
   48CHL1    C4 4663   0.721   4.944   5.615 -0.6636  0.5733 -0.4090
   48CHL1   H4A 4664   0.821   4.925   5.661 -0.4696  2.2658 -0.0467
   48CHL1   H4B 4665   0.670   4.853   5.652  0.9284 -0.8828 -1.6267
   48CHL1    C5 4666   0.714   4.965   5.468  0.2397  0.2078  0.2018
   48CHL1    C6 4667   0.668   4.873   5.387  0.2763 -0.1896  0.0414
   48CHL1    H6 4668   0.625   4.784   5.434 -1.9795  0.0308 -1.4448
   48CHL1    C7 4669   0.689   4.878   5.238 -0.3162 -0.0380  0.5086
   48CHL1   H7A 4670   0.727   4.781   5.199 -0.0886 -0.1923  1.1056
   48CHL1   H7B 4671   0.588   4.886   5.191 -1.2317 -2.7447  1.7464
   48CHL1    C8 4672   0.784   4.998   5.193  0.2481 -0.1721 -0.4709
   48CHL1    H8 4673   0.887   4.965   5.218 -0.9206 -2.4655  1.8542
   48CHL1   C14 4674   0.774   5.014   5.039 -0.6213  0.0524 -0.3782
   48CHL1   H14 4675   0.670   5.051   5.028 -1.4531 -1.3060  2.1648
   48CHL1   C15 4676   0.790   4.888   4.945 -0.1587  1.1774  0.4927
   48CHL1  H15A 4677   0.860   4.809   4.980  0.5843  1.5300 -0.1737
   48CHL1  H15B 4678   0.687   4.847   4.939  0.2184  0.1423  0.8797
   48CHL1   C16 4679   0.834   4.959   4.810  0.0716  0.5306  0.2850
   48CHL1  H16A 4680   0.940   4.926   4.799  0.9485  2.8263  1.1934
   48CHL1  H16B 4681   0.775   4.937   4.719  1.1030 -0.9133 -0.0730
   48CHL1   C17 4682   0.840   5.110   4.837  0.0962 -1.1941  0.5851
   48CHL1   H17 4683   0.732   5.132   4.821  0.5940 -0.2541 -1.9313
   48CHL1   C13 4684   0.871   5.120   4.990  0.1582  0.1447  0.5256
   48CHL1   C18 4685   1.016   5.078   5.011 -0.3193 -0.2726  0.4196
   48CHL1  H18A 4686   1.029   4.973   5.043  1.4370 -0.3212 -0.3632
   48CHL1  H18B 4687   1.078   5.083   4.920  0.4812  0.3875  0.9798
   48CHL1  H18C 4688   1.075   5.145   5.078  1.4276 -0.2147 -1.0992
   48CHL1   C12 4689   0.835   5.255   5.056  0.2245  0.0441  0.2658
   48CHL1  H12A 4690   0.910   5.331   5.027 -0.1667  0.0395 -0.8129
   48CHL1  H12B 4691   0.735   5.288   5.020  0.0919 -0.7210 -0.0841
   48CHL1   C11 4692   0.830   5.241   5.212  0.5351 -0.0586 -0.0823
   48CHL1  H11A 4693   0.939   5.224   5.227  0.6509 -1.6666 -2.3564
   48CHL1  H11B 4694   0.802   5.338   5.259  1.3199 -0.3255  0.9888
   48CHL1    C9 4695   0.751   5.126   5.268 -0.0744  0.9007  0.1474
   48CHL1    H9 4696   0.642   5.146   5.254  0.3074  2.9062 -0.2520
   48CHL1   C10 4697   0.772   5.097   5.418 -0.7546 -0.2520  0.7008
   48CHL1   C19 4698   0.917   5.100   5.464 -0.9475 -0.1734  0.3011
   48CHL1  H19A 4699   0.972   5.019   5.413 -0.4065  1.4589 -1.8737
   48CHL1  H19B 4700   0.975   5.187   5.426  1.1497 -1.2558  0.8576
   48CHL1  H19C 4701   0.935   5.089   5.574 -0.5151 -0.0533  0.2439
   48CHL1    C1 4702   0.701   5.214   5.483  0.6346  0.2442 -0.1649
   48CHL1   H1A 4703   0.754   5.310   5.465  1.4048 -0.3383 -1.1535
   48CHL1   H1B 4704   0.593   5.215   5.455  0.1930  0.7185  1.4615
   48CHL1    C2 4705   0.700   5.204   5.636 -0.0530 -0.1009  0.3022
   48CHL1   H2A 4706   0.620   5.272   5.673 -1.0252 -0.0881 -1.6780
   48CHL1   H2B 4707   0.799   5.232   5.679  0.8266 -2.0398 -0.3462
   48CHL1   C20 4708   0.913   5.203   4.727  0.7628 -0.1026 -0.0992
   48CHL1   H20 4709   1.019   5.211   4.758  1.8054 -2.6241 -2.5298
   48CHL1   C21 4710   0.852   5.344   4.744  0.0662 -0.1005  0.1439
   48CHL1  H21A 4711   0.892   5.414   4.667 -0.0194  0.0519  0.2375
   48CHL1  H21B 4712   0.741   5.343   4.740  0.0620  0.1571  0.1667
   48CHL1  H21C 4713   0.877   5.382   4.845  1.4775 -0.7677  0.0788
   48CHL1   C22 4714   0.908   5.159   4.582 -0.2385 -0.6941 -0.3833
   48CHL1  H22A 4715   0.973   5.235   4.533 -0.4956 -1.2215 -1.5684
   48CHL1  H22B 4716   0.957   5.060   4.572 -1.8296 -1.4993 -0.5519
   48CHL1   C23 4717   0.774   5.155   4.517  0.9111  0.1428 -0.3800
   48CHL1  H23A 4718   0.696   5.103   4.576  1.4161 -1.7075 -1.2324
   48CHL1  H23B 4719   0.754   5.262   4.496  1.4836 -0.2099 -3.1023
   48CHL1   C24 4720   0.762   5.099   4.375 -0.2763 -0.7134  0.1334
   48CHL1  H24A 4721   0.845   5.145   4.317 -1.1985  1.0960  0.1637
   48CHL1  H24B 4722   0.779   4.990   4.370  2.4998 -0.3607  0.4201
   48CHL1   C25 4723   0.630   5.131   4.296  0.3326 -0.2159  0.2038
   48CHL1   H25 4724   0.545   5.115   4.366 -0.1085  1.3592  0.0629
   48CHL1   C26 4725   0.610   5.274   4.245  0.6653 -0.1598 -0.3594
   48CHL1  H26A 4726   0.691   5.313   4.180 -1.5512  2.4559 -1.7868
   48CHL1  H26B 4727   0.515   5.268   4.187  0.9156  0.1758 -0.8072
   48CHL1  H26C 4728   0.592   5.341   4.332  1.9384 -1.1573  0.7090
   48CHL1   C27 4729   0.614   5.023   4.188  0.1855  0.4582 -0.1773
   48CHL1  H27A 4730   0.700   5.021   4.118 -0.7710 -2.0374 -1.4144
   48CHL1  H27B 4731   0.625   4.928   4.244 -2.8686  0.7229  1.0856
   48CHL1  H27C 4732   0.520   5.016   4.129 -0.6496  1.0598  1.0304
   49CHL1    C3 4733   4.937   6.020   2.664  0.1984 -0.6590 -0.1372
   49CHL1    H3 4734   4.837   6.007   2.709 -0.2392 -1.1677 -1.2137
   49CHL1    O3 4735   4.935   6.031   2.523  0.0766 -0.1754  0.0978
   49CHL1   H3' 4736   4.884   5.954   2.498 -0.7574  0.1341  0.7989
   49CHL1    C4 4737   5.016   6.142   2.721  0.2291  0.1410  0.3174
   49CHL1   H4A 4738   5.116   6.144   2.673  0.0913 -0.1426  0.0140
   49CHL1   H4B 4739   4.957   6.232   2.692  0.5240 -0.1835 -1.4041
   49CHL1    C5 4740   5.032   6.124   2.869 -0.5385 -0.1895 -0.3867
   49CHL1    C6 4741   4.974   6.209   2.954  0.2527  0.1241 -0.1545
   49CHL1    H6 4742   4.923   6.298   2.915  0.2978  0.8533  1.3686
   49CHL1    C7 4743   4.980   6.208   3.100 -0.3157 -0.1479 -0.0431
   49CHL1   H7A 4744   4.988   6.315   3.126  0.9968  0.2511 -1.9237
   49CHL1   H7B 4745   4.883   6.170   3.140 -0.6543  0.0731 -0.6478
   49CHL1    C8 4746   5.098   6.115   3.143 -0.0581 -0.3558  0.5875
   49CHL1    H8 4747   5.194   6.163   3.114 -0.7428  1.2693  0.9061
   49CHL1   C14 4748   5.090   6.097   3.292 -0.5626  0.3322  0.3417
   49CHL1   H14 4749   4.994   6.042   3.295 -1.3885  1.7250 -0.0400
   49CHL1   C15 4750   5.087   6.220   3.384 -0.4462 -0.1989 -0.0280
   49CHL1  H15A 4751   5.174   6.280   3.350 -0.3947  0.4831  1.2383
   49CHL1  H15B 4752   5.002   6.291   3.379 -0.5280 -0.3582 -1.1288
   49CHL1   C16 4753   5.112   6.163   3.523 -0.0853 -0.2985 -0.5053
   49CHL1  H16A 4754   5.199   6.224   3.554 -0.9138  0.2276  0.8811
   49CHL1  H16B 4755   5.031   6.172   3.598  0.1442 -0.7755 -0.2001
   49CHL1   C17 4756   5.153   6.017   3.505  0.1643 -0.0727  0.1969
   49CHL1   H17 4757   5.073   5.942   3.524  0.7646 -1.8167 -3.3441
   49CHL1   C13 4758   5.191   6.000   3.348 -0.9552 -0.0981  0.2792
   49CHL1   C18 4759   5.338   6.043   3.319  0.2902 -0.1731  0.2784
   49CHL1  H18A 4760   5.360   6.068   3.213  0.9125 -1.6854  0.0219
   49CHL1  H18B 4761   5.364   6.134   3.379 -0.4494 -0.0916  0.4790
   49CHL1  H18C 4762   5.411   5.967   3.356 -0.3203 -0.1976  1.4866
   49CHL1   C12 4763   5.169   5.865   3.288 -0.2124 -0.7438  0.0613
   49CHL1  H12A 4764   5.233   5.785   3.331 -1.4487 -1.9146 -0.2196
   49CHL1  H12B 4765   5.068   5.834   3.321  0.3759 -1.4694  1.2683
   49CHL1   C11 4766   5.172   5.867   3.132 -0.0874  0.1777  0.7589
   49CHL1  H11A 4767   5.276   5.881   3.096 -1.3405  0.3052 -3.2850
   49CHL1  H11B 4768   5.137   5.765   3.103  0.8762  0.0611 -0.0561
   49CHL1    C9 4769   5.086   5.975   3.068 -0.5092  0.1020 -0.4476
   49CHL1    H9 4770   4.984   5.936   3.085 -0.3620 -0.4484 -0.8097
   49CHL1   C10 4771   5.106   5.995   2.917  0.8502  0.1698 -0.1002
   49CHL1   C19 4772   5.257   6.004   2.882  0.3216 -0.4434  0.0130
   49CHL1  H19A 4773   5.268   6.026   2.774 -1.0695 -1.6442 -0.4141
   49CHL1  H19B 4774   5.309   6.091   2.926  0.5735 -0.7414  0.3142
   49CHL1  H19C 4775   5.315   5.912   2.907  1.5789 -0.3537 -2.3437
   49CHL1    C1 4776   5.036   5.873   2.843 -0.3939  0.6904  0.0774
   49CHL1   H1A 4777   5.089   5.776   2.855 -1.4731 -0.5871 -4.0723
   49CHL1   H1B 4778   4.934   5.849   2.881 -0.6025 -1.1882 -1.5325
   49CHL1    C2 4779   5.015   5.899   2.693 -0.2042 -0.3173 -0.3414
   49CHL1   H2A 4780   4.968   5.814   2.640  1.8048 -1.7911  0.1053
   49CHL1   H2B 4781   5.115   5.919   2.649 -0.2934  1.4957  0.2045
   49CHL1   C20 4782   5.265   5.985   3.613 -0.4806  0.2454  0.5355
   49CHL1   H20 4783   5.346   6.060   3.601 -0.7429  0.5236  0.4970
   49CHL1   C21 4784   5.324   5.843   3.588 -0.3401  0.1296  0.2369
   49CHL1  H21A 4785   5.383   5.808   3.676  1.0115 -1.1635 -1.1453
   49CHL1  H21B 4786   5.382   5.835   3.494  1.2734  2.3203  0.9779
   49CHL1  H21C 4787   5.244   5.767   3.572 -0.3803  0.5562 -1.8304
   49CHL1   C22 4788   5.209   6.001   3.756  0.1546 -0.8677  0.0596
   49CHL1  H22A 4789   5.292   5.989   3.829  0.3648 -0.0259 -0.0345
   49CHL1  H22B 4790   5.167   6.100   3.783  1.5806 -0.7021  1.8179
   49CHL1   C23 4791   5.111   5.894   3.803  0.4034  0.1439  0.0250
   49CHL1  H23A 4792   5.029   5.891   3.728 -0.9589  1.3018  1.3912
   49CHL1  H23B 4793   5.162   5.795   3.802 -0.3250 -0.2440 -1.1916
   49CHL1   C24 4794   5.042   5.923   3.937  0.4068 -0.5082  0.4531
   49CHL1  H24A 4795   5.115   5.951   4.015 -1.2631  2.6111  1.0546
   49CHL1  H24B 4796   4.974   6.010   3.933  0.0058 -0.8147  0.4582
   49CHL1   C25 4797   4.947   5.809   3.986 -1.1395 -0.5656 -0.5125
   49CHL1   H25 4798   5.014   5.721   3.990 -2.5523 -1.9291 -3.6037
   49CHL1   C26 4799   4.887   5.846   4.120  0.1841  0.0823  0.0420
   49CHL1  H26A 4800   4.965   5.871   4.196  1.4148 -2.1342 -0.3886
   49CHL1  H26B 4801   4.814   5.929   4.112  0.1283  0.1834  1.4395
   49CHL1  H26C 4802   4.846   5.753   4.165 -0.2343 -0.0820 -0.6589
   49CHL1   C27 4803   4.832   5.766   3.893 -1.0082  0.0298  0.3686
   49CHL1  H27A 4804   4.774   5.850   3.848 -2.5618 -0.7773  0.7829
   49CHL1  H27B 4805   4.894   5.717   3.816  1.2036 -1.0793  2.7088
   49CHL1  H27C 4806   4.773   5.688   3.945  0.1075 -0.3059  1.1709
   50CHL1    C3 4807   3.739   4.065   2.857  0.4452  0.1337  0.1003
   50CHL1    H3 4808   3.817   4.144   2.857 -1.7466  2.4357  0.8366
   50CHL1    O3 4809   3.707   4.040   2.721  0.2633  0.5588 -0.2038
   50CHL1   H3' 4810   3.694   4.128   2.687 -1.4874  0.1327 -0.7115
   50CHL1    C4 4811   3.792   3.931   2.904 -0.1143  0.1727  0.2479
   50CHL1   H4A 4812   3.725   3.845   2.882  0.0351  0.4545 -1.4175
   50CHL1   H4B 4813   3.871   3.908   2.829 -0.3388 -2.0110  0.6019
   50CHL1    C5 4814   3.834   3.932   3.050 -0.0514 -0.4193 -0.7193
   50CHL1    C6 4815   3.952   3.891   3.094  0.1327 -0.2782  0.0392
   50CHL1    H6 4816   4.024   3.860   3.017 -0.6035  3.8061 -2.5799
   50CHL1    C7 4817   4.005   3.896   3.234 -0.7810  0.6024  0.3596
   50CHL1   H7A 4818   4.066   3.805   3.256 -2.3990 -0.1453  1.9765
   50CHL1   H7B 4819   4.068   3.987   3.225 -0.0002 -0.0606 -1.3129
   50CHL1    C8 4820   3.884   3.914   3.331  0.9077  0.3155 -0.7424
   50CHL1    H8 4821   3.844   3.814   3.360  0.2881  0.4754 -1.0154
   50CHL1   C14 4822   3.947   3.985   3.454  0.9391 -0.2999 -0.5050
   50CHL1   H14 4823   3.975   4.087   3.420 -1.3156  0.5149 -0.0565
   50CHL1   C15 4824   4.063   3.921   3.528  0.6519 -0.0524 -0.3015
   50CHL1  H15A 4825   4.039   3.813   3.543  4.5815 -0.9791  0.3183
   50CHL1  H15B 4826   4.155   3.939   3.469 -1.0571  2.1277 -2.5025
   50CHL1   C16 4827   4.071   3.985   3.672  0.0600  1.1510  0.2060
   50CHL1  H16A 4828   4.083   3.901   3.743 -0.1468 -1.3012 -2.4514
   50CHL1  H16B 4829   4.158   4.054   3.679  1.0429  0.3233 -2.4160
   50CHL1   C17 4830   3.942   4.069   3.679  0.3483  0.1601 -0.5429
   50CHL1   H17 4831   3.965   4.171   3.639  0.4572  0.7994  1.0752
   50CHL1   C13 4832   3.854   4.009   3.570 -0.2822  0.3552 -0.3647
   50CHL1   C18 4833   3.795   3.868   3.628 -0.2434 -0.1377  0.6505
   50CHL1  H18A 4834   3.870   3.794   3.664  1.2824  1.4425  0.8817
   50CHL1  H18B 4835   3.730   3.884   3.717  0.5310  2.5699  0.8306
   50CHL1  H18C 4836   3.739   3.816   3.548 -0.4677  0.5229  0.3719
   50CHL1   C12 4837   3.734   4.095   3.527 -0.3930 -0.0803 -0.3553
   50CHL1  H12A 4838   3.668   4.101   3.616 -1.5890  0.4093 -1.2457
   50CHL1  H12B 4839   3.760   4.200   3.504 -0.3790  0.4458  1.8522
   50CHL1   C11 4840   3.663   4.037   3.398  0.0241 -0.2318 -0.0128
   50CHL1  H11A 4841   3.616   3.941   3.430 -0.8763 -0.3061 -1.4428
   50CHL1  H11B 4842   3.583   4.106   3.362 -0.8595 -0.5843  1.1957
   50CHL1    C9 4843   3.777   4.011   3.283 -0.1755 -0.7095 -0.6377
   50CHL1    H9 4844   3.818   4.114   3.287  0.0884 -0.8434  2.1078
   50CHL1   C10 4845   3.724   3.986   3.140  0.8395 -0.9893  0.5995
   50CHL1   C19 4846   3.607   3.883   3.156 -0.4838  0.4088 -0.3528
   50CHL1  H19A 4847   3.648   3.796   3.212 -0.3223 -0.6384 -2.0114
   50CHL1  H19B 4848   3.515   3.929   3.197  0.9511  2.8061  0.3553
   50CHL1  H19C 4849   3.573   3.842   3.058 -1.3354 -0.3525  0.2523
   50CHL1    C1 4850   3.663   4.116   3.087  0.3727 -0.4676 -0.1685
   50CHL1   H1A 4851   3.583   4.159   3.150  0.7614  1.0084 -0.6422
   50CHL1   H1B 4852   3.739   4.197   3.086 -1.2994  1.2271  2.1718
   50CHL1    C2 4853   3.618   4.100   2.942  0.2209 -0.1606 -0.5189
   50CHL1   H2A 4854   3.575   4.200   2.921  2.9058  1.1881 -0.0791
   50CHL1   H2B 4855   3.537   4.025   2.934 -1.8402  1.1319  4.2391
   50CHL1   C20 4856   3.881   4.094   3.822 -0.4295  0.0881  0.3362
   50CHL1   H20 4857   3.771   4.102   3.810 -0.4322 -1.2662 -0.8633
   50CHL1   C21 4858   3.922   4.240   3.860  0.0437 -0.2381 -0.1475
   50CHL1  H21A 4859   3.864   4.316   3.804 -1.6729 -1.0115  0.5395
   50CHL1  H21B 4860   4.033   4.242   3.846 -0.1773 -0.9170 -2.2797
   50CHL1  H21C 4861   3.903   4.264   3.967 -1.7887  0.0844 -0.5200
   50CHL1   C22 4862   3.922   3.997   3.937  0.1038  0.4006  0.8659
   50CHL1  H22A 4863   3.905   3.892   3.905  2.4885 -0.0642  0.8970
   50CHL1  H22B 4864   4.031   4.016   3.951  0.3316  0.9504 -1.3554
   50CHL1   C23 4865   3.835   3.997   4.062 -0.2668 -0.2234 -0.2642
   50CHL1  H23A 4866   3.804   4.104   4.072  2.2643  0.6733 -1.1164
   50CHL1  H23B 4867   3.746   3.931   4.064 -0.9667  0.6925  1.5829
   50CHL1   C24 4868   3.909   3.961   4.189 -0.4148  0.1402  0.3751
   50CHL1  H24A 4869   3.980   3.875   4.184 -0.9183 -0.3166  0.9634
   50CHL1  H24B 4870   3.978   4.047   4.205 -0.2148  0.3092 -1.2417
   50CHL1   C25 4871   3.827   3.955   4.313 -0.5048  0.6488  0.4908
   50CHL1   H25 4872   3.770   4.050   4.321  0.1330  1.2291 -1.2322
   50CHL1   C26 4873   3.733   3.838   4.319  0.2949  0.8195 -1.3335
   50CHL1  H26A 4874   3.673   3.856   4.410 -0.6171 -1.8838 -1.3030
   50CHL1  H26B 4875   3.677   3.840   4.223 -1.0040  0.7198 -0.5971
   50CHL1  H26C 4876   3.783   3.740   4.336  2.9861  2.7216  4.1390
   50CHL1   C27 4877   3.913   3.947   4.442 -1.0327  0.2797 -0.5430
   50CHL1  H27A 4878   3.942   3.842   4.465  0.8874  0.5745 -1.4510
   50CHL1  H27B 4879   3.998   4.018   4.444 -2.2868  1.8229  0.5627
   50CHL1  H27C 4880   3.847   3.977   4.526 -1.0979 -1.0124 -0.1016
   51CHL1    C3 4881   4.894   5.041   2.717 -0.0831 -0.5481  0.5559
   51CHL1    H3 4882   5.002   5.054   2.699 -0.4031  0.0280 -1.0746
   51CHL1    O3 4883   4.818   5.057   2.595 -0.0241  0.8615 -0.1127
   51CHL1   H3' 4884   4.727   5.034   2.614 -0.3137  0.1321 -2.2127
   51CHL1    C4 4885   4.876   4.894   2.769  0.3140 -0.3127 -0.8584
   51CHL1   H4A 4886   4.771   4.858   2.761  1.1494 -2.6223 -2.4308
   51CHL1   H4B 4887   4.933   4.829   2.699  0.8054 -0.8065 -0.0118
   51CHL1    C5 4888   4.920   4.868   2.908  0.0495  0.2175  0.0872
   51CHL1    C6 4889   4.998   4.769   2.937 -0.7537  0.4398 -0.4995
   51CHL1    H6 4890   5.029   4.693   2.864  0.8504 -0.4805  1.0586
   51CHL1    C7 4891   5.060   4.739   3.074  0.2052 -0.2421  0.6246
   51CHL1   H7A 4892   5.059   4.631   3.098  1.2436 -0.2291  0.7648
   51CHL1   H7B 4893   5.165   4.775   3.069 -0.2886  1.1421 -0.6718
   51CHL1    C8 4894   4.986   4.806   3.193  0.1803  0.1594  0.1080
   51CHL1    H8 4895   4.888   4.754   3.202 -0.6141  1.1249 -2.2145
   51CHL1   C14 4896   5.077   4.802   3.311 -0.7784  0.4968 -0.6995
   51CHL1   H14 4897   5.162   4.867   3.282 -1.5997  1.9046 -0.0658
   51CHL1   C15 4898   5.117   4.662   3.356  0.2588 -0.4816  0.0537
   51CHL1  H15A 4899   5.024   4.600   3.353 -1.0938  1.4679 -0.1707
   51CHL1  H15B 4900   5.191   4.612   3.291  0.0920 -0.6925  0.0252
   51CHL1   C16 4901   5.166   4.683   3.503  0.3201  0.8281  0.3166
   51CHL1  H16A 4902   5.111   4.606   3.561 -0.8817 -1.3714 -3.3424
   51CHL1  H16B 4903   5.276   4.668   3.508  0.1964  0.3129  3.8549
   51CHL1   C17 4904   5.128   4.823   3.542 -0.6921  0.0784 -0.2155
   51CHL1   H17 4905   5.215   4.892   3.536 -1.1210  0.9729  2.4215
   51CHL1   C13 4906   5.027   4.869   3.437 -0.1250  0.0407  0.3478
   51CHL1   C18 4907   4.893   4.810   3.476 -0.5801 -0.1664 -0.0674
   51CHL1  H18A 4908   4.859   4.853   3.572 -0.4861 -0.8312  0.2694
   51CHL1  H18B 4909   4.814   4.830   3.400  0.6810  1.4058 -1.0251
   51CHL1  H18C 4910   4.909   4.702   3.494 -1.9930 -0.1314  1.6074
   51CHL1   C12 4911   5.007   5.017   3.409 -0.4428 -0.1217 -0.2927
   51CHL1  H12A 4912   4.949   5.070   3.488  0.4791 -1.1002  1.0855
   51CHL1  H12B 4913   5.105   5.068   3.414 -0.1017 -0.8916  1.4035
   51CHL1   C11 4914   4.914   5.040   3.284 -0.2502  0.2308 -0.0254
   51CHL1  H11A 4915   4.810   5.026   3.322  0.2357 -0.3656  1.1259
   51CHL1  H11B 4916   4.923   5.145   3.248 -0.2356 -0.1805 -1.2499
   51CHL1    C9 4917   4.961   4.952   3.161 -0.5154  0.1208  0.1141
   51CHL1    H9 4918   5.061   4.984   3.125 -0.6897 -1.7737 -2.2681
   51CHL1   C10 4919   4.884   4.967   3.023 -0.1220 -0.1140  0.2568
   51CHL1   C19 4920   4.731   4.948   3.045  0.2840 -0.8371  0.6814
   51CHL1  H19A 4921   4.699   4.843   3.060 -1.0247 -1.0911 -2.9173
   51CHL1  H19B 4922   4.703   5.016   3.129  0.1225  1.9514 -1.4781
   51CHL1  H19C 4923   4.668   4.975   2.957 -0.9115 -1.3879  1.3356
   51CHL1    C1 4924   4.913   5.110   2.964 -0.1348 -0.9447 -0.3579
   51CHL1   H1A 4925   4.870   5.186   3.033  1.6631  1.2111 -1.4644
   51CHL1   H1B 4926   5.023   5.121   2.959 -0.1783 -1.0418 -2.3773
   51CHL1    C2 4927   4.858   5.143   2.820  0.7787  0.1994 -0.5469
   51CHL1   H2A 4928   4.889   5.242   2.782 -0.8182  2.2082  2.9304
   51CHL1   H2B 4929   4.748   5.151   2.838  1.0497 -1.2612  2.3868
   51CHL1   C20 4930   5.096   4.834   3.692 -0.2164  0.5319 -0.1767
   51CHL1   H20 4931   4.997   4.785   3.704 -0.6952  1.4160 -0.4159
   51CHL1   C21 4932   5.091   4.982   3.729 -0.2022  0.3465  0.6287
   51CHL1  H21A 4933   5.035   5.049   3.660  0.3173  0.2211  0.0741
   51CHL1  H21B 4934   5.188   5.033   3.747 -0.9805  1.9160  0.6062
   51CHL1  H21C 4935   5.040   5.000   3.826 -1.3677  0.8526 -0.0604
   51CHL1   C22 4936   5.194   4.765   3.795 -0.4089 -0.5210  0.6602
   51CHL1  H22A 4937   5.189   4.657   3.771 -2.3214 -0.1042 -1.1115
   51CHL1  H22B 4938   5.297   4.790   3.761 -0.6318 -1.2233 -0.5753
   51CHL1   C23 4939   5.158   4.782   3.941  0.3118  0.4137 -0.0168
   51CHL1  H23A 4940   5.176   4.885   3.978  0.8165 -0.2779  1.7612
   51CHL1  H23B 4941   5.047   4.769   3.935  0.3091  0.3716  0.1211
   51CHL1   C24 4942   5.224   4.685   4.042  0.7931 -0.6343 -0.5368
   51CHL1  H24A 4943   5.255   4.588   3.998  1.4971 -1.3632  1.4570
   51CHL1  H24B 4944   5.324   4.729   4.066  0.8088 -1.2000  0.5012
   51CHL1   C25 4945   5.145   4.652   4.175 -0.2677 -0.0625 -0.1445
   51CHL1   H25 4946   5.201   4.579   4.239  0.9512  0.8400 -0.1348
   51CHL1   C26 4947   5.130   4.776   4.267  0.5339  0.6547 -0.2175
   51CHL1  H26A 4948   5.229   4.811   4.304  0.1308  1.2400  0.3288
   51CHL1  H26B 4949   5.070   4.845   4.204  0.2368  0.4707 -0.1397
   51CHL1  H26C 4950   5.077   4.754   4.363  1.0785  0.5692  0.0659
   51CHL1   C27 4951   5.016   4.577   4.155  0.5450 -0.2804  0.4141
   51CHL1  H27A 4952   4.965   4.557   4.252  0.3000  0.4570  0.4438
   51CHL1  H27B 4953   4.949   4.629   4.084  2.2160 -0.4018 -1.3266
   51CHL1  H27C 4954   5.041   4.482   4.103  0.5798 -1.1334  1.9234
   52CHL1    C3 4955   5.260   6.811   2.893 -0.2572  0.5205  0.0177
   52CHL1    H3 4956   5.166   6.823   2.950 -0.4932  0.6832 -0.3981
   52CHL1    O3 4957   5.245   6.864   2.762 -0.0345  0.0812 -0.4553
   52CHL1   H3' 4958   5.322   6.840   2.711 -0.1995 -1.0172 -0.2171
   52CHL1    C4 4959   5.380   6.871   2.960  0.8243 -0.1334 -0.5938
   52CHL1   H4A 4960   5.473   6.838   2.907  1.8150  1.4250  0.1000
   52CHL1   H4B 4961   5.387   6.982   2.952  0.3440  0.1530  2.2376
   52CHL1    C5 4962   5.385   6.817   3.099 -0.4262  0.1638  0.5076
   52CHL1    C6 4963   5.382   6.903   3.199 -0.6263  0.1049 -0.3256
   52CHL1    H6 4964   5.371   7.010   3.179  0.0659 -0.0492 -1.6113
   52CHL1    C7 4965   5.412   6.872   3.336 -0.0415  0.3777  0.1117
   52CHL1   H7A 4966   5.497   6.933   3.374 -0.4603  0.4848  0.8916
   52CHL1   H7B 4967   5.325   6.897   3.399  1.0981 -0.9331  2.3409
   52CHL1    C8 4968   5.458   6.731   3.367  0.9705 -0.1420  0.3535
   52CHL1    H8 4969   5.567   6.724   3.347  1.0553 -0.1498  0.7969
   52CHL1   C14 4970   5.443   6.701   3.517  0.0166  0.4001  0.0766
   52CHL1   H14 4971   5.335   6.711   3.543 -0.8231 -2.4904 -1.8796
   52CHL1   C15 4972   5.515   6.782   3.628  0.4591  0.1890  0.1370
   52CHL1  H15A 4973   5.623   6.785   3.601  0.0851 -0.5215 -1.5565
   52CHL1  H15B 4974   5.464   6.880   3.640 -1.6273 -0.7357 -0.6951
   52CHL1   C16 4975   5.489   6.694   3.749 -0.1917  0.3458 -0.0286
   52CHL1  H16A 4976   5.582   6.692   3.809  1.1914  0.2637 -2.0669
   52CHL1  H16B 4977   5.408   6.748   3.803  0.9597  1.8095  0.3156
   52CHL1   C17 4978   5.442   6.549   3.702  0.6976  0.1636 -0.2240
   52CHL1   H17 4979   5.331   6.560   3.700  0.7573  1.1135  0.9039
   52CHL1   C13 4980   5.475   6.551   3.551 -0.1039  0.1528  0.5013
   52CHL1   C18 4981   5.627   6.522   3.527 -0.8981  0.3035 -0.0615
   52CHL1  H18A 4982   5.687   6.558   3.614  0.4769  0.8121 -1.1848
   52CHL1  H18B 4983   5.659   6.421   3.494  1.6389  0.8301  0.5577
   52CHL1  H18C 4984   5.677   6.577   3.445  1.0586 -1.3259 -0.0595
   52CHL1   C12 4985   5.386   6.458   3.459 -0.7403 -0.4396  0.5205
   52CHL1  H12A 4986   5.412   6.350   3.461  0.7397 -0.1179  0.0567
   52CHL1  H12B 4987   5.280   6.478   3.485  0.3121  2.7568  3.0031
   52CHL1   C11 4988   5.409   6.494   3.308 -0.4917  0.6639  0.0308
   52CHL1  H11A 4989   5.514   6.470   3.281 -1.4932 -2.0234 -1.8684
   52CHL1  H11B 4990   5.355   6.428   3.237  2.1860 -1.9730  0.2226
   52CHL1    C9 4991   5.376   6.641   3.276 -0.3391 -0.2359 -0.6003
   52CHL1    H9 4992   5.270   6.664   3.300  0.7800  2.8321  2.1065
   52CHL1   C10 4993   5.394   6.665   3.123  0.2714 -0.6232  0.7103
   52CHL1   C19 4994   5.543   6.651   3.081 -0.8735  0.6924  0.2858
   52CHL1  H19A 4995   5.559   6.541   3.085  0.8243  0.9241  0.2848
   52CHL1  H19B 4996   5.559   6.665   2.972 -2.0849  0.7587  0.0986
   52CHL1  H19C 4997   5.615   6.698   3.151 -2.0834  0.4718  1.7232
   52CHL1    C1 4998   5.290   6.596   3.031 -0.2089  0.2531 -0.3579
   52CHL1   H1A 4999   5.295   6.485   3.033  0.6380  0.2169 -2.1712
   52CHL1   H1B 5000   5.194   6.618   3.084  0.1530 -1.3711  1.0507
   52CHL1    C2 5001   5.284   6.655   2.893  0.1037 -0.0121  0.4280
   52CHL1   H2A 5002   5.201   6.614   2.831  0.1633  1.1713 -0.4718
   52CHL1   H2B 5003   5.375   6.631   2.834 -0.0090  0.1078  0.2011
   52CHL1   C20 5004   5.484   6.426   3.791  0.2716 -0.1440 -0.2679
   52CHL1   H20 5005   5.593   6.406   3.779  0.8965  2.0364  1.1054
   52CHL1   C21 5006   5.411   6.293   3.744 -0.0767  0.1137 -0.7506
   52CHL1  H21A 5007   5.447   6.202   3.797 -1.1827  0.3059  0.3745
   52CHL1  H21B 5008   5.430   6.264   3.638  1.3385 -1.1289 -0.2039
   52CHL1  H21C 5009   5.303   6.310   3.760  0.0075 -0.5941  0.7437
   52CHL1   C22 5010   5.450   6.458   3.934 -0.2958  0.2691 -0.9662
   52CHL1  H22A 5011   5.498   6.552   3.968 -0.2663 -0.3333  0.7721
   52CHL1  H22B 5012   5.343   6.486   3.946 -0.1070 -0.1290  2.9239
   52CHL1   C23 5013   5.472   6.349   4.042  0.2580  0.0973 -0.4883
   52CHL1  H23A 5014   5.436   6.249   4.009 -2.0638  0.7151 -0.0117
   52CHL1  H23B 5015   5.580   6.340   4.068 -0.1088  2.6714  2.4077
   52CHL1   C24 5016   5.395   6.384   4.177 -0.7647  0.1543  0.0823
   52CHL1  H24A 5017   5.438   6.313   4.252 -1.4601 -0.7097 -0.3347
   52CHL1  H24B 5018   5.417   6.490   4.204  1.6972 -0.5820  1.3306
   52CHL1   C25 5019   5.235   6.374   4.170 -0.3892 -0.0979 -0.4905
   52CHL1   H25 5020   5.201   6.461   4.111  1.4191 -0.1829 -1.7268
   52CHL1   C26 5021   5.188   6.242   4.107 -0.5326  0.5330 -0.3056
   52CHL1  H26A 5022   5.080   6.232   4.132 -1.0166  2.6979 -1.2875
   52CHL1  H26B 5023   5.194   6.243   3.996 -0.6867 -2.3557 -0.4149
   52CHL1  H26C 5024   5.254   6.163   4.147 -1.7256 -0.7551 -0.8082
   52CHL1   C27 5025   5.185   6.390   4.314 -0.0008  1.0485 -0.0203
   52CHL1  H27A 5026   5.075   6.372   4.309  0.5572 -3.1560 -2.2340
   52CHL1  H27B 5027   5.207   6.300   4.376 -0.5967  0.6856 -0.3195
   52CHL1  H27C 5028   5.213   6.488   4.357  1.3587  1.2928 -1.3537
   53CHL1    C3 5029   4.310   4.830   2.933  0.1362 -0.3030  0.1145
   53CHL1    H3 5030   4.391   4.906   2.922  0.6546 -0.6873  1.0720
   53CHL1    O3 5031   4.310   4.759   2.815 -0.6288  0.0755  0.3791
   53CHL1   H3' 5032   4.229   4.709   2.819 -2.5664  2.9794  4.3203
   53CHL1    C4 5033   4.352   4.739   3.053  0.1804  0.6013  0.6175
   53CHL1   H4A 5034   4.280   4.654   3.061 -0.8187  1.4837  1.3175
   53CHL1   H4B 5035   4.451   4.698   3.027  0.1416  0.8343  0.1014
   53CHL1    C5 5036   4.364   4.815   3.183 -0.0276  0.0682 -0.5367
   53CHL1    C6 5037   4.485   4.814   3.251 -0.3068  0.1888  0.0707
   53CHL1    H6 5038   4.578   4.764   3.219 -0.1880 -1.6933  3.0052
   53CHL1    C7 5039   4.500   4.901   3.374 -0.1643 -0.5618  0.6018
   53CHL1   H7A 5040   4.533   4.829   3.451 -0.8715 -1.6302 -0.0613
   53CHL1   H7B 5041   4.577   4.981   3.370  0.7870 -1.4691  0.3504
   53CHL1    C8 5042   4.369   4.958   3.441  0.0690  0.2165  0.7309
   53CHL1    H8 5043   4.317   4.873   3.490  1.2221 -0.4969  0.7526
   53CHL1   C14 5044   4.396   5.059   3.552  0.1840  0.5794 -0.0482
   53CHL1   H14 5045   4.437   5.150   3.504 -0.6653  1.6059  1.1171
   53CHL1   C15 5046   4.495   5.011   3.657  0.7239 -0.1704 -0.2043
   53CHL1  H15A 5047   4.474   4.907   3.690 -0.3214 -0.2527 -1.0539
   53CHL1  H15B 5048   4.600   5.007   3.620 -0.0227 -0.1467 -2.4977
   53CHL1   C16 5049   4.473   5.113   3.768  0.2762 -0.2214 -0.2685
   53CHL1  H16A 5050   4.460   5.066   3.868 -0.7590  1.1306  0.2595
   53CHL1  H16B 5051   4.553   5.188   3.788  0.0297 -0.3234  1.2582
   53CHL1   C17 5052   4.348   5.189   3.723  0.8659  0.3782 -0.6054
   53CHL1   H17 5053   4.372   5.284   3.670 -3.2181  1.1846 -1.3313
   53CHL1   C13 5054   4.275   5.102   3.623 -0.7372  0.0652  0.0829
   53CHL1   C18 5055   4.204   4.988   3.702 -0.2620 -0.0008 -0.1716
   53CHL1  H18A 5056   4.161   4.911   3.634  2.9110 -2.1005 -0.0376
   53CHL1  H18B 5057   4.268   4.929   3.772 -1.1869 -2.2962 -1.1443
   53CHL1  H18C 5058   4.112   5.020   3.755  0.4550  0.5638  0.7665
   53CHL1   C12 5059   4.178   5.173   3.519 -0.1637 -0.4357 -0.6294
   53CHL1  H12A 5060   4.082   5.178   3.575  0.5115  3.6768  0.5037
   53CHL1  H12B 5061   4.201   5.278   3.492  0.0597 -0.3029  0.0558
   53CHL1   C11 5062   4.147   5.077   3.401  0.2838 -0.6099 -0.5039
   53CHL1  H11A 5063   4.079   4.996   3.436  0.7460 -0.7572  0.0810
   53CHL1  H11B 5064   4.092   5.141   3.329 -0.1335  0.7797  0.9936
   53CHL1    C9 5065   4.270   5.005   3.338  0.2894  0.2204  0.4629
   53CHL1    H9 5066   4.314   5.095   3.289  0.1150 -0.5431 -1.1819
   53CHL1   C10 5067   4.240   4.903   3.228  0.3059 -0.1701 -0.0039
   53CHL1   C19 5068   4.128   4.792   3.275  0.0190 -0.0259 -0.1271
   53CHL1  H19A 5069   4.036   4.854   3.279 -1.2156 -1.6658 -1.4655
   53CHL1  H19B 5070   4.112   4.721   3.191 -2.4962  2.3525 -1.8540
   53CHL1  H19C 5071   4.142   4.753   3.378 -0.5185  0.5383  0.1618
   53CHL1    C1 5072   4.197   4.989   3.101  0.3477  0.1865 -0.0626
   53CHL1   H1A 5073   4.097   5.032   3.123 -1.0125 -2.9679  0.3806
   53CHL1   H1B 5074   4.278   5.063   3.081  0.0588  0.1243 -1.5841
   53CHL1    C2 5075   4.186   4.911   2.970  0.2201 -0.9865 -0.3016
   53CHL1   H2A 5076   4.143   4.974   2.889  0.5517 -1.3168 -0.7386
   53CHL1   H2B 5077   4.094   4.849   2.981 -1.6034  1.7182  0.5976
   53CHL1   C20 5078   4.276   5.254   3.843 -0.1780  0.7362  0.3631
   53CHL1   H20 5079   4.243   5.175   3.914 -0.5863  0.8185  0.2670
   53CHL1   C21 5080   4.148   5.333   3.800 -0.4858  1.1544  0.4896
   53CHL1  H21A 5081   4.170   5.387   3.706 -0.0991 -1.2610 -0.9076
   53CHL1  H21B 5082   4.108   5.399   3.880  1.2189 -0.3241  2.7132
   53CHL1  H21C 5083   4.076   5.250   3.781  3.1744 -1.9393 -1.2965
   53CHL1   C22 5084   4.375   5.352   3.912  0.5530 -0.6391  0.2151
   53CHL1  H22A 5085   4.483   5.326   3.922  1.0796  1.3018 -0.0732
   53CHL1  H22B 5086   4.380   5.439   3.843  1.3395  0.1132  1.1946
   53CHL1   C23 5087   4.335   5.402   4.054 -0.0093  0.5430  0.9010
   53CHL1  H23A 5088   4.263   5.486   4.053 -0.2321  0.4432 -2.2621
   53CHL1  H23B 5089   4.276   5.313   4.085  1.0342 -0.8556 -0.9491
   53CHL1   C24 5090   4.462   5.428   4.136 -0.4593 -0.4010 -0.6457
   53CHL1  H24A 5091   4.528   5.338   4.135 -0.2534 -0.2503 -0.7229
   53CHL1  H24B 5092   4.509   5.517   4.088 -2.6230  0.2634 -1.6721
   53CHL1   C25 5093   4.447   5.474   4.287  0.4483 -0.7322  0.4703
   53CHL1   H25 5094   4.385   5.566   4.277 -1.2998 -2.1050 -2.7969
   53CHL1   C26 5095   4.374   5.361   4.363  0.2738 -0.4021 -0.6405
   53CHL1  H26A 5096   4.422   5.261   4.373  0.2189 -0.3118  0.8587
   53CHL1  H26B 5097   4.348   5.395   4.466  1.1930  1.2131 -0.9155
   53CHL1  H26C 5098   4.273   5.339   4.322  0.9971 -0.2446 -2.5667
   53CHL1   C27 5099   4.585   5.516   4.347 -0.5256  0.0331 -0.4747
   53CHL1  H27A 5100   4.571   5.569   4.444  0.2858  1.8818 -1.3368
   53CHL1  H27B 5101   4.649   5.427   4.369 -1.4152 -0.3471  0.7142
   53CHL1  H27C 5102   4.645   5.592   4.293  1.0510  0.0159  1.1289
   54CHL1    C3 5103   4.508   5.788   2.565 -0.4945 -0.0063  0.1920
   54CHL1    H3 5104   4.594   5.734   2.520 -0.1773  0.5888  0.0818
   54CHL1    O3 5105   4.428   5.845   2.462  0.4455  0.3977 -0.2908
   54CHL1   H3' 5106   4.383   5.769   2.425  1.7563 -0.6344  0.1300
   54CHL1    C4 5107   4.415   5.694   2.641 -0.1634  0.2362  0.3559
   54CHL1   H4A 5108   4.322   5.747   2.669 -1.0304 -1.1587  0.2198
   54CHL1   H4B 5109   4.380   5.613   2.573 -1.4942 -0.9774  2.3932
   54CHL1    C5 5110   4.477   5.632   2.761  0.0563 -0.2463  0.0728
   54CHL1    C6 5111   4.491   5.499   2.765 -0.5477  0.3797 -0.2688
   54CHL1    H6 5112   4.459   5.434   2.682  0.1855  0.0562 -0.3068
   54CHL1    C7 5113   4.555   5.427   2.875 -0.7058  0.9824 -0.4195
   54CHL1   H7A 5114   4.495   5.341   2.912 -2.1443  1.3161 -1.8608
   54CHL1   H7B 5115   4.659   5.393   2.855 -0.8338 -0.4360  1.1381
   54CHL1    C8 5116   4.575   5.519   3.005  0.2543  0.4872 -0.3171
   54CHL1    H8 5117   4.473   5.531   3.048  0.1644 -1.2583  0.0276
   54CHL1   C14 5118   4.651   5.451   3.122  0.7104  0.0813 -0.1737
   54CHL1   H14 5119   4.751   5.439   3.075  0.6477  3.2244 -1.3471
   54CHL1   C15 5120   4.611   5.319   3.174  0.0593 -0.6847  0.2058
   54CHL1  H15A 5121   4.503   5.292   3.172 -0.2776  0.6465 -0.5591
   54CHL1  H15B 5122   4.657   5.241   3.109 -0.7538  0.3982 -1.7507
   54CHL1   C16 5123   4.660   5.315   3.320  0.4175 -0.1332 -0.6938
   54CHL1  H16A 5124   4.575   5.304   3.390  1.6806 -0.1249  0.9056
   54CHL1  H16B 5125   4.725   5.228   3.346 -2.8920 -2.6488 -0.1826
   54CHL1   C17 5126   4.735   5.451   3.353 -0.1369 -0.2411 -0.3614
   54CHL1   H17 5127   4.844   5.442   3.331  0.0500  1.6458 -0.4516
   54CHL1   C13 5128   4.665   5.541   3.248 -0.0708  0.7106  0.6990
   54CHL1   C18 5129   4.522   5.575   3.306  0.1817 -0.1857 -0.1987
   54CHL1  H18A 5130   4.462   5.620   3.224 -0.3107 -3.7600 -1.9811
   54CHL1  H18B 5131   4.473   5.485   3.350  1.4153 -0.6358  0.2852
   54CHL1  H18C 5132   4.533   5.652   3.386  1.8577  1.9750 -2.3761
   54CHL1   C12 5133   4.739   5.667   3.208 -0.0986 -0.3095  0.2617
   54CHL1  H12A 5134   4.750   5.738   3.293 -1.5524  0.0728  0.1638
   54CHL1  H12B 5135   4.841   5.638   3.174  0.4159  1.8157 -0.1526
   54CHL1   C11 5136   4.674   5.739   3.088 -0.3409 -0.0368 -0.1660
   54CHL1  H11A 5137   4.581   5.789   3.120 -0.6701 -0.1844 -0.8603
   54CHL1  H11B 5138   4.748   5.806   3.039 -0.5655  0.3441  0.0148
   54CHL1    C9 5139   4.630   5.652   2.969  0.2293  0.0538 -0.7810
   54CHL1    H9 5140   4.726   5.621   2.921 -0.8240 -2.0648 -1.6059
   54CHL1   C10 5141   4.536   5.725   2.865 -0.1522 -0.3161 -0.3576
   54CHL1   C19 5142   4.419   5.802   2.933  0.8338  0.1298 -0.0774
   54CHL1  H19A 5143   4.349   5.723   2.968  0.5791  0.2160 -0.3927
   54CHL1  H19B 5144   4.450   5.871   3.014 -0.3890  0.2676  0.2953
   54CHL1  H19C 5145   4.360   5.869   2.867 -0.8576  0.8521  2.0617
   54CHL1    C1 5146   4.633   5.825   2.784  0.1298 -0.1654 -0.0890
   54CHL1   H1A 5147   4.677   5.906   2.846  1.9750  1.7456 -3.6219
   54CHL1   H1B 5148   4.718   5.763   2.750 -0.3420 -1.0050  0.2344
   54CHL1    C2 5149   4.559   5.890   2.669  1.0032  0.4517  0.3827
   54CHL1   H2A 5150   4.637   5.951   2.618  0.7296 -0.5949 -1.3455
   54CHL1   H2B 5151   4.477   5.952   2.709  0.4221 -0.3429  0.4462
   54CHL1   C20 5152   4.722   5.485   3.505 -0.4169 -0.5033 -1.2685
   54CHL1   H20 5153   4.618   5.496   3.541  0.5930  0.2617  1.7281
   54CHL1   C21 5154   4.794   5.623   3.525  0.3048  0.4241  0.1895
   54CHL1  H21A 5155   4.840   5.631   3.626  0.5413  0.2848  0.0953
   54CHL1  H21B 5156   4.729   5.709   3.500 -1.1124 -0.5562  0.3955
   54CHL1  H21C 5157   4.880   5.622   3.454  0.1184  1.6304 -0.0708
   54CHL1   C22 5158   4.776   5.368   3.593 -0.1176 -0.0817  0.4388
   54CHL1  H22A 5159   4.697   5.290   3.581  0.7242 -1.2544  2.0644
   54CHL1  H22B 5160   4.874   5.326   3.561 -0.1874 -0.2679  0.4649
   54CHL1   C23 5161   4.789   5.397   3.740  0.0460  0.2264  0.0501
   54CHL1  H23A 5162   4.868   5.473   3.761  0.9490 -0.6746 -0.0409
   54CHL1  H23B 5163   4.695   5.435   3.785 -1.2308  0.1600 -2.4487
   54CHL1   C24 5164   4.830   5.273   3.823 -0.6496 -0.6222  0.1453
   54CHL1  H24A 5165   4.758   5.191   3.805  0.6212 -1.3832 -1.7966
   54CHL1  H24B 5166   4.932   5.239   3.795 -0.3096  2.4176 -2.9927
   54CHL1   C25 5167   4.810   5.295   3.978 -0.6600  0.3977  0.2338
   54CHL1   H25 5168   4.721   5.361   3.989 -0.7143  0.2827  0.5068
   54CHL1   C26 5169   4.790   5.160   4.056  1.0075  0.3547  0.4076
   54CHL1  H26A 5170   4.816   5.173   4.163  1.5549 -1.4250  0.5100
   54CHL1  H26B 5171   4.690   5.114   4.042  1.8875 -0.8023 -3.4929
   54CHL1  H26C 5172   4.868   5.095   4.011  1.4024  0.5404  0.8138
   54CHL1   C27 5173   4.939   5.350   4.048  0.5660  0.0939 -0.9689
   54CHL1  H27A 5174   4.909   5.372   4.152  1.7196  0.3138 -0.6612
   54CHL1  H27B 5175   5.024   5.279   4.033  0.8867  0.5521 -1.3496
   54CHL1  H27C 5176   4.965   5.445   3.997  1.4918  1.7650  2.3511
   55CHL1    C3 5177   4.956   2.403   2.771 -0.3300  0.3982  0.4277
   55CHL1    H3 5178   4.849   2.433   2.774 -1.4728 -3.1691  0.7289
   55CHL1    O3 5179   4.998   2.398   2.631 -0.4961  0.1838  0.2015
   55CHL1   H3' 5180   5.065   2.465   2.613 -1.1340  0.9479  0.6350
   55CHL1    C4 5181   5.052   2.497   2.843  0.3257  0.0919  0.4647
   55CHL1   H4A 5182   5.156   2.471   2.815 -0.1034 -1.1592 -0.0811
   55CHL1   H4B 5183   5.047   2.597   2.795  1.3481  0.1791  0.5271
   55CHL1    C5 5184   5.026   2.499   2.991 -0.0718  0.3776 -0.8779
   55CHL1    C6 5185   4.994   2.608   3.064  0.5357  0.9995 -0.5913
   55CHL1    H6 5186   4.985   2.705   3.012 -0.6662  1.0975 -0.2285
   55CHL1    C7 5187   4.966   2.600   3.210 -0.5950 -0.0255 -0.0338
   55CHL1   H7A 5188   5.011   2.688   3.262  0.2755 -0.4734 -0.0042
   55CHL1   H7B 5189   4.856   2.614   3.212 -1.1956 -3.2236 -2.4243
   55CHL1    C8 5190   4.997   2.474   3.284  0.4436 -0.9690  0.3834
   55CHL1    H8 5191   5.107   2.476   3.302  0.6745 -2.0026 -0.7529
   55CHL1   C14 5192   4.935   2.473   3.419  0.0879  1.0660 -1.1443
   55CHL1   H14 5193   4.827   2.469   3.394  0.0445 -2.6043 -0.8875
   55CHL1   C15 5194   4.964   2.588   3.521  0.0111  0.5204  1.0110
   55CHL1  H15A 5195   5.074   2.605   3.524 -0.0211  0.9197  0.2112
   55CHL1  H15B 5196   4.909   2.679   3.488 -0.5537  0.3262  1.4038
   55CHL1   C16 5197   4.916   2.532   3.659  0.4989 -0.2232 -0.3069
   55CHL1  H16A 5198   4.998   2.542   3.733  1.3616 -0.0039 -1.2718
   55CHL1  H16B 5199   4.824   2.584   3.696 -0.3104 -0.8647 -1.3590
   55CHL1   C17 5200   4.889   2.381   3.633  0.3158  0.1723  0.5197
   55CHL1   H17 5201   4.780   2.373   3.614  0.0247 -0.7961  2.3126
   55CHL1   C13 5202   4.962   2.350   3.500  0.3561  0.0634  0.1302
   55CHL1   C18 5203   5.109   2.335   3.531 -0.7489  0.5903 -0.1969
   55CHL1  H18A 5204   5.123   2.239   3.586 -2.1705  1.2381  1.3685
   55CHL1  H18B 5205   5.186   2.349   3.452 -1.4532  0.4183 -0.9230
   55CHL1  H18C 5206   5.134   2.409   3.610  1.2362  0.0314 -0.2421
   55CHL1   C12 5207   4.917   2.231   3.415  0.3895 -0.0796 -0.3286
   55CHL1  H12A 5208   4.935   2.137   3.470 -1.1358 -0.6577 -0.7382
   55CHL1  H12B 5209   4.807   2.236   3.396  0.3323 -2.4502 -0.9188
   55CHL1   C11 5210   4.981   2.224   3.274 -0.5204  0.2406  0.3052
   55CHL1  H11A 5211   5.086   2.196   3.295 -0.2717  1.4276  0.7252
   55CHL1  H11B 5212   4.946   2.132   3.223  1.0904  0.4659 -1.2849
   55CHL1    C9 5213   4.959   2.355   3.194  0.1068  0.6773 -0.4040
   55CHL1    H9 5214   4.849   2.369   3.185 -0.5263 -2.1381  1.5916
   55CHL1   C10 5215   5.027   2.355   3.053 -0.0139  0.4955 -0.1861
   55CHL1   C19 5216   5.163   2.297   3.047 -0.3508 -0.0505  0.2976
   55CHL1  H19A 5217   5.210   2.284   2.948  1.4962  0.2177  1.0912
   55CHL1  H19B 5218   5.230   2.353   3.115 -0.6186 -1.4874  1.8304
   55CHL1  H19C 5219   5.161   2.194   3.091  0.6191 -0.1136  0.2080
   55CHL1    C1 5220   4.933   2.261   2.968 -0.8569  0.9626 -0.2722
   55CHL1   H1A 5221   4.943   2.163   3.018  3.7234 -0.0667 -2.6415
   55CHL1   H1B 5222   4.826   2.290   2.981 -1.4749 -1.1578 -0.1975
   55CHL1    C2 5223   4.968   2.259   2.825  0.1342 -0.2097  0.8624
   55CHL1   H2A 5224   4.906   2.188   2.768  0.3666 -0.5554  1.0346
   55CHL1   H2B 5225   5.075   2.241   2.800 -0.5343 -1.8117 -1.0670
   55CHL1   C20 5226   4.911   2.301   3.766  0.4512  0.1788  0.0213
   55CHL1   H20 5227   5.019   2.284   3.789  0.5460 -0.0826 -0.5895
   55CHL1   C21 5228   4.850   2.159   3.746 -0.5516  0.3337 -0.3411
   55CHL1  H21A 5229   4.897   2.105   3.661 -1.5134 -1.6069  0.3034
   55CHL1  H21B 5230   4.739   2.170   3.752 -0.3737  1.4344  1.3451
   55CHL1  H21C 5231   4.879   2.095   3.832 -1.3069 -0.9262 -0.9839
   55CHL1   C22 5232   4.851   2.358   3.895  0.4307  0.5764  0.8239
   55CHL1  H22A 5233   4.872   2.467   3.890  0.7672  0.4807 -3.1572
   55CHL1  H22B 5234   4.741   2.354   3.879  0.5684  0.5265 -0.1467
   55CHL1   C23 5235   4.907   2.292   4.027  0.4932  0.1638  0.1489
   55CHL1  H23A 5236   4.857   2.197   4.058 -0.1965  0.4061 -0.1939
   55CHL1  H23B 5237   5.009   2.252   4.009 -0.9672 -3.7256 -0.5720
   55CHL1   C24 5238   4.921   2.394   4.143 -0.0246  0.1271  0.7455
   55CHL1  H24A 5239   4.973   2.489   4.118 -0.3887  1.2994  3.9219
   55CHL1  H24B 5240   4.816   2.417   4.172 -1.0189  0.4168 -2.6939
   55CHL1   C25 5241   4.997   2.336   4.272  0.4503  0.1061  0.1662
   55CHL1   H25 5242   4.952   2.237   4.294  1.1145  0.3690  3.2385
   55CHL1   C26 5243   5.148   2.322   4.244  0.2526  0.3251  0.0535
   55CHL1  H26A 5244   5.164   2.238   4.173  1.0549 -0.7158  1.4179
   55CHL1  H26B 5245   5.184   2.418   4.201  0.0398  0.2469 -0.3044
   55CHL1  H26C 5246   5.208   2.307   4.336  0.9854  0.6415 -0.3611
   55CHL1   C27 5247   4.971   2.418   4.395 -0.5103  0.3560 -0.2797
   55CHL1  H27A 5248   5.004   2.524   4.405 -1.5572  0.4848  2.7698
   55CHL1  H27B 5249   4.862   2.434   4.402 -1.3555 -3.4878 -1.8239
   55CHL1  H27C 5250   5.002   2.367   4.489 -0.0884  1.2023  0.0540
   56CHL1    C3 5251   6.635   3.701   3.250  0.8476  0.9243  0.2014
   56CHL1    H3 5252   6.643   3.809   3.272 -0.8995  1.1888 -0.3125
   56CHL1    O3 5253   6.654   3.690   3.111 -0.9312  0.2399 -0.2941
   56CHL1   H3' 5254   6.690   3.776   3.088  1.4516 -0.7823 -0.6489
   56CHL1    C4 5255   6.760   3.629   3.311  0.3204 -0.4975 -0.2667
   56CHL1   H4A 5256   6.774   3.529   3.264 -1.4790 -0.6463 -0.5269
   56CHL1   H4B 5257   6.846   3.693   3.282 -1.4486  2.6100  0.8769
   56CHL1    C5 5258   6.752   3.614   3.459 -0.9298  0.4956  0.3492
   56CHL1    C6 5259   6.842   3.676   3.540  0.4544  0.7651 -0.0166
   56CHL1    H6 5260   6.929   3.724   3.490 -0.4200  0.2288 -2.1569
   56CHL1    C7 5261   6.844   3.683   3.688 -0.3014 -0.4675  0.5450
   56CHL1   H7A 5262   6.946   3.674   3.732  1.2973  0.8525 -2.5770
   56CHL1   H7B 5263   6.799   3.782   3.709 -1.0688 -0.7436  0.2437
   56CHL1    C8 5264   6.739   3.584   3.744 -0.4000 -0.6074  0.5668
   56CHL1    H8 5265   6.792   3.488   3.730 -0.3004 -0.5095  0.2525
   56CHL1   C14 5266   6.718   3.624   3.886  0.4711  0.8559 -0.7697
   56CHL1   H14 5267   6.667   3.722   3.890 -1.4615 -0.1443  1.3042
   56CHL1   C15 5268   6.832   3.644   3.979  0.2138 -0.3535  0.6109
   56CHL1  H15A 5269   6.899   3.557   3.997 -1.3420 -1.4588  1.3042
   56CHL1  H15B 5270   6.894   3.726   3.938 -1.3597 -0.2683 -1.8037
   56CHL1   C16 5271   6.767   3.675   4.110 -0.0780  0.6178  0.1360
   56CHL1  H16A 5272   6.836   3.634   4.187 -1.1896 -1.3357  0.1618
   56CHL1  H16B 5273   6.744   3.781   4.135  0.1634  0.3851  1.4228
   56CHL1   C17 5274   6.626   3.602   4.102  0.7158  0.6109 -0.1608
   56CHL1   H17 5275   6.554   3.687   4.105 -0.2033  0.0019 -2.5299
   56CHL1   C13 5276   6.625   3.528   3.964  0.4469 -0.7804 -0.1564
   56CHL1   C18 5277   6.679   3.383   3.978 -0.1109  0.3064 -0.2060
   56CHL1  H18A 5278   6.770   3.390   4.042 -1.5499  2.6018  1.7385
   56CHL1  H18B 5279   6.602   3.324   4.032  0.6497  0.2681  0.8615
   56CHL1  H18C 5280   6.692   3.332   3.880 -0.3247 -1.3913  0.5988
   56CHL1   C12 5281   6.493   3.519   3.892 -0.2850 -0.2166 -0.6635
   56CHL1  H12A 5282   6.425   3.442   3.935 -0.6369 -0.4639 -1.6587
   56CHL1  H12B 5283   6.438   3.613   3.912 -1.3053 -0.4401 -2.3102
   56CHL1   C11 5284   6.509   3.498   3.743  0.5079  0.7424 -0.4695
   56CHL1  H11A 5285   6.541   3.392   3.735 -0.9112  0.1040  1.6226
   56CHL1  H11B 5286   6.408   3.501   3.698 -0.0928  0.2642  0.7838
   56CHL1    C9 5287   6.605   3.586   3.667  0.1810  0.1852  0.4065
   56CHL1    H9 5288   6.562   3.688   3.674  0.3407  0.1909  1.3974
   56CHL1   C10 5289   6.620   3.564   3.519 -0.2708 -0.5572  0.3438
   56CHL1   C19 5290   6.622   3.412   3.487 -0.3220 -0.0366 -0.2406
   56CHL1  H19A 5291   6.715   3.367   3.529 -1.1871 -1.0185  0.6568
   56CHL1  H19B 5292   6.533   3.355   3.523  0.3999 -0.6696  0.6047
   56CHL1  H19C 5293   6.622   3.395   3.377  2.1978  1.7956 -0.6158
   56CHL1    C1 5294   6.491   3.621   3.443 -1.2269 -0.1922 -0.3356
   56CHL1   H1A 5295   6.406   3.554   3.468 -0.9307 -0.6605 -0.5727
   56CHL1   H1B 5296   6.455   3.720   3.478 -0.3676  0.2681 -0.7369
   56CHL1    C2 5297   6.500   3.636   3.291 -0.4779  0.2935  0.4166
   56CHL1   H2A 5298   6.422   3.686   3.230  0.3427  0.3506 -0.6124
   56CHL1   H2B 5299   6.506   3.530   3.256  1.9235  0.2854  0.7294
   56CHL1   C20 5300   6.609   3.511   4.232  0.0688 -0.2762  0.8502
   56CHL1   H20 5301   6.662   3.414   4.218 -0.6791 -0.1865 -5.9692
   56CHL1   C21 5302   6.465   3.462   4.254 -0.2655 -0.2562 -0.4785
   56CHL1  H21A 5303   6.398   3.543   4.289  1.2120  0.9214 -0.2784
   56CHL1  H21B 5304   6.475   3.400   4.346 -1.6125 -1.4300 -1.0861
   56CHL1  H21C 5305   6.435   3.418   4.156  0.3396 -0.0924 -0.7431
   56CHL1   C22 5306   6.662   3.582   4.366  1.0435  0.3389 -0.1195
   56CHL1  H22A 5307   6.669   3.692   4.352 -0.9382  0.4031 -0.9601
   56CHL1  H22B 5308   6.582   3.571   4.442  3.1604 -1.2809  2.0088
   56CHL1   C23 5309   6.785   3.520   4.426 -0.7178  0.5712  0.2106
   56CHL1  H23A 5310   6.761   3.425   4.479 -0.3834  0.6371  0.4813
   56CHL1  H23B 5311   6.855   3.494   4.345  0.5698 -1.7162  1.9408
   56CHL1   C24 5312   6.849   3.607   4.538  0.1383 -0.5829  0.8541
   56CHL1  H24A 5313   6.903   3.695   4.496 -1.4232  0.0073 -0.0069
   56CHL1  H24B 5314   6.768   3.634   4.610  0.1408 -0.8735  0.9683
   56CHL1   C25 5315   6.954   3.531   4.620  0.0658 -0.2048 -0.3184
   56CHL1   H25 5316   6.909   3.438   4.661  1.4454 -0.5705  0.4150
   56CHL1   C26 5317   7.073   3.478   4.532  0.6218  0.6202  0.6798
   56CHL1  H26A 5318   7.139   3.562   4.501 -0.1951  1.1415  0.3100
   56CHL1  H26B 5319   7.117   3.420   4.616  0.6283  1.8246  1.5420
   56CHL1  H26C 5320   7.040   3.406   4.455 -2.2201  0.0116  2.3059
   56CHL1   C27 5321   7.002   3.622   4.729  0.3737 -0.2337 -0.5048
   56CHL1  H27A 5322   6.922   3.653   4.799  0.5295 -0.4422 -0.2331
   56CHL1  H27B 5323   7.097   3.578   4.765 -1.3001 -1.0399  3.4369
   56CHL1  H27C 5324   7.045   3.714   4.684  1.7361 -0.3924  0.3998
   57CHL1    C3 5325   5.247   2.871   2.700 -0.2266 -0.4720 -0.1231
   57CHL1    H3 5326   5.143   2.832   2.711 -0.0835 -1.5439 -2.1684
   57CHL1    O3 5327   5.277   2.879   2.561  0.4610  0.3168  0.1289
   57CHL1   H3' 5328   5.363   2.920   2.556  0.2353  1.0579  1.6948
   57CHL1    C4 5329   5.252   3.007   2.771  0.4113  0.3150 -0.1493
   57CHL1   H4A 5330   5.355   3.044   2.750  0.1862 -0.5734 -3.2519
   57CHL1   H4B 5331   5.180   3.071   2.716 -1.0147 -1.1289 -0.0341
   57CHL1    C5 5332   5.226   2.998   2.922  0.6172  0.6411  0.3347
   57CHL1    C6 5333   5.118   3.058   2.977  0.1449 -0.0413  0.4090
   57CHL1    H6 5334   5.052   3.106   2.904  1.3079  2.4561  0.8836
   57CHL1    C7 5335   5.078   3.056   3.120 -0.5134  0.3714  0.4568
   57CHL1   H7A 5336   5.028   3.153   3.140 -0.4690  1.0278 -2.1807
   57CHL1   H7B 5337   5.000   2.978   3.128  0.4909 -0.6163  0.7915
   57CHL1    C8 5338   5.196   3.023   3.208 -0.0207 -0.3047 -0.5109
   57CHL1    H8 5339   5.272   3.104   3.209 -0.2087 -0.1066  1.6561
   57CHL1   C14 5340   5.153   2.999   3.347  0.1486 -0.4836  0.1821
   57CHL1   H14 5341   5.086   2.910   3.341 -1.6148  0.8755 -1.8355
   57CHL1   C15 5342   5.065   3.105   3.420 -1.5830  0.8915 -0.1825
   57CHL1  H15A 5343   5.098   3.210   3.401  0.7941  0.0347 -1.1151
   57CHL1  H15B 5344   4.962   3.091   3.380 -1.1407  0.3499 -1.1624
   57CHL1   C16 5345   5.075   3.071   3.568 -0.6420  0.3634  0.5794
   57CHL1  H16A 5346   5.101   3.165   3.622 -1.8738  0.2849  1.3407
   57CHL1  H16B 5347   4.971   3.047   3.596 -0.7879 -1.4573 -1.3724
   57CHL1   C17 5348   5.175   2.952   3.574  0.0892  0.0741  0.0831
   57CHL1   H17 5349   5.110   2.862   3.565  2.3454 -1.4521 -1.9264
   57CHL1   C13 5350   5.258   2.951   3.448 -0.6600  0.0239  0.3630
   57CHL1   C18 5351   5.362   3.060   3.456  0.0885  0.2348  0.0255
   57CHL1  H18A 5352   5.432   3.077   3.370  0.9653  1.1953  0.8988
   57CHL1  H18B 5353   5.312   3.158   3.471  1.2499  0.4865  2.9032
   57CHL1  H18C 5354   5.425   3.054   3.547 -0.0699 -2.0255  0.0244
   57CHL1   C12 5355   5.315   2.816   3.391  0.4805 -0.8082  0.0476
   57CHL1  H12A 5356   5.393   2.778   3.460 -0.3122 -2.2910  0.1620
   57CHL1  H12B 5357   5.226   2.750   3.392  1.2314 -1.8568  1.8561
   57CHL1   C11 5358   5.374   2.838   3.249  0.5891 -0.0630 -1.4871
   57CHL1  H11A 5359   5.467   2.898   3.254 -0.0184  0.8001  0.8482
   57CHL1  H11B 5360   5.404   2.737   3.213  1.9727  0.2350 -1.2054
   57CHL1    C9 5361   5.274   2.899   3.150  0.6548 -0.1796  0.4312
   57CHL1    H9 5362   5.197   2.820   3.139  0.7652 -0.1635 -0.5163
   57CHL1   C10 5363   5.322   2.910   3.000  0.5680  0.1883 -0.2534
   57CHL1   C19 5364   5.466   2.959   3.002  0.1243  0.4887  0.0620
   57CHL1  H19A 5365   5.465   3.055   3.058  0.7159 -0.5994  2.0624
   57CHL1  H19B 5366   5.542   2.900   3.057  1.8493  2.4674 -0.0862
   57CHL1  H19C 5367   5.508   2.986   2.903  0.5414 -0.6236 -0.0819
   57CHL1    C1 5368   5.326   2.771   2.926  0.1292  0.5222 -0.4501
   57CHL1   H1A 5369   5.413   2.713   2.963  0.7455  1.0451 -1.0381
   57CHL1   H1B 5370   5.228   2.721   2.940 -0.0627  0.4406 -1.9150
   57CHL1    C2 5371   5.346   2.786   2.771 -0.4471  0.0338 -0.0089
   57CHL1   H2A 5372   5.337   2.692   2.712 -0.7213  0.0349  0.0296
   57CHL1   H2B 5373   5.444   2.838   2.761 -0.1453 -0.2029  1.4500
   57CHL1   C20 5374   5.243   2.948   3.710 -0.6252  0.6077 -0.2917
   57CHL1   H20 5375   5.288   3.049   3.721 -0.7447  0.6040  0.2546
   57CHL1   C21 5376   5.353   2.839   3.720 -0.4738 -0.0934 -0.1397
   57CHL1  H21A 5377   5.438   2.858   3.651  0.3011 -1.4953  0.3835
   57CHL1  H21B 5378   5.303   2.746   3.683  2.1809 -0.8845 -2.0264
   57CHL1  H21C 5379   5.397   2.812   3.818  1.1609  0.0290 -0.8032
   57CHL1   C22 5380   5.150   2.934   3.838  0.5193  0.0662 -0.3010
   57CHL1  H22A 5381   5.062   2.998   3.815  0.3381 -0.8515 -2.4249
   57CHL1  H22B 5382   5.128   2.826   3.852  1.0898 -0.2278 -1.4803
   57CHL1   C23 5383   5.218   2.991   3.965 -0.0238 -0.8485 -0.6990
   57CHL1  H23A 5384   5.311   2.932   3.975  1.1760  0.9679 -0.7865
   57CHL1  H23B 5385   5.255   3.095   3.953 -1.7435  0.2924  2.5722
   57CHL1   C24 5386   5.116   2.996   4.083  0.6823 -0.2429 -0.0569
   57CHL1  H24A 5387   5.171   3.036   4.171  0.3806  0.4148 -0.1629
   57CHL1  H24B 5388   5.036   3.068   4.055  0.9136  2.1191  4.4740
   57CHL1   C25 5389   5.052   2.861   4.121  0.4826  0.1085 -0.2175
   57CHL1   H25 5390   5.006   2.818   4.030 -1.6292  1.1394  0.3041
   57CHL1   C26 5391   5.162   2.757   4.164 -0.1457 -0.1846  0.0072
   57CHL1  H26A 5392   5.240   2.744   4.086  0.9588  0.8466  0.8970
   57CHL1  H26B 5393   5.215   2.795   4.255 -0.6367  1.9686 -0.5536
   57CHL1  H26C 5394   5.121   2.655   4.182 -1.7523  0.8545  2.9260
   57CHL1   C27 5395   4.953   2.886   4.234  0.5553  0.1247 -0.6939
   57CHL1  H27A 5396   4.999   2.930   4.326 -2.1453  1.0796  0.3113
   57CHL1  H27B 5397   4.863   2.945   4.209 -0.5026 -1.8070 -1.5668
   57CHL1  H27C 5398   4.913   2.787   4.263  0.7163  0.5029  0.9624
   58CHL1    C3 5399   0.651   2.698   2.771  0.8630 -0.5207 -0.9972
   58CHL1    H3 5400   0.629   2.590   2.785 -2.7364  0.2407  0.2607
   58CHL1    O3 5401   0.597   2.724   2.645 -0.2180  0.4537 -0.2450
   58CHL1   H3' 5402   0.572   2.817   2.643 -2.8575 -0.1844  0.0769
   58CHL1    C4 5403   0.567   2.766   2.884  0.3083 -1.1643  0.1211
   58CHL1   H4A 5404   0.578   2.872   2.852 -0.2346 -0.9202  0.7252
   58CHL1   H4B 5405   0.460   2.739   2.874  0.1106  0.1914 -1.8039
   58CHL1    C5 5406   0.624   2.743   3.022  0.8542 -0.3608  0.1984
   58CHL1    C6 5407   0.550   2.687   3.116  0.9209 -0.5464  0.0578
   58CHL1    H6 5408   0.445   2.670   3.090  0.6992 -1.7243  1.6077
   58CHL1    C7 5409   0.600   2.647   3.257  0.5290 -0.5080  0.4577
   58CHL1   H7A 5410   0.523   2.662   3.335 -0.9500  1.0984 -1.2080
   58CHL1   H7B 5411   0.633   2.541   3.255 -0.9335 -1.0148 -2.2138
   58CHL1    C8 5412   0.731   2.732   3.288  0.1445  0.7282  0.0189
   58CHL1    H8 5413   0.692   2.834   3.305  0.1234  0.7053  0.1094
   58CHL1   C14 5414   0.802   2.666   3.409 -0.0941  0.4079 -0.0319
   58CHL1   H14 5415   0.821   2.564   3.369  0.8147  1.4841 -2.5684
   58CHL1   C15 5416   0.723   2.656   3.538  1.1363  0.1757 -0.4923
   58CHL1  H15A 5417   0.674   2.753   3.561  1.0126  0.3337 -1.3939
   58CHL1  H15B 5418   0.645   2.578   3.535  2.0762 -0.9188  1.5003
   58CHL1   C16 5419   0.828   2.620   3.645  0.3593 -0.6419  0.4085
   58CHL1  H16A 5420   0.819   2.685   3.734  1.7623 -0.4474  0.4359
   58CHL1  H16B 5421   0.822   2.516   3.682 -0.3507 -0.6176  0.3839
   58CHL1   C17 5422   0.964   2.644   3.574  0.1519 -0.0558 -0.3394
   58CHL1   H17 5423   0.996   2.549   3.527 -2.0981 -1.1663  0.2182
   58CHL1   C13 5424   0.931   2.730   3.455  0.0312  0.4820 -1.0115
   58CHL1   C18 5425   0.906   2.876   3.502 -0.7163  0.5199 -0.2306
   58CHL1  H18A 5426   1.007   2.921   3.513  0.0571 -1.7318  4.0172
   58CHL1  H18B 5427   0.841   2.925   3.426 -0.5646  0.6363 -0.2865
   58CHL1  H18C 5428   0.862   2.877   3.604 -2.1377  0.3227 -0.8112
   58CHL1   C12 5429   1.031   2.723   3.335  0.6762  0.4655  0.3558
   58CHL1  H12A 5430   1.131   2.771   3.347 -0.6102  3.2196  0.8036
   58CHL1  H12B 5431   1.048   2.615   3.313 -0.1905 -0.0861  2.2198
   58CHL1   C11 5432   0.977   2.776   3.211  0.9536 -0.2478  0.6211
   58CHL1  H11A 5433   0.978   2.887   3.209  1.8302 -0.2318  1.3558
   58CHL1  H11B 5434   1.034   2.746   3.121 -0.6638 -1.3429 -0.0910
   58CHL1    C9 5435   0.834   2.721   3.177  0.2569 -0.3722  0.3081
   58CHL1    H9 5436   0.836   2.611   3.158  0.5923 -0.2089 -0.6560
   58CHL1   C10 5437   0.775   2.778   3.041 -0.4559 -0.3647 -0.4811
   58CHL1   C19 5438   0.782   2.931   3.039  0.2355  0.4886 -0.1712
   58CHL1  H19A 5439   0.892   2.950   3.037  1.1902 -3.9114 -2.0928
   58CHL1  H19B 5440   0.744   2.972   2.943  0.3231 -0.4177 -0.6030
   58CHL1  H19C 5441   0.729   2.980   3.123 -0.5072  0.3549 -0.5598
   58CHL1    C1 5442   0.853   2.715   2.917  0.0506  0.1798 -0.1350
   58CHL1   H1A 5443   0.959   2.746   2.920  0.4178 -0.7106 -2.3244
   58CHL1   H1B 5444   0.851   2.605   2.930  2.1280  0.1545  0.2453
   58CHL1    C2 5445   0.797   2.742   2.777  0.1013  0.4547  0.5461
   58CHL1   H2A 5446   0.855   2.675   2.710 -2.5383 -1.1132 -0.3093
   58CHL1   H2B 5447   0.815   2.851   2.761  1.6554  0.1930  0.3482
   58CHL1   C20 5448   1.072   2.682   3.675 -0.5438 -0.0662  0.2602
   58CHL1   H20 5449   1.043   2.776   3.728 -0.0259 -0.0473  0.5088
   58CHL1   C21 5450   1.205   2.722   3.599  0.2919  0.4175 -0.5264
   58CHL1  H21A 5451   1.264   2.760   3.685  0.5417  0.2830 -0.6394
   58CHL1  H21B 5452   1.188   2.802   3.523 -3.0066 -0.6323 -1.0841
   58CHL1  H21C 5453   1.247   2.629   3.554 -0.9996 -1.0841  1.2415
   58CHL1   C22 5454   1.081   2.580   3.788  0.3747  0.3766  0.5647
   58CHL1  H22A 5455   0.983   2.543   3.824 -0.1737 -0.7168 -1.8456
   58CHL1  H22B 5456   1.130   2.487   3.752 -1.3889  0.6686 -3.0090
   58CHL1   C23 5457   1.161   2.630   3.904 -0.3706 -0.3675 -0.2533
   58CHL1  H23A 5458   1.266   2.635   3.867  0.4464 -4.7214  0.9900
   58CHL1  H23B 5459   1.129   2.734   3.929  0.7781 -0.4611  1.7512
   58CHL1   C24 5460   1.144   2.548   4.030  0.5259  0.0012  0.3499
   58CHL1  H24A 5461   1.036   2.547   4.059  0.3480 -0.4311 -0.3213
   58CHL1  H24B 5462   1.173   2.445   4.000  1.3694  0.1008  0.7831
   58CHL1   C25 5463   1.236   2.586   4.145  0.2851  0.1939  0.9268
   58CHL1   H25 5464   1.342   2.578   4.114  0.3935 -1.5461  1.5800
   58CHL1   C26 5465   1.206   2.726   4.192  0.0481 -0.8077  0.5063
   58CHL1  H26A 5466   1.274   2.759   4.273  1.2909 -1.8176 -0.0851
   58CHL1  H26B 5467   1.228   2.796   4.108  2.9018 -0.1220  1.7157
   58CHL1  H26C 5468   1.099   2.734   4.220 -0.0266  1.3923 -0.1686
   58CHL1   C27 5469   1.216   2.494   4.270  0.4989  0.3126  0.0744
   58CHL1  H27A 5470   1.294   2.525   4.342 -0.3681 -1.6813  2.0145
   58CHL1  H27B 5471   1.115   2.489   4.317  0.5424 -0.9004  0.0800
   58CHL1  H27C 5472   1.233   2.392   4.229 -0.7633  0.1726 -0.1428
   59CHL1    C3 5473   4.500   0.572   2.795  0.4112 -0.3358  0.3101
   59CHL1    H3 5474   4.556   0.663   2.764 -1.2004  1.0091  1.1699
   59CHL1    O3 5475   4.465   0.510   2.673 -0.1918  0.1554  0.4388
   59CHL1   H3' 5476   4.460   0.583   2.610  0.1483 -0.4161 -0.2629
   59CHL1    C4 5477   4.589   0.486   2.881 -0.4874 -0.1034 -0.1608
   59CHL1   H4A 5478   4.552   0.381   2.892  0.1090 -0.2570  0.4917
   59CHL1   H4B 5479   4.685   0.486   2.826 -0.5069  0.5516 -0.2025
   59CHL1    C5 5480   4.620   0.544   3.020  0.0044  0.4265  0.0828
   59CHL1    C6 5481   4.746   0.576   3.060 -0.6872 -1.0764 -0.3181
   59CHL1    H6 5482   4.827   0.550   2.991 -0.9965  0.1485 -1.1844
   59CHL1    C7 5483   4.781   0.637   3.192  0.0588  0.3557 -0.1195
   59CHL1   H7A 5484   4.852   0.566   3.240 -1.2294 -1.4920 -0.8278
   59CHL1   H7B 5485   4.825   0.738   3.183 -0.5025  0.4947 -1.5115
   59CHL1    C8 5486   4.658   0.639   3.295  0.1923 -0.1752 -0.6184
   59CHL1    H8 5487   4.642   0.542   3.346 -0.9827 -0.1353 -0.8792
   59CHL1   C14 5488   4.696   0.737   3.408  0.3571 -0.2458 -1.0684
   59CHL1   H14 5489   4.702   0.837   3.360 -1.9448 -0.5219 -2.1082
   59CHL1   C15 5490   4.829   0.720   3.476 -0.1840 -0.6153 -0.4833
   59CHL1  H15A 5491   4.835   0.613   3.506 -0.4685 -0.6013 -0.3797
   59CHL1  H15B 5492   4.908   0.754   3.406 -0.2794  1.0190  0.1711
   59CHL1   C16 5493   4.810   0.800   3.601  0.2321 -0.1319 -0.1191
   59CHL1  H16A 5494   4.823   0.729   3.686 -3.0510 -0.0445  0.6083
   59CHL1  H16B 5495   4.884   0.882   3.604 -0.2315  0.2797  0.2935
   59CHL1   C17 5496   4.665   0.857   3.604 -0.6580 -0.4660 -0.0060
   59CHL1   H17 5497   4.680   0.950   3.544 -0.3072 -1.1406 -0.9898
   59CHL1   C13 5498   4.584   0.759   3.514  0.6054 -0.4282  0.3177
   59CHL1   C18 5499   4.546   0.630   3.597 -0.3408  0.0665 -0.5998
   59CHL1  H18A 5500   4.461   0.649   3.666  1.0379  0.0132  1.1703
   59CHL1  H18B 5501   4.511   0.544   3.536  1.1486 -1.5792  0.7787
   59CHL1  H18C 5502   4.625   0.597   3.668  0.0307  2.1216  0.0194
   59CHL1   C12 5503   4.452   0.812   3.441  0.0217 -0.3889 -0.3021
   59CHL1  H12A 5504   4.364   0.812   3.510  1.3144  0.9204  1.4564
   59CHL1  H12B 5505   4.462   0.917   3.407 -0.5578 -0.4228 -0.5993
   59CHL1   C11 5506   4.420   0.712   3.331 -0.4935 -0.0111  1.1021
   59CHL1  H11A 5507   4.377   0.620   3.375  0.6596 -1.6435 -0.9838
   59CHL1  H11B 5508   4.345   0.756   3.262  0.3127  0.1764  0.3155
   59CHL1    C9 5509   4.535   0.686   3.225  0.0190 -0.4003 -0.2482
   59CHL1    H9 5510   4.562   0.783   3.178  1.3697 -0.5162  0.2468
   59CHL1   C10 5511   4.501   0.594   3.101  0.3723 -0.4692 -0.2709
   59CHL1   C19 5512   4.435   0.466   3.148 -0.3379 -1.1810 -0.5534
   59CHL1  H19A 5513   4.334   0.471   3.196 -0.6244  0.5442 -1.2401
   59CHL1  H19B 5514   4.418   0.395   3.065 -1.3264 -3.1030  1.1709
   59CHL1  H19C 5515   4.505   0.424   3.223  0.4470  3.3556  1.6269
   59CHL1    C1 5516   4.398   0.676   3.009 -0.7037  0.3495 -0.2831
   59CHL1   H1A 5517   4.302   0.677   3.065 -0.7520 -3.7653  0.0480
   59CHL1   H1B 5518   4.443   0.777   2.999 -1.8175  1.0433  1.3204
   59CHL1    C2 5519   4.371   0.614   2.862 -0.0608  0.0700  0.0799
   59CHL1   H2A 5520   4.317   0.696   2.809  0.2356  0.5859  0.5642
   59CHL1   H2B 5521   4.309   0.522   2.874 -2.0947  1.1174 -1.6150
   59CHL1   C20 5522   4.618   0.895   3.744  0.1435  0.0762  0.2675
   59CHL1   H20 5523   4.605   0.804   3.807 -0.8535 -0.5249 -0.7850
   59CHL1   C21 5524   4.476   0.951   3.733 -0.0150 -0.6563 -0.4862
   59CHL1  H21A 5525   4.451   0.995   3.831 -0.7961 -1.9722 -0.0646
   59CHL1  H21B 5526   4.409   0.863   3.723 -2.4931  0.9997  0.5875
   59CHL1  H21C 5527   4.479   1.025   3.650  0.7381  0.8697  0.8602
   59CHL1   C22 5528   4.712   0.998   3.819 -0.1764  1.0894 -0.4364
   59CHL1  H22A 5529   4.819   0.977   3.801 -0.5700  1.3554 -3.6372
   59CHL1  H22B 5530   4.690   1.101   3.783  0.4762  1.8424  1.2113
   59CHL1   C23 5531   4.681   0.990   3.969 -0.4737  0.1895 -0.4655
   59CHL1  H23A 5532   4.596   1.059   3.990  0.7720  1.6277  0.0106
   59CHL1  H23B 5533   4.656   0.885   3.996  0.6979  0.3054  1.1938
   59CHL1   C24 5534   4.803   1.024   4.057 -0.2314 -0.9262 -0.7395
   59CHL1  H24A 5535   4.881   0.948   4.040  0.8404 -0.2649  1.0389
   59CHL1  H24B 5536   4.845   1.114   4.006  1.9680 -1.4779  0.0214
   59CHL1   C25 5537   4.774   1.041   4.203  0.2973  0.2007 -0.2112
   59CHL1   H25 5538   4.717   0.955   4.244 -1.1073  1.3598  0.3490
   59CHL1   C26 5539   4.898   1.057   4.288  0.3651 -0.8579  0.2468
   59CHL1  H26A 5540   4.976   0.979   4.276  1.3193 -0.1132  1.3532
   59CHL1  H26B 5541   4.943   1.153   4.253 -2.4863  0.5499  0.1872
   59CHL1  H26C 5542   4.878   1.060   4.397 -1.2194  1.7002 -0.0301
   59CHL1   C27 5543   4.677   1.164   4.242 -0.1204  0.4518  0.1853
   59CHL1  H27A 5544   4.584   1.160   4.181 -0.5068  1.9041  0.6307
   59CHL1  H27B 5545   4.649   1.156   4.350 -0.8595 -0.4857 -0.0658
   59CHL1  H27C 5546   4.724   1.263   4.225  0.1779  0.4007  0.6926
   60CHL1    C3 5547   5.694   1.632   2.604  0.1931 -0.1567 -0.1878
   60CHL1    H3 5548   5.612   1.694   2.646  0.7630 -0.0236  0.7566
   60CHL1    O3 5549   5.671   1.608   2.468  0.1783 -0.0871 -0.1690
   60CHL1   H3' 5550   5.759   1.587   2.436  0.9210 -1.5907  2.5658
   60CHL1    C4 5551   5.832   1.702   2.625 -0.4130  0.9051  0.1067
   60CHL1   H4A 5552   5.908   1.641   2.571 -2.3596 -0.6298 -1.0194
   60CHL1   H4B 5553   5.827   1.792   2.561  2.3277 -0.2148 -1.8857
   60CHL1    C5 5554   5.877   1.718   2.771 -0.2424  0.1846  0.0163
   60CHL1    C6 5555   5.916   1.842   2.816 -0.2706 -0.2571  0.0941
   60CHL1    H6 5556   5.890   1.929   2.754 -2.0172 -0.8483 -0.0670
   60CHL1    C7 5557   5.959   1.871   2.955  0.3708 -0.5948 -0.1193
   60CHL1   H7A 5558   6.053   1.930   2.962  0.2876 -0.3435 -0.9999
   60CHL1   H7B 5559   5.886   1.942   2.999  2.1102  0.2082  1.6066
   60CHL1    C8 5560   5.972   1.750   3.044 -0.6806 -0.4084 -0.6190
   60CHL1    H8 5561   6.075   1.715   3.023  0.6272  1.4193  2.1317
   60CHL1   C14 5562   5.954   1.791   3.191 -0.1154  0.4051 -0.0920
   60CHL1   H14 5563   5.852   1.833   3.201  0.0773  0.5552  1.4261
   60CHL1   C15 5564   6.029   1.913   3.252  0.1068 -0.5291 -0.4081
   60CHL1  H15A 5565   6.135   1.913   3.218  0.3936  3.0439  0.0981
   60CHL1  H15B 5566   5.968   2.002   3.227  0.9192  0.0498 -0.3820
   60CHL1   C16 5567   6.035   1.886   3.400 -0.0282 -0.1249 -0.0513
   60CHL1  H16A 5568   6.140   1.877   3.435 -0.2009 -4.7452 -0.1203
   60CHL1  H16B 5569   5.986   1.970   3.454  1.9095  1.2556 -0.3299
   60CHL1   C17 5570   5.959   1.753   3.425  0.0049  0.1662 -0.4629
   60CHL1   H17 5571   5.850   1.775   3.429  0.0335  0.1821  0.7802
   60CHL1   C13 5572   5.968   1.674   3.291  0.1928  0.0272 -0.6454
   60CHL1   C18 5573   6.110   1.614   3.289  0.1581 -0.9530 -0.0233
   60CHL1  H18A 5574   6.192   1.680   3.325  0.8651 -0.9394 -1.6072
   60CHL1  H18B 5575   6.114   1.521   3.350 -1.0662 -1.1325 -0.1877
   60CHL1  H18C 5576   6.139   1.591   3.185 -0.3097 -0.1722 -0.3317
   60CHL1   C12 5577   5.861   1.568   3.263 -0.0649 -0.1924 -0.5991
   60CHL1  H12A 5578   5.886   1.481   3.327 -1.1885  0.1108  0.2695
   60CHL1  H12B 5579   5.758   1.602   3.284  0.8203  0.4658  3.4388
   60CHL1   C11 5580   5.858   1.523   3.119 -1.1118  0.0394 -0.0481
   60CHL1  H11A 5581   5.931   1.440   3.103 -0.7923  0.1053  0.9698
   60CHL1  H11B 5582   5.762   1.471   3.099  0.0392 -1.9107 -0.8455
   60CHL1    C9 5583   5.860   1.642   3.017 -0.1518  0.5100  0.2516
   60CHL1    H9 5584   5.761   1.689   3.033 -0.9358 -0.4968 -1.3402
   60CHL1   C10 5585   5.856   1.595   2.863  0.3822 -0.5935  0.3517
   60CHL1   C19 5586   5.968   1.492   2.848 -0.7901  0.5809  0.2367
   60CHL1  H19A 5587   5.948   1.391   2.889  1.0536  0.4302  0.8854
   60CHL1  H19B 5588   6.009   1.480   2.745  1.9460 -1.1328  1.4293
   60CHL1  H19C 5589   6.049   1.536   2.910 -1.4611  2.4960 -0.1687
   60CHL1    C1 5590   5.714   1.531   2.835  0.4667  0.0127 -0.4284
   60CHL1   H1A 5591   5.703   1.436   2.892  0.9363 -0.1783 -0.6535
   60CHL1   H1B 5592   5.638   1.601   2.876  0.9956  0.4225 -0.1475
   60CHL1    C2 5593   5.687   1.498   2.690 -0.1394  0.1875 -0.5044
   60CHL1   H2A 5594   5.582   1.463   2.685  0.0367 -0.5292  0.5951
   60CHL1   H2B 5595   5.755   1.423   2.645 -1.8697 -1.1787 -0.9072
   60CHL1   C20 5596   6.006   1.694   3.553  0.2854 -0.1848 -0.3092
   60CHL1   H20 5597   6.109   1.652   3.549 -0.1284 -1.6295  2.1358
   60CHL1   C21 5598   5.934   1.564   3.601 -0.0351  0.3322 -0.1132
   60CHL1  H21A 5599   5.969   1.482   3.535  1.7854  1.0055 -0.0461
   60CHL1  H21B 5600   5.824   1.574   3.591 -0.1908 -1.4184 -0.3490
   60CHL1  H21C 5601   5.958   1.536   3.706 -1.5014  0.1799  0.2048
   60CHL1   C22 5602   6.026   1.785   3.673 -0.1474  0.7405 -0.1482
   60CHL1  H22A 5603   6.073   1.743   3.764  0.6567 -1.2262 -1.4037
   60CHL1  H22B 5604   6.085   1.873   3.641 -0.8374  0.6686 -1.7354
   60CHL1   C23 5605   5.893   1.839   3.725  0.4197 -0.6841 -0.3243
   60CHL1  H23A 5606   5.855   1.909   3.647  2.1372 -0.4640 -1.0036
   60CHL1  H23B 5607   5.808   1.767   3.724 -0.0178 -0.1772 -0.6048
   60CHL1   C24 5608   5.904   1.907   3.863 -0.6118  0.5459 -0.2224
   60CHL1  H24A 5609   5.819   1.869   3.924  0.2657 -2.3702 -0.6888
   60CHL1  H24B 5610   6.001   1.882   3.910 -1.0610  0.0386  0.4514
   60CHL1   C25 5611   5.900   2.063   3.850 -0.2404 -0.5772  0.0057
   60CHL1   H25 5612   5.804   2.087   3.799 -0.4546  0.1864  0.7336
   60CHL1   C26 5613   5.878   2.134   3.980  0.0108  0.3043 -1.0707
   60CHL1  H26A 5614   5.784   2.099   4.027  0.1708 -0.5567 -1.3818
   60CHL1  H26B 5615   5.966   2.116   4.045  0.4919 -0.4128 -1.8937
   60CHL1  H26C 5616   5.867   2.244   3.963  1.2834  0.4987 -0.7202
   60CHL1   C27 5617   6.018   2.129   3.779  0.0908  0.4775  0.6706
   60CHL1  H27A 5618   5.984   2.231   3.750 -1.0303 -0.4338 -1.4627
   60CHL1  H27B 5619   6.105   2.140   3.847  0.1768  1.6364  0.3921
   60CHL1  H27C 5620   6.043   2.075   3.686 -0.3945  1.5252 -0.0908
   61CHL1    C3 5621   0.097   4.787   2.881 -0.4310  0.4127 -0.2942
   61CHL1    H3 5622   0.153   4.705   2.930  2.2745  2.9945  1.2692
   61CHL1    O3 5623   0.160   4.823   2.754 -0.4702  0.1938 -0.1705
   61CHL1   H3' 5624   0.143   4.761   2.683  0.0079  1.4486 -1.4440
   61CHL1    C4 5625  -0.045   4.746   2.861  0.0114 -0.2950 -0.9055
   61CHL1   H4A 5626  -0.109   4.821   2.810  0.8706  1.5972  0.6812
   61CHL1   H4B 5627  -0.043   4.658   2.794  0.2463 -0.3050 -0.8866
   61CHL1    C5 5628  -0.122   4.706   2.986 -0.5957 -0.1795 -0.1981
   61CHL1    C6 5629  -0.187   4.594   2.995 -0.7479  0.2810  0.0883
   61CHL1    H6 5630  -0.189   4.523   2.910 -0.6761  1.8838 -1.2997
   61CHL1    C7 5631  -0.264   4.551   3.112  0.5873  0.1041 -0.2751
   61CHL1   H7A 5632  -0.345   4.478   3.090  0.3092  0.5441 -0.7439
   61CHL1   H7B 5633  -0.198   4.485   3.172 -0.6874 -0.3922  0.6353
   61CHL1    C8 5634  -0.285   4.652   3.224 -0.1568 -0.6499  0.0923
   61CHL1    H8 5635  -0.365   4.726   3.200 -1.0280 -2.1383 -1.8338
   61CHL1   C14 5636  -0.308   4.588   3.355  0.4881 -0.2518 -1.2436
   61CHL1   H14 5637  -0.219   4.529   3.384 -0.2089 -1.7183 -1.9811
   61CHL1   C15 5638  -0.429   4.499   3.367  0.7049  0.3220  0.6695
   61CHL1  H15A 5639  -0.514   4.546   3.313 -0.0758  0.5091  2.0301
   61CHL1  H15B 5640  -0.411   4.404   3.312 -1.2452 -0.6554  1.6430
   61CHL1   C16 5641  -0.460   4.484   3.513  0.0036  0.8259 -1.2874
   61CHL1  H16A 5642  -0.566   4.501   3.541 -0.1284 -2.3201  0.5357
   61CHL1  H16B 5643  -0.427   4.383   3.545  1.6146  1.0055 -2.2464
   61CHL1   C17 5644  -0.363   4.585   3.578  0.0323 -0.1234 -0.4490
   61CHL1   H17 5645  -0.273   4.529   3.610 -0.5844 -0.9624 -0.1461
   61CHL1   C13 5646  -0.327   4.688   3.468  0.3498  0.4970  0.8489
   61CHL1   C18 5647  -0.452   4.777   3.439 -0.3501  0.4284 -1.1706
   61CHL1  H18A 5648  -0.545   4.718   3.429  0.9216 -1.8445 -0.1987
   61CHL1  H18B 5649  -0.472   4.859   3.512  3.2293  1.1040 -0.7598
   61CHL1  H18C 5650  -0.429   4.834   3.346 -0.5422  0.3642 -1.2562
   61CHL1   C12 5651  -0.197   4.769   3.493 -0.5408  0.4705  0.0485
   61CHL1  H12A 5652  -0.206   4.852   3.566 -1.8040 -0.0740  0.5453
   61CHL1  H12B 5653  -0.121   4.698   3.533 -2.9859 -0.8583  2.7281
   61CHL1   C11 5654  -0.161   4.834   3.361 -0.3845  0.1231  0.4204
   61CHL1  H11A 5655  -0.225   4.918   3.327  0.3008  0.1973 -0.7345
   61CHL1  H11B 5656  -0.062   4.879   3.382  0.7460 -2.2215  0.3971
   61CHL1    C9 5657  -0.151   4.733   3.240 -0.2265 -0.0733 -0.2852
   61CHL1    H9 5658  -0.070   4.663   3.267  0.8200  0.8598 -0.9063
   61CHL1   C10 5659  -0.102   4.801   3.107  0.2943  0.2368  0.0516
   61CHL1   C19 5660  -0.194   4.919   3.077 -0.3652 -0.0721 -0.2887
   61CHL1  H19A 5661  -0.186   4.944   2.969  0.8373 -1.8218 -0.6389
   61CHL1  H19B 5662  -0.298   4.889   3.103 -0.1994 -1.2628 -0.9403
   61CHL1  H19C 5663  -0.168   5.010   3.136  0.4915 -0.1366 -0.5520
   61CHL1    C1 5664   0.046   4.846   3.122 -0.0325 -0.5054 -0.7449
   61CHL1   H1A 5665   0.055   4.929   3.195  1.8719  0.2254 -1.7366
   61CHL1   H1B 5666   0.101   4.753   3.149 -1.3801 -1.1474 -0.1130
   61CHL1    C2 5667   0.111   4.897   2.993 -0.4642 -0.1297  0.1201
   61CHL1   H2A 5668   0.219   4.913   3.016 -0.0030 -2.9885  0.2600
   61CHL1   H2B 5669   0.072   4.992   2.950  1.3070 -0.4509 -2.4220
   61CHL1   C20 5670  -0.424   4.640   3.709 -0.2124  0.0597  0.0331
   61CHL1   H20 5671  -0.527   4.677   3.690 -0.7358 -1.8137 -1.0192
   61CHL1   C21 5672  -0.346   4.761   3.761 -0.3105 -0.6482 -0.5415
   61CHL1  H21A 5673  -0.385   4.788   3.861  0.7602  0.8117 -0.4832
   61CHL1  H21B 5674  -0.368   4.846   3.693  1.0069  1.2698  1.3001
   61CHL1  H21C 5675  -0.235   4.754   3.762 -0.3083 -1.0557  1.5693
   61CHL1   C22 5676  -0.430   4.540   3.826  0.1711  0.2705  0.0054
   61CHL1  H22A 5677  -0.424   4.434   3.794 -3.0495 -0.6896  2.0425
   61CHL1  H22B 5678  -0.343   4.559   3.892  0.2676 -0.8578  0.2182
   61CHL1   C23 5679  -0.558   4.547   3.915 -0.1804  0.0303 -0.7583
   61CHL1  H23A 5680  -0.600   4.649   3.917 -1.4076 -0.4685  0.8343
   61CHL1  H23B 5681  -0.632   4.493   3.852  0.3495 -0.5437 -0.9107
   61CHL1   C24 5682  -0.535   4.499   4.062 -0.3304 -0.3422  0.7663
   61CHL1  H24A 5683  -0.442   4.437   4.064 -0.4176 -0.4736  2.1284
   61CHL1  H24B 5684  -0.498   4.580   4.128 -0.2906 -0.6012  1.0672
   61CHL1   C25 5685  -0.644   4.418   4.133  0.8284  0.3470  0.4829
   61CHL1   H25 5686  -0.608   4.398   4.236 -0.4390  0.4225  0.9684
   61CHL1   C26 5687  -0.774   4.493   4.159 -0.4607 -1.4630  0.2167
   61CHL1  H26A 5688  -0.821   4.525   4.063  0.9094  0.0618  0.0136
   61CHL1  H26B 5689  -0.852   4.438   4.217  0.2313 -1.5245  1.1135
   61CHL1  H26C 5690  -0.751   4.582   4.221  2.2084 -1.5096 -0.5940
   61CHL1   C27 5691  -0.668   4.284   4.057 -0.0586  0.3469  0.8292
   61CHL1  H27A 5692  -0.572   4.249   4.013  0.5171 -0.0405  2.3184
   61CHL1  H27B 5693  -0.707   4.203   4.123 -0.7962  0.8032  0.9612
   61CHL1  H27C 5694  -0.738   4.316   3.978 -1.0057  1.5830  2.1330
   62CHL1    C3 5695   3.667   6.776   2.839 -0.2121 -0.1607 -0.7064
   62CHL1    H3 5696   3.733   6.690   2.813 -0.9493 -0.8201 -0.4262
   62CHL1    O3 5697   3.629   6.829   2.713  0.1068  0.5094 -0.2966
   62CHL1   H3' 5698   3.716   6.843   2.676  0.5089  2.6390  1.3065
   62CHL1    C4 5699   3.548   6.728   2.930 -0.1396  0.5243  0.1377
   62CHL1   H4A 5700   3.482   6.816   2.947  1.4599  1.3298  2.8525
   62CHL1   H4B 5701   3.491   6.654   2.870 -1.1502  0.8730  0.6431
   62CHL1    C5 5702   3.598   6.673   3.060 -0.4224 -0.3285  0.3645
   62CHL1    C6 5703   3.580   6.546   3.099 -1.0161  0.1541 -0.5463
   62CHL1    H6 5704   3.534   6.468   3.036  0.9788 -1.4324 -0.1369
   62CHL1    C7 5705   3.615   6.505   3.243  1.0856  0.5032  0.2551
   62CHL1   H7A 5706   3.524   6.459   3.286  0.8089 -0.8358 -1.6741
   62CHL1   H7B 5707   3.688   6.422   3.236 -2.1873 -2.5171 -0.4905
   62CHL1    C8 5708   3.660   6.624   3.331 -0.1709 -0.4108 -0.8323
   62CHL1    H8 5709   3.578   6.691   3.365 -0.1800 -0.4713 -0.7343
   62CHL1   C14 5710   3.717   6.578   3.464 -0.0382 -0.0754  0.1305
   62CHL1   H14 5711   3.801   6.510   3.440 -0.4326 -0.8479  0.9115
   62CHL1   C15 5712   3.626   6.487   3.550  0.3399  0.2228  0.0736
   62CHL1  H15A 5713   3.535   6.550   3.558 -1.2649 -1.7307 -1.7331
   62CHL1  H15B 5714   3.597   6.389   3.505  1.1019  0.1291 -0.2288
   62CHL1   C16 5715   3.696   6.484   3.684  0.1144  0.1083  0.4648
   62CHL1  H16A 5716   3.629   6.512   3.768 -0.7209 -0.4556  0.0029
   62CHL1  H16B 5717   3.739   6.383   3.702  2.2021  1.0031  0.8601
   62CHL1   C17 5718   3.809   6.591   3.681 -0.6174 -0.3256 -0.2835
   62CHL1   H17 5719   3.905   6.546   3.649 -0.1019  0.4385  0.1381
   62CHL1   C13 5720   3.771   6.686   3.560 -0.0160 -0.5477 -0.1577
   62CHL1   C18 5721   3.659   6.789   3.609 -0.5172  0.1619 -0.3255
   62CHL1  H18A 5722   3.591   6.733   3.677  1.6795 -1.2566  0.8794
   62CHL1  H18B 5723   3.719   6.857   3.674  2.6391 -2.1739 -0.5463
   62CHL1  H18C 5724   3.616   6.841   3.521 -1.0353 -0.0689 -0.2131
   62CHL1   C12 5725   3.889   6.747   3.484  0.4882  0.8649  0.0363
   62CHL1  H12A 5726   3.931   6.825   3.551 -0.7357  0.6351  1.1163
   62CHL1  H12B 5727   3.978   6.683   3.463 -0.0268 -0.3672  1.4318
   62CHL1   C11 5728   3.830   6.807   3.354 -0.1731  0.7373  0.4527
   62CHL1  H11A 5729   3.754   6.885   3.376 -2.0432 -0.0473 -2.6587
   62CHL1  H11B 5730   3.912   6.860   3.301 -0.9742  2.5932  0.9833
   62CHL1    C9 5731   3.754   6.708   3.259  0.2823 -0.0495  1.2933
   62CHL1    H9 5732   3.823   6.634   3.211  1.3674 -0.1356  2.9326
   62CHL1   C10 5733   3.678   6.778   3.139  0.6880 -0.2708 -0.0272
   62CHL1   C19 5734   3.577   6.883   3.194 -0.3746  0.0955 -0.2856
   62CHL1  H19A 5735   3.504   6.838   3.264 -1.6496  0.1624 -1.5397
   62CHL1  H19B 5736   3.629   6.969   3.243 -1.9698  0.1823  1.3500
   62CHL1  H19C 5737   3.524   6.934   3.110 -1.0912 -0.7498 -0.3552
   62CHL1    C1 5738   3.792   6.844   3.050 -0.2309  0.3833  0.2065
   62CHL1   H1A 5739   3.842   6.926   3.106  1.8068 -0.9074  0.4038
   62CHL1   H1B 5740   3.870   6.766   3.041 -0.7175  0.0126 -0.8960
   62CHL1    C2 5741   3.747   6.886   2.914  0.1108  0.8980  0.0076
   62CHL1   H2A 5742   3.834   6.909   2.850  2.3881 -1.2477  2.0956
   62CHL1   H2B 5743   3.689   6.978   2.935 -0.8011  0.7699 -1.7764
   62CHL1   C20 5744   3.840   6.655   3.817 -0.0184 -0.5340  0.1074
   62CHL1   H20 5745   3.755   6.716   3.854  0.4728 -0.1494  0.6292
   62CHL1   C21 5746   3.970   6.731   3.805 -0.9203 -0.5197  0.2957
   62CHL1  H21A 5747   4.012   6.764   3.902 -0.9999 -0.2098  0.2278
   62CHL1  H21B 5748   3.946   6.831   3.761  1.0800  0.3982  1.1879
   62CHL1  H21C 5749   4.050   6.686   3.743 -1.5026  0.8721 -1.5730
   62CHL1   C22 5750   3.864   6.563   3.938  0.0245 -0.6401  0.3035
   62CHL1  H22A 5751   3.820   6.464   3.913 -1.2422 -0.5269  1.8796
   62CHL1  H22B 5752   3.975   6.554   3.940  0.5361  3.1396 -1.5578
   62CHL1   C23 5753   3.806   6.613   4.069  0.9907 -0.7023  0.0107
   62CHL1  H23A 5754   3.863   6.698   4.112 -0.6828  1.5331 -1.9243
   62CHL1  H23B 5755   3.703   6.649   4.047  1.2835  0.1997  0.0948
   62CHL1   C24 5756   3.799   6.492   4.172 -0.0328  0.5632 -0.6319
   62CHL1  H24A 5757   3.740   6.408   4.130  0.4806  0.3924 -1.0206
   62CHL1  H24B 5758   3.904   6.457   4.187 -0.0503 -0.3599 -2.3404
   62CHL1   C25 5759   3.730   6.523   4.312 -0.4952 -0.8755  0.6876
   62CHL1   H25 5760   3.745   6.448   4.393  1.2186  2.3110  3.6166
   62CHL1   C26 5761   3.771   6.663   4.369  0.1799  0.4718  0.4808
   62CHL1  H26A 5762   3.745   6.743   4.296 -2.9129 -1.6629 -0.9761
   62CHL1  H26B 5763   3.717   6.681   4.464  1.0656  0.5706  0.9784
   62CHL1  H26C 5764   3.878   6.662   4.400  0.2599 -0.2284  0.1805
   62CHL1   C27 5765   3.578   6.518   4.291 -0.8036 -0.1389  0.1418
   62CHL1  H27A 5766   3.544   6.430   4.233  0.6116  0.0437 -1.0246
   62CHL1  H27B 5767   3.514   6.504   4.381 -1.9319 -1.1164 -0.7908
   62CHL1  H27C 5768   3.554   6.613   4.238  0.6932  0.7158  0.9288
   63CHL1    C3 5769   5.826   6.650   2.743 -0.5578 -0.1013  0.0777
   63CHL1    H3 5770   5.716   6.644   2.755 -0.6745  1.9707  0.3721
   63CHL1    O3 5771   5.841   6.663   2.607  0.3262  0.7214 -0.2234
   63CHL1   H3' 5772   5.937   6.660   2.609  0.3049 -0.2759  2.3088
   63CHL1    C4 5773   5.880   6.776   2.798  0.2670  0.2004  0.7534
   63CHL1   H4A 5774   5.980   6.791   2.752  0.4358 -0.4304  0.9042
   63CHL1   H4B 5775   5.809   6.853   2.759  0.1422  0.8477  2.2097
   63CHL1    C5 5776   5.897   6.772   2.949  0.3461  0.3426 -0.4505
   63CHL1    C6 5777   5.849   6.872   3.024  0.2206 -0.3029  0.6307
   63CHL1    H6 5778   5.810   6.950   2.957  3.6649 -0.3607 -1.7173
   63CHL1    C7 5779   5.865   6.888   3.171 -0.3923 -0.0743 -0.0557
   63CHL1   H7A 5780   5.901   6.990   3.197  0.4059 -0.8732  2.1068
   63CHL1   H7B 5781   5.770   6.880   3.228  1.2279 -0.5787  2.7563
   63CHL1    C8 5782   5.957   6.788   3.236  0.2667  0.1842  0.1358
   63CHL1    H8 5783   6.062   6.817   3.212  0.9266 -1.4258  0.9533
   63CHL1   C14 5784   5.934   6.775   3.380  0.4248  0.0211 -1.0351
   63CHL1   H14 5785   5.828   6.742   3.383  0.5154 -0.2371 -0.2590
   63CHL1   C15 5786   5.947   6.902   3.463  0.1299  0.7293 -0.4305
   63CHL1  H15A 5787   6.030   6.966   3.423  2.1046 -0.2993  1.8149
   63CHL1  H15B 5788   5.846   6.948   3.459 -0.6638 -1.0223 -1.2412
   63CHL1   C16 5789   5.962   6.846   3.607 -0.3866 -0.0014 -0.4152
   63CHL1  H16A 5790   6.044   6.891   3.666 -0.1672  0.4995 -1.0890
   63CHL1  H16B 5791   5.870   6.873   3.664  0.2399  0.0328  0.6083
   63CHL1   C17 5792   5.976   6.693   3.599  0.0474  0.4995  0.1556
   63CHL1   H17 5793   5.871   6.656   3.602  0.5754 -0.9868  2.3746
   63CHL1   C13 5794   6.020   6.673   3.451 -0.0250  0.2445  0.8135
   63CHL1   C18 5795   6.171   6.720   3.438  0.5330 -0.0206  0.0500
   63CHL1  H18A 5796   6.227   6.640   3.490 -0.6254 -0.1690  1.1078
   63CHL1  H18B 5797   6.212   6.722   3.335 -0.1248 -1.4619 -0.2633
   63CHL1  H18C 5798   6.195   6.820   3.481 -1.0619  1.0930 -1.4635
   63CHL1   C12 5799   5.994   6.533   3.390  0.2672 -0.1172 -0.3296
   63CHL1  H12A 5800   6.057   6.456   3.440 -2.2307 -0.1240  3.1702
   63CHL1  H12B 5801   5.888   6.503   3.399  0.8335 -2.3520 -0.6508
   63CHL1   C11 5802   6.022   6.530   3.238 -0.3879  0.2535  0.4230
   63CHL1  H11A 5803   6.129   6.552   3.221 -0.4725  1.2001  1.0395
   63CHL1  H11B 5804   5.993   6.432   3.193 -0.3009 -0.8322  2.6020
   63CHL1    C9 5805   5.948   6.648   3.168  0.1713  0.0701  0.5137
   63CHL1    H9 5806   5.842   6.618   3.181 -0.5252  0.1652 -3.6234
   63CHL1   C10 5807   5.967   6.648   3.009  0.1008  0.2473 -0.4242
   63CHL1   C19 5808   6.120   6.653   2.982  0.8319  1.0553 -0.2360
   63CHL1  H19A 5809   6.150   6.662   2.876  1.5623  4.7702  0.1506
   63CHL1  H19B 5810   6.158   6.736   3.046 -2.3976  1.4760  1.3760
   63CHL1  H19C 5811   6.168   6.561   3.021  2.5349  1.8479 -0.3990
   63CHL1    C1 5812   5.915   6.516   2.944  0.8998  0.6846 -0.7318
   63CHL1   H1A 5813   5.990   6.442   2.978 -0.5566 -0.6377 -0.2816
   63CHL1   H1B 5814   5.809   6.501   2.975 -0.0186  1.2317 -3.3468
   63CHL1    C2 5815   5.905   6.527   2.791  0.0544  0.0401  0.0643
   63CHL1   H2A 5816   5.852   6.436   2.756  0.4371 -0.2249  0.1617
   63CHL1   H2B 5817   6.011   6.516   2.759 -0.1553 -5.1893  0.3128
   63CHL1   C20 5818   6.056   6.632   3.710  0.6750  1.2051  0.0834
   63CHL1   H20 5819   6.164   6.659   3.709  0.7203  1.0565 -1.4689
   63CHL1   C21 5820   6.073   6.472   3.687 -1.0528  0.4946 -0.3522
   63CHL1  H21A 5821   5.975   6.423   3.666 -0.1867 -0.2436 -2.9544
   63CHL1  H21B 5822   6.118   6.423   3.776  0.4399  1.8753 -0.3066
   63CHL1  H21C 5823   6.147   6.457   3.606 -0.7419 -0.5020  0.1020
   63CHL1   C22 5824   6.001   6.673   3.852 -0.0982 -0.2235 -0.3221
   63CHL1  H22A 5825   5.979   6.781   3.843  2.2784  0.2453 -1.2850
   63CHL1  H22B 5826   5.912   6.609   3.868  0.0659 -0.1889  0.7523
   63CHL1   C23 5827   6.095   6.658   3.973  0.4312 -0.1622 -0.7449
   63CHL1  H23A 5828   6.105   6.548   3.979  1.6961 -0.1722 -2.2900
   63CHL1  H23B 5829   6.190   6.712   3.951  0.6916  0.5447  1.7834
   63CHL1   C24 5830   6.029   6.707   4.106  0.4536  1.1722  0.2670
   63CHL1  H24A 5831   5.990   6.808   4.080 -0.5473  0.9202  0.7272
   63CHL1  H24B 5832   5.939   6.647   4.133  1.2837  0.0402  0.5748
   63CHL1   C25 5833   6.115   6.705   4.234 -0.2966 -0.1129  0.3168
   63CHL1   H25 5834   6.203   6.769   4.210  1.2112 -1.5092  1.8127
   63CHL1   C26 5835   6.031   6.797   4.328  0.2497  0.4606 -0.0223
   63CHL1  H26A 5836   5.927   6.759   4.338  0.8713 -1.0996  0.8101
   63CHL1  H26B 5837   6.086   6.801   4.424  1.1263  2.9134 -0.5434
   63CHL1  H26C 5838   6.021   6.900   4.288 -0.9379  0.4228  0.1423
   63CHL1   C27 5839   6.151   6.569   4.289  0.2227  0.0858  0.1719
   63CHL1  H27A 5840   6.233   6.561   4.363 -1.8700 -2.8778  2.4032
   63CHL1  H27B 5841   6.069   6.520   4.345  1.0239  0.0964  1.3795
   63CHL1  H27C 5842   6.189   6.506   4.206  2.8522 -2.1588  2.8934
   64CHL1    C3 5843   3.764   4.513   2.940  0.4400 -0.1105 -0.3381
   64CHL1    H3 5844   3.772   4.403   2.929 -0.3533 -0.1118 -1.0284
   64CHL1    O3 5845   3.794   4.576   2.814  0.4599  0.9746  0.0374
   64CHL1   H3' 5846   3.773   4.669   2.823  1.4737  1.6993 -3.3331
   64CHL1    C4 5847   3.619   4.549   2.978 -0.5402 -0.8051  0.3235
   64CHL1   H4A 5848   3.615   4.659   2.965 -1.6479 -0.8841 -0.1176
   64CHL1   H4B 5849   3.537   4.515   2.912 -1.0182  0.0206  0.4797
   64CHL1    C5 5850   3.587   4.518   3.115 -0.1612 -0.9818 -0.4107
   64CHL1    C6 5851   3.476   4.445   3.139  0.0859  0.3059  0.1670
   64CHL1    H6 5852   3.414   4.408   3.056  1.1102  0.4250 -0.6742
   64CHL1    C7 5853   3.435   4.407   3.278 -0.2922 -0.0170 -0.7263
   64CHL1   H7A 5854   3.325   4.410   3.294 -0.3862  3.5589 -1.2200
   64CHL1   H7B 5855   3.470   4.301   3.284 -3.7359 -1.1930  1.8758
   64CHL1    C8 5856   3.502   4.486   3.395 -0.5031 -0.4156  0.2747
   64CHL1    H8 5857   3.464   4.590   3.402  0.4531 -0.1409  2.0510
   64CHL1   C14 5858   3.490   4.415   3.532  0.3145 -0.1480 -0.1055
   64CHL1   H14 5859   3.548   4.320   3.528  0.6412  0.0410  0.1110
   64CHL1   C15 5860   3.350   4.384   3.577 -0.1478  0.3522 -0.3835
   64CHL1  H15A 5861   3.291   4.470   3.541 -0.3098  1.6398  2.6478
   64CHL1  H15B 5862   3.320   4.284   3.540  0.3271 -0.0102  0.1861
   64CHL1   C16 5863   3.356   4.387   3.736  0.6073 -0.0371 -0.1872
   64CHL1  H16A 5864   3.294   4.472   3.772 -1.4783 -2.0470  1.2486
   64CHL1  H16B 5865   3.333   4.288   3.781  0.3637 -0.4207 -1.1193
   64CHL1   C17 5866   3.499   4.421   3.772 -0.0036  0.3720  1.1035
   64CHL1   H17 5867   3.547   4.320   3.773  0.1897  0.3730 -1.4426
   64CHL1   C13 5868   3.554   4.495   3.652 -0.0698 -0.8401  0.7837
   64CHL1   C18 5869   3.504   4.642   3.653 -0.2530  0.8366  1.1081
   64CHL1  H18A 5870   3.542   4.698   3.741  0.6229  0.2226  1.1266
   64CHL1  H18B 5871   3.550   4.702   3.572  0.2761  1.7652  2.0757
   64CHL1  H18C 5872   3.396   4.660   3.634  0.3741  2.9573 -1.0135
   64CHL1   C12 5873   3.704   4.498   3.622 -1.3536  0.3166 -0.1237
   64CHL1  H12A 5874   3.759   4.556   3.699 -0.2341  0.0180 -0.6727
   64CHL1  H12B 5875   3.734   4.390   3.625 -0.3474  0.6079  1.9774
   64CHL1   C11 5876   3.738   4.550   3.477 -0.5358  0.1555  0.1660
   64CHL1  H11A 5877   3.733   4.661   3.478 -3.0186  0.1819 -2.2285
   64CHL1  H11B 5878   3.843   4.523   3.454 -0.6375  1.1027 -1.5976
   64CHL1    C9 5879   3.651   4.501   3.362 -0.1081 -0.0343  0.5408
   64CHL1    H9 5880   3.683   4.395   3.348 -0.5170 -0.5255  2.9163
   64CHL1   C10 5881   3.685   4.563   3.223  0.6509  0.2665  0.5586
   64CHL1   C19 5882   3.657   4.712   3.250 -0.6007  0.3486 -0.6825
   64CHL1  H19A 5883   3.560   4.734   3.298 -0.1311  2.0790 -0.4349
   64CHL1  H19B 5884   3.745   4.760   3.299 -0.4887  0.2141 -0.7509
   64CHL1  H19C 5885   3.668   4.779   3.162  0.2119 -0.2718 -1.0670
   64CHL1    C1 5886   3.830   4.520   3.179  0.3693  0.5967 -0.1234
   64CHL1   H1A 5887   3.900   4.568   3.251  2.5088 -0.7450 -1.2006
   64CHL1   H1B 5888   3.836   4.410   3.191  0.3596  0.7946  2.0214
   64CHL1    C2 5889   3.869   4.557   3.036 -0.1681  0.1801 -0.5977
   64CHL1   H2A 5890   3.961   4.500   3.012 -1.4965 -2.1392 -0.4463
   64CHL1   H2B 5891   3.896   4.664   3.025  0.6881  0.0148 -0.2250
   64CHL1   C20 5892   3.511   4.489   3.911 -0.3750 -0.5147  0.0294
   64CHL1   H20 5893   3.443   4.577   3.920 -0.0060 -0.1051 -1.0360
   64CHL1   C21 5894   3.659   4.538   3.939  0.1186  0.2072 -0.5002
   64CHL1  H21A 5895   3.731   4.454   3.928  0.3864  0.1805  1.1647
   64CHL1  H21B 5896   3.691   4.568   4.041 -2.5100 -1.8043  1.0214
   64CHL1  H21C 5897   3.685   4.622   3.871 -0.8991  0.9359 -0.0048
   64CHL1   C22 5898   3.461   4.403   4.028  0.1813  0.6262  1.1265
   64CHL1  H22A 5899   3.357   4.372   4.005 -0.1437  1.3205  1.6294
   64CHL1  H22B 5900   3.524   4.311   4.033  2.0206  1.7646 -0.1030
   64CHL1   C23 5901   3.469   4.471   4.164  0.0115  0.1482  0.2669
   64CHL1  H23A 5902   3.580   4.479   4.170  0.2398 -1.9486 -0.2572
   64CHL1  H23B 5903   3.424   4.572   4.157  2.9933  1.5428 -0.6521
   64CHL1   C24 5904   3.409   4.396   4.282  0.1631 -0.4354 -0.1513
   64CHL1  H24A 5905   3.300   4.412   4.268  0.4828  1.2352 -0.9575
   64CHL1  H24B 5906   3.429   4.289   4.259 -0.9982 -1.1391  1.9159
   64CHL1   C25 5907   3.462   4.459   4.418  0.8291  0.8028  0.5714
   64CHL1   H25 5908   3.569   4.443   4.442  1.1105  4.0997  2.0384
   64CHL1   C26 5909   3.435   4.609   4.413  0.4306  0.6024 -0.4285
   64CHL1  H26A 5910   3.325   4.622   4.408  0.3846  0.0751 -0.8620
   64CHL1  H26B 5911   3.466   4.661   4.506 -2.6445  2.8947 -0.5251
   64CHL1  H26C 5912   3.483   4.669   4.333 -0.4139  1.6382 -0.1807
   64CHL1   C27 5913   3.378   4.403   4.535 -0.4512 -0.1009  0.2467
   64CHL1  H27A 5914   3.403   4.464   4.624 -0.6231  0.4071 -0.0480
   64CHL1  H27B 5915   3.269   4.418   4.521  0.0687  1.9457 -2.1259
   64CHL1  H27C 5916   3.396   4.295   4.555 -0.4054  0.2058  2.0813
   65CHL1    C3 5917   1.890   3.956   2.356 -0.0968 -0.1233  0.0947
   65CHL1    H3 5918   1.876   4.063   2.383  1.4428 -0.1944  1.3013
   65CHL1    O3 5919   1.890   3.941   2.215 -0.0387  0.0317 -0.1532
   65CHL1   H3' 5920   1.844   3.859   2.198 -0.2975 -0.0348  0.7958
   65CHL1    C4 5921   2.013   3.892   2.415 -0.2515  0.1792  0.7747
   65CHL1   H4A 5922   2.023   3.786   2.383 -0.3982  0.2070  0.6332
   65CHL1   H4B 5923   2.099   3.950   2.373  0.4104 -0.8514  0.6535
   65CHL1    C5 5924   2.016   3.903   2.566 -0.4233  0.6031  0.6008
   65CHL1    C6 5925   2.121   3.959   2.631 -0.1891 -0.5119  0.3287
   65CHL1    H6 5926   2.203   4.001   2.571 -0.8397  0.1191 -0.1379
   65CHL1    C7 5927   2.128   3.963   2.784  0.4604  0.6248 -0.0973
   65CHL1   H7A 5928   2.221   3.910   2.814 -0.3241 -0.3408  0.7193
   65CHL1   H7B 5929   2.126   4.065   2.827 -0.9861  1.8227 -2.7319
   65CHL1    C8 5930   2.012   3.881   2.853  0.3006  0.1082 -0.6047
   65CHL1    H8 5931   2.039   3.774   2.842  1.2552  0.4193 -1.3729
   65CHL1   C14 5932   2.000   3.917   3.004 -0.1539 -0.6256  0.2696
   65CHL1   H14 5933   1.972   4.024   3.013 -0.3765 -0.6520 -0.0977
   65CHL1   C15 5934   2.127   3.908   3.084  0.0826 -0.1388  0.0183
   65CHL1  H15A 5935   2.184   3.824   3.038 -2.3022 -1.4926 -0.6163
   65CHL1  H15B 5936   2.191   3.999   3.080 -0.1328  0.0221  0.2182
   65CHL1   C16 5937   2.090   3.892   3.229  0.3888  0.2560  0.0880
   65CHL1  H16A 5938   2.143   3.797   3.251  1.6493  1.3158  1.7409
   65CHL1  H16B 5939   2.127   3.976   3.290  0.6753 -0.4149  0.8457
   65CHL1   C17 5940   1.934   3.881   3.225  0.0560 -0.3002 -1.0641
   65CHL1   H17 5941   1.893   3.984   3.232  1.3879  0.1924  0.0347
   65CHL1   C13 5942   1.902   3.838   3.082  0.8988 -0.3447  0.4699
   65CHL1   C18 5943   1.937   3.684   3.075 -0.0662  0.8664  0.2415
   65CHL1  H18A 5944   1.912   3.642   2.975 -1.9819 -0.0549  1.0445
   65CHL1  H18B 5945   2.042   3.662   3.102  0.1272 -1.2948 -1.8912
   65CHL1  H18C 5946   1.868   3.636   3.148  0.3637  1.4907  1.0596
   65CHL1   C12 5947   1.762   3.859   3.019 -0.1892  0.2558  0.3798
   65CHL1  H12A 5948   1.693   3.785   3.066  0.6494  0.0237  1.2872
   65CHL1  H12B 5949   1.738   3.966   3.030 -1.0520  0.4890 -2.8146
   65CHL1   C11 5950   1.762   3.830   2.865 -0.3489 -0.3370  1.0691
   65CHL1  H11A 5951   1.775   3.721   2.852  0.5031 -0.0718 -0.4472
   65CHL1  H11B 5952   1.660   3.859   2.831 -0.1882  3.1027  3.0557
   65CHL1    C9 5953   1.879   3.897   2.788 -0.5734  0.5699 -0.1103
   65CHL1    H9 5954   1.853   4.006   2.789 -0.7141  0.5941 -2.1719
   65CHL1   C10 5955   1.885   3.855   2.638  0.2869 -0.2902 -0.6470
   65CHL1   C19 5956   1.885   3.704   2.641 -0.0215  0.4863  0.2587
   65CHL1  H19A 5957   1.949   3.653   2.716 -3.4902 -0.7047  2.6559
   65CHL1  H19B 5958   1.783   3.662   2.656 -0.0852  0.3049 -0.6568
   65CHL1  H19C 5959   1.905   3.663   2.540 -1.1625  0.5097  0.0055
   65CHL1    C1 5960   1.762   3.920   2.567  0.1700  0.2807  0.3692
   65CHL1   H1A 5961   1.666   3.883   2.609  0.3206 -1.1666 -0.5286
   65CHL1   H1B 5962   1.757   4.028   2.595 -1.6512  0.6537 -1.1849
   65CHL1    C2 5963   1.761   3.902   2.416 -0.1291  0.4793  0.0852
   65CHL1   H2A 5964   1.679   3.970   2.385 -0.4043  1.1254  2.1179
   65CHL1   H2B 5965   1.752   3.794   2.393  1.8976 -0.2524  2.3196
   65CHL1   C20 5966   1.877   3.808   3.348 -0.0389  0.4306 -0.3976
   65CHL1   H20 5967   1.906   3.701   3.340  1.3389  0.7150  0.4312
   65CHL1   C21 5968   1.727   3.821   3.346 -0.1708  0.4601  0.2343
   65CHL1  H21A 5969   1.685   3.765   3.432  1.6106 -1.9121 -0.3552
   65CHL1  H21B 5970   1.673   3.774   3.262 -3.8968 -1.2288  3.2314
   65CHL1  H21C 5971   1.701   3.930   3.351 -1.0014  0.2232  2.1702
   65CHL1   C22 5972   1.935   3.856   3.488 -0.2679 -1.2670 -0.5994
   65CHL1  H22A 5973   2.044   3.877   3.476 -0.3983  1.3052  1.5988
   65CHL1  H22B 5974   1.889   3.955   3.508 -1.4987 -1.8523 -0.4605
   65CHL1   C23 5975   1.902   3.760   3.602  0.1141  0.0966 -0.0679
   65CHL1  H23A 5976   1.793   3.774   3.620  0.0139  1.1171 -1.3535
   65CHL1  H23B 5977   1.922   3.657   3.566  0.2217  0.9347 -2.5871
   65CHL1   C24 5978   1.970   3.799   3.733  0.4184 -0.1365 -0.0967
   65CHL1  H24A 5979   2.081   3.797   3.724  0.4619  0.7877  0.1258
   65CHL1  H24B 5980   1.945   3.904   3.758  1.0767 -0.4180  1.9428
   65CHL1   C25 5981   1.917   3.711   3.850 -0.4858 -1.3066  0.2821
   65CHL1   H25 5982   1.807   3.723   3.841 -0.3344  0.7616  0.6959
   65CHL1   C26 5983   1.958   3.567   3.833  0.1028  0.5233 -0.5498
   65CHL1  H26A 5984   1.912   3.509   3.916 -0.3891  2.3277  0.4881
   65CHL1  H26B 5985   1.910   3.520   3.744  1.1176 -1.3630 -0.1630
   65CHL1  H26C 5986   2.069   3.563   3.833  0.0892 -0.9709  0.8279
   65CHL1   C27 5987   1.958   3.762   3.990 -0.1893 -0.3595 -0.3021
   65CHL1  H27A 5988   1.912   3.861   4.005  0.9070  0.3033 -1.1887
   65CHL1  H27B 5989   1.926   3.685   4.064  1.5894 -0.1620  0.7303
   65CHL1  H27C 5990   2.065   3.780   4.012 -0.1325 -2.5078  1.6233
   66CHL1    C3 5991   5.204   4.105   2.743 -0.0045 -0.0454 -0.3613
   66CHL1    H3 5992   5.314   4.122   2.746  0.1483 -0.8137 -1.0532
   66CHL1    O3 5993   5.174   4.091   2.605 -0.4969 -0.3403 -0.7066
   66CHL1   H3' 5994   5.205   4.176   2.573 -1.2672  0.2320  0.0226
   66CHL1    C4 5995   5.170   3.975   2.815 -0.0302  0.8361  0.1508
   66CHL1   H4A 5996   5.061   3.954   2.811 -0.2344  1.9662 -0.8737
   66CHL1   H4B 5997   5.221   3.894   2.759  1.3868  1.5114  0.4179
   66CHL1    C5 5998   5.218   3.996   2.960  0.2109 -0.6433 -0.4157
   66CHL1    C6 5999   5.313   3.928   3.028 -0.3332 -0.3462 -0.1269
   66CHL1    H6 6000   5.368   3.852   2.971 -1.1600 -0.3318 -0.9850
   66CHL1    C7 6001   5.339   3.936   3.175  0.3013 -0.2746 -0.3918
   66CHL1   H7A 6002   5.330   3.834   3.219 -0.1154 -1.3592 -2.8300
   66CHL1   H7B 6003   5.440   3.978   3.192  1.0319 -2.6110  1.6740
   66CHL1    C8 6004   5.236   4.019   3.249 -0.1889 -0.8382 -0.2529
   66CHL1    H8 6005   5.140   3.963   3.261 -0.4056 -0.0848  1.9650
   66CHL1   C14 6006   5.291   4.059   3.389 -0.6237  0.9524  0.2195
   66CHL1   H14 6007   5.379   4.122   3.364 -0.0860  0.0234 -0.2617
   66CHL1   C15 6008   5.333   3.947   3.477 -0.1488  0.4126 -0.7463
   66CHL1  H15A 6009   5.257   3.866   3.476  1.7196 -1.4389 -2.1457
   66CHL1  H15B 6010   5.423   3.900   3.433 -0.6793  2.7352 -4.7262
   66CHL1   C16 6011   5.349   4.007   3.618 -0.1599  0.0802 -0.2551
   66CHL1  H16A 6012   5.282   3.952   3.688  0.4106 -1.1735 -0.6665
   66CHL1  H16B 6013   5.452   3.997   3.659 -1.1281 -0.3397  2.3065
   66CHL1   C17 6014   5.303   4.156   3.601  0.0827  0.1733 -0.9493
   66CHL1   H17 6015   5.390   4.218   3.570 -1.3748  2.5634 -0.5536
   66CHL1   C13 6016   5.208   4.156   3.474 -0.5790 -0.6234 -0.2200
   66CHL1   C18 6017   5.066   4.108   3.506  0.3958 -0.2447  0.1143
   66CHL1  H18A 6018   5.057   4.011   3.560 -1.0675  1.3380  2.9784
   66CHL1  H18B 6019   5.015   4.183   3.570  0.5878 -1.4276  1.7090
   66CHL1  H18C 6020   5.019   4.095   3.406  0.1561  0.6838  0.0986
   66CHL1   C12 6021   5.206   4.291   3.390 -1.0428  0.2493  0.2485
   66CHL1  H12A 6022   5.162   4.369   3.455 -0.7376 -1.5508  2.7886
   66CHL1  H12B 6023   5.312   4.316   3.369 -0.6633 -1.6417 -0.3156
   66CHL1   C11 6024   5.150   4.271   3.248  0.2726 -0.8928  0.7037
   66CHL1  H11A 6025   5.039   4.266   3.255 -0.0799  1.8659 -1.2084
   66CHL1  H11B 6026   5.160   4.361   3.184  3.9980 -1.3274  0.4340
   66CHL1    C9 6027   5.212   4.151   3.168  0.0284  0.0787 -0.3847
   66CHL1    H9 6028   5.315   4.187   3.150 -0.7008  2.4234 -0.2233
   66CHL1   C10 6029   5.147   4.114   3.034 -0.2718 -1.0476  0.2886
   66CHL1   C19 6030   4.993   4.100   3.053  0.1336 -0.0451  0.2052
   66CHL1  H19A 6031   4.946   4.188   3.101  0.4977 -0.4251  1.2819
   66CHL1  H19B 6032   4.951   4.091   2.950 -0.6396  1.2099  0.3961
   66CHL1  H19C 6033   4.965   4.006   3.105 -1.6904  0.4114  0.1145
   66CHL1    C1 6034   5.159   4.241   2.946 -0.2629  0.6450  0.0968
   66CHL1   H1A 6035   5.082   4.307   2.991 -0.2593  1.2768 -0.7973
   66CHL1   H1B 6036   5.260   4.287   2.959  0.5569 -0.9361 -0.3957
   66CHL1    C2 6037   5.124   4.219   2.798 -0.2051  0.7216 -0.5991
   66CHL1   H2A 6038   5.150   4.315   2.748  0.2088  1.0920  0.2964
   66CHL1   H2B 6039   5.015   4.201   2.785 -0.3804 -1.3263  2.5306
   66CHL1   C20 6040   5.245   4.212   3.728 -0.0521 -0.9461  0.0516
   66CHL1   H20 6041   5.155   4.154   3.756 -1.2205 -0.3956 -2.3481
   66CHL1   C21 6042   5.206   4.358   3.708  0.6712 -1.3763  0.9462
   66CHL1  H21A 6043   5.113   4.360   3.647  2.5989 -2.2985 -2.2437
   66CHL1  H21B 6044   5.277   4.431   3.663 -0.7667  0.9797  2.2506
   66CHL1  H21C 6045   5.191   4.414   3.803  1.6811 -0.2159  0.4494
   66CHL1   C22 6046   5.345   4.203   3.853  0.2505  0.0132 -0.1021
   66CHL1  H22A 6047   5.400   4.106   3.848 -2.3505 -1.5205 -1.0267
   66CHL1  H22B 6048   5.432   4.272   3.846 -0.5480  1.2942  1.9668
   66CHL1   C23 6049   5.285   4.215   3.994 -0.0489 -0.8191 -0.2771
   66CHL1  H23A 6050   5.242   4.316   4.012 -1.1187 -1.4700  0.9632
   66CHL1  H23B 6051   5.196   4.150   3.990 -1.4442  0.8260  1.7970
   66CHL1   C24 6052   5.375   4.170   4.112 -0.4376  0.4678  0.7494
   66CHL1  H24A 6053   5.394   4.063   4.092 -0.8017  0.4240  0.6224
   66CHL1  H24B 6054   5.478   4.210   4.100 -0.3059 -0.2309 -0.6597
   66CHL1   C25 6055   5.329   4.190   4.252 -0.5144  0.0733 -0.2369
   66CHL1   H25 6056   5.222   4.163   4.256 -0.2849 -0.7808  0.6462
   66CHL1   C26 6057   5.411   4.122   4.367  0.0573  0.3578 -0.8777
   66CHL1  H26A 6058   5.408   4.011   4.356  0.2065  0.2575  0.0148
   66CHL1  H26B 6059   5.518   4.151   4.364  0.0062  0.5392 -0.9215
   66CHL1  H26C 6060   5.368   4.143   4.467 -1.4848  2.8389 -1.9827
   66CHL1   C27 6061   5.338   4.336   4.286 -0.1400 -0.8374 -0.3996
   66CHL1  H27A 6062   5.331   4.353   4.396 -1.7772 -0.1969 -0.5677
   66CHL1  H27B 6063   5.257   4.388   4.231  0.7324 -0.1148 -1.0235
   66CHL1  H27C 6064   5.431   4.385   4.250 -0.3499  0.5916  0.8887
   67CHL1    C3 6065   4.553   2.523   2.893 -0.5262  0.3921  0.3373
   67CHL1    H3 6066   4.614   2.433   2.917 -2.2136 -0.8606  0.1244
   67CHL1    O3 6067   4.541   2.530   2.752 -0.3506 -0.0680 -0.2990
   67CHL1   H3' 6068   4.448   2.554   2.744 -0.2574 -0.0457 -1.4108
   67CHL1    C4 6069   4.414   2.510   2.949 -0.0532 -0.0380  0.2922
   67CHL1   H4A 6070   4.359   2.598   2.910  0.4407 -0.3919 -1.2709
   67CHL1   H4B 6071   4.365   2.418   2.909 -0.1355 -0.3739  1.1524
   67CHL1    C5 6072   4.410   2.523   3.099  0.4957  0.8946 -0.1115
   67CHL1    C6 6073   4.364   2.419   3.168 -0.4223  0.6522  0.0810
   67CHL1    H6 6074   4.316   2.341   3.106  1.3414 -1.0276  0.7061
   67CHL1    C7 6075   4.361   2.406   3.314 -0.4128 -0.1663  0.3567
   67CHL1   H7A 6076   4.264   2.367   3.351 -0.9032  1.3688  0.8088
   67CHL1   H7B 6077   4.443   2.341   3.350  1.0457  0.6444 -1.3558
   67CHL1    C8 6078   4.379   2.542   3.396 -0.1814 -0.6050 -0.6321
   67CHL1    H8 6079   4.284   2.599   3.388 -0.3689 -0.3788  2.2856
   67CHL1   C14 6080   4.420   2.523   3.539  0.6272  0.0114  0.0210
   67CHL1   H14 6081   4.505   2.454   3.520  1.3656  0.6203  0.9875
   67CHL1   C15 6082   4.333   2.433   3.636 -0.4475  0.2532 -0.0180
   67CHL1  H15A 6083   4.227   2.462   3.647 -0.8493 -1.6489  1.8499
   67CHL1  H15B 6084   4.334   2.323   3.620  0.9589 -0.3449  3.3004
   67CHL1   C16 6085   4.393   2.464   3.772  0.9819  0.1800 -0.1393
   67CHL1  H16A 6086   4.321   2.504   3.847  1.9967  0.9556  0.4478
   67CHL1  H16B 6087   4.440   2.379   3.827 -0.9636  0.0657  1.4896
   67CHL1   C17 6088   4.493   2.587   3.760  0.2194 -0.1318 -0.1422
   67CHL1   H17 6089   4.588   2.531   3.748  1.8606  2.6483 -0.9398
   67CHL1   C13 6090   4.467   2.644   3.618  0.6393 -0.1680 -0.1729
   67CHL1   C18 6091   4.357   2.750   3.632 -0.0043 -0.4409  0.3237
   67CHL1  H18A 6092   4.396   2.847   3.671 -1.3982  1.3324 -2.3739
   67CHL1  H18B 6093   4.305   2.771   3.536  2.1160  0.0638 -0.7858
   67CHL1  H18C 6094   4.271   2.718   3.694 -0.6791  0.3636 -0.1619
   67CHL1   C12 6095   4.591   2.701   3.544  0.5422  0.1392 -0.7274
   67CHL1  H12A 6096   4.623   2.789   3.605 -0.8908  0.3847 -0.2931
   67CHL1  H12B 6097   4.668   2.622   3.555  0.1502  0.0644  2.4325
   67CHL1   C11 6098   4.560   2.737   3.405  0.0758 -0.4712  0.0793
   67CHL1  H11A 6099   4.491   2.824   3.402 -2.3977 -2.2333  1.8690
   67CHL1  H11B 6100   4.656   2.771   3.361  2.1297 -3.1541  2.1799
   67CHL1    C9 6101   4.499   2.616   3.325  0.1395 -0.1051  0.4738
   67CHL1    H9 6102   4.580   2.540   3.331  0.7083  0.5291  0.9286
   67CHL1   C10 6103   4.483   2.642   3.170  0.6994  0.3273 -0.3479
   67CHL1   C19 6104   4.386   2.767   3.155  0.4562  0.2161 -0.2724
   67CHL1  H19A 6105   4.348   2.777   3.051 -1.1743  0.8466  0.3553
   67CHL1  H19B 6106   4.298   2.742   3.217  1.2047 -0.1860  0.6615
   67CHL1  H19C 6107   4.417   2.864   3.199 -0.0525  0.3143 -0.1266
   67CHL1    C1 6108   4.623   2.659   3.097  0.4627 -0.0954  0.0016
   67CHL1   H1A 6109   4.663   2.755   3.135 -1.4819  1.4482 -1.6437
   67CHL1   H1B 6110   4.682   2.570   3.129 -1.0654 -0.7664  1.0744
   67CHL1    C2 6111   4.629   2.646   2.945  0.9820 -1.1273  0.2637
   67CHL1   H2A 6112   4.730   2.642   2.900  0.3743  1.0642 -1.5031
   67CHL1   H2B 6113   4.586   2.738   2.901  5.2427  0.9802  0.0171
   67CHL1   C20 6114   4.517   2.669   3.889 -0.0326 -0.3045 -0.7596
   67CHL1   H20 6115   4.422   2.723   3.911  0.5687  1.3194 -1.8949
   67CHL1   C21 6116   4.628   2.778   3.880 -0.1529  0.3225  0.1673
   67CHL1  H21A 6117   4.592   2.862   3.816  0.9167  0.9290  0.3308
   67CHL1  H21B 6118   4.721   2.734   3.838 -0.7487 -0.2187 -0.6237
   67CHL1  H21C 6119   4.649   2.828   3.977 -3.6190 -0.0253  1.2393
   67CHL1   C22 6120   4.559   2.585   4.018  0.7596  0.2372 -0.1047
   67CHL1  H22A 6121   4.506   2.488   4.028 -0.0941  0.7831  0.8011
   67CHL1  H22B 6122   4.665   2.559   3.998  1.1260  0.3643  1.5542
   67CHL1   C23 6123   4.542   2.652   4.155  0.0848 -0.0006  0.0782
   67CHL1  H23A 6124   4.593   2.750   4.141 -0.6136  0.0379 -2.8192
   67CHL1  H23B 6125   4.432   2.664   4.169  0.1210  0.2575  0.1363
   67CHL1   C24 6126   4.601   2.571   4.268 -0.0265 -0.6028  0.0131
   67CHL1  H24A 6127   4.571   2.465   4.252 -2.9282  0.3936 -1.9299
   67CHL1  H24B 6128   4.711   2.581   4.256 -0.0916  3.6562  1.4319
   67CHL1   C25 6129   4.572   2.616   4.413 -0.2742 -0.3643  0.8984
   67CHL1   H25 6130   4.647   2.555   4.467 -0.3957 -2.0059 -0.6877
   67CHL1   C26 6131   4.595   2.769   4.434 -0.3552  0.0680 -0.3780
   67CHL1  H26A 6132   4.574   2.790   4.541  2.8702 -0.4595  0.4595
   67CHL1  H26B 6133   4.696   2.796   4.396 -1.2143  2.1802 -1.3221
   67CHL1  H26C 6134   4.522   2.835   4.383  0.5407  1.4524  0.0829
   67CHL1   C27 6135   4.426   2.576   4.449  0.5106  0.0581  0.0638
   67CHL1  H27A 6136   4.423   2.473   4.407 -1.2845  0.3746 -0.6675
   67CHL1  H27B 6137   4.404   2.583   4.558 -1.2778  1.6015 -0.3465
   67CHL1  H27C 6138   4.357   2.648   4.400  0.0279 -0.6781 -0.3567
   68CHL1    C3 6139   3.423   0.876   2.658 -0.3174  1.0315  0.4200
   68CHL1    H3 6140   3.414   0.766   2.650  1.1803  0.5232  3.7030
   68CHL1    O3 6141   3.434   0.939   2.528 -0.9058 -0.1569 -0.1176
   68CHL1   H3' 6142   3.377   1.015   2.525 -1.9374 -0.8883 -3.1059
   68CHL1    C4 6143   3.290   0.921   2.724  0.1000 -0.3120  0.6669
   68CHL1   H4A 6144   3.284   1.030   2.743 -1.2522 -0.4584  1.2018
   68CHL1   H4B 6145   3.213   0.894   2.648  1.0517  2.1389 -1.2876
   68CHL1    C5 6146   3.268   0.854   2.861  0.1651  0.1984  0.6062
   68CHL1    C6 6147   3.168   0.777   2.888  0.3781  0.1231  0.4166
   68CHL1    H6 6148   3.096   0.763   2.806  2.0873 -2.1053 -0.8028
   68CHL1    C7 6149   3.124   0.724   3.023  0.6542 -0.3042  0.1436
   68CHL1   H7A 6150   3.020   0.759   3.042  0.6065  0.0095 -0.6560
   68CHL1   H7B 6151   3.121   0.613   3.029  1.2373 -0.3631 -0.4721
   68CHL1    C8 6152   3.220   0.785   3.130  0.6754 -0.3140  0.0813
   68CHL1    H8 6153   3.190   0.889   3.155  1.8557  0.3195 -1.0116
   68CHL1   C14 6154   3.201   0.702   3.254  0.2328  0.9917 -0.3665
   68CHL1   H14 6155   3.238   0.604   3.216 -0.9377  0.2238  0.3974
   68CHL1   C15 6156   3.060   0.693   3.315  0.1063  0.4349  0.2669
   68CHL1  H15A 6157   3.017   0.795   3.318  0.2971  0.5133  0.3517
   68CHL1  H15B 6158   3.003   0.626   3.247  1.8263 -0.7322 -0.1191
   68CHL1   C16 6159   3.090   0.641   3.458 -0.2154  0.0778  0.3316
   68CHL1  H16A 6160   3.042   0.714   3.527 -0.1899 -1.0791  1.6119
   68CHL1  H16B 6161   3.051   0.538   3.473  0.8171 -0.4279 -0.3410
   68CHL1   C17 6162   3.246   0.641   3.484 -0.2398 -0.3418  0.4346
   68CHL1   H17 6163   3.286   0.539   3.464  0.9999  0.3457 -0.7975
   68CHL1   C13 6164   3.296   0.732   3.366 -0.2052  0.0598 -0.3676
   68CHL1   C18 6165   3.271   0.875   3.421  0.7914  0.0677 -0.1310
   68CHL1  H18A 6166   3.348   0.914   3.492  1.9503 -1.6533 -0.3741
   68CHL1  H18B 6167   3.278   0.947   3.337  0.9075 -0.6639 -0.7625
   68CHL1  H18C 6168   3.168   0.883   3.462  0.9918  1.2475  0.1920
   68CHL1   C12 6169   3.439   0.718   3.318 -0.2444 -0.5647  0.4814
   68CHL1  H12A 6170   3.513   0.753   3.393  0.0279 -2.0350  0.9244
   68CHL1  H12B 6171   3.457   0.609   3.305 -0.7035 -0.9226  2.5209
   68CHL1   C11 6172   3.469   0.806   3.202 -0.1442  0.0287 -0.4675
   68CHL1  H11A 6173   3.470   0.915   3.226  4.7504  0.6798 -2.6373
   68CHL1  H11B 6174   3.573   0.791   3.169 -0.0156 -1.5148  0.5543
   68CHL1    C9 6175   3.372   0.786   3.088 -0.5405  0.0769 -0.8080
   68CHL1    H9 6176   3.399   0.684   3.052 -2.2168 -0.3127 -1.0355
   68CHL1   C10 6177   3.390   0.876   2.965  0.4465 -0.2221  0.0686
   68CHL1   C19 6178   3.376   1.028   3.005  0.0193  0.8712  0.2582
   68CHL1  H19A 6179   3.450   1.074   3.075 -0.1181  2.8947 -0.8468
   68CHL1  H19B 6180   3.370   1.083   2.908  3.2961 -1.7270 -1.6382
   68CHL1  H19C 6181   3.278   1.048   3.053 -0.3558 -0.7428  0.2023
   68CHL1    C1 6182   3.523   0.837   2.894  0.2536 -0.9467  0.5261
   68CHL1   H1A 6183   3.615   0.870   2.948  0.4849 -1.0033  0.1664
   68CHL1   H1B 6184   3.529   0.732   2.860  1.8315 -0.9254  0.6474
   68CHL1    C2 6185   3.535   0.912   2.751 -0.1113  0.2025 -0.2813
   68CHL1   H2A 6186   3.632   0.893   2.700  0.4243 -0.5865  0.9987
   68CHL1   H2B 6187   3.537   1.022   2.768 -0.6638  0.0488  0.8581
   68CHL1   C20 6188   3.282   0.659   3.634 -0.0631 -0.2236  0.8687
   68CHL1   H20 6189   3.254   0.760   3.673  0.0767  0.8503 -1.6110
   68CHL1   C21 6190   3.437   0.650   3.653  0.4658 -0.2448 -0.0888
   68CHL1  H21A 6191   3.492   0.743   3.627 -0.2000  0.4164  0.8288
   68CHL1  H21B 6192   3.487   0.572   3.591  1.6970 -0.7418  1.4793
   68CHL1  H21C 6193   3.461   0.619   3.757  1.0112 -0.0786 -0.1602
   68CHL1   C22 6194   3.201   0.556   3.710  0.6189 -0.0932  0.1702
   68CHL1  H22A 6195   3.095   0.587   3.715  0.7389  0.2986  0.4217
   68CHL1  H22B 6196   3.213   0.455   3.666  4.6243  0.3576 -0.1552
   68CHL1   C23 6197   3.228   0.541   3.864 -0.8485 -0.3216 -0.0217
   68CHL1  H23A 6198   3.335   0.528   3.889 -0.0639  1.4468 -2.1726
   68CHL1  H23B 6199   3.215   0.647   3.895  0.7397 -0.2533  0.4927
   68CHL1   C24 6200   3.145   0.434   3.930  0.0422 -0.1153 -0.8717
   68CHL1  H24A 6201   3.045   0.479   3.950  0.4023 -0.5549  2.7258
   68CHL1  H24B 6202   3.123   0.351   3.860 -2.1894  0.3741 -0.8219
   68CHL1   C25 6203   3.195   0.379   4.067 -0.0360  0.2591 -0.6826
   68CHL1   H25 6204   3.217   0.469   4.128 -1.1533 -0.3368  0.6772
   68CHL1   C26 6205   3.089   0.298   4.138  0.3830 -0.1235 -0.5784
   68CHL1  H26A 6206   3.111   0.281   4.246 -0.7624 -1.0355 -0.4607
   68CHL1  H26B 6207   3.000   0.364   4.150  0.6900  0.0805  0.8145
   68CHL1  H26C 6208   3.066   0.200   4.092 -1.8722  0.1184 -0.1139
   68CHL1   C27 6209   3.332   0.302   4.074 -0.2508 -0.2778  0.4792
   68CHL1  H27A 6210   3.305   0.198   4.049  0.5518 -0.0821 -1.3653
   68CHL1  H27B 6211   3.409   0.339   4.002  1.0249 -1.3558  1.2337
   68CHL1  H27C 6212   3.370   0.311   4.178 -0.6721 -0.4744  0.6494
   69CHL1    C3 6213   2.918   6.738   2.505  0.0601 -0.0512 -0.3106
   69CHL1    H3 6214   2.817   6.697   2.530 -0.8693  1.7248 -0.9728
   69CHL1    O3 6215   2.913   6.792   2.377  0.4455 -0.3796  0.5003
   69CHL1   H3' 6216   2.998   6.832   2.356  1.2668 -2.7121 -1.0383
   69CHL1    C4 6217   2.951   6.851   2.598  0.0721 -0.5245  0.3621
   69CHL1   H4A 6218   3.041   6.911   2.574 -1.1256  2.0311  1.7960
   69CHL1   H4B 6219   2.871   6.928   2.592  0.8663  0.3522  0.7217
   69CHL1    C5 6220   2.962   6.800   2.738 -0.2260 -0.5776 -0.3691
   69CHL1    C6 6221   2.890   6.850   2.839  0.6965  0.9514 -0.1820
   69CHL1    H6 6222   2.823   6.934   2.817 -0.4238  1.4805  4.2618
   69CHL1    C7 6223   2.879   6.803   2.981 -1.2201  0.6476  0.2792
   69CHL1   H7A 6224   2.902   6.891   3.045  0.8502 -1.2445  2.3401
   69CHL1   H7B 6225   2.787   6.747   3.006 -0.0012 -0.2603  3.1291
   69CHL1    C8 6226   2.999   6.715   3.023 -0.4441  0.2817  0.8124
   69CHL1    H8 6227   3.082   6.788   3.031 -0.5130  0.6459 -1.2235
   69CHL1   C14 6228   2.993   6.641   3.155  0.6798 -0.2486 -0.2620
   69CHL1   H14 6229   2.923   6.554   3.148 -0.1370  0.5050 -1.8000
   69CHL1   C15 6230   2.944   6.718   3.287 -0.1383 -0.1318  0.1747
   69CHL1  H15A 6231   2.983   6.822   3.291 -1.0444  0.2384 -0.2400
   69CHL1  H15B 6232   2.833   6.722   3.284 -0.1622 -0.9103 -0.4166
   69CHL1   C16 6233   2.985   6.635   3.409 -0.1623 -0.0263 -0.4916
   69CHL1  H16A 6234   3.044   6.688   3.486 -0.8547  0.3869 -0.2302
   69CHL1  H16B 6235   2.897   6.585   3.457  0.6347 -0.0904  0.9564
   69CHL1   C17 6236   3.077   6.525   3.347 -1.2691  0.1660 -0.2358
   69CHL1   H17 6237   3.009   6.439   3.329  0.0688 -0.9908  0.0391
   69CHL1   C13 6238   3.122   6.575   3.206  0.2259 -0.3460 -0.1190
   69CHL1   C18 6239   3.238   6.683   3.212  0.4857  0.2781 -0.0885
   69CHL1  H18A 6240   3.215   6.766   3.281 -1.0919  1.7924 -2.3134
   69CHL1  H18B 6241   3.332   6.634   3.245  1.4469  1.7959 -0.4675
   69CHL1  H18C 6242   3.266   6.731   3.116 -1.9069  0.7595 -0.6099
   69CHL1   C12 6243   3.157   6.471   3.096 -0.0329  0.1981 -0.1473
   69CHL1  H12A 6244   3.258   6.434   3.123  1.3254  3.3763 -0.4020
   69CHL1  H12B 6245   3.075   6.396   3.095 -0.6021  0.7762  1.2191
   69CHL1   C11 6246   3.163   6.526   2.950  0.4740 -0.4933  0.2398
   69CHL1  H11A 6247   3.258   6.583   2.941 -0.6999  1.1580 -2.8626
   69CHL1  H11B 6248   3.163   6.433   2.889  0.2847  0.5941 -1.4734
   69CHL1    C9 6249   3.044   6.617   2.911  1.0555  0.2377 -0.9554
   69CHL1    H9 6250   2.954   6.552   2.904 -0.7970  2.6078 -0.4490
   69CHL1   C10 6251   3.057   6.675   2.768  0.7555 -0.5493  0.3276
   69CHL1   C19 6252   3.199   6.727   2.736 -0.7672 -0.4009  0.2148
   69CHL1  H19A 6253   3.207   6.789   2.644 -0.7970 -1.1808 -0.3244
   69CHL1  H19B 6254   3.224   6.791   2.823 -0.8665  0.4914 -0.3961
   69CHL1  H19C 6255   3.279   6.651   2.738 -0.0802  0.2226 -1.4718
   69CHL1    C1 6256   3.024   6.568   2.660 -0.4222 -0.0655 -0.2698
   69CHL1   H1A 6257   3.113   6.501   2.660 -1.1013 -0.9767  0.1944
   69CHL1   H1B 6258   2.930   6.521   2.695 -0.5599 -1.5264 -2.3921
   69CHL1    C2 6259   3.017   6.620   2.516  0.0893 -0.3766 -0.0031
   69CHL1   H2A 6260   2.986   6.542   2.443  0.6955 -1.0344  0.4387
   69CHL1   H2B 6261   3.115   6.667   2.495  0.4489 -0.5022  1.3132
   69CHL1   C20 6262   3.187   6.465   3.443 -0.0611 -0.1893  0.8054
   69CHL1   H20 6263   3.270   6.539   3.448  0.2298 -0.3860 -0.6859
   69CHL1   C21 6264   3.231   6.324   3.390  0.0792  0.2862  0.4532
   69CHL1  H21A 6265   3.307   6.292   3.464  2.7729  1.8046 -1.4668
   69CHL1  H21B 6266   3.297   6.317   3.301  0.7525  0.7416  0.9099
   69CHL1  H21C 6267   3.148   6.251   3.375  0.4072  0.3641 -2.3473
   69CHL1   C22 6268   3.131   6.451   3.585 -0.0140 -0.5259 -0.5436
   69CHL1  H22A 6269   3.119   6.551   3.632  1.3741 -0.9153  0.7378
   69CHL1  H22B 6270   3.037   6.392   3.579  0.2855 -1.3810  1.8304
   69CHL1   C23 6271   3.229   6.388   3.692  0.0255 -0.3987 -0.1174
   69CHL1  H23A 6272   3.242   6.278   3.677 -1.0525 -0.3939 -1.2205
   69CHL1  H23B 6273   3.319   6.442   3.656 -0.7042 -0.6491 -2.4840
   69CHL1   C24 6274   3.182   6.424   3.830  0.1344 -1.0141 -0.7457
   69CHL1  H24A 6275   3.163   6.533   3.833 -3.0131 -1.4461 -1.7770
   69CHL1  H24B 6276   3.083   6.380   3.855 -0.6109  0.9769  0.0135
   69CHL1   C25 6277   3.271   6.398   3.952 -0.2833 -0.1093 -0.4976
   69CHL1   H25 6278   3.290   6.289   3.957 -2.2504 -0.4439  0.8484
   69CHL1   C26 6279   3.411   6.458   3.927 -0.6963  0.2622  0.1341
   69CHL1  H26A 6280   3.471   6.441   4.018  0.0432  0.6168 -0.2796
   69CHL1  H26B 6281   3.459   6.403   3.843  1.3219  0.2534  1.2327
   69CHL1  H26C 6282   3.394   6.565   3.904 -1.8483  0.1426  0.3490
   69CHL1   C27 6283   3.214   6.455   4.080 -0.3794  0.4060  0.4357
   69CHL1  H27A 6284   3.293   6.440   4.156 -0.7145 -1.3558  0.4704
   69CHL1  H27B 6285   3.195   6.564   4.072 -1.1954  0.2886  0.6651
   69CHL1  H27C 6286   3.123   6.399   4.112 -0.4411  0.8544  1.0629
   70CHL1    C3 6287   2.903   3.109   3.109 -0.3018 -0.3346 -0.6320
   70CHL1    H3 6288   2.890   2.999   3.123 -0.3203 -0.5291 -2.0538
   70CHL1    O3 6289   2.884   3.146   2.975  0.0824  0.5941  0.5701
   70CHL1   H3' 6290   2.882   3.242   2.969  1.2204  0.7026  1.4531
   70CHL1    C4 6291   2.800   3.178   3.195 -0.7367 -0.2143  0.1914
   70CHL1   H4A 6292   2.801   3.285   3.165  1.9198 -0.3602 -0.4765
   70CHL1   H4B 6293   2.699   3.145   3.162 -1.3563  1.2660  0.5126
   70CHL1    C5 6294   2.819   3.161   3.352 -0.6369 -0.0254  0.5126
   70CHL1    C6 6295   2.735   3.109   3.435 -0.1384 -0.3078 -0.3424
   70CHL1    H6 6296   2.637   3.090   3.390 -0.3188 -0.4079  0.0797
   70CHL1    C7 6297   2.753   3.092   3.586  0.6917  0.0131  0.1081
   70CHL1   H7A 6298   2.674   3.138   3.649  0.7556  1.4914 -0.8485
   70CHL1   H7B 6299   2.745   2.983   3.609 -1.9593  0.5176  2.0050
   70CHL1    C8 6300   2.891   3.140   3.635  0.2014 -0.4284 -0.3985
   70CHL1    H8 6301   2.881   3.250   3.650 -0.7835 -0.3378 -1.5633
   70CHL1   C14 6302   2.925   3.076   3.775 -0.1707 -0.5109  0.6169
   70CHL1   H14 6303   2.954   2.971   3.754 -0.2698 -0.3028 -0.6750
   70CHL1   C15 6304   2.819   3.086   3.880 -0.0966  0.4314 -0.4765
   70CHL1  H15A 6305   2.771   3.186   3.891 -1.6816 -0.0284 -2.6249
   70CHL1  H15B 6306   2.738   3.013   3.859 -1.0280  1.7248 -1.5259
   70CHL1   C16 6307   2.897   3.048   4.006  0.1443  0.4072 -0.3437
   70CHL1  H16A 6308   2.880   3.124   4.085 -1.9240  1.9562 -2.1565
   70CHL1  H16B 6309   2.874   2.950   4.054  1.5456  0.7157  1.0633
   70CHL1   C17 6310   3.051   3.050   3.967 -0.8915  0.4841  0.0611
   70CHL1   H17 6311   3.076   2.945   3.941 -1.2296  0.0489  1.4085
   70CHL1   C13 6312   3.055   3.137   3.831  0.2043 -0.3892 -0.4639
   70CHL1   C18 6313   3.040   3.291   3.868 -0.0422 -0.2278  0.2258
   70CHL1  H18A 6314   3.132   3.346   3.898 -0.1136  0.5427 -0.8975
   70CHL1  H18B 6315   3.011   3.348   3.777 -2.5000 -0.1655  0.9735
   70CHL1  H18C 6316   2.957   3.312   3.938 -0.4424  1.4975 -0.7029
   70CHL1   C12 6317   3.171   3.119   3.737 -0.0744  0.2981 -0.4554
   70CHL1  H12A 6318   3.260   3.169   3.781 -0.1414  0.1912 -0.1973
   70CHL1  H12B 6319   3.192   3.010   3.732  0.4789  0.3933 -0.2929
   70CHL1   C11 6320   3.140   3.174   3.600  0.6750 -0.3713  0.4766
   70CHL1  H11A 6321   3.140   3.284   3.609 -3.9500 -0.2824  1.9287
   70CHL1  H11B 6322   3.220   3.144   3.529 -0.6547  0.7316 -1.5913
   70CHL1    C9 6323   3.005   3.121   3.537  0.6688  0.2378 -0.0994
   70CHL1    H9 6324   3.018   3.011   3.525  4.9065  0.6082 -0.4092
   70CHL1   C10 6325   2.966   3.185   3.396 -0.1735  0.4816  0.1474
   70CHL1   C19 6326   3.000   3.337   3.405  0.1059  0.2516 -0.0797
   70CHL1  H19A 6327   2.970   3.384   3.309 -0.1392  1.2024  0.4513
   70CHL1  H19B 6328   2.943   3.375   3.492  0.9458 -0.2838  0.7170
   70CHL1  H19C 6329   3.107   3.358   3.427  0.1526 -1.2464  1.2815
   70CHL1    C1 6330   3.066   3.129   3.294 -0.0938  0.2605 -0.2614
   70CHL1   H1A 6331   3.175   3.145   3.313  0.0930  2.4369 -2.6838
   70CHL1   H1B 6332   3.061   3.019   3.309  0.7286  0.3862  1.1434
   70CHL1    C2 6333   3.042   3.150   3.143 -0.5408 -0.0210  0.6555
   70CHL1   H2A 6334   3.114   3.091   3.082  0.0436  1.0572  0.2750
   70CHL1   H2B 6335   3.059   3.258   3.123  2.7390 -0.7062 -0.7996
   70CHL1   C20 6336   3.155   3.096   4.080  0.7436  0.2880 -0.0115
   70CHL1   H20 6337   3.163   3.206   4.073  2.3043  0.2138  0.3712
   70CHL1   C21 6338   3.295   3.045   4.058 -0.5130 -0.3647  0.0432
   70CHL1  H21A 6339   3.321   3.066   3.952 -3.0675  0.2380 -0.5211
   70CHL1  H21B 6340   3.285   2.936   4.078 -1.1981 -0.5562 -1.2335
   70CHL1  H21C 6341   3.373   3.085   4.126 -0.0397 -2.4960  0.8358
   70CHL1   C22 6342   3.108   3.073   4.232  0.2795 -0.2677 -0.2807
   70CHL1  H22A 6343   3.016   3.135   4.246 -0.1523 -0.4495 -2.0840
   70CHL1  H22B 6344   3.084   2.969   4.261 -2.8011  1.0137  2.4967
   70CHL1   C23 6345   3.215   3.103   4.340 -0.0318  0.0895  0.4175
   70CHL1  H23A 6346   3.292   3.024   4.353 -0.8649 -0.4486  2.5481
   70CHL1  H23B 6347   3.271   3.195   4.313 -0.3045 -0.0015 -0.4951
   70CHL1   C24 6348   3.150   3.140   4.478 -0.5268  0.5574 -0.1767
   70CHL1  H24A 6349   3.081   3.224   4.453  0.6863  1.2993 -1.1627
   70CHL1  H24B 6350   3.085   3.055   4.507 -0.0974 -0.1560 -1.2464
   70CHL1   C25 6351   3.255   3.169   4.588  0.4528  0.3242 -0.3720
   70CHL1   H25 6352   3.341   3.099   4.582 -0.8651 -1.5165  0.9415
   70CHL1   C26 6353   3.305   3.312   4.595  0.0583  0.0516  0.2144
   70CHL1  H26A 6354   3.212   3.373   4.591 -0.5566 -0.8358  0.7467
   70CHL1  H26B 6355   3.359   3.341   4.688 -1.6057  0.1600  1.1986
   70CHL1  H26C 6356   3.371   3.343   4.512 -0.9098 -0.9615 -0.9659
   70CHL1   C27 6357   3.194   3.137   4.723  0.4465  0.4023  0.6366
   70CHL1  H27A 6358   3.165   3.030   4.721  1.1443  0.2054 -1.3429
   70CHL1  H27B 6359   3.261   3.154   4.810  0.5781  0.5114  0.5149
   70CHL1  H27C 6360   3.103   3.198   4.736 -0.1462  0.0335 -1.4266
   71CHL1    C3 6361   6.553   0.665   2.764 -0.0474 -0.4244 -0.1146
   71CHL1    H3 6362   6.658   0.633   2.783 -0.6216 -3.5986 -1.6187
   71CHL1    O3 6363   6.512   0.613   2.636 -0.2255  0.2950  0.6359
   71CHL1   H3' 6364   6.421   0.639   2.617  0.5444  0.3343 -3.9938
   71CHL1    C4 6365   6.461   0.599   2.866  0.2217  0.3417 -0.6363
   71CHL1   H4A 6366   6.350   0.600   2.856  0.0998 -2.1213 -0.1760
   71CHL1   H4B 6367   6.480   0.490   2.850 -3.0156 -1.1208  3.5933
   71CHL1    C5 6368   6.506   0.644   3.006  0.5050 -0.0296  0.1786
   71CHL1    C6 6369   6.547   0.545   3.096 -0.6515 -0.5848  0.4173
   71CHL1    H6 6370   6.542   0.438   3.071 -0.4591 -0.8295  1.4044
   71CHL1    C7 6371   6.597   0.582   3.229  0.2848 -0.2613 -0.2925
   71CHL1   H7A 6372   6.558   0.511   3.305  1.2417 -0.0965  0.3661
   71CHL1   H7B 6373   6.707   0.573   3.219  0.1426 -0.4736 -1.9236
   71CHL1    C8 6374   6.564   0.726   3.275 -0.3133 -0.6083  0.0813
   71CHL1    H8 6375   6.457   0.742   3.300  0.1368  0.8720  1.1909
   71CHL1   C14 6376   6.636   0.763   3.403  0.2486  0.1326  0.7381
   71CHL1   H14 6377   6.744   0.754   3.379  0.4690  1.4927  1.1824
   71CHL1   C15 6378   6.615   0.680   3.523  0.1460 -0.1771 -0.7178
   71CHL1  H15A 6379   6.512   0.639   3.518  0.8203 -2.3834  1.2168
   71CHL1  H15B 6380   6.671   0.584   3.516  0.2643 -0.0914 -0.9526
   71CHL1   C16 6381   6.636   0.764   3.650 -0.4639  0.2456 -0.2961
   71CHL1  H16A 6382   6.549   0.775   3.718  0.2377  0.8174  0.5396
   71CHL1  H16B 6383   6.725   0.738   3.711 -0.7040  0.9453  0.3786
   71CHL1   C17 6384   6.668   0.904   3.590  0.2752 -0.5070 -0.2001
   71CHL1   H17 6385   6.775   0.903   3.561  0.5187  1.2405  0.5198
   71CHL1   C13 6386   6.601   0.905   3.453  0.1404 -0.2723 -0.0197
   71CHL1   C18 6387   6.455   0.933   3.480 -0.1219 -0.1215  0.4519
   71CHL1  H18A 6388   6.435   1.036   3.514 -1.3146 -1.0413  2.7749
   71CHL1  H18B 6389   6.397   0.930   3.385 -1.5972  0.1328  1.3198
   71CHL1  H18C 6390   6.408   0.857   3.548  0.9780  0.7445  2.2439
   71CHL1   C12 6391   6.659   0.991   3.343  0.2194  0.8366  0.1515
   71CHL1  H12A 6392   6.636   1.097   3.367  0.1254  1.0192 -0.7110
   71CHL1  H12B 6393   6.769   0.975   3.338 -0.0700 -1.3585  0.0415
   71CHL1   C11 6394   6.600   0.974   3.202  0.4031  0.3843  0.5845
   71CHL1  H11A 6395   6.495   1.010   3.197  0.0638 -0.7334 -0.7994
   71CHL1  H11B 6396   6.651   1.031   3.122 -1.5993 -0.9442 -1.7849
   71CHL1    C9 6397   6.599   0.819   3.157  0.4098  0.7955 -0.3244
   71CHL1    H9 6398   6.705   0.792   3.137  0.8929 -0.1885  2.9593
   71CHL1   C10 6399   6.520   0.792   3.027 -0.1890 -0.7335 -0.5350
   71CHL1   C19 6400   6.380   0.850   3.047  0.0318  0.2832 -0.1450
   71CHL1  H19A 6401   6.380   0.960   3.026 -0.3591  0.1885 -0.6781
   71CHL1  H19B 6402   6.318   0.806   2.966  0.2165  0.9303 -0.6457
   71CHL1  H19C 6403   6.338   0.835   3.149 -0.7340 -0.3696 -0.5478
   71CHL1    C1 6404   6.587   0.867   2.910  1.0221 -0.8430 -0.1103
   71CHL1   H1A 6405   6.571   0.977   2.908 -1.7264 -1.2008 -0.6331
   71CHL1   H1B 6406   6.697   0.856   2.899  1.0505  0.0922 -0.9198
   71CHL1    C2 6407   6.534   0.814   2.773 -0.0834  0.3479  0.3055
   71CHL1   H2A 6408   6.581   0.863   2.685  2.7461 -3.4409 -0.5412
   71CHL1   H2B 6409   6.425   0.827   2.757 -0.0022 -1.2605 -2.0915
   71CHL1   C20 6410   6.641   1.022   3.683 -0.5543  0.4720  0.7278
   71CHL1   H20 6411   6.531   1.024   3.700 -0.2949  1.3831  2.5803
   71CHL1   C21 6412   6.690   1.157   3.630  0.0344 -1.1178  0.2873
   71CHL1  H21A 6413   6.680   1.232   3.712  2.4262 -0.3112 -0.0729
   71CHL1  H21B 6414   6.628   1.197   3.548  0.8274  0.6934  0.5323
   71CHL1  H21C 6415   6.797   1.163   3.600  0.0938  1.3394  0.7593
   71CHL1   C22 6416   6.715   1.011   3.817  0.1034  0.1985 -0.4470
   71CHL1  H22A 6417   6.666   1.094   3.873 -2.7761 -2.0255  0.6152
   71CHL1  H22B 6418   6.689   0.915   3.867 -1.5123  0.5198 -0.6040
   71CHL1   C23 6419   6.865   1.026   3.810 -0.4977  0.2504  0.1237
   71CHL1  H23A 6420   6.900   0.956   3.731 -0.3228  0.4646  0.0089
   71CHL1  H23B 6421   6.907   1.125   3.782  4.2816 -1.6141 -0.2600
   71CHL1   C24 6422   6.927   0.999   3.946 -0.7292 -0.1612  0.6779
   71CHL1  H24A 6423   6.902   0.895   3.976 -2.4589  0.0764  0.1738
   71CHL1  H24B 6424   7.038   1.000   3.938 -0.5997  1.2311  2.1535
   71CHL1   C25 6425   6.878   1.094   4.058  0.0847 -0.4218 -0.9314
   71CHL1   H25 6426   6.768   1.090   4.048 -0.2648  4.7229 -2.1870
   71CHL1   C26 6427   6.927   1.055   4.201  0.0175  0.1768 -0.2887
   71CHL1  H26A 6428   7.037   1.073   4.201  0.2000 -0.6602 -2.3121
   71CHL1  H26B 6429   6.878   1.118   4.279  1.0040  1.5601 -0.7300
   71CHL1  H26C 6430   6.905   0.952   4.235  0.6315 -0.4315 -1.6562
   71CHL1   C27 6431   6.892   1.246   4.031 -0.1502  0.5637 -0.8594
   71CHL1  H27A 6432   6.824   1.290   4.107  1.2486  2.6150 -0.7323
   71CHL1  H27B 6433   6.993   1.282   4.058 -0.5635  0.3704  1.1029
   71CHL1  H27C 6434   6.869   1.268   3.924 -3.0896 -2.1576 -0.9522
   72CHL1    C3 6435   1.664   2.316   2.647 -0.0334 -0.4257  1.1279
   72CHL1    H3 6436   1.769   2.334   2.614 -0.7375  4.7167  0.7687
   72CHL1    O3 6437   1.585   2.349   2.536 -0.2731 -0.7730  0.2166
   72CHL1   H3' 6438   1.500   2.313   2.562  0.1264 -2.4969 -0.7446
   72CHL1    C4 6439   1.630   2.174   2.678 -0.3855  0.0772 -0.0913
   72CHL1   H4A 6440   1.528   2.155   2.717 -0.1081  0.6112  0.9497
   72CHL1   H4B 6441   1.648   2.113   2.587 -2.0406  1.8940 -1.7103
   72CHL1    C5 6442   1.712   2.129   2.799 -0.6571 -0.7352 -0.0966
   72CHL1    C6 6443   1.783   2.014   2.797  0.6128  0.6165 -0.2833
   72CHL1    H6 6444   1.793   1.941   2.715 -1.2922 -0.5220  0.4318
   72CHL1    C7 6445   1.840   1.953   2.927  0.2432 -0.0132  0.0303
   72CHL1   H7A 6446   1.820   1.844   2.932  2.5795 -0.6585 -2.2775
   72CHL1   H7B 6447   1.951   1.950   2.918  0.3689 -2.1294  1.6637
   72CHL1    C8 6448   1.800   2.021   3.059  0.1229 -0.5660  0.0509
   72CHL1    H8 6449   1.696   1.996   3.087  1.0580 -4.0945  0.8418
   72CHL1   C14 6450   1.889   1.973   3.172  0.7962 -0.1187 -0.7991
   72CHL1   H14 6451   1.991   2.005   3.140  1.6578 -1.5044  0.4175
   72CHL1   C15 6452   1.900   1.832   3.214 -0.2166  0.4096 -0.3501
   72CHL1  H15A 6453   1.806   1.777   3.234  1.5821 -2.7605  0.0969
   72CHL1  H15B 6454   1.943   1.767   3.135  2.7836  1.2048  0.4759
   72CHL1   C16 6455   1.965   1.838   3.354 -0.1346 -0.1067 -0.7724
   72CHL1  H16A 6456   1.894   1.794   3.426  0.3160  1.2775  0.5528
   72CHL1  H16B 6457   2.062   1.784   3.356  0.4475  0.9417  0.9863
   72CHL1   C17 6458   1.976   1.991   3.398  0.0094  0.2062  0.3293
   72CHL1   H17 6459   2.073   2.034   3.365 -0.5391  0.2772 -1.2201
   72CHL1   C13 6460   1.869   2.062   3.301  0.3655  0.6848 -0.1663
   72CHL1   C18 6461   1.731   2.040   3.367 -0.1520 -0.0649 -0.2370
   72CHL1  H18A 6462   1.648   2.044   3.292 -0.9504  3.9345  0.6243
   72CHL1  H18B 6463   1.720   1.942   3.419 -0.7488 -0.8989 -1.8556
   72CHL1  H18C 6464   1.711   2.118   3.443  1.7883 -0.0929  0.3602
   72CHL1   C12 6465   1.886   2.209   3.269 -1.0348  0.4867 -0.3403
   72CHL1  H12A 6466   1.871   2.268   3.362 -0.7989  0.0840 -0.0451
   72CHL1  H12B 6467   1.988   2.246   3.244 -0.7600  1.1522  1.5599
   72CHL1   C11 6468   1.781   2.256   3.170 -0.1749  0.3326 -0.0497
   72CHL1  H11A 6469   1.678   2.243   3.210  0.2423 -0.6432  0.7502
   72CHL1  H11B 6470   1.803   2.360   3.137 -0.4183  0.8226  1.2874
   72CHL1    C9 6471   1.791   2.173   3.036 -0.1533  0.7338  0.2159
   72CHL1    H9 6472   1.893   2.192   2.994 -0.8546 -0.3868 -2.1710
   72CHL1   C10 6473   1.695   2.220   2.924  0.2391 -0.1448  0.0429
   72CHL1   C19 6474   1.552   2.208   2.971  0.3530  0.5444  0.6839
   72CHL1  H19A 6475   1.531   2.101   2.994 -0.0615  0.1860 -1.1878
   72CHL1  H19B 6476   1.519   2.259   3.064 -1.9349 -1.6228  1.1812
   72CHL1  H19C 6477   1.480   2.244   2.895  0.4017  0.2505  0.4937
   72CHL1    C1 6478   1.713   2.371   2.893  0.0878  0.1097  0.0772
   72CHL1   H1A 6479   1.678   2.441   2.971 -2.0026 -2.0788  1.2098
   72CHL1   H1B 6480   1.824   2.381   2.881  0.2060 -1.4230 -0.3501
   72CHL1    C2 6481   1.646   2.415   2.766 -0.0284 -0.6017 -0.1274
   72CHL1   H2A 6482   1.662   2.518   2.727 -1.2741 -1.3153 -2.8117
   72CHL1   H2B 6483   1.540   2.401   2.796 -0.5746  0.5284 -1.4136
   72CHL1   C20 6484   1.972   2.004   3.554  0.3279  0.4212  0.0399
   72CHL1   H20 6485   1.892   1.940   3.596  1.2311 -0.1783  0.8833
   72CHL1   C21 6486   1.965   2.156   3.604 -0.5847  0.2404 -0.0001
   72CHL1  H21A 6487   1.882   2.211   3.555  1.3670  0.4084 -3.4182
   72CHL1  H21B 6488   2.058   2.209   3.572  0.0166 -0.4754  0.5251
   72CHL1  H21C 6489   1.958   2.152   3.715 -1.0966 -3.3738 -0.0687
   72CHL1   C22 6490   2.108   1.957   3.609  0.0602 -0.1802 -0.7736
   72CHL1  H22A 6491   2.124   1.854   3.570  2.5718 -0.8983  1.7828
   72CHL1  H22B 6492   2.185   2.031   3.579  0.1107 -0.1378 -0.5428
   72CHL1   C23 6493   2.116   1.933   3.763 -0.0609 -0.0571 -0.3978
   72CHL1  H23A 6494   2.106   2.028   3.818 -0.3615 -0.2191 -0.1707
   72CHL1  H23B 6495   2.031   1.873   3.802  1.5442 -1.8314  0.5850
   72CHL1   C24 6496   2.251   1.866   3.797  0.0642  0.5757 -0.2092
   72CHL1  H24A 6497   2.266   1.777   3.732 -0.0570  0.2220  0.2420
   72CHL1  H24B 6498   2.337   1.932   3.772  0.1618  0.4079 -0.3182
   72CHL1   C25 6499   2.277   1.836   3.943  0.4324  0.7321  0.2810
   72CHL1   H25 6500   2.377   1.787   3.945  1.1591  2.1083  3.4401
   72CHL1   C26 6501   2.284   1.957   4.032  0.0805 -0.4140  0.2262
   72CHL1  H26A 6502   2.332   1.931   4.129  0.3672 -0.9736 -0.0609
   72CHL1  H26B 6503   2.347   2.034   3.983  0.8979 -1.1294  0.1389
   72CHL1  H26C 6504   2.182   2.001   4.041  0.0461 -0.9597  3.9175
   72CHL1   C27 6505   2.179   1.725   4.005 -0.0333  0.6067 -0.2126
   72CHL1  H27A 6506   2.166   1.645   3.929 -2.5429 -0.8978  1.6440
   72CHL1  H27B 6507   2.218   1.677   4.097 -1.3944 -0.6959 -0.2785
   72CHL1  H27C 6508   2.077   1.764   4.028  0.0214  0.4375  0.3471
   73CHL1    C3 6509   1.454   2.882   2.611 -0.2208 -0.0437  0.1294
   73CHL1    H3 6510   1.436   2.774   2.590 -1.2006  0.3645 -1.2907
   73CHL1    O3 6511   1.410   2.956   2.499  0.3724  0.3785 -0.3767
   73CHL1   H3' 6512   1.424   3.048   2.523 -2.5289  1.4442 -2.1732
   73CHL1    C4 6513   1.355   2.921   2.727 -0.2357  0.3352 -0.1685
   73CHL1   H4A 6514   1.348   3.031   2.739 -0.0281  0.4960 -1.3443
   73CHL1   H4B 6515   1.256   2.886   2.690 -1.2221  0.9957  1.7163
   73CHL1    C5 6516   1.396   2.859   2.853  0.4200 -0.0996 -0.7143
   73CHL1    C6 6517   1.319   2.775   2.922  0.1892  0.7447  0.2722
   73CHL1    H6 6518   1.226   2.741   2.874  0.2080 -1.5067  1.6811
   73CHL1    C7 6519   1.348   2.705   3.053  0.6347  0.1318  0.7205
   73CHL1   H7A 6520   1.262   2.703   3.125  0.5847 -0.7616  0.6437
   73CHL1   H7B 6521   1.379   2.600   3.037  1.8930  0.2361  2.2122
   73CHL1    C8 6522   1.465   2.784   3.124 -0.7361 -0.0455  0.2121
   73CHL1    H8 6523   1.421   2.878   3.164 -3.5721 -0.6415 -1.3007
   73CHL1   C14 6524   1.526   2.700   3.235  1.1591  0.0637 -0.2933
   73CHL1   H14 6525   1.578   2.621   3.177 -0.4409  0.0364 -1.7450
   73CHL1   C15 6526   1.434   2.634   3.342  0.7582  0.8458  0.1054
   73CHL1  H15A 6527   1.357   2.708   3.372  0.1145 -0.1321  0.9302
   73CHL1  H15B 6528   1.378   2.548   3.300 -1.0424  1.6784  0.7301
   73CHL1   C16 6529   1.522   2.584   3.453 -0.0116  0.0960 -0.1132
   73CHL1  H16A 6530   1.482   2.609   3.554  3.4265  1.5594  1.0714
   73CHL1  H16B 6531   1.544   2.475   3.462  0.0950  0.0817 -0.5470
   73CHL1   C17 6532   1.655   2.659   3.422  0.4404 -0.1322  0.6813
   73CHL1   H17 6533   1.690   2.575   3.357 -1.8101 -1.3543  0.9405
   73CHL1   C13 6534   1.633   2.774   3.316  0.5771 -0.5278  0.0729
   73CHL1   C18 6535   1.576   2.901   3.385  0.1001 -0.0955 -0.3144
   73CHL1  H18A 6536   1.493   2.880   3.456  0.9424  0.0861  0.7525
   73CHL1  H18B 6537   1.651   2.942   3.456 -0.5294  1.1841 -0.3459
   73CHL1  H18C 6538   1.540   2.977   3.313 -0.2612  0.1594  0.1279
   73CHL1   C12 6539   1.751   2.801   3.223 -0.0767  1.3299 -0.1937
   73CHL1  H12A 6540   1.828   2.866   3.270  0.5917 -0.6679  1.5950
   73CHL1  H12B 6541   1.797   2.707   3.187 -1.3663  0.7919 -0.5083
   73CHL1   C11 6542   1.703   2.878   3.104  0.1246 -0.5919  0.0259
   73CHL1  H11A 6543   1.678   2.984   3.125  1.6058  0.4135 -2.7050
   73CHL1  H11B 6544   1.785   2.880   3.028  0.0240  1.2099 -0.0699
   73CHL1    C9 6545   1.581   2.809   3.028 -0.4121  0.3814 -0.5199
   73CHL1    H9 6546   1.612   2.711   2.986 -0.4581 -0.1961  0.7449
   73CHL1   C10 6547   1.537   2.891   2.900  0.1280 -0.2440  0.1698
   73CHL1   C19 6548   1.553   3.046   2.930  0.4503 -0.6861  0.0636
   73CHL1  H19A 6549   1.655   3.069   2.966 -0.6699 -0.7341  3.8123
   73CHL1  H19B 6550   1.542   3.099   2.834  1.2253  0.1902  0.4504
   73CHL1  H19C 6551   1.483   3.079   3.011 -2.2611 -1.5311 -1.7863
   73CHL1    C1 6552   1.630   2.858   2.784  0.1256  0.4704 -0.3972
   73CHL1   H1A 6553   1.735   2.887   2.803  0.0591  0.2266  0.4143
   73CHL1   H1B 6554   1.634   2.747   2.775  0.2151  0.3862  0.5630
   73CHL1    C2 6555   1.594   2.920   2.646  0.3695 -0.1601 -0.5225
   73CHL1   H2A 6556   1.661   2.886   2.564  2.3437  0.1462  0.8885
   73CHL1   H2B 6557   1.596   3.031   2.644 -1.4056 -0.1171 -2.4667
   73CHL1   C20 6558   1.754   2.669   3.535 -0.4790 -0.4827 -0.2438
   73CHL1   H20 6559   1.839   2.731   3.499 -0.9538  1.1853  1.3494
   73CHL1   C21 6560   1.814   2.530   3.569  0.0177 -0.1901 -0.0666
   73CHL1  H21A 6561   1.899   2.539   3.640 -0.5981  0.7002  0.5774
   73CHL1  H21B 6562   1.842   2.461   3.487 -0.6138 -0.0824 -0.3774
   73CHL1  H21C 6563   1.740   2.478   3.634  0.9414 -0.5015  0.7600
   73CHL1   C22 6564   1.703   2.740   3.660  0.6661  0.4030  0.6448
   73CHL1  H22A 6565   1.612   2.800   3.637 -0.3858 -0.5628  2.0979
   73CHL1  H22B 6566   1.650   2.673   3.731 -2.4953  2.8592  0.8262
   73CHL1   C23 6567   1.809   2.835   3.707 -0.0667  0.2885  0.5276
   73CHL1  H23A 6568   1.912   2.796   3.718  0.0204  0.4226  0.1981
   73CHL1  H23B 6569   1.807   2.925   3.641 -2.4837  0.1391  0.2967
   73CHL1   C24 6570   1.787   2.910   3.838 -0.4039  0.8270 -0.4615
   73CHL1  H24A 6571   1.677   2.925   3.835 -0.3196  1.7859  0.6653
   73CHL1  H24B 6572   1.828   2.861   3.928  0.6698 -0.4211 -1.5771
   73CHL1   C25 6573   1.828   3.059   3.835  0.0476 -0.5489 -0.6310
   73CHL1   H25 6574   1.778   3.124   3.760  1.9061  0.1629 -1.3088
   73CHL1   C26 6575   1.810   3.112   3.985  0.2322 -0.3480  0.2396
   73CHL1  H26A 6576   1.706   3.094   4.019  0.8189 -2.2079  1.2372
   73CHL1  H26B 6577   1.871   3.043   4.048  1.5031 -0.5550 -1.1579
   73CHL1  H26C 6578   1.854   3.214   3.991  0.4256 -0.4287  0.2026
   73CHL1   C27 6579   1.985   3.066   3.809 -0.1208  0.2702 -1.0253
   73CHL1  H27A 6580   2.016   2.998   3.727 -0.5867 -0.3734 -0.6761
   73CHL1  H27B 6581   2.026   3.168   3.794 -1.1494  1.0160  0.8574
   73CHL1  H27C 6582   2.036   3.031   3.901  0.9661  0.7677 -1.4211
   74CHL1    C3 6583   2.652   0.461   2.883 -0.0710  0.3868 -1.0620
   74CHL1    H3 6584   2.554   0.497   2.921 -0.1046  0.4223 -1.1821
   74CHL1    O3 6585   2.666   0.479   2.744  0.0139 -0.5531  0.5250
   74CHL1   H3' 6586   2.713   0.562   2.741  0.0441 -0.6080 -1.2154
   74CHL1    C4 6587   2.762   0.529   2.965  0.0580  0.0425  0.1672
   74CHL1   H4A 6588   2.865   0.497   2.939 -0.7459 -0.9432 -2.0288
   74CHL1   H4B 6589   2.771   0.634   2.929  0.6021 -0.0997 -0.1258
   74CHL1    C5 6590   2.740   0.508   3.107 -0.4044 -0.1236 -0.5009
   74CHL1    C6 6591   2.720   0.615   3.191  0.1683  0.2306  0.5961
   74CHL1    H6 6592   2.717   0.718   3.151 -1.2599  0.0453  0.1569
   74CHL1    C7 6593   2.725   0.593   3.340  0.1305  0.3938  0.1108
   74CHL1   H7A 6594   2.801   0.655   3.391  0.8155 -1.3434  1.3016
   74CHL1   H7B 6595   2.625   0.622   3.378  0.0772  1.3213 -0.6827
   74CHL1    C8 6596   2.748   0.451   3.395 -0.1244  0.3406  0.4124
   74CHL1    H8 6597   2.856   0.431   3.379 -0.8573 -3.5841 -0.9679
   74CHL1   C14 6598   2.720   0.438   3.539 -0.1158  0.8640  0.7314
   74CHL1   H14 6599   2.615   0.466   3.557 -0.5425  0.0990 -0.4148
   74CHL1   C15 6600   2.789   0.542   3.624 -0.0600 -0.4741 -0.7262
   74CHL1  H15A 6601   2.900   0.544   3.610 -0.0861  0.3957 -0.8566
   74CHL1  H15B 6602   2.754   0.646   3.610  1.4075  0.2452  0.6472
   74CHL1   C16 6603   2.764   0.492   3.764  0.4016  0.1617  0.3576
   74CHL1  H16A 6604   2.855   0.483   3.827 -0.8924 -0.7916  2.1986
   74CHL1  H16B 6605   2.692   0.553   3.823 -0.2821 -0.7527  0.4915
   74CHL1   C17 6606   2.695   0.349   3.753 -0.5105  0.0242 -0.7124
   74CHL1   H17 6607   2.586   0.366   3.759 -0.2928  1.0962  1.0201
   74CHL1   C13 6608   2.728   0.305   3.609 -0.0873  0.0564  0.4395
   74CHL1   C18 6609   2.882   0.263   3.604  0.2013 -0.0041  0.1184
   74CHL1  H18A 6610   2.894   0.169   3.663  1.6060  0.6720  0.9591
   74CHL1  H18B 6611   2.925   0.254   3.502  0.4796 -2.3117  0.3894
   74CHL1  H18C 6612   2.942   0.345   3.649  2.4215 -1.0526 -0.7515
   74CHL1   C12 6613   2.641   0.203   3.533 -0.5427 -0.1562 -0.6888
   74CHL1  H12A 6614   2.664   0.100   3.569  1.3311  0.7263  0.8450
   74CHL1  H12B 6615   2.533   0.219   3.550 -0.5400 -1.0152  0.2512
   74CHL1   C11 6616   2.675   0.203   3.383  0.3356  0.2137 -0.2680
   74CHL1  H11A 6617   2.776   0.158   3.380 -0.2893 -1.2044 -0.9116
   74CHL1  H11B 6618   2.603   0.143   3.322  1.2962 -4.1420  2.4436
   74CHL1    C9 6619   2.673   0.347   3.319  0.1171  0.4545  0.2810
   74CHL1    H9 6620   2.564   0.368   3.306  0.6497  1.8038 -2.9269
   74CHL1   C10 6621   2.723   0.358   3.165 -1.0402  0.6664  0.5242
   74CHL1   C19 6622   2.857   0.281   3.154  0.2159 -0.0152 -0.3655
   74CHL1  H19A 6623   2.899   0.277   3.051 -0.0069 -0.6994 -0.4297
   74CHL1  H19B 6624   2.935   0.332   3.215  0.4158  0.2493 -0.8383
   74CHL1  H19C 6625   2.841   0.175   3.180 -2.2146 -0.5264 -3.4617
   74CHL1    C1 6626   2.624   0.287   3.069  0.1613  0.3006 -0.1969
   74CHL1   H1A 6627   2.626   0.177   3.085  0.9468  0.2266 -0.7421
   74CHL1   H1B 6628   2.521   0.316   3.099 -0.2715 -0.3353 -1.0010
   74CHL1    C2 6629   2.656   0.314   2.914  0.4702 -0.1679 -0.5879
   74CHL1   H2A 6630   2.572   0.264   2.860 -0.6110 -1.5777  2.1983
   74CHL1   H2B 6631   2.748   0.267   2.872 -0.3890 -1.4988 -1.0726
   74CHL1   C20 6632   2.731   0.253   3.872  0.3473  0.0253 -0.0749
   74CHL1   H20 6633   2.836   0.219   3.854 -0.5603 -1.8798 -2.3903
   74CHL1   C21 6634   2.647   0.119   3.858  0.1863 -0.2055  0.2779
   74CHL1  H21A 6635   2.695   0.064   3.774  2.9177  1.2387  0.7714
   74CHL1  H21B 6636   2.545   0.152   3.831  0.0058 -1.1525 -0.2222
   74CHL1  H21C 6637   2.650   0.052   3.946 -0.9184  0.3098  0.7209
   74CHL1   C22 6638   2.711   0.322   4.012  0.7114 -0.8488  1.0457
   74CHL1  H22A 6639   2.788   0.402   4.007 -0.5035  0.3060  0.1338
   74CHL1  H22B 6640   2.604   0.348   4.022  0.0134 -3.8385  2.5411
   74CHL1   C23 6641   2.741   0.223   4.125  0.7541  0.1070  0.5616
   74CHL1  H23A 6642   2.668   0.139   4.123  1.3650 -0.4402  0.9360
   74CHL1  H23B 6643   2.840   0.178   4.103  0.5717  0.5626 -1.3429
   74CHL1   C24 6644   2.739   0.288   4.263  0.0215 -0.1428 -0.3357
   74CHL1  H24A 6645   2.798   0.382   4.259  0.5668 -0.4388  0.4687
   74CHL1  H24B 6646   2.636   0.316   4.293 -0.2490 -0.8256 -0.6000
   74CHL1   C25 6647   2.801   0.202   4.383  0.4636  0.5743  0.4667
   74CHL1   H25 6648   2.902   0.164   4.356 -0.0614  0.2780 -1.2624
   74CHL1   C26 6649   2.802   0.297   4.495  0.0525  0.4320 -0.4288
   74CHL1  H26A 6650   2.821   0.235   4.585  0.2524 -2.0963 -2.0919
   74CHL1  H26B 6651   2.881   0.374   4.479 -0.3404  0.8274 -0.4589
   74CHL1  H26C 6652   2.703   0.341   4.517  0.4078  0.8897  0.3215
   74CHL1   C27 6653   2.700   0.087   4.409 -0.0755  0.5118 -0.1555
   74CHL1  H27A 6654   2.601   0.124   4.445  0.3991  1.7563 -0.1175
   74CHL1  H27B 6655   2.676   0.030   4.316 -0.6056  0.0319  0.2616
   74CHL1  H27C 6656   2.739   0.010   4.479 -2.1209 -1.8010 -1.3682
   75CHL1    C3 6657   3.242   5.609   2.664  0.4515  0.0995  0.5050
   75CHL1    H3 6658   3.353   5.611   2.657  0.4909 -0.6310  0.7997
   75CHL1    O3 6659   3.210   5.661   2.533 -0.0863  0.3065  0.1744
   75CHL1   H3' 6660   3.115   5.677   2.535 -0.1282  0.5430 -1.7981
   75CHL1    C4 6661   3.187   5.471   2.673 -0.0042  0.4532 -0.3343
   75CHL1   H4A 6662   3.077   5.473   2.655  0.0239  1.0068 -0.4507
   75CHL1   H4B 6663   3.238   5.411   2.594  1.6332  0.2481  0.8473
   75CHL1    C5 6664   3.222   5.406   2.808  0.7034 -0.3439  0.6113
   75CHL1    C6 6665   3.295   5.293   2.806  0.3380  0.6836 -0.2380
   75CHL1    H6 6666   3.335   5.247   2.714  1.2170  2.3980 -0.7616
   75CHL1    C7 6667   3.325   5.222   2.930 -0.4469  0.6253  0.4103
   75CHL1   H7A 6668   3.299   5.117   2.904 -1.1770  1.5777 -3.3295
   75CHL1   H7B 6669   3.432   5.235   2.955 -0.5462  3.5807 -0.3051
   75CHL1    C8 6670   3.244   5.269   3.056 -0.2404 -0.5692 -0.0261
   75CHL1    H8 6671   3.146   5.215   3.054 -0.3062 -0.5397  1.3923
   75CHL1   C14 6672   3.308   5.228   3.185  0.1912  0.0587  0.0593
   75CHL1   H14 6673   3.403   5.286   3.195  0.1676  0.4162 -1.5349
   75CHL1   C15 6674   3.341   5.076   3.209 -0.2176 -0.4450  0.3208
   75CHL1  H15A 6675   3.271   4.999   3.169  0.9226 -0.2424 -2.2405
   75CHL1  H15B 6676   3.443   5.057   3.171 -0.7506 -0.6048 -1.0618
   75CHL1   C16 6677   3.360   5.065   3.359  0.3532  0.1828 -0.5491
   75CHL1  H16A 6678   3.296   4.983   3.399 -1.1701  1.2320 -0.7486
   75CHL1  H16B 6679   3.466   5.047   3.386  0.2258  0.3767  0.0948
   75CHL1   C17 6680   3.320   5.200   3.420 -0.2046  0.2657 -0.4851
   75CHL1   H17 6681   3.412   5.261   3.421  1.6493 -2.3551  0.1173
   75CHL1   C13 6682   3.232   5.277   3.307 -0.2832  0.6609  0.2262
   75CHL1   C18 6683   3.093   5.203   3.316 -0.1419 -0.0324 -0.0963
   75CHL1  H18A 6684   3.039   5.237   3.407 -0.7074  1.0466 -0.8111
   75CHL1  H18B 6685   3.023   5.238   3.237 -0.3961 -0.7882 -0.2163
   75CHL1  H18C 6686   3.090   5.093   3.299  0.4753  0.1632 -1.7336
   75CHL1   C12 6687   3.230   5.431   3.312 -0.1953  0.0200 -0.4585
   75CHL1  H12A 6688   3.171   5.473   3.396 -0.1279  1.2693 -1.0216
   75CHL1  H12B 6689   3.336   5.458   3.328  0.7193 -3.3793  0.0239
   75CHL1   C11 6690   3.166   5.480   3.185 -0.1405  0.1611  0.1190
   75CHL1  H11A 6691   3.060   5.448   3.180 -0.3298  0.9863 -2.4183
   75CHL1  H11B 6692   3.164   5.591   3.193 -2.5760  0.3280 -1.8689
   75CHL1    C9 6693   3.230   5.429   3.057  0.3480 -0.2276 -0.6782
   75CHL1    H9 6694   3.335   5.465   3.052  0.1996  0.0507 -2.2899
   75CHL1   C10 6695   3.168   5.477   2.927  0.8461 -0.1337 -0.2690
   75CHL1   C19 6696   3.016   5.483   2.936 -0.7762  0.7794 -0.1720
   75CHL1  H19A 6697   2.970   5.490   2.835  1.0693  0.5405 -1.0825
   75CHL1  H19B 6698   2.975   5.384   2.966  2.1080 -1.1217 -1.9345
   75CHL1  H19C 6699   2.973   5.558   3.006 -0.8772 -1.4425  2.2991
   75CHL1    C1 6700   3.207   5.622   2.904 -0.1591  0.3428 -0.3403
   75CHL1   H1A 6701   3.160   5.678   2.988  2.1156  0.3299  1.0343
   75CHL1   H1B 6702   3.317   5.623   2.921 -0.1524  0.8348 -0.4077
   75CHL1    C2 6703   3.174   5.693   2.773 -0.5531  0.1095  0.0691
   75CHL1   H2A 6704   3.215   5.795   2.754 -0.2879 -0.6024 -4.1263
   75CHL1   H2B 6705   3.065   5.699   2.752 -0.0618 -0.4778 -3.1165
   75CHL1   C20 6706   3.256   5.181   3.562  0.0873  0.4087 -0.0549
   75CHL1   H20 6707   3.152   5.144   3.553 -0.6299  2.3777 -0.4314
   75CHL1   C21 6708   3.255   5.314   3.633  0.4467  0.2317  0.6650
   75CHL1  H21A 6709   3.209   5.305   3.734 -0.3121 -2.0481  0.1731
   75CHL1  H21B 6710   3.189   5.392   3.589  0.6737  0.1033  0.0969
   75CHL1  H21C 6711   3.359   5.349   3.649 -0.0831  2.0434  0.3647
   75CHL1   C22 6712   3.337   5.087   3.650 -0.4423  0.9667 -0.0631
   75CHL1  H22A 6713   3.354   4.982   3.618  1.1892  0.3519  2.5436
   75CHL1  H22B 6714   3.441   5.127   3.640 -0.0635  0.0115 -0.0574
   75CHL1   C23 6715   3.309   5.087   3.801 -0.1330  1.2220 -0.3536
   75CHL1  H23A 6716   3.380   5.156   3.851  0.4583 -2.0499  3.9646
   75CHL1  H23B 6717   3.208   5.127   3.824 -0.4440  0.7266 -0.8538
   75CHL1   C24 6718   3.333   4.959   3.879 -0.5235 -0.0857  0.1109
   75CHL1  H24A 6719   3.252   4.884   3.867  0.6612 -1.2805 -0.7921
   75CHL1  H24B 6720   3.430   4.911   3.853 -0.7010 -1.4413  1.8259
   75CHL1   C25 6721   3.331   4.991   4.035 -0.2049  0.3281  0.7414
   75CHL1   H25 6722   3.381   5.089   4.051 -0.2467  0.1260  2.2517
   75CHL1   C26 6723   3.180   4.996   4.070  0.1087 -0.0369 -0.4145
   75CHL1  H26A 6724   3.134   5.084   4.021  0.1100  0.9068  1.2004
   75CHL1  H26B 6725   3.122   4.903   4.052  0.4006  0.0094 -1.6630
   75CHL1  H26C 6726   3.175   5.009   4.180  0.2893 -1.7490 -0.1720
   75CHL1   C27 6727   3.411   4.880   4.104 -0.8663 -0.8521  0.3944
   75CHL1  H27A 6728   3.516   4.878   4.069 -0.1763  0.7147  2.1465
   75CHL1  H27B 6729   3.417   4.890   4.215  1.5770 -0.5192  0.2860
   75CHL1  H27C 6730   3.369   4.780   4.080 -2.2134 -0.1183 -0.4317
   76CHL1    C3 6731   2.317   1.709   2.685 -0.9243  0.4415  0.2675
   76CHL1    H3 6732   2.426   1.718   2.706 -0.7394 -1.6734  0.4510
   76CHL1    O3 6733   2.304   1.757   2.550  0.3843 -0.5729 -0.0493
   76CHL1   H3' 6734   2.217   1.796   2.550 -0.0520 -1.5222 -0.7957
   76CHL1    C4 6735   2.273   1.567   2.693 -0.6526 -0.5564 -0.8719
   76CHL1   H4A 6736   2.167   1.568   2.660 -0.8642 -1.4701 -0.2564
   76CHL1   H4B 6737   2.332   1.511   2.617  0.2463 -1.0526  0.1640
   76CHL1    C5 6738   2.281   1.502   2.829  0.7982 -0.4325  0.2928
   76CHL1    C6 6739   2.338   1.384   2.839  0.0986  0.2240  0.7238
   76CHL1    H6 6740   2.374   1.328   2.751 -0.7383  0.4673  0.2156
   76CHL1    C7 6741   2.349   1.316   2.973 -0.3449  0.1644  0.1384
   76CHL1   H7A 6742   2.307   1.215   2.957 -1.4678  0.5812  0.3350
   76CHL1   H7B 6743   2.456   1.302   2.999  0.1466 -0.3688 -1.9312
   76CHL1    C8 6744   2.268   1.382   3.087  0.5052  0.0815 -0.0838
   76CHL1    H8 6745   2.165   1.341   3.086  1.7714 -3.5860  1.5718
   76CHL1   C14 6746   2.318   1.344   3.224 -0.3366 -0.0587  0.1003
   76CHL1   H14 6747   2.424   1.377   3.231 -1.0126  2.0752  1.2729
   76CHL1   C15 6748   2.313   1.200   3.257 -0.7924 -0.6032  0.5532
   76CHL1  H15A 6749   2.206   1.174   3.239 -0.1531 -1.3451 -3.0888
   76CHL1  H15B 6750   2.376   1.142   3.186 -2.6169 -1.1226 -0.7274
   76CHL1   C16 6751   2.354   1.198   3.403 -0.6876 -0.5374  0.5030
   76CHL1  H16A 6752   2.290   1.127   3.460 -1.1899 -2.4801 -2.2746
   76CHL1  H16B 6753   2.460   1.169   3.419 -0.0759  0.7568 -1.0092
   76CHL1   C17 6754   2.344   1.348   3.450 -0.2998  0.1918 -0.6768
   76CHL1   H17 6755   2.445   1.394   3.458  0.4179 -1.6495  3.0005
   76CHL1   C13 6756   2.254   1.421   3.342 -0.0560 -0.3917  0.3079
   76CHL1   C18 6757   2.103   1.392   3.366  0.5693 -0.0236  0.5497
   76CHL1  H18A 6758   2.080   1.283   3.370  1.8447 -0.3844 -0.7377
   76CHL1  H18B 6759   2.063   1.442   3.456 -3.2573 -2.5857  0.5023
   76CHL1  H18C 6760   2.044   1.424   3.277  2.2812  0.0266 -0.6236
   76CHL1   C12 6761   2.281   1.567   3.324  0.1073  0.5901  0.1136
   76CHL1  H12A 6762   2.236   1.628   3.405 -0.3777  0.4962 -0.0806
   76CHL1  H12B 6763   2.390   1.585   3.325  0.2514 -0.2025 -0.0604
   76CHL1   C11 6764   2.214   1.611   3.187  0.1681 -0.5163  0.2386
   76CHL1  H11A 6765   2.103   1.617   3.189  0.0533 -2.0529 -0.4857
   76CHL1  H11B 6766   2.238   1.719   3.173  0.4772 -0.5497  0.5047
   76CHL1    C9 6767   2.268   1.532   3.070  0.5727 -0.7830 -0.1649
   76CHL1    H9 6768   2.374   1.563   3.080  0.4027 -0.5228  0.9238
   76CHL1   C10 6769   2.225   1.598   2.935 -0.3178  0.3853 -0.5870
   76CHL1   C19 6770   2.073   1.591   2.926 -0.1778  0.0522 -0.0810
   76CHL1  H19A 6771   2.029   1.661   3.000  1.3599  1.6361 -0.5992
   76CHL1  H19B 6772   2.027   1.619   2.830 -1.5588  2.9425  1.3015
   76CHL1  H19C 6773   2.035   1.488   2.943 -0.5978  0.4262  1.4650
   76CHL1    C1 6774   2.277   1.746   2.917 -0.3365  0.1639 -0.1788
   76CHL1   H1A 6775   2.236   1.815   2.994 -0.7122  0.2862 -0.4879
   76CHL1   H1B 6776   2.387   1.736   2.929 -0.5227 -0.9489  0.8260
   76CHL1    C2 6777   2.243   1.804   2.782 -0.5879  1.0020  0.5086
   76CHL1   H2A 6778   2.278   1.908   2.771 -0.0316  0.7134 -0.5252
   76CHL1   H2B 6779   2.137   1.787   2.754 -0.2002 -2.0279  0.5519
   76CHL1   C20 6780   2.301   1.355   3.599  0.4544  0.3082 -0.5441
   76CHL1   H20 6781   2.193   1.331   3.612  0.2939  1.7563  1.2293
   76CHL1   C21 6782   2.303   1.497   3.654  0.3694 -0.4382  0.1853
   76CHL1  H21A 6783   2.268   1.500   3.759 -0.3396  0.2978 -0.0569
   76CHL1  H21B 6784   2.240   1.571   3.600  0.8168 -0.5500 -0.4996
   76CHL1  H21C 6785   2.408   1.531   3.649  0.3014 -0.3064 -0.5080
   76CHL1   C22 6786   2.380   1.261   3.693 -0.5211 -0.1435  0.2589
   76CHL1  H22A 6787   2.357   1.159   3.656  0.9253 -0.5476  0.4218
   76CHL1  H22B 6788   2.485   1.284   3.666 -0.2882  0.1462  1.3833
   76CHL1   C23 6789   2.362   1.260   3.845 -0.0887 -0.2132  0.2836
   76CHL1  H23A 6790   2.363   1.365   3.882 -1.4610 -0.1718  0.2613
   76CHL1  H23B 6791   2.261   1.220   3.870 -1.3811  3.0768  0.8373
   76CHL1   C24 6792   2.468   1.184   3.907  0.0643  1.1679 -0.0795
   76CHL1  H24A 6793   2.486   1.089   3.854  2.6309  1.5812 -0.0885
   76CHL1  H24B 6794   2.566   1.233   3.888  1.5103 -0.3970  2.7331
   76CHL1   C25 6795   2.458   1.152   4.058 -0.0395 -0.3507 -0.8784
   76CHL1   H25 6796   2.455   1.245   4.118  0.4296 -0.8973  0.0124
   76CHL1   C26 6797   2.333   1.067   4.093 -0.1950 -0.3248 -0.2079
   76CHL1  H26A 6798   2.342   1.042   4.201  0.8147 -1.1522 -0.4642
   76CHL1  H26B 6799   2.241   1.129   4.090  1.5256  2.3851  0.0649
   76CHL1  H26C 6800   2.328   0.968   4.042  1.1673 -1.6588  2.0394
   76CHL1   C27 6801   2.585   1.083   4.102 -0.1272 -0.3549 -0.4786
   76CHL1  H27A 6802   2.587   1.074   4.213 -0.3981 -0.0069 -0.4447
   76CHL1  H27B 6803   2.569   0.983   4.058 -4.1736 -0.0660  0.0164
   76CHL1  H27C 6804   2.683   1.117   4.061  0.9255 -1.4077  1.0145
   77SOPE     N 6805   3.785   5.877   6.562  0.3891  0.2677  0.4724
   77SOPE   HN1 6806   3.758   5.975   6.540  1.6787  0.5877  0.2195
   77SOPE   HN2 6807   3.695   5.826   6.573  0.6784 -1.0829 -2.4731
   77SOPE   HN3 6808   3.853   5.876   6.641  2.8966 -2.0835 -1.5026
   77SOPE   C12 6809   3.851   5.816   6.443  0.1456  0.3575  0.3542
   77SOPE  H12A 6810   3.947   5.857   6.404 -0.4960 -0.5445 -2.3754
   77SOPE  H12B 6811   3.775   5.820   6.362 -0.2032  0.3824  0.6835
   77SOPE   C11 6812   3.883   5.661   6.463 -0.0485  0.1229 -0.2530
   77SOPE  H11A 6813   3.954   5.647   6.547  0.4342 -1.8095 -0.9304
   77SOPE  H11B 6814   3.942   5.629   6.374 -3.2768 -1.8383 -1.8729
   77SOPE     P 6815   3.665   5.540   6.367  0.6195 -0.2339 -0.5885
   77SOPE   O13 6816   3.553   5.626   6.358 -0.1176 -0.2226  0.1104
   77SOPE   O14 6817   3.634   5.399   6.395  0.6378  0.7158 -0.1705
   77SOPE   O12 6818   3.763   5.588   6.478  0.1761 -0.0116 -0.0918
   77SOPE   O11 6819   3.738   5.547   6.231  0.5296  0.7860 -0.2882
   77SOPE    C1 6820   3.841   5.446   6.208 -0.0926 -0.2987  0.1442
   77SOPE    HA 6821   3.837   5.361   6.279 -3.8637 -0.6401 -0.2889
   77SOPE    HB 6822   3.945   5.487   6.205  0.1608 -0.9495 -0.2483
   77SOPE    C2 6823   3.814   5.367   6.074 -0.2211 -0.1497  0.4855
   77SOPE    HS 6824   3.896   5.295   6.052 -0.0621  0.4394 -0.9636
   77SOPE   O21 6825   3.801   5.454   5.961  0.3782 -0.0791  0.2381
   77SOPE   C21 6826   3.912   5.493   5.903 -0.6805 -0.2268 -0.7723
   77SOPE   O22 6827   4.026   5.447   5.928  0.1174 -0.1795  0.3523
   77SOPE   C22 6828   3.890   5.618   5.820 -0.2511 -0.0986  0.2338
   77SOPE   H2R 6829   3.914   5.709   5.879  0.8217 -0.3177  0.1539
   77SOPE   H2S 6830   3.781   5.624   5.797 -0.3266  0.0358  0.6104
   77SOPE    C3 6831   3.686   5.269   6.083 -0.1580 -0.0399  0.4489
   77SOPE    HX 6832   3.607   5.323   6.140 -1.1275  0.6781 -1.4780
   77SOPE    HY 6833   3.714   5.186   6.152 -2.1405 -0.6974  0.5547
   77SOPE   O31 6834   3.642   5.219   5.955 -0.5768 -0.0230  0.1683
   77SOPE   C31 6835   3.546   5.293   5.901  0.8134  0.4974 -0.3008
   77SOPE   O32 6836   3.478   5.379   5.954 -0.2334 -0.3380  0.6010
   77SOPE   C32 6837   3.532   5.245   5.750 -0.1986 -0.1615  0.2201
   77SOPE   H2X 6838   3.507   5.137   5.759  0.5491 -0.5039 -1.4272
   77SOPE   H2Y 6839   3.627   5.257   5.694 -0.7011 -1.9711 -1.1162
   77SOPE   C23 6840   3.972   5.632   5.690 -0.6742 -0.8167 -0.1564
   77SOPE   H3R 6841   4.072   5.587   5.705  0.5234  1.8602  0.4957
   77SOPE   H3S 6842   3.970   5.740   5.665 -2.3796 -1.3385 -2.6551
   77SOPE   C24 6843   3.916   5.564   5.567 -0.2100 -0.1594 -0.4187
   77SOPE   H4R 6844   3.907   5.454   5.579  2.2372 -0.4341 -0.6080
   77SOPE   H4S 6845   3.813   5.603   5.554 -1.3580 -2.7553  0.2057
   77SOPE   C25 6846   3.989   5.586   5.431  0.9472 -0.0410 -0.7259
   77SOPE   H5R 6847   4.009   5.695   5.427  1.3197  0.0601  1.8001
   77SOPE   H5S 6848   4.080   5.522   5.426  0.8066 -0.2860 -0.2853
   77SOPE   C26 6849   3.917   5.531   5.307 -0.1879 -0.1550 -0.5448
   77SOPE   H6R 6850   3.901   5.423   5.326  2.4649 -0.1851  2.4371
   77SOPE   H6S 6851   3.818   5.580   5.296 -1.6639 -1.8941  3.2216
   77SOPE   C27 6852   3.990   5.536   5.173 -0.0733 -0.2118 -0.1642
   77SOPE   H7R 6853   4.100   5.529   5.178  0.0029  0.4383 -0.7997
   77SOPE   H7S 6854   3.962   5.446   5.114  1.7688  1.1444 -3.3443
   77SOPE   C28 6855   3.941   5.652   5.085 -0.1167 -0.1188  0.6950
   77SOPE   H8R 6856   3.981   5.643   4.982  0.8518 -1.0844  1.1266
   77SOPE   H8S 6857   3.830   5.655   5.084 -0.3151 -3.5454 -1.2097
   77SOPE   C29 6858   4.011   5.775   5.139  0.1818 -0.6080 -0.7168
   77SOPE   H91 6859   3.972   5.816   5.234 -0.2674  1.6754 -1.8237
   77SOPE  C210 6860   4.118   5.834   5.093 -0.5053  0.1936 -0.0492
   77SOPE  H101 6861   4.160   5.912   5.158  0.9579 -2.4932  2.4639
   77SOPE  C211 6862   4.209   5.789   4.983  0.1223  0.7855 -0.1586
   77SOPE  H11R 6863   4.160   5.727   4.905  1.6126 -1.9305  0.9215
   77SOPE  H11S 6864   4.286   5.719   5.024 -0.0596  0.9616  0.5019
   77SOPE  C212 6865   4.270   5.914   4.934  0.3706 -0.0054 -0.5885
   77SOPE  H12R 6866   4.315   5.972   5.017 -0.5920  0.1056 -0.1279
   77SOPE  H12S 6867   4.198   5.986   4.890  1.6688  1.3428 -0.5449
   77SOPE  C213 6868   4.381   5.874   4.843 -0.4891 -0.0918 -0.4368
   77SOPE  H13R 6869   4.332   5.833   4.753 -2.4826  0.3816  0.3831
   77SOPE  H13S 6870   4.451   5.792   4.869 -0.0149  0.1189 -1.0251
   77SOPE  C214 6871   4.487   5.996   4.815 -0.4261 -0.1756  0.0614
   77SOPE  H14R 6872   4.549   6.022   4.904 -0.4608  1.4725 -0.3661
   77SOPE  H14S 6873   4.437   6.091   4.788  1.2447  0.7997  0.2613
   77SOPE  C215 6874   4.592   5.980   4.705 -0.5041  0.3298  0.2667
   77SOPE  H15R 6875   4.640   5.884   4.730  0.3367  1.5613  4.0938
   77SOPE  H15S 6876   4.661   6.067   4.701  1.8600 -1.4986 -0.5411
   77SOPE  C216 6877   4.517   5.965   4.573  0.3058 -0.0669  0.0540
   77SOPE  H16R 6878   4.435   6.040   4.574 -0.8946 -1.3166  1.4798
   77SOPE  H16S 6879   4.469   5.865   4.564  1.3139 -0.7357  1.6401
   77SOPE  C217 6880   4.606   6.005   4.459  0.0456 -0.0813  0.7517
   77SOPE  H17R 6881   4.638   6.109   4.482 -2.5676  0.9883 -0.0186
   77SOPE  H17S 6882   4.544   6.017   4.368 -1.6469  0.4716  1.9159
   77SOPE  C218 6883   4.732   5.928   4.431  0.0101  0.0375  0.8266
   77SOPE  H18R 6884   4.800   5.920   4.519  0.5188  1.8910  0.6451
   77SOPE  H18S 6885   4.786   5.991   4.357 -1.3405  0.5828  0.2829
   77SOPE  H18T 6886   4.715   5.832   4.378 -0.2394  1.1667 -1.2130
   77SOPE   C33 6887   3.403   5.299   5.672 -0.0839  0.5505  0.0446
   77SOPE   H3X 6888   3.415   5.404   5.637  0.8885 -0.1926 -2.0228
   77SOPE   H3Y 6889   3.313   5.285   5.736  0.8985  0.6084  1.4942
   77SOPE   C34 6890   3.375   5.220   5.544 -0.1865 -0.1323 -0.5275
   77SOPE   H4X 6891   3.293   5.271   5.489 -0.7210 -1.4746 -1.0225
   77SOPE   H4Y 6892   3.324   5.126   5.573 -2.5088  1.5311  1.1779
   77SOPE   C35 6893   3.492   5.189   5.454 -0.3288  0.0278 -0.6961
   77SOPE   H5X 6894   3.573   5.135   5.507 -1.2993 -0.8198 -0.0431
   77SOPE   H5Y 6895   3.546   5.280   5.419 -0.5644 -0.2727 -1.8845
   77SOPE   C36 6896   3.455   5.112   5.334 -0.1625  0.4318 -0.4065
   77SOPE   H6X 6897   3.363   5.139   5.278  0.1675  0.2565 -1.0393
   77SOPE   H6Y 6898   3.438   5.007   5.366  0.6059 -0.4082 -2.5995
   77SOPE   C37 6899   3.569   5.108   5.225 -0.2223  0.2278 -0.5962
   77SOPE   H7X 6900   3.667   5.098   5.278 -0.0640 -0.1941 -0.9598
   77SOPE   H7Y 6901   3.567   5.210   5.182 -0.6593 -0.0739 -1.3010
   77SOPE   C38 6902   3.540   4.996   5.124  0.2356  0.4186  0.1480
   77SOPE   H8X 6903   3.438   5.005   5.080 -0.1644 -0.2156  0.8955
   77SOPE   H8Y 6904   3.536   4.901   5.183 -0.6013 -0.4298 -1.2232
   77SOPE   C39 6905   3.630   4.971   5.008 -0.2094 -0.5142 -0.2497
   77SOPE   H9X 6906   3.603   4.886   4.942  1.6869 -0.6322 -0.9442
   77SOPE   H9Y 6907   3.727   4.940   5.053  0.0001  0.5202  0.0437
   77SOPE  C310 6908   3.669   5.094   4.928  0.1134  0.1358 -0.7755
   77SOPE  H10X 6909   3.696   5.171   5.003 -1.0701 -1.6355  1.5961
   77SOPE  H10Y 6910   3.589   5.136   4.862 -1.9173 -2.1293  0.0915
   77SOPE  C311 6911   3.789   5.063   4.831 -0.2462 -0.3274 -0.1692
   77SOPE  H11X 6912   3.869   5.002   4.878  0.3373  1.0438  0.6808
   77SOPE  H11Y 6913   3.830   5.162   4.802 -0.0597 -0.6347 -1.0110
   77SOPE  C312 6914   3.757   4.986   4.704 -0.2071 -1.1637 -0.0554
   77SOPE  H12X 6915   3.699   5.053   4.638  1.4857 -0.7224 -1.1469
   77SOPE  H12Y 6916   3.687   4.903   4.728 -0.5076 -0.9725 -0.2665
   77SOPE  C313 6917   3.876   4.934   4.636  0.6979  0.3564 -0.1283
   77SOPE  H13X 6918   3.953   4.897   4.706 -0.2760  0.2084  0.8764
   77SOPE  H13Y 6919   3.912   5.017   4.570 -1.9902  2.1819  0.5110
   77SOPE  C314 6920   3.842   4.812   4.539 -0.0885  0.1036 -0.0706
   77SOPE  H14X 6921   3.917   4.816   4.456 -0.2345  0.8125 -0.1771
   77SOPE  H14Y 6922   3.745   4.826   4.488  1.1276  2.5346 -1.9575
   77SOPE  C315 6923   3.851   4.675   4.607 -0.2262 -1.2280  0.3702
   77SOPE  H15X 6924   3.768   4.670   4.682  1.1203  1.8678  2.2553
   77SOPE  H15Y 6925   3.949   4.678   4.658  1.1075 -1.3962 -2.0731
   77SOPE  C316 6926   3.835   4.564   4.507 -0.1437 -0.7722 -0.4932
   77SOPE  H16X 6927   3.920   4.557   4.436 -0.1024 -3.0154 -0.2967
   77SOPE  H16Y 6928   3.748   4.580   4.440  0.2005 -0.2932 -0.8327
   77SOPE  C317 6929   3.828   4.432   4.585  0.2325 -0.6316  0.0937
   77SOPE  H17X 6930   3.733   4.424   4.643  0.4479 -2.3212  0.2532
   77SOPE  H17Y 6931   3.910   4.426   4.659 -0.2696 -0.0740  0.7044
   77SOPE  C318 6932   3.845   4.308   4.491  0.4485 -0.1194  0.7736
   77SOPE  H18X 6933   3.805   4.217   4.541 -1.6199 -0.7999 -1.9350
   77SOPE  H18Y 6934   3.948   4.280   4.460 -1.2487 -4.5510 -1.7246
   77SOPE  H18Z 6935   3.776   4.315   4.405  1.0998 -0.4208  0.2168
   78SOPE     N 6936   3.341   6.414   6.420 -0.2804 -0.2477  0.0517
   78SOPE   HN1 6937   3.290   6.381   6.336  0.5458 -1.4096 -0.0236
   78SOPE   HN2 6938   3.387   6.332   6.465 -0.2626 -0.4318 -0.2962
   78SOPE   HN3 6939   3.284   6.466   6.489 -0.1852 -0.3908  0.2375
   78SOPE   C12 6940   3.453   6.504   6.376  0.2128  0.5329 -0.1626
   78SOPE  H12A 6941   3.484   6.554   6.470 -0.6980 -0.5611  0.7467
   78SOPE  H12B 6942   3.403   6.580   6.313 -0.9086  0.7948  1.0020
   78SOPE   C11 6943   3.564   6.429   6.307  0.4616  0.3903 -0.3543
   78SOPE  H11A 6944   3.639   6.506   6.278 -1.5198  1.6552 -2.4527
   78SOPE  H11B 6945   3.525   6.371   6.220 -0.7382 -0.1984  0.5584
   78SOPE     P 6946   3.685   6.204   6.373  0.2969 -0.1065 -0.0593
   78SOPE   O13 6947   3.678   6.122   6.497  0.1770  0.4477 -0.1228
   78SOPE   O14 6948   3.821   6.225   6.314 -0.1696 -0.2532  0.6023
   78SOPE   O12 6949   3.611   6.341   6.409  0.0036  0.3800  0.2470
   78SOPE   O11 6950   3.586   6.146   6.274  0.0475 -0.4717  0.8030
   78SOPE    C1 6951   3.641   6.053   6.176 -0.3525 -0.5063 -0.3584
   78SOPE    HA 6952   3.578   5.961   6.176  1.4482 -1.7988 -0.3787
   78SOPE    HB 6953   3.747   6.022   6.186  0.4298  1.8053 -0.8591
   78SOPE    C2 6954   3.640   6.116   6.026 -0.4264  0.5269 -0.4091
   78SOPE    HS 6955   3.706   6.047   5.969 -0.1306  0.6322 -0.1969
   78SOPE   O21 6956   3.695   6.248   6.036  0.4357 -0.0088 -0.0744
   78SOPE   C21 6957   3.780   6.288   5.941  0.4212 -0.4396  0.9253
   78SOPE   O22 6958   3.819   6.223   5.847  0.6398 -0.0449 -0.3385
   78SOPE   C22 6959   3.824   6.431   5.955 -0.7902  0.0268  1.1435
   78SOPE   H2R 6960   3.933   6.426   5.975 -0.4496  2.0755  0.0769
   78SOPE   H2S 6961   3.785   6.474   6.049  0.6626  2.1134  0.8456
   78SOPE    C3 6962   3.502   6.119   5.955  0.4896  0.3332  0.2899
   78SOPE    HX 6963   3.430   6.182   6.011 -0.2342  0.0356 -0.2795
   78SOPE    HY 6964   3.475   6.011   5.949  0.3643  0.3807 -0.0645
   78SOPE   O31 6965   3.514   6.173   5.817  0.3374  0.0868  0.5095
   78SOPE   C31 6966   3.562   6.093   5.723 -0.6342 -0.5115 -0.1102
   78SOPE   O32 6967   3.604   5.978   5.735 -0.4381 -0.3547  0.2437
   78SOPE   C32 6968   3.577   6.175   5.590 -0.0212 -0.2884  0.5257
   78SOPE   H2X 6969   3.673   6.229   5.599 -0.0073 -0.3121  0.5181
   78SOPE   H2Y 6970   3.494   6.248   5.602 -1.2728 -1.8246  1.8696
   78SOPE   C23 6971   3.804   6.527   5.835  0.0286  0.3882 -0.6057
   78SOPE   H3R 6972   3.863   6.621   5.849  0.6393  0.1384 -1.4116
   78SOPE   H3S 6973   3.698   6.560   5.832 -0.0027  0.2240 -1.8995
   78SOPE   C24 6974   3.846   6.474   5.703 -0.1748  0.6594  0.8229
   78SOPE   H4R 6975   3.949   6.433   5.703  0.2441  1.5874  2.3906
   78SOPE   H4S 6976   3.776   6.391   5.681  1.1980 -0.3581  0.1814
   78SOPE   C25 6977   3.811   6.576   5.591 -0.1446 -0.2121  0.5180
   78SOPE   H5R 6978   3.826   6.681   5.622  0.7958 -0.0018 -0.5889
   78SOPE   H5S 6979   3.882   6.557   5.507 -0.2251 -0.1332  0.4315
   78SOPE   C26 6980   3.664   6.568   5.537 -0.3981  0.1439  0.1265
   78SOPE   H6R 6981   3.642   6.463   5.510  2.5863 -1.1547  2.1066
   78SOPE   H6S 6982   3.595   6.585   5.622 -0.8028 -1.3489  0.1241
   78SOPE   C27 6983   3.634   6.667   5.424 -0.1646 -0.3758 -0.2120
   78SOPE   H7R 6984   3.614   6.764   5.474  0.6136 -0.2454 -0.1330
   78SOPE   H7S 6985   3.726   6.675   5.362  0.0514 -0.2341  0.1225
   78SOPE   C28 6986   3.507   6.639   5.343  0.1968  0.8500  0.2494
   78SOPE   H8R 6987   3.503   6.535   5.304  2.9637  0.7074  0.1739
   78SOPE   H8S 6988   3.419   6.660   5.407 -0.8166 -2.4106  0.1337
   78SOPE   C29 6989   3.494   6.733   5.233 -0.7283 -0.2446  0.6255
   78SOPE   H91 6990   3.489   6.839   5.261  1.3559 -0.5399  2.4252
   78SOPE  C210 6991   3.492   6.716   5.101 -0.0612 -0.0342  0.4454
   78SOPE  H101 6992   3.501   6.818   5.059  2.3888 -0.5231 -0.3313
   78SOPE  C211 6993   3.504   6.600   5.004 -0.6548  0.2297 -0.1556
   78SOPE  H11R 6994   3.402   6.572   4.969 -1.6655  0.4397  2.4132
   78SOPE  H11S 6995   3.540   6.513   5.064  2.5214  0.9544 -0.8156
   78SOPE  C212 6996   3.613   6.612   4.897 -0.0136 -0.0907 -0.0915
   78SOPE  H12R 6997   3.587   6.692   4.825  0.6527  2.3122  2.1728
   78SOPE  H12S 6998   3.610   6.518   4.838 -1.3501 -0.5140  0.6205
   78SOPE  C213 6999   3.751   6.626   4.957 -1.0071 -0.3202  0.0066
   78SOPE  H13R 7000   3.785   6.538   5.017  3.6297 -0.0670 -1.8219
   78SOPE  H13S 7001   3.748   6.711   5.028 -1.8581  0.7138 -1.2165
   78SOPE  C214 7002   3.865   6.645   4.852  0.3694 -0.5617 -0.6416
   78SOPE  H14R 7003   3.864   6.594   4.753  1.8373  0.5050 -1.2522
   78SOPE  H14S 7004   3.953   6.603   4.903 -0.9831 -1.5292  0.9986
   78SOPE  C215 7005   3.882   6.796   4.812  0.0964  0.6805  0.3321
   78SOPE  H15R 7006   3.890   6.852   4.907 -2.3510  1.3907  0.1998
   78SOPE  H15S 7007   3.791   6.823   4.755 -1.4830 -2.8906  0.8659
   78SOPE  C216 7008   4.014   6.821   4.730 -0.0037 -0.2335  0.9155
   78SOPE  H16R 7009   4.037   6.928   4.708  0.2586 -0.5217 -0.3117
   78SOPE  H16S 7010   4.014   6.772   4.630 -2.0421  1.0520  0.2150
   78SOPE  C217 7011   4.141   6.766   4.797  0.0244  0.0932 -0.2132
   78SOPE  H17R 7012   4.150   6.656   4.805  2.1289  0.3127  1.5261
   78SOPE  H17S 7013   4.160   6.805   4.900  0.4403  1.1072 -0.6559
   78SOPE  C218 7014   4.276   6.809   4.726  0.6432  0.3483 -0.2850
   78SOPE  H18R 7015   4.360   6.761   4.780  1.8827  0.4032 -2.0638
   78SOPE  H18S 7016   4.282   6.919   4.739 -1.0208  0.3032  1.1612
   78SOPE  H18T 7017   4.277   6.779   4.619  1.4135  1.3163 -0.5666
   78SOPE   C33 7018   3.560   6.090   5.459 -0.4763  0.3000  0.1594
   78SOPE   H3X 7019   3.462   6.042   5.438 -1.7258  1.5758  2.6087
   78SOPE   H3Y 7020   3.636   6.009   5.471 -0.9382 -0.2782 -0.7277
   78SOPE   C34 7021   3.592   6.190   5.341  0.2660 -1.1060  0.2234
   78SOPE   H4X 7022   3.674   6.261   5.363 -0.4716  0.2511 -1.1919
   78SOPE   H4Y 7023   3.503   6.257   5.341  2.2886  1.8536 -2.0643
   78SOPE   C35 7024   3.614   6.126   5.204  0.3526  0.5549 -0.2891
   78SOPE   H5X 7025   3.526   6.062   5.183  1.1659 -0.5534 -0.4010
   78SOPE   H5Y 7026   3.700   6.056   5.206 -0.7208 -0.8536 -1.3770
   78SOPE   C36 7027   3.623   6.226   5.086  0.7996 -0.3630 -0.8708
   78SOPE   H6X 7028   3.667   6.319   5.129 -2.5416 -0.3241  3.0777
   78SOPE   H6Y 7029   3.524   6.263   5.054  0.4046  0.1944  0.8944
   78SOPE   C37 7030   3.686   6.171   4.957 -0.0608 -0.0954 -0.9292
   78SOPE   H7X 7031   3.661   6.250   4.883 -1.9748  1.5189  1.3027
   78SOPE   H7Y 7032   3.639   6.076   4.924  1.7089 -1.6105  0.6657
   78SOPE   C38 7033   3.839   6.157   4.973  0.4894 -0.0975 -0.2860
   78SOPE   H8X 7034   3.866   6.104   5.067  2.0069  0.4256 -0.4128
   78SOPE   H8Y 7035   3.883   6.258   4.965 -2.3973  1.3024  0.2056
   78SOPE   C39 7036   3.884   6.062   4.854  0.1022  0.2180  0.5248
   78SOPE   H9X 7037   3.813   5.977   4.864 -0.6720  0.9830  1.9207
   78SOPE   H9Y 7038   3.987   6.026   4.874  0.2475  1.1552  1.5860
   78SOPE  C310 7039   3.877   6.140   4.720  0.1674 -0.2900 -0.6788
   78SOPE  H10X 7040   3.780   6.186   4.695 -0.0716 -0.4230 -0.0160
   78SOPE  H10Y 7041   3.909   6.072   4.639  0.9720  0.8143 -1.3213
   78SOPE  C311 7042   3.989   6.247   4.704  0.4293  0.4139  0.0888
   78SOPE  H11X 7043   4.089   6.208   4.731 -0.4758 -0.0952  3.0444
   78SOPE  H11Y 7044   3.964   6.333   4.769  0.3973  0.6121 -0.1815
   78SOPE  C312 7045   3.992   6.301   4.554  0.0568  0.8425 -0.5038
   78SOPE  H12X 7046   3.908   6.372   4.538  0.3518  1.3987  0.3394
   78SOPE  H12Y 7047   3.980   6.226   4.474 -0.9464 -0.1480  0.5349
   78SOPE  C313 7048   4.110   6.401   4.526 -0.4693  0.6279 -0.0699
   78SOPE  H13X 7049   4.205   6.354   4.557 -0.5867 -1.0128 -1.9938
   78SOPE  H13Y 7050   4.103   6.491   4.591 -1.1498  2.3375 -2.3703
   78SOPE  C314 7051   4.118   6.447   4.388 -0.4070 -0.1145  0.1488
   78SOPE  H14X 7052   4.040   6.524   4.371 -0.7121 -0.0049  1.9100
   78SOPE  H14Y 7053   4.093   6.358   4.326  0.4477 -0.1550 -0.1637
   78SOPE  C315 7054   4.251   6.503   4.348  0.2440  0.6245  0.1177
   78SOPE  H15X 7055   4.281   6.581   4.421  0.6626 -1.4883  2.3269
   78SOPE  H15Y 7056   4.246   6.532   4.241 -0.6971 -0.2147 -0.0766
   78SOPE  C316 7057   4.363   6.400   4.346 -0.6071 -0.0004 -0.0640
   78SOPE  H16X 7058   4.349   6.328   4.263  0.8706 -2.1873  1.4804
   78SOPE  H16Y 7059   4.378   6.330   4.431 -0.1353  0.6892  0.4371
   78SOPE  C317 7060   4.499   6.468   4.323 -0.1825 -0.1590  0.2769
   78SOPE  H17X 7061   4.571   6.383   4.327 -1.1285 -0.9498  0.7076
   78SOPE  H17Y 7062   4.524   6.539   4.405 -0.2394  1.9980 -1.4767
   78SOPE  C318 7063   4.511   6.540   4.187 -0.0722  0.0847  0.3174
   78SOPE  H18X 7064   4.533   6.647   4.206 -3.0309  1.2102 -1.9504
   78SOPE  H18Y 7065   4.421   6.532   4.123 -1.0324  2.3588  1.2765
   78SOPE  H18Z 7066   4.591   6.492   4.126 -1.0362 -2.2586  0.7608
   79SOPE     N 7067   4.976   0.435   6.353 -0.3236 -0.3745 -0.2215
   79SOPE   HN1 7068   4.976   0.480   6.260 -0.5928 -1.0378 -0.5475
   79SOPE   HN2 7069   5.070   0.403   6.385 -0.4659  0.6206  1.3208
   79SOPE   HN3 7070   4.921   0.348   6.335  0.3161 -1.2918  1.8909
   79SOPE   C12 7071   4.916   0.512   6.471 -0.3969 -0.0466  0.0164
   79SOPE  H12A 7072   4.936   0.457   6.565 -0.0029  2.1542  1.3037
   79SOPE  H12B 7073   4.808   0.530   6.451 -0.2455  1.2532  0.2439
   79SOPE   C11 7074   4.994   0.651   6.482  0.1668  0.4597 -0.8642
   79SOPE  H11A 7075   4.921   0.723   6.525 -0.5033 -0.8416  0.2377
   79SOPE  H11B 7076   5.012   0.696   6.382 -0.1077  0.2365 -1.0128
   79SOPE     P 7077   5.212   0.756   6.575 -0.5333  0.4537  0.3956
   79SOPE   O13 7078   5.335   0.702   6.640  0.1287  0.0517 -0.0585
   79SOPE   O14 7079   5.159   0.882   6.642  0.0955 -0.3726 -0.2141
   79SOPE   O12 7080   5.104   0.641   6.576  0.0236 -0.0319 -0.6807
   79SOPE   O11 7081   5.241   0.778   6.421  0.4148  0.0879 -0.2743
   79SOPE    C1 7082   5.292   0.664   6.342 -0.8458 -0.1870 -0.0490
   79SOPE    HA 7083   5.228   0.573   6.344  1.0290 -1.5628  0.1296
   79SOPE    HB 7084   5.394   0.630   6.367 -0.3649  0.7515 -0.6768
   79SOPE    C2 7085   5.315   0.706   6.200 -0.1701 -0.3368  0.0435
   79SOPE    HS 7086   5.266   0.627   6.139  1.6336  0.2521 -2.3159
   79SOPE   O21 7087   5.455   0.708   6.172 -0.1682  0.1608 -0.5858
   79SOPE   C21 7088   5.499   0.677   6.049  0.1842 -0.4737  0.3965
   79SOPE   O22 7089   5.434   0.612   5.969 -0.1998  0.2405  0.7885
   79SOPE   C22 7090   5.637   0.735   6.029 -0.5348  0.2863 -0.3687
   79SOPE   H2R 7091   5.715   0.675   6.080 -2.2939 -1.4947  0.3978
   79SOPE   H2S 7092   5.643   0.832   6.081 -1.0512 -0.8104  1.8517
   79SOPE    C3 7093   5.262   0.844   6.159 -0.2874 -0.4063  0.0698
   79SOPE    HX 7094   5.325   0.922   6.207 -0.6362  1.1871 -1.9275
   79SOPE    HY 7095   5.159   0.868   6.193 -0.1456  1.7765 -0.8783
   79SOPE   O31 7096   5.274   0.878   6.018  0.3300  0.2324  0.2287
   79SOPE   C31 7097   5.189   0.819   5.937  0.1639  0.0273 -0.2805
   79SOPE   O32 7098   5.114   0.729   5.978 -0.1469  0.6067  0.0586
   79SOPE   C32 7099   5.206   0.870   5.795  0.9661 -0.0922 -0.3987
   79SOPE   H2X 7100   5.286   0.946   5.781  0.8134  0.1773  0.1420
   79SOPE   H2Y 7101   5.114   0.928   5.772  0.4856 -1.0376 -0.9124
   79SOPE   C23 7102   5.685   0.753   5.882  0.2552  0.1235 -0.3999
   79SOPE   H3R 7103   5.688   0.657   5.826 -0.8543  0.8837 -1.8290
   79SOPE   H3S 7104   5.790   0.789   5.889 -0.1543  1.6756 -1.5641
   79SOPE   C24 7105   5.604   0.843   5.793 -0.2422 -0.1815 -0.8418
   79SOPE   H4R 7106   5.520   0.778   5.760 -1.2812 -0.0468  1.3589
   79SOPE   H4S 7107   5.557   0.926   5.850 -3.1051 -2.0972 -0.1690
   79SOPE   C25 7108   5.668   0.899   5.668  0.3060 -0.7892 -0.3733
   79SOPE   H5R 7109   5.597   0.967   5.617  1.8380  2.7354  1.8449
   79SOPE   H5S 7110   5.759   0.958   5.690 -0.2816 -0.2336  0.6725
   79SOPE   C26 7111   5.706   0.794   5.566 -0.2274 -0.8420 -0.6506
   79SOPE   H6R 7112   5.790   0.734   5.607  0.8360  0.2154 -1.2139
   79SOPE   H6S 7113   5.616   0.730   5.558 -1.7193  1.2275 -1.4915
   79SOPE   C27 7114   5.764   0.830   5.428 -0.4189 -0.1182  0.6434
   79SOPE   H7R 7115   5.857   0.888   5.448  0.5205 -1.2114 -0.4006
   79SOPE   H7S 7116   5.800   0.741   5.373  1.9838  2.1276 -1.7521
   79SOPE   C28 7117   5.674   0.929   5.341  0.2318 -0.0791 -0.2677
   79SOPE   H8R 7118   5.622   0.998   5.411  0.3765  1.7872 -1.8988
   79SOPE   H8S 7119   5.739   0.989   5.273  0.0954  1.3694  0.8208
   79SOPE   C29 7120   5.580   0.844   5.260 -0.1779 -0.3662 -0.2440
   79SOPE   H91 7121   5.504   0.784   5.313  1.5661 -1.7118  0.8491
   79SOPE  C210 7122   5.581   0.843   5.126 -0.0555 -0.1481 -0.4755
   79SOPE  H101 7123   5.506   0.786   5.068  0.9407 -1.9584 -0.0317
   79SOPE  C211 7124   5.673   0.909   5.030 -0.4393 -0.6146  1.2978
   79SOPE  H11R 7125   5.771   0.856   5.024 -0.4290 -0.4280 -1.3202
   79SOPE  H11S 7126   5.690   1.019   5.034  0.8455 -0.5856 -1.7904
   79SOPE  C212 7127   5.610   0.893   4.887  0.9284 -0.8809  0.5180
   79SOPE  H12R 7128   5.513   0.947   4.887 -0.8061 -3.7447 -0.5546
   79SOPE  H12S 7129   5.597   0.784   4.872  1.0159 -1.1215  1.9894
   79SOPE  C213 7130   5.686   0.959   4.769  0.4300 -0.0811 -0.0165
   79SOPE  H13R 7131   5.777   0.903   4.740  1.8267 -0.4246  4.2510
   79SOPE  H13S 7132   5.727   1.053   4.813 -1.2979  1.2628 -1.1467
   79SOPE  C214 7133   5.593   1.001   4.651  0.4099  0.0324 -0.6404
   79SOPE  H14R 7134   5.508   1.060   4.692  1.4125  2.8113 -2.2577
   79SOPE  H14S 7135   5.558   0.907   4.604 -0.6897  0.5809 -0.9585
   79SOPE  C215 7136   5.645   1.107   4.550 -0.2844 -0.1182  0.7099
   79SOPE  H15R 7137   5.733   1.066   4.496 -0.7547  1.1710 -1.0980
   79SOPE  H15S 7138   5.701   1.185   4.605  0.7279  0.6130 -1.2683
   79SOPE  C216 7139   5.545   1.170   4.456 -0.0549  0.5644  0.3527
   79SOPE  H16R 7140   5.462   1.199   4.523 -1.9088  0.1978 -1.6811
   79SOPE  H16S 7141   5.505   1.095   4.385 -1.1808 -1.0499  2.5745
   79SOPE  C217 7142   5.603   1.291   4.383 -0.0900  0.6580  0.5725
   79SOPE  H17R 7143   5.694   1.265   4.324 -0.7492 -1.8112  0.5461
   79SOPE  H17S 7144   5.636   1.370   4.454 -0.6841  1.1832  0.2773
   79SOPE  C218 7145   5.514   1.343   4.271  0.3229 -0.3392  0.7069
   79SOPE  H18R 7146   5.485   1.263   4.200  2.8145 -1.0512  0.4141
   79SOPE  H18S 7147   5.575   1.416   4.214 -1.8260  0.2289 -0.9925
   79SOPE  H18T 7148   5.421   1.384   4.316  0.8092 -0.0484  1.4801
   79SOPE   C33 7149   5.208   0.757   5.692 -0.2185  0.0374  0.6044
   79SOPE   H3X 7150   5.118   0.693   5.699  1.0205 -1.7246  1.3137
   79SOPE   H3Y 7151   5.286   0.681   5.715 -1.4814 -1.3726  0.3860
   79SOPE   C34 7152   5.228   0.817   5.548  0.1043 -0.2660 -0.2290
   79SOPE   H4X 7153   5.314   0.888   5.547 -1.3830  1.6326  0.5125
   79SOPE   H4Y 7154   5.143   0.884   5.524  0.4836  0.9347  1.5414
   79SOPE   C35 7155   5.240   0.710   5.434 -0.3418  0.6375 -0.2296
   79SOPE   H5X 7156   5.168   0.629   5.460  0.2802  0.2992  0.4641
   79SOPE   H5Y 7157   5.339   0.660   5.430 -0.5633  0.1315  0.5265
   79SOPE   C36 7158   5.211   0.771   5.291 -0.8085  0.4678  0.2660
   79SOPE   H6X 7159   5.299   0.838   5.275 -0.6208  0.4283  1.1016
   79SOPE   H6Y 7160   5.114   0.824   5.287 -0.5710  0.8918 -0.0046
   79SOPE   C37 7161   5.204   0.663   5.185 -0.3713  0.3561  0.2657
   79SOPE   H7X 7162   5.108   0.608   5.196 -0.8629  1.2939  0.7403
   79SOPE   H7Y 7163   5.294   0.602   5.208  0.9193  1.7417 -0.8935
   79SOPE   C38 7164   5.225   0.706   5.044 -0.4382  0.6559  0.0040
   79SOPE   H8X 7165   5.295   0.792   5.040  0.0222  0.3259  0.7076
   79SOPE   H8Y 7166   5.133   0.754   5.005 -0.1440  2.3527  1.2847
   79SOPE   C39 7167   5.278   0.593   4.959 -0.1489  0.1341 -0.2351
   79SOPE   H9X 7168   5.205   0.510   4.966  0.0485 -0.2587 -2.3282
   79SOPE   H9Y 7169   5.378   0.561   4.996 -0.7976 -1.4656  0.1975
   79SOPE  C310 7170   5.298   0.645   4.822 -0.0586 -0.9385  0.2719
   79SOPE  H10X 7171   5.392   0.704   4.823  0.6899 -2.0955  1.0566
   79SOPE  H10Y 7172   5.217   0.718   4.803  1.5779  1.2509  1.2283
   79SOPE  C311 7173   5.300   0.541   4.709  0.0725  0.8565 -0.7153
   79SOPE  H11X 7174   5.194   0.509   4.693 -0.1520  1.5945 -0.7445
   79SOPE  H11Y 7175   5.359   0.458   4.753 -2.3573 -0.5076  0.2028
   79SOPE  C312 7176   5.368   0.607   4.588 -0.7080  0.3200  0.2692
   79SOPE  H12X 7177   5.449   0.676   4.618 -1.2938  1.1901 -0.0907
   79SOPE  H12Y 7178   5.298   0.678   4.537 -1.6006 -0.1047  0.8747
   79SOPE  C313 7179   5.418   0.514   4.472  0.9251  1.0666 -0.6258
   79SOPE  H13X 7180   5.328   0.455   4.446 -0.3991  1.2064  3.0124
   79SOPE  H13Y 7181   5.491   0.445   4.521 -0.6049  0.0507  0.3360
   79SOPE  C314 7182   5.480   0.582   4.349  0.9164  0.4880  0.1318
   79SOPE  H14X 7183   5.545   0.665   4.384  0.5528  0.1329  1.7237
   79SOPE  H14Y 7184   5.393   0.639   4.312  2.0727  1.5291 -1.0830
   79SOPE  C315 7185   5.550   0.500   4.237  0.1749  0.3049 -0.0050
   79SOPE  H15X 7186   5.467   0.448   4.185  0.5724 -0.2406 -0.0965
   79SOPE  H15Y 7187   5.622   0.424   4.272  0.9063 -0.5901 -3.1302
   79SOPE  C316 7188   5.615   0.587   4.127  0.1487 -0.4742 -0.9189
   79SOPE  H16X 7189   5.703   0.525   4.099  1.8280  1.1678  0.4800
   79SOPE  H16Y 7190   5.647   0.687   4.163  2.8348 -2.2008  1.8851
   79SOPE  C317 7191   5.518   0.609   4.008 -0.5984 -0.1558 -0.2610
   79SOPE  H17X 7192   5.428   0.659   4.050 -0.3826 -1.5999  2.0712
   79SOPE  H17Y 7193   5.483   0.509   3.975  0.1908 -0.7478  0.6185
   79SOPE  C318 7194   5.577   0.688   3.895  0.8234 -0.2415 -0.4614
   79SOPE  H18X 7195   5.578   0.792   3.935 -0.0861 -0.4420  0.1132
   79SOPE  H18Y 7196   5.523   0.691   3.798  1.8672  2.7981 -1.0727
   79SOPE  H18Z 7197   5.678   0.651   3.867  2.3749  1.6010  2.1785
   80SOPE     N 7198   3.140   4.790   6.534 -0.0542  0.4097 -0.2485
   80SOPE   HN1 7199   3.101   4.719   6.469 -2.2571  2.3364 -1.1900
   80SOPE   HN2 7200   3.225   4.753   6.580  0.1847 -0.2341 -1.1912
   80SOPE   HN3 7201   3.058   4.797   6.598 -1.2368 -2.0335 -1.3369
   80SOPE   C12 7202   3.174   4.916   6.458  0.3245  0.0529  0.1153
   80SOPE  H12A 7203   3.091   4.945   6.390 -1.2935  0.5028  2.1847
   80SOPE  H12B 7204   3.263   4.897   6.394  0.2448  2.1274 -0.6642
   80SOPE   C11 7205   3.192   5.030   6.556 -0.3120  0.0216 -0.0194
   80SOPE  H11A 7206   3.218   5.119   6.496 -1.9725 -0.6308 -1.8044
   80SOPE  H11B 7207   3.281   5.014   6.621 -0.1628  1.0762  0.0586
   80SOPE     P 7208   3.038   5.175   6.716 -0.1138  0.5477 -0.3004
   80SOPE   O13 7209   3.133   5.208   6.824 -0.3868  0.1371 -0.4708
   80SOPE   O14 7210   2.896   5.156   6.765  0.4950 -0.1786  0.4929
   80SOPE   O12 7211   3.082   5.050   6.642  0.1085 -0.1411 -0.0413
   80SOPE   O11 7212   3.042   5.283   6.607  0.3528  0.3786  0.6097
   80SOPE    C1 7213   2.940   5.368   6.559 -0.8142 -0.7550  0.7087
   80SOPE    HA 7214   2.988   5.432   6.482  1.7677 -1.2722  1.7822
   80SOPE    HB 7215   2.891   5.435   6.632  1.4872  2.6618 -0.6271
   80SOPE    C2 7216   2.835   5.288   6.478 -0.0273 -0.0896  0.4025
   80SOPE    HS 7217   2.805   5.202   6.541  3.7114 -0.8180  1.4581
   80SOPE   O21 7218   2.897   5.229   6.365  0.0893 -0.1300  0.1927
   80SOPE   C21 7219   2.844   5.139   6.288 -0.3073  0.6138 -0.4785
   80SOPE   O22 7220   2.743   5.078   6.307 -0.2641 -0.3300  0.0590
   80SOPE   C22 7221   2.952   5.108   6.175  0.7406 -0.0274 -0.2981
   80SOPE   H2R 7222   2.960   4.998   6.160 -1.5054 -0.3353  0.4723
   80SOPE   H2S 7223   3.053   5.146   6.201  0.0381  0.0819  2.5263
   80SOPE    C3 7224   2.714   5.376   6.442  0.2083 -0.4020  0.5165
   80SOPE    HX 7225   2.672   5.413   6.539 -0.5609 -0.0162  0.0424
   80SOPE    HY 7226   2.644   5.298   6.404 -1.0232  0.8452  0.1509
   80SOPE   O31 7227   2.740   5.478   6.344  0.0031  0.6307  0.0611
   80SOPE   C31 7228   2.707   5.448   6.223  0.5450  0.1663  0.4663
   80SOPE   O32 7229   2.654   5.342   6.181  0.1979  0.3707 -0.9703
   80SOPE   C32 7230   2.745   5.565   6.126 -0.1338 -0.2492  0.1941
   80SOPE   H2X 7231   2.845   5.544   6.083  0.2022  1.5923 -0.0388
   80SOPE   H2Y 7232   2.738   5.661   6.181 -0.7335 -0.6665  0.8523
   80SOPE   C23 7233   2.911   5.168   6.041 -0.0874  0.4377 -0.1115
   80SOPE   H3R 7234   2.994   5.142   5.972  0.5459 -0.8937  1.0945
   80SOPE   H3S 7235   2.905   5.278   6.053  1.7043  0.2862  3.2118
   80SOPE   C24 7236   2.788   5.099   5.976 -0.1193  0.0817  0.5792
   80SOPE   H4R 7237   2.695   5.100   6.037 -0.0890 -4.0719  0.9464
   80SOPE   H4S 7238   2.741   5.162   5.897  0.2141  0.4095  0.6407
   80SOPE   C25 7239   2.803   4.961   5.913  0.0360  0.4406 -0.8405
   80SOPE   H5R 7240   2.736   4.948   5.825 -1.7203  0.0692  0.5122
   80SOPE   H5S 7241   2.904   4.945   5.868 -0.9887 -0.7025 -2.8381
   80SOPE   C26 7242   2.776   4.839   6.005  0.0498  0.2844 -0.0200
   80SOPE   H6R 7243   2.808   4.862   6.109  2.6672  0.6685 -0.8293
   80SOPE   H6S 7244   2.665   4.837   6.007  0.0330  1.0993  0.2482
   80SOPE   C27 7245   2.846   4.706   5.962 -0.1685 -0.0489  0.0000
   80SOPE   H7R 7246   2.833   4.684   5.854  2.5355 -0.8563 -0.2252
   80SOPE   H7S 7247   2.953   4.729   5.982 -0.1195 -0.2274 -0.0553
   80SOPE   C28 7248   2.821   4.570   6.030  0.1727 -0.6352  0.2456
   80SOPE   H8R 7249   2.861   4.492   5.962  0.7032 -0.4984  0.3947
   80SOPE   H8S 7250   2.881   4.565   6.124  1.2857  1.5423 -0.2723
   80SOPE   C29 7251   2.676   4.562   6.065  0.1908  0.5450  0.4169
   80SOPE   H91 7252   2.646   4.641   6.137 -1.4030 -0.4359  0.8739
   80SOPE  C210 7253   2.586   4.475   6.011  0.5869  0.4994  0.1443
   80SOPE  H101 7254   2.484   4.456   6.047  0.6672 -0.3064 -0.0302
   80SOPE  C211 7255   2.637   4.364   5.909  0.5269 -0.2337 -0.2115
   80SOPE  H11R 7256   2.588   4.264   5.916 -0.1079  0.0739 -0.2436
   80SOPE  H11S 7257   2.745   4.337   5.919  1.2589  2.5952  0.2167
   80SOPE  C212 7258   2.598   4.416   5.771  0.1771 -0.1685  0.5850
   80SOPE  H12R 7259   2.669   4.502   5.768  1.4524 -1.2182 -0.7543
   80SOPE  H12S 7260   2.495   4.456   5.767  0.1582 -0.2348  0.4323
   80SOPE  C213 7261   2.613   4.310   5.661 -0.4673 -0.5836 -0.3190
   80SOPE  H13R 7262   2.510   4.271   5.650 -0.0521 -2.6944  2.0962
   80SOPE  H13S 7263   2.670   4.227   5.709  0.3723  0.7675  1.1053
   80SOPE  C214 7264   2.676   4.352   5.529  0.0319  0.5545  0.4687
   80SOPE  H14R 7265   2.784   4.377   5.539 -0.0152  0.9269  0.0264
   80SOPE  H14S 7266   2.613   4.437   5.498 -1.6315 -1.3878 -1.8256
   80SOPE  C215 7267   2.681   4.234   5.437 -0.5075  0.1991 -0.3389
   80SOPE  H15R 7268   2.576   4.208   5.412 -1.3264  2.1014  0.9030
   80SOPE  H15S 7269   2.720   4.161   5.511 -0.6333  0.8526  0.3960
   80SOPE  C216 7270   2.769   4.253   5.314 -0.3594 -0.5176 -0.5253
   80SOPE  H16R 7271   2.873   4.239   5.351 -0.4241  2.5370  1.1736
   80SOPE  H16S 7272   2.760   4.358   5.277  2.5216 -0.0382 -0.0811
   80SOPE  C217 7273   2.759   4.144   5.207 -0.9079  0.1519 -0.6424
   80SOPE  H17R 7274   2.656   4.140   5.165  0.2645 -1.6124 -3.6650
   80SOPE  H17S 7275   2.791   4.046   5.249  1.2811  0.3434 -1.6901
   80SOPE  C218 7276   2.846   4.191   5.086 -0.2476  1.3298 -0.3682
   80SOPE  H18R 7277   2.813   4.288   5.043  1.9435  1.2732 -2.3318
   80SOPE  H18S 7278   2.849   4.111   5.009  0.9030  0.8134  0.1860
   80SOPE  H18T 7279   2.954   4.197   5.108  0.0375 -2.1358 -0.2587
   80SOPE   C33 7280   2.660   5.584   6.003  0.4029  0.7903  0.5135
   80SOPE   H3X 7281   2.584   5.659   6.032 -1.1600 -1.2765  2.0127
   80SOPE   H3Y 7282   2.598   5.494   5.985 -1.8774  2.5601 -1.0120
   80SOPE   C34 7283   2.742   5.614   5.879 -0.6802 -0.0831 -0.4537
   80SOPE   H4X 7284   2.824   5.686   5.903 -1.6754  0.3971  1.8629
   80SOPE   H4Y 7285   2.673   5.661   5.806  0.2940 -0.9255 -1.9594
   80SOPE   C35 7286   2.797   5.489   5.809  0.0382 -0.3889  0.0921
   80SOPE   H5X 7287   2.714   5.415   5.808 -0.3726  0.0135  1.6671
   80SOPE   H5Y 7288   2.877   5.446   5.872  1.4116  1.9612  0.0611
   80SOPE   C36 7289   2.868   5.528   5.672 -0.2133  0.2392  0.3619
   80SOPE   H6X 7290   2.937   5.613   5.691 -0.3116  0.7617 -1.4451
   80SOPE   H6Y 7291   2.801   5.563   5.590  2.0443  0.1086 -1.6353
   80SOPE   C37 7292   2.955   5.410   5.624  0.0027 -0.5839  0.3415
   80SOPE   H7X 7293   3.028   5.379   5.702  1.7068 -1.4458 -1.5246
   80SOPE   H7Y 7294   3.006   5.445   5.532 -0.0045  1.7837  1.1788
   80SOPE   C38 7295   2.874   5.280   5.591  0.0569  1.0102  0.1171
   80SOPE   H8X 7296   2.790   5.302   5.522 -1.2264 -0.0749  1.2690
   80SOPE   H8Y 7297   2.830   5.246   5.688  0.6187  1.7219  0.6274
   80SOPE   C39 7298   2.957   5.165   5.533 -0.1608  0.2545  0.5600
   80SOPE   H9X 7299   2.895   5.074   5.524 -0.8366  0.8510 -1.4501
   80SOPE   H9Y 7300   3.043   5.133   5.595  0.5567  4.6579  2.2308
   80SOPE  C310 7301   3.009   5.208   5.400 -0.3091  0.1175  0.0339
   80SOPE  H10X 7302   3.089   5.284   5.413 -0.4208  0.1730  0.4044
   80SOPE  H10Y 7303   2.921   5.254   5.350  0.6941  0.5271 -1.3916
   80SOPE  C311 7304   3.057   5.091   5.311  0.9905 -0.5412  0.2367
   80SOPE  H11X 7305   2.972   5.019   5.310 -0.4508  1.1025  0.3949
   80SOPE  H11Y 7306   3.144   5.047   5.365 -0.1565 -1.8719  1.0365
   80SOPE  C312 7307   3.078   5.130   5.166  0.7020 -0.1882 -0.7508
   80SOPE  H12X 7308   3.150   5.213   5.153 -2.0091  2.1090 -2.1903
   80SOPE  H12Y 7309   2.982   5.164   5.121 -0.7174 -0.6041  1.7880
   80SOPE  C313 7310   3.128   5.015   5.078 -0.0737  0.3711 -0.5493
   80SOPE  H13X 7311   3.059   4.929   5.076 -0.4948  0.6754 -3.1628
   80SOPE  H13Y 7312   3.222   4.979   5.126 -1.3490 -0.7326  1.2311
   80SOPE  C314 7313   3.167   5.060   4.938 -0.7437  0.0855  0.1792
   80SOPE  H14X 7314   3.239   5.144   4.933  2.5112 -2.5290 -0.9617
   80SOPE  H14Y 7315   3.075   5.085   4.881 -0.6053 -1.0407 -0.5750
   80SOPE  C315 7316   3.239   4.948   4.861 -0.0492 -0.5918 -0.2873
   80SOPE  H15X 7317   3.166   4.874   4.821  1.0518 -1.9214  0.1116
   80SOPE  H15Y 7318   3.312   4.888   4.920  0.6521 -1.0525 -1.5911
   80SOPE  C316 7319   3.310   5.005   4.736 -0.3012 -0.3699 -0.2161
   80SOPE  H16X 7320   3.410   5.051   4.752 -0.8075 -0.0544  2.5282
   80SOPE  H16Y 7321   3.245   5.082   4.689 -1.7606 -0.7645  1.0746
   80SOPE  C317 7322   3.333   4.904   4.620  0.4546  0.4623  0.1107
   80SOPE  H17X 7323   3.256   4.823   4.620  1.8835 -0.9785  1.5014
   80SOPE  H17Y 7324   3.428   4.855   4.652 -0.3647  0.5315  2.9338
   80SOPE  C318 7325   3.352   4.972   4.488 -0.1576 -0.0745  0.4412
   80SOPE  H18X 7326   3.253   5.007   4.452  0.2129  0.7747  0.2074
   80SOPE  H18Y 7327   3.422   4.920   4.419  1.8267  1.7317  0.9539
   80SOPE  H18Z 7328   3.411   5.064   4.508 -0.4666  0.2930 -0.3003
   81SOPE     N 7329   4.776   0.689   7.020 -0.8565 -0.9502  0.1626
   81SOPE   HN1 7330   4.798   0.783   6.983  0.3948 -0.4716  1.9998
   81SOPE   HN2 7331   4.810   0.690   7.118  1.5067  3.4517 -0.4634
   81SOPE   HN3 7332   4.833   0.628   6.958  0.4756  1.0723 -0.6840
   81SOPE   C12 7333   4.628   0.669   7.020 -0.4652 -1.0642  0.6655
   81SOPE  H12A 7334   4.594   0.736   7.102  2.3221  1.5563 -0.1617
   81SOPE  H12B 7335   4.614   0.559   7.023 -2.1607 -0.9081 -0.1145
   81SOPE   C11 7336   4.576   0.708   6.880  0.2698 -0.2007 -0.0799
   81SOPE  H11A 7337   4.582   0.819   6.868  0.9841 -0.3433 -1.2367
   81SOPE  H11B 7338   4.468   0.688   6.869  0.3883 -0.7692 -0.2135
   81SOPE     P 7339   4.586   0.523   6.694 -0.4028  0.0103 -0.7587
   81SOPE   O13 7340   4.478   0.469   6.773 -0.1416  0.0812  0.0065
   81SOPE   O14 7341   4.693   0.427   6.668  0.0487 -0.0243 -0.8722
   81SOPE   O12 7342   4.652   0.645   6.772  0.2625 -0.2906  0.3190
   81SOPE   O11 7343   4.523   0.586   6.562  0.0706 -0.4430  0.1099
   81SOPE    C1 7344   4.522   0.730   6.533  1.1787 -0.1112 -0.5862
   81SOPE    HA 7345   4.584   0.787   6.606  2.5535 -1.8199 -0.3818
   81SOPE    HB 7346   4.416   0.764   6.536  1.0003 -0.2516 -3.4070
   81SOPE    C2 7347   4.583   0.746   6.392 -0.6023 -0.2119 -0.8424
   81SOPE    HS 7348   4.668   0.674   6.390 -0.3690 -0.0452  0.9511
   81SOPE   O21 7349   4.625   0.879   6.376 -0.3816 -0.0609  0.5768
   81SOPE   C21 7350   4.725   0.909   6.289 -0.1951  0.6380 -0.6514
   81SOPE   O22 7351   4.804   0.826   6.259 -0.3987  0.0677 -0.0451
   81SOPE   C22 7352   4.726   1.052   6.247 -0.8275  0.4216  0.0800
   81SOPE   H2R 7353   4.767   1.114   6.330  3.0798 -0.4370 -0.9890
   81SOPE   H2S 7354   4.622   1.075   6.217 -0.4325  2.9812  0.4444
   81SOPE    C3 7355   4.475   0.717   6.284  0.1690  0.0566  0.0122
   81SOPE    HX 7356   4.387   0.784   6.293 -1.9504 -2.5043 -0.3990
   81SOPE    HY 7357   4.439   0.614   6.303  0.3080 -0.1813 -0.9614
   81SOPE   O31 7358   4.533   0.729   6.152  0.3740  0.4719 -0.2573
   81SOPE   C31 7359   4.449   0.710   6.054 -0.0566  0.4221  0.5526
   81SOPE   O32 7360   4.328   0.694   6.062 -0.1842 -0.7661 -0.8347
   81SOPE   C32 7361   4.520   0.705   5.921 -0.7029  0.0290 -0.1362
   81SOPE   H2X 7362   4.439   0.701   5.845  0.3438 -1.4351 -1.2258
   81SOPE   H2Y 7363   4.580   0.612   5.914 -0.3820  0.0956  1.3329
   81SOPE   C23 7364   4.825   1.081   6.126 -0.4711 -0.2271  0.8461
   81SOPE   H3R 7365   4.810   1.014   6.039 -1.4875  0.8984  0.1281
   81SOPE   H3S 7366   4.929   1.087   6.165  0.2602  2.0046 -1.1538
   81SOPE   C24 7367   4.791   1.221   6.075 -0.2302 -0.7199  0.0187
   81SOPE   H4R 7368   4.689   1.213   6.033  0.3861  0.5004 -1.8820
   81SOPE   H4S 7369   4.792   1.295   6.158  1.3534  1.6996 -1.9763
   81SOPE   C25 7370   4.897   1.277   5.981 -0.5358  0.3016  0.0694
   81SOPE   H5R 7371   4.862   1.374   5.941 -1.6298 -0.4290 -0.7758
   81SOPE   H5S 7372   4.988   1.302   6.040  0.7278  2.4192 -2.5489
   81SOPE   C26 7373   4.934   1.184   5.859 -0.2477 -0.4014 -0.0388
   81SOPE   H6R 7374   5.029   1.134   5.888  1.0069  1.0341 -1.4778
   81SOPE   H6S 7375   4.857   1.105   5.847 -0.4656 -0.0711 -0.8473
   81SOPE   C27 7376   4.959   1.262   5.733  0.3008 -0.4143 -0.2504
   81SOPE   H7R 7377   4.957   1.193   5.646 -0.3189 -1.7195  0.7711
   81SOPE   H7S 7378   4.876   1.334   5.714 -0.0250 -0.9334 -0.8307
   81SOPE   C28 7379   5.103   1.322   5.729  0.9584 -0.3697 -0.5437
   81SOPE   H8R 7380   5.106   1.420   5.677  1.3162  0.6414  1.2730
   81SOPE   H8S 7381   5.127   1.352   5.834  0.5418 -3.4209  0.5263
   81SOPE   C29 7382   5.218   1.233   5.694  0.8325  0.6097 -0.4872
   81SOPE   H91 7383   5.259   1.184   5.783  1.9864  0.9602 -0.8151
   81SOPE  C210 7384   5.266   1.206   5.571  0.0183 -0.7835  0.0049
   81SOPE  H101 7385   5.350   1.137   5.553 -0.3735 -0.7912 -2.1404
   81SOPE  C211 7386   5.212   1.268   5.444  0.4136 -0.3457  0.7192
   81SOPE  H11R 7387   5.267   1.360   5.413 -0.4172 -0.8011 -2.4077
   81SOPE  H11S 7388   5.105   1.296   5.455 -0.2995 -2.3407 -0.6463
   81SOPE  C212 7389   5.218   1.168   5.334  0.4097  0.3925 -0.6533
   81SOPE  H12R 7390   5.137   1.096   5.357  0.3963  0.6304  0.0596
   81SOPE  H12S 7391   5.318   1.121   5.337 -1.1705 -3.3406 -1.0272
   81SOPE  C213 7392   5.202   1.217   5.185 -0.6359  0.0139 -0.5180
   81SOPE  H13R 7393   5.276   1.299   5.183 -0.2239 -0.3620 -2.4901
   81SOPE  H13S 7394   5.098   1.252   5.171 -1.0617 -0.8673  0.2745
   81SOPE  C214 7395   5.234   1.115   5.079 -0.1551 -0.2843 -0.7073
   81SOPE  H14R 7396   5.186   1.019   5.108  1.1168 -1.0797 -1.1620
   81SOPE  H14S 7397   5.343   1.096   5.088  0.1971  2.2543  1.6241
   81SOPE  C215 7398   5.205   1.156   4.932  0.0956  0.5192  0.5647
   81SOPE  H15R 7399   5.293   1.214   4.898  0.6898 -0.2930  0.7044
   81SOPE  H15S 7400   5.111   1.216   4.923 -0.5268 -0.3335  1.1936
   81SOPE  C216 7401   5.202   1.032   4.834  0.3428 -0.2399  0.3218
   81SOPE  H16R 7402   5.112   0.972   4.856  0.8161  0.1895  4.1129
   81SOPE  H16S 7403   5.295   0.973   4.853  0.7251  0.7152  1.5571
   81SOPE  C217 7404   5.197   1.073   4.694 -0.5545 -0.5387  0.2404
   81SOPE  H17R 7405   5.292   1.128   4.677 -2.2835  2.0426 -1.9595
   81SOPE  H17S 7406   5.111   1.143   4.680  1.4705  2.2593  1.0437
   81SOPE  C218 7407   5.198   0.957   4.596 -0.4253  0.1276  0.5430
   81SOPE  H18R 7408   5.291   0.898   4.606  1.0451  2.0760 -0.8086
   81SOPE  H18S 7409   5.193   1.006   4.496 -0.9213  0.5088  0.7474
   81SOPE  H18T 7410   5.110   0.890   4.599 -1.4621  1.4250  3.6498
   81SOPE   C33 7411   4.603   0.832   5.890  0.4242  0.9205 -0.5136
   81SOPE   H3X 7412   4.679   0.841   5.970 -0.2508 -0.1513  0.2595
   81SOPE   H3Y 7413   4.539   0.922   5.880 -0.9940 -0.0714 -0.5192
   81SOPE   C34 7414   4.675   0.819   5.746 -0.2414 -0.2193 -0.2059
   81SOPE   H4X 7415   4.728   0.914   5.723  0.6124 -0.3207  1.1767
   81SOPE   H4Y 7416   4.598   0.802   5.668  2.2359 -1.1284 -2.6360
   81SOPE   C35 7417   4.768   0.698   5.724  0.2347  0.8190  0.1219
   81SOPE   H5X 7418   4.708   0.604   5.730  0.9364  0.3562 -0.0307
   81SOPE   H5Y 7419   4.846   0.700   5.803  1.8169 -0.5795 -1.3370
   81SOPE   C36 7420   4.836   0.706   5.591 -0.7842  0.3801  0.1856
   81SOPE   H6X 7421   4.913   0.626   5.584 -1.3776 -0.0357 -3.6273
   81SOPE   H6Y 7422   4.892   0.802   5.583  0.9989 -0.7100 -1.1070
   81SOPE   C37 7423   4.754   0.707   5.460 -0.0666 -0.2411  0.1746
   81SOPE   H7X 7424   4.692   0.799   5.458  0.9797  0.4644 -1.0765
   81SOPE   H7Y 7425   4.693   0.614   5.455  1.0586 -0.9604 -0.7059
   81SOPE   C38 7426   4.846   0.713   5.342  0.6580 -0.0233  0.6223
   81SOPE   H8X 7427   4.917   0.630   5.325  1.5738  0.5053  1.7123
   81SOPE   H8Y 7428   4.918   0.797   5.353  0.2290  0.4759 -0.3119
   81SOPE   C39 7429   4.765   0.720   5.212  0.5015  0.6434 -0.7411
   81SOPE   H9X 7430   4.712   0.818   5.212 -0.3776  0.2382  2.2447
   81SOPE   H9Y 7431   4.686   0.642   5.211  1.3424 -0.2562  0.6872
   81SOPE  C310 7432   4.858   0.708   5.083  0.5149 -0.5883 -0.9254
   81SOPE  H10X 7433   4.915   0.613   5.076  1.9475  0.1433  0.2900
   81SOPE  H10Y 7434   4.923   0.794   5.109 -0.4794  0.2496 -1.1365
   81SOPE  C311 7435   4.774   0.741   4.954  0.4571 -0.8280 -0.0283
   81SOPE  H11X 7436   4.708   0.830   4.964  1.3234 -0.1395 -0.3784
   81SOPE  H11Y 7437   4.705   0.654   4.956  0.2551 -0.6982  2.6786
   81SOPE  C312 7438   4.855   0.751   4.827 -0.2069 -0.1802  0.6225
   81SOPE  H12X 7439   4.917   0.663   4.801  0.8164  0.9000 -0.7710
   81SOPE  H12Y 7440   4.928   0.835   4.839 -1.7035  1.3315 -0.3495
   81SOPE  C313 7441   4.776   0.794   4.700 -0.2399 -0.3899 -0.4875
   81SOPE  H13X 7442   4.850   0.803   4.617  1.2268  2.3113  0.9677
   81SOPE  H13Y 7443   4.734   0.894   4.722  0.2694 -0.5437  1.3172
   81SOPE  C314 7444   4.664   0.698   4.662  0.0011  0.5576  0.9456
   81SOPE  H14X 7445   4.581   0.702   4.736 -0.1971 -0.5815  0.7999
   81SOPE  H14Y 7446   4.708   0.596   4.662  1.2274  1.0409 -1.0269
   81SOPE  C315 7447   4.620   0.721   4.514 -0.1217 -0.2009  0.1639
   81SOPE  H15X 7448   4.585   0.825   4.502 -0.1407  0.0860  2.3430
   81SOPE  H15Y 7449   4.532   0.655   4.496 -0.0270 -0.7632  1.6314
   81SOPE  C316 7450   4.741   0.679   4.422 -0.3594 -0.0111  0.0711
   81SOPE  H16X 7451   4.783   0.583   4.458 -1.5615 -1.0651 -1.1937
   81SOPE  H16Y 7452   4.810   0.765   4.428  0.5837 -0.6303 -1.2351
   81SOPE  C317 7453   4.703   0.656   4.271 -0.1261  0.7698 -0.3863
   81SOPE  H17X 7454   4.783   0.626   4.199 -1.0151 -3.4949  0.1728
   81SOPE  H17Y 7455   4.669   0.757   4.239 -0.5447  0.4172 -1.0750
   81SOPE  C318 7456   4.598   0.554   4.249  1.0735 -0.4206 -0.1904
   81SOPE  H18X 7457   4.575   0.541   4.141  1.4813 -1.2659 -0.1895
   81SOPE  H18Y 7458   4.507   0.568   4.312  0.6939 -0.9197 -0.6167
   81SOPE  H18Z 7459   4.629   0.453   4.285 -1.1070 -0.4524  1.8141
   82SOPE     N 7460   3.081   1.085   6.394  0.2695 -0.6123  0.0396
   82SOPE   HN1 7461   3.003   1.057   6.456  2.0371 -0.3429  2.5143
   82SOPE   HN2 7462   3.155   1.015   6.413  2.0924  1.7115  2.0821
   82SOPE   HN3 7463   3.120   1.177   6.424 -0.6275 -1.1402  3.1290
   82SOPE   C12 7464   3.034   1.111   6.251  0.7107 -0.3664  0.0770
   82SOPE  H12A 7465   3.017   1.017   6.193  0.8689  0.8405 -2.0212
   82SOPE  H12B 7466   3.114   1.166   6.196 -0.1337 -0.1334 -0.9625
   82SOPE   C11 7467   2.914   1.206   6.239 -0.4547 -0.0907  0.4755
   82SOPE  H11A 7468   2.822   1.158   6.278 -1.7603  1.6548 -0.3256
   82SOPE  H11B 7469   2.899   1.240   6.134  0.2715  0.0106  0.3984
   82SOPE     P 7470   2.832   1.431   6.330  0.1172  0.0381  0.2917
   82SOPE   O13 7471   2.889   1.538   6.417  0.2000  0.4392 -0.3047
   82SOPE   O14 7472   2.715   1.358   6.378 -0.2060 -0.5676 -0.3958
   82SOPE   O12 7473   2.941   1.324   6.313  0.1617 -0.0053 -0.3916
   82SOPE   O11 7474   2.809   1.490   6.181  0.3659 -0.2267 -0.7442
   82SOPE    C1 7475   2.671   1.525   6.140 -0.0746 -0.0194 -0.2738
   82SOPE    HA 7476   2.599   1.498   6.221 -0.4679  0.1049 -0.5803
   82SOPE    HB 7477   2.629   1.470   6.053  0.1956  1.6840 -1.5346
   82SOPE    C2 7478   2.670   1.671   6.114 -0.0838 -0.1571  0.1169
   82SOPE    HS 7479   2.695   1.710   6.215  1.8073  0.5042 -0.5507
   82SOPE   O21 7480   2.536   1.699   6.082 -0.3966 -0.3571  0.0711
   82SOPE   C21 7481   2.506   1.820   6.086  0.0567  0.3937  0.0536
   82SOPE   O22 7482   2.583   1.912   6.122  0.1168  0.1820  0.5042
   82SOPE   C22 7483   2.360   1.839   6.040 -0.0922  0.6407 -0.1252
   82SOPE   H2R 7484   2.306   1.870   6.132  0.2059  0.4341  0.1201
   82SOPE   H2S 7485   2.319   1.742   6.007  1.9186 -0.5409  0.6815
   82SOPE    C3 7486   2.775   1.716   6.006 -0.8193 -0.0240 -0.1274
   82SOPE    HX 7487   2.878   1.684   6.032 -0.6616  0.3539 -0.2784
   82SOPE    HY 7488   2.761   1.826   5.995  0.1088  0.1644  0.4173
   82SOPE   O31 7489   2.753   1.643   5.881  0.1942  0.0061 -0.1595
   82SOPE   C31 7490   2.704   1.710   5.779  0.1821  0.5289 -0.4296
   82SOPE   O32 7491   2.707   1.831   5.769 -0.3350  0.1744 -0.2355
   82SOPE   C32 7492   2.631   1.609   5.684 -0.1339 -0.4431  0.7266
   82SOPE   H2X 7493   2.557   1.543   5.734 -0.7367  0.0139  0.4535
   82SOPE   H2Y 7494   2.709   1.536   5.655  0.4106 -1.2759  3.9106
   82SOPE   C23 7495   2.347   1.954   5.940 -0.8521 -0.8338 -0.4851
   82SOPE   H3R 7496   2.418   2.033   5.974  0.2250 -1.2496 -1.6923
   82SOPE   H3S 7497   2.241   1.986   5.947 -0.4347  0.6536 -0.4543
   82SOPE   C24 7498   2.361   1.927   5.787  0.3132 -0.5367 -0.6523
   82SOPE   H4R 7499   2.470   1.916   5.768  0.2016  0.4174 -1.9755
   82SOPE   H4S 7500   2.300   1.840   5.755  1.6999 -1.0789 -1.9468
   82SOPE   C25 7501   2.326   2.047   5.695 -0.2597  0.6179  0.3111
   82SOPE   H5R 7502   2.215   2.057   5.702 -0.1104  3.7836 -0.2462
   82SOPE   H5S 7503   2.379   2.140   5.722 -3.1834  2.0908  1.4426
   82SOPE   C26 7504   2.346   2.011   5.542  0.3570  0.1100 -0.8598
   82SOPE   H6R 7505   2.453   2.021   5.515  0.1588  1.7055 -1.1689
   82SOPE   H6S 7506   2.321   1.906   5.515 -2.1833  0.4449 -0.0326
   82SOPE   C27 7507   2.264   2.108   5.459 -0.1451  0.7392  0.4967
   82SOPE   H7R 7508   2.164   2.120   5.505 -0.1254  0.2513  0.6728
   82SOPE   H7S 7509   2.320   2.203   5.467  1.1550 -0.0083  0.6909
   82SOPE   C28 7510   2.245   2.067   5.311 -0.2031 -0.3716 -0.2358
   82SOPE   H8R 7511   2.198   1.966   5.309  0.3774 -0.6321 -1.4101
   82SOPE   H8S 7512   2.176   2.134   5.256 -0.2601 -0.8389 -0.7424
   82SOPE   C29 7513   2.373   2.037   5.233 -0.5261 -0.1988  0.1991
   82SOPE   H91 7514   2.464   2.030   5.295  0.1719 -0.5604 -0.8555
   82SOPE  C210 7515   2.391   2.030   5.095  0.0154  0.5888 -0.1263
   82SOPE  H101 7516   2.489   2.005   5.052  0.7522 -0.6302  2.0741
   82SOPE  C211 7517   2.278   2.052   4.993 -0.1794  0.1497 -0.2520
   82SOPE  H11R 7518   2.193   2.109   5.038 -1.2235 -2.7679  1.7958
   82SOPE  H11S 7519   2.235   1.956   4.956  1.4682 -0.4506 -0.6762
   82SOPE  C212 7520   2.322   2.133   4.869  0.3703  0.3587  0.4852
   82SOPE  H12R 7521   2.325   2.241   4.894  1.3801  0.7194 -1.0448
   82SOPE  H12S 7522   2.235   2.120   4.801  1.0995 -1.6214 -0.1426
   82SOPE  C213 7523   2.445   2.076   4.796 -0.0795 -0.6887  0.5808
   82SOPE  H13R 7524   2.431   1.967   4.783 -0.1938 -0.7420  1.1464
   82SOPE  H13S 7525   2.539   2.106   4.847 -0.1384  0.3498  0.1077
   82SOPE  C214 7526   2.442   2.138   4.657 -0.4723 -0.0146 -0.7340
   82SOPE  H14R 7527   2.448   2.249   4.664 -1.3525 -0.0314  0.7517
   82SOPE  H14S 7528   2.347   2.109   4.607 -0.7655 -0.5390  0.0980
   82SOPE  C215 7529   2.551   2.090   4.552 -0.1904 -0.2284 -0.3941
   82SOPE  H15R 7530   2.538   1.981   4.533 -1.1734  0.1651 -2.2184
   82SOPE  H15S 7531   2.652   2.130   4.575 -0.5467  0.7758 -0.5121
   82SOPE  C216 7532   2.521   2.150   4.415 -0.4917  0.1211 -0.4034
   82SOPE  H16R 7533   2.526   2.261   4.411 -0.2611  0.0902 -1.0998
   82SOPE  H16S 7534   2.414   2.133   4.393 -1.4147  0.8251  3.0304
   82SOPE  C217 7535   2.589   2.096   4.289  0.4389  0.0231  0.2261
   82SOPE  H17R 7536   2.535   2.002   4.265  1.7463 -0.5419 -0.6494
   82SOPE  H17S 7537   2.696   2.077   4.313  0.7880  0.7369 -0.7018
   82SOPE  C218 7538   2.568   2.194   4.177 -0.5192 -0.9483  0.2454
   82SOPE  H18R 7539   2.619   2.287   4.208  0.4308 -1.9502  1.8294
   82SOPE  H18S 7540   2.467   2.222   4.140 -0.0935 -0.2307 -0.4098
   82SOPE  H18T 7541   2.614   2.173   4.078 -2.9613  1.1277 -1.4717
   82SOPE   C33 7542   2.560   1.684   5.573 -0.9526  0.0717 -0.5602
   82SOPE   H3X 7543   2.504   1.776   5.600  0.8355  0.7691  0.9727
   82SOPE   H3Y 7544   2.486   1.616   5.526 -1.0002  0.6723 -1.3848
   82SOPE   C34 7545   2.636   1.712   5.442  0.5091 -0.0279 -1.1163
   82SOPE   H4X 7546   2.562   1.739   5.364  0.1268 -1.4350 -1.2651
   82SOPE   H4Y 7547   2.687   1.617   5.416 -0.3587 -0.1234 -2.5575
   82SOPE   C35 7548   2.747   1.821   5.469 -0.0793 -0.7299  0.7836
   82SOPE   H5X 7549   2.805   1.777   5.553  3.0176  2.5986  0.6236
   82SOPE   H5Y 7550   2.690   1.909   5.506  0.3749  0.0436 -0.2995
   82SOPE   C36 7551   2.837   1.843   5.351 -0.4162 -0.1037 -0.1464
   82SOPE   H6X 7552   2.871   1.745   5.311  0.9093  0.1401  0.3211
   82SOPE   H6Y 7553   2.933   1.891   5.380 -0.6593  0.3696 -0.1074
   82SOPE   C37 7554   2.773   1.930   5.246  0.1727 -0.5082  0.8351
   82SOPE   H7X 7555   2.753   2.033   5.280  2.3475  0.3460 -0.2520
   82SOPE   H7Y 7556   2.672   1.888   5.227  0.1615 -0.1457  0.0625
   82SOPE   C38 7557   2.861   1.945   5.122  0.9259  0.4881 -0.4360
   82SOPE   H8X 7558   2.912   1.849   5.102  1.3145  0.4331  0.7504
   82SOPE   H8Y 7559   2.936   2.014   5.166  1.3942 -1.2417  1.6381
   82SOPE   C39 7560   2.784   1.986   4.999 -0.2434  0.0750  0.0231
   82SOPE   H9X 7561   2.688   2.032   5.032  0.0429  0.5945  0.1397
   82SOPE   H9Y 7562   2.757   1.901   4.933  0.7097  1.3026 -2.0464
   82SOPE  C310 7563   2.864   2.080   4.901  0.2741 -0.4624 -0.1698
   82SOPE  H10X 7564   2.885   2.172   4.959 -0.3530 -0.6665  0.4070
   82SOPE  H10Y 7565   2.806   2.113   4.812  0.4477 -0.2455 -0.2013
   82SOPE  C311 7566   2.998   2.015   4.859 -0.4182  0.2156  0.3197
   82SOPE  H11X 7567   2.974   1.928   4.796 -1.3934 -1.7527  3.1950
   82SOPE  H11Y 7568   3.054   1.974   4.946  3.4706 -0.4668 -2.2743
   82SOPE  C312 7569   3.084   2.119   4.793 -0.5325 -0.2817  0.3440
   82SOPE  H12X 7570   3.193   2.101   4.808 -0.0443  1.8054 -0.2390
   82SOPE  H12Y 7571   3.070   2.211   4.854 -0.7169 -0.7124  0.9565
   82SOPE  C313 7572   3.059   2.142   4.637  1.0296  0.6851 -0.1811
   82SOPE  H13X 7573   3.071   2.249   4.609 -1.1114  1.1345  0.4441
   82SOPE  H13Y 7574   2.950   2.134   4.617  1.0776  3.5534 -2.1837
   82SOPE  C314 7575   3.143   2.044   4.546  0.5582  0.1754  0.0550
   82SOPE  H14X 7576   3.237   2.017   4.599  0.3471  0.0117  0.3528
   82SOPE  H14Y 7577   3.181   2.094   4.454 -1.0178  0.1004 -0.6713
   82SOPE  C315 7578   3.072   1.919   4.494  0.2359 -0.1531  0.1702
   82SOPE  H15X 7579   2.977   1.940   4.442  0.0832 -1.5907 -0.1565
   82SOPE  H15Y 7580   3.036   1.858   4.579 -0.1978 -0.2381 -0.0759
   82SOPE  C316 7581   3.163   1.828   4.416 -0.6541 -0.0602 -0.6406
   82SOPE  H16X 7582   3.245   1.796   4.484 -2.8636  0.1403  2.3179
   82SOPE  H16Y 7583   3.205   1.891   4.334  3.6716 -0.5367  0.9651
   82SOPE  C317 7584   3.094   1.701   4.376  0.0553 -0.5111  0.7178
   82SOPE  H17X 7585   3.022   1.718   4.293 -0.2775 -2.4173  0.5876
   82SOPE  H17Y 7586   3.038   1.655   4.460 -3.3752 -3.0395 -2.6390
   82SOPE  C318 7587   3.203   1.601   4.333 -0.5317  0.2878  0.0253
   82SOPE  H18X 7588   3.152   1.518   4.280  0.8844 -0.1394 -0.7061
   82SOPE  H18Y 7589   3.258   1.550   4.415  2.3174  1.7767 -0.8282
   82SOPE  H18Z 7590   3.282   1.652   4.275  0.8238  1.0861  2.4468
   83SOPE     N 7591   1.571   0.235   2.045  0.1172  0.0275  0.8208
   83SOPE   HN1 7592   1.654   0.192   2.090 -0.0458  0.0702  1.1664
   83SOPE   HN2 7593   1.555   0.185   1.955  0.1253  2.5122 -0.6634
   83SOPE   HN3 7594   1.599   0.332   2.021  2.3507 -0.4434  1.3262
   83SOPE   C12 7595   1.455   0.232   2.134 -0.7603  0.4178 -0.1561
   83SOPE  H12A 7596   1.383   0.296   2.080  0.6994  0.7788 -1.7423
   83SOPE  H12B 7597   1.483   0.289   2.225 -0.2475  1.4916 -0.9691
   83SOPE   C11 7598   1.418   0.091   2.161 -0.3423  0.0606 -0.6926
   83SOPE  H11A 7599   1.332   0.087   2.232  2.2047 -3.8322  2.6943
   83SOPE  H11B 7600   1.503   0.049   2.220 -1.8250  1.1827  2.5207
   83SOPE     P 7601   1.402  -0.158   2.067  0.2069 -0.5778  0.2629
   83SOPE   O13 7602   1.544  -0.200   2.051 -0.6404  0.0347  0.0861
   83SOPE   O14 7603   1.309  -0.216   1.973  0.1129 -0.3400  0.7727
   83SOPE   O12 7604   1.395  -0.001   2.048  0.7513 -0.2014 -0.6332
   83SOPE   O11 7605   1.362  -0.188   2.215  0.1989 -0.2500 -0.5021
   83SOPE    C1 7606   1.228  -0.197   2.269 -0.0876  0.1546  0.6396
   83SOPE    HA 7607   1.168  -0.266   2.205 -0.3814 -1.0461  2.1625
   83SOPE    HB 7608   1.179  -0.098   2.281 -1.5940 -0.5057  0.2031
   83SOPE    C2 7609   1.217  -0.263   2.415  0.0399 -0.6358  0.0681
   83SOPE    HS 7610   1.115  -0.248   2.456  0.5172 -0.6384  1.2939
   83SOPE   O21 7611   1.316  -0.195   2.489  0.2183 -0.6100  0.3579
   83SOPE   C21 7612   1.292  -0.070   2.529 -1.0660 -0.1994 -0.6511
   83SOPE   O22 7613   1.181  -0.016   2.521 -0.1485 -0.0148  0.2590
   83SOPE   C22 7614   1.421  -0.009   2.584  0.2351  0.3453  0.0069
   83SOPE   H2R 7615   1.497   0.013   2.506  0.0645 -0.4614 -0.3965
   83SOPE   H2S 7616   1.466  -0.081   2.655  0.3826 -1.2220 -1.6155
   83SOPE    C3 7617   1.249  -0.414   2.397  0.2272  0.4591  0.7442
   83SOPE    HX 7618   1.348  -0.430   2.349  0.5004 -2.0981  1.9792
   83SOPE    HY 7619   1.187  -0.460   2.318  2.3727 -1.8112  0.2328
   83SOPE   O31 7620   1.254  -0.485   2.518  0.4840  0.2060 -0.6119
   83SOPE   C31 7621   1.149  -0.547   2.554  0.3683 -0.6764 -0.0545
   83SOPE   O32 7622   1.041  -0.544   2.492 -0.6346  0.1577 -0.1392
   83SOPE   C32 7623   1.165  -0.626   2.689  0.7860  0.2687 -0.1301
   83SOPE   H2X 7624   1.168  -0.552   2.771  2.0796 -0.2746  0.3472
   83SOPE   H2Y 7625   1.263  -0.677   2.671  2.0322  2.9410 -1.4782
   83SOPE   C23 7626   1.394   0.115   2.671 -0.6896 -0.1528  0.0094
   83SOPE   H3R 7627   1.302   0.125   2.733  1.5444 -3.0367  4.2468
   83SOPE   H3S 7628   1.378   0.203   2.605  0.4577 -0.1203 -0.2539
   83SOPE   C24 7629   1.514   0.152   2.763 -0.4599 -0.5588  0.6914
   83SOPE   H4R 7630   1.611   0.157   2.709 -1.3871  0.0833 -1.0034
   83SOPE   H4S 7631   1.504   0.260   2.788  0.0517 -0.8403  2.1841
   83SOPE   C25 7632   1.531   0.079   2.896  0.7463 -0.0647 -0.0574
   83SOPE   H5R 7633   1.548  -0.024   2.860 -0.5183  0.0247 -0.9936
   83SOPE   H5S 7634   1.610   0.104   2.970 -1.6888 -0.6001  2.9763
   83SOPE   C26 7635   1.399   0.090   2.983 -0.2087 -0.4689 -0.7004
   83SOPE   H6R 7636   1.392   0.192   3.027  1.4301  0.2598 -2.0108
   83SOPE   H6S 7637   1.308   0.069   2.923 -0.1682 -0.4974 -0.7520
   83SOPE   C27 7638   1.386  -0.020   3.096  0.6958 -0.4562 -0.2399
   83SOPE   H7R 7639   1.289  -0.001   3.147  1.4024  2.8344  0.1120
   83SOPE   H7S 7640   1.379  -0.118   3.045 -1.3219 -1.6851  2.1943
   83SOPE   C28 7641   1.500  -0.032   3.196 -0.4579 -1.1681 -0.3832
   83SOPE   H8R 7642   1.488  -0.129   3.248 -1.8969 -1.0922 -0.5458
   83SOPE   H8S 7643   1.596  -0.041   3.140  0.3469  2.0112  0.3005
   83SOPE   C29 7644   1.495   0.070   3.308 -0.0631 -0.4978  0.0316
   83SOPE   H91 7645   1.410   0.052   3.375 -1.5086  1.2291 -1.2482
   83SOPE  C210 7646   1.577   0.173   3.326  0.3275  0.7770 -0.2734
   83SOPE  H101 7647   1.554   0.248   3.404 -1.0670  1.6232 -1.4392
   83SOPE  C211 7648   1.703   0.208   3.245  0.7520 -0.3532  0.0306
   83SOPE  H11R 7649   1.722   0.138   3.161 -0.1962  0.9637 -1.3510
   83SOPE  H11S 7650   1.797   0.215   3.304  0.6121  0.3485  0.1812
   83SOPE  C212 7651   1.671   0.345   3.167  0.4849  0.2445  0.5116
   83SOPE  H12R 7652   1.566   0.353   3.131  0.5042 -1.4814 -0.0326
   83SOPE  H12S 7653   1.740   0.336   3.081 -0.0833  1.9490 -0.1645
   83SOPE  C213 7654   1.697   0.479   3.236  0.0859  0.5374  0.0389
   83SOPE  H13R 7655   1.780   0.464   3.308  0.5966  0.1123 -0.6232
   83SOPE  H13S 7656   1.614   0.506   3.306 -0.9001  1.7561 -1.5226
   83SOPE  C214 7657   1.719   0.589   3.127  0.7841  0.6119 -0.0445
   83SOPE  H14R 7658   1.618   0.606   3.083 -1.2151  0.8351  4.1228
   83SOPE  H14S 7659   1.792   0.567   3.046  0.4049 -1.4102  0.1309
   83SOPE  C215 7660   1.757   0.729   3.188  0.4562 -0.3508 -0.0283
   83SOPE  H15R 7661   1.676   0.766   3.254  1.3767  1.0873  0.3194
   83SOPE  H15S 7662   1.766   0.799   3.102  1.5489 -0.6117 -0.1360
   83SOPE  C216 7663   1.880   0.720   3.269 -0.3986 -0.0932  0.5367
   83SOPE  H16R 7664   1.957   0.657   3.219 -0.7206 -1.0703  1.2586
   83SOPE  H16S 7665   1.840   0.666   3.357 -2.9848 -1.2043 -1.2140
   83SOPE  C217 7666   1.936   0.849   3.324 -1.1858 -0.0289 -0.7252
   83SOPE  H17R 7667   1.974   0.903   3.234  0.3324 -0.8758 -0.6267
   83SOPE  H17S 7668   2.026   0.835   3.388 -1.6287 -0.3965 -0.1794
   83SOPE  C218 7669   1.851   0.939   3.406  1.0591 -0.4907  0.1247
   83SOPE  H18R 7670   1.824   0.905   3.508 -3.4153  1.1154 -0.2983
   83SOPE  H18S 7671   1.753   0.949   3.353  0.7599 -0.1851  0.7336
   83SOPE  H18T 7672   1.893   1.041   3.401  0.3162 -0.2226 -2.1992
   83SOPE   C33 7673   1.054  -0.738   2.718 -0.4402 -0.3460 -0.7595
   83SOPE   H3X 7674   1.052  -0.810   2.634 -0.6023 -3.0104  1.3782
   83SOPE   H3Y 7675   0.953  -0.691   2.728  0.1056  0.7090  0.0364
   83SOPE   C34 7676   1.085  -0.821   2.842  0.5144  0.7532  0.2096
   83SOPE   H4X 7677   0.997  -0.867   2.891  0.6458 -1.1302 -1.2300
   83SOPE   H4Y 7678   1.118  -0.750   2.921 -0.4099 -0.9756  2.2725
   83SOPE   C35 7679   1.181  -0.938   2.817  0.7952 -0.2454  0.0261
   83SOPE   H5X 7680   1.285  -0.906   2.794  0.8343 -1.1777 -1.2210
   83SOPE   H5Y 7681   1.154  -0.988   2.721  1.8328 -1.3534  0.2850
   83SOPE   C36 7682   1.175  -1.043   2.918 -0.2751  0.2112 -0.7173
   83SOPE   H6X 7683   1.252  -1.120   2.894 -1.2783 -1.7124  1.7416
   83SOPE   H6Y 7684   1.076  -1.093   2.912  1.1367 -2.9031 -0.3467
   83SOPE   C37 7685   1.190  -0.996   3.065  0.8461 -0.0728 -0.3061
   83SOPE   H7X 7686   1.103  -0.931   3.089  0.2573 -0.4859 -1.2538
   83SOPE   H7Y 7687   1.292  -0.957   3.085  0.3213  1.3625 -0.2834
   83SOPE   C38 7688   1.165  -1.110   3.172 -0.5057  0.0103 -0.3092
   83SOPE   H8X 7689   1.253  -1.173   3.145  0.6392  1.1760  0.5808
   83SOPE   H8Y 7690   1.075  -1.169   3.146 -1.7178  0.9917  1.4528
   83SOPE   C39 7691   1.189  -1.071   3.321 -0.1195 -0.1248 -0.2570
   83SOPE   H9X 7692   1.110  -1.000   3.354  0.1729  0.9976 -1.8722
   83SOPE   H9Y 7693   1.285  -1.016   3.332  1.0377 -1.8192 -1.3270
   83SOPE  C310 7694   1.205  -1.198   3.397  0.0514  0.0424 -0.7380
   83SOPE  H10X 7695   1.288  -1.264   3.366 -0.6333 -1.8207  1.1639
   83SOPE  H10Y 7696   1.110  -1.256   3.396 -1.8852  2.9127  0.2131
   83SOPE  C311 7697   1.224  -1.164   3.547  0.1369 -0.4158  0.1171
   83SOPE  H11X 7698   1.126  -1.131   3.588 -0.7996 -1.9787 -0.7211
   83SOPE  H11Y 7699   1.302  -1.088   3.564 -0.8187  0.3255  1.3608
   83SOPE  C312 7700   1.270  -1.285   3.626  0.0134  0.9436 -0.4149
   83SOPE  H12X 7701   1.297  -1.275   3.733 -0.0514 -1.5591 -0.0960
   83SOPE  H12Y 7702   1.357  -1.332   3.574 -0.1827 -0.8052  0.7456
   83SOPE  C313 7703   1.168  -1.401   3.616 -0.3588  1.6109  0.8150
   83SOPE  H13X 7704   1.166  -1.436   3.510  0.7679 -0.3060  1.3874
   83SOPE  H13Y 7705   1.070  -1.355   3.637 -1.6784 -0.8034  0.3194
   83SOPE  C314 7706   1.205  -1.526   3.685  0.1637 -0.4858 -0.2119
   83SOPE  H14X 7707   1.212  -1.520   3.796 -0.2741  0.6386 -0.2285
   83SOPE  H14Y 7708   1.305  -1.547   3.642  0.9089 -1.2199  1.7809
   83SOPE  C315 7709   1.096  -1.631   3.660  0.3680 -0.1251  0.3511
   83SOPE  H15X 7710   1.139  -1.733   3.665  0.0010 -0.2730  0.5864
   83SOPE  H15Y 7711   1.049  -1.615   3.561 -0.5486  1.7901  1.0375
   83SOPE  C316 7712   0.979  -1.623   3.767 -0.3412 -0.1385  0.2266
   83SOPE  H16X 7713   0.936  -1.521   3.767  0.3636  0.2431  3.2755
   83SOPE  H16Y 7714   1.013  -1.629   3.873  1.1259 -1.3459 -0.2639
   83SOPE  C317 7715   0.885  -1.740   3.757  0.2326  0.4820 -0.4368
   83SOPE  H17X 7716   0.945  -1.831   3.776 -1.3920 -1.1823 -2.7003
   83SOPE  H17Y 7717   0.861  -1.746   3.648 -0.6555  0.4582 -0.2455
   83SOPE  C318 7718   0.768  -1.723   3.857 -0.1287  0.5182  0.0665
   83SOPE  H18X 7719   0.807  -1.695   3.957  0.5685 -0.5146  0.1045
   83SOPE  H18Y 7720   0.708  -1.816   3.868  1.8743 -0.5911  3.8822
   83SOPE  H18Z 7721   0.700  -1.639   3.835 -3.2324 -1.9637 -0.5766
   84SOPE     N 7722   2.798   4.853   1.841  0.6707  0.1791 -0.0194
   84SOPE   HN1 7723   2.856   4.847   1.755 -0.0395 -1.2055 -0.4386
   84SOPE   HN2 7724   2.785   4.753   1.869 -0.6750  0.3198 -0.1084
   84SOPE   HN3 7725   2.709   4.901   1.820 -1.1730 -2.0413  2.0929
   84SOPE   C12 7726   2.876   4.929   1.941 -0.4570  0.2843  0.4574
   84SOPE  H12A 7727   2.953   4.990   1.889 -0.6248  0.3343  0.2673
   84SOPE  H12B 7728   2.939   4.862   2.004  0.5510  0.5407 -0.2442
   84SOPE   C11 7729   2.798   5.018   2.032  0.2268  0.5119  0.3501
   84SOPE  H11A 7730   2.860   5.062   2.112 -0.4519 -2.2639  2.5505
   84SOPE  H11B 7731   2.730   4.959   2.098  0.1011  1.1182  0.7686
   84SOPE     P 7732   2.580   5.168   2.002  0.0304  0.4113  0.1211
   84SOPE   O13 7733   2.487   5.082   1.933  0.8895  0.1488 -0.0811
   84SOPE   O14 7734   2.576   5.310   1.953  0.3115  0.2397  0.1239
   84SOPE   O12 7735   2.726   5.118   1.958  0.4079 -0.1623 -0.1913
   84SOPE   O11 7736   2.577   5.156   2.161 -0.3746 -0.1687 -0.1179
   84SOPE    C1 7737   2.550   5.267   2.248  0.6577  0.0494  0.1869
   84SOPE    HA 7738   2.501   5.228   2.340  0.1782  0.3478  0.0600
   84SOPE    HB 7739   2.477   5.336   2.200 -0.3839 -1.7430 -0.9272
   84SOPE    C2 7740   2.674   5.337   2.301 -0.4116 -0.4092  0.1874
   84SOPE    HS 7741   2.742   5.376   2.222 -0.7296 -1.1823 -0.4846
   84SOPE   O21 7742   2.746   5.243   2.383  0.2357  0.0916  0.5324
   84SOPE   C21 7743   2.885   5.284   2.393 -0.1446  0.7922  0.2055
   84SOPE   O22 7744   2.925   5.390   2.346 -0.0688  0.1986 -0.3409
   84SOPE   C22 7745   2.969   5.179   2.464 -0.8588  0.1810 -0.0007
   84SOPE   H2R 7746   3.071   5.224   2.467 -0.6897 -0.1686 -0.4534
   84SOPE   H2S 7747   2.969   5.086   2.404 -1.6862  2.0727 -3.1216
   84SOPE    C3 7748   2.620   5.464   2.386  0.0897  0.0224 -0.5008
   84SOPE    HX 7749   2.541   5.504   2.320 -0.8906 -0.6650  0.2222
   84SOPE    HY 7750   2.693   5.548   2.387 -1.6051  1.7823  4.0562
   84SOPE   O31 7751   2.567   5.434   2.518  0.0602 -0.0668  0.7854
   84SOPE   C31 7752   2.654   5.426   2.614 -0.1467 -0.0891  0.2316
   84SOPE   O32 7753   2.769   5.467   2.605 -0.7123  0.3678 -0.3874
   84SOPE   C32 7754   2.584   5.390   2.742 -0.1422 -0.8785 -0.2241
   84SOPE   H2X 7755   2.483   5.361   2.708 -1.4620  3.3678 -0.5119
   84SOPE   H2Y 7756   2.569   5.481   2.805  1.4641 -0.2263 -0.7184
   84SOPE   C23 7757   2.925   5.166   2.618 -0.1585 -0.2889 -0.1099
   84SOPE   H3R 7758   2.818   5.137   2.625 -0.1238 -0.8082 -1.3885
   84SOPE   H3S 7759   2.927   5.263   2.672  1.2067 -1.2612  1.6462
   84SOPE   C24 7760   3.001   5.061   2.691  0.1495 -0.0530  0.0126
   84SOPE   H4R 7761   2.994   4.968   2.631 -1.2762 -1.1455  1.7683
   84SOPE   H4S 7762   3.110   5.081   2.696  0.2431  0.1558 -2.0148
   84SOPE   C25 7763   2.945   5.044   2.830  0.3034 -0.8051  0.6342
   84SOPE   H5R 7764   2.955   5.141   2.883 -0.1280  0.3068 -1.2186
   84SOPE   H5S 7765   2.836   5.027   2.826  0.4332 -1.4854 -1.8640
   84SOPE   C26 7766   3.016   4.933   2.909 -0.5805  0.4427  0.7179
   84SOPE   H6R 7767   3.034   4.857   2.830 -0.4642  1.3206 -0.1350
   84SOPE   H6S 7768   3.115   4.965   2.947 -1.4490  1.8277  1.9383
   84SOPE   C27 7769   2.937   4.886   3.033 -0.0115 -0.4223 -0.0903
   84SOPE   H7R 7770   2.951   4.963   3.112  0.4548  0.2725 -0.8368
   84SOPE   H7S 7771   2.831   4.881   3.000 -0.2292  0.2477  0.4905
   84SOPE   C28 7772   2.969   4.746   3.091 -0.0677 -0.4845 -0.4604
   84SOPE   H8R 7773   2.887   4.736   3.164  1.3674  2.8497  1.8471
   84SOPE   H8S 7774   2.964   4.663   3.016  1.1939 -1.2120  0.2256
   84SOPE   C29 7775   3.099   4.751   3.160  0.3959  1.1460 -0.0335
   84SOPE   H91 7776   3.183   4.786   3.098  1.0275  0.0516  0.1779
   84SOPE  C210 7777   3.120   4.723   3.286 -0.3732  0.8194  0.1953
   84SOPE  H101 7778   3.225   4.707   3.316  0.4023  2.1343 -1.6069
   84SOPE  C211 7779   3.023   4.678   3.392 -0.3665 -0.0505  1.0086
   84SOPE  H11R 7780   3.078   4.623   3.471  1.1197  0.8552  0.6274
   84SOPE  H11S 7781   2.947   4.607   3.352  1.7122 -1.0009 -1.5955
   84SOPE  C212 7782   2.946   4.793   3.458 -0.2899 -0.9415  0.1085
   84SOPE  H12R 7783   2.860   4.743   3.507 -0.9322 -1.4507 -1.4778
   84SOPE  H12S 7784   2.905   4.862   3.381  0.9590 -0.8865 -0.5432
   84SOPE  C213 7785   3.023   4.865   3.572 -0.3555 -0.6393 -0.2286
   84SOPE  H13R 7786   3.111   4.916   3.527 -0.1001 -0.7632  0.1220
   84SOPE  H13S 7787   3.055   4.796   3.653  2.7411 -0.9557 -1.5852
   84SOPE  C214 7788   2.934   4.976   3.627  0.5739  0.0676  0.0078
   84SOPE  H14R 7789   2.901   5.049   3.550 -0.6875 -1.7285 -1.2459
   84SOPE  H14S 7790   3.001   5.041   3.687  0.3826  0.9783 -0.7435
   84SOPE  C215 7791   2.819   4.927   3.711  0.1690  0.5626  0.4006
   84SOPE  H15R 7792   2.841   4.841   3.778  0.5637  1.0371  0.8911
   84SOPE  H15S 7793   2.729   4.916   3.647  1.4047  2.6228 -1.8517
   84SOPE  C216 7794   2.787   5.026   3.825 -0.6021  0.2313  0.2182
   84SOPE  H16R 7795   2.732   5.116   3.790  0.2007  1.2854  1.5565
   84SOPE  H16S 7796   2.883   5.066   3.864 -1.3431  3.7134 -1.1553
   84SOPE  C217 7797   2.707   4.968   3.946 -0.4147  0.3010  0.9812
   84SOPE  H17R 7798   2.776   4.885   3.970  0.5919  1.0127  0.5978
   84SOPE  H17S 7799   2.614   4.929   3.900 -1.0879  2.4886  0.3496
   84SOPE  C218 7800   2.668   5.066   4.058  0.5826  0.6486  0.4422
   84SOPE  H18R 7801   2.754   5.128   4.089  0.2449  0.8382  1.0131
   84SOPE  H18S 7802   2.629   5.015   4.148 -1.4755 -0.0554 -0.7710
   84SOPE  H18T 7803   2.581   5.132   4.035 -0.9811 -0.0394  3.8027
   84SOPE   C33 7804   2.654   5.277   2.822 -0.9983 -0.2142 -0.7606
   84SOPE   H3X 7805   2.753   5.317   2.853 -2.0726  1.6245  0.5224
   84SOPE   H3Y 7806   2.666   5.190   2.754  0.9338  0.3848 -1.2297
   84SOPE   C34 7807   2.578   5.249   2.954 -0.0801 -0.0387 -0.6234
   84SOPE   H4X 7808   2.475   5.215   2.928  0.2903 -2.0837  0.3476
   84SOPE   H4Y 7809   2.577   5.346   3.009 -1.4315 -1.4679  2.0864
   84SOPE   C35 7810   2.648   5.152   3.044 -0.3785  0.3410 -0.5939
   84SOPE   H5X 7811   2.754   5.184   3.054 -0.7634  1.3724  0.4836
   84SOPE   H5Y 7812   2.646   5.049   3.003 -0.3847 -0.9010  2.2659
   84SOPE   C36 7813   2.594   5.146   3.183  0.2140  0.3242 -0.0199
   84SOPE   H6X 7814   2.488   5.115   3.178  0.6996 -2.0565  2.0665
   84SOPE   H6Y 7815   2.596   5.250   3.222 -0.4436 -0.2280  1.5744
   84SOPE   C37 7816   2.675   5.050   3.271 -0.6022 -0.6655 -0.1738
   84SOPE   H7X 7817   2.781   5.080   3.269 -1.1455  1.7100 -4.2789
   84SOPE   H7Y 7818   2.674   4.946   3.232  0.5758 -0.9389  0.4862
   84SOPE   C38 7819   2.627   5.062   3.416  0.1421  0.0450  0.4126
   84SOPE   H8X 7820   2.650   5.163   3.456  0.1898 -0.3712  1.4550
   84SOPE   H8Y 7821   2.690   5.006   3.488 -0.7785  0.7213  1.7951
   84SOPE   C39 7822   2.476   5.033   3.439  0.6142  0.6597 -0.1421
   84SOPE   H9X 7823   2.447   4.941   3.384 -0.1255  0.8828 -0.1441
   84SOPE   H9Y 7824   2.419   5.122   3.406  0.2251  0.7956  0.8382
   84SOPE  C310 7825   2.439   5.008   3.578 -0.0323 -0.4602 -0.3628
   84SOPE  H10X 7826   2.461   5.099   3.637  0.0942 -0.7474  0.0374
   84SOPE  H10Y 7827   2.494   4.920   3.619 -1.6863 -0.5746  1.8039
   84SOPE  C311 7828   2.286   4.986   3.600  0.3739  0.4589 -0.0971
   84SOPE  H11X 7829   2.270   4.907   3.523  0.3155 -0.3821  0.7487
   84SOPE  H11Y 7830   2.236   5.083   3.579 -0.1969  0.0324 -0.7802
   84SOPE  C312 7831   2.251   4.919   3.735  0.2246 -0.0052 -0.4114
   84SOPE  H12X 7832   2.310   4.826   3.721 -0.0368  0.0612 -2.0760
   84SOPE  H12Y 7833   2.144   4.892   3.736 -0.1355  1.2027  1.7775
   84SOPE  C313 7834   2.282   4.990   3.871  0.8259  0.9275  0.6424
   84SOPE  H13X 7835   2.207   5.071   3.885  0.7812  0.8005  1.1869
   84SOPE  H13Y 7836   2.381   5.038   3.879  0.8030  0.8230  1.7525
   84SOPE  C314 7837   2.279   4.882   3.984 -0.0466 -0.8881  0.6360
   84SOPE  H14X 7838   2.358   4.806   3.967  0.0520 -1.6034  3.7488
   84SOPE  H14Y 7839   2.180   4.834   3.971  0.2982 -1.3445 -0.3966
   84SOPE  C315 7840   2.284   4.943   4.121 -0.1336  0.6854 -0.0796
   84SOPE  H15X 7841   2.198   5.013   4.121  0.0462  0.9834  1.9330
   84SOPE  H15Y 7842   2.377   5.001   4.138  1.8744 -2.0080 -1.2412
   84SOPE  C316 7843   2.278   4.841   4.233  0.4491 -0.3799  0.1493
   84SOPE  H16X 7844   2.342   4.752   4.217 -0.5552 -1.3546  1.3843
   84SOPE  H16Y 7845   2.174   4.801   4.232 -0.8503  2.6964 -1.0124
   84SOPE  C317 7846   2.324   4.891   4.375 -0.2692 -1.0045  0.3587
   84SOPE  H17X 7847   2.275   4.986   4.406  0.8922 -0.0929 -0.5126
   84SOPE  H17Y 7848   2.430   4.914   4.353 -0.4880  0.0575  0.3356
   84SOPE  C318 7849   2.310   4.791   4.493  0.3053 -0.5612 -0.7668
   84SOPE  H18X 7850   2.212   4.803   4.543  0.3761 -0.3145 -0.6850
   84SOPE  H18Y 7851   2.395   4.796   4.564  1.4006 -0.5715 -2.0391
   84SOPE  H18Z 7852   2.314   4.686   4.456  0.8471 -0.5144 -0.8504
   85SOPE     N 7853   6.228   4.843   2.404  0.3996 -0.5025 -0.1417
   85SOPE   HN1 7854   6.293   4.762   2.405 -2.2427 -2.7518 -0.4050
   85SOPE   HN2 7855   6.237   4.878   2.306 -0.0299  1.3347  0.4314
   85SOPE   HN3 7856   6.262   4.919   2.466  1.6676  0.0691 -1.4750
   85SOPE   C12 7857   6.104   4.790   2.444 -0.1283 -0.2321 -0.0733
   85SOPE  H12A 7858   6.119   4.775   2.553  0.8145  1.5279  0.0797
   85SOPE  H12B 7859   6.101   4.690   2.396  2.0917  0.7986 -2.5731
   85SOPE   C11 7860   5.984   4.866   2.386  0.5326  0.5243 -0.2609
   85SOPE  H11A 7861   5.896   4.824   2.439  1.2545 -0.9848 -0.2090
   85SOPE  H11B 7862   5.983   4.832   2.281 -0.1121 -0.9775  0.2099
   85SOPE     P 7863   5.932   5.102   2.293 -0.2363 -0.1014 -0.4820
   85SOPE   O13 7864   5.786   5.119   2.290  0.0838 -0.1536  0.2345
   85SOPE   O14 7865   5.993   5.073   2.162 -0.0945  0.0539  0.1973
   85SOPE   O12 7866   5.985   5.006   2.408 -0.3672 -0.3944  0.6659
   85SOPE   O11 7867   5.995   5.239   2.343  0.1477 -0.5434 -1.1494
   85SOPE    C1 7868   5.925   5.308   2.458  0.2627 -0.4455  0.2199
   85SOPE    HA 7869   5.815   5.313   2.441  0.4773  1.1101 -0.9315
   85SOPE    HB 7870   5.953   5.415   2.460 -0.3217 -0.2991  1.5914
   85SOPE    C2 7871   5.967   5.243   2.590 -0.1390 -0.5409 -0.2702
   85SOPE    HS 7872   6.067   5.194   2.582 -0.1508 -1.1597  2.4536
   85SOPE   O21 7873   5.861   5.158   2.627  0.5032  1.0074  0.0341
   85SOPE   C21 7874   5.889   5.047   2.691 -0.4944  0.3620 -0.1289
   85SOPE   O22 7875   6.001   5.015   2.725  0.3770  0.5976 -0.5407
   85SOPE   C22 7876   5.758   4.971   2.726 -0.5973 -0.2211  0.1499
   85SOPE   H2R 7877   5.680   4.999   2.653 -0.9705 -0.4590  0.4546
   85SOPE   H2S 7878   5.725   5.008   2.825 -0.5042 -1.7800  0.8049
   85SOPE    C3 7879   5.988   5.348   2.700  0.3287  0.1755 -0.4232
   85SOPE    HX 7880   5.897   5.410   2.692  0.8918  0.9247 -1.1968
   85SOPE    HY 7881   6.076   5.413   2.680  1.3891 -0.4672  1.8135
   85SOPE   O31 7882   6.006   5.288   2.829  0.1331 -0.1661  0.1100
   85SOPE   C31 7883   5.905   5.283   2.911 -0.6494  0.8492  0.8658
   85SOPE   O32 7884   5.793   5.327   2.883 -0.0783  0.1115  0.1220
   85SOPE   C32 7885   5.942   5.225   3.051 -0.6591 -0.1180 -0.3909
   85SOPE   H2X 7886   6.040   5.267   3.082  0.8880  0.4250 -5.1284
   85SOPE   H2Y 7887   5.950   5.116   3.030  1.0073 -0.2198  0.6483
   85SOPE   C23 7888   5.782   4.814   2.727 -0.3193  0.3630 -0.4756
   85SOPE   H3R 7889   5.885   4.790   2.694 -0.6451  0.5125 -1.6479
   85SOPE   H3S 7890   5.703   4.780   2.657  1.0277 -0.5822 -1.5976
   85SOPE   C24 7891   5.775   4.751   2.868 -0.2897  0.4492 -0.2076
   85SOPE   H4R 7892   5.815   4.648   2.861 -0.4503  0.3004  0.9510
   85SOPE   H4S 7893   5.841   4.810   2.935 -2.1657  1.0227  1.2198
   85SOPE   C25 7894   5.636   4.732   2.919 -0.7350  0.1387 -0.4819
   85SOPE   H5R 7895   5.592   4.830   2.949 -1.3186  0.1802 -1.4148
   85SOPE   H5S 7896   5.577   4.679   2.841 -1.7096  1.5422 -0.7456
   85SOPE   C26 7897   5.628   4.645   3.047 -0.1066  0.4200 -0.6377
   85SOPE   H6R 7898   5.695   4.560   3.020 -0.1768  1.0069 -2.8714
   85SOPE   H6S 7899   5.667   4.697   3.136 -0.5552  0.4250 -0.4426
   85SOPE   C27 7900   5.486   4.588   3.071 -0.0433 -0.4211 -0.0090
   85SOPE   H7R 7901   5.437   4.671   3.125  3.7460  2.4333 -0.5695
   85SOPE   H7S 7902   5.435   4.568   2.974 -0.5423  0.2885  0.1030
   85SOPE   C28 7903   5.467   4.461   3.151 -0.1138 -0.2346  0.8775
   85SOPE   H8R 7904   5.496   4.480   3.257 -1.4827  0.6702  1.1170
   85SOPE   H8S 7905   5.358   4.438   3.155 -0.5002  1.5572  1.9392
   85SOPE   C29 7906   5.536   4.341   3.095  0.3900 -0.0453 -0.4244
   85SOPE   H91 7907   5.499   4.304   2.999 -0.8463  0.2613 -0.0797
   85SOPE  C210 7908   5.642   4.273   3.153  0.8519  0.4022  0.6252
   85SOPE  H101 7909   5.672   4.176   3.110  1.6756  1.8748 -2.3366
   85SOPE  C211 7910   5.715   4.319   3.280 -0.2713  0.3048 -0.1632
   85SOPE  H11R 7911   5.690   4.426   3.298 -2.1940 -0.3271  1.3039
   85SOPE  H11S 7912   5.825   4.319   3.266  0.0207  0.1044  1.8986
   85SOPE  C212 7913   5.675   4.222   3.394 -0.3476 -0.0437  0.5220
   85SOPE  H12R 7914   5.691   4.117   3.360 -1.2496  0.3586 -1.2351
   85SOPE  H12S 7915   5.568   4.248   3.409 -0.7865 -0.1089 -2.0952
   85SOPE  C213 7916   5.757   4.246   3.513 -0.0987  0.3608  0.6555
   85SOPE  H13R 7917   5.768   4.356   3.527 -0.5849  0.6349 -0.9567
   85SOPE  H13S 7918   5.854   4.199   3.488 -0.4746  1.7533 -4.5299
   85SOPE  C214 7919   5.694   4.193   3.641  0.2421  0.3266  0.1250
   85SOPE  H14R 7920   5.653   4.094   3.612  3.3220 -0.6474 -1.3647
   85SOPE  H14S 7921   5.610   4.262   3.666  2.0828  3.5462 -1.9138
   85SOPE  C215 7922   5.805   4.187   3.747 -0.7771 -0.5295  0.0724
   85SOPE  H15R 7923   5.853   4.287   3.739 -4.4758  1.5723  1.6545
   85SOPE  H15S 7924   5.871   4.100   3.725 -0.0190  0.2081 -0.6646
   85SOPE  C216 7925   5.757   4.162   3.885 -0.0022  0.7326  0.1197
   85SOPE  H16R 7926   5.741   4.052   3.891 -0.7738  0.8375  0.0259
   85SOPE  H16S 7927   5.655   4.205   3.886 -0.5519 -0.3399 -2.4908
   85SOPE  C217 7928   5.833   4.207   4.011 -0.2840 -0.4153 -0.0601
   85SOPE  H17R 7929   5.827   4.317   4.013  0.5077 -0.3622 -0.3394
   85SOPE  H17S 7930   5.938   4.171   4.006  0.3703  1.2834  0.6326
   85SOPE  C218 7931   5.766   4.147   4.144  0.1551 -0.5025  0.5647
   85SOPE  H18R 7932   5.841   4.168   4.224  1.7152  1.0747 -1.2034
   85SOPE  H18S 7933   5.755   4.036   4.141  0.6645 -0.5393 -0.2095
   85SOPE  H18T 7934   5.672   4.202   4.160  1.6898  1.3167  4.7476
   85SOPE   C33 7935   5.840   5.250   3.170 -0.4948 -0.4592 -0.1107
   85SOPE   H3X 7936   5.738   5.240   3.126 -0.5637 -3.3069  0.4701
   85SOPE   H3Y 7937   5.845   5.356   3.202 -0.6973 -1.0920  2.2462
   85SOPE   C34 7938   5.851   5.151   3.288  0.2673 -0.3666 -0.1998
   85SOPE   H4X 7939   5.864   5.051   3.240 -0.6161 -1.0074  0.8694
   85SOPE   H4Y 7940   5.751   5.155   3.336  0.4394  0.2204  0.1135
   85SOPE   C35 7941   5.962   5.178   3.386  0.1444  0.3764  0.0649
   85SOPE   H5X 7942   5.966   5.287   3.408 -3.0718  0.0193  3.4712
   85SOPE   H5Y 7943   6.060   5.148   3.344 -0.1374  0.1666 -0.4572
   85SOPE   C36 7944   5.942   5.100   3.515 -0.2175 -0.3127  0.2645
   85SOPE   H6X 7945   5.937   4.990   3.499 -1.4586  0.0004 -1.8493
   85SOPE   H6Y 7946   5.852   5.137   3.570  0.2861  0.3754  0.6415
   85SOPE   C37 7947   6.056   5.138   3.605  0.0925  0.4574  0.1581
   85SOPE   H7X 7948   6.053   5.245   3.634  0.2808  0.2804  0.8458
   85SOPE   H7Y 7949   6.145   5.131   3.539  0.2742 -0.9756  0.5187
   85SOPE   C38 7950   6.060   5.048   3.730 -0.0949  0.2920 -0.5124
   85SOPE   H8X 7951   6.056   4.942   3.698  0.2914  0.1955 -0.2511
   85SOPE   H8Y 7952   5.974   5.068   3.797 -1.0195  0.8744 -1.8395
   85SOPE   C39 7953   6.190   5.050   3.818 -0.6881  0.0629  0.1404
   85SOPE   H9X 7954   6.204   5.142   3.879  1.4131  1.7085 -2.6069
   85SOPE   H9Y 7955   6.286   5.039   3.764 -0.9947 -0.5104 -0.3044
   85SOPE  C310 7956   6.179   4.936   3.919  0.2513  0.1544  0.1030
   85SOPE  H10X 7957   6.285   4.912   3.941  0.4622  0.6747 -0.3170
   85SOPE  H10Y 7958   6.145   4.851   3.857  0.4711  0.1459 -0.0040
   85SOPE  C311 7959   6.098   4.966   4.046  0.0150 -0.0853 -0.6687
   85SOPE  H11X 7960   5.990   4.977   4.022 -0.1588  0.1169  0.1833
   85SOPE  H11Y 7961   6.140   5.052   4.103  0.0036 -0.3163 -0.3059
   85SOPE  C312 7962   6.091   4.834   4.128 -0.0604 -0.0229 -0.1963
   85SOPE  H12X 7963   6.189   4.784   4.122 -0.6945 -1.1435 -2.4369
   85SOPE  H12Y 7964   6.003   4.772   4.098 -2.6618  3.3409 -0.1792
   85SOPE  C313 7965   6.056   4.860   4.274 -0.0116  0.1057  0.3011
   85SOPE  H13X 7966   6.032   4.769   4.332  3.0788 -1.4085 -0.5761
   85SOPE  H13Y 7967   5.978   4.938   4.284  0.1469  0.1840  1.0458
   85SOPE  C314 7968   6.180   4.899   4.356 -0.0606  0.1615  0.5044
   85SOPE  H14X 7969   6.236   4.982   4.308 -1.5338  1.5600  1.1156
   85SOPE  H14Y 7970   6.250   4.812   4.362 -0.7113 -0.5228 -1.1982
   85SOPE  C315 7971   6.146   4.923   4.492 -0.0230 -0.0224 -0.9106
   85SOPE  H15X 7972   6.106   4.829   4.535  0.2463  0.3351  0.1681
   85SOPE  H15Y 7973   6.058   4.991   4.493 -0.5280 -0.5545  1.9588
   85SOPE  C316 7974   6.266   4.978   4.567  0.3800 -0.3302 -0.0596
   85SOPE  H16X 7975   6.302   5.071   4.518  1.9541 -1.2435 -0.7013
   85SOPE  H16Y 7976   6.341   4.897   4.554  0.6755  0.1568 -1.5184
   85SOPE  C317 7977   6.239   5.007   4.714 -0.4830 -0.1588  0.0866
   85SOPE  H17X 7978   6.338   5.033   4.758 -0.7519  2.8022 -0.8321
   85SOPE  H17Y 7979   6.220   4.908   4.761  3.7550 -0.9464  0.5546
   85SOPE  C318 7980   6.132   5.119   4.739 -0.3171  0.3355  0.1050
   85SOPE  H18X 7981   6.145   5.200   4.665  2.3170  1.6753  1.8386
   85SOPE  H18Y 7982   6.132   5.166   4.840  0.2996  0.6429 -0.0319
   85SOPE  H18Z 7983   6.029   5.081   4.724  0.0422  0.3259 -2.8090
   86SOPE     N 7984   1.231   5.278   2.213 -0.3248  0.2428 -0.0637
   86SOPE   HN1 7985   1.234   5.325   2.121 -0.9675  1.0358  0.3054
   86SOPE   HN2 7986   1.293   5.325   2.283  2.2191 -1.9764 -0.6337
   86SOPE   HN3 7987   1.269   5.181   2.208  0.5517  0.5796 -0.1525
   86SOPE   C12 7988   1.091   5.290   2.260  0.3588  0.7146  1.1884
   86SOPE  H12A 7989   1.032   5.237   2.181  1.4196  0.5573  0.4820
   86SOPE  H12B 7990   1.058   5.396   2.258 -1.0571  0.3260 -1.7421
   86SOPE   C11 7991   1.064   5.238   2.401  0.2322  0.3388  0.1313
   86SOPE  H11A 7992   0.956   5.254   2.423 -0.5601 -0.3375 -2.8074
   86SOPE  H11B 7993   1.118   5.292   2.481 -1.5871  0.5822  1.2608
   86SOPE     P 7994   0.998   4.995   2.373  0.1442 -0.3498  0.2788
   86SOPE   O13 7995   1.065   4.869   2.341 -0.1321  0.4596 -0.4695
   86SOPE   O14 7996   0.901   5.043   2.273 -0.1891  0.3918 -0.5134
   86SOPE   O12 7997   1.104   5.106   2.402  0.2263 -0.0944 -0.3585
   86SOPE   O11 7998   0.932   4.976   2.513  0.7512  0.1088  0.9551
   86SOPE    C1 7999   1.006   4.938   2.629  0.0301 -0.3387 -0.0072
   86SOPE    HA 8000   1.009   5.023   2.701 -0.9627 -1.9607  2.0310
   86SOPE    HB 8001   1.105   4.895   2.604  1.8636  2.8231  1.1328
   86SOPE    C2 8002   0.921   4.827   2.704  0.2656 -0.1541  0.1030
   86SOPE    HS 8003   0.886   4.770   2.615  0.4758 -0.5172  0.2497
   86SOPE   O21 8004   0.808   4.878   2.774  0.4118  0.0163 -0.3220
   86SOPE   C21 8005   0.711   4.785   2.800  0.0609  0.2529  0.9879
   86SOPE   O22 8006   0.690   4.685   2.730  0.0015  0.3283 -0.2169
   86SOPE   C22 8007   0.643   4.816   2.934 -0.3868 -0.1470 -0.0017
   86SOPE   H2R 8008   0.623   4.925   2.935 -1.0756 -0.2614 -0.6492
   86SOPE   H2S 8009   0.710   4.788   3.018 -1.0868 -0.9103  0.3188
   86SOPE    C3 8010   1.016   4.738   2.791  1.0968  0.0008 -0.8311
   86SOPE    HX 8011   1.058   4.793   2.878 -0.1991  3.7889 -2.3945
   86SOPE    HY 8012   1.097   4.711   2.720  2.1341  0.1588  0.2673
   86SOPE   O31 8013   0.949   4.630   2.845  0.0935  0.2887 -0.0846
   86SOPE   C31 8014   1.032   4.529   2.877  0.0434  0.3116  0.1500
   86SOPE   O32 8015   1.153   4.532   2.858 -0.1888 -0.3869 -0.2765
   86SOPE   C32 8016   0.955   4.406   2.933  0.6551  0.5058  0.4435
   86SOPE   H2X 8017   1.001   4.315   2.890 -0.9465  0.3490 -1.1134
   86SOPE   H2Y 8018   0.857   4.397   2.881  1.8254  0.8907 -1.9945
   86SOPE   C23 8019   0.512   4.735   2.948 -0.0417  0.4658 -0.8705
   86SOPE   H3R 8020   0.531   4.625   2.943  0.2122  0.4711 -0.1688
   86SOPE   H3S 8021   0.448   4.772   2.865 -0.8820 -0.5147 -0.6785
   86SOPE   C24 8022   0.450   4.770   3.088  0.2188 -0.4843  0.2472
   86SOPE   H4R 8023   0.448   4.878   3.112  2.7917 -0.4336  0.6082
   86SOPE   H4S 8024   0.352   4.719   3.088 -0.4578  0.7816  0.4254
   86SOPE   C25 8025   0.531   4.701   3.194 -0.3447  0.2053 -0.2451
   86SOPE   H5R 8026   0.512   4.591   3.192  0.9504 -0.0230 -0.8944
   86SOPE   H5S 8027   0.640   4.703   3.175 -0.4301  0.4759 -0.7063
   86SOPE   C26 8028   0.498   4.767   3.331 -0.0754 -0.0747  0.0913
   86SOPE   H6R 8029   0.551   4.714   3.414  1.4864  0.2386 -0.6642
   86SOPE   H6S 8030   0.524   4.875   3.334  1.0880 -0.3240 -0.2754
   86SOPE   C27 8031   0.352   4.753   3.362  0.1921  0.2690 -0.4581
   86SOPE   H7R 8032   0.289   4.810   3.291  0.5051  1.1820 -0.0160
   86SOPE   H7S 8033   0.329   4.644   3.354  0.3488  0.1889  0.1551
   86SOPE   C28 8034   0.318   4.795   3.504  1.1485  1.2512  0.0308
   86SOPE   H8R 8035   0.207   4.800   3.502  0.7350 -3.4861 -1.0651
   86SOPE   H8S 8036   0.343   4.710   3.571 -1.1836  1.4294  1.2155
   86SOPE   C29 8037   0.376   4.925   3.545 -0.4029 -0.7566  0.4422
   86SOPE   H91 8038   0.402   5.002   3.472  0.4513  0.2444  1.7629
   86SOPE  C210 8039   0.416   4.965   3.667 -0.1325  0.7327  0.1117
   86SOPE  H101 8040   0.490   5.047   3.673 -1.2250  1.6481  1.6262
   86SOPE  C211 8041   0.399   4.888   3.799 -0.1648  0.2949  0.3234
   86SOPE  H11R 8042   0.501   4.848   3.820  0.4346 -0.3842 -3.2103
   86SOPE  H11S 8043   0.322   4.809   3.787  2.2394 -1.9382 -1.8140
   86SOPE  C212 8044   0.356   4.982   3.913  0.3586 -0.1212 -0.2608
   86SOPE  H12R 8045   0.431   5.065   3.915 -0.2583  0.4583  2.3850
   86SOPE  H12S 8046   0.377   4.925   4.006  0.5237  4.8094  3.1313
   86SOPE  C213 8047   0.216   5.042   3.904  0.6111  0.3402  0.2396
   86SOPE  H13R 8048   0.146   4.956   3.916 -0.8649  1.7883  3.0539
   86SOPE  H13S 8049   0.197   5.092   3.807  2.1379 -0.4304 -0.4857
   86SOPE  C214 8050   0.185   5.134   4.025  0.2077 -0.1341  0.5594
   86SOPE  H14R 8051   0.086   5.177   4.000  0.3555  0.7878  1.4931
   86SOPE  H14S 8052   0.264   5.212   4.016  0.7850 -0.7415  0.2054
   86SOPE  C215 8053   0.193   5.067   4.166  0.1076  0.0430  0.5448
   86SOPE  H15R 8054   0.284   5.003   4.167 -0.2064 -0.4012  1.4050
   86SOPE  H15S 8055   0.110   4.994   4.180  1.0808 -1.1336  0.4003
   86SOPE  C216 8056   0.190   5.158   4.290 -0.2554  0.2030  0.1894
   86SOPE  H16R 8057   0.094   5.213   4.285  0.7511  1.9948 -0.7666
   86SOPE  H16S 8058   0.262   5.241   4.269  0.8191 -0.9644 -0.9800
   86SOPE  C217 8059   0.191   5.100   4.432 -0.3621 -0.2262  0.3923
   86SOPE  H17R 8060   0.290   5.050   4.435 -0.3888 -0.6567 -2.7058
   86SOPE  H17S 8061   0.115   5.020   4.445  0.8450 -1.2453  1.4677
   86SOPE  C218 8062   0.180   5.202   4.544  0.1193  0.0754 -0.6862
   86SOPE  H18R 8063   0.105   5.279   4.518  0.5613  0.2304 -1.5431
   86SOPE  H18S 8064   0.277   5.251   4.566  0.8586 -0.8692 -1.7410
   86SOPE  H18T 8065   0.146   5.158   4.641  1.8044  1.2545  0.4898
   86SOPE   C33 8066   0.942   4.391   3.085  1.1943 -0.0648  0.3498
   86SOPE   H3X 8067   0.859   4.323   3.114 -0.8460  2.4854  0.8706
   86SOPE   H3Y 8068   0.903   4.489   3.119 -0.1832 -0.0433 -1.1653
   86SOPE   C34 8069   1.074   4.361   3.162 -0.1821  0.2639 -0.5163
   86SOPE   H4X 8070   1.157   4.398   3.099 -1.0476 -0.0841 -1.9148
   86SOPE   H4Y 8071   1.081   4.250   3.152  0.2173  0.1278  1.0666
   86SOPE   C35 8072   1.080   4.400   3.312 -0.2470 -0.2841 -1.2974
   86SOPE   H5X 8073   1.057   4.506   3.335 -1.6558 -0.9842  0.8741
   86SOPE   H5Y 8074   1.185   4.382   3.344 -0.3667  0.1515 -0.6288
   86SOPE   C36 8075   0.986   4.324   3.410  0.1920 -0.0859 -0.2480
   86SOPE   H6X 8076   1.030   4.349   3.509  0.0517 -1.3711  0.1539
   86SOPE   H6Y 8077   0.983   4.214   3.396  1.7919 -0.2024  0.1750
   86SOPE   C37 8078   0.844   4.387   3.406  0.3737 -0.2477 -0.0407
   86SOPE   H7X 8079   0.793   4.369   3.309 -0.5303 -1.2795  0.5977
   86SOPE   H7Y 8080   0.851   4.498   3.405  0.0797 -0.2301 -0.3413
   86SOPE   C38 8081   0.747   4.337   3.522 -0.9957 -0.4116 -0.0809
   86SOPE   H8X 8082   0.774   4.356   3.628 -1.9639 -1.7777  0.4358
   86SOPE   H8Y 8083   0.735   4.227   3.528 -1.3748 -0.3451  0.5093
   86SOPE   C39 8084   0.606   4.396   3.492 -0.1599 -0.8544 -0.0905
   86SOPE   H9X 8085   0.536   4.318   3.455 -1.1116 -0.7480  1.4024
   86SOPE   H9Y 8086   0.623   4.486   3.430  1.3711 -0.4435  0.8709
   86SOPE  C310 8087   0.545   4.462   3.620  0.3677  0.8544 -0.2619
   86SOPE  H10X 8088   0.455   4.519   3.590 -0.5251 -0.8290 -0.9419
   86SOPE  H10Y 8089   0.625   4.524   3.666  1.3540 -1.4711  1.3946
   86SOPE  C311 8090   0.495   4.353   3.721  0.0744  0.5276 -0.7546
   86SOPE  H11X 8091   0.577   4.279   3.735 -1.2189 -0.6251  1.3629
   86SOPE  H11Y 8092   0.406   4.298   3.683 -1.2212  2.7862 -1.1826
   86SOPE  C312 8093   0.457   4.418   3.857 -0.0666 -0.1883 -0.1398
   86SOPE  H12X 8094   0.367   4.481   3.845  0.3493 -0.0883 -3.6654
   86SOPE  H12Y 8095   0.538   4.482   3.897 -1.1108  1.4530 -0.5432
   86SOPE  C313 8096   0.426   4.307   3.964 -0.3204 -0.6454 -0.4621
   86SOPE  H13X 8097   0.509   4.233   3.961  0.1937 -0.1098  0.2357
   86SOPE  H13Y 8098   0.336   4.246   3.938 -1.0854  1.6067 -3.8500
   86SOPE  C314 8099   0.401   4.372   4.099 -0.2135 -0.7098 -0.2213
   86SOPE  H14X 8100   0.315   4.441   4.086  0.2881  0.3820  1.8303
   86SOPE  H14Y 8101   0.491   4.430   4.131 -0.5499 -0.8945  1.1565
   86SOPE  C315 8102   0.358   4.277   4.212  0.2314 -0.1395  0.1467
   86SOPE  H15X 8103   0.293   4.194   4.175  0.5988 -0.0255 -0.7739
   86SOPE  H15Y 8104   0.314   4.331   4.299 -0.1010  0.8007 -0.5898
   86SOPE  C316 8105   0.483   4.204   4.266  0.8598  0.2051  0.0475
   86SOPE  H16X 8106   0.568   4.189   4.196  0.4700  1.2755 -0.6826
   86SOPE  H16Y 8107   0.444   4.103   4.289 -2.2109  1.5113  1.0302
   86SOPE  C317 8108   0.548   4.275   4.383 -0.1390  0.9017 -0.3052
   86SOPE  H17X 8109   0.470   4.282   4.463  0.0030 -1.3481  0.0930
   86SOPE  H17Y 8110   0.580   4.373   4.341  0.1432  1.1727  0.5372
   86SOPE  C318 8111   0.683   4.218   4.440 -0.5108 -0.0960 -0.4749
   86SOPE  H18X 8112   0.751   4.172   4.366  0.9690  0.5933  0.4156
   86SOPE  H18Y 8113   0.650   4.130   4.498  1.8727 -1.6582 -1.3523
   86SOPE  H18Z 8114   0.735   4.281   4.515 -1.4985  0.0802  0.0812
   87SOPE     N 8115   1.421   2.960   1.978 -0.1019 -0.6818  0.6179
   87SOPE   HN1 8116   1.411   2.860   2.002 -0.9252 -0.1304  2.8657
   87SOPE   HN2 8117   1.497   2.998   2.039  0.4136 -0.1993 -0.3045
   87SOPE   HN3 8118   1.337   3.021   1.989  0.3069  0.2954 -1.2630
   87SOPE   C12 8119   1.473   2.981   1.837  0.3106 -0.4601  0.1476
   87SOPE  H12A 8120   1.469   3.089   1.813  0.2639 -0.5212 -0.1210
   87SOPE  H12B 8121   1.402   2.935   1.765 -1.2294  3.7030 -1.2782
   87SOPE   C11 8122   1.617   2.932   1.821 -0.9153  0.0139  0.6231
   87SOPE  H11A 8123   1.642   2.956   1.715  1.9890 -1.4083  0.8966
   87SOPE  H11B 8124   1.635   2.823   1.833  2.6643  0.5297  0.8475
   87SOPE     P 8125   1.858   2.968   1.932  0.5157 -0.0213  0.3011
   87SOPE   O13 8126   1.925   3.076   2.010 -0.0139  0.3610  0.4410
   87SOPE   O14 8127   1.910   2.953   1.796 -0.5250 -0.1262  0.0966
   87SOPE   O12 8128   1.702   3.009   1.918  0.4578 -0.1559  0.1873
   87SOPE   O11 8129   1.851   2.831   2.000 -0.5319 -0.3551 -0.1594
   87SOPE    C1 8130   1.758   2.798   2.102 -0.0258  0.1735  0.8569
   87SOPE    HA 8131   1.732   2.691   2.095  0.1423  0.2054 -0.5946
   87SOPE    HB 8132   1.663   2.849   2.077  0.1965  0.2226  0.0687
   87SOPE    C2 8133   1.799   2.836   2.253 -0.2215 -0.4137  0.8780
   87SOPE    HS 8134   1.712   2.812   2.317 -0.6727 -1.3416 -0.0609
   87SOPE   O21 8135   1.824   2.980   2.261 -0.4299 -0.0070  0.0473
   87SOPE   C21 8136   1.711   3.051   2.244  0.2486 -0.0228  0.3606
   87SOPE   O22 8137   1.601   3.010   2.227  0.4579 -0.0416  0.1877
   87SOPE   C22 8138   1.747   3.195   2.251  0.4994  0.0492  0.2824
   87SOPE   H2R 8139   1.680   3.257   2.189  0.6071  1.0246  1.1094
   87SOPE   H2S 8140   1.852   3.215   2.219 -0.1711  3.6899 -0.0785
   87SOPE    C3 8141   1.921   2.748   2.304 -0.5314  0.4803  0.7318
   87SOPE    HX 8142   1.995   2.755   2.221 -2.1229  0.9911 -0.7060
   87SOPE    HY 8143   1.893   2.641   2.310  0.2866  0.2599  0.6684
   87SOPE   O31 8144   1.980   2.793   2.431 -0.7383 -0.4376 -0.4164
   87SOPE   C31 8145   1.935   2.738   2.547  0.0524  0.5706 -0.2584
   87SOPE   O32 8146   1.837   2.663   2.548  0.1229  0.6376  0.3046
   87SOPE   C32 8147   2.016   2.789   2.670  0.4297 -0.6048 -0.1947
   87SOPE   H2X 8148   1.943   2.855   2.721 -0.0607 -1.3286  0.0588
   87SOPE   H2Y 8149   2.111   2.840   2.645 -0.3859  2.2565  1.9598
   87SOPE   C23 8150   1.734   3.241   2.394 -0.5876 -0.1229  0.4830
   87SOPE   H3R 8151   1.637   3.210   2.438 -0.5718  1.7150  1.9726
   87SOPE   H3S 8152   1.741   3.352   2.390 -0.0882 -0.0530  2.1455
   87SOPE   C24 8153   1.834   3.174   2.492  0.0050 -0.7366 -0.1494
   87SOPE   H4R 8154   1.810   3.066   2.497 -2.5506 -0.2010  0.5874
   87SOPE   H4S 8155   1.938   3.181   2.453  0.1881 -2.7568 -0.1227
   87SOPE   C25 8156   1.805   3.236   2.622 -0.2207  0.1390 -0.0979
   87SOPE   H5R 8157   1.818   3.346   2.616 -1.0209  0.2058 -0.7556
   87SOPE   H5S 8158   1.699   3.228   2.655  0.5081 -1.6136  2.1302
   87SOPE   C26 8159   1.894   3.193   2.742  0.6875 -0.1449  0.0803
   87SOPE   H6R 8160   1.861   3.096   2.785  1.4810 -0.2618  0.4401
   87SOPE   H6S 8161   2.001   3.177   2.716  0.3779 -2.0085 -0.1969
   87SOPE   C27 8162   1.898   3.289   2.863 -0.6949 -0.0856 -0.4134
   87SOPE   H7R 8163   1.926   3.393   2.834 -0.1383 -0.3581 -0.8662
   87SOPE   H7S 8164   1.791   3.284   2.892 -0.5731 -0.8042 -0.0973
   87SOPE   C28 8165   1.997   3.257   2.968 -0.6767 -0.3000 -0.3604
   87SOPE   H8R 8166   1.984   3.152   3.002  0.5985 -0.2617  0.3199
   87SOPE   H8S 8167   2.101   3.256   2.927 -0.8120 -0.6378 -0.7042
   87SOPE   C29 8168   2.002   3.351   3.084  0.5066  0.1202  0.3785
   87SOPE   H91 8169   2.074   3.433   3.072 -0.8553  1.2143 -0.6481
   87SOPE  C210 8170   1.912   3.352   3.184 -0.6110 -0.1301  0.1706
   87SOPE  H101 8171   1.944   3.409   3.273  0.5479 -1.4145  0.6153
   87SOPE  C211 8172   1.815   3.243   3.205  0.5961  0.2393 -0.2503
   87SOPE  H11R 8173   1.822   3.211   3.311  0.8644  1.0843 -0.0094
   87SOPE  H11S 8174   1.818   3.151   3.142  3.1558 -0.3020  0.5474
   87SOPE  C212 8175   1.675   3.289   3.176  0.0103  0.0200  0.1262
   87SOPE  H12R 8176   1.608   3.202   3.189  0.1429  0.1796  2.1823
   87SOPE  H12S 8177   1.670   3.334   3.074  1.7617 -1.2439 -0.5702
   87SOPE  C213 8178   1.623   3.401   3.278 -0.5855  0.4538 -0.1498
   87SOPE  H13R 8179   1.525   3.441   3.244 -0.0401  3.0991  1.1450
   87SOPE  H13S 8180   1.686   3.491   3.265 -1.6959  1.0842 -1.4655
   87SOPE  C214 8181   1.618   3.355   3.423 -0.6633 -0.6139  0.0240
   87SOPE  H14R 8182   1.720   3.327   3.458 -0.4767 -2.1498 -1.6254
   87SOPE  H14S 8183   1.557   3.263   3.430 -0.3699 -0.9841 -1.8438
   87SOPE  C215 8184   1.575   3.468   3.513  0.1609 -0.3386 -0.8111
   87SOPE  H15R 8185   1.472   3.492   3.478  0.7708  1.2745 -1.6301
   87SOPE  H15S 8186   1.636   3.560   3.502 -0.3091 -0.0253 -0.8145
   87SOPE  C216 8187   1.563   3.430   3.663  0.3933 -0.5814  0.3793
   87SOPE  H16R 8188   1.649   3.370   3.701 -1.2049 -0.6473  4.2883
   87SOPE  H16S 8189   1.471   3.368   3.669 -0.0017 -0.0660 -0.2488
   87SOPE  C217 8190   1.539   3.551   3.761 -0.3552  0.1450  0.4662
   87SOPE  H17R 8191   1.446   3.598   3.723  0.2588 -0.4850 -2.0291
   87SOPE  H17S 8192   1.624   3.616   3.732  0.1113 -1.0166 -0.9451
   87SOPE  C218 8193   1.539   3.530   3.903 -0.1024  0.5272  0.1731
   87SOPE  H18R 8194   1.634   3.492   3.946  0.0324  0.0001 -0.5534
   87SOPE  H18S 8195   1.463   3.450   3.919 -0.5241  1.1590  1.4568
   87SOPE  H18T 8196   1.512   3.627   3.950  1.3726  1.4910 -0.8837
   87SOPE   C33 8197   2.049   2.668   2.761  0.1147  0.3018  0.4010
   87SOPE   H3X 8198   2.110   2.593   2.706 -1.4486  0.0070 -1.0111
   87SOPE   H3Y 8199   1.956   2.616   2.791 -0.5328  0.4423 -1.2672
   87SOPE   C34 8200   2.126   2.724   2.886  0.0314 -0.2987  0.6229
   87SOPE   H4X 8201   2.068   2.805   2.935 -0.4399 -2.0284  3.0893
   87SOPE   H4Y 8202   2.221   2.759   2.840 -0.2138  2.3990  1.9546
   87SOPE   C35 8203   2.162   2.627   2.994  0.0969  0.0547 -0.1527
   87SOPE   H5X 8204   2.239   2.663   3.065 -0.2062 -2.5474  1.6197
   87SOPE   H5Y 8205   2.206   2.536   2.948  0.5594  0.0220  0.3398
   87SOPE   C36 8206   2.031   2.586   3.080 -0.6949  0.1950 -0.2787
   87SOPE   H6X 8207   1.983   2.501   3.026  0.6330 -1.6516  1.2946
   87SOPE   H6Y 8208   1.958   2.669   3.069  0.4305  1.3404  0.6525
   87SOPE   C37 8209   2.071   2.557   3.231  0.1282  0.2981 -0.4655
   87SOPE   H7X 8210   1.977   2.522   3.278  2.2965 -1.8465  2.6243
   87SOPE   H7Y 8211   2.091   2.659   3.271 -2.0485  0.1549  1.1009
   87SOPE   C38 8212   2.181   2.455   3.248 -0.0782  0.0349 -1.1497
   87SOPE   H8X 8213   2.283   2.498   3.237  1.0153 -2.2578 -0.5219
   87SOPE   H8Y 8214   2.159   2.372   3.178 -1.1556 -0.2079 -0.5422
   87SOPE   C39 8215   2.186   2.398   3.393  0.1389  0.1216 -0.3295
   87SOPE   H9X 8216   2.151   2.293   3.392  0.9202 -0.1513 -1.9823
   87SOPE   H9Y 8217   2.114   2.455   3.455 -0.3236 -1.4095  0.5868
   87SOPE  C310 8218   2.328   2.419   3.450  0.3891  0.1663 -0.3458
   87SOPE  H10X 8219   2.366   2.524   3.452  0.1622  0.2447 -0.1322
   87SOPE  H10Y 8220   2.394   2.380   3.370 -0.1216 -0.0245 -0.6825
   87SOPE  C311 8221   2.354   2.336   3.572  0.0115  0.6211  0.2548
   87SOPE  H11X 8222   2.463   2.321   3.588 -0.0726  0.2971  0.5299
   87SOPE  H11Y 8223   2.305   2.237   3.576 -0.4437  0.8522  0.4398
   87SOPE  C312 8224   2.324   2.406   3.705  0.3134 -0.2360  0.4018
   87SOPE  H12X 8225   2.222   2.450   3.697  0.5423  1.2618  3.8345
   87SOPE  H12Y 8226   2.397   2.488   3.723 -0.0599 -0.2039  1.8517
   87SOPE  C313 8227   2.323   2.316   3.831 -0.5670 -1.1075  0.1738
   87SOPE  H13X 8228   2.424   2.309   3.878  0.7534 -1.0468 -2.4349
   87SOPE  H13Y 8229   2.276   2.215   3.829 -0.4687 -1.3275  3.2121
   87SOPE  C314 8230   2.231   2.374   3.939 -0.4253 -0.4961  0.6812
   87SOPE  H14X 8231   2.253   2.483   3.935 -0.1147 -0.5206  1.6198
   87SOPE  H14Y 8232   2.259   2.343   4.041 -1.2510 -0.1036  1.0365
   87SOPE  C315 8233   2.083   2.357   3.915  0.2551  0.3878  0.4784
   87SOPE  H15X 8234   2.041   2.255   3.925  0.2388  0.3415 -0.0024
   87SOPE  H15Y 8235   2.060   2.375   3.807 -1.8666 -2.7270  0.3030
   87SOPE  C316 8236   2.007   2.465   3.995 -1.1323 -0.3452 -0.7815
   87SOPE  H16X 8237   2.040   2.564   3.955  1.7923 -0.8481  0.1556
   87SOPE  H16Y 8238   2.033   2.452   4.102 -0.3235  0.1297 -0.9051
   87SOPE  C317 8239   1.856   2.457   3.977 -0.5411 -0.2675  0.3071
   87SOPE  H17X 8240   1.825   2.353   4.003 -0.8588 -0.1238  0.5063
   87SOPE  H17Y 8241   1.832   2.461   3.869  0.2812 -0.3234  0.1115
   87SOPE  C318 8242   1.776   2.571   4.045 -0.7969 -0.2400 -0.4153
   87SOPE  H18X 8243   1.811   2.660   3.988 -3.0027  0.1794 -1.2336
   87SOPE  H18Y 8244   1.804   2.600   4.149 -0.4796  1.3479 -0.9093
   87SOPE  H18Z 8245   1.666   2.567   4.033 -0.7325 -0.6308 -0.9074
   88SOPE     N 8246   2.848   1.595   2.049 -1.0995 -0.2855  0.9243
   88SOPE   HN1 8247   2.853   1.501   2.093  2.7210 -0.1282  1.1542
   88SOPE   HN2 8248   2.795   1.664   2.107 -0.6024  0.8484  0.0634
   88SOPE   HN3 8249   2.812   1.586   1.952  1.8367  1.3839 -0.4389
   88SOPE   C12 8250   2.992   1.641   2.037  0.2276 -0.3098 -0.6606
   88SOPE  H12A 8251   3.038   1.630   2.138  0.3085  1.7156 -0.4423
   88SOPE  H12B 8252   2.988   1.751   2.026 -0.2591 -0.1854  0.5871
   88SOPE   C11 8253   3.072   1.572   1.931 -0.1325  0.5962  0.1548
   88SOPE  H11A 8254   3.175   1.615   1.930 -0.0850  0.7735  3.2498
   88SOPE  H11B 8255   3.036   1.592   1.828  1.1503  0.9626 -0.2437
   88SOPE     P 8256   3.167   1.345   2.036  0.1030  0.0116 -0.4152
   88SOPE   O13 8257   3.264   1.296   1.935 -0.3091 -0.2042  0.1116
   88SOPE   O14 8258   3.088   1.251   2.118  0.3930  0.5394 -0.6826
   88SOPE   O12 8259   3.071   1.430   1.942 -0.1635 -0.5429 -0.4963
   88SOPE   O11 8260   3.238   1.458   2.125 -0.1855  0.4794  0.0367
   88SOPE    C1 8261   3.289   1.415   2.255  0.2328  0.5970 -0.0624
   88SOPE    HA 8262   3.336   1.314   2.258 -2.7309 -0.9221 -0.0388
   88SOPE    HB 8263   3.197   1.389   2.311  0.6803 -0.9120  0.0332
   88SOPE    C2 8264   3.369   1.524   2.321 -0.3043  0.2149 -0.1805
   88SOPE    HS 8265   3.474   1.518   2.286 -0.1827 -0.5535  0.2854
   88SOPE   O21 8266   3.348   1.506   2.460 -0.4774  0.1342 -0.3340
   88SOPE   C21 8267   3.423   1.413   2.527 -0.1872  0.2287 -0.2140
   88SOPE   O22 8268   3.515   1.352   2.471  0.5193 -0.6817 -0.1025
   88SOPE   C22 8269   3.389   1.414   2.672  0.3720 -0.0393  0.2830
   88SOPE   H2R 8270   3.463   1.456   2.744  0.7801  0.4768 -0.4340
   88SOPE   H2S 8271   3.383   1.307   2.703  1.8679  0.1667  1.3785
   88SOPE    C3 8272   3.318   1.669   2.280 -0.5044  0.3721  0.2995
   88SOPE    HX 8273   3.208   1.666   2.289 -0.6514  1.2321 -0.9233
   88SOPE    HY 8274   3.330   1.689   2.171 -1.2027 -4.2137 -0.8414
   88SOPE   O31 8275   3.372   1.769   2.370  0.1729 -0.0723 -0.1702
   88SOPE   C31 8276   3.507   1.776   2.370  0.7215  1.0601  0.1466
   88SOPE   O32 8277   3.580   1.720   2.294 -0.1511 -0.3016 -0.0336
   88SOPE   C32 8278   3.555   1.857   2.496  0.2093  0.2708 -0.0029
   88SOPE   H2X 8279   3.469   1.872   2.565  0.3545 -0.8015  0.4307
   88SOPE   H2Y 8280   3.580   1.957   2.453 -0.7950  0.5179 -0.0210
   88SOPE   C23 8281   3.256   1.494   2.704  0.5053  0.2328 -1.1818
   88SOPE   H3R 8282   3.173   1.441   2.653  0.4818  1.3185 -2.3061
   88SOPE   H3S 8283   3.269   1.597   2.665 -0.7756  0.8393 -0.0834
   88SOPE   C24 8284   3.229   1.526   2.853 -0.0284 -0.9921  0.1613
   88SOPE   H4R 8285   3.289   1.610   2.894 -0.1077  0.0971 -1.8429
   88SOPE   H4S 8286   3.131   1.577   2.859  1.0426  1.0396  1.1268
   88SOPE   C25 8287   3.237   1.393   2.936  0.5311 -0.0395 -0.0455
   88SOPE   H5R 8288   3.181   1.308   2.890  0.9112  0.4447 -1.4578
   88SOPE   H5S 8289   3.343   1.362   2.946  0.5853  0.0534 -0.3209
   88SOPE   C26 8290   3.174   1.393   3.081  0.5738 -0.2876  0.5676
   88SOPE   H6R 8291   3.088   1.464   3.083  0.9296  0.2358 -0.9448
   88SOPE   H6S 8292   3.145   1.288   3.099  0.9147 -0.1554  2.0679
   88SOPE   C27 8293   3.278   1.411   3.193 -0.7236 -0.2148 -0.1097
   88SOPE   H7R 8294   3.350   1.328   3.178  0.1834  0.4764  0.2875
   88SOPE   H7S 8295   3.339   1.500   3.165 -0.2281  0.0688  1.7213
   88SOPE   C28 8296   3.228   1.439   3.339  0.6416  0.4969 -0.4352
   88SOPE   H8R 8297   3.308   1.493   3.394 -1.7129  1.9691  1.8090
   88SOPE   H8S 8298   3.137   1.502   3.330  0.5166  0.1220 -2.1801
   88SOPE   C29 8299   3.204   1.301   3.396 -0.1847  1.1323 -0.1598
   88SOPE   H91 8300   3.143   1.234   3.333 -1.4503  2.8969 -0.8977
   88SOPE  C210 8301   3.256   1.252   3.512 -0.5684 -0.7114  1.0975
   88SOPE  H101 8302   3.235   1.149   3.544 -1.4368 -0.9548 -0.1841
   88SOPE  C211 8303   3.332   1.334   3.611  0.0631 -0.2029 -0.7015
   88SOPE  H11R 8304   3.341   1.441   3.583 -0.6194 -0.2282 -1.0289
   88SOPE  H11S 8305   3.437   1.300   3.606  0.6390  1.3201  0.3256
   88SOPE  C212 8306   3.292   1.309   3.759 -0.1356 -0.8501 -0.3256
   88SOPE  H12R 8307   3.185   1.335   3.773  0.4163  0.2722  2.4479
   88SOPE  H12S 8308   3.342   1.382   3.828 -2.4808  0.1586  0.3979
   88SOPE  C213 8309   3.323   1.172   3.812 -0.1464  0.0551 -0.9546
   88SOPE  H13R 8310   3.432   1.158   3.794  0.1600  1.0118 -0.0017
   88SOPE  H13S 8311   3.277   1.095   3.748  0.1455  2.0766 -3.7719
   88SOPE  C214 8312   3.273   1.150   3.956  0.1442  0.4846  0.4748
   88SOPE  H14R 8313   3.162   1.143   3.949  0.0582  2.7408 -1.3269
   88SOPE  H14S 8314   3.315   1.229   4.022  1.5572 -0.6175  0.9526
   88SOPE  C215 8315   3.316   1.013   4.016  0.5480  0.3681 -0.4492
   88SOPE  H15R 8316   3.426   0.998   4.019  0.6271  0.8645 -0.7199
   88SOPE  H15S 8317   3.273   0.933   3.951 -0.8716 -0.2131  1.1432
   88SOPE  C216 8318   3.261   0.991   4.157  0.4841  0.4987  0.4516
   88SOPE  H16R 8319   3.154   1.022   4.162  0.1763 -0.6641  1.5130
   88SOPE  H16S 8320   3.316   1.064   4.220  0.6842  0.5216  0.2516
   88SOPE  C217 8321   3.277   0.843   4.202  0.1384  0.1750 -0.1505
   88SOPE  H17R 8322   3.388   0.832   4.208  0.2096  1.5021  3.5342
   88SOPE  H17S 8323   3.242   0.778   4.119  1.7474 -0.5133 -0.3260
   88SOPE  C218 8324   3.205   0.805   4.332  0.0612  0.1100 -0.2430
   88SOPE  H18R 8325   3.254   0.870   4.408 -0.8348  0.9219 -0.3355
   88SOPE  H18S 8326   3.214   0.696   4.347 -0.9691  0.0273 -0.2019
   88SOPE  H18T 8327   3.097   0.828   4.322 -0.2928 -1.5580 -0.5132
   88SOPE   C33 8328   3.682   1.794   2.564  0.1466 -0.5968 -0.5834
   88SOPE   H3X 8329   3.772   1.807   2.500  1.9636 -1.0525  1.7402
   88SOPE   H3Y 8330   3.672   1.684   2.559 -0.5291 -0.5772  0.2276
   88SOPE   C34 8331   3.711   1.842   2.705 -1.2848 -0.3284 -0.4209
   88SOPE   H4X 8332   3.687   1.949   2.691  0.0242 -0.2782 -2.7439
   88SOPE   H4Y 8333   3.818   1.839   2.736 -0.6682  3.3153 -1.7576
   88SOPE   C35 8334   3.627   1.766   2.809  0.2634 -0.6470  0.1304
   88SOPE   H5X 8335   3.633   1.657   2.788  3.6481 -0.4461 -0.4041
   88SOPE   H5Y 8336   3.520   1.798   2.806 -1.1031 -4.6452 -1.9564
   88SOPE   C36 8337   3.680   1.788   2.952 -0.6905  0.6328 -0.6593
   88SOPE   H6X 8338   3.662   1.891   2.988 -1.4954  0.4707 -0.5827
   88SOPE   H6Y 8339   3.791   1.778   2.956 -0.6897  1.0526  2.2386
   88SOPE   C37 8340   3.628   1.691   3.059  0.5560 -0.4358 -0.0343
   88SOPE   H7X 8341   3.668   1.587   3.057 -2.9269 -1.9206 -0.8179
   88SOPE   H7Y 8342   3.517   1.691   3.051  0.5176  0.4586  0.4143
   88SOPE   C38 8343   3.649   1.750   3.202 -0.0237  0.3068 -0.1478
   88SOPE   H8X 8344   3.602   1.850   3.203  0.3034  0.4903 -1.2813
   88SOPE   H8Y 8345   3.758   1.765   3.215  0.2284  0.5992 -2.2664
   88SOPE   C39 8346   3.592   1.656   3.304 -0.4080 -0.5827 -0.6482
   88SOPE   H9X 8347   3.632   1.557   3.273  1.6290 -0.1494  0.4033
   88SOPE   H9Y 8348   3.482   1.647   3.294 -0.6580 -2.3335  2.4190
   88SOPE  C310 8349   3.652   1.688   3.447  0.1251 -0.2698  0.9693
   88SOPE  H10X 8350   3.628   1.796   3.456  2.6640  0.5324 -0.8487
   88SOPE  H10Y 8351   3.763   1.687   3.440  0.0494  0.1925 -0.5914
   88SOPE  C311 8352   3.577   1.617   3.556  0.3659 -0.0551  0.1315
   88SOPE  H11X 8353   3.590   1.508   3.540  0.3585 -0.1507  0.7844
   88SOPE  H11Y 8354   3.468   1.630   3.543  0.2303 -0.5849  0.6963
   88SOPE  C312 8355   3.605   1.664   3.700 -0.2888  0.0022  0.2182
   88SOPE  H12X 8356   3.563   1.766   3.714  0.1731  0.4473 -1.4943
   88SOPE  H12Y 8357   3.715   1.653   3.707 -0.4675 -0.9214  2.1862
   88SOPE  C313 8358   3.543   1.572   3.804  0.2288  0.0514  0.0212
   88SOPE  H13X 8359   3.576   1.468   3.781 -1.5007 -0.7189  0.8302
   88SOPE  H13Y 8360   3.433   1.584   3.792  0.1336  0.8971  1.5762
   88SOPE  C314 8361   3.575   1.598   3.947  0.3422 -0.5742 -0.2178
   88SOPE  H14X 8362   3.523   1.682   3.997  0.7137 -0.7050  0.3958
   88SOPE  H14Y 8363   3.684   1.619   3.942  0.2938 -0.5469 -2.2621
   88SOPE  C315 8364   3.555   1.479   4.044 -0.2340  0.1228  0.5474
   88SOPE  H15X 8365   3.508   1.394   3.989 -2.3270  0.8353  1.1841
   88SOPE  H15Y 8366   3.480   1.499   4.123 -1.2184 -0.7101 -0.1410
   88SOPE  C316 8367   3.690   1.439   4.115  0.3556 -0.0914 -0.4023
   88SOPE  H16X 8368   3.728   1.526   4.172 -2.0025  0.3784  0.5903
   88SOPE  H16Y 8369   3.767   1.410   4.040  0.8776 -1.5286  0.6560
   88SOPE  C317 8370   3.688   1.318   4.199  0.6577  0.3668 -0.3662
   88SOPE  H17X 8371   3.631   1.349   4.290 -1.1506 -0.2115 -1.2479
   88SOPE  H17Y 8372   3.787   1.290   4.241  0.4295 -2.0832 -1.3010
   88SOPE  C318 8373   3.641   1.183   4.148  0.7065  0.4352  0.0576
   88SOPE  H18X 8374   3.532   1.194   4.132  0.7629  1.8419  0.5132
   88SOPE  H18Y 8375   3.653   1.104   4.225  0.8235  0.6021  0.2126
   88SOPE  H18Z 8376   3.685   1.154   4.050 -0.1477 -2.4610  0.4350
   89SAPC     N 8377   6.125   4.170   7.109  0.6554 -0.6426  0.0620
   89SAPC   C12 8378   6.049   4.300   7.067 -0.4802  0.5286 -0.4735
   89SAPC  H12A 8379   6.121   4.371   7.028  0.1062  1.7164  2.4522
   89SAPC  H12B 8380   6.011   4.347   7.157  2.3244  0.3763  0.8982
   89SAPC   C13 8381   6.196   4.101   6.988  0.1211 -0.3252  0.3739
   89SAPC  H13A 8382   6.274   4.166   6.952 -0.0719  0.4827  1.3580
   89SAPC  H13B 8383   6.244   4.007   7.014  1.6106 -0.1628 -1.5975
   89SAPC  H13C 8384   6.123   4.093   6.909  1.3548  0.3338 -0.8691
   89SAPC   C14 8385   6.236   4.194   7.212  0.2178 -0.3996  0.2275
   89SAPC  H14A 8386   6.306   4.272   7.187  0.0147 -0.4720 -0.6110
   89SAPC  H14B 8387   6.190   4.217   7.307 -0.0737  2.4254 -0.5160
   89SAPC  H14C 8388   6.295   4.104   7.207 -1.8182 -1.7308 -1.9472
   89SAPC   C15 8389   6.027   4.076   7.176  0.1955 -0.1274  0.8645
   89SAPC  H15A 8390   5.975   4.017   7.101 -0.0861 -1.2846  1.9429
   89SAPC  H15B 8391   6.076   4.005   7.241  0.4452 -2.4433 -1.6566
   89SAPC  H15C 8392   5.960   4.130   7.241  0.0152 -0.0575  0.6217
   89SAPC   C11 8393   5.938   4.285   6.966  0.0531 -0.2302  0.6147
   89SAPC  H11A 8394   5.877   4.379   6.971  0.8211  0.2711  0.7070
   89SAPC  H11B 8395   5.877   4.197   6.996  0.2391 -0.0181  1.6547
   89SAPC     P 8396   5.897   4.243   6.716 -0.0319 -0.2615 -0.0628
   89SAPC   O13 8397   5.838   4.112   6.723  0.4117  0.5116  0.6801
   89SAPC   O14 8398   5.800   4.358   6.704  0.6242  0.3475  0.3847
   89SAPC   O12 8399   5.995   4.270   6.837 -0.3421  0.0982  0.1155
   89SAPC   O11 8400   6.002   4.244   6.601 -0.6619 -0.6422 -0.4548
   89SAPC    C1 8401   6.077   4.124   6.585 -0.1580  0.1181  0.5554
   89SAPC    HA 8402   6.181   4.160   6.571 -0.5831  1.7838  1.3841
   89SAPC    HB 8403   6.069   4.045   6.663  0.4576  0.9914  1.5188
   89SAPC    C2 8404   6.041   4.048   6.454  0.6662 -0.5230  0.4470
   89SAPC    HS 8405   6.121   3.974   6.433 -0.5629 -0.8176 -4.1273
   89SAPC   O21 8406   6.031   4.137   6.342 -0.1500  0.6803 -0.2125
   89SAPC   C21 8407   6.140   4.202   6.315  0.0562  0.4413  0.7220
   89SAPC   O22 8408   6.250   4.184   6.359 -0.3359  0.0165 -0.3425
   89SAPC   C22 8409   6.116   4.297   6.199  0.3195 -0.2409 -0.4821
   89SAPC   H2R 8410   6.053   4.384   6.228 -1.2127 -1.0783 -1.1445
   89SAPC   H2S 8411   6.215   4.333   6.164  1.8235 -3.5853 -0.0340
   89SAPC    C3 8412   5.905   3.973   6.466 -0.3803 -1.0598 -0.4084
   89SAPC    HX 8413   5.817   4.041   6.470 -0.9755 -1.7173 -1.7210
   89SAPC    HY 8414   5.907   3.927   6.567 -0.1198  0.4368  0.2922
   89SAPC   O31 8415   5.896   3.881   6.357 -0.2374 -0.1743  0.2795
   89SAPC   C31 8416   5.964   3.764   6.365 -0.2608  0.2810 -0.7216
   89SAPC   O32 8417   6.037   3.737   6.462  0.0626  0.7148  0.4557
   89SAPC   C32 8418   5.951   3.663   6.253  0.8910 -0.0754  1.0944
   89SAPC   H2X 8419   5.967   3.727   6.163  0.2278 -2.1402 -0.5953
   89SAPC   H2Y 8420   5.843   3.637   6.242  0.4319  1.8261  0.6880
   89SAPC   C23 8421   6.038   4.240   6.083  0.6127 -0.3127  0.1028
   89SAPC   H3R 8422   5.939   4.200   6.115  0.7611  0.1367  1.1563
   89SAPC   H3S 8423   6.093   4.157   6.034  0.8325  1.1748 -2.3351
   89SAPC   C24 8424   6.030   4.341   5.970 -0.0082  0.6921  0.3561
   89SAPC   H4R 8425   6.136   4.359   5.942  0.2148 -1.9286 -0.8138
   89SAPC   H4S 8426   5.992   4.430   6.024 -3.0346 -1.1092  1.5044
   89SAPC   C25 8427   5.931   4.294   5.865  0.2968  0.4977 -0.2456
   89SAPC   H5R 8428   5.829   4.284   5.906  0.1699  0.7025 -0.5036
   89SAPC   C26 8429   5.958   4.276   5.734 -0.1997  0.5777 -0.0588
   89SAPC   H6R 8430   5.877   4.240   5.669 -0.2028  1.0832 -0.3370
   89SAPC   C27 8431   6.089   4.291   5.671 -0.2297 -0.1532  0.2317
   89SAPC   H7R 8432   6.106   4.197   5.614 -1.4858  0.8965 -2.0194
   89SAPC   H7S 8433   6.165   4.300   5.752 -0.5012  0.0258  0.4682
   89SAPC   C28 8434   6.101   4.411   5.581  0.6063 -0.0452 -0.1579
   89SAPC   H8R 8435   6.110   4.502   5.642  3.9629 -0.8461  0.7607
   89SAPC   C29 8436   6.101   4.422   5.448  0.0733 -0.5273  0.1848
   89SAPC   H9R 8437   6.115   4.523   5.405  2.0345 -0.0484  1.8048
   89SAPC  C210 8438   6.089   4.311   5.346  0.4399 -0.1351  0.5278
   89SAPC  H10R 8439   5.986   4.311   5.304  0.4399 -3.8759  0.1652
   89SAPC  H10S 8440   6.092   4.220   5.410 -0.2854 -0.1520  0.5469
   89SAPC  C211 8441   6.205   4.326   5.249 -0.4110  0.5225  0.0478
   89SAPC  H11R 8442   6.288   4.255   5.262 -2.1323 -1.5476  0.4210
   89SAPC  C212 8443   6.197   4.390   5.127  0.4171  0.0789 -0.3764
   89SAPC  H12R 8444   6.292   4.389   5.071  0.8557  0.3133  0.3505
   89SAPC  C213 8445   6.088   4.476   5.072  0.2231  0.2678 -0.4169
   89SAPC  H13R 8446   5.999   4.463   5.137 -0.0588 -1.1346 -1.0467
   89SAPC  H13S 8447   6.072   4.452   4.965 -1.8123 -1.3449  0.1756
   89SAPC  C214 8448   6.125   4.621   5.083 -0.0347 -0.1693 -0.2318
   89SAPC  H14R 8449   6.154   4.657   5.183  0.6689  1.0729 -0.8583
   89SAPC  C215 8450   6.126   4.723   4.989  0.3702  0.3682  0.3664
   89SAPC  H15R 8451   6.175   4.818   5.016 -1.4316  1.1089  1.1851
   89SAPC  C216 8452   6.088   4.692   4.842 -0.2206 -0.3163 -0.2227
   89SAPC  H16R 8453   6.058   4.784   4.788 -2.0793 -0.2730  0.8201
   89SAPC  H16S 8454   6.000   4.626   4.832 -0.6220 -0.1458  1.7334
   89SAPC  C217 8455   6.213   4.623   4.787 -0.4134  0.2574  0.2087
   89SAPC  H17R 8456   6.244   4.536   4.849  0.3110  0.1752 -0.2489
   89SAPC  H17S 8457   6.304   4.686   4.797 -1.5424  1.7421  1.4567
   89SAPC  C218 8458   6.201   4.566   4.637 -0.0034  0.1810 -0.5081
   89SAPC  H18R 8459   6.256   4.637   4.572 -0.6153  0.8681 -0.2872
   89SAPC  H18S 8460   6.093   4.568   4.610 -0.4690 -0.2380  1.1565
   89SAPC  C219 8461   6.245   4.425   4.628 -0.4308  0.2304 -0.1858
   89SAPC  H19R 8462   6.344   4.425   4.679 -1.9248  1.8912  2.9702
   89SAPC  H19S 8463   6.264   4.396   4.523  0.9452 -0.2143  0.1578
   89SAPC  C220 8464   6.159   4.323   4.695  0.0724  0.7347 -0.0917
   89SAPC  H20R 8465   6.205   4.222   4.697 -0.3727  0.3444 -3.4800
   89SAPC  H20S 8466   6.065   4.325   4.636  1.0272  2.5257 -1.6521
   89SAPC  H20T 8467   6.139   4.357   4.799  0.9228  0.0813  0.2980
   89SAPC   C33 8468   6.060   3.555   6.256  0.2102  0.3915  0.1627
   89SAPC   H3X 8469   6.059   3.505   6.355  1.2080  1.0320  0.5197
   89SAPC   H3Y 8470   6.155   3.611   6.245 -0.9622  2.7459  1.2545
   89SAPC   C34 8471   6.057   3.448   6.146  0.3955  0.3593 -0.4599
   89SAPC   H4X 8472   5.971   3.384   6.176 -0.0602  1.7332  1.3179
   89SAPC   H4Y 8473   6.155   3.397   6.145  0.7114  0.9515  0.0082
   89SAPC   C35 8474   6.031   3.514   6.008  0.0588  0.5695 -0.3977
   89SAPC   H5X 8475   6.108   3.594   6.002 -1.4706  2.1397  0.2933
   89SAPC   H5Y 8476   5.928   3.554   6.004 -0.1130  0.7055  2.8591
   89SAPC   C36 8477   6.052   3.427   5.885  0.2658 -0.2991 -0.5184
   89SAPC   H6X 8478   5.955   3.375   5.890 -0.9598  1.9874  1.2300
   89SAPC   H6Y 8479   6.139   3.361   5.905  1.8990  2.3825  1.9991
   89SAPC   C37 8480   6.066   3.511   5.761 -0.1773  0.2020  0.2320
   89SAPC   H7X 8481   6.164   3.562   5.773 -0.0140 -0.0196 -0.1554
   89SAPC   H7Y 8482   5.990   3.592   5.757 -0.6813 -0.1731  1.6356
   89SAPC   C38 8483   6.051   3.418   5.638 -0.5147  0.0562  0.0743
   89SAPC   H8X 8484   5.960   3.354   5.639 -1.1420  0.8660  2.7228
   89SAPC   H8Y 8485   6.142   3.354   5.644 -0.0026  0.8011  0.3611
   89SAPC   C39 8486   6.056   3.501   5.509 -0.4970  0.0655  0.4494
   89SAPC   H9X 8487   6.161   3.537   5.515 -1.5637  3.4702  0.8949
   89SAPC   H9Y 8488   5.987   3.588   5.513  2.4490  2.6325 -0.1836
   89SAPC  C310 8489   6.049   3.413   5.384  0.4596 -0.6646  0.1596
   89SAPC  H10X 8490   5.955   3.357   5.369  1.5374 -1.8920 -2.7161
   89SAPC  H10Y 8491   6.110   3.320   5.388  0.3302 -0.8346 -1.4051
   89SAPC  C311 8492   6.093   3.495   5.265  0.5913  0.3896  0.2686
   89SAPC  H11X 8493   6.186   3.548   5.295  1.6145 -2.2438  2.1866
   89SAPC  H11Y 8494   6.014   3.570   5.241 -1.6562 -1.1706  2.3307
   89SAPC  C312 8495   6.124   3.415   5.142  0.8393 -0.1784 -0.2962
   89SAPC  H12X 8496   6.171   3.320   5.175  0.1652 -1.4444 -2.7883
   89SAPC  H12Y 8497   6.185   3.479   5.075 -1.4986  0.6788 -1.7406
   89SAPC  C313 8498   6.004   3.385   5.055 -0.4828  0.5700 -0.1517
   89SAPC  H13X 8499   5.980   3.479   5.000  2.9735  1.3586 -0.5441
   89SAPC  H13Y 8500   5.920   3.347   5.117  0.8279 -2.3995 -0.0217
   89SAPC  C314 8501   6.038   3.278   4.957 -0.0333 -0.8840 -0.2297
   89SAPC  H14X 8502   5.951   3.257   4.891  1.2075 -0.8863 -1.9315
   89SAPC  H14Y 8503   6.056   3.183   5.013 -0.4167  0.4277  2.2300
   89SAPC  C315 8504   6.156   3.294   4.862 -0.7808  0.0277  0.2488
   89SAPC  H15X 8505   6.197   3.197   4.827 -0.1735  0.6692 -0.8523
   89SAPC  H15Y 8506   6.236   3.349   4.916 -0.3022  1.2199 -1.5879
   89SAPC  C316 8507   6.137   3.364   4.729 -0.0910 -0.2027 -0.7329
   89SAPC  H16X 8508   6.230   3.424   4.720  1.2171 -1.7546  1.4782
   89SAPC  H16Y 8509   6.059   3.444   4.735 -0.0027 -0.0662 -1.3439
   89SAPC  C317 8510   6.109   3.279   4.604 -0.1270  0.6811 -0.2520
   89SAPC  H17X 8511   6.013   3.226   4.624  1.3808 -1.8530  0.7129
   89SAPC  H17Y 8512   6.192   3.209   4.586 -0.7077  0.7812 -4.4371
   89SAPC  C318 8513   6.097   3.363   4.472  0.0290  0.2457  0.1936
   89SAPC  H18X 8514   6.188   3.410   4.429 -0.1396  0.4718  0.0911
   89SAPC  H18Y 8515   6.021   3.440   4.496 -0.3166 -0.4955  1.6377
   89SAPC  H18Z 8516   6.053   3.300   4.392 -0.8888 -2.2630  2.5150
   90SAPC     N 8517   4.016   6.019   7.146  0.0484 -0.2042  0.2445
   90SAPC   C12 8518   4.101   5.889   7.140  0.1179  0.0694 -0.0428
   90SAPC  H12A 8519   4.036   5.803   7.132 -0.6855  0.6329  0.2903
   90SAPC  H12B 8520   4.152   5.881   7.236 -0.3372  3.8048  0.6274
   90SAPC   C13 8521   3.943   6.028   7.271 -0.4641 -0.0578  0.1609
   90SAPC  H13A 8522   3.894   6.123   7.286  1.1070  1.1391 -1.6369
   90SAPC  H13B 8523   3.872   5.947   7.279 -1.6369  0.8925 -0.3524
   90SAPC  H13C 8524   4.007   6.007   7.356 -0.5319 -2.9242 -0.3851
   90SAPC   C14 8525   4.106   6.137   7.132  0.3359 -0.9320  0.0505
   90SAPC  H14A 8526   4.167   6.138   7.042  0.7720 -0.3592  0.3499
   90SAPC  H14B 8527   4.049   6.228   7.129 -0.8947 -1.6910 -0.4714
   90SAPC  H14C 8528   4.177   6.142   7.214 -0.9654 -1.8975  1.2788
   90SAPC   C15 8529   3.923   6.030   7.031 -0.5633 -0.1613  0.2300
   90SAPC  H15A 8530   3.961   6.012   6.932 -0.4517 -1.5436  0.5045
   90SAPC  H15B 8531   3.834   5.969   7.043  0.2831 -1.5159 -0.1178
   90SAPC  H15C 8532   3.879   6.128   7.040  2.3778  1.4031 -1.0211
   90SAPC   C11 8533   4.210   5.862   7.027  0.5318  0.7123 -0.2036
   90SAPC  H11A 8534   4.243   5.757   7.042 -1.7344 -0.2143 -1.2979
   90SAPC  H11B 8535   4.292   5.937   7.029  1.5258 -0.3466  1.1367
   90SAPC     P 8536   4.080   5.754   6.831  0.1298 -0.2740  0.7045
   90SAPC   O13 8537   4.069   5.638   6.921  0.1055  0.3664 -0.2931
   90SAPC   O14 8538   3.952   5.812   6.780  0.1095 -0.3032  0.0619
   90SAPC   O12 8539   4.152   5.876   6.899 -0.3727 -0.1327  0.2424
   90SAPC   O11 8540   4.175   5.719   6.704 -0.0558  0.0610  0.1484
   90SAPC    C1 8541   4.257   5.821   6.650  0.6454 -0.2478  0.0317
   90SAPC    HA 8542   4.223   5.924   6.674 -0.3833 -0.9977  2.0660
   90SAPC    HB 8543   4.354   5.806   6.701  0.6841  0.4894  0.1866
   90SAPC    C2 8544   4.269   5.813   6.495  0.7053  0.7827 -0.2822
   90SAPC    HS 8545   4.183   5.861   6.444  1.0308 -0.6843 -2.3177
   90SAPC   O21 8546   4.297   5.678   6.448  0.1167 -0.6056  0.2585
   90SAPC   C21 8547   4.249   5.650   6.332  0.7039  0.3581  0.4949
   90SAPC   O22 8548   4.169   5.718   6.271  0.1095  0.6546 -0.1096
   90SAPC   C22 8549   4.325   5.528   6.272  0.1584  0.2846 -0.3938
   90SAPC   H2R 8550   4.429   5.534   6.310 -0.0827 -0.6506  0.4574
   90SAPC   H2S 8551   4.284   5.433   6.312 -0.2206  0.7869  0.4228
   90SAPC    C3 8552   4.391   5.902   6.448 -0.0570  0.1338 -0.0071
   90SAPC    HX 8553   4.471   5.842   6.496 -0.6487 -0.3975  0.3355
   90SAPC    HY 8554   4.383   6.007   6.485 -1.7292  0.2109 -0.4890
   90SAPC   O31 8555   4.409   5.902   6.308 -0.0136  0.9206 -0.5654
   90SAPC   C31 8556   4.352   5.992   6.237  1.2423  0.1275  0.5725
   90SAPC   O32 8557   4.286   6.083   6.285 -0.0279  0.0474 -0.0570
   90SAPC   C32 8558   4.399   5.980   6.093 -0.6993  0.6321  0.1113
   90SAPC   H2X 8559   4.504   5.947   6.102 -1.1677 -1.0184 -0.0277
   90SAPC   H2Y 8560   4.399   6.081   6.049  1.4702 -0.1613 -1.8966
   90SAPC   C23 8561   4.320   5.502   6.115 -1.2580 -0.3508 -1.1031
   90SAPC   H3R 8562   4.345   5.602   6.074  0.2539 -0.3845 -0.3164
   90SAPC   H3S 8563   4.223   5.465   6.074 -1.2857 -3.1715  1.1757
   90SAPC   C24 8564   4.444   5.401   6.067  0.2596  0.4791 -0.9259
   90SAPC   H4R 8565   4.411   5.295   6.081  1.5358  0.3705  1.7079
   90SAPC   H4S 8566   4.515   5.414   6.151 -0.0939  0.5772 -0.6382
   90SAPC   C25 8567   4.498   5.421   5.932  0.2717 -0.1465 -0.3944
   90SAPC   H5R 8568   4.595   5.472   5.940 -0.0532  0.1694  2.9361
   90SAPC   C26 8569   4.455   5.373   5.815  0.1921  0.1088  0.1065
   90SAPC   H6R 8570   4.505   5.400   5.721  1.6203 -2.2112  0.1204
   90SAPC   C27 8571   4.327   5.304   5.801  0.1810  0.0748 -0.1927
   90SAPC   H7R 8572   4.261   5.325   5.888 -0.2024  1.8185 -0.8744
   90SAPC   H7S 8573   4.341   5.194   5.799  1.4503  0.2212 -2.2890
   90SAPC   C28 8574   4.251   5.335   5.676 -0.5846 -0.1364  0.2802
   90SAPC   H8R 8575   4.160   5.396   5.690 -0.2172  0.0076  2.3538
   90SAPC   C29 8576   4.296   5.312   5.547  0.0689 -0.4625 -0.2104
   90SAPC   H9R 8577   4.223   5.333   5.467  0.9367  1.3543 -0.5832
   90SAPC  C210 8578   4.423   5.240   5.504 -0.4250 -0.2632  0.3968
   90SAPC  H10R 8579   4.398   5.159   5.433 -0.7859 -0.0721  0.3030
   90SAPC  H10S 8580   4.478   5.195   5.589  0.3959  0.6972  0.4030
   90SAPC  C211 8581   4.516   5.352   5.451 -0.1120  0.0755  0.4673
   90SAPC  H11R 8582   4.516   5.443   5.512  2.4195  0.7411 -0.3811
   90SAPC  C212 8583   4.580   5.336   5.334 -0.0149 -0.5710  0.1375
   90SAPC  H12R 8584   4.637   5.424   5.301  1.3821 -1.1405  0.9415
   90SAPC  C213 8585   4.579   5.210   5.256 -0.6435 -0.0659 -0.0967
   90SAPC  H13R 8586   4.476   5.179   5.228 -0.1251  0.4385 -2.8948
   90SAPC  H13S 8587   4.618   5.127   5.319  1.5294 -0.5468 -1.9432
   90SAPC  C214 8588   4.660   5.226   5.130  0.0628 -0.4309  0.8481
   90SAPC  H14R 8589   4.762   5.266   5.137  0.9647 -2.0723 -1.5293
   90SAPC  C215 8590   4.621   5.176   5.008  0.6331 -0.4047 -0.0067
   90SAPC  H15R 8591   4.685   5.201   4.922  3.9056  0.7047  2.5310
   90SAPC  C216 8592   4.488   5.114   4.968  0.6291 -0.3766  0.4001
   90SAPC  H16R 8593   4.433   5.079   5.058  0.7480 -2.5652 -0.3139
   90SAPC  H16S 8594   4.492   5.028   4.897  0.0936 -0.9433  1.0416
   90SAPC  C217 8595   4.379   5.203   4.897  0.0510  0.5594 -0.4352
   90SAPC  H17R 8596   4.296   5.134   4.873  1.5927 -1.4182 -0.3688
   90SAPC  H17S 8597   4.425   5.229   4.799  0.8135 -0.9271 -0.5079
   90SAPC  C218 8598   4.337   5.331   4.973 -0.1694  0.5028  0.5563
   90SAPC  H18R 8599   4.424   5.386   5.013  0.9972  1.2824 -2.7190
   90SAPC  H18S 8600   4.273   5.296   5.057 -0.8008  1.1492  0.3577
   90SAPC  C219 8601   4.258   5.431   4.883 -0.1894  0.0557  0.1869
   90SAPC  H19R 8602   4.323   5.432   4.793 -0.2502 -2.0879  0.0694
   90SAPC  H19S 8603   4.254   5.534   4.924 -0.5571  0.7481 -1.5003
   90SAPC  C220 8604   4.114   5.389   4.853  0.3317 -0.1336 -0.7551
   90SAPC  H20R 8605   4.059   5.453   4.781 -1.1793  0.5984  0.9514
   90SAPC  H20S 8606   4.043   5.397   4.939  2.0044  1.0990  0.5864
   90SAPC  H20T 8607   4.106   5.287   4.809 -0.5758  1.0206 -3.4875
   90SAPC   C33 8608   4.321   5.887   5.995  0.1291 -0.6693  0.3928
   90SAPC   H3X 8609   4.219   5.929   5.978 -1.5399 -4.4676 -0.0085
   90SAPC   H3Y 8610   4.294   5.794   6.048  0.1836  0.2447  2.0968
   90SAPC   C34 8611   4.387   5.875   5.860  0.2145 -0.2989  0.7708
   90SAPC   H4X 8612   4.490   5.834   5.859 -0.1472 -1.2441  0.9401
   90SAPC   H4Y 8613   4.394   5.977   5.817  1.5108 -0.6299  0.1477
   90SAPC   C35 8614   4.304   5.783   5.770  0.1240  0.0087 -0.3079
   90SAPC   H5X 8615   4.197   5.813   5.766 -0.5970 -2.3430  0.1895
   90SAPC   H5Y 8616   4.297   5.681   5.814 -0.7017 -0.6358 -1.8837
   90SAPC   C36 8617   4.362   5.772   5.627 -0.5260 -0.1273  0.0004
   90SAPC   H6X 8618   4.464   5.730   5.633 -1.2115 -1.9646 -0.5021
   90SAPC   H6Y 8619   4.358   5.880   5.600 -0.3418  0.4736  2.1690
   90SAPC   C37 8620   4.287   5.689   5.521  0.5209  0.0278 -0.3679
   90SAPC   H7X 8621   4.187   5.732   5.543  1.5582  1.6953  1.3991
   90SAPC   H7Y 8622   4.286   5.578   5.528 -1.9282  0.0814  1.5892
   90SAPC   C38 8623   4.323   5.714   5.374 -0.2067 -0.0254  0.1434
   90SAPC   H8X 8624   4.278   5.807   5.333 -3.0358 -2.0950 -1.7868
   90SAPC   H8Y 8625   4.278   5.647   5.298 -0.0067 -0.2388  0.2128
   90SAPC   C39 8626   4.473   5.732   5.356 -0.2659 -0.2303 -0.5857
   90SAPC   H9X 8627   4.531   5.646   5.397 -1.0774 -0.5766 -0.1343
   90SAPC   H9Y 8628   4.508   5.816   5.420 -2.7556  0.6995 -0.3313
   90SAPC  C310 8629   4.509   5.737   5.210 -0.4732  0.2767  0.1444
   90SAPC  H10X 8630   4.462   5.820   5.153 -0.0057  1.2192  1.0863
   90SAPC  H10Y 8631   4.453   5.652   5.166 -0.2625 -0.4228  1.1869
   90SAPC  C311 8632   4.653   5.705   5.176 -0.1115  0.1298 -0.0842
   90SAPC  H11X 8633   4.675   5.613   5.234  1.2264  1.1776  1.1484
   90SAPC  H11Y 8634   4.723   5.775   5.227 -0.3130 -0.3430  0.8541
   90SAPC  C312 8635   4.694   5.695   5.026 -0.5355  0.1453  0.4479
   90SAPC  H12X 8636   4.669   5.789   4.974  1.4728  0.3676 -0.1817
   90SAPC  H12Y 8637   4.637   5.612   4.980  1.3771 -0.0630 -1.7041
   90SAPC  C313 8638   4.847   5.683   5.009  0.3630  0.4684  0.5241
   90SAPC  H13X 8639   4.871   5.593   5.069  0.6016 -0.0675 -0.3560
   90SAPC  H13Y 8640   4.900   5.768   5.056  1.5186  0.5361 -0.8266
   90SAPC  C314 8641   4.892   5.681   4.857 -0.2645 -0.6973 -0.3205
   90SAPC  H14X 8642   4.956   5.770   4.839 -1.5335  0.2216 -0.4047
   90SAPC  H14Y 8643   4.808   5.699   4.786  0.9296  0.5841 -1.4868
   90SAPC  C315 8644   4.972   5.558   4.827 -0.2292  0.7034 -0.2568
   90SAPC  H15X 8645   4.907   5.470   4.844 -0.5966  0.2391 -3.4214
   90SAPC  H15Y 8646   5.055   5.547   4.899 -1.0221  1.4545  0.8045
   90SAPC  C316 8647   5.028   5.543   4.683  0.1037  0.1812  0.0751
   90SAPC  H16X 8648   5.096   5.456   4.686 -0.9048 -0.5996  1.4039
   90SAPC  H16Y 8649   5.080   5.635   4.650  3.2824 -0.9632  1.5052
   90SAPC  C317 8650   4.917   5.515   4.582 -0.1007 -0.2166 -0.1649
   90SAPC  H17X 8651   4.856   5.608   4.579  0.8461  0.4037 -1.4314
   90SAPC  H17Y 8652   4.860   5.428   4.622  3.6071 -1.9757  1.7586
   90SAPC  C318 8653   4.951   5.494   4.430 -0.1399  0.5342  0.2401
   90SAPC  H18X 8654   4.860   5.456   4.378 -0.4097 -1.0626  1.7768
   90SAPC  H18Y 8655   5.037   5.424   4.421 -0.6136 -0.0334  0.0722
   90SAPC  H18Z 8656   4.975   5.591   4.382 -0.7537 -0.1187 -1.4581
   91SAPC     N 8657   1.636   6.752   6.443  0.2142 -0.5127 -0.1251
   91SAPC   C12 8658   1.558   6.836   6.337 -0.5179  0.9648 -0.2642
   91SAPC  H12A 8659   1.558   6.940   6.366  2.9723  1.0387 -0.0856
   91SAPC  H12B 8660   1.457   6.799   6.324 -0.8222  1.9374 -0.7851
   91SAPC   C13 8661   1.590   6.776   6.591  0.4303 -0.1811 -0.2151
   91SAPC  H13A 8662   1.490   6.737   6.602  0.2663 -0.2665 -1.6880
   91SAPC  H13B 8663   1.650   6.721   6.661 -0.4250  0.5258  1.1073
   91SAPC  H13C 8664   1.589   6.882   6.610 -0.3095 -0.7331  3.4248
   91SAPC   C14 8665   1.624   6.606   6.430 -0.6384 -0.2310 -0.6086
   91SAPC  H14A 8666   1.521   6.573   6.431 -0.3317 -1.2120 -0.3420
   91SAPC  H14B 8667   1.653   6.577   6.330 -0.2613  0.4006 -0.6889
   91SAPC  H14C 8668   1.685   6.548   6.497  0.7473  1.7079 -0.1147
   91SAPC   C15 8669   1.773   6.788   6.438  0.4769 -0.2252  0.2511
   91SAPC  H15A 8670   1.787   6.895   6.430 -0.1074 -0.1565  0.1377
   91SAPC  H15B 8671   1.816   6.750   6.529  1.4086 -1.5750 -0.7240
   91SAPC  H15C 8672   1.825   6.752   6.351 -1.0383  0.5288 -1.0190
   91SAPC   C11 8673   1.620   6.836   6.191  0.7038 -0.2707  0.6824
   91SAPC  H11A 8674   1.726   6.868   6.195  0.7171 -0.0307 -1.0474
   91SAPC  H11B 8675   1.567   6.907   6.124  0.5726 -1.3461 -0.3871
   91SAPC     P 8676   1.497   6.639   6.070  0.1946  0.4571 -0.2302
   91SAPC   O13 8677   1.533   6.496   6.054 -0.5198  0.0749  0.1106
   91SAPC   O14 8678   1.373   6.674   6.147 -0.7459  0.0228  1.0049
   91SAPC   O12 8679   1.629   6.711   6.125 -0.0751  0.2774  0.0479
   91SAPC   O11 8680   1.484   6.695   5.923 -0.0683  0.2416  0.5802
   91SAPC    C1 8681   1.601   6.725   5.846  1.2311  0.0916  0.1318
   91SAPC    HA 8682   1.573   6.816   5.788  1.8486 -0.0592 -0.4165
   91SAPC    HB 8683   1.688   6.757   5.907 -0.9049  2.5657  2.0953
   91SAPC    C2 8684   1.647   6.602   5.759  0.0072 -0.4563 -0.3855
   91SAPC    HS 8685   1.663   6.516   5.828 -0.8677 -0.2368  0.1068
   91SAPC   O21 8686   1.762   6.648   5.682  0.4745 -0.2483 -0.0675
   91SAPC   C21 8687   1.884   6.663   5.741  0.2620  0.4793 -0.1726
   91SAPC   O22 8688   1.922   6.627   5.851  0.3876 -0.1056 -0.2367
   91SAPC   C22 8689   1.972   6.692   5.618 -0.9034 -0.1378 -0.7441
   91SAPC   H2R 8690   1.962   6.608   5.546 -1.0528 -2.0490  1.4039
   91SAPC   H2S 8691   1.935   6.788   5.575  0.0289  0.2884 -0.6121
   91SAPC    C3 8692   1.539   6.542   5.659  0.4898  0.4159  0.3332
   91SAPC    HX 8693   1.464   6.623   5.644 -1.5775 -1.3598  0.5848
   91SAPC    HY 8694   1.482   6.475   5.727  3.4451 -0.7237  1.8613
   91SAPC   O31 8695   1.601   6.492   5.543  0.0712 -0.5189  0.1102
   91SAPC   C31 8696   1.630   6.367   5.536 -0.1031  0.3264  0.4326
   91SAPC   O32 8697   1.580   6.282   5.605 -0.2980  0.0390 -0.5183
   91SAPC   C32 8698   1.727   6.335   5.427 -0.8186  0.1272  0.2154
   91SAPC   H2X 8699   1.785   6.242   5.443  0.0726  0.5528 -0.4245
   91SAPC   H2Y 8700   1.803   6.415   5.439 -0.8939  0.6850 -2.4598
   91SAPC   C23 8701   2.116   6.729   5.659  0.3406 -0.2144  0.0532
   91SAPC   H3R 8702   2.155   6.647   5.724 -2.6964 -1.5622  0.3717
   91SAPC   H3S 8703   2.127   6.814   5.729 -1.0144  0.8398 -0.9673
   91SAPC   C24 8704   2.206   6.757   5.538  0.3040 -0.4030 -0.5926
   91SAPC   H4R 8705   2.156   6.825   5.465 -0.6339  0.8421  1.1415
   91SAPC   H4S 8706   2.213   6.669   5.470  1.8704  2.0125 -3.8230
   91SAPC   C25 8707   2.349   6.805   5.562  0.2888  0.2448  0.4460
   91SAPC   H5R 8708   2.394   6.748   5.644  1.0025 -0.3607 -0.3506
   91SAPC   C26 8709   2.402   6.915   5.501  0.0217 -0.5208 -0.3197
   91SAPC   H6R 8710   2.508   6.934   5.524 -0.4012  2.3952 -0.3650
   91SAPC   C27 8711   2.329   7.024   5.417 -0.3414  0.7523 -0.5188
   91SAPC   H7R 8712   2.228   7.042   5.459 -0.2011  1.4607 -0.4757
   91SAPC   H7S 8713   2.317   7.003   5.308 -3.7843 -0.6317  0.0015
   91SAPC   C28 8714   2.407   7.147   5.441 -1.0376 -0.4164 -0.0270
   91SAPC   H8R 8715   2.416   7.191   5.542  1.5476  2.7861 -1.5036
   91SAPC   C29 8716   2.477   7.212   5.337  0.1157  0.0607 -0.5185
   91SAPC   H9R 8717   2.540   7.296   5.369 -0.7112 -0.1787  1.9501
   91SAPC  C210 8718   2.495   7.176   5.190 -0.1818  0.0396  0.4750
   91SAPC  H10R 8719   2.430   7.088   5.170 -0.2647  0.4126 -0.9930
   91SAPC  H10S 8720   2.596   7.136   5.169 -0.2732 -0.8304  1.5675
   91SAPC  C211 8721   2.469   7.283   5.084 -0.2990  0.6194 -0.6300
   91SAPC  H11R 8722   2.459   7.386   5.121  2.1123  0.0502  1.9386
   91SAPC  C212 8723   2.439   7.262   4.955 -0.7089  1.1310 -0.4404
   91SAPC  H12R 8724   2.430   7.354   4.896  0.1630  0.4575 -1.6784
   91SAPC  C213 8725   2.432   7.121   4.888 -0.1930 -0.0223  0.6756
   91SAPC  H13R 8726   2.370   7.119   4.796  0.2798 -1.8210  0.3567
   91SAPC  H13S 8727   2.388   7.045   4.957  0.0755  0.7129  1.6854
   91SAPC  C214 8728   2.562   7.086   4.832 -0.0865  0.2303 -0.1212
   91SAPC  H14R 8729   2.650   7.136   4.875  0.6924 -3.0907  2.7261
   91SAPC  C215 8730   2.590   6.969   4.762 -0.3554  0.2091  0.0697
   91SAPC  H15R 8731   2.692   6.964   4.722  0.7776 -2.9577  2.9006
   91SAPC  C216 8732   2.497   6.861   4.710  0.0385 -0.0660  0.2595
   91SAPC  H16R 8733   2.473   6.874   4.603 -0.5945  1.6967  0.5807
   91SAPC  H16S 8734   2.399   6.882   4.759 -0.5877  1.6164 -1.6274
   91SAPC  C217 8735   2.551   6.713   4.732 -0.6677  0.4997 -0.0541
   91SAPC  H17R 8736   2.577   6.698   4.839 -1.5161 -0.7849 -0.0018
   91SAPC  H17S 8737   2.648   6.710   4.677  0.6836  3.7441  1.8137
   91SAPC  C218 8738   2.452   6.602   4.694  0.7731 -0.2621  0.6686
   91SAPC  H18R 8739   2.362   6.614   4.757  0.4951  0.0198  0.2226
   91SAPC  H18S 8740   2.484   6.497   4.709  0.7368 -0.3439  0.1669
   91SAPC  C219 8741   2.406   6.600   4.544  0.2514 -0.3530  0.0853
   91SAPC  H19R 8742   2.338   6.688   4.538 -0.3254 -0.7024  1.1169
   91SAPC  H19S 8743   2.336   6.514   4.532  0.7443 -0.7796  0.2560
   91SAPC  C220 8744   2.517   6.592   4.444  0.5561  0.1803 -0.5311
   91SAPC  H20R 8745   2.490   6.533   4.353  0.1724  0.2752 -0.4790
   91SAPC  H20S 8746   2.607   6.544   4.488 -1.9147 -2.7252  1.8159
   91SAPC  H20T 8747   2.538   6.693   4.405 -0.6503  0.3745 -0.7172
   91SAPC   C33 8748   1.668   6.337   5.287  0.0314  0.4556 -0.1974
   91SAPC   H3X 8749   1.629   6.439   5.266  2.2690  1.5094  0.4634
   91SAPC   H3Y 8750   1.584   6.263   5.285  2.0599 -1.9652 -1.5029
   91SAPC   C34 8751   1.762   6.301   5.167 -0.2891  0.0957 -0.3176
   91SAPC   H4X 8752   1.820   6.206   5.174  0.1863  0.2678 -1.7097
   91SAPC   H4Y 8753   1.823   6.394   5.163 -1.9498  1.2871  0.7650
   91SAPC   C35 8754   1.694   6.282   5.033  0.8917  0.0377  0.1185
   91SAPC   H5X 8755   1.640   6.376   5.009  1.9327  0.8672  0.9187
   91SAPC   H5Y 8756   1.622   6.198   5.038 -0.4722  1.0797 -1.0300
   91SAPC   C36 8757   1.791   6.240   4.920  0.1319 -0.5607  0.0794
   91SAPC   H6X 8758   1.847   6.147   4.939 -0.0803 -0.8215 -0.5218
   91SAPC   H6Y 8759   1.863   6.325   4.917 -2.0932  1.4678 -0.0388
   91SAPC   C37 8760   1.718   6.217   4.783 -0.1217  0.7531  0.6911
   91SAPC   H7X 8761   1.654   6.304   4.754 -2.2359 -1.0459 -0.3793
   91SAPC   H7Y 8762   1.648   6.132   4.798 -1.1152  0.9416 -2.2468
   91SAPC   C38 8763   1.816   6.183   4.669  0.2520  0.2021 -0.1938
   91SAPC   H8X 8764   1.886   6.101   4.694  0.7662  0.8977  0.7094
   91SAPC   H8Y 8765   1.877   6.273   4.646 -0.2629  0.9798  1.3159
   91SAPC   C39 8766   1.743   6.141   4.535  0.1046  0.1674  0.0920
   91SAPC   H9X 8767   1.668   6.223   4.538  0.2750  0.3095  0.6975
   91SAPC   H9Y 8768   1.693   6.042   4.537 -3.1166  1.6449 -0.5004
   91SAPC  C310 8769   1.830   6.160   4.407  0.4262  0.3958 -0.0199
   91SAPC  H10X 8770   1.885   6.068   4.379  0.4931  0.8323 -1.4298
   91SAPC  H10Y 8771   1.895   6.249   4.417 -1.2961  1.4839  2.7539
   91SAPC  C311 8772   1.745   6.181   4.277 -0.0969  0.1679  0.3401
   91SAPC  H11X 8773   1.666   6.255   4.299  0.0398 -0.0998  1.7859
   91SAPC  H11Y 8774   1.692   6.086   4.253  0.3421 -0.5044  1.9079
   91SAPC  C312 8775   1.838   6.225   4.157  1.0931  0.4027  0.9175
   91SAPC  H12X 8776   1.933   6.168   4.167  0.4970 -0.4426  2.1168
   91SAPC  H12Y 8777   1.860   6.333   4.163 -0.2492  0.8020 -0.7067
   91SAPC  C313 8778   1.781   6.193   4.022 -0.5966 -0.8092 -0.1851
   91SAPC  H13X 8779   1.758   6.085   4.010 -0.8278 -0.7700 -0.0782
   91SAPC  H13Y 8780   1.866   6.205   3.951 -0.5450  0.9580  0.1285
   91SAPC  C314 8781   1.668   6.298   3.987  0.8004  0.4824 -0.5059
   91SAPC  H14X 8782   1.671   6.382   4.061  0.6985 -2.0042  2.5351
   91SAPC  H14Y 8783   1.569   6.253   4.011  0.3534  1.8226  0.2874
   91SAPC  C315 8784   1.667   6.349   3.839  0.2855  0.3023  0.1807
   91SAPC  H15X 8785   1.649   6.260   3.774  0.3867  1.0381 -0.8852
   91SAPC  H15Y 8786   1.763   6.390   3.800 -1.5449  4.2798 -0.6872
   91SAPC  C316 8787   1.566   6.458   3.806 -0.2331 -0.1799  0.3054
   91SAPC  H16X 8788   1.592   6.546   3.869  0.3528 -0.0965 -0.0425
   91SAPC  H16Y 8789   1.463   6.432   3.839 -0.5553  0.4782 -0.1675
   91SAPC  C317 8790   1.558   6.500   3.659  0.2118 -0.0908 -0.4849
   91SAPC  H17X 8791   1.607   6.416   3.606  1.7853  0.9049 -0.6750
   91SAPC  H17Y 8792   1.628   6.583   3.635 -0.1237 -0.6990 -4.2063
   91SAPC  C318 8793   1.419   6.524   3.602  0.2535 -0.7862  0.1394
   91SAPC  H18X 8794   1.359   6.594   3.663 -0.9191 -1.6662  0.0181
   91SAPC  H18Y 8795   1.361   6.430   3.595 -2.0736  0.6347 -0.9087
   91SAPC  H18Z 8796   1.427   6.563   3.498  1.3216 -1.4752 -0.0548
   92SAPC     N 8797   5.553   5.207   6.808 -0.6385 -0.4007  0.0260
   92SAPC   C12 8798   5.694   5.203   6.751 -0.0360  0.6861 -0.4055
   92SAPC  H12A 8799   5.734   5.104   6.739  2.9659  1.3041  2.7729
   92SAPC  H12B 8800   5.750   5.239   6.836 -0.9435 -1.1876  1.0631
   92SAPC   C13 8801   5.460   5.167   6.708  0.0066  0.1006  0.4712
   92SAPC  H13A 8802   5.477   5.204   6.607  0.4166  0.4042  0.6503
   92SAPC  H13B 8803   5.477   5.064   6.683 -2.1443  0.0202 -0.8833
   92SAPC  H13C 8804   5.358   5.178   6.741 -0.3633 -0.3992 -0.4446
   92SAPC   C14 8805   5.531   5.117   6.924 -0.3541  0.2410  0.1550
   92SAPC  H14A 8806   5.449   5.154   6.983 -0.7039  0.0791 -0.2221
   92SAPC  H14B 8807   5.500   5.020   6.888 -0.5726  0.5834 -0.5960
   92SAPC  H14C 8808   5.619   5.096   6.983  0.4188 -1.9725 -1.6420
   92SAPC   C15 8809   5.522   5.345   6.854 -0.8740 -0.3623 -0.4040
   92SAPC  H15A 8810   5.571   5.381   6.943  0.0138  0.8160 -1.3193
   92SAPC  H15B 8811   5.556   5.420   6.784  4.0256 -0.6886  1.2249
   92SAPC  H15C 8812   5.419   5.361   6.880  0.2452  1.4923  3.7567
   92SAPC   C11 8813   5.727   5.296   6.628  0.4886  0.3564  0.1900
   92SAPC  H11A 8814   5.673   5.259   6.539  0.8612  0.0680  0.0796
   92SAPC  H11B 8815   5.836   5.280   6.613  0.2485 -0.6832 -0.6018
   92SAPC     P 8816   5.624   5.527   6.558 -0.2764 -0.3574  0.0506
   92SAPC   O13 8817   5.484   5.492   6.572  0.2675  0.4139 -0.3605
   92SAPC   O14 8818   5.659   5.671   6.574  0.2758  0.2654  0.2066
   92SAPC   O12 8819   5.712   5.433   6.652 -0.2067 -0.4033 -0.4897
   92SAPC   O11 8820   5.673   5.472   6.424 -0.1599  0.2415  1.0476
   92SAPC    C1 8821   5.805   5.485   6.378 -0.4079  0.3395  0.0667
   92SAPC    HA 8822   5.825   5.592   6.356 -0.7311  0.9615  2.4483
   92SAPC    HB 8823   5.884   5.460   6.453 -0.5643 -1.0755 -0.2001
   92SAPC    C2 8824   5.845   5.404   6.252  0.7746  0.5432 -0.0321
   92SAPC    HS 8825   5.947   5.436   6.222 -0.1004  2.5624 -1.0217
   92SAPC   O21 8826   5.744   5.414   6.145 -0.2959  0.5140  0.0439
   92SAPC   C21 8827   5.752   5.528   6.091 -0.9239 -0.2507  0.1954
   92SAPC   O22 8828   5.832   5.618   6.122 -0.4826 -0.7239 -0.9452
   92SAPC   C22 8829   5.640   5.546   5.991 -0.7872  0.9138  0.2107
   92SAPC   H2R 8830   5.653   5.458   5.926 -0.3891 -1.0005  2.7252
   92SAPC   H2S 8831   5.549   5.520   6.050 -0.3732 -0.1143  0.4163
   92SAPC    C3 8832   5.852   5.257   6.297 -0.1668  0.9017  0.5854
   92SAPC    HX 8833   5.754   5.227   6.341 -0.0060 -1.9444 -0.7591
   92SAPC    HY 8834   5.929   5.251   6.376  2.3559  1.5554 -1.6823
   92SAPC   O31 8835   5.883   5.168   6.188 -0.0477 -0.2188 -0.1098
   92SAPC   C31 8836   5.882   5.045   6.220 -0.0099  1.1467 -0.1606
   92SAPC   O32 8837   5.847   5.004   6.333  0.4147 -0.1274 -0.2658
   92SAPC   C32 8838   5.914   4.953   6.097 -0.4788  0.0048 -0.3908
   92SAPC   H2X 8839   6.013   4.910   6.121  0.6771  2.0533 -1.2776
   92SAPC   H2Y 8840   5.937   5.021   6.012 -0.2745  0.5210  0.0717
   92SAPC   C23 8841   5.617   5.671   5.902  0.1628  0.2364 -0.4870
   92SAPC   H3R 8842   5.718   5.702   5.867  0.6843  0.9389  1.5222
   92SAPC   H3S 8843   5.582   5.755   5.966  0.8110 -0.1902  0.4515
   92SAPC   C24 8844   5.516   5.650   5.780  0.4885  0.2679  0.2080
   92SAPC   H4R 8845   5.413   5.621   5.809  0.3195  0.5410 -0.1178
   92SAPC   H4S 8846   5.565   5.566   5.726  1.0300  1.1034 -0.6121
   92SAPC   C25 8847   5.500   5.767   5.681 -0.3268  0.1038  0.0569
   92SAPC   H5R 8848   5.463   5.858   5.732 -0.7109 -1.3382  2.5056
   92SAPC   C26 8849   5.516   5.771   5.548  0.5791 -0.2641  0.2014
   92SAPC   H6R 8850   5.504   5.863   5.489 -2.1577 -0.5057  0.2645
   92SAPC   C27 8851   5.580   5.660   5.470 -0.3609 -0.5617  0.3446
   92SAPC   H7R 8852   5.510   5.574   5.465  0.0531 -0.8686 -0.3957
   92SAPC   H7S 8853   5.671   5.628   5.525 -0.0892  0.5759  0.5765
   92SAPC   C28 8854   5.608   5.701   5.327 -0.4005  0.8368 -0.1036
   92SAPC   H8R 8855   5.525   5.736   5.265 -0.2324 -0.5176 -1.1321
   92SAPC   C29 8856   5.735   5.705   5.274  0.2119 -1.0194  0.6774
   92SAPC   H9R 8857   5.742   5.736   5.169 -0.0538  4.3376  1.9338
   92SAPC  C210 8858   5.873   5.663   5.328 -0.2693 -0.0993 -0.0301
   92SAPC  H10R 8859   5.858   5.564   5.375 -1.2275  0.5094  0.9892
   92SAPC  H10S 8860   5.892   5.727   5.416  0.6524 -0.8687  0.3452
   92SAPC  C211 8861   5.989   5.656   5.231 -0.6009 -0.3298 -0.0912
   92SAPC  H11R 8862   6.022   5.554   5.204 -1.9614 -0.5686 -1.0251
   92SAPC  C212 8863   6.054   5.759   5.173 -0.4784 -0.3208  0.0070
   92SAPC  H12R 8864   6.130   5.751   5.094 -0.6778  2.1528 -0.5128
   92SAPC  C213 8865   6.018   5.901   5.210  0.1163 -0.4541 -0.1396
   92SAPC  H13R 8866   5.968   5.912   5.308 -1.8604  0.0430 -1.1358
   92SAPC  H13S 8867   5.930   5.921   5.144  0.0319 -1.5337 -0.3774
   92SAPC  C214 8868   6.128   6.002   5.198  0.4742 -0.5763  0.3689
   92SAPC  H14R 8869   6.167   6.047   5.291 -0.6631 -1.7014  1.4358
   92SAPC  C215 8870   6.185   6.041   5.083  0.5470  0.0525 -0.0830
   92SAPC  H15R 8871   6.266   6.113   5.101  0.8580 -0.4378  0.5132
   92SAPC  C216 8872   6.156   5.994   4.941 -0.8300 -0.5430  0.4687
   92SAPC  H16R 8873   6.087   5.908   4.934  0.5333 -1.6029 -0.4265
   92SAPC  H16S 8874   6.250   5.955   4.895 -1.5478 -1.6434 -0.0828
   92SAPC  C217 8875   6.113   6.116   4.843  0.0343  0.4073 -0.6633
   92SAPC  H17R 8876   6.026   6.176   4.878 -0.5602  1.0036 -2.9933
   92SAPC  H17S 8877   6.087   6.077   4.742 -2.4968 -0.6135  0.2906
   92SAPC  C218 8878   6.226   6.219   4.814  0.3620 -0.3028  0.2920
   92SAPC  H18R 8879   6.243   6.280   4.906 -0.9268  1.6693 -0.7000
   92SAPC  H18S 8880   6.184   6.291   4.740 -1.4263 -1.3609  0.2304
   92SAPC  C219 8881   6.360   6.168   4.756 -0.4355 -1.1876 -0.1510
   92SAPC  H19R 8882   6.394   6.090   4.827 -2.2621  1.4511  3.9928
   92SAPC  H19S 8883   6.437   6.248   4.757  0.9647 -2.5004 -0.5175
   92SAPC  C220 8884   6.342   6.115   4.615 -0.4160 -0.0768  0.1217
   92SAPC  H20R 8885   6.435   6.069   4.574 -1.1193  2.0194 -4.4800
   92SAPC  H20S 8886   6.313   6.192   4.540 -0.1766 -1.2130 -1.1979
   92SAPC  H20T 8887   6.270   6.031   4.609  1.6611 -2.0702  1.2431
   92SAPC   C33 8888   5.814   4.839   6.069 -0.1469  0.4670 -0.2024
   92SAPC   H3X 8889   5.718   4.876   6.028 -1.6231 -3.4635 -0.7027
   92SAPC   H3Y 8890   5.798   4.782   6.163  2.0194  1.1622  0.6534
   92SAPC   C34 8891   5.872   4.750   5.960 -0.7348 -0.8999 -0.4701
   92SAPC   H4X 8892   5.834   4.648   5.984 -1.3026 -0.5097  0.3061
   92SAPC   H4Y 8893   5.981   4.747   5.978 -0.4194  1.1485 -1.7027
   92SAPC   C35 8894   5.835   4.803   5.816 -0.6043 -0.1844  0.1617
   92SAPC   H5X 8895   5.886   4.902   5.808  1.3711 -0.9702  1.9462
   92SAPC   H5Y 8896   5.726   4.819   5.806 -1.1936 -2.0908  2.6642
   92SAPC   C36 8897   5.882   4.702   5.715  0.1536 -0.5436 -0.3186
   92SAPC   H6X 8898   5.844   4.601   5.743 -0.3296 -0.0765  0.7653
   92SAPC   H6Y 8899   5.991   4.693   5.735  0.2616  3.0435  1.5196
   92SAPC   C37 8900   5.863   4.722   5.568 -0.1015 -0.3948 -0.2898
   92SAPC   H7X 8901   5.759   4.750   5.542  0.1108 -0.4261 -1.2209
   92SAPC   H7Y 8902   5.887   4.626   5.518  2.0660  0.6199 -1.3293
   92SAPC   C38 8903   5.953   4.832   5.511  0.4591  0.3647 -0.1907
   92SAPC   H8X 8904   6.061   4.807   5.513  0.3944  0.0652 -0.4683
   92SAPC   H8Y 8905   5.946   4.917   5.582 -2.9230 -1.0602  1.3674
   92SAPC   C39 8906   5.923   4.851   5.363 -0.1070 -0.1141  0.7133
   92SAPC   H9X 8907   5.956   4.757   5.313 -2.5128  0.4552 -2.2383
   92SAPC   H9Y 8908   5.984   4.936   5.327  1.2061 -1.6299 -0.8326
   92SAPC  C310 8909   5.775   4.878   5.323 -0.1196  0.6208  0.1668
   92SAPC  H10X 8910   5.714   4.926   5.403  0.6740  0.2211  1.0222
   92SAPC  H10Y 8911   5.731   4.779   5.299  2.0552 -0.3354 -0.0464
   92SAPC  C311 8912   5.757   4.974   5.203 -0.0751  0.4588 -0.3774
   92SAPC  H11X 8913   5.820   5.062   5.226 -0.2223  0.6498 -0.6978
   92SAPC  H11Y 8914   5.652   5.002   5.180 -0.0994  1.0464  0.4050
   92SAPC  C312 8915   5.806   4.930   5.064  0.3314  0.1530 -0.0907
   92SAPC  H12X 8916   5.749   4.837   5.043  0.8980  0.3532 -2.9558
   92SAPC  H12Y 8917   5.914   4.913   5.045  0.0092 -0.6127 -1.3694
   92SAPC  C313 8918   5.768   5.034   4.952  1.0469 -0.8063 -0.3891
   92SAPC  H13X 8919   5.833   5.123   4.970 -0.9506  0.6679 -0.0842
   92SAPC  H13Y 8920   5.663   5.070   4.955  1.6873  1.2544 -1.0895
   92SAPC  C314 8921   5.789   4.973   4.808 -0.0437 -1.0990 -0.0058
   92SAPC  H14X 8922   5.887   4.921   4.798  1.7466  2.2288 -1.7367
   92SAPC  H14Y 8923   5.797   5.055   4.734  1.7590 -2.9556 -2.0075
   92SAPC  C315 8924   5.685   4.879   4.757  0.3104 -0.4755  0.0176
   92SAPC  H15X 8925   5.673   4.794   4.828 -0.0294 -1.1127 -0.7822
   92SAPC  H15Y 8926   5.711   4.843   4.656 -0.6420 -2.4881  0.4292
   92SAPC  C316 8927   5.553   4.957   4.732  0.0182  0.1834 -0.8393
   92SAPC  H16X 8928   5.571   5.060   4.693 -1.1507  0.6453 -0.2225
   92SAPC  H16Y 8929   5.506   4.968   4.832  3.0003 -1.4272  0.8619
   92SAPC  C317 8930   5.470   4.898   4.625  0.6322 -0.3549 -0.7661
   92SAPC  H17X 8931   5.451   4.793   4.655 -2.1939  0.1843 -0.4391
   92SAPC  H17Y 8932   5.506   4.896   4.520  0.1884 -0.0787 -0.9252
   92SAPC  C318 8933   5.328   4.960   4.619  0.2243  0.2964  0.2548
   92SAPC  H18X 8934   5.324   5.069   4.596 -1.4018  0.1920 -0.0897
   92SAPC  H18Y 8935   5.272   4.946   4.714 -0.3193  1.2933  0.1008
   92SAPC  H18Z 8936   5.266   4.900   4.550 -0.4805 -0.2705  1.3556
   93SAPC     N 8937   6.405   0.211   6.774 -0.1480  0.7559 -0.1833
   93SAPC   C12 8938   6.397   0.128   6.653 -0.1229  0.9079  0.2792
   93SAPC  H12A 8939   6.297   0.113   6.613  0.4922 -0.6854 -0.7605
   93SAPC  H12B 8940   6.427   0.030   6.685 -1.2184  0.8563  1.2087
   93SAPC   C13 8941   6.548   0.239   6.815  0.1311 -0.2627 -0.2812
   93SAPC  H13A 8942   6.608   0.153   6.840  1.2867 -0.1770 -2.4820
   93SAPC  H13B 8943   6.597   0.285   6.731 -3.3230  1.4637 -1.5469
   93SAPC  H13C 8944   6.552   0.305   6.900 -0.4829 -0.0514 -0.4067
   93SAPC   C14 8945   6.338   0.343   6.762  0.3227  0.1286  0.3408
   93SAPC  H14A 8946   6.232   0.326   6.745  0.6652 -1.9741  0.0487
   93SAPC  H14B 8947   6.327   0.401   6.853 -1.9173  0.7908 -0.2894
   93SAPC  H14C 8948   6.380   0.399   6.680  1.9247 -1.0365  0.3110
   93SAPC   C15 8949   6.334   0.127   6.879  0.0547 -0.2039 -0.0128
   93SAPC  H15A 8950   6.391   0.046   6.922  2.3844  0.9876 -0.7125
   93SAPC  H15B 8951   6.316   0.200   6.955  1.4412  1.4860 -1.2420
   93SAPC  H15C 8952   6.236   0.097   6.844 -0.3315  0.0521  0.8275
   93SAPC   C11 8953   6.478   0.170   6.525 -0.3126 -0.1794  0.1487
   93SAPC  H11A 8954   6.460   0.109   6.434  1.5502 -1.1375  0.3658
   93SAPC  H11B 8955   6.583   0.149   6.555 -0.6252 -0.6865  0.9375
   93SAPC     P 8956   6.382   0.367   6.372  0.6668 -0.0101  0.2942
   93SAPC   O13 8957   6.259   0.282   6.358  0.0363  0.3249 -0.0431
   93SAPC   O14 8958   6.366   0.513   6.385 -0.2741 -0.0233 -0.2082
   93SAPC   O12 8959   6.470   0.308   6.491 -0.1232 -0.1551  0.0097
   93SAPC   O11 8960   6.473   0.336   6.245 -0.0501 -0.3445 -0.1941
   93SAPC    C1 8961   6.615   0.360   6.244 -0.2041  0.8832 -0.2924
   93SAPC    HA 8962   6.634   0.444   6.314 -1.4838 -0.3380  1.6379
   93SAPC    HB 8963   6.667   0.270   6.285  0.1974  1.3294  0.1942
   93SAPC    C2 8964   6.666   0.408   6.105 -0.8635  0.8264 -0.4871
   93SAPC    HS 8965   6.758   0.470   6.115  0.0612 -0.6052  0.1649
   93SAPC   O21 8966   6.559   0.489   6.048 -0.2050  0.0913  0.0311
   93SAPC   C21 8967   6.574   0.622   6.091  0.8518  0.2735  0.0908
   93SAPC   O22 8968   6.656   0.659   6.168  0.1276  0.4470 -0.4991
   93SAPC   C22 8969   6.470   0.704   6.028  0.3750 -0.0662  0.7330
   93SAPC   H2R 8970   6.414   0.641   5.956  1.2427 -0.4765  0.4052
   93SAPC   H2S 8971   6.406   0.744   6.110  0.1257 -1.1951  1.1157
   93SAPC    C3 8972   6.692   0.290   6.010  0.6087 -0.0368  0.0871
   93SAPC    HX 8973   6.593   0.251   5.981  0.7875 -0.5906  0.2068
   93SAPC    HY 8974   6.747   0.203   6.053  0.1944 -0.9442 -1.1506
   93SAPC   O31 8975   6.771   0.325   5.891  0.1068  0.0337 -0.1818
   93SAPC   C31 8976   6.748   0.260   5.779  0.4487  0.5211  0.4947
   93SAPC   O32 8977   6.680   0.161   5.762  0.7702 -0.3687 -0.0068
   93SAPC   C32 8978   6.820   0.332   5.672  0.3510 -0.3405  0.0897
   93SAPC   H2X 8979   6.924   0.293   5.663 -0.1980 -1.6935 -0.7993
   93SAPC   H2Y 8980   6.829   0.440   5.695  1.4063 -0.8784  2.6175
   93SAPC   C23 8981   6.512   0.841   5.960 -0.2224  0.6849 -0.5332
   93SAPC   H3R 8982   6.556   0.913   6.032  0.1764 -1.3751  1.4077
   93SAPC   H3S 8983   6.418   0.893   5.929  0.8109  4.3295  1.8133
   93SAPC   C24 8984   6.592   0.823   5.832  0.6717  0.4395 -1.1340
   93SAPC   H4R 8985   6.697   0.799   5.858 -0.1628 -1.0755  1.2531
   93SAPC   H4S 8986   6.596   0.928   5.797  0.8033  0.7973 -0.0860
   93SAPC   C25 8987   6.547   0.721   5.737 -0.5292  0.8734  0.0352
   93SAPC   H5R 8988   6.544   0.613   5.758 -1.1806  0.8909  0.0511
   93SAPC   C26 8989   6.504   0.743   5.614  0.6269  0.3201 -0.1067
   93SAPC   H6R 8990   6.454   0.662   5.560 -0.0607  0.1482  0.7519
   93SAPC   C27 8991   6.489   0.882   5.550  0.8784  0.9255 -0.1145
   93SAPC   H7R 8992   6.588   0.928   5.530  0.0303  2.2741 -1.3786
   93SAPC   H7S 8993   6.434   0.946   5.622  0.6349 -1.2136  1.7074
   93SAPC   C28 8994   6.406   0.898   5.425 -0.4123  0.4443 -0.0824
   93SAPC   H8R 8995   6.299   0.875   5.429 -0.1399 -0.7937  0.7365
   93SAPC   C29 8996   6.443   0.928   5.304  0.5837 -0.3538 -0.1260
   93SAPC   H9R 8997   6.371   0.913   5.222  2.0412  1.3307 -1.8267
   93SAPC  C210 8998   6.579   0.946   5.247  0.2845  0.5386  0.4241
   93SAPC  H10R 8999   6.654   0.907   5.319 -0.7843 -0.6217  0.9303
   93SAPC  H10S 9000   6.582   1.057   5.235 -1.1219  0.4193 -1.3660
   93SAPC  C211 9001   6.609   0.887   5.102  0.0483 -0.1896 -0.2044
   93SAPC  H11R 9002   6.627   0.779   5.098  0.2299 -0.1703  0.0477
   93SAPC  C212 9003   6.603   0.948   4.978  0.0196 -0.4312 -0.2970
   93SAPC  H12R 9004   6.623   0.894   4.885 -2.2591  0.1800 -1.1928
   93SAPC  C213 9005   6.573   1.095   4.958  0.2099  0.0561  0.0254
   93SAPC  H13R 9006   6.516   1.142   5.041  2.0370  1.7204  0.3949
   93SAPC  H13S 9007   6.509   1.095   4.867 -0.8859 -1.2404  0.7537
   93SAPC  C214 9008   6.701   1.168   4.944 -0.1718  0.1196 -0.0621
   93SAPC  H14R 9009   6.742   1.212   5.036  2.2609 -2.0173  0.0005
   93SAPC  C215 9010   6.772   1.190   4.837  0.6154 -0.4744  0.1070
   93SAPC  H15R 9011   6.863   1.251   4.828  0.8736 -1.1477 -2.4879
   93SAPC  C216 9012   6.715   1.145   4.704 -0.2495  0.0556 -0.1204
   93SAPC  H16R 9013   6.618   1.093   4.693 -0.6486  1.0027 -1.3196
   93SAPC  H16S 9014   6.783   1.077   4.649  0.4716  0.4628  0.2432
   93SAPC  C217 9015   6.689   1.275   4.627 -0.0107 -0.2292 -0.2229
   93SAPC  H17R 9016   6.786   1.291   4.575 -0.4699 -4.1969 -2.7754
   93SAPC  H17S 9017   6.637   1.345   4.695  0.5766 -0.9083  0.9534
   93SAPC  C218 9018   6.599   1.253   4.510 -0.3233 -0.5379  0.6278
   93SAPC  H18R 9019   6.502   1.205   4.535 -1.3610  1.0565 -0.2185
   93SAPC  H18S 9020   6.660   1.188   4.443  1.2594 -0.1900  1.6846
   93SAPC  C219 9021   6.587   1.391   4.435  0.6213  0.2373 -0.1922
   93SAPC  H19R 9022   6.690   1.430   4.422  1.4190 -0.8115  2.2893
   93SAPC  H19S 9023   6.522   1.460   4.493 -0.1111  0.6856 -1.5120
   93SAPC  C220 9024   6.514   1.381   4.297 -0.3046  0.3209 -0.6954
   93SAPC  H20R 9025   6.575   1.312   4.234  3.1594  0.9012  1.7597
   93SAPC  H20S 9026   6.496   1.471   4.234 -2.4712 -1.0572 -2.1935
   93SAPC  H20T 9027   6.418   1.329   4.321 -0.7943  1.0466 -1.0645
   93SAPC   C33 9028   6.752   0.305   5.532  0.2247  0.0831 -0.3234
   93SAPC   H3X 9029   6.694   0.210   5.521 -1.2726  0.4139  3.3522
   93SAPC   H3Y 9030   6.836   0.311   5.460 -0.1650 -0.7065 -0.8660
   93SAPC   C34 9031   6.656   0.404   5.480  0.2749 -0.4728  0.5879
   93SAPC   H4X 9032   6.690   0.508   5.497 -0.2122 -0.1063 -0.5843
   93SAPC   H4Y 9033   6.558   0.404   5.533 -0.0462 -0.7804  0.0030
   93SAPC   C35 9034   6.639   0.393   5.334 -0.2160 -0.2065 -0.3376
   93SAPC   H5X 9035   6.607   0.290   5.305  1.2479 -0.6715 -0.3627
   93SAPC   H5Y 9036   6.737   0.396   5.283 -0.8878 -3.3855 -2.1360
   93SAPC   C36 9037   6.547   0.502   5.283  0.4476  0.0690  0.8150
   93SAPC   H6X 9038   6.578   0.602   5.321 -1.0842  1.1500 -0.6347
   93SAPC   H6Y 9039   6.441   0.485   5.312  0.3594  1.1301  1.1615
   93SAPC   C37 9040   6.562   0.519   5.129 -0.4800  0.7465  0.0386
   93SAPC   H7X 9041   6.667   0.551   5.108 -0.7475  3.0158  1.8558
   93SAPC   H7Y 9042   6.501   0.606   5.097  0.5746  0.9613 -1.5121
   93SAPC   C38 9043   6.525   0.399   5.055  0.3054 -0.9878 -0.0202
   93SAPC   H8X 9044   6.423   0.368   5.087 -0.2817  1.0352  0.1922
   93SAPC   H8Y 9045   6.600   0.318   5.069  1.1993 -0.5056 -1.7102
   93SAPC   C39 9046   6.524   0.426   4.902  0.6740 -0.0959  0.6953
   93SAPC   H9X 9047   6.451   0.503   4.872 -1.0809 -2.3277 -1.1974
   93SAPC   H9Y 9048   6.488   0.339   4.843  0.4712  1.0103 -0.8619
   93SAPC  C310 9049   6.658   0.446   4.842  0.4460 -0.6891 -0.5482
   93SAPC  H10X 9050   6.684   0.551   4.866  1.3159 -1.3357  1.5222
   93SAPC  H10Y 9051   6.646   0.433   4.732  1.2069 -1.6020 -0.5402
   93SAPC  C311 9052   6.769   0.350   4.889 -0.3720  0.3765 -0.5788
   93SAPC  H11X 9053   6.729   0.247   4.903 -1.1688  0.7295 -0.2206
   93SAPC  H11Y 9054   6.796   0.383   4.991  0.0381 -2.6475  0.3891
   93SAPC  C312 9055   6.893   0.346   4.800  0.1844  0.1268  0.0416
   93SAPC  H12X 9056   6.923   0.450   4.774  1.4664  0.1284  1.3582
   93SAPC  H12Y 9057   6.852   0.296   4.710  0.1447  0.6271 -0.2216
   93SAPC  C313 9058   7.008   0.269   4.867 -0.1254 -0.5586  0.0039
   93SAPC  H13X 9059   7.081   0.237   4.791  2.2190 -0.1162  1.9465
   93SAPC  H13Y 9060   6.964   0.180   4.918 -2.1639  0.3467 -0.0649
   93SAPC  C314 9061   7.084   0.344   4.969 -0.4680 -0.5200 -0.2001
   93SAPC  H14X 9062   7.019   0.387   5.048 -0.9684  0.0442 -0.8982
   93SAPC  H14Y 9063   7.137   0.431   4.924 -1.3163 -0.3459 -0.8925
   93SAPC  C315 9064   7.190   0.252   5.028  0.2330  1.0486  0.3339
   93SAPC  H15X 9065   7.258   0.253   4.940 -1.7146  0.0136 -1.2681
   93SAPC  H15Y 9066   7.153   0.147   5.033  0.0426  1.0730 -0.5043
   93SAPC  C316 9067   7.254   0.296   5.156  0.0378 -0.0869 -0.0659
   93SAPC  H16X 9068   7.264   0.406   5.166  0.6183 -0.2180  0.8925
   93SAPC  H16Y 9069   7.349   0.241   5.172 -0.4798 -1.4523 -1.4562
   93SAPC  C317 9070   7.164   0.257   5.279  0.3421  0.0854  0.1314
   93SAPC  H17X 9071   7.166   0.146   5.284 -0.1126 -0.0218 -1.6403
   93SAPC  H17Y 9072   7.066   0.302   5.253  0.8097  1.1827  0.2032
   93SAPC  C318 9073   7.204   0.305   5.409  0.5899  0.1350  0.6660
   93SAPC  H18X 9074   7.308   0.267   5.402  0.2019 -0.9761  0.7424
   93SAPC  H18Y 9075   7.147   0.263   5.495  2.5953 -0.3239  1.8210
   93SAPC  H18Z 9076   7.202   0.415   5.420 -1.9762  0.4100 -1.5572
   94SAPC     N 9077   0.952   6.055   6.118  0.1123 -0.1555  0.4758
   94SAPC   C12 9078   1.021   6.151   6.218 -0.2642 -0.1850 -0.1214
   94SAPC  H12A 9079   1.126   6.150   6.190  0.3717 -2.3503  2.0208
   94SAPC  H12B 9080   1.029   6.102   6.314 -0.1168  0.6316  0.2941
   94SAPC   C13 9081   0.812   6.026   6.161 -0.4208  0.5722  0.3481
   94SAPC  H13A 9082   0.754   5.979   6.083  0.5589  0.8021 -0.5510
   94SAPC  H13B 9083   0.807   5.958   6.245 -0.4281  0.5439  0.3243
   94SAPC  H13C 9084   0.768   6.121   6.188  0.4713  0.7188  1.3529
   94SAPC   C14 9085   0.940   6.123   5.986 -0.6037  0.7258 -0.3476
   94SAPC  H14A 9086   1.031   6.165   5.947 -0.8411 -1.4871 -3.7419
   94SAPC  H14B 9087   0.890   6.071   5.905  0.0403  1.5832 -1.3323
   94SAPC  H14C 9088   0.875   6.206   6.005  0.8766  2.1167 -1.1251
   94SAPC   C15 9089   1.027   5.933   6.112 -0.1696 -0.3872  0.7434
   94SAPC  H15A 9090   0.982   5.871   6.036 -0.0378 -1.6255  1.6315
   94SAPC  H15B 9091   1.133   5.937   6.092 -0.3910 -0.3672 -0.4493
   94SAPC  H15C 9092   1.008   5.890   6.209  1.4973 -0.0848  1.2397
   94SAPC   C11 9093   0.968   6.301   6.226 -0.0486  0.4022  0.8323
   94SAPC  H11A 9094   0.972   6.352   6.128 -4.4635 -0.3087  0.0426
   94SAPC  H11B 9095   1.041   6.348   6.295  1.3117 -0.0226 -0.2787
   94SAPC     P 9096   0.757   6.433   6.334 -0.0181  0.0572  0.7117
   94SAPC   O13 9097   0.623   6.396   6.377  0.5630 -0.1444 -1.0493
   94SAPC   O14 9098   0.856   6.482   6.432  0.0228 -0.3579 -0.2494
   94SAPC   O12 9099   0.831   6.306   6.263 -0.2592 -1.4811  0.9252
   94SAPC   O11 9100   0.752   6.536   6.228 -0.2261  0.3990  0.1700
   94SAPC    C1 9101   0.635   6.584   6.160  0.6144 -0.1102  0.4508
   94SAPC    HA 9102   0.545   6.591   6.224  1.4848  2.8650  1.5481
   94SAPC    HB 9103   0.657   6.686   6.121  0.2169 -1.2682 -3.2646
   94SAPC    C2 9104   0.620   6.494   6.036  0.0993 -1.1568  0.2897
   94SAPC    HS 9105   0.632   6.387   6.066  2.6037 -0.7360  1.0740
   94SAPC   O21 9106   0.711   6.532   5.935  0.2030  0.1434 -0.4661
   94SAPC   C21 9107   0.761   6.440   5.853  0.0154 -0.8946  0.6675
   94SAPC   O22 9108   0.764   6.320   5.876  0.1083 -0.2009 -0.8565
   94SAPC   C22 9109   0.818   6.500   5.718 -0.1687 -0.2991  0.3475
   94SAPC   H2R 9110   0.740   6.533   5.646  2.3784  0.0356 -2.4774
   94SAPC   H2S 9111   0.869   6.597   5.736  0.7344 -0.4819 -1.0671
   94SAPC    C3 9112   0.480   6.504   5.968  0.5046 -0.5318  0.5415
   94SAPC    HX 9113   0.477   6.608   5.929  0.7968 -1.3455 -1.8092
   94SAPC    HY 9114   0.394   6.495   6.037 -0.7331 -2.2534 -1.1084
   94SAPC   O31 9115   0.474   6.405   5.861  0.1868 -0.4468  0.3230
   94SAPC   C31 9116   0.451   6.280   5.906 -0.6644  0.0187  0.4880
   94SAPC   O32 9117   0.443   6.240   6.017 -0.0209 -0.0913 -0.1217
   94SAPC   C32 9118   0.443   6.188   5.785 -0.5329 -0.0452 -0.3445
   94SAPC   H2X 9119   0.522   6.224   5.715  0.2003  0.1044  0.5327
   94SAPC   H2Y 9120   0.351   6.215   5.730  0.7238  2.5327 -1.3047
   94SAPC   C23 9121   0.924   6.409   5.647 -0.5114 -0.4267 -0.7605
   94SAPC   H3R 9122   0.878   6.315   5.609  0.9017 -2.1212  1.3852
   94SAPC   H3S 9123   0.998   6.373   5.722 -0.8657 -1.5685 -0.9247
   94SAPC   C24 9124   1.003   6.484   5.542  0.6046 -0.1778 -0.3099
   94SAPC   H4R 9125   1.057   6.410   5.480 -2.0702 -1.8486 -0.8338
   94SAPC   H4S 9126   1.079   6.551   5.587 -2.5229  2.7991  1.0518
   94SAPC   C25 9127   0.924   6.568   5.444  0.0618 -0.1524  0.6291
   94SAPC   H5R 9128   0.840   6.619   5.493  2.7065  1.2107  4.1655
   94SAPC   C26 9129   0.942   6.586   5.314  0.3362  0.2519 -0.1646
   94SAPC   H6R 9130   0.884   6.654   5.250  1.8011  1.0998 -0.6322
   94SAPC   C27 9131   1.051   6.531   5.228  0.3191 -0.2106 -0.1873
   94SAPC   H7R 9132   1.033   6.555   5.121  0.6447  0.9835  0.0128
   94SAPC   H7S 9133   1.050   6.420   5.239  0.2656 -0.4402 -2.0722
   94SAPC   C28 9134   1.185   6.589   5.268  0.3831  0.7347 -0.6141
   94SAPC   H8R 9135   1.191   6.613   5.375  1.1605 -0.5771 -0.3364
   94SAPC   C29 9136   1.297   6.597   5.192  1.0328 -0.0133  0.5104
   94SAPC   H9R 9137   1.388   6.623   5.247  0.1539 -0.3680  2.2114
   94SAPC  C210 9138   1.310   6.551   5.048 -0.3553 -0.4036  0.7683
   94SAPC  H10R 9139   1.218   6.505   5.007 -0.9274 -0.2946  1.8841
   94SAPC  H10S 9140   1.394   6.478   5.040 -1.6401 -1.7747 -0.9289
   94SAPC  C211 9141   1.358   6.657   4.958  0.1712 -0.2305 -0.5642
   94SAPC  H11R 9142   1.422   6.737   5.000  1.1226 -0.7608 -0.9792
   94SAPC  C212 9143   1.350   6.654   4.825  0.0024 -0.1011 -0.3875
   94SAPC  H12R 9144   1.375   6.748   4.774 -1.2391 -0.4432 -1.6709
   94SAPC  C213 9145   1.281   6.557   4.735 -0.2517  0.1085 -0.3895
   94SAPC  H13R 9146   1.176   6.580   4.711 -0.9425 -0.8709  1.4464
   94SAPC  H13S 9147   1.288   6.461   4.791  0.3691  0.5863  0.3868
   94SAPC  C214 9148   1.346   6.536   4.597 -0.4548 -0.2602 -0.9719
   94SAPC  H14R 9149   1.430   6.464   4.601  1.0150  1.3238 -1.7300
   94SAPC  C215 9150   1.335   6.601   4.480  0.5378  0.2598 -0.5854
   94SAPC  H15R 9151   1.404   6.571   4.399  1.1333 -1.0595  0.3818
   94SAPC  C216 9152   1.229   6.709   4.446 -0.2799 -0.3261 -0.5018
   94SAPC  H16R 9153   1.279   6.777   4.374  1.9592  0.0194  1.2464
   94SAPC  H16S 9154   1.212   6.765   4.540  0.8707 -1.4748  0.4392
   94SAPC  C217 9155   1.102   6.656   4.379 -0.1027 -0.0346 -0.1152
   94SAPC  H17R 9156   1.038   6.746   4.366 -0.1845  0.1733  1.5024
   94SAPC  H17S 9157   1.043   6.597   4.452 -0.0156  1.1795  0.9745
   94SAPC  C218 9158   1.134   6.581   4.253 -0.1228 -0.0302  0.5262
   94SAPC  H18R 9159   1.229   6.523   4.254 -0.1244 -0.0287  0.8422
   94SAPC  H18S 9160   1.134   6.654   4.169 -1.0665  0.3010  0.8024
   94SAPC  C219 9161   1.014   6.494   4.227  0.7492 -0.5530 -0.4605
   94SAPC  H19R 9162   0.930   6.566   4.220  0.7896 -0.3932  0.5429
   94SAPC  H19S 9163   0.993   6.435   4.319 -1.1913 -0.6746 -0.9369
   94SAPC  C220 9164   1.020   6.409   4.098 -0.5339  0.1434 -0.7910
   94SAPC  H20R 9165   1.043   6.478   4.014 -0.9384  2.2732  0.7695
   94SAPC  H20S 9166   0.921   6.361   4.087  0.1105 -1.2765 -0.6034
   94SAPC  H20T 9167   1.103   6.337   4.109  0.1072  1.0087  0.3182
   94SAPC   C33 9168   0.468   6.034   5.818  0.4659  0.0948 -0.7351
   94SAPC   H3X 9169   0.390   5.992   5.885  1.0983 -0.5402 -0.3752
   94SAPC   H3Y 9170   0.561   6.015   5.878 -1.6808  0.0922  2.9090
   94SAPC   C34 9171   0.489   5.951   5.692  0.4206 -0.4098 -0.0427
   94SAPC   H4X 9172   0.412   5.997   5.625  1.8932  1.7185 -0.3859
   94SAPC   H4Y 9173   0.456   5.847   5.710 -1.2897 -0.0598 -0.9047
   94SAPC   C35 9174   0.623   5.966   5.622 -0.4364  0.6123  0.0671
   94SAPC   H5X 9175   0.674   5.870   5.646 -4.2154 -1.7961 -0.6830
   94SAPC   H5Y 9176   0.684   6.052   5.659 -2.2329  1.4369  1.2800
   94SAPC   C36 9177   0.615   5.984   5.467  0.4446  0.1997  0.0644
   94SAPC   H6X 9178   0.543   6.067   5.451 -0.1851 -0.7142 -2.3088
   94SAPC   H6Y 9179   0.570   5.895   5.418  0.5217  0.0167  0.3222
   94SAPC   C37 9180   0.748   6.019   5.403  0.5920  1.0312 -0.1598
   94SAPC   H7X 9181   0.819   5.935   5.418 -0.4469  0.3931  1.4864
   94SAPC   H7Y 9182   0.780   6.112   5.456  0.5576 -0.0510  1.8534
   94SAPC   C38 9183   0.737   6.050   5.253  0.1821  0.4435  0.4303
   94SAPC   H8X 9184   0.828   6.108   5.229  2.0189 -2.6103 -0.5394
   94SAPC   H8Y 9185   0.644   6.109   5.239 -0.6436 -0.7638  0.6671
   94SAPC   C39 9186   0.739   5.933   5.162 -0.9655 -0.1577 -0.5199
   94SAPC   H9X 9187   0.640   5.884   5.169 -1.0202 -0.1178 -1.0326
   94SAPC   H9Y 9188   0.807   5.847   5.184 -1.6862 -0.8475 -0.9314
   94SAPC  C310 9189   0.759   5.968   5.013  0.2297 -0.0102  0.0811
   94SAPC  H10X 9190   0.851   6.030   5.009  0.5255 -0.3863  0.8566
   94SAPC  H10Y 9191   0.667   6.025   4.987  1.1880  1.3105 -0.5164
   94SAPC  C311 9192   0.778   5.855   4.911 -0.6075  0.5752 -0.7092
   94SAPC  H11X 9193   0.706   5.771   4.921 -0.6353  0.7505  0.9287
   94SAPC  H11Y 9194   0.876   5.811   4.942  0.0154  2.6579  0.5227
   94SAPC  C312 9195   0.799   5.910   4.768  0.5989 -0.3161  0.5394
   94SAPC  H12X 9196   0.894   5.965   4.759 -0.8452  2.5634  1.6352
   94SAPC  H12Y 9197   0.714   5.975   4.738  1.4431 -0.7645 -3.2929
   94SAPC  C313 9198   0.809   5.792   4.673  0.4587  0.1209  0.2300
   94SAPC  H13X 9199   0.713   5.744   4.644 -0.6078  0.9725  2.1886
   94SAPC  H13Y 9200   0.876   5.707   4.701  1.5053  0.6447 -0.6004
   94SAPC  C314 9201   0.874   5.837   4.539 -0.0478  0.0906  0.0357
   94SAPC  H14X 9202   0.869   5.745   4.477 -0.6331 -0.9379  1.5562
   94SAPC  H14Y 9203   0.975   5.876   4.566 -0.4281  0.6554  0.6891
   94SAPC  C315 9204   0.796   5.942   4.458  0.2276 -0.1778  0.2119
   94SAPC  H15X 9205   0.781   6.042   4.504  1.3338  0.2703 -0.3688
   94SAPC  H15Y 9206   0.693   5.901   4.445 -0.0589  0.9684 -1.6416
   94SAPC  C316 9207   0.868   5.971   4.325  0.2019  0.4748 -0.6868
   94SAPC  H16X 9208   0.890   5.885   4.259  2.7639  0.0921  0.5575
   94SAPC  H16Y 9209   0.959   6.027   4.353 -0.0226  0.1079  0.8660
   94SAPC  C317 9210   0.791   6.072   4.235 -0.1621  0.4142  0.3655
   94SAPC  H17X 9211   0.857   6.096   4.149  0.0666  0.8416  0.6554
   94SAPC  H17Y 9212   0.794   6.167   4.292  1.8041 -0.2908  1.5432
   94SAPC  C318 9213   0.648   6.032   4.192 -0.3666  0.1232  0.5609
   94SAPC  H18X 9214   0.615   6.103   4.113 -3.0561 -1.1479  0.4399
   94SAPC  H18Y 9215   0.569   6.024   4.270 -1.2225 -1.2101 -0.4039
   94SAPC  H18Z 9216   0.653   5.936   4.138 -0.2736 -0.2849  1.2862
   95SAPC     N 9217   4.602   1.429   1.827  0.4796 -0.1130  0.1906
   95SAPC   C12 9218   4.706   1.513   1.897 -0.7196 -1.2573  0.3485
   95SAPC  H12A 9219   4.799   1.479   1.854  0.0356  0.8211  0.2298
   95SAPC  H12B 9220   4.713   1.487   2.002  0.8993 -0.1467  0.5426
   95SAPC   C13 9221   4.649   1.289   1.828 -0.0355  0.2391 -0.0804
   95SAPC  H13A 9222   4.575   1.226   1.781 -0.5785  1.1056 -0.4022
   95SAPC  H13B 9223   4.743   1.280   1.775 -0.4242  0.9099 -0.9019
   95SAPC  H13C 9224   4.665   1.247   1.927  1.5363 -3.1382 -1.6144
   95SAPC   C14 9225   4.469   1.434   1.897 -0.1172 -0.2324  0.0535
   95SAPC  H14A 9226   4.381   1.395   1.848  0.9044  1.7552 -3.7913
   95SAPC  H14B 9227   4.478   1.397   1.998 -1.1959  0.8950  0.5917
   95SAPC  H14C 9228   4.442   1.536   1.921 -0.2075 -0.2069 -0.1456
   95SAPC   C15 9229   4.585   1.476   1.684  0.2050  0.1939  0.7156
   95SAPC  H15A 9230   4.502   1.421   1.641 -0.2837  1.0732  0.5225
   95SAPC  H15B 9231   4.562   1.581   1.694  0.8139  0.4695 -0.6704
   95SAPC  H15C 9232   4.672   1.458   1.623 -0.6929 -1.0033 -0.2696
   95SAPC   C11 9233   4.690   1.666   1.872 -0.6308 -0.2736  0.1685
   95SAPC  H11A 9234   4.724   1.691   1.769  1.6731 -2.7769  0.1867
   95SAPC  H11B 9235   4.770   1.708   1.938 -2.3141  1.2996  1.2998
   95SAPC     P 9236   4.505   1.819   1.994  0.0259  0.2946  0.6650
   95SAPC   O13 9237   4.516   1.947   1.921 -0.2979 -0.0964  0.8835
   95SAPC   O14 9238   4.360   1.789   2.023  0.8499 -0.7511 -0.5316
   95SAPC   O12 9239   4.556   1.701   1.908  0.1056  0.3152  0.2147
   95SAPC   O11 9240   4.592   1.810   2.131 -0.8514  0.1036 -0.7057
   95SAPC    C1 9241   4.605   1.916   2.226 -0.5065  0.2289  0.3338
   95SAPC    HA 9242   4.712   1.944   2.224 -0.7022  1.1446 -3.1009
   95SAPC    HB 9243   4.558   2.010   2.191 -0.1285  0.1171 -0.4872
   95SAPC    C2 9244   4.560   1.866   2.366 -0.1783 -0.3827 -0.1763
   95SAPC    HS 9245   4.615   1.771   2.380 -0.1798 -0.5510 -1.1928
   95SAPC   O21 9246   4.415   1.869   2.383 -0.5817 -0.0534  1.0620
   95SAPC   C21 9247   4.371   1.744   2.392  0.2589  0.0144  0.4352
   95SAPC   O22 9248   4.431   1.641   2.373  0.4352  0.4884  0.8574
   95SAPC   C22 9249   4.225   1.743   2.437 -0.4251 -0.1287 -0.3339
   95SAPC   H2R 9250   4.164   1.700   2.355  1.3664 -1.3396 -1.0780
   95SAPC   H2S 9251   4.224   1.674   2.524  1.2201  2.0108  1.5264
   95SAPC    C3 9252   4.623   1.952   2.483 -1.0042  0.0274 -0.1755
   95SAPC    HX 9253   4.608   2.059   2.455 -3.6465 -0.1956  0.1026
   95SAPC    HY 9254   4.732   1.930   2.482 -0.2257  3.3212  1.0027
   95SAPC   O31 9255   4.581   1.920   2.619 -0.4192 -0.0394 -0.2016
   95SAPC   C31 9256   4.477   1.992   2.668 -0.0439 -0.4145 -0.1528
   95SAPC   O32 9257   4.436   2.097   2.621 -0.1980  0.7892 -0.4131
   95SAPC   C32 9258   4.429   1.921   2.799  0.4105  0.3402  0.0877
   95SAPC   H2X 9259   4.520   1.909   2.861 -0.9980  3.7382  3.1799
   95SAPC   H2Y 9260   4.399   1.819   2.767 -0.4447  0.0558  1.7202
   95SAPC   C23 9261   4.159   1.866   2.505  1.1843 -0.1644  0.9141
   95SAPC   H3R 9262   4.123   1.938   2.429 -1.4106 -0.7400  1.4878
   95SAPC   H3S 9263   4.231   1.915   2.574  0.3343 -0.8712  2.3544
   95SAPC   C24 9264   4.032   1.812   2.582 -0.5122  0.0528 -0.9776
   95SAPC   H4R 9265   3.971   1.758   2.506 -0.5020  0.4565 -1.2751
   95SAPC   H4S 9266   3.977   1.901   2.618 -0.6775  0.0550 -1.2307
   95SAPC   C25 9267   4.047   1.721   2.706  0.2753 -0.1504  0.8490
   95SAPC   H5R 9268   4.109   1.765   2.786  0.6549  3.3153 -1.1687
   95SAPC   C26 9269   3.998   1.595   2.718 -0.5373 -0.0133 -1.4911
   95SAPC   H6R 9270   4.000   1.547   2.817  0.1462 -1.6697 -2.2793
   95SAPC   C27 9271   3.913   1.518   2.618 -0.0238 -0.0544 -0.1434
   95SAPC   H7R 9272   3.919   1.563   2.517  0.2767  1.3436  0.4740
   95SAPC   H7S 9273   3.809   1.520   2.658 -0.0966 -0.9632 -0.2583
   95SAPC   C28 9274   3.937   1.370   2.607 -0.1093  0.6223  0.3317
   95SAPC   H8R 9275   3.970   1.335   2.508 -0.5301 -2.6329  1.2420
   95SAPC   C29 9276   3.913   1.270   2.696  0.6417 -0.9437  0.1122
   95SAPC   H9R 9277   3.916   1.174   2.644  0.3900 -0.1706 -1.3876
   95SAPC  C210 9278   3.826   1.295   2.831  0.1225  0.3710  0.5663
   95SAPC  H10R 9279   3.720   1.312   2.802  0.7952  0.1266 -2.3405
   95SAPC  H10S 9280   3.873   1.381   2.882 -0.8610  0.7790  0.8068
   95SAPC  C211 9281   3.821   1.174   2.920  0.4374  0.0351  0.6344
   95SAPC  H11R 9282   3.874   1.083   2.887  1.0901  0.2107  1.1755
   95SAPC  C212 9283   3.752   1.171   3.036 -0.7678 -0.5618 -0.0404
   95SAPC  H12R 9284   3.764   1.082   3.099 -1.1393 -0.7674 -0.2529
   95SAPC  C213 9285   3.679   1.285   3.097 -0.3362  0.9971 -0.0523
   95SAPC  H13R 9286   3.588   1.242   3.146  0.2775 -1.8119 -1.1958
   95SAPC  H13S 9287   3.644   1.365   3.028 -1.8172  1.1455  0.8175
   95SAPC  C214 9288   3.761   1.344   3.200  0.3913 -0.8843 -0.1655
   95SAPC  H14R 9289   3.832   1.419   3.160  0.1736  0.9823  2.6697
   95SAPC  C215 9290   3.768   1.326   3.330 -0.8141 -0.3052  0.1597
   95SAPC  H15R 9291   3.844   1.381   3.386 -0.1720 -1.0989  0.0917
   95SAPC  C216 9292   3.675   1.243   3.419 -0.0634  1.0082 -0.2803
   95SAPC  H16R 9293   3.573   1.236   3.375  0.2536  0.3327 -0.9181
   95SAPC  H16S 9294   3.653   1.284   3.520 -1.2175 -1.3770  0.5197
   95SAPC  C217 9295   3.714   1.093   3.430 -0.3303 -0.2519  0.0538
   95SAPC  H17R 9296   3.821   1.086   3.460 -0.6101 -0.8748  0.9464
   95SAPC  H17S 9297   3.702   1.043   3.331 -1.3758  2.4354 -1.2594
   95SAPC  C218 9298   3.641   1.007   3.530 -0.0677  0.2381  0.0053
   95SAPC  H18R 9299   3.666   0.900   3.511 -1.9661 -0.1111 -0.8169
   95SAPC  H18S 9300   3.531   1.023   3.522  0.2573  2.3501 -0.8261
   95SAPC  C219 9301   3.679   1.047   3.676  0.2953 -0.2854  0.0755
   95SAPC  H19R 9302   3.631   1.143   3.703  1.8680  0.7001 -0.4818
   95SAPC  H19S 9303   3.790   1.056   3.685  0.1652  0.8963  0.5531
   95SAPC  C220 9304   3.623   0.940   3.770 -0.1505  0.1516  0.4568
   95SAPC  H20R 9305   3.649   0.955   3.877  3.4986 -0.6948 -0.1594
   95SAPC  H20S 9306   3.662   0.842   3.735 -0.0274 -0.7610  2.9873
   95SAPC  H20T 9307   3.512   0.941   3.760 -0.2644  0.4517  1.6575
   95SAPC   C33 9308   4.331   1.998   2.890 -0.0004 -0.2243 -0.1031
   95SAPC   H3X 9309   4.309   1.940   2.982  1.0649  0.9124  0.9113
   95SAPC   H3Y 9310   4.232   2.001   2.839 -1.2747  2.0217  2.2473
   95SAPC   C34 9311   4.375   2.140   2.929 -0.4555 -0.1015  0.3079
   95SAPC   H4X 9312   4.290   2.175   2.993 -0.1131  1.8432 -0.2527
   95SAPC   H4Y 9313   4.376   2.208   2.842  0.9698 -1.6577 -0.9643
   95SAPC   C35 9314   4.502   2.146   3.013  0.1485 -0.3586  0.2301
   95SAPC   H5X 9315   4.529   2.252   3.037 -0.3749 -1.0149  4.6045
   95SAPC   H5Y 9316   4.586   2.100   2.958 -1.3206 -2.8084 -0.1267
   95SAPC   C36 9317   4.490   2.066   3.152 -0.0651  0.4556  0.7976
   95SAPC   H6X 9318   4.446   1.967   3.127  1.9171 -0.0072 -1.2107
   95SAPC   H6Y 9319   4.423   2.127   3.216 -2.8473  1.6697 -2.9202
   95SAPC   C37 9320   4.632   2.042   3.207  0.2398  1.3223  0.0677
   95SAPC   H7X 9321   4.680   2.140   3.231  3.4470  0.0464 -0.6870
   95SAPC   H7Y 9322   4.695   1.987   3.135 -1.0337  0.0325 -0.1078
   95SAPC   C38 9323   4.630   1.953   3.335  0.5860 -0.1405  0.2661
   95SAPC   H8X 9324   4.733   1.961   3.377  0.3869 -0.1281  0.7534
   95SAPC   H8Y 9325   4.615   1.844   3.318 -0.1987  0.0178 -0.0998
   95SAPC   C39 9326   4.537   1.997   3.444 -0.5049  0.0175 -0.9984
   95SAPC   H9X 9327   4.429   1.990   3.423 -0.5431  0.3529 -0.9271
   95SAPC   H9Y 9328   4.557   2.104   3.469 -0.1565 -0.3094  0.2037
   95SAPC  C310 9329   4.552   1.941   3.585 -0.0300  0.0341  0.7483
   95SAPC  H10X 9330   4.660   1.944   3.611  0.3903 -0.2269 -0.8191
   95SAPC  H10Y 9331   4.527   1.833   3.576 -1.6231  0.3903  0.4924
   95SAPC  C311 9332   4.451   2.007   3.682  0.2299 -0.5586 -0.1960
   95SAPC  H11X 9333   4.348   2.015   3.641 -0.3602 -0.3145  1.2749
   95SAPC  H11Y 9334   4.484   2.111   3.701 -1.3297 -0.3732  1.7823
   95SAPC  C312 9335   4.462   1.939   3.821 -0.0110  0.3679 -0.2984
   95SAPC  H12X 9336   4.559   1.959   3.870 -0.9732  1.8885  1.0862
   95SAPC  H12Y 9337   4.459   1.829   3.807 -1.6900  0.4709 -1.0468
   95SAPC  C313 9338   4.347   1.986   3.915 -0.4004 -0.0335 -0.4158
   95SAPC  H13X 9339   4.245   1.987   3.870 -0.6104  2.1415 -0.0256
   95SAPC  H13Y 9340   4.378   2.091   3.930  2.6113 -1.1291  2.0976
   95SAPC  C314 9341   4.351   1.906   4.042  0.0690 -0.1863  0.5079
   95SAPC  H14X 9342   4.448   1.893   4.094 -0.7189 -1.1888  1.7962
   95SAPC  H14Y 9343   4.313   1.808   4.007  0.4501 -0.0728 -0.2397
   95SAPC  C315 9344   4.258   1.959   4.150  0.5688  0.0991 -0.6457
   95SAPC  H15X 9345   4.152   1.959   4.114  0.9049 -0.6434 -1.6897
   95SAPC  H15Y 9346   4.290   2.061   4.180 -0.9006  0.4496 -0.1938
   95SAPC  C316 9347   4.261   1.878   4.282 -0.8115  0.7860  0.2459
   95SAPC  H16X 9348   4.363   1.875   4.325 -1.6335  0.8447  2.3328
   95SAPC  H16Y 9349   4.218   1.779   4.257 -0.1685  1.7813 -6.6371
   95SAPC  C317 9350   4.186   1.958   4.393 -0.0820 -0.5238  0.2594
   95SAPC  H17X 9351   4.078   1.971   4.367 -0.1060 -2.5144 -0.8623
   95SAPC  H17Y 9352   4.226   2.062   4.396 -0.6241 -0.3220  0.8943
   95SAPC  C318 9353   4.200   1.910   4.534  0.0445  0.2499 -0.0219
   95SAPC  H18X 9354   4.143   1.983   4.596  0.4831  2.5818 -2.2226
   95SAPC  H18Y 9355   4.309   1.896   4.549  0.5569  2.7732 -1.0118
   95SAPC  H18Z 9356   4.152   1.809   4.538  3.3365 -1.5600 -1.4978
   96SAPC     N 9357   4.627   3.504   2.056 -0.7478 -0.7756  0.3840
   96SAPC   C12 9358   4.611   3.507   2.205  0.3426  0.0439 -0.7899
   96SAPC  H12A 9359   4.507   3.489   2.226  0.8786 -1.6490  0.5714
   96SAPC  H12B 9360   4.627   3.610   2.234 -0.8597  0.3742 -1.2712
   96SAPC   C13 9361   4.516   3.588   1.998  0.4384  0.0359 -0.7858
   96SAPC  H13A 9362   4.418   3.562   2.036  0.9477  1.5604  1.8566
   96SAPC  H13B 9363   4.537   3.691   2.025  2.2692 -0.8715  1.6440
   96SAPC  H13C 9364   4.506   3.576   1.891 -0.1328  0.1338 -0.7443
   96SAPC   C14 9365   4.766   3.562   2.020 -0.3269  0.0417 -0.4864
   96SAPC  H14A 9366   4.781   3.573   1.914  4.7547 -1.5662 -0.1703
   96SAPC  H14B 9367   4.774   3.667   2.045  2.0987 -0.3858  0.8030
   96SAPC  H14C 9368   4.847   3.505   2.062 -0.0997  0.9995  0.4322
   96SAPC   C15 9369   4.623   3.368   2.001 -0.7433 -0.0491 -0.8854
   96SAPC  H15A 9370   4.670   3.298   2.069 -2.5638 -1.4017 -0.9323
   96SAPC  H15B 9371   4.519   3.338   1.995  0.2642 -4.6175  0.4111
   96SAPC  H15C 9372   4.660   3.356   1.901 -1.3433  0.4309 -1.1637
   96SAPC   C11 9373   4.707   3.417   2.277  0.5500 -0.0538  0.2037
   96SAPC  H11A 9374   4.696   3.310   2.248  2.9871 -0.5999  1.0215
   96SAPC  H11B 9375   4.670   3.419   2.381 -3.1799  1.1802 -0.9801
   96SAPC     P 9376   4.961   3.368   2.289 -0.1612 -0.1673 -0.3495
   96SAPC   O13 9377   4.911   3.227   2.308 -0.4854  0.1406 -0.0132
   96SAPC   O14 9378   5.066   3.401   2.193  0.1757 -0.0266 -0.0085
   96SAPC   O12 9379   4.841   3.467   2.269  0.1379  0.4497 -0.0103
   96SAPC   O11 9380   5.005   3.414   2.432 -0.2949 -0.7599  0.8692
   96SAPC    C1 9381   5.056   3.544   2.458  0.1708  0.2744 -0.4818
   96SAPC    HA 9382   5.167   3.545   2.466  0.2403  1.6741 -1.3485
   96SAPC    HB 9383   5.029   3.622   2.383 -3.0415 -0.2237 -0.0009
   96SAPC    C2 9384   4.999   3.598   2.592 -0.1591 -0.4455  0.4717
   96SAPC    HS 9385   5.044   3.697   2.617  1.0497 -0.7803 -0.3093
   96SAPC   O21 9386   5.031   3.511   2.704 -0.3813  1.6621 -0.1077
   96SAPC   C21 9387   5.159   3.502   2.731 -0.0631  0.2399  0.8911
   96SAPC   O22 9388   5.242   3.583   2.699  0.0371 -0.1437 -0.5076
   96SAPC   C22 9389   5.195   3.375   2.810 -0.6753 -0.3007 -0.5352
   96SAPC   H2R 9390   5.110   3.319   2.855  0.7458 -1.1068  1.3043
   96SAPC   H2S 9391   5.243   3.308   2.736  2.0957 -1.3114  1.9695
   96SAPC    C3 9392   4.847   3.620   2.589 -0.0942  0.0139  0.4980
   96SAPC    HX 9393   4.795   3.523   2.572  1.4109 -0.3458 -3.1307
   96SAPC    HY 9394   4.809   3.666   2.494 -1.0762 -2.4257 -0.3745
   96SAPC   O31 9395   4.803   3.705   2.697 -0.1592  0.3453 -0.3089
   96SAPC   C31 9396   4.758   3.649   2.813 -0.2126  0.1736 -0.8022
   96SAPC   O32 9397   4.747   3.526   2.827  0.7595  0.3880  0.1147
   96SAPC   C32 9398   4.722   3.758   2.919  0.3460  0.2628  0.0194
   96SAPC   H2X 9399   4.645   3.830   2.887  2.4779  2.7788  0.2398
   96SAPC   H2Y 9400   4.819   3.809   2.939 -0.2208  0.6847  1.8521
   96SAPC   C23 9401   5.300   3.400   2.925 -0.0049 -0.4376 -0.7737
   96SAPC   H3R 9402   5.358   3.492   2.905 -1.9638  1.4828  1.6512
   96SAPC   H3S 9403   5.354   3.303   2.925 -2.4456 -1.9620  1.8621
   96SAPC   C24 9404   5.235   3.427   3.068 -0.1577  0.5307 -0.1549
   96SAPC   H4R 9405   5.314   3.428   3.146 -1.0560  1.1138  0.7734
   96SAPC   H4S 9406   5.168   3.341   3.089 -1.9052  1.7036 -0.7303
   96SAPC   C25 9407   5.158   3.552   3.079 -0.1990 -0.4664 -0.4505
   96SAPC   H5R 9408   5.190   3.643   3.026  2.0823  0.8337  2.8050
   96SAPC   C26 9409   5.049   3.562   3.154  0.0153 -0.3866 -0.0137
   96SAPC   H6R 9410   4.993   3.657   3.154 -0.3178 -0.5741  0.8651
   96SAPC   C27 9411   4.980   3.456   3.236 -0.8758 -0.3569  0.5320
   96SAPC   H7R 9412   5.060   3.412   3.298 -0.3975  1.2017  1.0691
   96SAPC   H7S 9413   4.941   3.386   3.159  0.5391 -0.8567  0.2417
   96SAPC   C28 9414   4.877   3.508   3.337  0.0574 -0.6997 -0.3215
   96SAPC   H8R 9415   4.790   3.441   3.340 -1.3461  0.9591 -1.5478
   96SAPC   C29 9416   4.889   3.605   3.437  0.3625 -0.0775  0.4727
   96SAPC   H9R 9417   4.798   3.628   3.494 -0.5644 -1.0408 -0.5534
   96SAPC  C210 9418   5.017   3.696   3.451  0.4893 -0.1253  0.0493
   96SAPC  H10R 9419   4.996   3.801   3.424  1.1125 -0.0146 -0.0205
   96SAPC  H10S 9420   5.099   3.657   3.386 -1.8268 -0.9134 -2.6180
   96SAPC  C211 9421   5.060   3.694   3.596  0.8920 -0.1533  0.0849
   96SAPC  H11R 9422   5.148   3.629   3.611 -0.7640 -2.7418 -0.7719
   96SAPC  C212 9423   5.002   3.749   3.704  0.1122 -0.4942 -0.2550
   96SAPC  H12R 9424   5.056   3.761   3.799 -1.4262  2.2971  0.3747
   96SAPC  C213 9425   4.873   3.830   3.707  0.1295  0.1055 -0.1216
   96SAPC  H13R 9426   4.831   3.842   3.605  1.1786 -1.2574 -0.7371
   96SAPC  H13S 9427   4.905   3.935   3.725 -1.1283  0.6388 -0.8732
   96SAPC  C214 9428   4.783   3.781   3.816 -0.4443 -0.1456 -0.4262
   96SAPC  H14R 9429   4.706   3.709   3.786  1.1292 -2.6456  1.1867
   96SAPC  C215 9430   4.788   3.812   3.947 -0.3608  0.5592 -0.0170
   96SAPC  H15R 9431   4.715   3.759   4.009 -1.2528  0.6774 -0.9445
   96SAPC  C216 9432   4.877   3.905   4.026  0.6456  0.0458  0.4825
   96SAPC  H16R 9433   4.954   3.944   3.957 -2.4819  1.9105 -2.2747
   96SAPC  H16S 9434   4.929   3.848   4.105  0.6304  0.3905  0.7421
   96SAPC  C217 9435   4.786   4.017   4.073  0.2973  0.5063  0.0868
   96SAPC  H17R 9436   4.700   3.967   4.123 -0.2034 -0.2080 -1.4264
   96SAPC  H17S 9437   4.764   4.074   3.981  2.0580  0.9740 -0.0896
   96SAPC  C218 9438   4.843   4.105   4.178  0.3468 -0.2406  0.0080
   96SAPC  H18R 9439   4.908   4.184   4.134  1.1102 -1.3402 -0.8701
   96SAPC  H18S 9440   4.901   4.066   4.265  0.3000  1.9303  1.0811
   96SAPC  C219 9441   4.736   4.183   4.253 -0.2921 -0.5781  0.2660
   96SAPC  H19R 9442   4.689   4.111   4.323  0.0931  0.8601  2.0898
   96SAPC  H19S 9443   4.661   4.207   4.175 -1.4260  1.6701  1.9078
   96SAPC  C220 9444   4.785   4.310   4.325  0.0996 -0.1288  0.2194
   96SAPC  H20R 9445   4.873   4.291   4.390  0.6745  1.1792 -0.1314
   96SAPC  H20S 9446   4.700   4.333   4.393  0.7683  1.4872  0.5712
   96SAPC  H20T 9447   4.795   4.394   4.253 -2.3040 -0.9864 -1.2168
   96SAPC   C33 9448   4.670   3.696   3.053 -0.5582 -1.2598 -0.9214
   96SAPC   H3X 9449   4.733   3.615   3.095  0.2742  0.0596  0.5157
   96SAPC   H3Y 9450   4.565   3.661   3.042 -0.1250 -2.1482 -2.4816
   96SAPC   C34 9451   4.671   3.813   3.161  0.2184  0.1648 -0.1628
   96SAPC   H4X 9452   4.769   3.864   3.174 -0.6108  1.6236  0.6000
   96SAPC   H4Y 9453   4.658   3.772   3.264  3.7287 -1.7388 -0.3000
   96SAPC   C35 9454   4.575   3.933   3.130 -0.4533  0.4249  0.0675
   96SAPC   H5X 9455   4.469   3.905   3.112  0.2061 -1.9705 -0.5433
   96SAPC   H5Y 9456   4.606   3.986   3.037 -0.2091  3.1183  1.5881
   96SAPC   C36 9457   4.576   4.039   3.242 -0.7021  0.7917 -0.0323
   96SAPC   H6X 9458   4.518   4.122   3.197  2.3433  1.4503 -3.2367
   96SAPC   H6Y 9459   4.680   4.076   3.258 -1.1593  1.6994  0.9408
   96SAPC   C37 9460   4.519   3.991   3.373  0.4672 -0.1453  0.5548
   96SAPC   H7X 9461   4.589   3.908   3.398  0.3917 -0.9619 -1.7210
   96SAPC   H7Y 9462   4.418   3.949   3.354  0.9810 -0.1907 -2.6975
   96SAPC   C38 9463   4.521   4.097   3.485 -0.0204 -0.4635  0.6455
   96SAPC   H8X 9464   4.475   4.194   3.456 -2.2200 -1.0438  1.9685
   96SAPC   H8Y 9465   4.627   4.126   3.506  0.4903 -1.6884 -0.1727
   96SAPC   C39 9466   4.462   4.050   3.615  0.0787  0.2874  0.3117
   96SAPC   H9X 9467   4.538   3.973   3.637  2.4869  2.3486 -0.3102
   96SAPC   H9Y 9468   4.362   4.004   3.598  0.0120  0.0854  1.1939
   96SAPC  C310 9469   4.475   4.156   3.721  0.0112  0.2494  0.1380
   96SAPC  H10X 9470   4.420   4.245   3.686  0.0543  0.7905  1.3749
   96SAPC  H10Y 9471   4.577   4.188   3.750  0.5621 -1.2470 -0.0607
   96SAPC  C311 9472   4.434   4.089   3.853 -0.3174 -0.6605 -0.5906
   96SAPC  H11X 9473   4.492   3.996   3.866  1.4594  0.6138  1.3365
   96SAPC  H11Y 9474   4.326   4.062   3.849 -1.2884  2.6999 -0.4318
   96SAPC  C312 9475   4.443   4.192   3.965 -0.6954 -0.2078 -0.6748
   96SAPC  H12X 9476   4.411   4.292   3.929  1.9385  1.1687  0.4871
   96SAPC  H12Y 9477   4.549   4.212   3.991 -0.6126  0.3447 -1.4025
   96SAPC  C313 9478   4.354   4.160   4.090 -0.0754  0.4124 -0.3581
   96SAPC  H13X 9479   4.378   4.062   4.137  0.9772  0.4949 -0.6978
   96SAPC  H13Y 9480   4.251   4.154   4.049  0.2731 -2.4427 -1.0823
   96SAPC  C314 9481   4.365   4.254   4.211 -0.0145 -0.1414  0.4915
   96SAPC  H14X 9482   4.358   4.357   4.171 -0.5291 -0.5319 -0.4636
   96SAPC  H14Y 9483   4.467   4.238   4.253  0.2506 -1.3825 -0.5460
   96SAPC  C315 9484   4.257   4.235   4.317  0.0209 -0.3013  0.3932
   96SAPC  H15X 9485   4.240   4.128   4.340 -1.9127 -0.0724  0.1376
   96SAPC  H15Y 9486   4.165   4.274   4.269  0.3485  1.8631  1.4169
   96SAPC  C316 9487   4.265   4.316   4.448 -0.3970  0.4233 -0.5765
   96SAPC  H16X 9488   4.367   4.297   4.487  0.1106 -0.8091 -2.4004
   96SAPC  H16Y 9489   4.196   4.275   4.525 -1.5900 -0.7926 -2.2073
   96SAPC  C317 9490   4.238   4.467   4.429  0.0079  0.2401 -0.2001
   96SAPC  H17X 9491   4.131   4.474   4.402  0.1135  1.6449 -0.3460
   96SAPC  H17Y 9492   4.304   4.506   4.349 -0.0019  0.9835  0.1352
   96SAPC  C318 9493   4.258   4.560   4.547  0.1634 -0.2730 -0.5445
   96SAPC  H18X 9494   4.213   4.659   4.524 -0.7622 -1.0142 -2.0477
   96SAPC  H18Y 9495   4.356   4.570   4.599 -1.0858  0.7847  1.7270
   96SAPC  H18Z 9496   4.196   4.517   4.628  0.8896 -2.1395 -0.9194
   97SAPC     N 9497   4.730   2.689   2.466  0.3701  0.1860 -0.0481
   97SAPC   C12 9498   4.583   2.653   2.467 -0.0525 -0.2428 -0.2445
   97SAPC  H12A 9499   4.558   2.564   2.522  0.4128 -0.0067  0.3574
   97SAPC  H12B 9500   4.549   2.631   2.367  0.0969 -0.9719 -0.1376
   97SAPC   C13 9501   4.764   2.806   2.377 -0.4789  0.1934  0.3245
   97SAPC  H13A 9502   4.686   2.797   2.302  0.5035 -2.3915 -0.5061
   97SAPC  H13B 9503   4.771   2.899   2.433 -0.6462 -0.0527  0.7539
   97SAPC  H13C 9504   4.858   2.773   2.336 -0.0942  0.6830  0.7933
   97SAPC   C14 9505   4.781   2.714   2.601  0.3173  0.2086 -0.3440
   97SAPC  H14A 9506   4.734   2.802   2.643 -1.6753 -1.5259  1.2923
   97SAPC  H14B 9507   4.751   2.635   2.668 -0.1787 -0.1796 -1.0124
   97SAPC  H14C 9508   4.886   2.740   2.595  0.2289  1.3376  1.8715
   97SAPC   C15 9509   4.800   2.571   2.414 -0.0786 -0.3475  0.8410
   97SAPC  H15A 9510   4.757   2.552   2.317  1.3815  4.3179 -1.0003
   97SAPC  H15B 9511   4.901   2.594   2.384  0.1375 -0.8133  1.2046
   97SAPC  H15C 9512   4.812   2.487   2.481  1.2972 -0.1401  0.8920
   97SAPC   C11 9513   4.492   2.769   2.527 -0.4354 -0.3402  0.0304
   97SAPC  H11A 9514   4.537   2.864   2.492  0.0606 -0.3931  0.4992
   97SAPC  H11B 9515   4.478   2.777   2.637 -1.2239 -0.8436 -0.0249
   97SAPC     P 9516   4.270   2.635   2.515 -0.1528 -0.0481 -0.5219
   97SAPC   O13 9517   4.134   2.653   2.459  0.2051 -0.8513 -0.1452
   97SAPC   O14 9518   4.334   2.507   2.466  0.3943 -0.0243  0.0372
   97SAPC   O12 9519   4.363   2.763   2.479 -0.0935  1.0273  0.0898
   97SAPC   O11 9520   4.275   2.632   2.668 -0.6541  0.6337 -0.1782
   97SAPC    C1 9521   4.161   2.692   2.735  0.2326  0.2966  0.2897
   97SAPC    HA 9522   4.065   2.648   2.698 -0.6818  1.3406  1.3162
   97SAPC    HB 9523   4.159   2.650   2.838 -0.1584  0.3687  0.3136
   97SAPC    C2 9524   4.164   2.846   2.751  0.5544 -0.1964 -0.0363
   97SAPC    HS 9525   4.168   2.869   2.642  1.1865 -1.5992 -0.3362
   97SAPC   O21 9526   4.285   2.885   2.816  0.3654  0.1239  0.0387
   97SAPC   C21 9527   4.326   3.005   2.781 -0.1035  0.6865  0.0595
   97SAPC   O22 9528   4.281   3.078   2.691  0.0496  0.2666 -0.7010
   97SAPC   C22 9529   4.437   3.055   2.872 -0.0316 -0.3052  0.3118
   97SAPC   H2R 9530   4.404   3.155   2.909  0.6300 -0.1461  0.4706
   97SAPC   H2S 9531   4.434   2.980   2.954 -0.6123 -2.0785 -1.2560
   97SAPC    C3 9532   4.036   2.922   2.797  0.6533 -0.4894 -0.2775
   97SAPC    HX 9533   3.957   2.876   2.733  0.1643  0.2932 -0.2543
   97SAPC    HY 9534   4.037   3.029   2.767 -1.5258 -0.1411  0.7023
   97SAPC   O31 9535   4.004   2.896   2.941  0.1341  0.1175 -0.3103
   97SAPC   C31 9536   4.058   2.992   3.014 -0.7084 -0.0458  0.7816
   97SAPC   O32 9537   4.105   3.096   2.968 -0.1846 -0.0828  0.5874
   97SAPC   C32 9538   4.036   2.959   3.160  0.2595  0.4123 -0.3774
   97SAPC   H2X 9539   4.059   2.856   3.194 -1.4780  0.4249  0.9951
   97SAPC   H2Y 9540   3.927   2.976   3.176 -0.5405 -3.7334 -0.3690
   97SAPC   C23 9541   4.568   3.068   2.798 -0.7875  0.6347  0.3835
   97SAPC   H3R 9542   4.577   3.157   2.732  3.5613  0.5397  0.5401
   97SAPC   H3S 9543   4.594   2.978   2.737 -1.3580  0.9944 -0.4078
   97SAPC   C24 9544   4.679   3.079   2.911  0.7033 -0.1105  0.7636
   97SAPC   H4R 9545   4.775   3.058   2.860 -0.1051 -2.1248 -0.0417
   97SAPC   H4S 9546   4.663   2.987   2.971 -1.6091  0.5993  1.3484
   97SAPC   C25 9547   4.680   3.201   2.998 -0.3655  0.3105 -0.2279
   97SAPC   H5R 9548   4.709   3.292   2.944 -1.0801  1.0573  0.6110
   97SAPC   C26 9549   4.667   3.204   3.132  0.4941 -0.4143  0.0034
   97SAPC   H6R 9550   4.673   3.305   3.175  0.4960 -0.1956 -0.5007
   97SAPC   C27 9551   4.633   3.095   3.234 -0.1646 -0.1272  0.2265
   97SAPC   H7R 9552   4.722   3.059   3.289 -0.7052 -0.6974  0.7501
   97SAPC   H7S 9553   4.600   3.003   3.183  1.7286 -1.2785  0.9672
   97SAPC   C28 9554   4.530   3.148   3.333 -0.5913  0.5953  0.3041
   97SAPC   H8R 9555   4.428   3.157   3.291 -1.8021 -1.3689  2.5958
   97SAPC   C29 9556   4.556   3.165   3.461 -0.7727  0.1688  0.3487
   97SAPC   H9R 9557   4.476   3.215   3.519  0.0975  1.0598  0.8131
   97SAPC  C210 9558   4.690   3.166   3.527 -0.4966 -0.3445 -0.2573
   97SAPC  H10R 9559   4.743   3.262   3.508 -0.0811 -0.3278  0.8941
   97SAPC  H10S 9560   4.756   3.084   3.493 -0.0296 -0.7320  1.4741
   97SAPC  C211 9561   4.682   3.144   3.677 -0.4725 -0.2886 -0.3741
   97SAPC  H11R 9562   4.624   3.056   3.709  0.2031 -1.2337 -1.6674
   97SAPC  C212 9563   4.749   3.226   3.769 -0.0602 -0.0167 -0.2122
   97SAPC  H12R 9564   4.731   3.205   3.875  0.5861 -0.6472 -0.2188
   97SAPC  C213 9565   4.845   3.342   3.746 -0.8443  0.5004 -0.2435
   97SAPC  H13R 9566   4.792   3.440   3.744  1.5108  1.8334 -0.9819
   97SAPC  H13S 9567   4.895   3.345   3.647 -0.0139 -1.1595  0.1013
   97SAPC  C214 9568   4.956   3.325   3.850  0.2510 -0.9181 -0.1864
   97SAPC  H14R 9569   5.047   3.280   3.809  0.5821 -2.0714  1.6977
   97SAPC  C215 9570   4.952   3.352   3.984  0.8318  1.0594 -0.5082
   97SAPC  H15R 9571   5.043   3.338   4.044  0.7622  0.3241 -0.5718
   97SAPC  C216 9572   4.843   3.426   4.054  0.2110 -1.0052 -0.2140
   97SAPC  H16R 9573   4.754   3.442   3.989  1.2837  1.6665 -1.1757
   97SAPC  H16S 9574   4.876   3.525   4.093 -1.5054  0.5193 -2.3601
   97SAPC  C217 9575   4.797   3.354   4.181 -0.2527 -0.5250 -0.0851
   97SAPC  H17R 9576   4.778   3.253   4.139 -0.2274 -0.5837  0.0468
   97SAPC  H17S 9577   4.703   3.400   4.220 -1.3592 -2.2568 -0.6052
   97SAPC  C218 9578   4.909   3.364   4.287 -0.0146  0.3113 -0.3953
   97SAPC  H18R 9579   4.945   3.469   4.295  2.8885 -0.5171 -1.1301
   97SAPC  H18S 9580   5.010   3.329   4.257  1.0168  2.6814  0.0689
   97SAPC  C219 9581   4.870   3.309   4.418  0.3561 -0.1588  0.3977
   97SAPC  H19R 9582   4.764   3.331   4.440  0.5765  1.0514  0.3224
   97SAPC  H19S 9583   4.928   3.365   4.495  0.6276  0.3209 -0.1436
   97SAPC  C220 9584   4.889   3.158   4.425 -0.0227  0.2866 -0.3401
   97SAPC  H20R 9585   4.871   3.105   4.521 -0.0676 -2.2835 -1.6766
   97SAPC  H20S 9586   4.993   3.140   4.390 -0.0246 -0.8263  0.1852
   97SAPC  H20T 9587   4.840   3.115   4.336  1.9473  0.8242 -1.7620
   97SAPC   C33 9588   4.108   3.070   3.245 -0.3334  0.1027  0.1908
   97SAPC   H3X 9589   4.089   3.176   3.218  0.7226  0.1586 -0.3936
   97SAPC   H3Y 9590   4.218   3.060   3.233 -0.4045 -0.9447  0.3517
   97SAPC   C34 9591   4.077   3.058   3.395  0.5513  0.1183 -0.0769
   97SAPC   H4X 9592   4.084   2.949   3.415 -0.6732 -0.1017 -0.7547
   97SAPC   H4Y 9593   3.970   3.086   3.410  1.0189  1.9844  0.0079
   97SAPC   C35 9594   4.175   3.110   3.491 -0.2577 -0.0624  0.1713
   97SAPC   H5X 9595   4.170   3.220   3.477  0.0665 -0.0679  0.0147
   97SAPC   H5Y 9596   4.274   3.063   3.477 -0.0520  1.1030 -2.9457
   97SAPC   C36 9597   4.133   3.094   3.644  0.0153 -0.1741 -0.2861
   97SAPC   H6X 9598   4.128   2.983   3.652  2.0871 -0.5132 -2.3609
   97SAPC   H6Y 9599   4.040   3.151   3.666  0.9534  2.1694 -1.9529
   97SAPC   C37 9600   4.245   3.160   3.734  0.4808  0.2323  0.6156
   97SAPC   H7X 9601   4.222   3.264   3.705 -0.1130 -0.1476 -0.3085
   97SAPC   H7Y 9602   4.344   3.135   3.691  0.0852 -0.6703  0.1927
   97SAPC   C38 9603   4.233   3.114   3.885 -0.4057 -0.5766  1.1000
   97SAPC   H8X 9604   4.222   3.004   3.884 -0.1868 -0.6203 -1.0544
   97SAPC   H8Y 9605   4.148   3.165   3.935 -0.6128  0.1782  0.0166
   97SAPC   C39 9606   4.367   3.157   3.952  0.8418 -0.7688  0.3730
   97SAPC   H9X 9607   4.411   3.249   3.909 -0.8918 -0.4365 -0.7585
   97SAPC   H9Y 9608   4.444   3.081   3.924  0.5778 -1.1953  0.7882
   97SAPC  C310 9609   4.350   3.163   4.108  1.0124  0.0777  0.6625
   97SAPC  H10X 9610   4.326   3.060   4.140 -0.5249 -0.1408 -0.9975
   97SAPC  H10Y 9611   4.271   3.234   4.139 -0.3437 -0.1290 -2.0239
   97SAPC  C311 9612   4.481   3.198   4.171  0.0133 -0.1894  0.4366
   97SAPC  H11X 9613   4.520   3.286   4.117  0.2948 -1.2168 -1.1006
   97SAPC  H11Y 9614   4.554   3.114   4.160  0.4725  0.0856  1.2374
   97SAPC  C312 9615   4.463   3.228   4.321 -0.1982  0.0384  0.1142
   97SAPC  H12X 9616   4.378   3.300   4.327 -0.1004  0.0899  1.0255
   97SAPC  H12Y 9617   4.551   3.276   4.369 -0.7079 -0.7211  1.8697
   97SAPC  C313 9618   4.431   3.111   4.406 -0.9460  0.0347 -0.4088
   97SAPC  H13X 9619   4.520   3.044   4.407  0.4999  1.8171  1.8851
   97SAPC  H13Y 9620   4.354   3.049   4.356 -0.0500 -0.2459 -1.5003
   97SAPC  C314 9621   4.424   3.154   4.554 -0.4777  0.2253 -0.0231
   97SAPC  H14X 9622   4.352   3.238   4.568  0.2770  1.4388 -2.6851
   97SAPC  H14Y 9623   4.516   3.213   4.573 -2.6109  4.1301 -0.4959
   97SAPC  C315 9624   4.395   3.035   4.649  0.7672 -0.1664 -0.8333
   97SAPC  H15X 9625   4.374   3.075   4.750  0.8852  0.1481 -0.9311
   97SAPC  H15Y 9626   4.482   2.967   4.655 -1.2718 -2.7776  0.8703
   97SAPC  C316 9627   4.279   2.940   4.615  0.3853  0.1442  0.4728
   97SAPC  H16X 9628   4.301   2.893   4.516  2.6101 -0.4812  1.2203
   97SAPC  H16Y 9629   4.188   3.002   4.602  0.1341 -0.2245  0.4413
   97SAPC  C317 9630   4.264   2.830   4.720  0.0538 -0.1309 -0.0169
   97SAPC  H17X 9631   4.253   2.891   4.813 -1.7571  0.1385 -0.3767
   97SAPC  H17Y 9632   4.355   2.768   4.728  1.0028  1.3042  0.9576
   97SAPC  C318 9633   4.139   2.742   4.696 -0.0713 -0.1857  0.1707
   97SAPC  H18X 9634   4.116   2.674   4.781 -0.3567 -1.5347 -0.9349
   97SAPC  H18Y 9635   4.158   2.676   4.609  0.0835 -0.8063  0.6659
   97SAPC  H18Z 9636   4.047   2.799   4.674  0.5329 -0.5236 -4.0538
   98SAPC     N 9637   1.136   3.846   1.886 -0.3085  0.0460 -0.7035
   98SAPC   C12 9638   1.267   3.792   1.826 -0.0007  0.6715  0.4940
   98SAPC  H12A 9639   1.320   3.870   1.774 -0.5761  0.8166  0.1156
   98SAPC  H12B 9640   1.251   3.718   1.749  1.3477  0.5638  0.2941
   98SAPC   C13 9641   1.040   3.898   1.787 -0.7046 -0.0045 -0.4305
   98SAPC  H13A 9642   0.943   3.921   1.829 -0.2641  2.4434 -0.6348
   98SAPC  H13B 9643   1.099   3.968   1.730 -0.6006 -0.0629 -0.3957
   98SAPC  H13C 9644   1.018   3.822   1.713  0.1106  1.1333 -1.8812
   98SAPC   C14 9645   1.079   3.731   1.964  0.1553  0.3103 -0.1286
   98SAPC  H14A 9646   1.158   3.676   2.011 -0.3799 -0.5849 -0.2475
   98SAPC  H14B 9647   1.009   3.761   2.041  2.4177 -0.2508  2.2644
   98SAPC  H14C 9648   1.034   3.657   1.900  3.7857 -3.4989  1.2945
   98SAPC   C15 9649   1.189   3.951   1.975  0.0272  0.5221  0.0248
   98SAPC  H15A 9650   1.127   3.966   2.063  2.0344 -0.4549  1.7090
   98SAPC  H15B 9651   1.286   3.918   2.009 -0.3874  0.3609  1.1179
   98SAPC  H15C 9652   1.196   4.044   1.923 -0.7311  0.6829  0.1952
   98SAPC   C11 9653   1.365   3.730   1.914 -0.2223  0.5293 -0.4234
   98SAPC  H11A 9654   1.443   3.676   1.855  0.8172  0.4864  0.9610
   98SAPC  H11B 9655   1.325   3.644   1.971  0.6990 -0.1611 -0.7812
   98SAPC     P 9656   1.504   3.757   2.132 -0.2552 -0.1354  0.2306
   98SAPC   O13 9657   1.424   3.644   2.184  0.2373 -0.2114  0.2819
   98SAPC   O14 9658   1.651   3.735   2.121  0.0626 -0.4601 -0.3290
   98SAPC   O12 9659   1.435   3.822   2.004 -0.3306 -0.8397  0.7608
   98SAPC   O11 9660   1.470   3.879   2.223 -0.1016  0.1453  0.4517
   98SAPC    C1 9661   1.340   3.902   2.281  0.2122  0.1499  0.0313
   98SAPC    HA 9662   1.306   4.005   2.254  0.8013  0.6604  1.1475
   98SAPC    HB 9663   1.264   3.829   2.244 -2.0986  2.1495  0.5466
   98SAPC    C2 9664   1.334   3.884   2.436  0.3965  0.3612  0.1953
   98SAPC    HS 9665   1.233   3.864   2.477 -0.0279  1.9760  0.0084
   98SAPC   O21 9666   1.397   3.993   2.509 -0.5044 -0.4409 -0.1133
   98SAPC   C21 9667   1.339   4.116   2.515  0.2318 -0.0153 -0.2554
   98SAPC   O22 9668   1.232   4.143   2.456  0.2596  0.0589  0.0675
   98SAPC   C22 9669   1.424   4.219   2.590  0.7569 -0.5187  0.0123
   98SAPC   H2R 9670   1.506   4.157   2.632  0.3095 -1.6567 -0.7369
   98SAPC   H2S 9671   1.455   4.287   2.509 -1.0567  0.7368  0.2953
   98SAPC    C3 9672   1.405   3.753   2.484 -0.1251 -1.0869 -0.1071
   98SAPC    HX 9673   1.512   3.772   2.460  0.0267 -1.1035  0.5353
   98SAPC    HY 9674   1.361   3.667   2.429 -1.4591 -2.4796  2.9188
   98SAPC   O31 9675   1.394   3.741   2.624  0.1658 -0.2338  0.3683
   98SAPC   C31 9676   1.433   3.618   2.670 -0.0922 -0.2499  0.3155
   98SAPC   O32 9677   1.470   3.524   2.600 -0.5285 -0.0114  0.7225
   98SAPC   C32 9678   1.425   3.618   2.824  0.2324 -0.7927 -0.1325
   98SAPC   H2X 9679   1.530   3.611   2.859  1.3853 -1.3030 -3.3723
   98SAPC   H2Y 9680   1.371   3.523   2.844  0.2941 -1.2310 -1.8985
   98SAPC   C23 9681   1.343   4.299   2.701 -0.6297 -0.1784 -0.6270
   98SAPC   H3R 9682   1.245   4.335   2.663 -1.3623 -1.2231  0.2069
   98SAPC   H3S 9683   1.403   4.387   2.733 -1.4497 -0.2169  1.1122
   98SAPC   C24 9684   1.315   4.219   2.835  0.2722 -0.1451 -0.0621
   98SAPC   H4R 9685   1.243   4.144   2.795  1.5457 -1.0760 -0.7079
   98SAPC   H4S 9686   1.262   4.296   2.895 -1.5048 -1.6990  0.4660
   98SAPC   C25 9687   1.433   4.152   2.910  0.0766 -0.1055  0.6300
   98SAPC   H5R 9688   1.489   4.095   2.834 -1.6258 -1.8159  0.5921
   98SAPC   C26 9689   1.462   4.144   3.039 -0.3376  0.1814  0.0421
   98SAPC   H6R 9690   1.548   4.088   3.078 -0.6255 -1.0110 -0.9765
   98SAPC   C27 9691   1.391   4.226   3.147 -0.1650 -0.2628  0.3531
   98SAPC   H7R 9692   1.315   4.291   3.101  0.5001  0.8733  0.8278
   98SAPC   H7S 9693   1.463   4.290   3.203  0.0709  1.3907 -1.7088
   98SAPC   C28 9694   1.321   4.127   3.236  0.0708  0.3270 -0.2522
   98SAPC   H8R 9695   1.233   4.083   3.187 -0.1326  2.9503 -2.4957
   98SAPC   C29 9696   1.356   4.094   3.367 -0.9266 -1.1399 -0.3153
   98SAPC   H9R 9697   1.282   4.035   3.422 -1.9478  0.4775  0.1365
   98SAPC  C210 9698   1.475   4.146   3.457 -0.0865  0.1474  0.1660
   98SAPC  H10R 9699   1.437   4.244   3.493 -2.2770 -0.0521 -1.3963
   98SAPC  H10S 9700   1.566   4.164   3.396 -0.2065 -0.0889 -0.0887
   98SAPC  C211 9701   1.513   4.041   3.558  0.2856  0.2676  0.4445
   98SAPC  H11R 9702   1.499   3.935   3.530 -0.0862  0.1174  1.1949
   98SAPC  C212 9703   1.562   4.057   3.682 -0.0352  0.2059 -0.7160
   98SAPC  H12R 9704   1.596   3.967   3.736 -0.7836  0.9484  1.0959
   98SAPC  C213 9705   1.615   4.173   3.757  0.0915 -0.5221  0.1405
   98SAPC  H13R 9706   1.563   4.264   3.720  0.4082 -0.6269 -0.5903
   98SAPC  H13S 9707   1.721   4.187   3.728 -0.2588  0.6165 -0.6677
   98SAPC  C214 9708   1.581   4.155   3.902 -0.1633 -0.0797 -0.4154
   98SAPC  H14R 9709   1.583   4.050   3.936  2.5809 -0.2450 -0.8309
   98SAPC  C215 9710   1.544   4.243   3.998  0.4265  0.1200  0.2323
   98SAPC  H15R 9711   1.516   4.202   4.095  1.1703 -0.1851  0.3252
   98SAPC  C216 9712   1.526   4.392   3.978  0.0706  0.0713  0.4592
   98SAPC  H16R 9713   1.421   4.399   3.942 -0.7839 -1.5324  2.4650
   98SAPC  H16S 9714   1.579   4.433   3.889 -0.8498 -2.2456 -1.2804
   98SAPC  C217 9715   1.548   4.485   4.102  0.0262 -0.3285  0.3528
   98SAPC  H17R 9716   1.480   4.448   4.182 -1.2693  2.8351  0.8603
   98SAPC  H17S 9717   1.523   4.589   4.072  1.4030 -0.1203 -0.1383
   98SAPC  C218 9718   1.694   4.481   4.149  0.0425  0.2922  0.2059
   98SAPC  H18R 9719   1.758   4.493   4.059 -0.5162  0.4125 -0.1837
   98SAPC  H18S 9720   1.709   4.376   4.182  2.6843  0.9591  1.3236
   98SAPC  C219 9721   1.723   4.589   4.257 -1.0927 -0.5410  0.3501
   98SAPC  H19R 9722   1.648   4.585   4.339 -0.7332 -0.4415  0.6898
   98SAPC  H19S 9723   1.712   4.690   4.212  3.1299 -0.2782 -0.5238
   98SAPC  C220 9724   1.866   4.578   4.312  0.1099  0.4679  0.2750
   98SAPC  H20R 9725   1.941   4.601   4.233  1.0852  0.0346  1.0462
   98SAPC  H20S 9726   1.894   4.473   4.335  1.5121  0.2993 -1.8373
   98SAPC  H20T 9727   1.888   4.650   4.393  0.7068  0.3849  0.1950
   98SAPC   C33 9728   1.345   3.741   2.875 -0.4069  0.4627  0.0749
   98SAPC   H3X 9729   1.238   3.716   2.856 -0.5933  2.6742 -2.2408
   98SAPC   H3Y 9730   1.370   3.839   2.830  0.9481  0.6995  1.2781
   98SAPC   C34 9731   1.363   3.773   3.026  0.3101 -0.1375 -0.1432
   98SAPC   H4X 9732   1.312   3.869   3.051 -1.3082 -1.6023  2.6800
   98SAPC   H4Y 9733   1.473   3.785   3.041  0.3991  0.7291 -1.3558
   98SAPC   C35 9734   1.298   3.675   3.115  0.5474 -0.2942  0.1843
   98SAPC   H5X 9735   1.363   3.587   3.134  0.3263 -0.8024 -1.2938
   98SAPC   H5Y 9736   1.204   3.640   3.069  0.4636 -0.3704  0.4144
   98SAPC   C36 9737   1.263   3.729   3.252  0.2393  0.2597  0.1930
   98SAPC   H6X 9738   1.189   3.810   3.235  0.4628  0.0020 -2.4619
   98SAPC   H6Y 9739   1.350   3.779   3.300  0.2098 -0.1750  0.6987
   98SAPC   C37 9740   1.197   3.631   3.347  0.1457 -0.0421  0.1225
   98SAPC   H7X 9741   1.268   3.553   3.379 -0.0056 -0.8404 -1.3602
   98SAPC   H7Y 9742   1.112   3.585   3.292 -1.2421  2.7300 -0.2481
   98SAPC   C38 9743   1.133   3.712   3.470  0.3774  0.1485  0.9231
   98SAPC   H8X 9744   1.029   3.673   3.478 -0.1743  0.4830 -2.6314
   98SAPC   H8Y 9745   1.127   3.821   3.446 -0.6623 -0.2904 -1.0484
   98SAPC   C39 9746   1.213   3.681   3.596  0.3943  0.0377 -0.4990
   98SAPC   H9X 9747   1.319   3.710   3.582  0.5798 -0.8472 -0.9887
   98SAPC   H9Y 9748   1.222   3.572   3.612  3.2509  0.3882  0.9496
   98SAPC  C310 9749   1.142   3.740   3.723  0.1985  0.2578 -0.0141
   98SAPC  H10X 9750   1.045   3.686   3.729  1.1131 -1.5881 -0.8661
   98SAPC  H10Y 9751   1.135   3.848   3.701 -0.6700 -0.1279 -1.8707
   98SAPC  C311 9752   1.216   3.707   3.848 -0.1442  0.2299  0.6957
   98SAPC  H11X 9753   1.296   3.784   3.859 -0.6068  1.3867 -2.7429
   98SAPC  H11Y 9754   1.272   3.612   3.837  1.6438  1.2725  0.3704
   98SAPC  C312 9755   1.123   3.713   3.969  0.2778  0.0168 -1.0334
   98SAPC  H12X 9756   1.058   3.623   3.981  0.3060  0.1283  0.1503
   98SAPC  H12Y 9757   1.057   3.801   3.957 -2.3406 -1.7469 -0.6083
   98SAPC  C313 9758   1.208   3.720   4.089  0.4011 -0.2061  0.4668
   98SAPC  H13X 9759   1.268   3.813   4.100  1.3317 -0.8803  1.3763
   98SAPC  H13Y 9760   1.286   3.640   4.089  0.0665 -0.5487  1.5475
   98SAPC  C314 9761   1.131   3.701   4.220 -0.1995  1.1244  0.4978
   98SAPC  H14X 9762   1.202   3.716   4.305  0.2814 -0.1452  0.3367
   98SAPC  H14Y 9763   1.099   3.595   4.218  1.9004  0.4341 -1.6393
   98SAPC  C315 9764   1.009   3.786   4.238 -0.4979  0.0414 -0.0623
   98SAPC  H15X 9765   0.940   3.745   4.161 -1.1042 -0.6850  0.8330
   98SAPC  H15Y 9766   1.040   3.888   4.207 -0.3415 -0.3144 -1.1124
   98SAPC  C316 9767   0.949   3.785   4.383 -1.2806  0.1486  0.6022
   98SAPC  H16X 9768   1.029   3.817   4.452 -0.5968 -1.1712  0.4566
   98SAPC  H16Y 9769   0.912   3.687   4.422 -0.4517 -0.6894 -0.6206
   98SAPC  C317 9770   0.832   3.896   4.371  0.0062  0.3272 -0.6355
   98SAPC  H17X 9771   0.875   3.987   4.323  2.1276 -1.1903 -1.7798
   98SAPC  H17Y 9772   0.804   3.925   4.474 -1.0818 -0.1339 -0.7944
   98SAPC  C318 9773   0.715   3.844   4.286 -0.1901  0.9247  0.3547
   98SAPC  H18X 9774   0.667   3.752   4.326 -0.8789  1.2952  0.3920
   98SAPC  H18Y 9775   0.743   3.824   4.180  0.8424 -0.1607  0.8158
   98SAPC  H18Z 9776   0.630   3.915   4.287 -1.1187 -0.1523  1.7991
   99SAPC     N 9777   5.623   1.643   2.017 -0.0278 -0.4518  0.9330
   99SAPC   C12 9778   5.588   1.633   2.170  0.8413 -0.1924 -0.8328
   99SAPC  H12A 9779   5.677   1.655   2.228 -0.2780  0.2799  0.7805
   99SAPC  H12B 9780   5.568   1.529   2.191  3.2205 -1.2047 -2.9551
   99SAPC   C13 9781   5.602   1.784   1.964 -0.7282 -0.2456 -0.5843
   99SAPC  H13A 9782   5.521   1.840   2.010  0.7401  3.2690 -1.9171
   99SAPC  H13B 9783   5.693   1.842   1.976  1.5138 -3.7383  0.7212
   99SAPC  H13C 9784   5.588   1.775   1.857  1.4813 -1.0085 -0.8618
   99SAPC   C14 9785   5.761   1.603   1.980 -0.5002  0.0784  0.2654
   99SAPC  H14A 9786   5.776   1.608   1.873 -1.1991 -0.0636  0.1550
   99SAPC  H14B 9787   5.841   1.663   2.020  1.9029 -1.5967 -1.6682
   99SAPC  H14C 9788   5.780   1.500   2.009 -2.1108 -0.5233 -0.6820
   99SAPC   C15 9789   5.532   1.558   1.933 -0.1389  0.5578  0.0504
   99SAPC  H15A 9790   5.533   1.575   1.827  1.6615  0.6686  0.0539
   99SAPC  H15B 9791   5.568   1.456   1.936 -0.9552  0.2786  2.0364
   99SAPC  H15C 9792   5.429   1.549   1.965  0.5908  0.0727  2.4797
   99SAPC   C11 9793   5.481   1.716   2.229 -0.1826 -0.2764 -0.1558
   99SAPC  H11A 9794   5.488   1.823   2.199  1.3776 -0.7660 -1.6834
   99SAPC  H11B 9795   5.489   1.722   2.340 -0.9414 -1.9287  0.0102
   99SAPC     P 9796   5.289   1.536   2.238 -0.1110  0.3218  0.4063
   99SAPC   O13 9797   5.189   1.490   2.143  0.5030  0.7398 -0.3010
   99SAPC   O14 9798   5.397   1.436   2.265 -0.3106 -0.4315  0.2883
   99SAPC   O12 9799   5.352   1.676   2.190  0.5777 -0.4399  0.4625
   99SAPC   O11 9800   5.225   1.585   2.376  0.0030 -0.2248  0.6159
   99SAPC    C1 9801   5.150   1.713   2.387  0.0048  0.1562 -0.3582
   99SAPC    HA 9802   5.222   1.796   2.401 -1.5244  1.2079  1.7320
   99SAPC    HB 9803   5.085   1.735   2.299 -1.3562  2.1403  1.0669
   99SAPC    C2 9804   5.055   1.709   2.511  0.5467 -0.9248  0.3388
   99SAPC    HS 9805   5.016   1.812   2.523  0.1377 -1.2475  1.9676
   99SAPC   O21 9806   5.124   1.670   2.626 -0.6713 -0.0473 -0.3299
   99SAPC   C21 9807   5.202   1.765   2.678 -0.9730 -0.2318  0.1611
   99SAPC   O22 9808   5.227   1.872   2.626  0.2396  0.0546  0.6080
   99SAPC   C22 9809   5.265   1.726   2.812 -0.3358 -0.2518 -0.2112
   99SAPC   H2R 9810   5.216   1.631   2.839 -0.5431 -0.3062 -0.7563
   99SAPC   H2S 9811   5.374   1.719   2.792  0.0277  1.8045  0.7859
   99SAPC    C3 9812   4.941   1.613   2.480  0.1987 -0.0395 -0.0787
   99SAPC    HX 9813   4.974   1.508   2.464 -1.5990 -0.6240 -0.1831
   99SAPC    HY 9814   4.903   1.653   2.383 -2.2842  0.1886  0.9150
   99SAPC   O31 9815   4.837   1.609   2.578  0.0479 -0.3488 -0.5108
   99SAPC   C31 9816   4.719   1.557   2.536  0.2774  0.3454  0.7522
   99SAPC   O32 9817   4.702   1.517   2.421  0.3539  0.2661 -0.0748
   99SAPC   C32 9818   4.620   1.575   2.651 -0.9532  0.5477  0.5433
   99SAPC   H2X 9819   4.567   1.670   2.630 -1.5351 -0.1145 -1.1495
   99SAPC   H2Y 9820   4.672   1.584   2.749  1.4888 -1.3873 -0.4710
   99SAPC   C23 9821   5.249   1.830   2.925 -0.5392 -0.1234 -0.5982
   99SAPC   H3R 9822   5.140   1.838   2.943 -0.4746 -0.6515  0.0709
   99SAPC   H3S 9823   5.290   1.931   2.903  0.3818 -0.5874 -1.0760
   99SAPC   C24 9824   5.317   1.785   3.063 -0.4374 -0.5485  0.1151
   99SAPC   H4R 9825   5.423   1.761   3.042 -0.3189 -1.1195  1.2564
   99SAPC   H4S 9826   5.268   1.702   3.118 -2.3643  1.5383  1.7602
   99SAPC   C25 9827   5.311   1.896   3.166 -0.0916  0.1058 -0.5797
   99SAPC   H5R 9828   5.216   1.951   3.164 -0.4264 -0.2638 -4.9345
   99SAPC   C26 9829   5.398   1.936   3.249  0.1307 -0.1282 -0.0283
   99SAPC   H6R 9830   5.383   2.025   3.313  0.2650  0.3612 -0.6628
   99SAPC   C27 9831   5.539   1.894   3.260  0.5355 -0.9314 -0.3716
   99SAPC   H7R 9832   5.592   1.915   3.164  0.7444  0.9097  0.0985
   99SAPC   H7S 9833   5.536   1.788   3.294 -2.1630 -0.6700  0.4035
   99SAPC   C28 9834   5.622   1.954   3.369 -0.2507 -0.4499 -0.9107
   99SAPC   H8R 9835   5.718   1.996   3.335  0.2155 -0.9200 -0.1870
   99SAPC   C29 9836   5.600   1.928   3.501 -1.0709 -0.1610  0.1124
   99SAPC   H9R 9837   5.667   1.980   3.572  0.7470  0.0750 -1.6861
   99SAPC  C210 9838   5.480   1.853   3.566  0.0713 -0.6249 -0.2762
   99SAPC  H10R 9839   5.512   1.757   3.614 -0.4582  0.2253  1.8778
   99SAPC  H10S 9840   5.404   1.828   3.489  0.5268  0.8167 -1.2349
   99SAPC  C211 9841   5.416   1.937   3.678 -0.4432  1.1680 -0.1670
   99SAPC  H11R 9842   5.389   2.034   3.633 -1.6365  0.2408 -1.5753
   99SAPC  C212 9843   5.391   1.905   3.808  0.1066 -0.5842  0.4034
   99SAPC  H12R 9844   5.351   1.980   3.878  2.5519  0.2176  1.0297
   99SAPC  C213 9845   5.425   1.768   3.868 -0.0254 -0.1751  0.4877
   99SAPC  H13R 9846   5.534   1.777   3.888 -0.3837  2.3320  1.7140
   99SAPC  H13S 9847   5.423   1.683   3.796  0.2606  1.1926 -1.2003
   99SAPC  C214 9848   5.351   1.748   3.999 -0.2362 -0.9394 -0.4088
   99SAPC  H14R 9849   5.242   1.741   3.987 -0.6988 -0.0513  2.4604
   99SAPC  C215 9850   5.399   1.738   4.124 -0.6171  0.5721 -0.1598
   99SAPC  H15R 9851   5.326   1.720   4.204 -0.4290  1.5926  0.2506
   99SAPC  C216 9852   5.543   1.736   4.172  0.1753 -0.0910  0.2140
   99SAPC  H16R 9853   5.610   1.793   4.104  0.3498 -1.6078 -0.9443
   99SAPC  H16S 9854   5.573   1.629   4.169  1.5799  0.2857  0.1689
   99SAPC  C217 9855   5.547   1.797   4.312 -0.0628 -0.4203 -0.8597
   99SAPC  H17R 9856   5.498   1.725   4.381  2.4883 -0.3001  1.2371
   99SAPC  H17S 9857   5.501   1.898   4.315 -0.6142 -0.6920  0.9076
   99SAPC  C218 9858   5.692   1.816   4.357 -0.3045 -0.1447  0.3031
   99SAPC  H18R 9859   5.748   1.862   4.272 -1.8226 -1.1010 -1.2739
   99SAPC  H18S 9860   5.743   1.718   4.353 -0.5574 -0.2794  0.3772
   99SAPC  C219 9861   5.709   1.880   4.494 -0.3337 -0.2923  0.4829
   99SAPC  H19R 9862   5.617   1.932   4.528 -0.2995 -0.6477  1.1506
   99SAPC  H19S 9863   5.777   1.965   4.469  0.4729 -1.7723 -2.8620
   99SAPC  C220 9864   5.757   1.789   4.603  0.0377 -0.1202 -0.0709
   99SAPC  H20R 9865   5.678   1.712   4.620  0.4619 -0.3452  0.9049
   99SAPC  H20S 9866   5.762   1.841   4.700 -2.5421  0.0023  0.0850
   99SAPC  H20T 9867   5.846   1.734   4.565  0.5577 -0.0286  0.9821
   99SAPC   C33 9868   4.518   1.462   2.659  0.2461  0.0195 -0.5666
   99SAPC   H3X 9869   4.580   1.377   2.694  3.8032  2.1712 -1.1461
   99SAPC   H3Y 9870   4.471   1.444   2.560 -2.3073  0.3914  0.4971
   99SAPC   C34 9871   4.408   1.501   2.756  0.5067 -0.0278 -0.5380
   99SAPC   H4X 9872   4.368   1.407   2.799 -2.2140  1.9668  1.6993
   99SAPC   H4Y 9873   4.329   1.561   2.704 -0.0931  1.7813  2.2198
   99SAPC   C35 9874   4.451   1.578   2.887 -0.3164 -0.5724 -0.3867
   99SAPC   H5X 9875   4.514   1.665   2.858 -0.1650 -0.9159 -1.1118
   99SAPC   H5Y 9876   4.526   1.508   2.930  1.3131  0.5299 -1.3292
   99SAPC   C36 9877   4.340   1.617   2.982  0.7508  0.4705 -0.2533
   99SAPC   H6X 9878   4.274   1.688   2.929 -1.6446 -0.7654  0.8971
   99SAPC   H6Y 9879   4.392   1.663   3.068 -0.2723 -0.6529  0.9995
   99SAPC   C37 9880   4.251   1.502   3.026 -0.4779  0.5138  0.2123
   99SAPC   H7X 9881   4.319   1.422   3.063  0.4245  0.8457 -0.6871
   99SAPC   H7Y 9882   4.192   1.452   2.946 -0.0723 -1.7168  1.2163
   99SAPC   C38 9883   4.148   1.539   3.129 -0.1250  0.5206 -0.6868
   99SAPC   H8X 9884   4.071   1.462   3.153  2.3629 -1.9720 -0.2432
   99SAPC   H8Y 9885   4.096   1.631   3.095 -0.9106  0.0418 -0.8071
   99SAPC   C39 9886   4.219   1.570   3.267 -0.2894  0.0692  0.3801
   99SAPC   H9X 9887   4.302   1.642   3.247 -1.1434  0.7495 -0.8614
   99SAPC   H9Y 9888   4.275   1.483   3.306  0.8255  1.2554  1.5569
   99SAPC  C310 9889   4.129   1.640   3.369  0.7134 -0.1684 -0.2977
   99SAPC  H10X 9890   4.057   1.568   3.413  1.1512 -0.4658 -0.0697
   99SAPC  H10Y 9891   4.069   1.721   3.319  0.5290  1.0777  1.8348
   99SAPC  C311 9892   4.215   1.683   3.481  0.0152  0.6456  0.6489
   99SAPC  H11X 9893   4.295   1.760   3.473 -0.6220  1.4243  1.6321
   99SAPC  H11Y 9894   4.272   1.589   3.500  0.5694  1.3486  2.7520
   99SAPC  C312 9895   4.130   1.714   3.597  0.2720 -0.1362 -0.1886
   99SAPC  H12X 9896   4.029   1.757   3.580  0.2613  1.0332  2.3780
   99SAPC  H12Y 9897   4.184   1.800   3.643  0.6395 -0.5046  0.0774
   99SAPC  C313 9898   4.104   1.610   3.708 -0.4845 -0.5463 -0.7923
   99SAPC  H13X 9899   4.197   1.552   3.723  0.5455  1.2748  0.0896
   99SAPC  H13Y 9900   4.028   1.538   3.670 -0.1813 -1.1925 -0.1825
   99SAPC  C314 9901   4.055   1.679   3.826  0.4379  0.1252  0.1940
   99SAPC  H14X 9902   3.962   1.731   3.794  1.9155  2.9577  0.1889
   99SAPC  H14Y 9903   4.120   1.764   3.857  0.7735 -0.6306  1.6646
   99SAPC  C315 9904   4.019   1.584   3.940  0.3767 -0.8020 -0.4977
   99SAPC  H15X 9905   3.951   1.505   3.903 -0.1530 -0.0662 -1.1330
   99SAPC  H15Y 9906   3.974   1.634   4.028  1.3482 -1.6723  0.5333
   99SAPC  C316 9907   4.154   1.527   3.999  0.3466  0.3699 -0.6492
   99SAPC  H16X 9908   4.236   1.600   4.015  0.5371  0.4857 -1.9914
   99SAPC  H16Y 9909   4.200   1.450   3.933 -0.3846  0.5010 -1.3341
   99SAPC  C317 9910   4.116   1.466   4.133  0.2219  0.4141 -0.2246
   99SAPC  H17X 9911   4.038   1.391   4.108  1.0283 -0.3878 -0.3743
   99SAPC  H17Y 9912   4.075   1.547   4.197 -0.8732  0.4580 -0.9650
   99SAPC  C318 9913   4.241   1.403   4.207  0.0373  0.5917  0.2046
   99SAPC  H18X 9914   4.281   1.329   4.134 -4.5309 -2.6418  0.5034
   99SAPC  H18Y 9915   4.208   1.349   4.298  0.6681 -1.7258 -0.8630
   99SAPC  H18Z 9916   4.311   1.484   4.238  0.6309 -0.1793  0.9118
  100SAPC     N 9917   4.197   5.087   1.949  0.0025  0.6887 -0.2387
  100SAPC   C12 9918   4.275   5.074   2.084 -0.7805 -0.3057  0.2772
  100SAPC  H12A 9919   4.210   5.037   2.162 -0.8826  0.2639  0.4661
  100SAPC  H12B 9920   4.292   5.173   2.122  0.4068 -0.3623 -0.0377
  100SAPC   C13 9921   4.164   4.954   1.879 -0.5817  0.2362  0.8453
  100SAPC  H13A 9922   4.115   4.889   1.951 -0.0531 -1.0043  0.1293
  100SAPC  H13B 9923   4.099   4.962   1.793  2.1918  0.2758 -1.3743
  100SAPC  H13C 9924   4.252   4.898   1.852  0.7655  1.0422  3.2282
  100SAPC   C14 9925   4.071   5.158   1.992  0.0474  0.3686  0.1899
  100SAPC  H14A 9926   3.998   5.165   1.912 -2.1413 -1.0035  1.9203
  100SAPC  H14B 9927   4.017   5.112   2.074 -0.3165  1.5435  0.6349
  100SAPC  H14C 9928   4.091   5.259   2.025  0.9144 -0.5667  2.8465
  100SAPC   C15 9929   4.281   5.175   1.857 -0.4007  0.4597  0.1087
  100SAPC  H15A 9930   4.330   5.257   1.908  0.4508 -0.7817  1.3681
  100SAPC  H15B 9931   4.366   5.123   1.816 -0.1597  0.1143  1.0075
  100SAPC  H15C 9932   4.223   5.201   1.770 -3.3597 -3.0696  0.7776
  100SAPC   C11 9933   4.412   4.988   2.073 -0.0482 -0.4043  0.0320
  100SAPC  H11A 9934   4.384   4.889   2.030 -3.6243  0.4047  0.1597
  100SAPC  H11B 9935   4.436   4.950   2.175 -1.5374 -2.0798 -0.1872
  100SAPC     P 9936   4.632   5.128   2.079  0.1004  0.3918  0.2772
  100SAPC   O13 9937   4.739   5.021   2.092  0.1376  0.8529 -0.3463
  100SAPC   O14 9938   4.684   5.247   2.008  0.4226 -0.2665 -0.9877
  100SAPC   O12 9939   4.513   5.061   2.000  0.2498  0.0883 -0.5179
  100SAPC   O11 9940   4.577   5.173   2.213  0.1865  0.3314 -0.0471
  100SAPC    C1 9941   4.641   5.173   2.334  0.1342  0.5427 -0.6376
  100SAPC    HA 9942   4.605   5.078   2.379 -0.3245  0.3081 -1.4883
  100SAPC    HB 9943   4.751   5.160   2.336  0.2303  0.8060 -2.6288
  100SAPC    C2 9944   4.605   5.305   2.411  0.6773 -0.4600  0.1327
  100SAPC    HS 9945   4.621   5.292   2.520  0.7647  0.5168  0.2498
  100SAPC   O21 9946   4.463   5.335   2.402 -0.1410  0.3563 -0.3705
  100SAPC   C21 9947   4.388   5.231   2.454 -0.6806  0.1900  0.0703
  100SAPC   O22 9948   4.435   5.135   2.515  0.1364 -0.5638 -0.1490
  100SAPC   C22 9949   4.238   5.258   2.435 -0.3556 -0.1254  0.0083
  100SAPC   H2R 9950   4.222   5.368   2.422  0.7159  0.2668  1.7051
  100SAPC   H2S 9951   4.214   5.213   2.336  1.0967 -0.3174 -0.2736
  100SAPC    C3 9952   4.690   5.432   2.367 -0.1555  0.1306  0.1833
  100SAPC    HX 9953   4.644   5.516   2.424 -1.2155 -0.8532  0.8380
  100SAPC    HY 9954   4.662   5.446   2.261 -0.5142  1.4109  0.4222
  100SAPC   O31 9955   4.829   5.407   2.393  0.7416  0.1223  0.0692
  100SAPC   C31 9956   4.904   5.479   2.313  0.4504  1.2664  0.2647
  100SAPC   O32 9957   4.870   5.580   2.251 -0.7606  0.4197 -0.7126
  100SAPC   C32 9958   5.044   5.423   2.309 -0.0915 -0.3271 -0.4402
  100SAPC   H2X 9959   5.101   5.505   2.261 -1.2299  1.6862  1.4511
  100SAPC   H2Y 9960   5.047   5.325   2.256 -1.0118 -0.3785 -0.4166
  100SAPC   C23 9961   4.159   5.201   2.553  0.1281  0.5086  0.5826
  100SAPC   H3R 9962   4.185   5.093   2.560  0.5333  0.6159  0.7557
  100SAPC   H3S 9963   4.050   5.203   2.532  0.2326  2.9889 -0.0940
  100SAPC   C24 9964   4.184   5.258   2.689 -0.6523 -0.5502 -0.1149
  100SAPC   H4R 9965   4.288   5.225   2.711 -0.9006 -2.4322 -1.5619
  100SAPC   H4S 9966   4.124   5.197   2.760 -1.4202  0.7842  0.4095
  100SAPC   C25 9967   4.165   5.402   2.703 -0.3500 -0.3874 -0.2123
  100SAPC   H5R 9968   4.201   5.463   2.619  1.0432  1.4635  1.6238
  100SAPC   C26 9969   4.113   5.473   2.804 -0.4742 -0.0251 -0.3451
  100SAPC   H6R 9970   4.109   5.582   2.786  0.8599  0.0768 -0.1239
  100SAPC   C27 9971   4.066   5.423   2.934 -0.1913 -0.1655  0.7641
  100SAPC   H7R 9972   4.039   5.315   2.927 -1.1089  0.1258 -0.5441
  100SAPC   H7S 9973   3.965   5.461   2.963  0.2836 -0.4863  3.0635
  100SAPC   C28 9974   4.169   5.440   3.047  0.5077 -0.0216  0.9075
  100SAPC   H8R 9975   4.272   5.414   3.017  1.0013  1.6859  1.0035
  100SAPC   C29 9976   4.143   5.485   3.172  0.0652  0.0072 -0.2980
  100SAPC   H9R 9977   4.227   5.499   3.242 -0.8319 -0.0969  0.8284
  100SAPC  C210 9978   4.010   5.505   3.233  0.1978  0.5186  0.3086
  100SAPC  H10R 9979   3.927   5.453   3.180  1.3117 -3.4311  2.0032
  100SAPC  H10S 9980   3.986   5.613   3.241 -1.6872  0.1996 -0.4960
  100SAPC  C211 9981   4.013   5.454   3.377 -0.2905  0.0437  0.0406
  100SAPC  H11R 9982   3.980   5.353   3.404  0.8853 -0.4310 -0.2132
  100SAPC  C212 9983   4.051   5.521   3.486 -0.7682  0.1457  0.2841
  100SAPC  H12R 9984   4.028   5.475   3.583  1.5384 -0.6497  0.5174
  100SAPC  C213 9985   4.108   5.664   3.498 -0.1271  0.1599  0.2483
  100SAPC  H13R 9986   4.119   5.703   3.395 -1.8258 -0.9981 -0.4206
  100SAPC  H13S 9987   4.213   5.650   3.531  0.5343 -0.9683 -2.1252
  100SAPC  C214 9988   4.028   5.754   3.587  0.1964 -0.0118 -1.0427
  100SAPC  H14R 9989   3.935   5.783   3.537 -1.6888 -1.4929  1.3421
  100SAPC  C215 9990   4.053   5.785   3.715 -0.0545 -1.0789  0.0345
  100SAPC  H15R 9991   3.999   5.867   3.764 -1.1016 -2.3500  1.0922
  100SAPC  C216 9992   4.180   5.746   3.791  0.5437 -0.0283 -0.1444
  100SAPC  H16R 9993   4.194   5.637   3.784 -2.8782 -0.7581  2.0523
  100SAPC  H16S 9994   4.161   5.778   3.896  0.7980  1.1766 -0.4516
  100SAPC  C217 9995   4.306   5.831   3.744 -0.5656 -0.2740  0.2758
  100SAPC  H17R 9996   4.297   5.936   3.780  0.1220 -0.0836 -0.0973
  100SAPC  H17S 9997   4.301   5.841   3.633 -1.9260  1.0867  0.4241
  100SAPC  C218 9998   4.437   5.775   3.796 -0.3040 -0.1096  0.3314
  100SAPC  H18R 9999   4.514   5.854   3.784 -1.0065  0.6675  0.8572
  100SAPC  H18S10000   4.483   5.691   3.738 -1.3851  0.3068 -1.1905
  100SAPC  C21910001   4.452   5.751   3.948 -0.4566  0.1888  0.8155
  100SAPC  H19R10002   4.555   5.712   3.960  0.5821  2.6502  0.5951
  100SAPC  H19S10003   4.378   5.673   3.976 -0.3661 -0.0937  0.2766
  100SAPC  C22010004   4.452   5.874   4.038 -0.6877  0.2662 -0.5145
  100SAPC  H20R10005   4.375   5.948   4.007 -1.2905 -0.3848 -0.5948
  100SAPC  H20S10006   4.557   5.909   4.036  0.0421 -1.7399  0.1917
  100SAPC  H20T10007   4.439   5.848   4.145 -1.3577 -0.1686 -0.7013
  100SAPC   C3310008   5.106   5.417   2.454 -0.8404  0.6572  0.9366
  100SAPC   H3X10009   5.201   5.359   2.456 -1.2353 -0.0404  0.0698
  100SAPC   H3Y10010   5.037   5.374   2.530 -0.2028 -0.0165  1.1462
  100SAPC   C3410011   5.146   5.556   2.504 -0.2730  0.5340 -0.4120
  100SAPC   H4X10012   5.052   5.612   2.486 -0.5174  0.0805 -0.5637
  100SAPC   H4Y10013   5.233   5.599   2.448  1.7259 -1.1851  1.2223
  100SAPC   C3510014   5.190   5.550   2.650 -0.7863  0.6876 -0.6405
  100SAPC   H5X10015   5.223   5.647   2.692 -1.4820 -0.2292  2.2597
  100SAPC   H5Y10016   5.274   5.479   2.663 -0.1899  1.4971  0.0344
  100SAPC   C3610017   5.085   5.520   2.752 -0.3426  0.1180  0.2134
  100SAPC   H6X10018   5.039   5.423   2.723 -1.5958 -0.3192  3.2440
  100SAPC   H6Y10019   5.005   5.597   2.759 -0.5171 -0.1908  2.3389
  100SAPC   C3710020   5.139   5.492   2.889  0.6114  0.7006 -0.0952
  100SAPC   H7X10021   5.192   5.586   2.914 -0.0328  0.9799  0.2594
  100SAPC   H7Y10022   5.214   5.410   2.886 -0.1004  0.0577 -0.7211
  100SAPC   C3810023   5.030   5.450   2.987  0.6685  0.0253 -0.0936
  100SAPC   H8X10024   4.968   5.373   2.936  0.5915  0.2336 -0.3127
  100SAPC   H8Y10025   4.964   5.536   3.010 -0.5407 -0.9724  0.3289
  100SAPC   C3910026   5.065   5.385   3.121  0.0860  0.8033  0.8478
  100SAPC   H9X10027   5.141   5.305   3.107  0.2018  0.6106  2.4300
  100SAPC   H9Y10028   4.975   5.331   3.156  0.6490 -0.0415  1.0224
  100SAPC  C31010029   5.117   5.482   3.226 -0.5513  0.7521  0.1310
  100SAPC  H10X10030   5.055   5.570   3.254  0.4222  1.5368 -0.1004
  100SAPC  H10Y10031   5.211   5.510   3.173  0.4248 -1.7642  0.3909
  100SAPC  C31110032   5.144   5.390   3.346 -0.7045 -0.5137 -0.5342
  100SAPC  H11X10033   5.211   5.312   3.304 -2.2287 -0.7202 -2.7919
  100SAPC  H11Y10034   5.045   5.351   3.377 -1.7743  2.0635 -0.4569
  100SAPC  C31210035   5.212   5.469   3.462  0.0560 -0.7076  0.4565
  100SAPC  H12X10036   5.154   5.556   3.500  3.1031  0.6177  2.4484
  100SAPC  H12Y10037   5.311   5.508   3.429 -0.0411  1.1593  2.1965
  100SAPC  C31310038   5.250   5.379   3.575  0.0647 -0.2184 -0.5802
  100SAPC  H13X10039   5.338   5.321   3.542  2.1749  1.5019  1.6051
  100SAPC  H13Y10040   5.162   5.317   3.604  1.0432 -1.3480  0.0491
  100SAPC  C31410041   5.307   5.472   3.689 -0.4241  0.0174 -0.4406
  100SAPC  H14X10042   5.243   5.562   3.696 -0.9780 -0.3479 -0.7212
  100SAPC  H14Y10043   5.410   5.508   3.666 -0.3854  0.9492  1.0826
  100SAPC  C31510044   5.337   5.391   3.816  0.7763  1.0893 -0.0420
  100SAPC  H15X10045   5.380   5.294   3.785  0.8130  0.5814  1.5394
  100SAPC  H15Y10046   5.237   5.361   3.853  0.4481  0.1191 -1.6051
  100SAPC  C31610047   5.426   5.456   3.925 -0.4092  0.1299 -0.4929
  100SAPC  H16X10048   5.520   5.462   3.867 -1.3518  1.7379 -1.9369
  100SAPC  H16Y10049   5.425   5.380   4.005 -1.3845  0.7066  0.0666
  100SAPC  C31710050   5.392   5.591   3.980  0.6561  0.0773 -0.6688
  100SAPC  H17X10051   5.374   5.662   3.896 -0.5366 -0.2766 -0.7388
  100SAPC  H17Y10052   5.469   5.624   4.052  1.6150 -3.0381 -0.1069
  100SAPC  C31810053   5.256   5.581   4.057 -0.4379  0.2425  0.7216
  100SAPC  H18X10054   5.275   5.521   4.149  0.9793  2.1536  1.7466
  100SAPC  H18Y10055   5.169   5.563   3.991  0.1047 -2.5097  0.6547
  100SAPC  H18Z10056   5.240   5.685   4.092 -0.7458  0.4133  0.0892
  101OSM      N10057   4.250   3.372   7.219 -0.3795 -0.3261  0.3010
  101OSM    C1510058   4.242   3.452   7.348  0.0320  0.2666  0.8456
  101OSM   H15A10059   4.206   3.391   7.429  0.5121 -0.2240  0.6998
  101OSM   H15B10060   4.161   3.524   7.341 -1.5746 -1.5896 -1.5916
  101OSM   H15C10061   4.332   3.500   7.382 -0.0801 -0.3607  2.0867
  101OSM    C1410062   4.377   3.287   7.232 -0.2189  0.2821 -0.3198
  101OSM   H14A10063   4.389   3.227   7.143  0.1936 -2.8110  1.6879
  101OSM   H14B10064   4.382   3.233   7.325  1.7930 -0.6700 -0.9378
  101OSM   H14C10065   4.458   3.357   7.246 -0.2565  0.2837 -0.1064
  101OSM    C1310066   4.133   3.280   7.211  0.4021 -0.4304 -0.3114
  101OSM   H13A10067   4.109   3.239   7.307 -0.9768 -1.9086 -1.2547
  101OSM   H13B10068   4.138   3.201   7.138 -0.1881  1.4458 -2.5465
  101OSM   H13C10069   4.048   3.340   7.182  1.1450  0.5054 -0.6320
  101OSM    C1210070   4.268   3.467   7.106 -0.0617 -0.0391  0.4192
  101OSM   H12A10071   4.351   3.531   7.135 -1.7793  1.8140  1.4724
  101OSM   H12B10072   4.177   3.523   7.094  1.7978  2.9853 -0.6138
  101OSM    C1110073   4.301   3.405   6.969 -0.4597  0.4774  1.1739
  101OSM   H11A10074   4.281   3.483   6.892  1.3047 -1.4606 -1.4417
  101OSM   H11B10075   4.235   3.318   6.951 -0.3726  0.8601 -1.3069
  101OSM      P10076   4.546   3.493   6.956 -0.2140 -0.1873  0.5173
  101OSM    O1310077   4.496   3.618   7.031  0.3585 -0.7600 -0.0154
  101OSM    O1410078   4.678   3.438   6.995 -0.1395  0.3532  0.5309
  101OSM    O1110079   4.558   3.528   6.803  0.2647  0.0487 -0.0617
  101OSM    O1210080   4.443   3.377   6.962 -0.0314  0.2772  0.1916
  101OSM    C1S10081   4.590   3.423   6.710 -0.0893 -0.6629 -0.3669
  101OSM    H1S10082   4.503   3.355   6.701 -1.4330  0.6686  1.6529
  101OSM    H1T10083   4.677   3.363   6.743  0.5978  0.6097  0.1957
  101OSM     NF10084   4.664   3.400   6.467 -0.5127  0.3077  0.1715
  101OSM    HNF10085   4.756   3.363   6.459  0.0202  1.3206  1.3969
  101OSM    C2S10086   4.648   3.495   6.583 -0.2480 -0.9245 -0.0088
  101OSM    H2S10087   4.570   3.569   6.557 -0.1856  0.0584  2.3957
  101OSM    C3S10088   4.775   3.584   6.616  0.2432 -0.1278 -0.0157
  101OSM    H3S10089   4.850   3.515   6.661  0.9566 -0.4804 -1.6550
  101OSM     O310090   4.746   3.671   6.718 -0.2180 -0.7933  0.0499
  101OSM    HO310091   4.681   3.616   6.762  0.8624 -2.2407 -0.0986
  101OSM    C4S10092   4.833   3.641   6.494  0.4276 -0.2674 -0.6907
  101OSM    H4S10093   4.892   3.565   6.440  0.1033  0.5322 -2.2379
  101OSM    C5S10094   4.834   3.766   6.450 -0.3844 -0.7388  0.3397
  101OSM    H5S10095   4.781   3.848   6.501 -1.3790 -0.3999 -1.1762
  101OSM    C6S10096   4.900   3.798   6.316  0.1409 -0.5950 -0.0833
  101OSM    H6S10097   4.950   3.709   6.271  0.2700 -0.3434 -0.4400
  101OSM    H6T10098   4.975   3.878   6.330  0.4816 -1.2531  2.2880
  101OSM    C7S10099   4.780   3.847   6.230  0.2302  0.8927 -0.0452
  101OSM    H7S10100   4.733   3.943   6.261  2.3338  2.4025 -1.3363
  101OSM    H7T10101   4.700   3.770   6.220  0.2110  0.7844  0.8309
  101OSM    C8S10102   4.834   3.873   6.086  0.6103 -0.7754  0.2885
  101OSM    H8S10103   4.834   3.774   6.035  1.6112 -1.1080  0.9092
  101OSM    H8T10104   4.935   3.920   6.090 -1.0127  3.0310  0.3730
  101OSM    C9S10105   4.731   3.959   6.008  0.6241  0.6474 -0.2451
  101OSM    H9S10106   4.683   4.042   6.065  0.7204  0.2242  0.4731
  101OSM    H9T10107   4.643   3.891   6.005  2.1395 -1.4310 -0.0623
  101OSM   C10S10108   4.783   3.991   5.865  0.0070  0.5400 -0.7962
  101OSM   H10S10109   4.882   4.040   5.874 -0.2532  0.8150  1.0554
  101OSM   H10T10110   4.719   4.066   5.812 -0.0320 -1.0965 -3.2054
  101OSM   C11S10111   4.781   3.862   5.783 -0.4828 -0.6679  0.1556
  101OSM   H11S10112   4.687   3.804   5.796 -0.6261 -0.9374 -1.8363
  101OSM   H11T10113   4.870   3.801   5.808  1.5260  1.2241 -1.9277
  101OSM   C12S10114   4.789   3.903   5.636 -0.7176  0.8719 -0.0951
  101OSM   H12S10115   4.884   3.958   5.621  0.4837 -1.5536 -2.2396
  101OSM   H12T10116   4.702   3.964   5.604 -1.8237 -0.6503 -0.1200
  101OSM   C13S10117   4.801   3.780   5.540 -0.1404  0.1530 -0.7576
  101OSM   H13S10118   4.720   3.707   5.563 -2.4818  2.3182 -1.5903
  101OSM   H13T10119   4.897   3.729   5.563 -0.7945 -0.9807 -0.4616
  101OSM   C14S10120   4.797   3.822   5.389  0.2010 -0.4163 -0.6370
  101OSM   H14S10121   4.883   3.892   5.377 -0.9084  0.9149 -1.0511
  101OSM   H14T10122   4.714   3.890   5.360 -1.6090 -1.6786  1.3274
  101OSM   C15S10123   4.814   3.708   5.290 -0.1791  0.1952 -0.4031
  101OSM   H15S10124   4.708   3.679   5.276 -0.0658 -0.7040  0.5414
  101OSM   H15T10125   4.882   3.635   5.339  0.2598 -0.7462 -2.2882
  101OSM   C16S10126   4.886   3.734   5.155 -0.5427 -0.4426  1.0554
  101OSM   H16S10127   4.991   3.762   5.177  0.1249 -2.8213  1.1924
  101OSM   H16T10128   4.826   3.815   5.108 -0.6266 -1.1916 -0.1838
  101OSM   C17S10129   4.899   3.615   5.052 -0.0821 -0.7558 -0.1251
  101OSM   H17S10130   4.953   3.534   5.105 -1.1104 -0.6596  1.1281
  101OSM   H17T10131   4.963   3.656   4.971  2.2890 -0.5887  1.7154
  101OSM   C18S10132   4.763   3.573   5.002  0.1138  0.0928  0.7743
  101OSM   H18S10133   4.699   3.543   5.088 -1.0868  1.2827  0.3426
  101OSM   H18T10134   4.774   3.494   4.926 -0.8415  1.6701 -1.0822
  101OSM   H18U10135   4.717   3.667   4.964  0.2556  0.7487  2.1490
  101OSM    C1F10136   4.556   3.336   6.416  0.2055  0.0630  0.4483
  101OSM     OF10137   4.448   3.364   6.446  0.2986 -0.1953 -0.2214
  101OSM    C2F10138   4.593   3.224   6.320  0.4446 -0.0752  0.1592
  101OSM    H2F10139   4.704   3.218   6.319  0.4775  0.1678 -1.9456
  101OSM    H2G10140   4.558   3.250   6.217 -1.2873 -2.7431 -0.0307
  101OSM    C3F10141   4.526   3.083   6.350  0.4183 -0.0802  0.0060
  101OSM    H3F10142   4.416   3.090   6.335  0.1563 -3.1508 -0.1514
  101OSM    H3G10143   4.542   3.066   6.459 -2.1505  0.7405  0.6026
  101OSM    C4F10144   4.574   2.962   6.273 -0.3340  0.1414  0.3829
  101OSM    H4F10145   4.536   2.866   6.312  2.9460 -1.0388  0.9803
  101OSM    H4G10146   4.683   2.959   6.296 -0.5698 -0.5209  1.4601
  101OSM    C5F10147   4.547   2.967   6.120  0.3535  0.0976  0.3888
  101OSM    H5F10148   4.455   3.027   6.105 -1.6566 -2.5951  1.2350
  101OSM    H5G10149   4.523   2.873   6.066  2.3388  0.0319 -0.4932
  101OSM    C6F10150   4.657   3.038   6.041 -0.1892 -0.3230  0.0279
  101OSM    H6F10151   4.746   2.975   6.059  0.9219  1.2619  0.2749
  101OSM    H6G10152   4.680   3.141   6.078  0.6533  0.1120 -1.6353
  101OSM    C7F10153   4.620   3.047   5.892 -0.1182  0.2803 -0.0573
  101OSM    H7F10154   4.545   3.127   5.872 -1.3366 -0.0973  2.5635
  101OSM    H7G10155   4.580   2.950   5.854 -1.4012  1.4984 -2.0121
  101OSM    C8F10156   4.748   3.065   5.810 -0.3408 -0.6774 -0.2490
  101OSM    H8F10157   4.810   2.975   5.832  1.4921  0.3137 -1.1436
  101OSM    H8G10158   4.821   3.141   5.845  0.0718 -1.2796  0.2275
  101OSM    C9F10159   4.720   3.068   5.666  0.0614  0.0870  0.2734
  101OSM    H9F10160   4.681   2.972   5.630  1.7534  0.3491 -2.5373
  101OSM   C10F10161   4.751   3.162   5.574  0.5318 -0.5188 -0.2852
  101OSM   H10F10162   4.705   3.150   5.475  1.1673 -0.6644 -0.5680
  101OSM   C11F10163   4.801   3.307   5.602 -0.6345  0.3523 -0.3066
  101OSM   H11F10164   4.882   3.299   5.678 -1.8444  0.0814  1.0104
  101OSM   H11G10165   4.720   3.368   5.648 -0.5304  1.3600 -1.4291
  101OSM   C12F10166   4.860   3.372   5.473 -0.9572 -0.2789 -0.3175
  101OSM   H12F10167   4.879   3.479   5.495  0.5658 -0.4376 -0.7377
  101OSM   H12G10168   4.772   3.368   5.405 -2.7323 -0.7878  1.8788
  101OSM   C13F10169   4.981   3.309   5.408  0.3363 -0.6565  0.8545
  101OSM   H13F10170   5.010   3.367   5.318 -3.0862 -0.4504 -0.2273
  101OSM   H13G10171   4.964   3.202   5.385  0.2433 -0.2610 -1.0221
  101OSM   C14F10172   5.111   3.316   5.492  0.6004 -0.8270 -0.1231
  101OSM   H14F10173   5.191   3.249   5.456  0.2199 -2.4578  1.8861
  101OSM   H14G10174   5.085   3.268   5.589  2.0506 -1.3907  0.0090
  101OSM   C15F10175   5.158   3.457   5.533 -0.6778  0.3212  0.2832
  101OSM   H15F10176   5.092   3.528   5.478 -0.1273  0.1860 -0.5730
  101OSM   H15G10177   5.258   3.473   5.487 -0.9647  2.3590  0.2823
  101OSM   C16F10178   5.154   3.495   5.681 -0.6556  0.3458  0.4168
  101OSM   H16F10179   5.186   3.413   5.749 -1.6584 -0.2179  0.2265
  101OSM   H16G10180   5.048   3.506   5.712 -0.8436 -1.7329  0.6826
  101OSM   C17F10181   5.233   3.621   5.713  0.2802 -0.3597  0.2260
  101OSM   H17F10182   5.181   3.706   5.664  3.1134  0.7445 -1.1360
  101OSM   H17G10183   5.332   3.619   5.662 -0.5750 -0.0527 -1.5060
  101OSM   C18F10184   5.250   3.652   5.862  0.1956  0.2037 -0.5335
  101OSM   H18F10185   5.152   3.638   5.911  1.5758 -1.1238  2.0919
  101OSM   H18G10186   5.274   3.758   5.882  0.2053 -0.2552  2.2848
  101OSM   H18H10187   5.315   3.583   5.921 -1.2111  0.3479  1.2594
  102OSM      N10188   4.481   4.833   7.061  0.1449  0.1322  0.5117
  102OSM    C1510189   4.474   4.801   7.200  0.5322 -0.0363 -0.3744
  102OSM   H15A10190   4.461   4.694   7.208  1.0223 -0.2517 -2.1374
  102OSM   H15B10191   4.401   4.860   7.253  0.4211 -0.5703  0.0669
  102OSM   H15C10192   4.569   4.817   7.249  0.0170 -2.1448  1.4644
  102OSM    C1410193   4.344   4.829   7.006 -0.7858 -0.0599  0.3726
  102OSM   H14A10194   4.344   4.856   6.902 -0.1577  1.5851  0.7769
  102OSM   H14B10195   4.272   4.897   7.049  0.2267  1.7326 -0.6663
  102OSM   H14C10196   4.295   4.734   7.019 -0.7267 -0.2186 -0.5215
  102OSM    C1310197   4.541   4.969   7.060  0.7208  0.4042  0.1431
  102OSM   H13A10198   4.480   5.044   7.109 -0.8238  0.5411 -1.8681
  102OSM   H13B10199   4.570   5.002   6.962  1.1196 -0.9061 -0.1905
  102OSM   H13C10200   4.635   4.970   7.112  1.5419  0.0283 -1.3066
  102OSM    C1210201   4.566   4.733   6.980  0.0719  0.1512  0.7515
  102OSM   H12A10202   4.663   4.723   7.026  0.2448  2.6248  1.0686
  102OSM   H12B10203   4.587   4.775   6.883 -0.9407 -1.4670 -0.2278
  102OSM    C1110204   4.501   4.596   6.952 -0.3211 -0.5973  0.1401
  102OSM   H11A10205   4.573   4.532   6.895 -1.2544 -0.5594 -1.1168
  102OSM   H11B10206   4.417   4.607   6.881  0.5201 -0.3884 -0.8430
  102OSM      P10207   4.320   4.459   7.089 -0.2664 -0.0032  0.1112
  102OSM    O1310208   4.325   4.366   7.205 -0.4765 -0.1252  0.0473
  102OSM    O1410209   4.206   4.555   7.087 -0.9400 -0.0410  0.6552
  102OSM    O1110210   4.314   4.372   6.962  0.2500  0.1347  0.1986
  102OSM    O1210211   4.458   4.529   7.073  0.4814  0.3363  0.0184
  102OSM    C1S10212   4.212   4.275   6.947  0.3384 -0.4282  0.8272
  102OSM    H1S10213   4.113   4.324   6.935  0.5942  1.0767  3.8790
  102OSM    H1T10214   4.205   4.219   7.043  2.3396  0.9047  1.8121
  102OSM     NF10215   4.104   4.138   6.761 -0.3536 -0.1690 -0.3184
  102OSM    HNF10216   4.095   4.039   6.751 -0.1040 -0.2566  0.2750
  102OSM    C2S10217   4.235   4.193   6.818  0.3297 -0.0154  0.5755
  102OSM    H2S10218   4.262   4.266   6.738 -1.4233  2.1544  1.8290
  102OSM    C3S10219   4.348   4.086   6.830 -0.7027  0.0550  0.7577
  102OSM    H3S10220   4.308   4.006   6.894 -2.4331 -1.0146 -1.5223
  102OSM     O310221   4.473   4.136   6.872  0.4927  0.0246 -0.3164
  102OSM    HO310222   4.451   4.220   6.912  3.6005  1.1967 -0.7802
  102OSM    C4S10223   4.374   4.013   6.698 -0.5765 -0.2827 -0.3498
  102OSM    H4S10224   4.384   3.905   6.719  0.1951 -0.0932  0.2717
  102OSM    C5S10225   4.376   4.062   6.571  0.1479 -0.9198  0.1839
  102OSM    H5S10226   4.371   4.171   6.553 -0.9774 -1.1077 -0.7726
  102OSM    C6S10227   4.387   3.977   6.446 -0.0192  0.3644  0.3340
  102OSM    H6S10228   4.447   4.032   6.370 -1.2292  2.0108  0.5107
  102OSM    H6T10229   4.291   3.964   6.391  0.7734 -0.0553 -1.0060
  102OSM    C7S10230   4.432   3.832   6.463  0.3699  0.9163  0.4539
  102OSM    H7S10231   4.358   3.781   6.528 -0.4976  1.4504 -0.1106
  102OSM    H7T10232   4.537   3.828   6.500  0.3747  1.5487  0.5122
  102OSM    C8S10233   4.441   3.751   6.324  0.5449  0.3384  0.0012
  102OSM    H8S10234   4.517   3.673   6.345  1.5366  0.8392 -1.4945
  102OSM    H8T10235   4.482   3.815   6.242  0.7491  1.7833  1.1792
  102OSM    C9S10236   4.310   3.695   6.271  0.1657 -0.0724 -0.1058
  102OSM    H9S10237   4.259   3.770   6.207 -0.3582 -0.7422 -0.4997
  102OSM    H9T10238   4.238   3.680   6.355 -0.3251  2.2657 -0.0431
  102OSM   C10S10239   4.317   3.567   6.186 -0.1004 -0.2244 -0.4949
  102OSM   H10S10240   4.212   3.540   6.162 -0.5093 -0.4349  1.4264
  102OSM   H10T10241   4.350   3.483   6.251 -0.1890  1.0384  1.2584
  102OSM   C11S10242   4.414   3.585   6.072 -0.2651  0.3023 -0.6321
  102OSM   H11S10243   4.511   3.624   6.109  0.2209 -0.5585 -0.9708
  102OSM   H11T10244   4.355   3.662   6.017 -1.3097 -2.2062 -3.3338
  102OSM   C12S10245   4.433   3.459   5.992 -0.0790  0.6622 -0.1777
  102OSM   H12S10246   4.333   3.431   5.954 -0.2628 -1.9406  1.9837
  102OSM   H12T10247   4.463   3.378   6.061 -3.0035  0.9611  1.5686
  102OSM   C13S10248   4.524   3.479   5.872 -0.0964 -0.2271 -0.7935
  102OSM   H13S10249   4.478   3.564   5.818 -2.1941  0.6684  2.1279
  102OSM   H13T10250   4.528   3.394   5.800 -0.3618  0.9502 -2.2364
  102OSM   C14S10251   4.669   3.514   5.906  0.0240  0.0037 -0.0111
  102OSM   H14S10252   4.666   3.611   5.960  0.5978 -0.0802  0.1727
  102OSM   H14T10253   4.719   3.526   5.808  0.9300 -1.6764  0.1950
  102OSM   C15S10254   4.749   3.408   5.997 -0.1678 -0.0646  0.6419
  102OSM   H15S10255   4.777   3.326   5.928 -0.7165  0.9811 -0.8597
  102OSM   H15T10256   4.686   3.377   6.084  0.3422  0.9159  1.3770
  102OSM   C16S10257   4.869   3.469   6.063 -0.0104  0.0832  0.3580
  102OSM   H16S10258   4.850   3.548   6.138  0.5853 -0.5612  1.2063
  102OSM   H16T10259   4.941   3.496   5.982  1.8584  0.0439  1.9182
  102OSM   C17S10260   4.949   3.357   6.136  0.0627  0.1107  0.7782
  102OSM   H17S10261   4.933   3.273   6.064 -0.6379 -0.3420  1.4513
  102OSM   H17T10262   4.901   3.332   6.233 -1.7352  1.8970  0.4065
  102OSM   C18S10263   5.092   3.396   6.163 -0.2051 -0.5352 -1.1144
  102OSM   H18S10264   5.159   3.403   6.075 -1.1614 -0.4780 -1.8611
  102OSM   H18T10265   5.141   3.325   6.233  0.5384 -1.1362 -2.2193
  102OSM   H18U10266   5.108   3.494   6.212  1.9604 -1.1627 -0.4477
  102OSM    C1F10267   3.998   4.214   6.719 -0.0869  0.5563  0.6188
  102OSM     OF10268   4.010   4.335   6.711  0.0232 -0.6354 -0.6422
  102OSM    C2F10269   3.878   4.132   6.661 -0.2429 -0.2615 -0.1633
  102OSM    H2F10270   3.846   4.165   6.560  0.1878  0.4477 -0.0774
  102OSM    H2G10271   3.794   4.147   6.732  0.0531 -1.1327  0.3939
  102OSM    C3F10272   3.900   3.978   6.665  1.0781 -0.1894  0.5197
  102OSM    H3F10273   3.800   3.931   6.657  0.7783  0.5767 -0.5759
  102OSM    H3G10274   3.937   3.947   6.765 -1.7449 -0.4491  1.5772
  102OSM    C4F10275   3.982   3.914   6.554 -0.4479  0.5499 -0.0191
  102OSM    H4F10276   4.006   3.809   6.584  0.7884  0.6185 -0.6969
  102OSM    H4G10277   4.079   3.964   6.534  0.1923 -0.2698  0.9346
  102OSM    C5F10278   3.908   3.913   6.417  0.4468  0.1380 -0.1032
  102OSM    H5F10279   3.847   4.003   6.394 -2.2026 -1.7357 -0.8177
  102OSM    H5G10280   3.835   3.830   6.418  0.7110 -0.0922  0.3263
  102OSM    C6F10281   4.003   3.887   6.295  0.2404 -0.3805  0.0309
  102OSM    H6F10282   4.054   3.789   6.299  1.0446  0.0216 -0.0417
  102OSM    H6G10283   4.085   3.963   6.294 -0.2202  0.1349  0.6273
  102OSM    C7F10284   3.929   3.895   6.158 -0.2536  0.0088 -0.5556
  102OSM    H7F10285   3.839   3.953   6.188  2.3282  2.0223  4.5060
  102OSM    H7G10286   3.897   3.796   6.120  1.2701 -0.6814 -0.1097
  102OSM    C8F10287   3.995   3.983   6.051 -0.0376 -0.9035 -0.8346
  102OSM    H8F10288   4.096   3.948   6.020  0.8759  1.7049 -1.0171
  102OSM    H8G10289   4.011   4.084   6.094 -1.9191 -0.3899 -1.2764
  102OSM    C9F10290   3.906   3.983   5.926 -0.0996  0.5496 -0.1600
  102OSM    H9F10291   3.805   4.022   5.946 -0.0030 -0.8825  4.1117
  102OSM   C10F10292   3.929   3.926   5.808 -0.6163 -0.6767 -0.8238
  102OSM   H10F10293   3.849   3.929   5.733 -2.2038 -0.2637  0.8040
  102OSM   C11F10294   4.055   3.852   5.757 -0.6476  0.7763 -0.2774
  102OSM   H11F10295   4.032   3.744   5.754 -0.2776  0.6733  0.2815
  102OSM   H11G10296   4.145   3.874   5.818 -1.3644 -0.7417  1.4325
  102OSM   C12F10297   4.103   3.881   5.613 -0.1901 -1.1280  0.2292
  102OSM   H12F10298   4.117   3.991   5.614 -0.0423 -1.1425 -0.0196
  102OSM   H12G10299   4.029   3.850   5.536  0.6632 -1.0131 -0.6625
  102OSM   C13F10300   4.239   3.809   5.588 -0.4540  0.5723 -0.1770
  102OSM   H13F10301   4.208   3.703   5.582 -1.5606  0.8573  0.1669
  102OSM   H13G10302   4.297   3.819   5.682 -0.7281 -0.0908  0.0661
  102OSM   C14F10303   4.322   3.868   5.473  0.2447  0.4905  0.4960
  102OSM   H14F10304   4.424   3.824   5.466  0.1194  0.4765 -2.8298
  102OSM   H14G10305   4.331   3.974   5.504 -1.7830  1.2313 -1.2268
  102OSM   C15F10306   4.253   3.870   5.341  0.0919  0.6136  0.5704
  102OSM   H15F10307   4.158   3.928   5.350 -0.8188 -0.2829 -2.1128
  102OSM   H15G10308   4.230   3.766   5.307 -4.4841  1.1227  1.4605
  102OSM   C16F10309   4.350   3.937   5.229  0.0397  0.0729 -0.6801
  102OSM   H16F10310   4.403   4.023   5.276  2.9276 -0.9366 -1.8946
  102OSM   H16G10311   4.284   3.971   5.147 -1.9510 -3.0640 -0.5599
  102OSM   C17F10312   4.460   3.837   5.189  0.0425  0.3420  0.6698
  102OSM   H17F10313   4.411   3.739   5.169 -0.2948  1.1207 -2.9298
  102OSM   H17G10314   4.530   3.825   5.274 -0.1065 -1.2569  0.5960
  102OSM   C18F10315   4.537   3.882   5.064  0.2143 -0.0729 -0.4652
  102OSM   H18F10316   4.461   3.915   4.990 -0.1138  0.7762  0.2337
  102OSM   H18G10317   4.598   3.801   5.021  2.2925  0.9345  0.4249
  102OSM   H18H10318   4.612   3.957   5.098  1.5096 -1.7440  0.5611
  103OSM      N10319   5.132   4.757   7.052  0.1052  0.5482  0.2929
  103OSM    C1510320   4.999   4.687   7.038  0.6915  0.2168  0.7777
  103OSM   H15A10321   4.964   4.653   7.134 -3.2635  1.2836 -0.1071
  103OSM   H15B10322   5.004   4.609   6.964 -2.7182  0.4829  0.1001
  103OSM   H15C10323   4.933   4.762   6.996  2.6635  0.5843 -1.9227
  103OSM    C1410324   5.106   4.874   7.136 -0.1448  0.6724 -0.1860
  103OSM   H14A10325   5.198   4.918   7.170  0.4192 -1.8274  1.9006
  103OSM   H14B10326   5.050   4.855   7.227  0.3059  0.5349  0.0673
  103OSM   H14C10327   5.053   4.945   7.075  0.2658  1.0614 -0.0920
  103OSM    C1310328   5.230   4.668   7.119  0.1617  0.0891  0.4678
  103OSM   H13A10329   5.241   4.586   7.049  1.5141 -0.2134  1.0064
  103OSM   H13B10330   5.200   4.647   7.221  0.9773  0.6804  0.8393
  103OSM   H13C10331   5.326   4.717   7.121 -0.3334  1.0628  2.1021
  103OSM    C1210332   5.191   4.786   6.911 -0.1057  0.2126  0.8090
  103OSM   H12A10333   5.222   4.690   6.873 -0.0117  0.8027 -0.6876
  103OSM   H12B10334   5.285   4.839   6.926  0.1324  0.1119 -0.2211
  103OSM    C1110335   5.113   4.864   6.811  0.0555  0.4342 -0.1832
  103OSM   H11A10336   5.053   4.793   6.750  0.3750 -1.9059  2.0368
  103OSM   H11B10337   5.191   4.902   6.743 -0.0716  1.9926  0.5168
  103OSM      P10338   4.880   4.973   6.841  0.2171  0.5670 -0.0648
  103OSM    O1310339   4.834   4.834   6.835  0.2578 -0.3734 -0.0143
  103OSM    O1410340   4.828   5.066   6.944 -0.2221  0.4100 -0.7923
  103OSM    O1110341   4.864   5.049   6.707 -0.1816  0.1049  0.5781
  103OSM    O1210342   5.041   4.972   6.860 -0.2468  0.2269  0.3826
  103OSM    C1S10343   4.974   5.122   6.647 -0.5116  0.2936  0.4023
  103OSM    H1S10344   5.069   5.063   6.642 -0.6268  0.0739 -4.7253
  103OSM    H1T10345   4.985   5.218   6.700  0.3300 -1.5932  3.9383
  103OSM     NF10346   5.073   5.216   6.439 -0.4115  0.1006  0.1547
  103OSM    HNF10347   5.089   5.311   6.463  2.7259 -0.0149 -0.9239
  103OSM    C2S10348   4.952   5.152   6.496  0.1876 -0.0424  0.4950
  103OSM    H2S10349   4.936   5.047   6.463 -0.5470 -1.0678  3.6890
  103OSM    C3S10350   4.819   5.228   6.469  0.5541 -0.3224  0.3907
  103OSM    H3S10351   4.831   5.334   6.501  2.8066 -0.6491  0.8121
  103OSM     O310352   4.710   5.191   6.552 -0.2569 -0.1609 -0.6025
  103OSM    HO310353   4.742   5.128   6.617 -0.1158 -0.6140 -1.1111
  103OSM    C4S10354   4.779   5.222   6.322 -0.0639  0.3745 -0.3721
  103OSM    H4S10355   4.810   5.312   6.267  1.2036  0.3378  0.2368
  103OSM    C5S10356   4.703   5.134   6.257 -0.8129  0.0975  0.5118
  103OSM    H5S10357   4.650   5.054   6.311  0.0576  0.2488  1.6125
  103OSM    C6S10358   4.683   5.136   6.105  0.2134  0.7566  0.1733
  103OSM    H6S10359   4.737   5.221   6.057 -0.2107  0.0412 -1.6687
  103OSM    H6T10360   4.576   5.132   6.078  0.8590  0.1446 -2.6425
  103OSM    C7S10361   4.738   5.010   6.031 -0.4922 -0.1488  0.5230
  103OSM    H7S10362   4.694   4.916   6.069 -0.2233 -0.7708 -0.6336
  103OSM    H7T10363   4.849   5.008   6.036 -0.5408 -1.2377  1.2682
  103OSM    C8S10364   4.701   5.016   5.878  0.3462  0.5209 -0.0671
  103OSM    H8S10365   4.701   5.122   5.844 -3.1472 -0.1484 -2.7691
  103OSM    H8T10366   4.593   4.993   5.865  0.4274 -0.3334  0.6329
  103OSM    C9S10367   4.781   4.921   5.779 -0.2609 -0.1358  0.4631
  103OSM    H9S10368   4.717   4.912   5.689 -1.5813  0.3692  1.3218
  103OSM    H9T10369   4.792   4.823   5.832  1.5913 -0.2912 -0.1175
  103OSM   C10S10370   4.925   4.963   5.754 -0.1681 -0.8280 -0.2143
  103OSM   H10S10371   4.977   4.872   5.716  1.2405  1.1430 -3.4556
  103OSM   H10T10372   4.964   4.999   5.852  2.3684 -1.8290 -0.7693
  103OSM   C11S10373   4.925   5.063   5.637 -0.2767 -1.1781  0.1222
  103OSM   H11S10374   5.020   5.121   5.627 -1.2819  0.5766  0.2981
  103OSM   H11T10375   4.845   5.141   5.642 -0.4082 -1.3595  1.0225
  103OSM   C12S10376   4.934   4.996   5.498 -0.3576 -0.2136  0.6124
  103OSM   H12S10377   4.934   5.073   5.418  0.5171 -0.1725  0.6438
  103OSM   H12T10378   4.838   4.942   5.481 -0.2997 -0.7232  1.8225
  103OSM   C13S10379   5.067   4.923   5.474  0.3149  1.3777 -0.8064
  103OSM   H13S10380   5.102   4.853   5.552 -0.8295 -0.9439 -2.2562
  103OSM   H13T10381   5.149   4.998   5.464 -0.4983  2.3472 -0.4026
  103OSM   C14S10382   5.058   4.852   5.344 -0.2145  0.0371  0.7557
  103OSM   H14S10383   4.978   4.902   5.285  2.2972  1.1424 -1.9940
  103OSM   H14T10384   5.032   4.745   5.357 -0.7951  0.2514  1.3929
  103OSM   C15S10385   5.188   4.859   5.258  0.0855 -0.5422  0.3552
  103OSM   H15S10386   5.262   4.805   5.321  1.8126  1.8523  0.5037
  103OSM   H15T10387   5.223   4.961   5.236 -2.1068 -0.0532 -1.2829
  103OSM   C16S10388   5.185   4.780   5.119 -0.2163 -0.2552 -0.9175
  103OSM   H16S10389   5.112   4.827   5.049 -0.5907 -1.5889 -1.4464
  103OSM   H16T10390   5.139   4.680   5.130 -1.0079  0.1115 -0.7805
  103OSM   C17S10391   5.321   4.776   5.057 -0.5205 -0.2247 -0.3528
  103OSM   H17S10392   5.382   4.719   5.131  1.1048  1.2844 -0.4659
  103OSM   H17T10393   5.363   4.876   5.036  2.5197 -1.2642  0.1975
  103OSM   C18S10394   5.331   4.699   4.929  0.1986  0.3756 -0.1163
  103OSM   H18S10395   5.246   4.720   4.861  0.6470 -3.0587 -1.9268
  103OSM   H18T10396   5.323   4.589   4.940  0.2329  0.4341  0.5559
  103OSM   H18U10397   5.431   4.722   4.886  0.0657  0.2485 -0.4908
  103OSM    C1F10398   5.185   5.156   6.401  0.9347  0.0846  1.0038
  103OSM     OF10399   5.196   5.031   6.407  0.5939  0.4152  0.2982
  103OSM    C2F10400   5.302   5.233   6.349 -0.2836 -0.2120  0.3931
  103OSM    H2F10401   5.385   5.212   6.419  0.1857 -1.7289 -0.5696
  103OSM    H2G10402   5.286   5.343   6.340 -1.9867 -0.3681  1.1888
  103OSM    C3F10403   5.355   5.172   6.216  0.5692  0.1756  0.0745
  103OSM    H3F10404   5.269   5.154   6.148  2.3952 -0.1648 -2.2534
  103OSM    H3G10405   5.392   5.070   6.239 -0.1769  0.0933  1.0073
  103OSM    C4F10406   5.469   5.249   6.153  0.6684 -0.0159 -0.3947
  103OSM    H4F10407   5.546   5.243   6.233  0.3202 -0.2248 -0.0701
  103OSM    H4G10408   5.447   5.355   6.132  1.3472  0.0069 -1.0548
  103OSM    C5F10409   5.521   5.179   6.030 -0.4272  0.5466 -0.6271
  103OSM    H5F10410   5.532   5.068   6.039  1.7016  0.8546  1.6121
  103OSM    H5G10411   5.620   5.227   6.015  1.5857 -2.9880  0.1231
  103OSM    C6F10412   5.445   5.219   5.902  0.0267  0.1073 -0.9498
  103OSM    H6F10413   5.467   5.325   5.877 -0.5777  0.3737 -0.3834
  103OSM    H6G10414   5.338   5.203   5.926  0.1399  0.8820  0.1835
  103OSM    C7F10415   5.483   5.126   5.796 -0.2979 -0.0706  0.3985
  103OSM    H7F10416   5.466   5.021   5.828 -0.1236  0.0804  0.9888
  103OSM    H7G10417   5.588   5.142   5.764 -0.8014  0.5802 -1.0408
  103OSM    C8F10418   5.406   5.157   5.664  0.1206  0.3744 -0.1797
  103OSM    H8F10419   5.396   5.266   5.648 -2.5529  0.4516  1.3415
  103OSM    H8G10420   5.298   5.136   5.674  0.1615  1.0993  6.0450
  103OSM    C9F10421   5.465   5.089   5.546  0.5951 -0.8913  0.0086
  103OSM    H9F10422   5.473   4.980   5.555 -0.0997 -0.9146  0.4792
  103OSM   C10F10423   5.494   5.144   5.432  0.1031 -0.3587 -0.4158
  103OSM   H10F10424   5.518   5.080   5.346  2.9277  0.0770 -0.0330
  103OSM   C11F10425   5.484   5.295   5.403  0.3704 -0.5673  0.1101
  103OSM   H11F10426   5.566   5.355   5.448  0.3749 -2.5054  2.9626
  103OSM   H11G10427   5.391   5.333   5.450 -0.8701  0.4609 -2.9640
  103OSM   C12F10428   5.468   5.329   5.249  0.4712  0.0543 -0.2914
  103OSM   H12F10429   5.567   5.302   5.208  1.0037  2.7178 -0.9830
  103OSM   H12G10430   5.456   5.437   5.225 -0.5860 -0.0089 -0.1147
  103OSM   C13F10431   5.345   5.257   5.197 -0.2642  0.1948 -0.6352
  103OSM   H13F10432   5.255   5.299   5.247 -1.5661 -2.2288 -0.7990
  103OSM   H13G10433   5.357   5.147   5.204  0.2824  0.3397  1.4335
  103OSM   C14F10434   5.309   5.288   5.052  0.4542  0.2193  0.5555
  103OSM   H14F10435   5.385   5.262   4.975 -0.1151  2.2151 -0.7589
  103OSM   H14G10436   5.289   5.397   5.044  1.2101  0.6095  3.3016
  103OSM   C15F10437   5.175   5.214   5.014  0.3567  0.4709  0.4306
  103OSM   H15F10438   5.103   5.258   5.086  1.4014  1.8854  0.6462
  103OSM   H15G10439   5.184   5.104   5.027 -2.5713 -0.2387 -2.3230
  103OSM   C16F10440   5.135   5.235   4.870  0.4664 -0.0759 -0.4942
  103OSM   H16F10441   5.219   5.201   4.806 -1.4059 -0.4179 -2.8909
  103OSM   H16G10442   5.138   5.346   4.864 -2.8879  0.1952  0.9439
  103OSM   C17F10443   4.990   5.187   4.835  0.0723 -0.3820 -0.4112
  103OSM   H17F10444   4.936   5.235   4.750 -2.2805 -2.0671  0.0281
  103OSM   H17G10445   4.919   5.215   4.916 -0.4161 -0.5305 -0.7812
  103OSM   C18F10446   4.973   5.036   4.816  0.0893 -0.8471 -0.2806
  103OSM   H18F10447   5.028   4.978   4.894  0.1123  1.7404  1.7715
  103OSM   H18G10448   5.018   5.009   4.718  2.0000  2.1915 -0.3902
  103OSM   H18H10449   4.866   5.009   4.819 -0.7590  1.9280 -1.6815
  104OSM      N10450   0.636   3.106   7.300 -0.0475 -0.6888  0.1459
  104OSM    C1510451   0.774   3.046   7.261  0.0365 -0.2008 -0.3427
  104OSM   H15A10452   0.830   3.035   7.352  0.6364  1.8703 -0.4115
  104OSM   H15B10453   0.817   3.123   7.199  1.5479  0.7283  1.7648
  104OSM   H15C10454   0.768   2.956   7.201 -0.1645  1.1078 -2.4017
  104OSM    C1410455   0.647   3.239   7.370  0.1837 -0.5994  0.7145
  104OSM   H14A10456   0.705   3.245   7.461  0.5236  1.8084  0.4189
  104OSM   H14B10457   0.555   3.289   7.393  0.2983 -0.8015  1.6586
  104OSM   H14C10458   0.690   3.309   7.300 -2.5624  2.3904  1.7690
  104OSM    C1310459   0.562   3.142   7.176 -0.3154  0.3173  0.2329
  104OSM   H13A10460   0.608   3.223   7.121  1.1353 -1.3574 -1.1603
  104OSM   H13B10461   0.465   3.166   7.218 -0.6783 -0.0094 -0.4119
  104OSM   H13C10462   0.548   3.063   7.104 -5.1350  0.1510  1.0400
  104OSM    C1210463   0.559   3.021   7.390 -0.6206 -0.5348  0.1358
  104OSM   H12A10464   0.610   3.001   7.484  1.1436 -1.5106 -0.9795
  104OSM   H12B10465   0.548   2.930   7.334  1.4778 -0.2605 -0.7971
  104OSM    C1110466   0.410   3.054   7.410  0.2807 -0.1702  0.6825
  104OSM   H11A10467   0.393   3.159   7.441  0.0112 -0.1869  0.5915
  104OSM   H11B10468   0.382   2.995   7.500  2.7693 -0.8787  1.0747
  104OSM      P10469   0.180   3.021   7.289  0.2023 -0.2174 -0.3801
  104OSM    O1310470   0.121   2.919   7.375  0.6475 -0.0693 -0.5040
  104OSM    O1410471   0.136   3.162   7.311 -0.1643 -0.0690 -0.0038
  104OSM    O1110472   0.142   2.976   7.146  0.3906 -0.1434  0.1257
  104OSM    O1210473   0.336   3.003   7.295 -0.2948 -0.0122 -0.0124
  104OSM    C1S10474   0.212   3.019   7.035 -0.6325  0.2064  0.4035
  104OSM    H1S10475   0.320   2.998   7.046 -0.7185  0.5907  2.4019
  104OSM    H1T10476   0.213   3.130   7.041  2.6568  0.2171  1.2785
  104OSM     NF10477   0.269   3.001   6.798  0.0333 -0.1383 -0.4282
  104OSM    HNF10478   0.249   3.090   6.757 -0.9336 -0.5496 -0.8646
  104OSM    C2S10479   0.173   2.964   6.899  0.2792 -0.3169 -0.3125
  104OSM    H2S10480   0.166   2.854   6.903 -2.3710 -0.1891  0.3511
  104OSM    C3S10481   0.026   3.019   6.865 -0.4356  0.0268  0.5556
  104OSM    H3S10482   0.024   3.130   6.871  0.9170  0.3267 -2.6346
  104OSM     O310483  -0.071   2.989   6.971 -0.5855 -0.4019  0.0546
  104OSM    HO310484  -0.020   2.968   7.050 -0.1124 -0.9400 -0.3801
  104OSM    C4S10485  -0.024   2.982   6.723 -0.0130  0.0084 -0.3479
  104OSM    H4S10486   0.024   2.899   6.669 -1.6347 -0.1066 -1.6695
  104OSM    C5S10487  -0.108   3.059   6.653 -0.2818  0.1904 -0.1791
  104OSM    H5S10488  -0.132   3.161   6.689  2.0913  1.5883 -2.2471
  104OSM    C6S10489  -0.152   3.042   6.506  0.2614  1.3797 -0.3883
  104OSM    H6S10490  -0.236   2.969   6.503  1.2398  0.2247 -0.7208
  104OSM    H6T10491  -0.078   2.994   6.438 -1.4999  1.1590 -2.2392
  104OSM    C7S10492  -0.201   3.182   6.453 -0.6361  0.0115 -0.1887
  104OSM    H7S10493  -0.127   3.261   6.479 -0.7180  0.1835 -0.4714
  104OSM    H7T10494  -0.298   3.198   6.506 -0.9804 -0.1343 -0.7672
  104OSM    C8S10495  -0.225   3.182   6.298 -0.1041 -0.4761  0.2740
  104OSM    H8S10496  -0.288   3.098   6.263  1.0466 -0.8851 -0.8852
  104OSM    H8T10497  -0.129   3.168   6.245 -0.1755 -1.3930  0.3623
  104OSM    C9S10498  -0.288   3.316   6.256 -0.0282  0.6452 -0.6616
  104OSM    H9S10499  -0.231   3.401   6.298  0.3190  0.5416 -0.9226
  104OSM    H9T10500  -0.388   3.330   6.302 -0.7324  0.6718 -2.1300
  104OSM   C10S10501  -0.304   3.330   6.108  0.3156  0.2531  0.7699
  104OSM   H10S10502  -0.357   3.245   6.060  1.8976  0.1710 -0.9683
  104OSM   H10T10503  -0.203   3.339   6.062 -0.6039  0.1421 -1.4255
  104OSM   C11S10504  -0.365   3.469   6.078  0.9061  0.2091  0.6783
  104OSM   H11S10505  -0.290   3.551   6.090  0.3411  1.2030 -1.8793
  104OSM   H11T10506  -0.442   3.482   6.156  1.3793  1.5599  0.9628
  104OSM   C12S10507  -0.426   3.473   5.935 -0.0477  0.7441 -0.6092
  104OSM   H12S10508  -0.503   3.553   5.932 -0.2070  0.5964 -0.4420
  104OSM   H12T10509  -0.478   3.377   5.916 -0.7199  0.2394  3.0538
  104OSM   C13S10510  -0.329   3.494   5.816  0.6375  0.0412 -0.3307
  104OSM   H13S10511  -0.252   3.415   5.827 -1.5716 -2.2593 -0.3302
  104OSM   H13T10512  -0.284   3.596   5.813 -0.8554  0.7345 -2.7726
  104OSM   C14S10513  -0.397   3.483   5.680 -0.7257  0.0093 -0.2364
  104OSM   H14S10514  -0.486   3.548   5.695 -0.3817  0.0981  1.5326
  104OSM   H14T10515  -0.429   3.377   5.666 -0.3418 -0.4470  2.0009
  104OSM   C15S10516  -0.323   3.528   5.541  0.4586  0.0444 -0.1045
  104OSM   H15S10517  -0.255   3.444   5.516  1.3614  1.1704 -1.6045
  104OSM   H15T10518  -0.279   3.624   5.576 -2.4314  1.3106  0.3604
  104OSM   C16S10519  -0.411   3.544   5.420  0.0476  0.4389  0.4885
  104OSM   H16S10520  -0.483   3.627   5.431 -0.7911 -0.3956  1.5376
  104OSM   H16T10521  -0.459   3.444   5.411 -0.4195  0.5860  1.2543
  104OSM   C17S10522  -0.327   3.571   5.300 -0.3603 -0.3613 -0.1952
  104OSM   H17S10523  -0.279   3.477   5.266  2.2529  0.9054 -0.2200
  104OSM   H17T10524  -0.246   3.641   5.327  0.1508 -1.0371  0.0608
  104OSM   C18S10525  -0.401   3.634   5.172 -0.0113 -0.3926 -0.3615
  104OSM   H18S10526  -0.324   3.632   5.092  1.1632 -2.7701  0.7068
  104OSM   H18T10527  -0.453   3.730   5.190  0.4674 -0.3640  0.9991
  104OSM   H18U10528  -0.476   3.560   5.136  0.1296  0.1867 -1.9190
  104OSM    C1F10529   0.390   2.954   6.798 -0.1164  0.6401 -0.2897
  104OSM     OF10530   0.420   2.855   6.863 -0.3760 -0.3693  0.2725
  104OSM    C2F10531   0.499   3.026   6.716 -0.0583 -0.7258  0.3231
  104OSM    H2F10532   0.587   3.042   6.782 -0.1186 -0.3693  0.3201
  104OSM    H2G10533   0.464   3.129   6.694  2.2302  0.8979  3.3950
  104OSM    C3F10534   0.535   2.942   6.599  0.3715 -0.1467  0.0912
  104OSM    H3F10535   0.569   2.840   6.624  1.1306  0.0083 -0.2894
  104OSM    H3G10536   0.615   3.000   6.549 -0.6526  0.1168 -1.3320
  104OSM    C4F10537   0.415   2.937   6.498 -0.1804  0.3152  0.0913
  104OSM    H4F10538   0.340   2.868   6.542 -1.8824  0.7615 -2.0060
  104OSM    H4G10539   0.466   2.891   6.411  0.1484  1.5599 -0.3995
  104OSM    C5F10540   0.355   3.070   6.458  0.5327 -0.1387 -0.9996
  104OSM    H5F10541   0.437   3.133   6.418  1.0240 -1.4739 -2.1725
  104OSM    H5G10542   0.304   3.114   6.547  0.9553 -1.0655 -0.2846
  104OSM    C6F10543   0.252   3.046   6.340 -0.6142 -0.2410 -0.2157
  104OSM    H6F10544   0.184   2.962   6.367  0.3512 -0.5012  1.5535
  104OSM    H6G10545   0.292   3.024   6.239 -2.4147 -0.1879 -0.9672
  104OSM    C7F10546   0.162   3.166   6.323 -0.0174 -0.4945  0.9132
  104OSM    H7F10547   0.107   3.189   6.417 -0.0003  0.9118  0.5966
  104OSM    H7G10548   0.093   3.136   6.242  0.6616 -0.1689  0.2083
  104OSM    C8F10549   0.238   3.295   6.298 -0.3413  0.4350 -0.1517
  104OSM    H8F10550   0.309   3.292   6.213 -0.5375  1.7410 -0.3816
  104OSM    H8G10551   0.294   3.310   6.393  0.3486  1.7597 -0.7505
  104OSM    C9F10552   0.134   3.400   6.264  0.0521  0.1051  0.8354
  104OSM    H9F10553   0.089   3.458   6.345 -2.8504  0.4526 -0.9084
  104OSM   C10F10554   0.106   3.441   6.142  0.0169  0.0381 -0.1346
  104OSM   H10F10555   0.022   3.511   6.132 -0.1343  0.0157  0.8646
  104OSM   C11F10556   0.152   3.385   6.008 -0.4289  0.0530 -0.0062
  104OSM   H11F10557   0.217   3.296   6.024  0.4289  0.8117  0.8359
  104OSM   H11G10558   0.211   3.467   5.962  0.7744 -0.3075  0.8287
  104OSM   C12F10559   0.034   3.335   5.921 -0.2103  0.4541  0.6472
  104OSM   H12F10560  -0.030   3.425   5.917  1.1325  1.3962 -1.2256
  104OSM   H12G10561  -0.015   3.250   5.973  0.7081 -0.3796  0.1988
  104OSM   C13F10562   0.061   3.284   5.779 -0.1066  0.6810 -0.2464
  104OSM   H13F10563  -0.010   3.202   5.756 -0.7359  1.6035 -1.7690
  104OSM   H13G10564   0.163   3.243   5.792 -0.4653  0.1430  1.0081
  104OSM   C14F10565   0.046   3.385   5.664 -0.0842 -0.3679 -0.0216
  104OSM   H14F10566   0.100   3.481   5.678 -1.4320  0.6007 -1.1251
  104OSM   H14G10567  -0.060   3.413   5.647 -0.0810 -1.5611 -2.5811
  104OSM   C15F10568   0.085   3.318   5.523 -0.4235 -0.4747  0.3148
  104OSM   H15F10569   0.020   3.230   5.504  0.6369 -1.1956 -0.0775
  104OSM   H15G10570   0.187   3.277   5.537 -0.3486 -1.2659 -2.1737
  104OSM   C16F10571   0.090   3.411   5.408  0.5689 -0.1232  0.4948
  104OSM   H16F10572   0.180   3.475   5.413  2.5257 -2.8029  2.9459
  104OSM   H16G10573  -0.005   3.470   5.406 -0.6965 -2.0966 -0.6552
  104OSM   C17F10574   0.096   3.347   5.264  0.4007  0.8464 -0.3125
  104OSM   H17F10575   0.022   3.264   5.264  1.4986 -0.1758  0.7330
  104OSM   H17G10576   0.197   3.304   5.243  1.1355  3.5192 -2.9402
  104OSM   C18F10577   0.068   3.444   5.145 -0.4044  0.0413  0.7664
  104OSM   H18F10578   0.126   3.536   5.165  0.2119 -0.1661 -0.0132
  104OSM   H18G10579  -0.040   3.470   5.142 -0.6382 -0.9684 -0.7258
  104OSM   H18H10580   0.092   3.396   5.048 -0.3056 -0.0740  0.8488
  105OSM      N10581   6.808   5.066   6.907 -0.2046  0.2945  0.1293
  105OSM    C1510582   6.851   4.936   6.984 -0.2842 -0.9296  0.0855
  105OSM   H15A10583   6.771   4.868   6.957 -1.8138  0.1572  1.6534
  105OSM   H15B10584   6.842   4.949   7.091  2.8062 -0.6896  0.4031
  105OSM   H15C10585   6.942   4.894   6.945  1.1801  1.7018  0.5192
  105OSM    C1410586   6.667   5.108   6.939  0.2038  0.0706  0.0854
  105OSM   H14A10587   6.647   5.200   6.886 -0.2101  0.0249  0.1614
  105OSM   H14B10588   6.667   5.145   7.041 -1.6319  0.1053  0.1143
  105OSM   H14C10589   6.584   5.040   6.930 -0.0682 -0.0706  2.8956
  105OSM    C1310590   6.906   5.174   6.946  0.2351 -0.2041 -0.0541
  105OSM   H13A10591   7.005   5.150   6.910 -0.1766  0.4632 -1.7155
  105OSM   H13B10592   6.924   5.187   7.052 -3.0180  2.4738  0.3443
  105OSM   H13C10593   6.871   5.269   6.910 -2.5175 -0.6588  1.1433
  105OSM    C1210594   6.814   5.034   6.758 -0.4235  0.2631 -0.7072
  105OSM   H12A10595   6.806   5.130   6.708 -1.8567 -0.0534 -1.1359
  105OSM   H12B10596   6.722   4.987   6.728 -1.3563  1.2302  0.5508
  105OSM    C1110597   6.938   4.964   6.707  0.0727 -0.5936  0.1290
  105OSM   H11A10598   7.026   5.022   6.741 -1.1278  0.6841  1.2153
  105OSM   H11B10599   6.953   4.984   6.599  1.7731  0.3290  0.4889
  105OSM      P10600   6.842   4.727   6.678 -0.0161 -0.4255  0.1900
  105OSM    O1310601   6.859   4.601   6.756  0.1096  0.3167 -0.2183
  105OSM    O1410602   6.706   4.786   6.669 -0.3115 -0.3078  0.1468
  105OSM    O1110603   6.896   4.692   6.541 -0.7508 -0.1259  0.1673
  105OSM    O1210604   6.946   4.829   6.740  0.8891  0.1241 -0.3741
  105OSM    C1S10605   7.042   4.692   6.506 -0.2859 -0.4323  0.3230
  105OSM    H1S10606   7.099   4.628   6.577  1.5482  0.3930 -0.3663
  105OSM    H1T10607   7.090   4.791   6.517  0.4089 -0.6611 -0.5909
  105OSM     NF10608   7.194   4.569   6.354 -0.7608  0.0409 -0.9020
  105OSM    HNF10609   7.257   4.625   6.301  1.8298 -1.3408  0.5037
  105OSM    C2S10610   7.057   4.619   6.368 -0.3131 -0.6609 -0.0482
  105OSM    H2S10611   6.984   4.535   6.363 -0.9772 -0.1519  0.6893
  105OSM    C3S10612   7.011   4.717   6.265  0.0840 -0.2200 -0.0374
  105OSM    H3S10613   7.088   4.797   6.261  1.0429 -1.1500 -0.5634
  105OSM     O310614   6.892   4.788   6.297 -0.1304 -0.4301 -0.5539
  105OSM    HO310615   6.880   4.761   6.389  3.2123 -1.0772 -0.1530
  105OSM    C4S10616   7.003   4.658   6.128 -0.0073 -0.0108 -0.7553
  105OSM    H4S10617   7.104   4.648   6.087  1.0038  2.9181  0.7667
  105OSM    C5S10618   6.901   4.624   6.047  0.0312  0.3901  0.0032
  105OSM    H5S10619   6.794   4.640   6.070 -0.9678 -1.4118 -2.8293
  105OSM    C6S10620   6.915   4.550   5.915 -0.9835  0.0080 -0.2765
  105OSM    H6S10621   6.834   4.570   5.843 -1.3867 -1.7956 -0.3700
  105OSM    H6T10622   6.922   4.440   5.927  0.5830  0.1107  0.0446
  105OSM    C7S10623   7.037   4.571   5.830 -0.4197 -0.3918 -0.0945
  105OSM    H7S10624   7.044   4.492   5.752  1.9294 -2.7150  2.2647
  105OSM    H7T10625   7.116   4.568   5.908 -0.5331  0.4638  0.0678
  105OSM    C8S10626   7.046   4.701   5.764 -0.0660 -0.6912  0.3330
  105OSM    H8S10627   7.023   4.779   5.840  1.5601 -1.6837  1.9280
  105OSM    H8T10628   6.962   4.715   5.692  0.3130  0.1864  0.0482
  105OSM    C9S10629   7.184   4.716   5.704  0.0419  0.1782 -0.3553
  105OSM    H9S10630   7.193   4.631   5.632 -0.1934 -0.7521  0.6899
  105OSM    H9T10631   7.257   4.687   5.783  0.2192  1.0289 -0.2012
  105OSM   C10S10632   7.218   4.855   5.648 -0.3930  0.0127  0.7094
  105OSM   H10S10633   7.325   4.852   5.619 -1.0856  0.6494 -2.2683
  105OSM   H10T10634   7.188   4.938   5.715 -2.8674  1.1692 -1.6038
  105OSM   C11S10635   7.150   4.864   5.508  1.1059  1.0564 -0.2277
  105OSM   H11S10636   7.042   4.842   5.513  1.4616 -0.7145  0.7297
  105OSM   H11T10637   7.187   4.780   5.445  0.0546  0.3011  0.1405
  105OSM   C12S10638   7.185   4.996   5.443  0.1807  1.0573  0.3139
  105OSM   H12S10639   7.290   4.997   5.407 -0.2844  1.7117 -1.0790
  105OSM   H12T10640   7.174   5.071   5.525 -3.4462 -0.9550  1.8899
  105OSM   C13S10641   7.086   5.046   5.332  0.9652  0.2627  0.0468
  105OSM   H13S10642   7.098   5.156   5.337 -2.4271  0.7586 -0.5184
  105OSM   H13T10643   6.980   5.021   5.351  0.9535  0.9747  0.9679
  105OSM   C14S10644   7.115   4.999   5.184  0.4608 -0.1383  0.0301
  105OSM   H14S10645   7.078   4.896   5.168 -0.3030  0.2639 -0.8664
  105OSM   H14T10646   7.226   4.988   5.183  0.6537  1.5057 -1.6714
  105OSM   C15S10647   7.076   5.088   5.064  1.1800  0.0942 -0.4189
  105OSM   H15S10648   7.130   5.185   5.070  1.3360 -0.0183  0.0220
  105OSM   H15T10649   6.969   5.102   5.089  0.8386 -1.9753 -0.5758
  105OSM   C16S10650   7.115   5.023   4.932 -0.4896 -0.2265 -0.0808
  105OSM   H16S10651   7.053   5.074   4.856  1.2061  0.7583 -0.8795
  105OSM   H16T10652   7.084   4.918   4.914 -2.5947  0.6548 -2.0426
  105OSM   C17S10653   7.264   5.027   4.898 -0.2340  0.3375  0.6709
  105OSM   H17S10654   7.321   4.950   4.955  3.4233  0.5375 -2.3318
  105OSM   H17T10655   7.309   5.121   4.938  1.5446  0.2115 -0.8581
  105OSM   C18S10656   7.301   5.008   4.749  0.8642 -0.2635 -0.7161
  105OSM   H18S10657   7.408   4.975   4.753  0.7393 -0.6111 -0.1719
  105OSM   H18T10658   7.292   5.097   4.683 -0.0800  0.4361  0.3207
  105OSM   H18U10659   7.244   4.927   4.699 -0.2966  1.2549 -1.9425
  105OSM    C1F10660   7.238   4.457   6.413 -0.5014 -0.0033  0.0253
  105OSM     OF10661   7.164   4.407   6.498 -0.1195  0.5983 -0.1158
  105OSM    C2F10662   7.373   4.400   6.372 -0.0487 -0.7347 -0.4267
  105OSM    H2F10663   7.432   4.369   6.461 -1.3093 -0.0591  0.6833
  105OSM    H2G10664   7.433   4.481   6.325  0.1724  1.3058  3.0485
  105OSM    C3F10665   7.357   4.271   6.295  0.2199 -0.0833 -0.1978
  105OSM    H3F10666   7.323   4.186   6.358  0.7574  0.4128  0.7864
  105OSM    H3G10667   7.458   4.245   6.257  0.2936  0.8394 -0.6592
  105OSM    C4F10668   7.260   4.286   6.180 -0.9557 -1.1088 -0.8179
  105OSM    H4F10669   7.280   4.367   6.107  2.5124 -1.1049 -0.0379
  105OSM    H4G10670   7.156   4.297   6.217 -0.2039  0.1049  1.0326
  105OSM    C5F10671   7.265   4.153   6.098 -0.3234 -0.8589 -0.7894
  105OSM    H5F10672   7.263   4.066   6.167 -0.9608  0.4465  0.9131
  105OSM    H5G10673   7.358   4.168   6.041  0.2739 -1.4392  0.0068
  105OSM    C6F10674   7.154   4.142   5.994 -0.5773 -0.4244  0.5415
  105OSM    H6F10675   7.068   4.209   6.011 -0.8463 -0.5916 -0.1411
  105OSM    H6G10676   7.116   4.038   5.999 -1.9745  0.0715  0.5295
  105OSM    C7F10677   7.216   4.163   5.851 -0.1236 -0.8403 -0.1132
  105OSM    H7F10678   7.297   4.087   5.840  0.0052 -0.6077 -0.7972
  105OSM    H7G10679   7.247   4.269   5.846  0.9127 -1.0861  0.6499
  105OSM    C8F10680   7.120   4.122   5.743  0.3649 -0.1328  0.6762
  105OSM    H8F10681   7.040   4.199   5.743  0.4277 -0.0447 -0.7127
  105OSM    H8G10682   7.080   4.021   5.769  0.8879 -0.5587 -0.1500
  105OSM    C9F10683   7.186   4.112   5.609  0.2008  0.0210 -0.7858
  105OSM    H9F10684   7.287   4.068   5.605  0.8535  1.3783 -0.1445
  105OSM   C10F10685   7.126   4.128   5.489 -0.4053 -0.3574  0.8955
  105OSM   H10F10686   7.188   4.121   5.398 -0.5700 -0.8495  0.8185
  105OSM   C11F10687   6.984   4.169   5.463 -0.4922  0.0941 -0.2341
  105OSM   H11F10688   6.926   4.169   5.558 -0.2776 -1.3601 -0.0824
  105OSM   H11G10689   6.943   4.089   5.397  1.8881 -1.6165  0.2411
  105OSM   C12F10690   6.963   4.302   5.392 -0.5908  0.3726 -0.6325
  105OSM   H12F10691   6.854   4.325   5.391 -0.5702  0.7830  1.6029
  105OSM   H12G10692   6.995   4.286   5.286  0.2470 -1.1078 -0.1824
  105OSM   C13F10693   7.034   4.433   5.452 -0.0164  0.1077  0.0283
  105OSM   H13F10694   7.143   4.427   5.429 -0.4099  0.0845 -2.0286
  105OSM   H13G10695   7.010   4.422   5.560  1.8581 -1.0901  0.3749
  105OSM   C14F10696   6.977   4.568   5.399  0.6782 -0.8696  0.7431
  105OSM   H14F10697   7.023   4.656   5.449 -2.4010  1.0115  0.4969
  105OSM   H14G10698   6.873   4.581   5.434  0.7798 -0.4427  0.8927
  105OSM   C15F10699   7.000   4.598   5.243  0.3890 -0.1214  0.3968
  105OSM   H15F10700   6.975   4.704   5.223 -0.0912 -0.0443  1.3090
  105OSM   H15G10701   6.933   4.534   5.181 -0.3582 -0.1148  1.1740
  105OSM   C16F10702   7.145   4.589   5.198 -0.2515  0.4362 -0.1129
  105OSM   H16F10703   7.189   4.492   5.231  0.2017  0.2703 -1.1830
  105OSM   H16G10704   7.201   4.661   5.261  1.8393 -0.2917 -1.0447
  105OSM   C17F10705   7.170   4.610   5.051  0.7904  0.5118 -0.7886
  105OSM   H17F10706   7.151   4.714   5.017 -0.7582  0.9196  1.1667
  105OSM   H17G10707   7.089   4.553   5.001  0.4325  0.4862 -0.1882
  105OSM   C18F10708   7.301   4.546   5.011 -0.5402  0.1082  0.4343
  105OSM   H18F10709   7.292   4.436   5.005  0.9691 -0.2037  2.7665
  105OSM   H18G10710   7.387   4.566   5.078  0.2226 -2.2719  0.2423
  105OSM   H18H10711   7.322   4.591   4.911 -2.5996  0.2563  0.0271
  106OSM      N10712   6.515   1.564   6.591  0.3411  0.4655 -0.1038
  106OSM    C1510713   6.651   1.508   6.558  0.1668 -0.2111 -0.8018
  106OSM   H15A10714   6.686   1.523   6.458 -0.7735 -0.7644 -1.2320
  106OSM   H15B10715   6.650   1.405   6.592  1.1411 -0.6848 -2.1402
  106OSM   H15C10716   6.725   1.561   6.616  1.3573  0.7190 -3.0797
  106OSM    C1410717   6.415   1.479   6.517  0.4768 -0.4756 -0.4035
  106OSM   H14A10718   6.420   1.499   6.411  0.1735 -1.5121 -0.6176
  106OSM   H14B10719   6.318   1.496   6.561  0.8070  0.2346  0.0626
  106OSM   H14C10720   6.428   1.376   6.546 -1.1202 -0.9386 -1.2342
  106OSM    C1310721   6.487   1.569   6.735  0.3862 -0.3072  0.2483
  106OSM   H13A10722   6.538   1.656   6.774 -0.6908  1.4556 -2.0088
  106OSM   H13B10723   6.506   1.477   6.789  0.6624  0.4267  1.4370
  106OSM   H13C10724   6.380   1.580   6.744  0.3672 -0.2902 -0.0035
  106OSM    C1210725   6.502   1.700   6.529 -0.4530 -0.8687 -0.6281
  106OSM   H12A10726   6.513   1.695   6.422  0.2290 -1.6968 -0.5284
  106OSM   H12B10727   6.584   1.766   6.555 -0.6522 -1.5317  1.9298
  106OSM    C1110728   6.381   1.783   6.569 -0.4553  0.2080 -0.2793
  106OSM   H11A10729   6.298   1.710   6.574 -1.4761  1.3278 -0.3284
  106OSM   H11B10730   6.367   1.862   6.492 -1.3083 -0.2765 -0.6236
  106OSM      P10731   6.281   1.907   6.775 -0.0034 -0.1760 -0.1317
  106OSM    O1310732   6.208   1.792   6.833 -0.1620  0.5177  0.1088
  106OSM    O1410733   6.331   2.007   6.877  0.1345  0.2395  0.1003
  106OSM    O1110734   6.189   1.970   6.662  0.7524  0.2291 -0.4418
  106OSM    O1210735   6.402   1.846   6.696 -0.4696  0.2122 -0.2534
  106OSM    C1S10736   6.219   2.083   6.585 -0.6314  0.6439  0.8974
  106OSM    H1S10737   6.305   2.057   6.519 -1.0915 -0.6635  0.7824
  106OSM    H1T10738   6.253   2.167   6.650  0.2931  0.1071  1.1371
  106OSM     NF10739   6.159   2.279   6.460 -0.5715  0.0447  0.2127
  106OSM    HNF10740   6.155   2.352   6.528 -0.3327 -0.0786  0.3604
  106OSM    C2S10741   6.108   2.147   6.493  0.0363  0.2222  0.7547
  106OSM    H2S10742   6.088   2.088   6.401 -1.0794  3.0037 -0.9239
  106OSM    C3S10743   5.979   2.160   6.583 -1.1766  0.4773  0.3597
  106OSM    H3S10744   6.020   2.210   6.674  0.0825 -0.9471  0.6147
  106OSM     O310745   5.932   2.033   6.626  0.3291  0.8484 -0.4497
  106OSM    HO310746   6.009   1.978   6.635  0.7504  1.4733 -0.1671
  106OSM    C4S10747   5.876   2.251   6.519  0.2089 -0.6292 -0.8149
  106OSM    H4S10748   5.866   2.350   6.565 -0.2938 -1.7536  1.6618
  106OSM    C5S10749   5.794   2.219   6.422  0.2482 -0.1211  0.2185
  106OSM    H5S10750   5.817   2.120   6.381  4.1670  0.1199  1.4402
  106OSM    C6S10751   5.691   2.310   6.354 -0.1776  0.0243  0.0048
  106OSM    H6S10752   5.718   2.414   6.381 -0.6626 -0.2026  1.4732
  106OSM    H6T10753   5.591   2.304   6.401 -0.4993 -0.1598 -0.6972
  106OSM    C7S10754   5.684   2.320   6.202 -0.1902 -0.1152 -0.2387
  106OSM    H7S10755   5.601   2.391   6.182  0.5714  1.3063  1.4438
  106OSM    H7T10756   5.661   2.214   6.176  0.9040 -0.1024 -1.4021
  106OSM    C8S10757   5.814   2.372   6.144 -0.4161 -1.3119 -0.2991
  106OSM    H8S10758   5.898   2.311   6.185 -2.1708 -2.3768  1.9021
  106OSM    H8T10759   5.831   2.479   6.166  0.9606 -1.3824 -0.9177
  106OSM    C9S10760   5.823   2.368   5.988  0.1280 -0.0473  0.4513
  106OSM    H9S10761   5.749   2.433   5.938  1.7550 -0.4596 -2.7716
  106OSM    H9T10762   5.813   2.262   5.957  1.2951  0.3661 -1.5118
  106OSM   C10S10763   5.960   2.419   5.931 -0.7092  0.0442  0.7387
  106OSM   H10S10764   6.038   2.364   5.988 -0.1086 -0.8361 -0.8753
  106OSM   H10T10765   5.972   2.529   5.939 -0.0842 -0.0557  1.2157
  106OSM   C11S10766   5.972   2.373   5.779 -0.5087 -0.2113  0.2834
  106OSM   H11S10767   5.963   2.263   5.774  1.1818 -0.3265 -1.6431
  106OSM   H11T10768   6.077   2.399   5.750  0.1333 -1.0464  1.7259
  106OSM   C12S10769   5.871   2.433   5.686 -0.6535 -0.0297  0.6930
  106OSM   H12S10770   5.887   2.542   5.676 -1.2651  0.1107  1.1461
  106OSM   H12T10771   5.763   2.417   5.705 -0.3398  0.7604  3.4741
  106OSM   C13S10772   5.898   2.362   5.546 -0.7432 -0.2543  0.3226
  106OSM   H13S10773   5.839   2.268   5.537  0.8913 -1.4200  1.2797
  106OSM   H13T10774   6.004   2.328   5.552 -0.4828  0.7930  3.8691
  106OSM   C14S10775   5.869   2.477   5.436 -0.5080  0.4986  0.0915
  106OSM   H14S10776   5.935   2.565   5.447 -1.5892  1.7630 -2.7489
  106OSM   H14T10777   5.763   2.507   5.455 -1.1237 -2.7878  2.9074
  106OSM   C15S10778   5.876   2.428   5.287  0.1239 -0.0419  0.1592
  106OSM   H15S10779   5.793   2.358   5.264 -0.7568  1.5174 -1.6874
  106OSM   H15T10780   5.974   2.376   5.280 -0.1967 -1.1097  2.6211
  106OSM   C16S10781   5.868   2.541   5.182 -0.2276  0.0088  0.5557
  106OSM   H16S10782   5.951   2.614   5.197  0.3919 -0.6890  0.5986
  106OSM   H16T10783   5.767   2.583   5.199 -0.1758 -0.8887  3.7335
  106OSM   C17S10784   5.903   2.485   5.043  0.5544 -0.7135  0.6749
  106OSM   H17S10785   5.841   2.394   5.027 -1.4067  0.2729  2.1443
  106OSM   H17T10786   6.007   2.448   5.039  0.4778 -0.8829  0.2412
  106OSM   C18S10787   5.881   2.590   4.935 -0.4667  1.1293 -0.4796
  106OSM   H18S10788   5.773   2.614   4.919 -0.8074  1.4418  1.9403
  106OSM   H18T10789   5.924   2.557   4.838 -0.4566  1.2594 -0.5198
  106OSM   H18U10790   5.930   2.683   4.970 -1.2408  1.3620  0.0030
  106OSM    C1F10791   6.251   2.304   6.371 -0.4423  0.3070  0.3988
  106OSM     OF10792   6.302   2.214   6.298 -0.4638 -0.2575 -0.2893
  106OSM    C2F10793   6.292   2.450   6.362 -0.3387 -0.5622  0.8211
  106OSM    H2F10794   6.399   2.462   6.391 -0.0218 -1.8671  0.2624
  106OSM    H2G10795   6.227   2.511   6.428 -1.7100 -1.5982  0.4632
  106OSM    C3F10796   6.265   2.492   6.221 -0.3770 -0.3450 -0.1523
  106OSM    H3F10797   6.274   2.601   6.236 -0.5141 -0.2721 -0.5837
  106OSM    H3G10798   6.160   2.474   6.189 -0.3940  1.4674 -1.2599
  106OSM    C4F10799   6.358   2.439   6.111  0.2549 -0.7881 -0.8277
  106OSM    H4F10800   6.348   2.333   6.080 -0.0013 -0.8218 -0.6451
  106OSM    H4G10801   6.463   2.440   6.147 -0.2769 -2.5801  0.9705
  106OSM    C5F10802   6.327   2.533   5.998  0.0846  0.4765 -0.3074
  106OSM    H5F10803   6.352   2.634   6.037  0.8495  0.0568  0.3019
  106OSM    H5G10804   6.219   2.540   5.970  0.0024  1.1971  0.1550
  106OSM    C6F10805   6.409   2.495   5.876  0.3939 -0.2820 -0.1521
  106OSM    H6F10806   6.403   2.389   5.845  1.8279 -0.3412 -0.3231
  106OSM    H6G10807   6.518   2.506   5.895  0.2968  1.6877 -0.5293
  106OSM    C7F10808   6.386   2.583   5.758  0.7841  0.2569 -0.6188
  106OSM    H7F10809   6.395   2.689   5.787 -1.7302  0.4116 -0.2048
  106OSM    H7G10810   6.286   2.562   5.716 -0.8220  2.3774  1.8866
  106OSM    C8F10811   6.493   2.562   5.646 -0.3345  0.1812  0.4576
  106OSM    H8F10812   6.460   2.470   5.594 -1.9969  1.0560 -0.1263
  106OSM    H8G10813   6.598   2.546   5.678 -0.8525  0.1422  2.2291
  106OSM    C9F10814   6.488   2.679   5.553  0.5855  0.1752 -0.4871
  106OSM    H9F10815   6.536   2.771   5.591 -2.3313  1.7453 -0.3182
  106OSM   C10F10816   6.405   2.698   5.446  0.3019  0.4402 -0.4823
  106OSM   H10F10817   6.423   2.784   5.380  0.3422  0.3351 -0.6078
  106OSM   C11F10818   6.318   2.585   5.388  0.0739 -0.6905  0.7217
  106OSM   H11F10819   6.210   2.602   5.406  0.1489 -0.7718  1.2462
  106OSM   H11G10820   6.350   2.485   5.425  1.1683  0.0654  1.8764
  106OSM   C12F10821   6.333   2.583   5.232 -0.2935  0.0755 -0.4150
  106OSM   H12F10822   6.273   2.501   5.188  1.3932 -1.6614  0.3990
  106OSM   H12G10823   6.441   2.588   5.205 -0.1988  2.0404  0.1753
  106OSM   C13F10824   6.277   2.711   5.174  0.6194 -0.3866 -0.5055
  106OSM   H13F10825   6.322   2.808   5.201  0.7729 -0.1152 -1.6933
  106OSM   H13G10826   6.171   2.717   5.209  0.5172  1.2871 -1.0396
  106OSM   C14F10827   6.264   2.691   5.019  0.0034 -0.0297  0.3303
  106OSM   H14F10828   6.189   2.609   5.012  0.6947 -0.8286  1.8579
  106OSM   H14G10829   6.367   2.682   4.977 -0.4336  1.2902 -1.1086
  106OSM   C15F10830   6.206   2.808   4.952 -0.0599  0.1879 -0.4517
  106OSM   H15F10831   6.276   2.894   4.956  1.9647 -1.3980 -0.2388
  106OSM   H15G10832   6.105   2.824   4.994  0.1257  2.7535 -0.8117
  106OSM   C16F10833   6.193   2.785   4.794 -0.2266  0.5672 -0.6974
  106OSM   H16F10834   6.137   2.691   4.776  0.4098  0.4961 -2.4844
  106OSM   H16G10835   6.293   2.764   4.750  0.8646  0.4584  1.6692
  106OSM   C17F10836   6.132   2.898   4.720  0.2714  0.1848 -0.5566
  106OSM   H17F10837   6.122   2.875   4.612  0.5000  2.0752 -1.0080
  106OSM   H17G10838   6.196   2.988   4.728 -0.9856  1.0817 -0.3489
  106OSM   C18F10839   5.988   2.939   4.763  0.1186  0.2988 -1.0294
  106OSM   H18F10840   5.987   2.960   4.872 -1.2165 -0.4900 -0.8676
  106OSM   H18G10841   5.917   2.854   4.749 -0.5620  0.1828  2.2991
  106OSM   H18H10842   5.965   3.033   4.710  0.9919  1.3690  0.4150
  107OSM      N10843   4.476   0.100   6.781 -0.0706  0.4897 -0.1661
  107OSM    C1510844   4.397   0.184   6.871  0.8448 -0.6676 -0.2358
  107OSM   H15A10845   4.422   0.288   6.852 -0.4403 -0.3423 -0.1853
  107OSM   H15B10846   4.416   0.160   6.974  0.8589  1.3701  0.2847
  107OSM   H15C10847   4.292   0.167   6.857  0.6323 -0.8776  1.4558
  107OSM    C1410848   4.614   0.132   6.788 -0.3755 -0.0002  0.0030
  107OSM   H14A10849   4.633   0.237   6.775 -0.4946  0.4357  2.8222
  107OSM   H14B10850   4.668   0.086   6.707  2.4090 -0.3750  1.9252
  107OSM   H14C10851   4.668   0.097   6.875  0.0231  2.1328  0.6527
  107OSM    C1310852   4.459  -0.040   6.827 -0.7667  0.1006  0.6123
  107OSM   H13A10853   4.514  -0.049   6.919 -1.9230 -0.5811  1.2638
  107OSM   H13B10854   4.501  -0.115   6.761 -1.3379  0.6492 -0.3956
  107OSM   H13C10855   4.356  -0.071   6.839 -0.7274 -0.1693  0.2795
  107OSM    C1210856   4.421   0.113   6.641  0.6993  0.0127 -0.2999
  107OSM   H12A10857   4.426   0.216   6.611  2.6165 -0.1515 -0.6326
  107OSM   H12B10858   4.319   0.077   6.636  0.0012  1.2131  3.0302
  107OSM    C1110859   4.513   0.051   6.528 -0.0237  0.0732  0.5034
  107OSM   H11A10860   4.454   0.028   6.436 -0.0910  1.1481  0.2658
  107OSM   H11B10861   4.555  -0.048   6.557 -2.3102 -1.4944 -1.0717
  107OSM      P10862   4.758   0.106   6.441  0.1276  0.1095  0.1455
  107OSM    O1310863   4.834   0.218   6.380  0.5322 -0.0243 -0.7414
  107OSM    O1410864   4.823   0.041   6.555 -0.0804  0.5733  0.8999
  107OSM    O1110865   4.733  -0.011   6.336  0.3063  0.1871  0.6844
  107OSM    O1210866   4.611   0.153   6.497 -0.3233  0.1587 -0.2590
  107OSM    C1S10867   4.704   0.008   6.200  0.1815  0.1387  0.8019
  107OSM    H1S10868   4.645   0.102   6.190  0.0247  0.1376  1.6203
  107OSM    H1T10869   4.641  -0.077   6.167 -0.0207  0.0978  1.2808
  107OSM     NF10870   4.788   0.055   5.973  0.0038 -0.2517  0.3044
  107OSM    HNF10871   4.809  -0.001   5.893  0.6207  0.3560  0.0211
  107OSM    C2S10872   4.824   0.022   6.104  0.7786 -0.3508 -0.5084
  107OSM    H2S10873   4.882   0.107   6.147  0.6251 -0.0044 -0.9756
  107OSM    C3S10874   4.914  -0.107   6.119  0.2725  0.5255  0.4361
  107OSM    H3S10875   4.851  -0.188   6.077  0.0368  0.6294  0.5863
  107OSM     O310876   4.954  -0.133   6.254 -0.2549 -0.4462 -0.3991
  107OSM    HO310877   4.886  -0.087   6.305  0.4793 -2.3847  2.5909
  107OSM    C4S10878   5.037  -0.095   6.027  0.2342 -0.5915 -0.8670
  107OSM    H4S10879   5.114  -0.028   6.068 -0.3662  0.9092 -2.0593
  107OSM    C5S10880   5.055  -0.162   5.914  0.1574 -1.2134 -0.4785
  107OSM    H5S10881   4.985  -0.240   5.881  0.6981 -2.4810  1.1937
  107OSM    C6S10882   5.167  -0.133   5.820 -0.3294  0.4052  0.6499
  107OSM    H6S10883   5.238  -0.054   5.852  0.8188 -0.0703 -0.6274
  107OSM    H6T10884   5.126  -0.096   5.724 -0.5090 -0.2682  0.4606
  107OSM    C7S10885   5.261  -0.250   5.776  0.2794  0.5163 -0.1473
  107OSM    H7S10886   5.189  -0.332   5.754  1.2626 -0.6744  0.9377
  107OSM    H7T10887   5.317  -0.287   5.864  0.5589  0.5925 -0.2935
  107OSM    C8S10888   5.348  -0.232   5.652 -0.0782 -0.2965  0.3256
  107OSM    H8S10889   5.282  -0.216   5.564  0.6173 -1.2119 -0.3913
  107OSM    H8T10890   5.384  -0.337   5.647 -0.2837 -0.4405  1.6510
  107OSM    C9S10891   5.463  -0.134   5.656 -0.2803 -0.1657 -0.3996
  107OSM    H9S10892   5.532  -0.167   5.736 -1.2675  0.3862  0.7100
  107OSM    H9T10893   5.420  -0.037   5.689  2.8249  0.3553  2.5835
  107OSM   C10S10894   5.524  -0.146   5.512  0.7448  0.1407  0.2725
  107OSM   H10S10895   5.455  -0.123   5.429  1.1505  1.5426  0.2949
  107OSM   H10T10896   5.558  -0.251   5.504 -1.3748 -0.6283  0.6540
  107OSM   C11S10897   5.653  -0.066   5.497 -0.3216  0.0802 -0.0707
  107OSM   H11S10898   5.717  -0.060   5.587  1.0677  2.9514 -1.1272
  107OSM   H11T10899   5.619   0.038   5.477 -2.5512 -0.4631  0.6364
  107OSM   C12S10900   5.732  -0.115   5.378 -0.2217 -0.0766  0.0513
  107OSM   H12S10901   5.779  -0.213   5.399  1.2387  0.9392  1.7615
  107OSM   H12T10902   5.817  -0.046   5.360  0.6601 -1.2385 -0.3741
  107OSM   C13S10903   5.661  -0.107   5.243 -0.5378  0.0826 -0.9043
  107OSM   H13S10904   5.604  -0.012   5.246 -1.5937 -0.5402  1.9113
  107OSM   H13T10905   5.583  -0.185   5.232 -1.0710  0.6132 -0.9503
  107OSM   C14S10906   5.748  -0.115   5.110 -0.4494 -0.2685 -0.3362
  107OSM   H14S10907   5.844  -0.067   5.140 -0.8932  0.2357  0.3253
  107OSM   H14T10908   5.685  -0.060   5.037 -1.9295 -1.1802  0.2029
  107OSM   C15S10909   5.771  -0.253   5.046 -0.0419  0.5061 -0.0777
  107OSM   H15S10910   5.676  -0.292   5.003  0.0962 -0.4877  0.4761
  107OSM   H15T10911   5.812  -0.327   5.119  0.0670  0.2365 -0.4081
  107OSM   C16S10912   5.878  -0.242   4.945  0.2093  0.3613  0.1526
  107OSM   H16S10913   5.976  -0.245   4.997 -0.5635  0.6843  1.6976
  107OSM   H16T10914   5.874  -0.148   4.885 -0.9622 -1.7013 -3.2587
  107OSM   C17S10915   5.848  -0.364   4.854  0.1072 -0.3858 -0.4971
  107OSM   H17S10916   5.756  -0.351   4.794 -0.2440  2.5135  0.4999
  107OSM   H17T10917   5.829  -0.454   4.916  3.3122 -0.3257  0.7485
  107OSM   C18S10918   5.970  -0.388   4.769  0.3593  0.4587  0.8377
  107OSM   H18S10919   5.957  -0.489   4.725  0.3411 -0.1186  2.0988
  107OSM   H18T10920   6.059  -0.384   4.837 -1.8390 -1.3077  4.1265
  107OSM   H18U10921   5.968  -0.309   4.692 -1.6360 -0.1296  0.2162
  107OSM    C1F10922   4.728   0.172   5.941 -0.6593  0.6174 -0.0874
  107OSM     OF10923   4.714   0.264   6.022 -0.3702  0.0930 -0.3248
  107OSM    C2F10924   4.675   0.187   5.801 -0.8518 -0.2534  0.2322
  107OSM    H2F10925   4.577   0.136   5.789 -1.4432  0.8367  0.2562
  107OSM    H2G10926   4.740   0.146   5.721 -1.3060 -1.0393  0.2489
  107OSM    C3F10927   4.654   0.331   5.754 -0.3907 -0.1779  0.1663
  107OSM    H3F10928   4.745   0.390   5.780 -1.2174  0.8308  0.8737
  107OSM    H3G10929   4.577   0.383   5.815 -2.4395  0.6570 -2.8925
  107OSM    C4F10930   4.610   0.361   5.606 -0.6794 -0.5707  0.1933
  107OSM    H4F10931   4.576   0.464   5.584  2.2027  0.1044 -1.6258
  107OSM    H4G10932   4.533   0.282   5.594 -1.8757  0.7772 -1.3743
  107OSM    C5F10933   4.719   0.332   5.498 -0.2480 -0.1538  0.4306
  107OSM    H5F10934   4.781   0.243   5.524  6.7394  3.7041 -0.4453
  107OSM    H5G10935   4.775   0.428   5.503 -2.2322  1.0421  0.4439
  107OSM    C6F10936   4.664   0.302   5.356 -0.4459 -0.0209 -0.4363
  107OSM    H6F10937   4.586   0.371   5.319 -1.6990 -1.2103 -0.0945
  107OSM    H6G10938   4.612   0.204   5.361  1.8705 -1.3144  0.2901
  107OSM    C7F10939   4.779   0.272   5.256 -0.2488 -0.2570  0.1127
  107OSM    H7F10940   4.837   0.190   5.302  0.0988 -0.6634 -1.0198
  107OSM    H7G10941   4.843   0.362   5.250 -0.7047  0.0386 -0.4141
  107OSM    C8F10942   4.726   0.226   5.121 -0.2303  0.1006  0.4253
  107OSM    H8F10943   4.682   0.318   5.076 -0.2136 -0.5462 -0.9636
  107OSM    H8G10944   4.652   0.145   5.137 -0.6545  0.1997 -0.9310
  107OSM    C9F10945   4.834   0.177   5.036 -0.7876 -0.0790  0.3057
  107OSM    H9F10946   4.898   0.104   5.087  2.8271  1.4459 -1.6286
  107OSM   C10F10947   4.871   0.227   4.912  0.1146 -0.3519  0.3239
  107OSM   H10F10948   4.957   0.170   4.875 -0.2427 -0.6522 -0.0590
  107OSM   C11F10949   4.799   0.335   4.822 -0.3555 -0.8416  0.2520
  107OSM   H11F10950   4.860   0.426   4.805  0.3504 -1.2486  0.5881
  107OSM   H11G10951   4.700   0.366   4.861  0.6873  1.5094  1.1966
  107OSM   C12F10952   4.757   0.279   4.686  0.2396 -0.2210  0.0532
  107OSM   H12F10953   4.668   0.328   4.640  0.4513  0.1760  0.0643
  107OSM   H12G10954   4.748   0.169   4.700 -0.5477  0.1424  3.4964
  107OSM   C13F10955   4.874   0.294   4.588 -0.2202 -0.2834  0.5032
  107OSM   H13F10956   4.979   0.281   4.622  0.7743  0.9350 -1.8679
  107OSM   H13G10957   4.859   0.398   4.551  0.3307  0.1508  1.4598
  107OSM   C14F10958   4.865   0.211   4.460  0.0230 -0.1182 -0.0041
  107OSM   H14F10959   4.778   0.248   4.402  0.7573  0.5885 -0.6646
  107OSM   H14G10960   4.850   0.105   4.491  1.3148 -0.8173 -1.6520
  107OSM   C15F10961   4.989   0.223   4.366  0.1069  0.0583 -0.1947
  107OSM   H15F10962   4.971   0.154   4.281  0.5065 -0.3220  0.0210
  107OSM   H15G10963   5.083   0.193   4.420 -0.8614  1.3244  2.3632
  107OSM   C16F10964   5.004   0.368   4.306 -0.2142 -0.1453 -0.7418
  107OSM   H16F10965   5.014   0.432   4.396 -2.3684 -0.9646  0.1641
  107OSM   H16G10966   4.909   0.391   4.253  0.7438 -1.6852 -3.3307
  107OSM   C17F10967   5.122   0.388   4.210 -0.2081 -0.4652  0.0280
  107OSM   H17F10968   5.118   0.312   4.129 -0.3171 -1.6146  1.0879
  107OSM   H17G10969   5.205   0.371   4.282 -0.5410  1.4018  0.9057
  107OSM   C18F10970   5.129   0.535   4.157 -0.0333  0.2484 -0.3751
  107OSM   H18F10971   5.184   0.533   4.061  2.9159  0.3762  1.1974
  107OSM   H18G10972   5.199   0.588   4.225  0.4512 -3.6270  2.5065
  107OSM   H18H10973   5.028   0.581   4.146 -0.7824 -1.0882  0.6633
  108OSM      N10974   6.028   6.388   6.504 -0.7142  0.2821  0.7505
  108OSM    C1510975   5.968   6.252   6.474 -0.5105  0.5282  0.6812
  108OSM   H15A10976   5.919   6.210   6.560 -1.1842 -1.7487 -0.7179
  108OSM   H15B10977   6.032   6.170   6.444 -1.2967  0.6402 -1.5060
  108OSM   H15C10978   5.897   6.259   6.393  0.8432 -1.0639 -0.7365
  108OSM    C1410979   5.913   6.479   6.524 -0.8228  0.0585 -0.0958
  108OSM   H14A10980   5.855   6.446   6.609  0.8838 -2.9041  0.0472
  108OSM   H14B10981   5.852   6.480   6.435  2.0051 -0.0347 -2.1614
  108OSM   H14C10982   5.950   6.578   6.545 -1.3485  0.2953 -0.2506
  108OSM    C1310983   6.110   6.374   6.634  0.2002  0.1538  0.3253
  108OSM   H13A10984   6.045   6.346   6.716 -1.3417 -0.2091 -0.9692
  108OSM   H13B10985   6.161   6.468   6.650  1.8843 -0.4773 -1.0186
  108OSM   H13C10986   6.184   6.296   6.620 -0.6621 -0.3393 -2.0202
  108OSM    C1210987   6.121   6.441   6.395  0.4853 -0.1164  0.2616
  108OSM   H12A10988   6.172   6.530   6.428 -1.5526  1.0703  0.3538
  108OSM   H12B10989   6.075   6.472   6.303 -0.0576  1.3902  1.0068
  108OSM    C1110990   6.230   6.343   6.338  0.1053 -0.3666 -0.0454
  108OSM   H11A10991   6.271   6.390   6.247 -2.9065 -2.1121 -2.5223
  108OSM   H11B10992   6.177   6.253   6.298 -1.1549  0.1571  0.3802
  108OSM      P10993   6.455   6.396   6.460  0.1975  0.1195  0.0951
  108OSM    O1310994   6.409   6.531   6.498 -0.1872 -0.1126 -0.0948
  108OSM    O1410995   6.545   6.327   6.552  0.1540  0.9032 -0.6665
  108OSM    O1110996   6.517   6.399   6.311 -0.7057 -0.1653  0.3332
  108OSM    O1210997   6.329   6.302   6.441 -0.3481 -0.4437  0.9005
  108OSM    C1S10998   6.579   6.268   6.270 -0.6223 -1.1107  0.1610
  108OSM    H1S10999   6.502   6.189   6.259 -1.7639  0.1958 -1.6598
  108OSM    H1T11000   6.637   6.224   6.354  0.6900  0.6510  0.2447
  108OSM     NF11001   6.710   6.154   6.088  0.2059  0.5134 -0.1076
  108OSM    HNF11002   6.805   6.127   6.096  0.6104  1.6287 -0.8931
  108OSM    C2S11003   6.668   6.282   6.137  0.5921 -0.2504 -0.0515
  108OSM    H2S11004   6.613   6.319   6.048  1.1151 -2.1662 -1.2098
  108OSM    C3S11005   6.775   6.390   6.157  0.0531 -0.6563  0.6634
  108OSM    H3S11006   6.836   6.359   6.244  1.7426  1.3782  0.2740
  108OSM     O311007   6.727   6.521   6.193  0.4733  0.3374  0.0985
  108OSM    HO311008   6.636   6.509   6.221  0.7272 -0.0590  0.7632
  108OSM    C4S11009   6.864   6.400   6.031  0.5797  0.4178 -0.1633
  108OSM    H4S11010   6.933   6.321   5.998 -0.7324 -0.2448 -1.4495
  108OSM    C5S11011   6.840   6.494   5.934  0.1524 -0.5579  0.2269
  108OSM    H5S11012   6.753   6.562   5.939  0.2298 -0.3849 -0.6028
  108OSM    C6S11013   6.918   6.494   5.809  0.3907 -0.1341  0.0936
  108OSM    H6S11014   6.860   6.488   5.714  1.2501 -1.1339 -0.3880
  108OSM    H6T11015   6.983   6.405   5.798 -1.2339 -1.0764 -3.0952
  108OSM    C7S11016   7.006   6.620   5.801  0.5765 -0.9125  0.0979
  108OSM    H7S11017   7.088   6.609   5.875  0.0434 -0.2652  0.7943
  108OSM    H7T11018   6.943   6.707   5.828  1.4134  0.1144 -1.1592
  108OSM    C8S11019   7.059   6.652   5.660 -0.3978  0.6209  0.0298
  108OSM    H8S11020   7.116   6.748   5.660  3.2386 -1.3573  1.0246
  108OSM    H8T11021   6.971   6.675   5.596  0.2546  0.9898 -0.7565
  108OSM    C9S11022   7.153   6.553   5.594 -0.7724 -0.2993  0.2182
  108OSM    H9S11023   7.109   6.451   5.598 -1.4371 -0.0213  0.0929
  108OSM    H9T11024   7.246   6.548   5.654  0.3105  1.9606 -1.1576
  108OSM   C10S11025   7.187   6.576   5.450  1.1766 -0.5981 -0.7436
  108OSM   H10S11026   7.220   6.680   5.431 -0.4583  0.0768 -0.0027
  108OSM   H10T11027   7.097   6.570   5.385  2.8845  0.5060 -3.3975
  108OSM   C11S11028   7.294   6.475   5.408  0.0975 -0.6192 -0.0590
  108OSM   H11S11029   7.258   6.372   5.429 -1.9438 -0.3973 -2.1537
  108OSM   H11T11030   7.387   6.491   5.467  0.5482 -0.2078 -0.8755
  108OSM   C12S11031   7.317   6.478   5.252  0.5571  0.2230 -0.2290
  108OSM   H12S11032   7.305   6.585   5.224  0.9115  0.7798  1.5747
  108OSM   H12T11033   7.246   6.409   5.203 -0.3588  1.9538 -1.4485
  108OSM   C13S11034   7.454   6.434   5.210 -0.7598 -1.0407  0.5068
  108OSM   H13S11035   7.458   6.324   5.224  0.6317 -0.8438  2.1258
  108OSM   H13T11036   7.536   6.483   5.267 -0.3949 -0.7439 -0.2555
  108OSM   C14S11037   7.481   6.483   5.071  0.3185  0.5868  0.4636
  108OSM   H14S11038   7.519   6.588   5.071 -0.3951  0.8535  1.0063
  108OSM   H14T11039   7.396   6.476   5.000 -0.6051 -0.0955  1.5993
  108OSM   C15S11040   7.580   6.388   5.000  0.3419  0.4698  0.2001
  108OSM   H15S11041   7.533   6.287   5.004  0.3631  0.4700  0.4258
  108OSM   H15T11042   7.681   6.385   5.047 -0.0837 -2.5733  1.1252
  108OSM   C16S11043   7.604   6.419   4.848  0.2060  0.3132 -0.4273
  108OSM   H16S11044   7.678   6.502   4.848  1.6113 -0.7864  2.6383
  108OSM   H16T11045   7.512   6.443   4.790 -0.0977  2.3160  0.7716
  108OSM   C17S11046   7.691   6.310   4.785 -0.1849  0.7581 -0.0803
  108OSM   H17S11047   7.627   6.219   4.778 -1.4943  1.6373  0.0438
  108OSM   H17T11048   7.783   6.279   4.840 -0.8610 -0.2062  0.5499
  108OSM   C18S11049   7.732   6.345   4.642  0.5659  0.2600  0.3554
  108OSM   H18S11050   7.768   6.256   4.587  1.0221  1.7062 -1.7881
  108OSM   H18T11051   7.810   6.425   4.645  0.5405  0.3199 -0.5114
  108OSM   H18U11052   7.643   6.391   4.593 -0.3072 -1.8370 -0.1231
  108OSM    C1F11053   6.622   6.060   6.061  0.3401  0.4453 -0.0181
  108OSM     OF11054   6.513   6.091   6.020  0.8720 -0.1955 -0.0285
  108OSM    C2F11055   6.663   5.921   6.084 -0.6302 -0.2839 -0.3953
  108OSM    H2F11056   6.637   5.892   6.188 -1.7940 -0.4893 -0.7271
  108OSM    H2G11057   6.773   5.919   6.071 -0.7535 -0.3947 -1.5176
  108OSM    C3F11058   6.613   5.815   5.977 -0.2669  0.8849 -0.2520
  108OSM    H3F11059   6.505   5.801   5.998  0.0662  0.5298  1.3519
  108OSM    H3G11060   6.655   5.714   5.992 -0.4025  0.8226 -0.2892
  108OSM    C4F11061   6.630   5.864   5.829 -0.1314  0.7894 -1.0243
  108OSM    H4F11062   6.559   5.949   5.819  0.1455  0.9694 -1.5444
  108OSM    H4G11063   6.586   5.791   5.757 -1.9990 -0.2269  1.0532
  108OSM    C5F11064   6.769   5.913   5.783 -0.4747  0.0319 -0.2533
  108OSM    H5F11065   6.851   5.840   5.800  0.2668  1.0157  0.4677
  108OSM    H5G11066   6.799   6.002   5.842 -0.1691  0.4363 -0.9953
  108OSM    C6F11067   6.775   5.944   5.628  0.4883  0.2132 -0.0178
  108OSM    H6F11068   6.726   6.042   5.610 -2.0564 -0.8667  0.5963
  108OSM    H6G11069   6.711   5.874   5.570  2.3090 -1.2832 -0.2982
  108OSM    C7F11070   6.921   5.951   5.572 -0.3764 -0.1828  0.2282
  108OSM    H7F11071   6.970   5.852   5.574  1.4503  0.6376 -0.7257
  108OSM    H7G11072   6.986   6.009   5.641 -0.4887  0.5552 -0.2670
  108OSM    C8F11073   6.930   6.014   5.439  0.4581 -0.2885 -0.3461
  108OSM    H8F11074   6.871   6.108   5.437  2.1023  0.7767 -2.3606
  108OSM    H8G11075   6.887   5.942   5.367 -0.6486  1.1719 -1.1864
  108OSM    C9F11076   7.075   6.048   5.407  0.5108  0.1583 -0.9978
  108OSM    H9F11077   7.125   6.111   5.483  1.2774 -0.5970 -0.8554
  108OSM   C10F11078   7.143   6.006   5.299  0.0011 -0.2996  0.2023
  108OSM   H10F11079   7.244   6.045   5.287 -0.9740  2.2113 -0.4250
  108OSM   C11F11080   7.095   5.917   5.181 -0.2851  0.1913  0.0611
  108OSM   H11F11081   6.990   5.887   5.199 -0.6591  0.5667 -1.3521
  108OSM   H11G11082   7.148   5.819   5.174 -0.5651  0.1525 -3.8174
  108OSM   C12F11083   7.114   5.987   5.043 -0.5453  0.2893 -0.6757
  108OSM   H12F11084   7.036   6.067   5.040 -0.9577 -0.0665  0.2863
  108OSM   H12G11085   7.089   5.931   4.950 -1.6721 -1.1007  0.4225
  108OSM   C13F11086   7.258   6.042   5.017  0.8039 -0.0973 -0.2048
  108OSM   H13F11087   7.329   5.957   5.023 -0.1295 -0.8612  0.4939
  108OSM   H13G11088   7.288   6.126   5.083  1.3482  0.7614 -1.5244
  108OSM   C14F11089   7.279   6.079   4.864 -0.2530 -0.4383  0.3067
  108OSM   H14F11090   7.375   6.134   4.853 -0.6882 -0.1622 -3.0003
  108OSM   H14G11091   7.201   6.147   4.826 -0.8660 -1.7470 -0.8689
  108OSM   C15F11092   7.295   5.962   4.762 -0.3996  0.3361  0.0510
  108OSM   H15F11093   7.209   5.893   4.778  1.2049 -1.7940 -0.0384
  108OSM   H15G11094   7.385   5.899   4.778 -2.2018 -2.3743  0.1690
  108OSM   C16F11095   7.308   6.014   4.615  0.1938  0.6413 -0.2249
  108OSM   H16F11096   7.326   5.930   4.546  0.6640 -0.0518  0.7190
  108OSM   H16G11097   7.401   6.073   4.602  0.9274 -0.9513 -2.7251
  108OSM   C17F11098   7.183   6.089   4.562  0.4242 -0.2572 -0.2232
  108OSM   H17F11099   7.152   6.174   4.626 -1.0563 -1.5209  0.8453
  108OSM   H17G11100   7.096   6.019   4.570  0.1927  0.0799  0.3058
  108OSM   C18F11101   7.224   6.138   4.426  0.1259 -0.2407 -0.6359
  108OSM   H18F11102   7.309   6.206   4.447 -0.6711  0.4774  0.3745
  108OSM   H18G11103   7.145   6.194   4.371  0.2075 -0.4533 -0.9721
  108OSM   H18H11104   7.271   6.061   4.361  2.6530  0.4950  0.2333
  109OSM      N11105   3.761   5.341   6.751 -0.5361  0.4251  0.1453
  109OSM    C1511106   3.885   5.425   6.726  0.1470  0.7705 -0.2381
  109OSM   H15A11107   3.914   5.477   6.816 -2.6549 -0.2994  1.4149
  109OSM   H15B11108   3.879   5.494   6.642  2.2347  0.9989 -0.2673
  109OSM   H15C11109   3.964   5.356   6.701 -0.0787  0.9890 -1.6355
  109OSM    C1411110   3.800   5.255   6.872  0.0177 -0.5188  0.1837
  109OSM   H14A11111   3.890   5.197   6.861  0.2797  0.0469 -0.7309
  109OSM   H14B11112   3.713   5.195   6.893  1.2269 -1.3069  3.4137
  109OSM   H14C11113   3.822   5.310   6.962  1.4790 -0.6162 -0.0859
  109OSM    C1311114   3.651   5.436   6.776  0.0345  0.1528 -0.2801
  109OSM   H13A11115   3.661   5.491   6.869  0.6675  0.4388 -0.5123
  109OSM   H13B11116   3.564   5.375   6.797 -0.0255 -1.0178 -3.3761
  109OSM   H13C11117   3.637   5.506   6.696 -1.7320  0.1138 -0.0442
  109OSM    C1211118   3.738   5.251   6.633  0.3527  0.4301 -0.0772
  109OSM   H12A11119   3.823   5.189   6.610  0.0472  0.1683 -0.5004
  109OSM   H12B11120   3.722   5.312   6.546 -0.8124 -0.8341 -0.7773
  109OSM    C1111121   3.616   5.158   6.643 -0.3960  0.4972 -0.4296
  109OSM   H11A11122   3.595   5.100   6.551 -0.4624  0.4768 -0.4014
  109OSM   H11B11123   3.528   5.224   6.661  0.0989  1.4186 -1.2790
  109OSM      P11124   3.698   4.932   6.744  0.0056 -0.1800 -0.1413
  109OSM    O1311125   3.791   4.918   6.862 -0.1012 -0.0775 -0.3264
  109OSM    O1411126   3.592   4.830   6.716 -1.3465  0.4985  1.2193
  109OSM    O1111127   3.800   4.958   6.619  0.5140 -0.2696  0.1189
  109OSM    O1211128   3.626   5.067   6.751  0.0743  0.0198  0.1112
  109OSM    C1S11129   3.877   4.855   6.566 -0.0698 -0.1176 -0.3800
  109OSM    H1S11130   3.830   4.757   6.588 -1.0667 -0.3464 -3.1515
  109OSM    H1T11131   3.982   4.861   6.604 -1.5690 -0.6597  4.5015
  109OSM     NF11132   3.991   4.758   6.379 -0.0543  0.2626  0.0934
  109OSM    HNF11133   4.086   4.784   6.368  0.6820 -2.2764 -0.2109
  109OSM    C2S11134   3.889   4.858   6.413  0.0754  0.0135  0.2453
  109OSM    H2S11135   3.792   4.833   6.364  0.2731  0.3297 -0.3218
  109OSM    C3S11136   3.940   5.002   6.372 -0.0932 -0.1023 -0.1166
  109OSM    H3S11137   4.034   5.023   6.427  0.4536  0.3502 -1.2096
  109OSM     O311138   3.858   5.111   6.398  0.3094 -0.2897 -0.1703
  109OSM    HO311139   3.787   5.079   6.454 -0.1658 -1.1214 -1.2267
  109OSM    C4S11140   3.974   5.013   6.222  0.2668 -0.4508 -0.9257
  109OSM    H4S11141   3.896   4.963   6.164  0.8704 -1.5160 -0.8522
  109OSM    C5S11142   4.071   5.079   6.161 -0.4383  0.0135  0.0432
  109OSM    H5S11143   4.146   5.134   6.220  0.4427  0.3159 -1.3297
  109OSM    C6S11144   4.084   5.086   6.015 -0.1107 -0.0678  0.1552
  109OSM    H6S11145   4.190   5.067   5.986 -0.6641 -2.4178 -0.4843
  109OSM    H6T11146   4.055   5.188   5.982 -1.2024  0.1395  1.6269
  109OSM    C7S11147   3.992   4.994   5.932 -0.5549 -0.2440 -0.2713
  109OSM    H7S11148   3.887   5.012   5.964 -0.2123  1.5899 -0.0430
  109OSM    H7T11149   4.025   4.889   5.950  0.2953 -0.0401 -0.5887
  109OSM    C8S11150   3.988   5.031   5.783  0.2446  0.3746 -0.1951
  109OSM    H8S11151   4.089   5.040   5.738 -0.7924 -0.7601 -3.0385
  109OSM    H8T11152   3.935   5.125   5.757 -0.6104  0.0524  0.3196
  109OSM    C9S11153   3.920   4.912   5.710 -0.3146 -0.4464 -0.0976
  109OSM    H9S11154   3.828   4.892   5.768 -0.8910 -1.3464 -1.2876
  109OSM    H9T11155   3.990   4.826   5.708 -0.3748 -0.6161  2.1515
  109OSM   C10S11156   3.891   4.942   5.560 -0.1244  0.6721  0.0030
  109OSM   H10S11157   3.825   5.030   5.547 -2.2063 -0.7586  0.5271
  109OSM   H10T11158   3.838   4.858   5.511  3.3532 -1.1274 -1.0328
  109OSM   C11S11159   4.030   4.949   5.492 -0.8044  0.0055  0.4175
  109OSM   H11S11160   4.086   4.859   5.524  0.8525  0.6589 -0.5328
  109OSM   H11T11161   4.077   5.044   5.525  0.2107  0.0931 -1.1932
  109OSM   C12S11162   4.022   4.935   5.342  0.0739 -0.1284 -0.9562
  109OSM   H12S11163   3.966   5.023   5.305 -0.8894  0.2949  1.3432
  109OSM   H12T11164   3.959   4.849   5.308  1.2135 -0.4603 -2.3139
  109OSM   C13S11165   4.167   4.937   5.278  0.2799  0.2194  0.1716
  109OSM   H13S11166   4.225   4.843   5.289  0.3691 -0.3632 -3.7256
  109OSM   H13T11167   4.222   5.009   5.342 -1.0150 -0.0336  1.6405
  109OSM   C14S11168   4.158   4.982   5.129  0.2747 -0.2561 -0.2205
  109OSM   H14S11169   4.254   4.947   5.086 -0.8045 -3.5506 -0.1953
  109OSM   H14T11170   4.152   5.093   5.120  0.7411 -0.0757  1.3237
  109OSM   C15S11171   4.056   4.907   5.050 -0.2974 -0.0570 -0.4097
  109OSM   H15S11172   4.053   4.966   4.956 -1.7722  0.8157  0.1605
  109OSM   H15T11173   3.953   4.908   5.089 -0.1931  0.0755 -0.1369
  109OSM   C16S11174   4.101   4.765   5.009  0.1982  0.3107 -0.4423
  109OSM   H16S11175   4.154   4.723   5.098 -1.1315 -0.3210  0.0724
  109OSM   H16T11176   4.172   4.766   4.924  1.4287 -1.0533  0.5288
  109OSM   C17S11177   3.982   4.686   4.967 -0.4020  0.2185  0.2655
  109OSM   H17S11178   3.924   4.747   4.895  0.8712 -0.2142 -1.1988
  109OSM   H17T11179   3.925   4.662   5.059 -0.6939  1.1963  0.3479
  109OSM   C18S11180   4.018   4.557   4.888  0.6637 -0.4508 -0.1708
  109OSM   H18S11181   3.926   4.513   4.843  0.5960  2.1204 -2.7802
  109OSM   H18T11182   4.063   4.480   4.954 -1.0170 -0.5338  0.9555
  109OSM   H18U11183   4.084   4.591   4.806 -1.6971 -0.3118 -2.1472
  109OSM    C1F11184   3.966   4.622   6.381  0.1792 -0.2638 -0.7384
  109OSM     OF11185   3.859   4.584   6.433 -0.6110 -0.4443  0.4253
  109OSM    C2F11186   4.085   4.536   6.329  1.0176  0.5721  0.5152
  109OSM    H2F11187   4.170   4.545   6.399 -0.4053  1.4181  2.2187
  109OSM    H2G11188   4.130   4.575   6.235  0.6432  0.1476  0.1578
  109OSM    C3F11189   4.068   4.382   6.329  0.0204  0.3011 -0.2982
  109OSM    H3F11190   4.023   4.351   6.233  0.3932  1.5356 -0.8884
  109OSM    H3G11191   4.001   4.351   6.412 -0.3694 -0.6170 -0.9388
  109OSM    C4F11192   4.204   4.303   6.335 -0.1225 -0.5642  0.5114
  109OSM    H4F11193   4.189   4.193   6.325 -1.2756 -0.2307 -2.5429
  109OSM    H4G11194   4.252   4.329   6.432 -1.1509 -2.3112  1.5525
  109OSM    C5F11195   4.306   4.333   6.220 -0.0529 -0.5731  0.7649
  109OSM    H5F11196   4.407   4.314   6.260  1.0236  1.1707 -0.9732
  109OSM    H5G11197   4.308   4.439   6.189 -0.7258 -0.1868  1.9933
  109OSM    C6F11198   4.261   4.244   6.101 -0.3680  0.1958  0.5652
  109OSM    H6F11199   4.159   4.282   6.078  0.3144  1.4055 -0.6059
  109OSM    H6G11200   4.264   4.135   6.123  2.1619 -0.4099 -2.1370
  109OSM    C7F11201   4.336   4.265   5.962  0.3207 -0.8618 -0.0557
  109OSM    H7F11202   4.445   4.253   5.982  0.4566  1.9494  1.4032
  109OSM    H7G11203   4.328   4.369   5.923  0.8240  0.2682  2.6450
  109OSM    C8F11204   4.310   4.158   5.852 -0.2574 -0.1190 -0.6211
  109OSM    H8F11205   4.208   4.194   5.824 -0.0109  0.5014 -0.7534
  109OSM    H8G11206   4.296   4.056   5.893  0.3307  1.1534  3.1042
  109OSM    C9F11207   4.404   4.159   5.741 -0.2399  0.5675 -0.6495
  109OSM    H9F11208   4.489   4.092   5.759 -1.6085 -1.0207  0.2024
  109OSM   C10F11209   4.389   4.221   5.622 -0.2511 -0.4365  0.4263
  109OSM   H10F11210   4.472   4.214   5.550 -1.9566 -1.5319 -1.5847
  109OSM   C11F11211   4.272   4.308   5.586  0.7985 -0.1170  0.5828
  109OSM   H11F11212   4.298   4.416   5.586 -1.7737  0.5486  0.8482
  109OSM   H11G11213   4.188   4.287   5.655 -0.5885  0.7589 -0.7763
  109OSM   C12F11214   4.197   4.273   5.449  0.7324  0.1208 -0.6069
  109OSM   H12F11215   4.114   4.345   5.430 -0.5478 -0.8693  1.0429
  109OSM   H12G11216   4.151   4.172   5.449 -0.9325  0.8358 -1.5614
  109OSM   C13F11217   4.296   4.264   5.335  0.1848 -0.6089 -0.1226
  109OSM   H13F11218   4.242   4.217   5.250 -1.1252 -1.3303  1.0660
  109OSM   H13G11219   4.382   4.198   5.360 -1.7273 -2.3442  2.3345
  109OSM   C14F11220   4.344   4.405   5.296  0.2912 -0.6559 -0.2566
  109OSM   H14F11221   4.386   4.453   5.388  0.9602  1.1022 -1.4352
  109OSM   H14G11222   4.250   4.460   5.271  0.2077 -0.1153  1.1398
  109OSM   C15F11223   4.436   4.412   5.178 -0.2455  0.0517 -0.1591
  109OSM   H15F11224   4.535   4.400   5.226 -0.1273 -1.0895 -0.6495
  109OSM   H15G11225   4.414   4.509   5.128  0.9785 -0.0227 -0.8664
  109OSM   C16F11226   4.432   4.301   5.066  0.0826 -0.3351 -0.1662
  109OSM   H16F11227   4.325   4.280   5.048  0.2468 -0.7195 -0.7167
  109OSM   H16G11228   4.476   4.212   5.116  2.4425  2.1862  2.6832
  109OSM   C17F11229   4.502   4.334   4.932 -0.1815 -0.4452  0.5730
  109OSM   H17F11230   4.609   4.317   4.959 -0.1173  2.6037  2.7509
  109OSM   H17G11231   4.488   4.442   4.906  0.9881 -0.4861 -0.3071
  109OSM   C18F11232   4.470   4.253   4.808 -0.1504  0.6182 -0.0748
  109OSM   H18F11233   4.518   4.302   4.720  2.5034 -0.5907  0.5984
  109OSM   H18G11234   4.360   4.254   4.796 -0.1031 -0.6524 -0.7562
  109OSM   H18H11235   4.498   4.147   4.826 -1.0665  0.3394 -0.2752
  110OSM      N11236   5.530   0.082   6.728  0.5137 -0.3803  0.4457
  110OSM    C1511237   5.491  -0.054   6.664  0.2552 -0.6064 -0.3258
  110OSM   H15A11238   5.433  -0.028   6.576 -1.2268 -1.1235  0.4577
  110OSM   H15B11239   5.415  -0.104   6.723 -0.9203  0.3162 -0.9951
  110OSM   H15C11240   5.571  -0.119   6.631  1.0228  0.6353 -0.9975
  110OSM    C1411241   5.408   0.149   6.773  0.3942 -0.4801 -0.6442
  110OSM   H14A11242   5.420   0.243   6.824 -2.0097  0.6481 -1.9992
  110OSM   H14B11243   5.354   0.083   6.840  0.7305 -0.3166 -0.2053
  110OSM   H14C11244   5.342   0.178   6.693  0.1611 -0.0889 -0.3138
  110OSM    C1311245   5.616   0.052   6.854  0.0536 -0.3203  0.0839
  110OSM   H13A11246   5.626   0.148   6.904 -1.8887  2.2271 -3.8418
  110OSM   H13B11247   5.704   0.001   6.818  0.3798  0.3257 -0.0459
  110OSM   H13C11248   5.560  -0.018   6.913 -0.0817  0.3839  0.8168
  110OSM    C1211249   5.606   0.170   6.630 -0.4110 -0.2285 -0.1774
  110OSM   H12A11250   5.701   0.119   6.617 -0.3108 -0.9637  2.7620
  110OSM   H12B11251   5.630   0.263   6.680 -0.8016 -0.0663 -0.2945
  110OSM    C1111252   5.546   0.202   6.491 -0.1824 -0.1956 -0.0565
  110OSM   H11A11253   5.537   0.114   6.423  0.5484 -0.8846  0.7021
  110OSM   H11B11254   5.613   0.271   6.436 -3.1200  1.9162 -1.2355
  110OSM      P11255   5.286   0.220   6.449  0.3025 -0.5649 -0.3741
  110OSM    O1311256   5.274   0.083   6.505 -0.0958 -0.0382 -0.2271
  110OSM    O1411257   5.183   0.322   6.486  0.2890 -0.8045 -0.1876
  110OSM    O1111258   5.301   0.204   6.293  0.2812 -0.0490 -0.2224
  110OSM    O1211259   5.427   0.272   6.496 -0.0406 -0.5465 -0.7611
  110OSM    C1S11260   5.393   0.280   6.215  0.0062  0.2659  0.0986
  110OSM    H1S11261   5.495   0.237   6.224  0.2122  0.7269 -0.0025
  110OSM    H1T11262   5.408   0.385   6.249 -0.9065  0.4234  0.0582
  110OSM     NF11263   5.456   0.328   5.983 -0.0849 -0.2951  0.5760
  110OSM    HNF11264   5.451   0.428   5.977 -1.0162 -0.3640 -0.0381
  110OSM    C2S11265   5.354   0.272   6.067  0.0621  0.3462 -0.0088
  110OSM    H2S11266   5.337   0.172   6.021 -1.1746  0.7970 -0.5944
  110OSM    C3S11267   5.219   0.350   6.046  0.4429  0.3154  0.5367
  110OSM    H3S11268   5.214   0.450   6.094 -0.5444 -1.1231  3.7949
  110OSM     O311269   5.116   0.281   6.124 -0.1332 -0.5672  0.6356
  110OSM    HO311270   5.162   0.215   6.177  0.1858 -1.4406 -0.7003
  110OSM    C4S11271   5.173   0.367   5.889 -0.0299  0.0084 -0.2686
  110OSM    H4S11272   5.246   0.435   5.842  0.4686  0.3606  0.9599
  110OSM    C5S11273   5.073   0.304   5.824  0.5820 -0.2526 -0.2319
  110OSM    H5S11274   5.014   0.232   5.884  1.2539 -2.2766 -1.8646
  110OSM    C6S11275   5.049   0.323   5.680  0.2630 -0.1473  1.0231
  110OSM    H6S11276   5.001   0.422   5.660  0.6894  0.1313  1.3564
  110OSM    H6T11277   4.985   0.241   5.642  1.2094  0.9550 -3.5718
  110OSM    C7S11278   5.183   0.318   5.582  0.5988 -0.1441  0.0692
  110OSM    H7S11279   5.246   0.236   5.621 -0.9155 -1.5150 -0.2337
  110OSM    H7T11280   5.245   0.409   5.588  2.2711 -1.1624 -0.9387
  110OSM    C8S11281   5.139   0.306   5.436 -0.6044  0.0060 -0.2043
  110OSM    H8S11282   5.085   0.397   5.400 -2.7062 -0.8892  0.5511
  110OSM    H8T11283   5.076   0.215   5.423 -0.2038 -0.4275  0.8213
  110OSM    C9S11284   5.262   0.293   5.340 -0.1681  0.7280  0.4592
  110OSM    H9S11285   5.316   0.204   5.378  0.9235  1.2101  0.0841
  110OSM    H9T11286   5.313   0.391   5.348 -2.6013  2.1081  0.2350
  110OSM   C10S11287   5.217   0.266   5.192 -0.6992 -0.6235  0.5768
  110OSM   H10S11288   5.184   0.362   5.147  1.3933 -0.3093 -0.3843
  110OSM   H10T11289   5.129   0.200   5.202 -0.9397 -0.2976  0.6437
  110OSM   C11S11290   5.319   0.213   5.097 -0.1817 -0.1328  0.4405
  110OSM   H11S11291   5.370   0.123   5.140  1.3401  0.9172  0.9300
  110OSM   H11T11292   5.398   0.286   5.069 -0.6200  0.1943  0.0662
  110OSM   C12S11293   5.253   0.182   4.965 -0.3116 -0.1347 -0.0504
  110OSM   H12S11294   5.176   0.261   4.954  1.9160  1.8761 -2.9003
  110OSM   H12T11295   5.203   0.086   4.988 -0.8235  0.3392  0.8722
  110OSM   C13S11296   5.359   0.167   4.852 -0.6774 -0.6579 -0.0484
  110OSM   H13S11297   5.447   0.123   4.904  1.4297  3.3334  0.1767
  110OSM   H13T11298   5.398   0.267   4.824  1.9626 -1.5982 -0.0129
  110OSM   C14S11299   5.304   0.083   4.736  0.0436  0.0199  0.3256
  110OSM   H14S11300   5.216   0.140   4.700  1.0150  1.4320  0.0998
  110OSM   H14T11301   5.287  -0.015   4.785 -1.4097 -0.6096 -1.3237
  110OSM   C15S11302   5.417   0.070   4.631  0.2260  0.1058  0.1454
  110OSM   H15S11303   5.446   0.169   4.591  0.8640  0.3758  1.2298
  110OSM   H15T11304   5.387   0.009   4.543  0.9256  0.8555 -0.6250
  110OSM   C16S11305   5.546   0.007   4.686  0.4576  0.4613 -0.6446
  110OSM   H16S11306   5.528  -0.086   4.743  2.0476  0.0139 -0.8036
  110OSM   H16T11307   5.589   0.082   4.756 -1.2562  0.7931  0.1078
  110OSM   C17S11308   5.654  -0.014   4.574  0.1321 -0.8883  0.4013
  110OSM   H17S11309   5.669   0.084   4.524 -0.9463 -1.7331 -1.6895
  110OSM   H17T11310   5.616  -0.090   4.503  0.4750  0.0507 -0.8203
  110OSM   C18S11311   5.786  -0.050   4.647  0.1741  0.4781  0.3653
  110OSM   H18S11312   5.863  -0.067   4.570  1.1270 -0.3272  1.4593
  110OSM   H18T11313   5.776  -0.135   4.719 -1.9287 -1.3142 -1.8481
  110OSM   H18U11314   5.815   0.038   4.708 -2.3295  1.3949  0.3727
  110OSM    C1F11315   5.558   0.258   5.945  0.7813 -0.1767  0.5838
  110OSM     OF11316   5.551   0.135   5.956  0.5489  0.1210  0.0527
  110OSM    C2F11317   5.679   0.330   5.884  0.0294  0.2834 -0.3212
  110OSM    H2F11318   5.767   0.271   5.916  0.1063  1.3056  1.4560
  110OSM    H2G11319   5.683   0.434   5.921  0.0531  0.0862  0.2399
  110OSM    C3F11320   5.677   0.324   5.730  0.3129  1.1554  0.2357
  110OSM    H3F11321   5.639   0.225   5.697 -2.9372  1.9756  1.1276
  110OSM    H3G11322   5.776   0.323   5.679  0.6108  0.5999  0.8109
  110OSM    C4F11323   5.567   0.422   5.663 -0.4290 -0.1582  0.1975
  110OSM    H4F11324   5.606   0.526   5.672  0.3832 -0.5979  2.3197
  110OSM    H4G11325   5.473   0.425   5.722  0.3709  1.2781  1.4888
  110OSM    C5F11326   5.528   0.393   5.513  0.8257  0.2058 -0.5612
  110OSM    H5F11327   5.457   0.473   5.483  0.1981 -0.0966  0.0766
  110OSM    H5G11328   5.471   0.298   5.508  1.0561  0.1133 -1.5899
  110OSM    C6F11329   5.644   0.399   5.415  0.6685  0.0826  0.4023
  110OSM    H6F11330   5.718   0.330   5.460 -0.5303 -0.6251  1.3327
  110OSM    H6G11331   5.691   0.500   5.416  1.4900 -0.2914  0.3867
  110OSM    C7F11332   5.593   0.353   5.277  0.0719  0.3815 -0.0623
  110OSM    H7F11333   5.508   0.407   5.230 -1.1113 -0.8095  0.6238
  110OSM    H7G11334   5.546   0.255   5.299 -2.2158  1.4262 -0.0486
  110OSM    C8F11335   5.698   0.321   5.171  0.0979  0.2066 -0.1094
  110OSM    H8F11336   5.654   0.262   5.088 -1.7973 -0.6115  1.4145
  110OSM    H8G11337   5.783   0.269   5.219 -0.5866 -1.6070 -0.7953
  110OSM    C9F11338   5.752   0.450   5.128  0.2221 -0.3441 -0.0791
  110OSM    H9F11339   5.776   0.519   5.210 -1.9259  2.3442 -1.5671
  110OSM   C10F11340   5.752   0.489   5.002 -0.1734  0.1581  0.3696
  110OSM   H10F11341   5.792   0.590   4.986  0.2393  0.0676  0.7913
  110OSM   C11F11342   5.693   0.410   4.884  0.7573  0.3913  0.1479
  110OSM   H11F11343   5.591   0.376   4.912  1.0950 -0.0016  0.9294
  110OSM   H11G11344   5.769   0.332   4.858 -1.0912 -1.1534 -0.8593
  110OSM   C12F11345   5.669   0.481   4.750  0.1839  0.4300  0.8343
  110OSM   H12F11346   5.569   0.530   4.756 -0.7654 -1.1372 -0.9356
  110OSM   H12G11347   5.662   0.403   4.672  0.9446  1.1463  0.0246
  110OSM   C13F11348   5.782   0.581   4.700  0.2069 -0.4347  1.7431
  110OSM   H13F11349   5.879   0.530   4.718  0.4185 -1.4330 -1.5077
  110OSM   H13G11350   5.776   0.659   4.779 -1.9222  0.3997  0.8579
  110OSM   C14F11351   5.755   0.644   4.556  0.5843  1.1474 -0.0408
  110OSM   H14F11352   5.673   0.719   4.561 -1.0197 -0.4037 -1.3650
  110OSM   H14G11353   5.726   0.574   4.475 -1.7621  0.0864  1.5828
  110OSM   C15F11354   5.873   0.725   4.507 -0.0104  0.2697  0.2795
  110OSM   H15F11355   5.964   0.663   4.490 -0.3115 -0.0299 -0.2767
  110OSM   H15G11356   5.897   0.797   4.588  0.3564 -1.7779  2.0960
  110OSM   C16F11357   5.836   0.811   4.381  0.1638  0.5768  0.5832
  110OSM   H16F11358   5.742   0.866   4.402 -0.5989  0.9274 -3.1204
  110OSM   H16G11359   5.812   0.745   4.295 -0.4060 -0.7849  1.7605
  110OSM   C17F11360   5.955   0.906   4.340  0.2087  0.4594 -0.2786
  110OSM   H17F11361   6.049   0.848   4.352 -1.4054 -1.9764  1.5438
  110OSM   H17G11362   5.966   0.991   4.411  0.1449  0.1478  0.1095
  110OSM   C18F11363   5.934   0.957   4.197  0.2839 -0.4253 -0.1691
  110OSM   H18F11364   6.012   1.030   4.166  1.1554  0.2359  3.1938
  110OSM   H18G11365   5.835   1.007   4.197  0.9450  0.9705  1.0122
  110OSM   H18H11366   5.927   0.875   4.122  0.0880 -1.3707  0.8733
  111OSM      N11367   2.323   4.233   6.769  0.2291  0.2398  0.5038
  111OSM    C1511368   2.440   4.334   6.770 -0.0412 -0.3975  0.2213
  111OSM   H15A11369   2.534   4.282   6.781  0.3830  0.3701  0.3105
  111OSM   H15B11370   2.430   4.410   6.846 -1.1633  2.2609 -2.4016
  111OSM   H15C11371   2.458   4.392   6.681  0.3834  0.7134  1.0105
  111OSM    C1411372   2.328   4.167   6.906 -0.1282  0.7218 -0.0847
  111OSM   H14A11373   2.263   4.081   6.918 -0.4605  0.7885 -1.2772
  111OSM   H14B11374   2.291   4.233   6.983  1.4818  0.9804  0.5060
  111OSM   H14C11375   2.429   4.133   6.926  0.8276  2.6289 -1.4369
  111OSM    C1311376   2.205   4.309   6.762  0.5471 -0.2658 -0.1808
  111OSM   H13A11377   2.219   4.395   6.826  2.6990  0.2024 -1.1771
  111OSM   H13B11378   2.116   4.256   6.791  1.5603 -1.1373  1.5174
  111OSM   H13C11379   2.198   4.343   6.660 -0.5609  0.1562  0.0255
  111OSM    C1211380   2.326   4.130   6.657  0.2663  0.1221 -0.2026
  111OSM   H12A11381   2.240   4.065   6.657  0.1797  0.2324 -0.6126
  111OSM   H12B11382   2.407   4.059   6.664 -0.7116 -0.8588  2.0983
  111OSM    C1111383   2.326   4.188   6.513 -0.1271 -0.2836 -0.2684
  111OSM   H11A11384   2.382   4.115   6.451  0.1952 -2.0941  2.0227
  111OSM   H11B11385   2.390   4.278   6.527  0.4188 -0.2090 -2.7108
  111OSM      P11386   2.109   4.122   6.400 -0.1234  0.5478 -0.4241
  111OSM    O1311387   2.166   4.072   6.274 -0.0776 -0.0864  0.2927
  111OSM    O1411388   2.089   4.022   6.507  0.2427  0.1187 -0.2756
  111OSM    O1111389   1.979   4.208   6.380 -0.3784 -0.3399  0.6216
  111OSM    O1211390   2.207   4.230   6.455  0.0726 -0.5132 -0.4117
  111OSM    C1S11391   1.989   4.320   6.290  0.6276 -0.3870  0.4488
  111OSM    H1S11392   2.071   4.393   6.309 -1.2094  1.9726 -0.2605
  111OSM    H1T11393   1.895   4.377   6.306 -0.3002 -1.1234 -1.9823
  111OSM     NF11394   2.011   4.415   6.059 -0.2347  0.6985 -0.7181
  111OSM    HNF11395   1.932   4.470   6.031 -0.1708  1.6296  0.8210
  111OSM    C2S11396   1.982   4.290   6.132  0.1893 -0.0509  0.0867
  111OSM    H2S11397   2.062   4.213   6.121 -1.9552 -2.9478  2.7797
  111OSM    C3S11398   1.849   4.218   6.098 -0.2677 -1.0273  0.0762
  111OSM    H3S11399   1.763   4.286   6.113  0.0521 -0.7123  0.5362
  111OSM     O311400   1.821   4.100   6.175  0.4297  0.4986  0.1540
  111OSM    HO311401   1.878   4.108   6.252 -0.9159 -3.6995  1.8611
  111OSM    C4S11402   1.840   4.169   5.957 -0.2099  0.0766  0.0874
  111OSM    H4S11403   1.913   4.088   5.943 -0.2840  0.1890 -1.0745
  111OSM    C5S11404   1.775   4.209   5.845  0.7276  0.0932  0.4330
  111OSM    H5S11405   1.706   4.294   5.836  0.8172  0.1224  0.0319
  111OSM    C6S11406   1.785   4.137   5.714 -0.2931  0.6429  0.0076
  111OSM    H6S11407   1.686   4.110   5.674 -1.3702  0.9294  2.3327
  111OSM    H6T11408   1.850   4.048   5.728  0.3250  0.8923 -1.1295
  111OSM    C7S11409   1.859   4.216   5.603 -1.1209  0.7404  0.3634
  111OSM    H7S11410   1.949   4.251   5.657 -2.1190  1.8974  1.3629
  111OSM    H7T11411   1.800   4.307   5.579  1.5016  2.2499 -0.7648
  111OSM    C8S11412   1.879   4.136   5.471 -0.4756  0.9394  0.1642
  111OSM    H8S11413   1.782   4.089   5.446  0.4589  0.1497 -2.2367
  111OSM    H8T11414   1.962   4.062   5.481  2.2621  3.5980 -1.3061
  111OSM    C9S11415   1.917   4.236   5.356  0.4089  0.7463 -0.0641
  111OSM    H9S11416   1.958   4.327   5.406  5.5697 -1.6564  0.7103
  111OSM    H9T11417   1.827   4.262   5.296  0.3627 -1.3227 -0.9828
  111OSM   C10S11418   2.034   4.192   5.263  0.4824  0.0620  0.2148
  111OSM   H10S11419   2.133   4.192   5.312  1.1162  1.6090 -0.9907
  111OSM   H10T11420   2.039   4.271   5.186  0.6139  1.0177  1.1801
  111OSM   C11S11421   2.011   4.051   5.210  0.3824 -0.3994 -0.3462
  111OSM   H11S11422   1.900   4.045   5.201  0.1527 -0.8778  2.0637
  111OSM   H11T11423   2.049   3.975   5.281  1.2777  1.0753  0.8358
  111OSM   C12S11424   2.068   4.023   5.068 -0.0804 -0.2857  0.3082
  111OSM   H12S11425   2.070   3.915   5.039 -0.7064 -0.7101  1.7993
  111OSM   H12T11426   2.175   4.054   5.065 -0.8378  2.8803  2.0684
  111OSM   C13S11427   1.985   4.096   4.961  0.2709 -0.9394 -0.5846
  111OSM   H13S11428   1.986   4.204   4.984 -1.1868 -1.0183 -0.0493
  111OSM   H13T11429   1.879   4.064   4.966 -0.6143  1.4825 -2.1471
  111OSM   C14S11430   2.040   4.073   4.826  0.3911  0.1443 -0.3413
  111OSM   H14S11431   2.045   3.962   4.817 -0.1879  0.1380 -0.6355
  111OSM   H14T11432   2.150   4.085   4.836  0.5102 -1.4443  0.7415
  111OSM   C15S11433   1.967   4.144   4.717  0.0751 -0.4838 -0.5829
  111OSM   H15S11434   1.971   4.254   4.734 -0.2630 -0.4241 -0.8669
  111OSM   H15T11435   1.860   4.114   4.717  0.1447 -0.8682  1.7815
  111OSM   C16S11436   2.030   4.107   4.580 -0.1369 -0.3713 -0.0029
  111OSM   H16S11437   1.999   4.001   4.567 -0.5753 -0.0053 -2.3259
  111OSM   H16T11438   2.140   4.122   4.590 -0.0567 -0.5923 -0.5348
  111OSM   C17S11439   1.969   4.191   4.459 -0.1339 -0.3780  0.2533
  111OSM   H17S11440   1.984   4.294   4.497 -0.5183 -1.2043  2.8487
  111OSM   H17T11441   1.859   4.178   4.456 -0.2720  0.4859  1.0101
  111OSM   C18S11442   2.043   4.153   4.328  0.2042 -0.3256  0.5468
  111OSM   H18S11443   1.986   4.193   4.241 -0.0955 -1.3459  0.2629
  111OSM   H18T11444   2.038   4.044   4.307 -0.2795 -0.4788  1.4082
  111OSM   H18U11445   2.154   4.161   4.322  0.1262  2.1303  1.4906
  111OSM    C1F11446   2.128   4.472   6.059 -0.3883 -0.6780 -0.1795
  111OSM     OF11447   2.232   4.433   6.114 -0.6525 -0.7095 -0.6496
  111OSM    C2F11448   2.139   4.599   5.972 -0.6636  0.2792  0.7792
  111OSM    H2F11449   2.162   4.688   6.035 -0.6945  1.0066 -0.2166
  111OSM    H2G11450   2.042   4.622   5.924  0.4565  1.8159 -0.8637
  111OSM    C3F11451   2.246   4.589   5.866 -0.4323 -0.5127  0.3251
  111OSM    H3F11452   2.344   4.566   5.914  1.2228  4.1667 -0.3147
  111OSM    H3G11453   2.246   4.690   5.820 -1.4285 -0.2329  0.9108
  111OSM    C4F11454   2.211   4.500   5.743 -0.3770  0.5882 -0.8050
  111OSM    H4F11455   2.177   4.402   5.785 -0.0745  1.1740  0.9099
  111OSM    H4G11456   2.290   4.487   5.667 -0.9308  1.1540 -1.4844
  111OSM    C5F11457   2.101   4.552   5.653  0.1030  0.1227  0.6579
  111OSM    H5F11458   2.008   4.536   5.713  0.4206 -1.6214  0.7594
  111OSM    H5G11459   2.084   4.475   5.575 -0.5469 -1.6503  2.4458
  111OSM    C6F11460   2.114   4.688   5.591  0.4822 -0.0728  0.5764
  111OSM    H6F11461   2.216   4.716   5.557 -0.3174  0.6599 -1.3709
  111OSM    H6G11462   2.088   4.777   5.652  0.4024  1.5543 -1.6725
  111OSM    C7F11463   2.023   4.701   5.468  0.5373 -0.6523  0.1969
  111OSM    H7F11464   1.918   4.705   5.506  1.2802 -1.1098  2.4169
  111OSM    H7G11465   2.034   4.616   5.398  0.0537  0.5789 -1.4431
  111OSM    C8F11466   2.064   4.831   5.387 -0.2660  0.5730  0.4492
  111OSM    H8F11467   2.164   4.806   5.345 -0.6997 -2.5626  1.0549
  111OSM    H8G11468   2.091   4.911   5.459 -0.6739  0.5255  0.6564
  111OSM    C9F11469   1.954   4.892   5.301  0.0405 -0.6522  0.4956
  111OSM    H9F11470   1.860   4.915   5.353 -1.8273 -1.6024 -2.2257
  111OSM   C10F11471   1.953   4.909   5.160  0.2920  0.2219  0.4623
  111OSM   H10F11472   1.861   4.955   5.121  0.0844  0.4513  1.2062
  111OSM   C11F11473   2.057   4.857   5.068  0.4626 -0.2868  0.2135
  111OSM   H11F11474   2.148   4.820   5.119  2.5995  1.9269 -1.7145
  111OSM   H11G11475   2.096   4.945   5.012  1.3493 -1.2385 -0.7098
  111OSM   C12F11476   1.994   4.754   4.958  0.3415  0.0767  0.3112
  111OSM   H12F11477   1.900   4.793   4.913 -0.3699 -0.8286  0.9759
  111OSM   H12G11478   1.960   4.660   5.006 -1.9832  1.2928  1.2138
  111OSM   C13F11479   2.094   4.713   4.844 -0.4617  0.3842  0.7819
  111OSM   H13F11480   2.103   4.793   4.768  1.0881  1.9589  2.5244
  111OSM   H13G11481   2.036   4.630   4.798 -0.5002 -0.3572  2.1040
  111OSM   C14F11482   2.231   4.668   4.891 -0.0774  0.1977 -0.2800
  111OSM   H14F11483   2.272   4.742   4.963 -0.2602 -1.1620  1.2874
  111OSM   H14G11484   2.300   4.673   4.805 -0.4387  1.8641 -0.4994
  111OSM   C15F11485   2.220   4.532   4.967  0.0347 -0.0803 -0.5200
  111OSM   H15F11486   2.310   4.470   4.951 -0.4980 -1.1907  0.6664
  111OSM   H15G11487   2.133   4.473   4.932  0.4765 -1.3647  0.4797
  111OSM   C16F11488   2.211   4.545   5.121 -0.0835  0.2709 -0.9741
  111OSM   H16F11489   2.180   4.447   5.163 -1.6366  0.7464 -0.9704
  111OSM   H16G11490   2.131   4.618   5.142  1.3040  1.6309 -0.1999
  111OSM   C17F11491   2.344   4.583   5.197  1.3543 -0.3738 -0.4028
  111OSM   H17F11492   2.322   4.607   5.304 -2.7179 -1.8711 -0.7140
  111OSM   H17G11493   2.391   4.675   5.156 -0.2318  0.9637  0.6437
  111OSM   C18F11494   2.444   4.462   5.214  0.1905  0.2337 -0.1194
  111OSM   H18F11495   2.501   4.438   5.121 -0.2389 -2.0229  0.1385
  111OSM   H18G11496   2.384   4.378   5.254 -0.6307  1.5619  1.5363
  111OSM   H18H11497   2.510   4.491   5.299 -1.6331  1.4266  0.9670
  112OSM      N11498   2.474   3.254   6.475  0.5457 -0.9405 -0.0795
  112OSM    C1511499   2.458   3.133   6.391  0.1397  0.6698  0.8073
  112OSM   H15A11500   2.473   3.156   6.286  1.5461 -0.1341  0.8035
  112OSM   H15B11501   2.362   3.088   6.405  0.3003  0.6966  2.1022
  112OSM   H15C11502   2.532   3.057   6.411  0.8503  0.8503 -0.9576
  112OSM    C1411503   2.361   3.350   6.459 -0.2449  0.4319  0.1311
  112OSM   H14A11504   2.377   3.436   6.523  2.4667 -0.7261  1.1563
  112OSM   H14B11505   2.265   3.304   6.477  0.3349 -0.0969  2.1309
  112OSM   H14C11506   2.362   3.389   6.358  0.9809 -0.2357 -0.1375
  112OSM    C1311507   2.482   3.208   6.613  0.4231  0.1214 -0.2996
  112OSM   H13A11508   2.489   3.288   6.686 -1.5919  1.1688 -1.1840
  112OSM   H13B11509   2.561   3.135   6.613  0.4631  0.1493  0.6304
  112OSM   H13C11510   2.395   3.152   6.645 -0.0320  1.8640  1.7295
  112OSM    C1211511   2.602   3.322   6.437 -0.1560 -0.1067 -0.2377
  112OSM   H12A11512   2.612   3.400   6.512  1.1641 -0.2313 -0.2547
  112OSM   H12B11513   2.590   3.366   6.339 -1.9220  0.2627  0.1141
  112OSM    C1111514   2.738   3.234   6.435 -0.7620 -0.0728 -0.1534
  112OSM   H11A11515   2.809   3.307   6.389  0.3197 -1.7051 -1.1805
  112OSM   H11B11516   2.730   3.152   6.360  0.6823  0.7760 -1.3073
  112OSM      P11517   2.895   3.250   6.646 -0.0839  0.0331 -0.2787
  112OSM    O1311518   2.879   3.398   6.667  0.1418  0.1201  0.3194
  112OSM    O1411519   2.911   3.168   6.771 -0.6893  0.0091  0.1571
  112OSM    O1111520   3.017   3.227   6.547 -0.1293  0.4048 -0.4442
  112OSM    O1211521   2.781   3.183   6.561  0.7272 -0.0302 -0.3636
  112OSM    C1S11522   3.058   3.087   6.521 -0.2504  0.0701  0.4209
  112OSM    H1S11523   2.981   3.012   6.495  1.4978 -1.3850 -0.8025
  112OSM    H1T11524   3.107   3.051   6.614  2.0572 -1.6652 -1.3465
  112OSM     NF11525   3.173   2.944   6.353  0.2964  0.1599 -0.1059
  112OSM    HNF11526   3.220   2.878   6.411  1.1379  0.5432 -0.3302
  112OSM    C2S11527   3.172   3.083   6.406 -0.1073 -0.7784 -0.3248
  112OSM    H2S11528   3.136   3.152   6.327 -1.9595 -0.8218  0.4240
  112OSM    C3S11529   3.306   3.147   6.456 -0.2604 -0.0920 -0.2506
  112OSM    H3S11530   3.337   3.087   6.545 -0.0836 -1.2215 -1.0496
  112OSM     O311531   3.294   3.280   6.507 -0.3110  0.5968  0.4201
  112OSM    HO311532   3.201   3.303   6.505 -0.6601 -0.6860 -2.0789
  112OSM    C4S11533   3.413   3.126   6.349 -0.2528  0.1156 -0.0831
  112OSM    H4S11534   3.468   3.031   6.358  0.6098  0.6623  0.6107
  112OSM    C5S11535   3.443   3.212   6.249 -0.6335 -0.6946 -0.1201
  112OSM    H5S11536   3.389   3.308   6.244 -0.2020 -0.2602  2.2276
  112OSM    C6S11537   3.547   3.199   6.142 -0.5216 -0.1269  0.1330
  112OSM    H6S11538   3.615   3.287   6.146 -1.9438  0.9996  0.3299
  112OSM    H6T11539   3.498   3.230   6.047  1.7186  2.5771 -0.2736
  112OSM    C7S11540   3.620   3.065   6.130 -0.7349  0.5454 -0.5760
  112OSM    H7S11541   3.550   2.982   6.110  0.0601 -0.3806  0.3805
  112OSM    H7T11542   3.680   3.030   6.217 -1.4102 -1.0994 -0.7397
  112OSM    C8S11543   3.725   3.051   6.016  0.1892 -0.2537  0.2108
  112OSM    H8S11544   3.784   2.961   6.044  1.5282  0.2374 -0.9092
  112OSM    H8T11545   3.791   3.139   6.030  1.1925 -0.8290 -0.7020
  112OSM    C9S11546   3.675   3.056   5.875 -0.0440  0.0698 -0.1578
  112OSM    H9S11547   3.610   3.146   5.871 -0.3372 -0.1618 -0.6969
  112OSM    H9T11548   3.618   2.963   5.855  0.4657 -0.3059  0.1241
  112OSM   C10S11549   3.782   3.070   5.763 -0.4542  0.6087  0.0974
  112OSM   H10S11550   3.844   2.978   5.770 -1.8432 -0.5752 -2.0672
  112OSM   H10T11551   3.842   3.161   5.781  0.5935  0.1820 -1.1361
  112OSM   C11S11552   3.725   3.075   5.625 -0.5541 -0.3133  0.0318
  112OSM   H11S11553   3.641   3.148   5.618  0.9125  1.4472 -0.0311
  112OSM   H11T11554   3.688   2.975   5.597  0.2422 -0.8909  0.9525
  112OSM   C12S11555   3.833   3.112   5.523  0.9563 -0.0076  0.2501
  112OSM   H12S11556   3.918   3.041   5.526 -0.8779 -2.2829  0.5147
  112OSM   H12T11557   3.877   3.212   5.548  0.9196  0.0937 -0.0938
  112OSM   C13S11558   3.781   3.117   5.379  0.3082  0.5339  0.5790
  112OSM   H13S11559   3.727   3.211   5.353  1.5362  1.1413  0.0804
  112OSM   H13T11560   3.719   3.027   5.361 -0.4909  0.8763  1.5795
  112OSM   C14S11561   3.898   3.122   5.284  0.7186 -0.3156 -0.4485
  112OSM   H14S11562   3.936   3.018   5.272 -1.7136 -1.1897 -1.0233
  112OSM   H14T11563   3.968   3.195   5.330 -1.9109  1.8205  0.4052
  112OSM   C15S11564   3.861   3.167   5.144  0.4330  0.0579  0.4040
  112OSM   H15S11565   3.837   3.276   5.147 -0.2758 -0.1104  1.0968
  112OSM   H15T11566   3.767   3.109   5.131  0.1949  0.2972  1.0482
  112OSM   C16S11567   3.972   3.143   5.039 -0.1232  0.4759  0.6824
  112OSM   H16S11568   3.990   3.033   5.035 -0.5455  0.3799  1.1828
  112OSM   H16T11569   4.062   3.202   5.067  0.2751 -0.0515  0.5363
  112OSM   C17S11570   3.929   3.173   4.894  0.3167 -0.0090  0.1865
  112OSM   H17S11571   3.878   3.272   4.900  0.6981  0.1132  1.8186
  112OSM   H17T11572   3.858   3.093   4.863  0.2620  0.6160 -1.4320
  112OSM   C18S11573   4.042   3.177   4.796  0.1207  0.4973 -0.5494
  112OSM   H18S11574   4.012   3.210   4.694 -0.9752  0.3446 -0.2915
  112OSM   H18T11575   4.093   3.078   4.787  1.7272  1.0317  1.8971
  112OSM   H18U11576   4.109   3.254   4.838 -0.8454  1.1528 -0.1831
  112OSM    C1F11577   3.087   2.901   6.260  0.3164 -0.1147 -0.3033
  112OSM     OF11578   2.985   2.966   6.236  0.1466 -0.0560  0.1851
  112OSM    C2F11579   3.112   2.778   6.188  0.1795 -0.0934  0.6546
  112OSM    H2F11580   3.065   2.703   6.255  0.2762 -2.1709 -1.4562
  112OSM    H2G11581   3.221   2.766   6.168  0.2002 -0.1674  0.8150
  112OSM    C3F11582   3.033   2.766   6.052 -0.3051 -0.5073 -0.4421
  112OSM    H3F11583   3.058   2.838   5.972 -2.2762  2.0916  1.1447
  112OSM    H3G11584   2.928   2.780   6.084 -0.0597  0.1667  0.0921
  112OSM    C4F11585   3.049   2.635   5.971 -0.6460  0.4374  0.4500
  112OSM    H4F11586   3.016   2.548   6.032  3.3349 -2.9264 -1.6394
  112OSM    H4G11587   3.155   2.619   5.940 -1.4176 -0.9726 -1.7136
  112OSM    C5F11588   2.973   2.653   5.840  0.0329 -0.1070 -0.3502
  112OSM    H5F11589   3.013   2.743   5.788  2.3206 -0.8934 -0.0489
  112OSM    H5G11590   2.867   2.678   5.861  0.5646  2.9500 -0.7969
  112OSM    C6F11591   2.979   2.535   5.744  0.9634 -0.6466 -0.3351
  112OSM    H6F11592   2.932   2.451   5.800 -1.1458 -0.1337 -1.2294
  112OSM    H6G11593   3.082   2.501   5.719  1.2299 -0.0071 -0.1148
  112OSM    C7F11594   2.899   2.551   5.610  0.1382 -0.5610  0.2006
  112OSM    H7F11595   2.790   2.559   5.630  0.4388  0.2929  1.6062
  112OSM    H7G11596   2.920   2.456   5.556 -0.5000 -1.1595  0.9936
  112OSM    C8F11597   2.954   2.669   5.522 -0.2051  0.4526  0.2626
  112OSM    H8F11598   2.928   2.766   5.568  0.0317 -0.0568  1.5184
  112OSM    H8G11599   2.922   2.654   5.416  2.9451 -1.7037 -0.5361
  112OSM    C9F11600   3.109   2.666   5.514 -0.4100 -0.4387 -0.0381
  112OSM    H9F11601   3.153   2.724   5.597 -1.2332  0.6286 -0.3210
  112OSM   C10F11602   3.181   2.600   5.423 -0.1757  0.2290 -0.3373
  112OSM   H10F11603   3.291   2.603   5.425 -0.1091  4.8551 -0.2205
  112OSM   C11F11604   3.125   2.509   5.310  0.1015  0.0061  0.8814
  112OSM   H11F11605   3.016   2.487   5.314 -0.3161  1.5334 -1.0649
  112OSM   H11G11606   3.179   2.412   5.323  0.8844  0.2958 -0.1353
  112OSM   C12F11607   3.160   2.558   5.160 -0.3710 -0.6045 -0.4644
  112OSM   H12F11608   3.133   2.665   5.149 -1.5245 -0.8117  0.1167
  112OSM   H12G11609   3.074   2.525   5.099 -0.6800  0.8938 -0.8787
  112OSM   C13F11610   3.292   2.527   5.108 -0.9729 -0.1945  0.1091
  112OSM   H13F11611   3.293   2.419   5.082 -2.5008  0.2153 -1.9454
  112OSM   H13G11612   3.366   2.558   5.184 -1.3329  1.6971 -0.2669
  112OSM   C14F11613   3.314   2.611   4.979 -0.0311  0.7390  0.1849
  112OSM   H14F11614   3.419   2.597   4.944 -0.3137 -1.6025  0.1037
  112OSM   H14G11615   3.323   2.717   5.011  3.5110  0.4378  0.5774
  112OSM   C15F11616   3.213   2.583   4.861 -0.7445  0.0415  0.1632
  112OSM   H15F11617   3.115   2.632   4.880 -0.1653  0.8850  1.0321
  112OSM   H15G11618   3.203   2.472   4.865  0.3118 -0.0978 -0.7309
  112OSM   C16F11619   3.268   2.629   4.730  0.7085  0.0720  0.4642
  112OSM   H16F11620   3.367   2.582   4.711  0.0806 -1.2225  0.2850
  112OSM   H16G11621   3.297   2.735   4.749 -0.2892  0.2040  1.3822
  112OSM   C17F11622   3.181   2.610   4.601  0.3664 -0.0433  0.1192
  112OSM   H17F11623   3.079   2.632   4.638 -0.0106 -1.2527 -0.1827
  112OSM   H17G11624   3.170   2.508   4.560 -0.9034 -0.4014  1.2761
  112OSM   C18F11625   3.205   2.704   4.485  0.1421 -0.4581  0.1728
  112OSM   H18F11626   3.295   2.667   4.432 -0.0583 -0.6076 -0.0643
  112OSM   H18G11627   3.225   2.807   4.522 -4.5089  0.8798 -0.3734
  112OSM   H18H11628   3.119   2.705   4.414 -1.3858  0.7035  1.9218
  113OSM      N11629   1.312   2.372   7.041 -0.0224 -0.1568  0.3194
  113OSM    C1511630   1.233   2.489   7.068 -0.1778 -0.6779 -0.0730
  113OSM   H15A11631   1.184   2.477   7.163  0.0595  1.7822  0.4408
  113OSM   H15B11632   1.158   2.496   6.990  2.0705 -1.1253 -2.4293
  113OSM   H15C11633   1.288   2.582   7.061  0.8520 -1.2938 -0.4201
  113OSM    C1411634   1.423   2.364   7.137 -0.1061  0.4382 -0.4017
  113OSM   H14A11635   1.481   2.275   7.116 -1.3723 -0.3401 -0.6750
  113OSM   H14B11636   1.384   2.368   7.238  1.5010 -3.0811  0.5218
  113OSM   H14C11637   1.491   2.446   7.119  0.0356  0.0123 -1.9010
  113OSM    C1311638   1.231   2.248   7.061  0.0078  0.6619 -0.6103
  113OSM   H13A11639   1.202   2.240   7.165 -0.0711 -0.7594 -0.7276
  113OSM   H13B11640   1.292   2.162   7.041 -0.4455  0.3435 -0.6272
  113OSM   H13C11641   1.149   2.244   6.991  0.3587  1.4344 -1.0924
  113OSM    C1211642   1.374   2.383   6.900  0.0062  0.2665 -0.1169
  113OSM   H12A11643   1.438   2.296   6.891  0.5884  0.6481  0.2557
  113OSM   H12B11644   1.443   2.466   6.898 -1.5008  1.5440 -0.7600
  113OSM    C1111645   1.286   2.398   6.768 -0.3828 -0.2183  0.2333
  113OSM   H11A11646   1.228   2.304   6.778  1.9726 -1.6900  0.8509
  113OSM   H11B11647   1.352   2.399   6.679  1.0873 -0.9868  1.2665
  113OSM      P11648   1.238   2.638   6.723 -0.1733  0.3301  0.2220
  113OSM    O1311649   1.128   2.736   6.736  0.4199 -0.3156  0.4289
  113OSM    O1411650   1.364   2.675   6.787  0.2710 -0.1032 -0.3486
  113OSM    O1111651   1.271   2.614   6.571  0.1791 -0.1928 -0.0353
  113OSM    O1211652   1.192   2.499   6.775 -0.1192 -0.1840 -0.0793
  113OSM    C1S11653   1.181   2.525   6.494 -0.3141 -0.7145  0.2423
  113OSM    H1S11654   1.087   2.516   6.553 -0.1458  3.0610  1.3826
  113OSM    H1T11655   1.234   2.428   6.481  2.1411  0.0549  3.2668
  113OSM     NF11656   1.026   2.521   6.307  0.4664  0.5767 -0.2182
  113OSM    HNF11657   1.036   2.447   6.241 -1.9724  0.4207 -0.4711
  113OSM    C2S11658   1.147   2.586   6.357  0.1595 -0.7611 -0.0686
  113OSM    H2S11659   1.121   2.692   6.376  2.5958 -0.4563  2.1603
  113OSM    C3S11660   1.266   2.578   6.256  0.3253 -0.1125  0.7331
  113OSM    H3S11661   1.299   2.473   6.245  0.7027  0.2490 -2.4338
  113OSM     O311662   1.374   2.665   6.298  0.3355  0.0111  0.1811
  113OSM    HO311663   1.357   2.679   6.391  2.7183  0.2189  0.6553
  113OSM    C4S11664   1.230   2.624   6.115  0.3264  0.2310 -0.3440
  113OSM    H4S11665   1.212   2.733   6.108 -0.8552  0.1632  1.0046
  113OSM    C5S11666   1.216   2.549   6.005 -1.1411 -0.1263  0.2806
  113OSM    H5S11667   1.258   2.447   6.009 -1.0636 -0.1402 -0.6775
  113OSM    C6S11668   1.186   2.589   5.869  0.0582 -0.9002  0.4892
  113OSM    H6S11669   1.116   2.519   5.817  0.4460 -0.4336 -0.7147
  113OSM    H6T11670   1.271   2.593   5.797 -0.5711  0.3053 -0.2149
  113OSM    C7S11671   1.109   2.724   5.855  0.1430 -0.1910  0.1649
  113OSM    H7S11672   1.178   2.804   5.889 -3.1062  2.5672  0.7192
  113OSM    H7T11673   1.021   2.735   5.921 -0.1869 -1.4594 -0.0468
  113OSM    C8S11674   1.071   2.757   5.709  0.9075 -0.1636  0.1146
  113OSM    H8S11675   1.010   2.850   5.715  0.7998 -0.2751  0.8318
  113OSM    H8T11676   0.989   2.697   5.663  0.9753  1.0418 -1.6818
  113OSM    C9S11677   1.181   2.771   5.601 -0.2597 -0.0262  0.4214
  113OSM    H9S11678   1.233   2.675   5.583  0.0467  0.1892  0.1343
  113OSM    H9T11679   1.248   2.850   5.643 -1.3911  1.3269 -0.2273
  113OSM   C10S11680   1.121   2.830   5.468  0.4499 -0.3199 -0.7854
  113OSM   H10S11681   1.087   2.936   5.475  0.4110 -0.1265 -3.2733
  113OSM   H10T11682   1.028   2.778   5.437  0.7061 -0.0299 -2.0705
  113OSM   C11S11683   1.214   2.826   5.341 -0.2286 -0.4409 -0.0861
  113OSM   H11S11684   1.265   2.727   5.338  0.0210 -0.2844 -1.1580
  113OSM   H11T11685   1.290   2.904   5.361 -1.1565  0.8355 -1.3459
  113OSM   C12S11686   1.150   2.862   5.208 -0.3970 -0.3760 -0.2948
  113OSM   H12S11687   1.094   2.954   5.234 -0.5338 -1.1613  2.5231
  113OSM   H12T11688   1.067   2.791   5.190 -1.2599  0.4861  0.2322
  113OSM   C13S11689   1.249   2.892   5.093 -0.3275 -0.2473 -0.0964
  113OSM   H13S11690   1.295   2.794   5.065 -1.4862 -0.4163 -1.5320
  113OSM   H13T11691   1.318   2.974   5.122 -1.0630  0.1336  0.6140
  113OSM   C14S11692   1.167   2.938   4.965  0.0425 -0.6180 -0.0751
  113OSM   H14S11693   1.137   3.044   4.981 -0.4325 -1.2124  3.7108
  113OSM   H14T11694   1.076   2.875   4.956 -0.9115  0.5886  0.8894
  113OSM   C15S11695   1.252   2.933   4.837 -0.0782 -0.8618 -0.2925
  113OSM   H15S11696   1.262   2.827   4.804 -1.4931 -1.6951  1.7729
  113OSM   H15T11697   1.349   2.978   4.867 -0.6225 -0.8576  1.5952
  113OSM   C16S11698   1.186   3.021   4.726  0.2684 -0.2602 -0.4757
  113OSM   H16S11699   1.162   3.123   4.763 -2.0424 -1.2530  1.0419
  113OSM   H16T11700   1.093   2.971   4.691 -0.5729  0.9199 -0.0007
  113OSM   C17S11701   1.269   3.035   4.591 -0.0501  0.2454 -0.1652
  113OSM   H17S11702   1.321   3.133   4.587  1.1216 -0.4058 -2.6647
  113OSM   H17T11703   1.194   3.048   4.510  0.6321  1.9524 -0.5753
  113OSM   C18S11704   1.357   2.922   4.563 -0.1849  0.3635  0.6746
  113OSM   H18S11705   1.302   2.832   4.529 -1.4053  1.9463 -1.9429
  113OSM   H18T11706   1.412   2.883   4.651  0.7195 -1.5627 -0.6680
  113OSM   H18U11707   1.427   2.937   4.477 -0.1416 -0.1040  0.6287
  113OSM    C1F11708   0.911   2.534   6.362  0.1975  0.3125  0.9011
  113OSM     OF11709   0.887   2.613   6.448  0.3446  0.1370 -0.0313
  113OSM    C2F11710   0.801   2.438   6.318 -0.1764  0.1429  0.1404
  113OSM    H2F11711   0.738   2.421   6.408  0.8644  0.1956  0.9052
  113OSM    H2G11712   0.850   2.341   6.296  1.3317  0.6994  0.8760
  113OSM    C3F11713   0.712   2.498   6.208 -0.5487  0.7978  0.2546
  113OSM    H3F11714   0.662   2.595   6.231  0.0405  0.8294  1.5002
  113OSM    H3G11715   0.631   2.425   6.190  0.8152 -0.5490 -0.6192
  113OSM    C4F11716   0.794   2.505   6.075 -0.2419  0.6258 -0.1042
  113OSM    H4F11717   0.858   2.414   6.066  1.1295  1.3582  1.6541
  113OSM    H4G11718   0.871   2.583   6.086  0.0067  0.2434  1.0631
  113OSM    C5F11719   0.703   2.524   5.955  0.7008  0.0922  0.8632
  113OSM    H5F11720   0.654   2.623   5.945 -0.7833 -0.8103 -1.9632
  113OSM    H5G11721   0.618   2.455   5.976  1.7282 -1.3168  0.4978
  113OSM    C6F11722   0.763   2.469   5.829 -0.1195  0.3028  0.3068
  113OSM    H6F11723   0.803   2.365   5.840  1.3328  0.7085 -0.8427
  113OSM    H6G11724   0.861   2.516   5.807 -0.0422  0.6687  1.3987
  113OSM    C7F11725   0.676   2.484   5.700 -0.0801  0.1997 -0.2172
  113OSM    H7F11726   0.627   2.584   5.697  0.5006  0.5058  0.0661
  113OSM    H7G11727   0.594   2.409   5.705  0.6622 -0.7012 -1.1496
  113OSM    C8F11728   0.753   2.468   5.569  0.4287 -1.0159 -0.6998
  113OSM    H8F11729   0.830   2.388   5.570  0.5782 -0.8716 -0.6687
  113OSM    H8G11730   0.807   2.564   5.564 -1.3345  0.1392  0.9283
  113OSM    C9F11731   0.666   2.430   5.452 -0.4733 -0.9924 -0.2847
  113OSM    H9F11732   0.606   2.340   5.468  0.5321 -1.5458  0.4860
  113OSM   C10F11733   0.671   2.495   5.330  0.2276  0.0617 -0.2233
  113OSM   H10F11734   0.608   2.455   5.249  0.5534 -1.7305  0.3698
  113OSM   C11F11735   0.760   2.610   5.283  1.7835  0.3728  0.2623
  113OSM   H11F11736   0.812   2.653   5.371  2.7993 -0.4794  0.0992
  113OSM   H11G11737   0.713   2.697   5.234  0.9630 -0.2451 -0.0704
  113OSM   C12F11738   0.867   2.564   5.181 -0.1523 -0.0856  0.6123
  113OSM   H12F11739   0.915   2.468   5.208 -0.0572  0.3164  1.9673
  113OSM   H12G11740   0.947   2.640   5.178  2.3879 -2.5657  1.1051
  113OSM   C13F11741   0.808   2.554   5.044 -0.8502  0.0871 -0.3074
  113OSM   H13F11742   0.698   2.571   5.041 -0.7780  1.0348  1.1100
  113OSM   H13G11743   0.834   2.450   5.016  0.0285  0.3570 -0.5142
  113OSM   C14F11744   0.885   2.635   4.934  0.5749  0.5431 -0.1278
  113OSM   H14F11745   0.994   2.630   4.955  0.2460  2.2564  2.4900
  113OSM   H14G11746   0.849   2.740   4.933 -2.3208 -0.2630  2.4824
  113OSM   C15F11747   0.846   2.584   4.793  0.1301  0.2960 -0.7206
  113OSM   H15F11748   0.738   2.591   4.765  0.2882 -2.4910 -2.3881
  113OSM   H15G11749   0.877   2.477   4.790  0.7287  0.4752 -0.8148
  113OSM   C16F11750   0.932   2.632   4.679 -0.2145  0.6040  0.2010
  113OSM   H16F11751   1.033   2.660   4.717 -0.4848 -0.6615  1.9636
  113OSM   H16G11752   0.894   2.734   4.660 -2.9750  0.5701  4.2878
  113OSM   C17F11753   0.931   2.549   4.558 -0.5916 -0.2386  0.3957
  113OSM   H17F11754   0.880   2.451   4.569 -2.3126  0.3972 -1.3622
  113OSM   H17G11755   1.037   2.528   4.529 -0.7483  0.8528 -1.1267
  113OSM   C18F11756   0.861   2.615   4.444 -0.3245  0.1994 -0.2322
  113OSM   H18F11757   0.751   2.614   4.465 -0.3338 -0.3882 -0.2972
  113OSM   H18G11758   0.883   2.574   4.344 -4.1492  0.7436 -1.4670
  113OSM   H18H11759   0.895   2.721   4.435 -1.0696  0.6274  1.3705
  114OSM      N11760   0.303   0.023   6.661  0.3259 -0.1565  0.0445
  114OSM    C1511761   0.216  -0.059   6.573 -0.6882 -0.1098 -0.5782
  114OSM   H15A11762   0.282  -0.109   6.504  2.0934  0.3496  1.5832
  114OSM   H15B11763   0.145   0.012   6.533 -0.9830  0.7998  1.4481
  114OSM   H15C11764   0.160  -0.134   6.627 -0.7049  1.1459  1.2259
  114OSM    C1411765   0.220   0.106   6.750  0.3508 -0.0627  0.2830
  114OSM   H14A11766   0.162   0.173   6.688  0.1392 -2.1408 -1.9327
  114OSM   H14B11767   0.285   0.172   6.805  1.3488  0.0233 -0.9484
  114OSM   H14C11768   0.164   0.041   6.815  0.3943 -0.1797  0.2027
  114OSM    C1311769   0.377  -0.061   6.757 -0.3738  0.1949  0.1630
  114OSM   H13A11770   0.433   0.007   6.819  0.7644 -1.0070  0.5155
  114OSM   H13B11771   0.455  -0.122   6.714  1.5053  1.2071  1.9743
  114OSM   H13C11772   0.311  -0.119   6.820  0.2168 -2.8112 -1.7221
  114OSM    C1211773   0.394   0.107   6.568  0.7267 -0.7208  0.1861
  114OSM   H12A11774   0.469   0.045   6.520  1.4259  1.3266 -1.5073
  114OSM   H12B11775   0.442   0.183   6.628  1.4905 -1.4337  0.5011
  114OSM    C1111776   0.316   0.190   6.459  0.0364  0.7709 -0.3524
  114OSM   H11A11777   0.284   0.115   6.383  1.4311  2.1285 -2.3950
  114OSM   H11B11778   0.389   0.257   6.409  1.4541 -2.0221 -2.3542
  114OSM      P11779   0.091   0.326   6.412 -0.3997 -0.2097 -0.3355
  114OSM    O1311780   0.047   0.210   6.330 -0.3254  0.4885  0.5652
  114OSM    O1411781  -0.018   0.397   6.488 -0.0039 -0.1044 -0.3296
  114OSM    O1111782   0.170   0.437   6.323  0.0605  0.8861  0.5990
  114OSM    O1211783   0.199   0.261   6.503  0.1692  0.1222  0.5382
  114OSM    C1S11784   0.245   0.394   6.205  0.4401  0.1055 -0.2682
  114OSM    H1S11785   0.265   0.284   6.202 -2.8459 -0.5876 -1.7777
  114OSM    H1T11786   0.344   0.443   6.205 -0.8448  2.8889  0.5379
  114OSM     NF11787   0.274   0.390   5.969 -0.3040 -0.0045 -0.4426
  114OSM    HNF11788   0.344   0.457   5.946  0.4702 -0.3561  0.7862
  114OSM    C2S11789   0.183   0.436   6.070 -0.9356  0.5706  0.2955
  114OSM    H2S11790   0.083   0.388   6.057 -0.8094  0.9813 -3.1090
  114OSM    C3S11791   0.176   0.591   6.066  0.2826  0.5359  1.0283
  114OSM    H3S11792   0.281   0.626   6.074  0.7903 -0.8506  0.6341
  114OSM     O311793   0.116   0.659   6.176 -0.5975  0.0855  0.5218
  114OSM    HO311794   0.133   0.596   6.246 -3.2523 -1.1179  0.2307
  114OSM    C4S11795   0.112   0.625   5.933 -0.6732  0.0902  0.1203
  114OSM    H4S11796   0.007   0.592   5.927 -0.6265 -0.5822  2.1202
  114OSM    C5S11797   0.167   0.700   5.839  0.0299 -0.1780  0.1926
  114OSM    H5S11798   0.265   0.748   5.851 -0.7370  1.4758  0.1754
  114OSM    C6S11799   0.115   0.751   5.715  0.1583  0.4447 -0.2188
  114OSM    H6S11800   0.152   0.850   5.681  0.3157  0.1118 -1.0400
  114OSM    H6T11801   0.004   0.754   5.707  0.1948 -0.7602 -1.6098
  114OSM    C7S11802   0.134   0.665   5.588 -0.5200  0.3984 -0.0976
  114OSM    H7S11803   0.128   0.558   5.614 -1.8144  0.4240 -0.2597
  114OSM    H7T11804   0.241   0.675   5.560 -0.4295 -0.9241 -0.2658
  114OSM    C8S11805   0.060   0.704   5.459  0.1693  0.4771  0.0226
  114OSM    H8S11806   0.101   0.801   5.425  2.2407  0.1928  1.5225
  114OSM    H8T11807  -0.048   0.715   5.484  0.8893  0.2709  3.8826
  114OSM    C9S11808   0.089   0.617   5.338 -0.2900 -0.4845 -1.0679
  114OSM    H9S11809   0.056   0.516   5.369 -2.2646  0.6627  0.8129
  114OSM    H9T11810   0.199   0.615   5.320 -0.2397 -2.1436 -0.7748
  114OSM   C10S11811   0.038   0.681   5.207  0.4042  0.1605 -0.4432
  114OSM   H10S11812  -0.048   0.740   5.245  1.8449  0.9218  1.7991
  114OSM   H10T11813   0.000   0.594   5.148 -0.2283  0.1938 -0.0923
  114OSM   C11S11814   0.150   0.755   5.132  0.1120 -0.4079  0.5624
  114OSM   H11S11815   0.235   0.683   5.122 -0.7948 -1.4349  0.0688
  114OSM   H11T11816   0.179   0.844   5.191 -0.6981  1.0075 -1.0988
  114OSM   C12S11817   0.094   0.806   4.998  0.5763 -0.2125 -0.1360
  114OSM   H12S11818   0.022   0.889   5.014  2.1416  1.0348  0.6900
  114OSM   H12T11819   0.048   0.719   4.948 -1.9635 -0.2018  1.9551
  114OSM   C13S11820   0.208   0.873   4.915  0.0502 -0.4404  0.8516
  114OSM   H13S11821   0.280   0.793   4.889  0.7619  1.1128 -2.5661
  114OSM   H13T11822   0.271   0.941   4.977  0.8931 -1.8555  1.5974
  114OSM   C14S11823   0.157   0.941   4.789 -0.0700  0.2418  0.5680
  114OSM   H14S11824   0.085   1.021   4.816 -0.9265 -0.0008 -0.9222
  114OSM   H14T11825   0.111   0.863   4.725  1.1425 -1.7820  2.0596
  114OSM   C15S11826   0.272   1.012   4.712  0.1468 -0.0229  0.3257
  114OSM   H15S11827   0.348   0.943   4.669  1.8317 -0.1593  3.2769
  114OSM   H15T11828   0.322   1.076   4.787  3.0042 -3.9570  2.1455
  114OSM   C16S11829   0.218   1.100   4.593 -0.7237  0.1768  0.2906
  114OSM   H16S11830   0.153   1.181   4.634  0.8956  1.0524  1.2344
  114OSM   H16T11831   0.151   1.049   4.521  1.3731 -0.4530 -1.3342
  114OSM   C17S11832   0.327   1.174   4.513  0.1165  0.1201 -0.0370
  114OSM   H17S11833   0.273   1.238   4.440 -1.5030 -1.4018 -0.2555
  114OSM   H17T11834   0.381   1.097   4.454  0.9652  0.1740  0.6559
  114OSM   C18S11835   0.419   1.255   4.610 -0.2298  0.7734  0.7407
  114OSM   H18S11836   0.469   1.187   4.682  1.8321  1.5913  0.1508
  114OSM   H18T11837   0.349   1.326   4.660 -0.0517  1.8120 -0.4494
  114OSM   H18U11838   0.487   1.315   4.546  1.9731 -2.3726 -0.0834
  114OSM    C1F11839   0.284   0.260   5.936 -0.1163 -1.0513 -0.0864
  114OSM     OF11840   0.197   0.184   5.970 -0.1921 -0.0364  0.6457
  114OSM    C2F11841   0.403   0.219   5.850  0.3680  0.0878 -0.2903
  114OSM    H2F11842   0.483   0.293   5.875 -0.1529  1.2899 -2.0176
  114OSM    H2G11843   0.390   0.223   5.740  1.3542  0.1870 -0.4149
  114OSM    C3F11844   0.441   0.067   5.886 -0.0871 -0.0516  0.0985
  114OSM    H3F11845   0.383  -0.021   5.852  1.2292 -1.1767  0.6573
  114OSM    H3G11846   0.465   0.054   5.994  0.6497 -0.8891 -0.1626
  114OSM    C4F11847   0.573   0.027   5.811 -0.3780 -0.4200 -0.3741
  114OSM    H4F11848   0.603  -0.068   5.862  2.1794  1.4919  2.0124
  114OSM    H4G11849   0.655   0.102   5.804 -0.2968 -0.5485 -0.8691
  114OSM    C5F11850   0.553  -0.011   5.663 -0.0424  0.0877 -0.5138
  114OSM    H5F11851   0.490   0.062   5.607  0.4835  0.3876 -0.7226
  114OSM    H5G11852   0.498  -0.107   5.649  1.3013 -0.8749  0.6170
  114OSM    C6F11853   0.684  -0.008   5.582  0.5015 -0.3189  0.1525
  114OSM    H6F11854   0.757  -0.069   5.640 -0.0725 -0.6915  0.4944
  114OSM    H6G11855   0.720   0.097   5.584  2.5651 -0.9773  2.2154
  114OSM    C7F11856   0.669  -0.065   5.441  0.2987 -0.3522  0.0093
  114OSM    H7F11857   0.622  -0.165   5.450  1.9036 -1.2661 -1.2900
  114OSM    H7G11858   0.776  -0.085   5.420 -0.0981 -0.5023 -2.0962
  114OSM    C8F11859   0.611   0.035   5.340 -0.2372  0.2846 -0.1436
  114OSM    H8F11860   0.681   0.113   5.303 -1.1957  1.0769 -0.3026
  114OSM    H8G11861   0.530   0.089   5.392  0.2982  0.5056  0.4720
  114OSM    C9F11862   0.549  -0.032   5.216 -0.1153 -0.1903  0.5137
  114OSM    H9F11863   0.468  -0.097   5.250 -0.1056 -1.6389 -2.0041
  114OSM   C10F11864   0.570  -0.014   5.088  0.0880  0.4779  0.5507
  114OSM   H10F11865   0.503  -0.052   5.011  0.3846  2.0503 -0.5371
  114OSM   C11F11866   0.695   0.058   5.037 -0.1609  0.3826 -0.2804
  114OSM   H11F11867   0.769  -0.016   4.999 -1.9321 -2.4799  1.4329
  114OSM   H11G11868   0.738   0.122   5.115  0.0451  0.7463 -0.6889
  114OSM   C12F11869   0.666   0.152   4.915  0.1540 -0.5233  0.2104
  114OSM   H12F11870   0.757   0.199   4.874 -0.7468  0.5797 -0.5776
  114OSM   H12G11871   0.610   0.246   4.932  0.2620 -0.3155 -0.5464
  114OSM   C13F11872   0.609   0.086   4.796  0.1871  0.7538  0.5040
  114OSM   H13F11873   0.519   0.024   4.814  0.1061  0.9090  0.6290
  114OSM   H13G11874   0.684   0.017   4.751  0.4224  0.7222  0.9395
  114OSM   C14F11875   0.546   0.183   4.693 -0.5703  0.6303  0.2439
  114OSM   H14F11876   0.608   0.274   4.676 -2.6636  1.6263 -3.0488
  114OSM   H14G11877   0.452   0.227   4.733 -1.3625  1.9446 -2.7492
  114OSM   C15F11878   0.504   0.110   4.566  0.4300  0.0406 -0.7791
  114OSM   H15F11879   0.445   0.019   4.592  1.1305  0.0149  0.8968
  114OSM   H15G11880   0.598   0.071   4.522  0.6917 -1.6093  1.0656
  114OSM   C16F11881   0.415   0.197   4.476 -0.4287  0.4472  0.7440
  114OSM   H16F11882   0.488   0.275   4.447 -0.2231  0.5079  1.4298
  114OSM   H16G11883   0.328   0.237   4.532  0.8289 -0.4553  3.5273
  114OSM   C17F11884   0.358   0.130   4.346 -0.2617 -0.4993  0.3469
  114OSM   H17F11885   0.300   0.043   4.383 -2.2159  0.7259  0.3111
  114OSM   H17G11886   0.445   0.095   4.287 -1.0055  0.5227 -1.4497
  114OSM   C18F11887   0.276   0.228   4.258 -0.5060 -0.9644  0.0179
  114OSM   H18F11888   0.347   0.303   4.218 -0.7420 -0.5554  0.3636
  114OSM   H18G11889   0.194   0.274   4.317 -0.5014  0.1971 -0.8628
  114OSM   H18H11890   0.224   0.178   4.174  1.1367 -1.6043 -0.6757
  115OSM      N11891   1.134   4.548   6.618 -0.5921  0.3710  0.0528
  115OSM    C1511892   1.095   4.686   6.650 -0.1178 -0.1308 -0.4582
  115OSM   H15A11893   0.991   4.695   6.677  0.6993  1.8471  2.5182
  115OSM   H15B11894   1.115   4.745   6.562 -1.5240  1.0762 -0.0090
  115OSM   H15C11895   1.159   4.731   6.725  1.6402  0.7291 -2.3577
  115OSM    C1411896   1.280   4.550   6.585  0.3317  0.2262 -0.4467
  115OSM   H14A11897   1.305   4.589   6.488  1.7592 -3.5215 -1.7947
  115OSM   H14B11898   1.317   4.448   6.583 -2.7491 -1.0200 -0.6525
  115OSM   H14C11899   1.338   4.598   6.661  0.9268 -1.4070  0.1834
  115OSM    C1311900   1.130   4.465   6.747  0.2911  0.0389 -0.2960
  115OSM   H13A11901   1.205   4.512   6.810  0.8456  4.2724 -3.6553
  115OSM   H13B11902   1.154   4.361   6.730  1.1988  0.2699 -0.4811
  115OSM   H13C11903   1.033   4.451   6.792  0.9777 -0.4280  1.0926
  115OSM    C1211904   1.047   4.483   6.514 -0.0959 -0.0984 -0.0528
  115OSM   H12A11905   1.045   4.543   6.424 -0.1632  0.0033  0.0164
  115OSM   H12B11906   0.946   4.469   6.549  0.1474  0.6244  0.9748
  115OSM    C1111907   1.090   4.338   6.475 -0.2971  0.4375  0.0122
  115OSM   H11A11908   1.196   4.331   6.442 -0.5131  2.2622 -1.2311
  115OSM   H11B11909   1.033   4.308   6.385 -1.6386  0.9245  0.6827
  115OSM      P11910   0.906   4.189   6.591 -0.0795  0.0115  0.0897
  115OSM    O1311911   0.913   4.070   6.676  0.3765  1.0035 -0.1697
  115OSM    O1411912   0.820   4.301   6.624  0.3516  0.1183 -0.2352
  115OSM    O1111913   0.854   4.137   6.447 -0.1657 -0.6104  0.1567
  115OSM    O1211914   1.058   4.245   6.576  0.5856  0.1049 -0.6775
  115OSM    C1S11915   0.905   4.007   6.407 -0.2485 -0.5284  0.4952
  115OSM    H1S11916   0.864   3.929   6.474 -1.6258  0.0453  0.3520
  115OSM    H1T11917   1.016   4.005   6.408 -0.2463 -0.2368  1.5832
  115OSM     NF11918   0.925   3.830   6.243 -0.6478  0.4897 -0.3050
  115OSM    HNF11919   1.013   3.834   6.197 -1.5782 -1.2332 -2.4179
  115OSM    C2S11920   0.864   3.962   6.265 -0.7909 -0.9643  0.7049
  115OSM    H2S11921   0.753   3.964   6.263 -0.7982 -0.0700  1.2918
  115OSM    C3S11922   0.908   4.079   6.169  0.0728  0.4440 -0.0313
  115OSM    H3S11923   1.018   4.084   6.179  0.0904  0.0567 -0.0074
  115OSM     O311924   0.853   4.209   6.200 -0.2355  0.6097 -0.2498
  115OSM    HO311925   0.841   4.199   6.295 -1.8527  0.1549 -0.4761
  115OSM    C4S11926   0.874   4.029   6.029  0.7037 -0.9472 -0.1702
  115OSM    H4S11927   0.815   3.936   6.025  0.1756 -0.6928  1.0692
  115OSM    C5S11928   0.888   4.103   5.917  0.7629 -0.6913 -0.1877
  115OSM    H5S11929   0.925   4.205   5.933 -0.4371 -0.5906  2.3959
  115OSM    C6S11930   0.835   4.063   5.782  0.4898  0.3636 -0.2912
  115OSM    H6S11931   0.814   4.155   5.723 -0.0793  1.0849  0.9899
  115OSM    H6T11932   0.741   4.006   5.797  0.0226  1.3839  0.8391
  115OSM    C7S11933   0.930   3.978   5.704  0.4599 -0.6807  0.0898
  115OSM    H7S11934   0.949   3.885   5.761 -2.8713 -0.8538  1.1381
  115OSM    H7T11935   1.023   4.040   5.699  0.4292 -0.5813  0.6751
  115OSM    C8S11936   0.880   3.960   5.559  0.4599  0.2618  0.4247
  115OSM    H8S11937   0.832   4.050   5.516  3.7380  0.8791 -2.3110
  115OSM    H8T11938   0.805   3.878   5.551  1.4782 -0.5482 -1.3970
  115OSM    C9S11939   0.994   3.906   5.473 -0.4133 -0.0847 -0.0342
  115OSM    H9S11940   1.007   3.797   5.487 -1.0800 -0.3922 -1.5584
  115OSM    H9T11941   1.085   3.964   5.502 -0.4202  0.7331 -1.5399
  115OSM   C10S11942   0.977   3.941   5.326  0.0742  0.3194  1.5009
  115OSM   H10S11943   0.960   4.049   5.308 -2.6486 -0.1240  0.9774
  115OSM   H10T11944   0.880   3.896   5.295  0.7822 -0.8786  0.9450
  115OSM   C11S11945   1.084   3.887   5.231 -0.8291  0.2958  0.3639
  115OSM   H11S11946   1.077   3.776   5.235 -0.1336  0.2521  0.4561
  115OSM   H11T11947   1.187   3.913   5.263 -0.1869 -0.0231 -1.3307
  115OSM   C12S11948   1.085   3.927   5.084  0.4285 -0.0748  0.2630
  115OSM   H12S11949   1.159   3.877   5.018 -1.2766 -0.2918 -1.6086
  115OSM   H12T11950   1.112   4.034   5.074  1.2251 -0.2034  0.9856
  115OSM   C13S11951   0.941   3.926   5.015  0.6270  0.8795 -0.6816
  115OSM   H13S11952   0.857   3.954   5.081  0.7483 -1.3152  0.4702
  115OSM   H13T11953   0.919   3.821   4.989  2.2032  0.4627 -0.4572
  115OSM   C14S11954   0.919   4.009   4.885  0.4145 -0.2993 -0.1895
  115OSM   H14S11955   0.915   4.116   4.912  0.5615 -0.8783  2.4064
  115OSM   H14T11956   0.820   3.993   4.838 -0.5907  0.9866  1.4142
  115OSM   C15S11957   1.032   3.998   4.780 -0.2101 -0.1069  0.5637
  115OSM   H15S11958   1.029   3.896   4.737  2.0889 -0.7311  1.7346
  115OSM   H15T11959   1.127   3.994   4.838 -0.9430  0.9230  1.9116
  115OSM   C16S11960   1.015   4.110   4.677 -0.0956 -1.4437  0.0835
  115OSM   H16S11961   1.002   4.213   4.717  1.3081 -0.6429 -1.3916
  115OSM   H16T11962   0.915   4.086   4.636 -0.4568  0.5048 -0.2842
  115OSM   C17S11963   1.118   4.104   4.567 -0.1434  0.4241 -1.0125
  115OSM   H17S11964   1.103   4.001   4.528 -1.6718  0.6910 -1.1886
  115OSM   H17T11965   1.219   4.111   4.613 -0.9306 -0.2752  0.9332
  115OSM   C18S11966   1.096   4.216   4.468 -0.2493  0.3131  0.2688
  115OSM   H18S11967   1.157   4.197   4.377  0.2315  2.3813  0.1004
  115OSM   H18T11968   1.123   4.317   4.504 -1.0255  0.4417  0.5222
  115OSM   H18U11969   0.987   4.218   4.443 -0.5923 -1.0054  1.5296
  115OSM    C1F11970   0.877   3.711   6.291  0.2146 -0.3768  0.0901
  115OSM     OF11971   0.764   3.708   6.332  0.1484  0.0544  0.2694
  115OSM    C2F11972   0.974   3.601   6.305 -0.1809  0.3327  0.6706
  115OSM    H2F11973   0.986   3.576   6.412  1.3301 -0.0009  0.4406
  115OSM    H2G11974   1.074   3.632   6.268 -0.3823 -0.3913 -0.5304
  115OSM    C3F11975   0.926   3.472   6.231 -0.0466  0.8535  1.3838
  115OSM    H3F11976   0.824   3.439   6.258 -0.8466  0.3182 -1.9466
  115OSM    H3G11977   0.995   3.390   6.261 -0.4560 -0.4094 -0.9292
  115OSM    C4F11978   0.939   3.495   6.078  0.5576 -0.4531 -0.3945
  115OSM    H4F11979   1.043   3.518   6.047 -0.0108  1.8973 -0.7203
  115OSM    H4G11980   0.878   3.583   6.050 -0.7135 -0.8725  0.9713
  115OSM    C5F11981   0.889   3.378   5.996  0.7293  0.2865  0.0333
  115OSM    H5F11982   0.781   3.361   6.017  1.0403 -0.0090  1.5336
  115OSM    H5G11983   0.947   3.284   6.010  2.3428  1.2535  0.0390
  115OSM    C6F11984   0.893   3.420   5.845  0.0340  0.1210 -0.1306
  115OSM    H6F11985   0.993   3.464   5.829  1.2266 -2.6658 -0.8480
  115OSM    H6G11986   0.815   3.498   5.829  2.1532  2.2799 -0.4693
  115OSM    C7F11987   0.891   3.306   5.742  0.0567  0.2723 -0.5569
  115OSM    H7F11988   0.785   3.298   5.711 -1.1522 -0.8716  3.2976
  115OSM    H7G11989   0.901   3.210   5.797 -0.9735  0.6092  0.2587
  115OSM    C8F11990   0.990   3.304   5.626 -0.0808 -0.1905  0.4650
  115OSM    H8F11991   0.952   3.224   5.558 -1.1719  0.7997 -0.1313
  115OSM    H8G11992   1.085   3.262   5.664 -0.6193 -0.7740  1.2246
  115OSM    C9F11993   1.031   3.428   5.558 -0.1536  0.7300  0.5447
  115OSM    H9F11994   0.985   3.523   5.587 -4.2235 -0.4903 -1.2677
  115OSM   C10F11995   1.087   3.420   5.433 -0.1615 -0.3162 -1.1390
  115OSM   H10F11996   1.122   3.516   5.393 -0.1674  0.1702 -0.0095
  115OSM   C11F11997   1.133   3.296   5.356 -0.0284 -0.0147  0.5144
  115OSM   H11F11998   1.131   3.206   5.421 -0.4721  0.9308  1.8452
  115OSM   H11G11999   1.237   3.320   5.325  0.0578 -1.2694 -0.2282
  115OSM   C12F12000   1.055   3.264   5.224 -0.0270 -0.6569  0.9664
  115OSM   H12F12001   0.960   3.218   5.257 -0.0868  0.2269  2.0456
  115OSM   H12G12002   1.115   3.178   5.184  2.1208  0.3609  1.8462
  115OSM   C13F12003   1.027   3.376   5.122  0.0235 -0.1503 -0.1532
  115OSM   H13F12004   0.975   3.458   5.176 -0.9524 -0.8916  0.0432
  115OSM   H13G12005   0.957   3.334   5.048 -0.4711  0.4825 -0.0567
  115OSM   C14F12006   1.150   3.426   5.055 -0.7034 -0.1839 -0.7603
  115OSM   H14F12007   1.210   3.341   5.016  1.7034  1.3830 -0.6015
  115OSM   H14G12008   1.210   3.463   5.140  2.1994 -1.4502 -2.1177
  115OSM   C15F12009   1.117   3.544   4.957 -0.4238  0.1495 -0.2004
  115OSM   H15F12010   1.030   3.598   4.999 -0.9431 -1.0823  0.3484
  115OSM   H15G12011   1.087   3.498   4.860 -1.8110 -0.7184  0.5967
  115OSM   C16F12012   1.230   3.632   4.920 -0.9972  0.0159  0.3626
  115OSM   H16F12013   1.275   3.682   5.008  1.2073 -1.6062  0.2488
  115OSM   H16G12014   1.190   3.704   4.845 -0.3321  1.1141  1.0396
  115OSM   C17F12015   1.344   3.541   4.865  0.2421 -1.0286 -0.2188
  115OSM   H17F12016   1.306   3.484   4.777 -0.1654  0.5707 -1.1129
  115OSM   H17G12017   1.382   3.476   4.947  2.8617  0.0903 -0.4698
  115OSM   C18F12018   1.467   3.614   4.818  0.0655 -0.6559  0.1407
  115OSM   H18F12019   1.453   3.693   4.742  0.9132  1.7249  2.3253
  115OSM   H18G12020   1.541   3.545   4.771  0.1421  0.3220 -1.2335
  115OSM   H18H12021   1.520   3.663   4.902 -0.7938  0.6731 -0.0672
  116OSM      N12022   1.775   2.011   6.600  0.7223 -0.0818  0.4485
  116OSM    C1512023   1.921   1.977   6.579  0.2969  0.2622  0.8470
  116OSM   H15A12024   1.939   1.878   6.541 -0.5625  1.1300 -2.1068
  116OSM   H15B12025   1.974   1.994   6.672  0.2711  0.1116  0.8883
  116OSM   H15C12026   1.970   2.053   6.520 -0.5144  0.6949  0.7193
  116OSM    C1412027   1.727   1.902   6.689 -0.4017 -0.5054 -0.6561
  116OSM   H14A12028   1.781   1.882   6.781 -0.0112  0.7181 -0.6116
  116OSM   H14B12029   1.724   1.805   6.640 -1.7871 -1.5318  1.3286
  116OSM   H14C12030   1.621   1.911   6.709 -0.3744 -1.1165 -0.1845
  116OSM    C1312031   1.762   2.146   6.667 -0.0664  1.1412 -0.3490
  116OSM   H13A12032   1.805   2.126   6.764  1.1266 -2.0372 -1.4019
  116OSM   H13B12033   1.658   2.174   6.675 -0.7461 -0.9319 -1.2028
  116OSM   H13C12034   1.816   2.224   6.616 -0.8584  2.4343  0.7335
  116OSM    C1212035   1.698   2.005   6.473  0.2393 -0.3857  0.6358
  116OSM   H12A12036   1.699   1.911   6.420 -1.8819  0.1563 -0.4839
  116OSM   H12B12037   1.745   2.062   6.394 -2.7554 -1.0855 -1.8371
  116OSM    C1112038   1.548   2.045   6.474 -0.5580 -0.3898  0.3412
  116OSM   H11A12039   1.509   2.071   6.373 -1.1608 -0.4655  0.5517
  116OSM   H11B12040   1.535   2.133   6.541 -0.8978 -1.1802  1.3413
  116OSM      P12041   1.474   1.796   6.452  0.5287 -0.2519 -0.2655
  116OSM    O1312042   1.545   1.716   6.552  0.0783 -0.4185 -0.2235
  116OSM    O1412043   1.340   1.742   6.413  0.5865  0.0899  0.0985
  116OSM    O1112044   1.565   1.809   6.326  0.5133  0.3216 -0.6121
  116OSM    O1212045   1.456   1.943   6.520 -0.0734  0.2004 -0.2284
  116OSM    C1S12046   1.531   1.747   6.203 -0.3612 -0.1597  0.1535
  116OSM    H1S12047   1.440   1.794   6.161  0.9549 -0.3505 -3.2148
  116OSM    H1T12048   1.511   1.642   6.233  0.7299 -0.0757  1.2914
  116OSM     NF12049   1.606   1.692   5.967  0.6464 -0.5274  0.1279
  116OSM    HNF12050   1.634   1.597   5.956 -0.3923 -0.6786 -1.6489
  116OSM    C2S12051   1.649   1.752   6.095  0.5978  0.6237 -0.7882
  116OSM    H2S12052   1.678   1.857   6.075 -1.8062  1.0693 -2.2993
  116OSM    C3S12053   1.773   1.684   6.160  0.1102  0.7554 -0.6129
  116OSM    H3S12054   1.755   1.581   6.199  0.6793  0.4988 -1.0069
  116OSM     O312055   1.813   1.755   6.277 -0.1688 -0.4422  0.4660
  116OSM    HO312056   1.727   1.792   6.298  1.1103  1.1056  3.5637
  116OSM    C4S12057   1.884   1.673   6.065 -0.4251 -0.3649 -0.1374
  116OSM    H4S12058   1.914   1.770   6.022  2.2812 -2.1661 -2.7553
  116OSM    C5S12059   1.951   1.562   6.019  0.0712  0.0755 -0.3607
  116OSM    H5S12060   1.917   1.465   6.058  2.8168 -0.2632  1.4654
  116OSM    C6S12061   2.069   1.563   5.924 -0.1063 -0.4939  0.3397
  116OSM    H6S12062   2.154   1.493   5.931 -0.1969 -0.7636 -0.9306
  116OSM    H6T12063   2.121   1.662   5.924  1.1707 -1.1366  1.2390
  116OSM    C7S12064   2.011   1.553   5.777  0.7779 -0.5162  0.1218
  116OSM    H7S12065   1.917   1.613   5.769  2.3464  1.9688 -0.7315
  116OSM    H7T12066   1.985   1.446   5.765  2.3609 -1.1412  1.7880
  116OSM    C8S12067   2.114   1.598   5.668  0.2903 -0.2607  0.2833
  116OSM    H8S12068   2.198   1.527   5.679 -0.0534 -0.8823 -0.9431
  116OSM    H8T12069   2.145   1.702   5.692  2.0296 -1.1038  1.8958
  116OSM    C9S12070   2.062   1.585   5.526 -0.6072  0.1070 -0.4405
  116OSM    H9S12071   1.983   1.660   5.501 -1.5227 -0.4541  0.6538
  116OSM    H9T12072   2.016   1.484   5.515  0.4631 -0.3655 -0.6341
  116OSM   C10S12073   2.174   1.587   5.415  0.1074 -0.2643 -0.4276
  116OSM   H10S12074   2.238   1.501   5.442 -2.0210 -1.6434  0.5354
  116OSM   H10T12075   2.233   1.680   5.432 -2.1837  1.2059 -0.0361
  116OSM   C11S12076   2.121   1.595   5.271  0.0402 -0.0082  0.2292
  116OSM   H11S12077   2.038   1.668   5.272  0.1493  0.1155  0.3935
  116OSM   H11T12078   2.081   1.493   5.254 -0.6503 -0.0099  1.6937
  116OSM   C12S12079   2.230   1.633   5.170 -0.6799 -0.2859 -0.1948
  116OSM   H12S12080   2.297   1.547   5.152 -0.5934 -0.2327 -0.1303
  116OSM   H12T12081   2.290   1.717   5.211  2.0230 -2.0648 -0.2914
  116OSM   C13S12082   2.168   1.689   5.039 -0.2038 -0.9617  0.6217
  116OSM   H13S12083   2.135   1.794   5.053  2.1073  0.1475 -1.4181
  116OSM   H13T12084   2.079   1.628   5.013 -0.4402  0.2285 -1.5731
  116OSM   C14S12085   2.273   1.677   4.933 -0.2402 -0.6656 -0.2925
  116OSM   H14S12086   2.310   1.573   4.925  1.5418 -0.0518 -0.3723
  116OSM   H14T12087   2.361   1.742   4.953  0.5303 -1.4872 -0.9074
  116OSM   C15S12088   2.216   1.722   4.800 -0.3122 -0.1674  0.8301
  116OSM   H15S12089   2.200   1.832   4.804 -0.4570 -0.1592  5.3737
  116OSM   H15T12090   2.113   1.680   4.799 -0.7657  0.8626 -1.1720
  116OSM   C16S12091   2.282   1.678   4.669  0.0879  0.2950 -0.0200
  116OSM   H16S12092   2.260   1.572   4.646 -0.9288  0.5481 -0.2773
  116OSM   H16T12093   2.390   1.698   4.685 -0.0755  0.6207  0.6820
  116OSM   C17S12094   2.248   1.758   4.541 -0.1556 -0.0020  0.8305
  116OSM   H17S12095   2.295   1.858   4.530 -0.8784  0.1678 -1.3205
  116OSM   H17T12096   2.137   1.771   4.539 -0.1243  0.2304 -0.0769
  116OSM   C18S12097   2.285   1.672   4.410 -0.0581 -0.1514 -0.0367
  116OSM   H18S12098   2.268   1.734   4.319 -0.6016 -1.3478 -0.7824
  116OSM   H18T12099   2.215   1.588   4.391 -0.5700  0.3924 -0.6012
  116OSM   H18U12100   2.390   1.635   4.417 -0.5042 -1.9039 -1.7138
  116OSM    C1F12101   1.532   1.754   5.880  0.6774 -0.4760 -0.5346
  116OSM     OF12102   1.469   1.859   5.901 -0.0777  0.0296  0.8650
  116OSM    C2F12103   1.531   1.687   5.745 -0.1452 -0.2525  0.6136
  116OSM    H2F12104   1.534   1.576   5.758 -1.8648 -0.2105  1.6105
  116OSM    H2G12105   1.633   1.714   5.710 -0.2525  0.0389  0.5210
  116OSM    C3F12106   1.415   1.735   5.656  0.0242  0.2473  0.2779
  116OSM    H3F12107   1.423   1.846   5.646  0.7249  0.2285  0.6101
  116OSM    H3G12108   1.314   1.712   5.696 -0.1329  1.1112  0.4067
  116OSM    C4F12109   1.431   1.661   5.519  0.0614 -0.1655  0.5989
  116OSM    H4F12110   1.425   1.553   5.543 -1.6557  0.0987  1.5701
  116OSM    H4G12111   1.526   1.686   5.467  1.6428 -0.4799  3.1421
  116OSM    C5F12112   1.320   1.703   5.423  0.5535  0.3406  0.8214
  116OSM    H5F12113   1.339   1.809   5.394  2.0120 -0.2631 -0.6097
  116OSM    H5G12114   1.220   1.688   5.470  0.0264 -0.3535 -0.4791
  116OSM    C6F12115   1.335   1.628   5.285  0.2435  0.5723 -1.0269
  116OSM    H6F12116   1.357   1.521   5.307 -1.4072  0.4240  0.0120
  116OSM    H6G12117   1.423   1.673   5.233  1.6597 -0.5242  0.3217
  116OSM    C7F12118   1.210   1.626   5.198  0.1416 -0.5645  0.0371
  116OSM    H7F12119   1.121   1.592   5.254  0.1110 -1.6424 -0.6415
  116OSM    H7G12120   1.221   1.560   5.109 -0.0503  0.9824 -1.1923
  116OSM    C8F12121   1.178   1.775   5.159 -0.3155  0.0350 -0.0589
  116OSM    H8F12122   1.256   1.804   5.086  0.5039 -1.9990 -0.0713
  116OSM    H8G12123   1.187   1.827   5.257 -0.2876 -0.3997  0.1722
  116OSM    C9F12124   1.040   1.797   5.103  0.1419  0.4060  0.5663
  116OSM    H9F12125   0.952   1.817   5.167 -1.3643 -1.1243 -0.9225
  116OSM   C10F12126   1.010   1.804   4.969  0.1831 -0.8300  0.2697
  116OSM   H10F12127   0.905   1.819   4.940  0.4509  0.2939 -0.1778
  116OSM   C11F12128   1.110   1.776   4.861  0.8271  0.3179  0.6062
  116OSM   H11F12129   1.183   1.700   4.896  1.3827  2.0154  3.4413
  116OSM   H11G12130   1.179   1.862   4.847  0.9074  0.1332 -0.2056
  116OSM   C12F12131   1.054   1.729   4.724 -0.2567  0.6126  0.5741
  116OSM   H12F12132   1.137   1.734   4.651  0.3773  0.7435  1.2893
  116OSM   H12G12133   0.978   1.799   4.684 -1.3246  0.8213  2.8047
  116OSM   C13F12134   0.989   1.596   4.737  0.2896  0.0699  0.2240
  116OSM   H13F12135   0.929   1.588   4.830 -0.4366 -1.2330 -0.3247
  116OSM   H13G12136   1.060   1.511   4.729 -3.4012 -3.2329 -1.4814
  116OSM   C14F12137   0.887   1.569   4.620  0.2723 -0.0217 -1.3960
  116OSM   H14F12138   0.793   1.627   4.638 -1.2046 -3.2196  2.8279
  116OSM   H14G12139   0.850   1.466   4.638  0.3459  0.2729  0.7309
  116OSM   C15F12140   0.943   1.583   4.482  0.2089  0.3591  0.8330
  116OSM   H15F12141   1.023   1.507   4.466 -0.7950 -1.0726  2.2688
  116OSM   H15G12142   0.997   1.679   4.472  0.0643  0.3322 -0.2880
  116OSM   C16F12143   0.832   1.557   4.372 -0.3522 -0.2808 -0.0746
  116OSM   H16F12144   0.750   1.631   4.368 -1.0097 -0.9164  1.0497
  116OSM   H16G12145   0.783   1.458   4.387 -0.8069 -0.0219  0.1587
  116OSM   C17F12146   0.909   1.562   4.242  0.3486  0.1921  0.0038
  116OSM   H17F12147   1.003   1.503   4.234 -0.7647 -1.5297 -1.0305
  116OSM   H17G12148   0.932   1.670   4.231  1.2312 -0.1476 -1.8190
  116OSM   C18F12149   0.816   1.533   4.133 -0.0772  0.4542  0.2199
  116OSM   H18F12150   0.720   1.582   4.158 -0.2980  0.2620 -0.2343
  116OSM   H18G12151   0.794   1.425   4.123  2.0234  0.0737 -1.0329
  116OSM   H18H12152   0.856   1.563   4.034 -1.8444  0.3931 -0.5370
  117OSM      N12153   2.120   4.819   6.608 -0.0611  0.7038  0.5755
  117OSM    C1512154   2.031   4.925   6.664  0.0432  0.2948 -0.2432
  117OSM   H15A12155   2.071   4.954   6.760 -2.4635 -1.5826  1.5152
  117OSM   H15B12156   1.931   4.887   6.681 -0.5914  1.3259 -1.5399
  117OSM   H15C12157   2.027   5.015   6.604  2.9613  0.4749 -0.2853
  117OSM    C1412158   2.248   4.887   6.584  0.1711 -0.2515  0.2061
  117OSM   H14A12159   2.327   4.821   6.551  0.1643 -0.2453  0.1772
  117OSM   H14B12160   2.281   4.943   6.670  2.1923  0.7583 -1.1288
  117OSM   H14C12161   2.233   4.953   6.499  1.2403  1.1713  1.0679
  117OSM    C1312162   2.147   4.719   6.711  0.2840  0.4276  0.2419
  117OSM   H13A12163   2.181   4.625   6.671  2.7677  0.1845  2.5819
  117OSM   H13B12164   2.057   4.693   6.764 -0.5355 -0.5569 -1.5441
  117OSM   H13C12165   2.219   4.750   6.785  2.0251 -0.7526 -0.8730
  117OSM    C1212166   2.065   4.746   6.485 -0.2378  0.4776  0.0912
  117OSM   H12A12167   1.967   4.705   6.501  0.5884 -2.3242 -1.4113
  117OSM   H12B12168   2.130   4.665   6.455 -0.4106 -0.9890  3.2991
  117OSM    C1112169   2.046   4.841   6.358 -0.4495 -0.0853 -0.5044
  117OSM   H11A12170   2.034   4.776   6.269 -0.0401  1.3470 -1.6487
  117OSM   H11B12171   2.141   4.894   6.336  0.8180 -1.0745  2.1165
  117OSM      P12172   1.790   4.890   6.403  0.0477 -0.3246  0.4363
  117OSM    O1312173   1.771   4.863   6.549  0.0779 -0.0820  0.8115
  117OSM    O1412174   1.702   4.981   6.329  0.6693  0.1051  0.2173
  117OSM    O1112175   1.781   4.752   6.327 -0.2089  0.6332 -0.4213
  117OSM    O1212176   1.937   4.926   6.384  0.2650 -0.2295 -0.2840
  117OSM    C1S12177   1.759   4.732   6.190 -0.8164  0.2116 -0.2918
  117OSM    H1S12178   1.859   4.713   6.146 -1.3648 -1.8677 -0.7456
  117OSM    H1T12179   1.723   4.822   6.136  0.7292  1.0060 -0.0508
  117OSM     NF12180   1.604   4.620   6.022 -0.1835 -0.1420  0.3480
  117OSM    HNF12181   1.523   4.675   6.002 -0.0060  0.3458  0.9513
  117OSM    C2S12182   1.653   4.609   6.160 -0.3490 -0.5279 -0.2864
  117OSM    H2S12183   1.718   4.521   6.180 -0.7897 -0.4347  1.7306
  117OSM    C3S12184   1.542   4.601   6.270 -0.3609  0.4124  0.5042
  117OSM    H3S12185   1.486   4.697   6.269  0.4735  0.9130  0.6898
  117OSM     O312186   1.587   4.592   6.410  0.4093 -0.2043  0.4974
  117OSM    HO312187   1.679   4.620   6.414  0.9679 -1.8583  0.3699
  117OSM    C4S12188   1.453   4.488   6.239 -0.2374  0.0013 -0.3546
  117OSM    H4S12189   1.354   4.517   6.202 -1.6280 -0.8171  2.4008
  117OSM    C5S12190   1.490   4.359   6.256  0.3063  0.1309  0.6827
  117OSM    H5S12191   1.596   4.332   6.267  0.0658 -1.3641 -0.2186
  117OSM    C6S12192   1.413   4.231   6.221  0.4053 -1.2798  0.3119
  117OSM    H6S12193   1.389   4.187   6.321 -0.0350 -2.5529 -0.3298
  117OSM    H6T12194   1.477   4.161   6.163  1.8536  0.6560 -0.5067
  117OSM    C7S12195   1.278   4.248   6.148 -0.2670  0.0549 -0.8694
  117OSM    H7S12196   1.220   4.318   6.212  1.8106 -0.6872  2.0628
  117OSM    H7T12197   1.231   4.147   6.148  0.5399 -0.3329  0.1260
  117OSM    C8S12198   1.270   4.304   6.004  0.3282  0.1834  0.0465
  117OSM    H8S12199   1.292   4.412   5.992 -1.4681  0.8138  1.7131
  117OSM    H8T12200   1.163   4.291   5.976  0.1575  0.4417  0.5513
  117OSM    C9S12201   1.345   4.218   5.908 -0.0722 -0.0868 -0.0485
  117OSM    H9S12202   1.336   4.111   5.939  0.8362 -0.4578 -1.0227
  117OSM    H9T12203   1.455   4.233   5.914 -0.1661  1.7375 -1.9538
  117OSM   C10S12204   1.292   4.232   5.767  0.1860  0.3506 -0.0159
  117OSM   H10S12205   1.295   4.341   5.748  0.4870  0.5959  1.3432
  117OSM   H10T12206   1.186   4.197   5.770 -0.1110  1.2683  1.3841
  117OSM   C11S12207   1.379   4.167   5.662  0.0856  0.6650 -0.0097
  117OSM   H11S12208   1.383   4.059   5.686  0.4704  0.8970  1.0517
  117OSM   H11T12209   1.480   4.213   5.668  0.0504  0.8201 -0.5510
  117OSM   C12S12210   1.333   4.194   5.525 -0.6688 -0.0752  1.1869
  117OSM   H12S12211   1.325   4.304   5.509  0.2809 -0.5839 -5.6531
  117OSM   H12T12212   1.239   4.138   5.503  0.5898 -2.1348  0.7949
  117OSM   C13S12213   1.433   4.151   5.413 -0.3459 -0.2742  0.1687
  117OSM   H13S12214   1.469   4.046   5.420  1.7424  0.4073  0.5107
  117OSM   H13T12215   1.525   4.214   5.416 -2.5108  3.1472 -0.1897
  117OSM   C14S12216   1.380   4.174   5.269  0.1985  0.8156  0.5693
  117OSM   H14S12217   1.374   4.281   5.241 -0.0984  1.3812  2.6784
  117OSM   H14T12218   1.283   4.124   5.247  0.9212  0.2176 -1.5113
  117OSM   C15S12219   1.481   4.122   5.157 -0.6647 -0.6871  0.2244
  117OSM   H15S12220   1.481   4.011   5.163  0.1381 -0.7021  0.0468
  117OSM   H15T12221   1.583   4.155   5.187 -0.8216 -0.2341  0.2653
  117OSM   C16S12222   1.452   4.169   5.015 -0.4959 -0.5469 -0.2951
  117OSM   H16S12223   1.436   4.279   5.021 -0.9618 -0.7086  2.3488
  117OSM   H16T12224   1.366   4.125   4.960 -1.4710  0.8432  0.0473
  117OSM   C17S12225   1.570   4.141   4.930 -0.7933  0.2657  0.7124
  117OSM   H17S12226   1.662   4.163   4.987 -0.7775  0.0316  0.7796
  117OSM   H17T12227   1.567   4.211   4.844 -0.4148  0.9169  1.2213
  117OSM   C18S12228   1.555   3.996   4.877 -0.2750  0.3265  0.4264
  117OSM   H18S12229   1.460   3.992   4.820 -0.2083  2.2447  0.0973
  117OSM   H18T12230   1.550   3.924   4.962 -0.6145 -0.8538 -0.5835
  117OSM   H18U12231   1.642   3.968   4.815  0.7463 -0.4246  2.1158
  117OSM    C1F12232   1.686   4.609   5.920 -0.8207  1.2067 -0.3065
  117OSM     OF12233   1.807   4.578   5.928  0.2058 -0.0541 -0.8986
  117OSM    C2F12234   1.629   4.642   5.781  0.4060  0.0619  0.2706
  117OSM    H2F12235   1.642   4.751   5.769 -1.5348  0.4194  1.0791
  117OSM    H2G12236   1.521   4.625   5.761  0.6689 -0.2592 -0.9512
  117OSM    C3F12237   1.700   4.566   5.663 -0.0919  0.3338  1.0114
  117OSM    H3F12238   1.663   4.461   5.667 -0.1038  0.1509 -1.7788
  117OSM    H3G12239   1.809   4.555   5.677 -0.1799 -0.8538  0.8786
  117OSM    C4F12240   1.656   4.612   5.527  0.1783 -0.3734  0.2331
  117OSM    H4F12241   1.701   4.709   5.499 -0.4438  0.0397  0.6429
  117OSM    H4G12242   1.549   4.641   5.534 -0.0345 -1.4541  2.0643
  117OSM    C5F12243   1.697   4.512   5.417 -0.4654  0.0086 -0.7414
  117OSM    H5F12244   1.656   4.409   5.420  0.7923 -0.4857  0.9017
  117OSM    H5G12245   1.806   4.502   5.435 -0.6946 -0.0452  0.7692
  117OSM    C6F12246   1.665   4.562   5.278  0.6094 -0.2283  0.2060
  117OSM    H6F12247   1.704   4.666   5.264 -2.8810  1.0689 -1.0612
  117OSM    H6G12248   1.555   4.576   5.274  0.6185 -0.4885 -2.2297
  117OSM    C7F12249   1.717   4.475   5.163  0.2898  0.1590  0.7463
  117OSM    H7F12250   1.688   4.369   5.181 -3.3625  0.8253 -0.4585
  117OSM    H7G12251   1.827   4.480   5.177  0.4939 -1.1394 -0.2233
  117OSM    C8F12252   1.667   4.517   5.022  0.1046 -0.1965 -0.0527
  117OSM    H8F12253   1.695   4.624   5.019  4.6266 -1.1952 -0.1274
  117OSM    H8G12254   1.558   4.494   5.022  0.1206 -0.2913 -0.7066
  117OSM    C9F12255   1.742   4.454   4.910  0.4580  0.3525  0.4685
  117OSM    H9F12256   1.824   4.390   4.945 -0.8950 -0.9455  1.4209
  117OSM   C10F12257   1.724   4.460   4.776 -0.1137 -0.5592 -0.7086
  117OSM   H10F12258   1.786   4.401   4.706 -2.4012 -2.2194 -1.4756
  117OSM   C11F12259   1.619   4.538   4.706  0.2085 -0.2259  0.6163
  117OSM   H11F12260   1.661   4.585   4.615  1.5310  1.2482  1.9341
  117OSM   H11G12261   1.579   4.619   4.771 -0.1379 -0.9467  1.3333
  117OSM   C12F12262   1.494   4.459   4.654 -0.6448  0.2975  0.1588
  117OSM   H12F12263   1.418   4.531   4.615 -0.7102 -0.0776 -0.4299
  117OSM   H12G12264   1.446   4.403   4.737 -2.6573  0.6026 -0.7232
  117OSM   C13F12265   1.531   4.370   4.531  0.2257 -0.1688 -0.4106
  117OSM   H13F12266   1.641   4.354   4.526  0.2818 -0.5354  1.4133
  117OSM   H13G12267   1.507   4.433   4.443 -0.9531 -1.3914 -1.0088
  117OSM   C14F12268   1.436   4.247   4.521 -0.6901  0.1742  0.3127
  117OSM   H14F12269   1.335   4.286   4.493 -1.1909 -1.8507 -0.9420
  117OSM   H14G12270   1.433   4.195   4.619  0.5021  1.8485  1.2764
  117OSM   C15F12271   1.490   4.141   4.422  0.2991  0.2988 -1.0616
  117OSM   H15F12272   1.557   4.187   4.346  0.0288  1.0535 -0.8438
  117OSM   H15G12273   1.403   4.106   4.362 -0.6629 -1.7019  1.3151
  117OSM   C16F12274   1.551   4.018   4.489  0.5508 -0.1727  0.0690
  117OSM   H16F12275   1.482   3.951   4.545  0.6987 -1.4357 -1.2003
  117OSM   H16G12276   1.611   4.063   4.571 -0.2341  3.1898 -1.0640
  117OSM   C17F12277   1.640   3.935   4.397  0.1802  0.2439  0.0798
  117OSM   H17F12278   1.693   4.005   4.330 -2.7864  2.5428 -0.0799
  117OSM   H17G12279   1.563   3.886   4.335 -0.0931  2.3535 -1.3523
  117OSM   C18F12280   1.733   3.829   4.454 -0.3010 -0.2499 -0.8030
  117OSM   H18F12281   1.679   3.754   4.516 -1.8727 -0.4250 -2.3182
  117OSM   H18G12282   1.803   3.864   4.533 -0.9149 -1.1161  0.1559
  117OSM   H18H12283   1.785   3.779   4.369  2.5314  0.4959  0.3620
  118OSM      N12284   2.044   3.629   6.479  0.0710 -0.1359 -0.0329
  118OSM    C1512285   2.089   3.552   6.595  0.0997 -0.2558 -0.0973
  118OSM   H15A12286   2.110   3.618   6.678  0.8641  0.7252 -1.0380
  118OSM   H15B12287   2.183   3.505   6.569  0.5372  0.6738 -0.2492
  118OSM   H15C12288   2.008   3.483   6.613 -0.4874 -0.2040 -2.2733
  118OSM    C1412289   2.021   3.556   6.356 -0.3221  0.3293  0.0657
  118OSM   H14A12290   2.092   3.480   6.329  0.8368  1.0241  1.0585
  118OSM   H14B12291   2.007   3.629   6.278 -0.0695 -0.3776 -0.6596
  118OSM   H14C12292   1.929   3.500   6.365 -0.0722 -0.0053  0.5905
  118OSM    C1312293   1.906   3.692   6.507 -0.1252  0.4990 -0.1895
  118OSM   H13A12294   1.858   3.729   6.417 -1.2565 -1.4864 -0.4504
  118OSM   H13B12295   1.918   3.760   6.590 -1.4110 -1.3833  1.6288
  118OSM   H13C12296   1.834   3.619   6.538  0.6928  0.0727  0.7614
  118OSM    C1212297   2.148   3.740   6.453 -0.0018  0.0090 -0.3126
  118OSM   H12A12298   2.143   3.816   6.529  0.8533 -3.0863  3.1186
  118OSM   H12B12299   2.125   3.782   6.356 -1.4246  0.2742  0.1167
  118OSM    C1112300   2.302   3.700   6.445  0.1619  0.1960  0.0259
  118OSM   H11A12301   2.355   3.790   6.409  1.5780  0.4130  2.4096
  118OSM   H11B12302   2.318   3.631   6.359 -0.6432  4.9298 -4.4090
  118OSM      P12303   2.482   3.708   6.642 -0.2427  0.3616  0.1431
  118OSM    O1312304   2.454   3.845   6.689  0.5151  0.1405 -0.6137
  118OSM    O1412305   2.543   3.614   6.735  0.2532  0.0697 -0.8353
  118OSM    O1112306   2.586   3.740   6.529  0.1870 -0.1124  0.2050
  118OSM    O1212307   2.354   3.649   6.567  0.0828  0.5222 -0.4440
  118OSM    C1S12308   2.615   3.651   6.426  0.4615  0.0490 -0.3226
  118OSM    H1S12309   2.543   3.567   6.409  0.8642 -0.4406  0.3460
  118OSM    H1T12310   2.715   3.605   6.441  0.9548  0.9099 -0.9051
  118OSM     NF12311   2.666   3.625   6.185  0.7697 -0.5498 -0.0495
  118OSM    HNF12312   2.762   3.641   6.162  0.7887  0.2712  0.5408
  118OSM    C2S12313   2.612   3.719   6.288  0.0059 -0.2754  0.2423
  118OSM    H2S12314   2.503   3.733   6.267 -0.6228 -2.3553  1.7641
  118OSM    C3S12315   2.666   3.867   6.299  0.7957 -0.3706  0.5664
  118OSM    H3S12316   2.765   3.876   6.349  0.9657  0.9606  0.0198
  118OSM     O312317   2.576   3.950   6.366 -0.2077  0.6801  0.9721
  118OSM    HO312318   2.544   3.883   6.427  0.3746  1.0926  1.7488
  118OSM    C4S12319   2.685   3.934   6.163  0.0690  0.4519 -0.0582
  118OSM    H4S12320   2.601   3.916   6.094 -0.1749 -0.0836  0.3722
  118OSM    C5S12321   2.795   3.996   6.115 -0.7683  0.8284 -1.0155
  118OSM    H5S12322   2.873   4.018   6.190 -1.1423 -1.1568  0.0235
  118OSM    C6S12323   2.810   4.045   5.976  0.1053 -0.3907  0.0740
  118OSM    H6S12324   2.846   4.150   5.979 -1.7177  0.2332  1.8763
  118OSM    H6T12325   2.712   4.056   5.924 -0.0544  1.5543  0.7233
  118OSM    C7S12326   2.891   3.950   5.882 -1.2471 -0.0044  0.0441
  118OSM    H7S12327   2.851   3.847   5.890 -1.2070  0.0665  1.5476
  118OSM    H7T12328   2.991   3.951   5.929 -0.4546 -4.8816 -1.1052
  118OSM    C8S12329   2.905   3.991   5.732  0.0110 -0.0637 -0.8259
  118OSM    H8S12330   2.925   4.099   5.749 -1.6819  0.2231 -0.4215
  118OSM    H8T12331   2.818   3.965   5.668  1.1848  0.4638 -2.7134
  118OSM    C9S12332   3.025   3.917   5.666 -0.2638 -0.0904  0.0341
  118OSM    H9S12333   3.006   3.808   5.662  0.3330 -0.2643  1.3459
  118OSM    H9T12334   3.113   3.952   5.724  0.3986 -1.9666  0.2165
  118OSM   C10S12335   3.025   3.965   5.514 -0.2556 -0.6259 -0.4043
  118OSM   H10S12336   3.012   4.075   5.503 -4.0160 -0.8281  0.6783
  118OSM   H10T12337   2.931   3.920   5.474 -0.2466 -0.7972 -0.2306
  118OSM   C11S12338   3.143   3.914   5.430  0.2917 -0.6576 -0.2349
  118OSM   H11S12339   3.159   3.805   5.441  0.5054 -0.5396  0.6957
  118OSM   H11T12340   3.228   3.974   5.468  0.6172 -2.0661  1.4061
  118OSM   C12S12341   3.135   3.952   5.283  0.2967  0.4221 -0.4603
  118OSM   H12S12342   3.109   4.060   5.282 -2.5719 -0.1873 -0.8349
  118OSM   H12T12343   3.050   3.906   5.228  2.4626 -0.2970 -3.4805
  118OSM   C13S12344   3.262   3.929   5.205 -0.6501  0.3324 -0.1674
  118OSM   H13S12345   3.282   3.820   5.197  0.1561  0.5107 -0.6691
  118OSM   H13T12346   3.353   3.970   5.254  0.1708  1.1030 -2.2055
  118OSM   C14S12347   3.253   3.998   5.068  1.2655 -0.1725  0.2960
  118OSM   H14S12348   3.236   4.106   5.090 -0.2641 -0.0092 -1.4963
  118OSM   H14T12349   3.162   3.967   5.013  2.3563 -0.0191 -1.6870
  118OSM   C15S12350   3.372   3.966   4.975  0.6283 -0.1221 -0.3310
  118OSM   H15S12351   3.370   3.860   4.942 -1.5468 -0.3857  0.4349
  118OSM   H15T12352   3.462   4.015   5.019  0.1792  0.9261 -0.5418
  118OSM   C16S12353   3.350   4.046   4.846  0.3341 -0.4507 -0.3124
  118OSM   H16S12354   3.358   4.154   4.870 -0.0360  0.1262 -2.5554
  118OSM   H16T12355   3.246   4.035   4.810 -0.5678  0.4590  1.8535
  118OSM   C17S12356   3.451   4.008   4.739  0.5739 -0.1097 -0.6482
  118OSM   H17S12357   3.423   4.044   4.637 -0.4518 -2.5717 -1.2964
  118OSM   H17T12358   3.447   3.898   4.726 -2.0461 -0.1380 -0.0389
  118OSM   C18S12359   3.594   4.061   4.769 -0.3821  0.2173 -0.0697
  118OSM   H18S12360   3.671   4.009   4.708 -1.4947 -2.3924  0.6067
  118OSM   H18T12361   3.634   4.029   4.868  1.3759  0.6164 -0.6195
  118OSM   H18U12362   3.597   4.171   4.764  1.2412  0.2200  0.3645
  118OSM    C1F12363   2.602   3.513   6.142  0.4613  0.0816 -0.6609
  118OSM     OF12364   2.494   3.476   6.197  0.0002 -0.5111 -0.1600
  118OSM    C2F12365   2.673   3.422   6.050 -0.1723 -0.2743  0.1322
  118OSM    H2F12366   2.679   3.326   6.105 -0.5621 -0.2072  0.2907
  118OSM    H2G12367   2.779   3.453   6.038 -0.4706 -0.1243 -2.8953
  118OSM    C3F12368   2.603   3.403   5.907 -0.6298 -0.5274  0.2011
  118OSM    H3F12369   2.494   3.385   5.922 -0.4341  0.0197  2.7868
  118OSM    H3G12370   2.652   3.315   5.859  0.9495  0.6694 -0.4469
  118OSM    C4F12371   2.611   3.536   5.823 -0.0753 -0.1031  0.3920
  118OSM    H4F12372   2.563   3.613   5.886 -3.3102  0.3914 -2.3776
  118OSM    H4G12373   2.543   3.519   5.737  0.9884  0.2261 -0.5430
  118OSM    C5F12374   2.750   3.569   5.779  0.2181 -0.2639  0.3328
  118OSM    H5F12375   2.829   3.574   5.858 -2.2344 -1.0838  3.0298
  118OSM    H5G12376   2.731   3.659   5.718 -0.9851 -1.4410 -1.1061
  118OSM    C6F12377   2.806   3.457   5.690  0.5948  0.5301  0.4780
  118OSM    H6F12378   2.728   3.404   5.632  1.3246  0.5741 -0.5669
  118OSM    H6G12379   2.855   3.381   5.754  0.3602  0.1385  0.1985
  118OSM    C7F12380   2.918   3.508   5.592  1.0690  0.1603 -0.9916
  118OSM    H7F12381   2.992   3.428   5.571  0.5532 -0.2882 -1.1190
  118OSM    H7G12382   2.969   3.586   5.653  0.6652 -0.2900 -0.0594
  118OSM    C8F12383   2.868   3.569   5.462 -0.5822 -0.0286 -0.3114
  118OSM    H8F12384   2.943   3.644   5.428 -0.6178 -1.2055 -3.2915
  118OSM    H8G12385   2.775   3.626   5.482 -1.1123 -1.3771  1.3204
  118OSM    C9F12386   2.846   3.462   5.367 -0.0107  0.2475 -0.0912
  118OSM    H9F12387   2.751   3.407   5.372 -0.9631  1.6043 -2.0426
  118OSM   C10F12388   2.945   3.413   5.289  0.1865 -0.2198 -0.4950
  118OSM   H10F12389   2.914   3.328   5.227  1.0207 -0.4260 -0.6363
  118OSM   C11F12390   3.089   3.464   5.284  0.1559  0.1435  0.0514
  118OSM   H11F12391   3.159   3.392   5.332  0.2318  0.9454  1.1882
  118OSM   H11G12392   3.108   3.552   5.349  0.1627 -0.8502  1.4325
  118OSM   C12F12393   3.149   3.488   5.142 -0.3810 -0.5164 -0.4489
  118OSM   H12F12394   3.163   3.395   5.083  0.2279 -1.2725  0.8396
  118OSM   H12G12395   3.246   3.535   5.168 -0.7188  0.3260 -0.6602
  118OSM   C13F12396   3.071   3.592   5.055 -0.1463 -1.0551 -0.3498
  118OSM   H13F12397   3.099   3.694   5.089  0.6838 -0.7432 -1.8653
  118OSM   H13G12398   2.961   3.575   5.057 -0.5351  1.1896  0.5886
  118OSM   C14F12399   3.121   3.592   4.907 -0.4860 -0.9373  0.2044
  118OSM   H14F12400   3.070   3.498   4.874  0.1772 -0.6367 -1.8603
  118OSM   H14G12401   3.231   3.576   4.913  0.0068  2.1716  1.2527
  118OSM   C15F12402   3.088   3.724   4.831 -0.3825 -0.0419  0.0537
  118OSM   H15F12403   3.179   3.787   4.840 -0.3688 -0.0837  0.2069
  118OSM   H15G12404   3.003   3.777   4.880  1.6415  2.5379  0.9722
  118OSM   C16F12405   3.051   3.688   4.680 -0.5855 -0.3321  0.5765
  118OSM   H16F12406   2.981   3.766   4.644 -0.8805 -0.5456  0.6868
  118OSM   H16G12407   2.997   3.591   4.681 -1.7026  0.2170 -1.3587
  118OSM   C17F12408   3.171   3.679   4.592 -0.0744 -0.3234  0.3498
  118OSM   H17F12409   3.247   3.614   4.642 -1.4462 -0.2056  2.7403
  118OSM   H17G12410   3.221   3.773   4.560 -1.5967  0.3255 -0.2054
  118OSM   C18F12411   3.136   3.620   4.452 -0.2701 -0.6668 -0.0101
  118OSM   H18F12412   3.220   3.625   4.379 -0.1086 -0.4381  0.1883
  118OSM   H18G12413   3.051   3.678   4.413  0.6517  0.4389 -0.4456
  118OSM   H18H12414   3.105   3.514   4.466  0.4923 -0.8939  0.0482
  119OSM      N12415   3.639   1.316   6.823 -0.0843 -0.1122  0.4631
  119OSM    C1512416   3.499   1.283   6.859  0.0300 -0.2338 -0.5545
  119OSM   H15A12417   3.491   1.270   6.966  3.2796  1.9132  0.0789
  119OSM   H15B12418   3.462   1.200   6.800  2.3341 -1.8583  0.1563
  119OSM   H15C12419   3.428   1.358   6.826 -1.2189 -1.5004 -0.8737
  119OSM    C1412420   3.684   1.431   6.920  0.8336  0.5419 -0.1346
  119OSM   H14A12421   3.754   1.393   6.993  0.1482 -1.9729 -0.7006
  119OSM   H14B12422   3.596   1.472   6.967 -0.2673  2.2654 -3.3311
  119OSM   H14C12423   3.732   1.516   6.873  1.9333  0.1243  0.1962
  119OSM    C1312424   3.726   1.196   6.854  0.5266 -0.4689  0.0779
  119OSM   H13A12425   3.736   1.122   6.776  0.6337  0.3021 -0.6583
  119OSM   H13B12426   3.707   1.145   6.947 -1.8475 -2.3537 -1.3259
  119OSM   H13C12427   3.825   1.240   6.853 -0.9271  3.5785 -4.4836
  119OSM    C1212428   3.656   1.350   6.679 -0.1918  0.4461  0.4307
  119OSM   H12A12429   3.660   1.256   6.627 -1.9082 -0.7500  2.2912
  119OSM   H12B12430   3.754   1.390   6.658 -0.3082  0.1840 -0.6673
  119OSM    C1112431   3.556   1.451   6.618  0.2036  0.3699 -0.1839
  119OSM   H11A12432   3.602   1.475   6.519 -1.1737  1.4897 -0.5856
  119OSM   H11B12433   3.548   1.542   6.681 -0.1004 -1.0787  1.9498
  119OSM      P12434   3.388   1.315   6.482 -0.3792  0.1861  0.4969
  119OSM    O1312435   3.484   1.204   6.479  0.1640 -0.7877  0.3395
  119OSM    O1412436   3.246   1.278   6.485 -0.3297  0.1210 -0.0981
  119OSM    O1112437   3.415   1.422   6.363 -0.0621 -0.2011 -0.0734
  119OSM    O1212438   3.423   1.392   6.614  0.2564 -0.1350 -0.5009
  119OSM    C1S12439   3.377   1.564   6.362  0.2745 -0.0808  0.0446
  119OSM    H1S12440   3.460   1.613   6.417 -1.1175  1.3499  0.9341
  119OSM    H1T12441   3.292   1.582   6.430 -0.7158 -1.3706 -0.7912
  119OSM     NF12442   3.321   1.774   6.243 -0.0909  0.2446 -0.6475
  119OSM    HNF12443   3.223   1.792   6.240  0.0883  1.1740 -1.2515
  119OSM    C2S12444   3.362   1.637   6.225  0.8473 -0.1296 -0.6088
  119OSM    H2S12445   3.460   1.640   6.172  1.7880  1.3574  1.0875
  119OSM    C3S12446   3.259   1.547   6.138  0.0247  0.9765  0.0485
  119OSM    H3S12447   3.165   1.539   6.198 -0.3182 -0.3681 -0.6154
  119OSM     O312448   3.292   1.401   6.121  1.1710 -0.1225  0.6100
  119OSM    HO312449   3.373   1.389   6.171  2.3539  2.9663 -0.3258
  119OSM    C4S12450   3.230   1.614   6.004  0.7687 -0.1805 -0.2325
  119OSM    H4S12451   3.131   1.662   6.016  0.6167 -1.0149  2.3972
  119OSM    C5S12452   3.278   1.607   5.878 -0.4827 -0.3872  0.4637
  119OSM    H5S12453   3.361   1.538   5.860  0.0213  0.2836  0.1432
  119OSM    C6S12454   3.242   1.686   5.759  0.5064  0.1125 -0.5931
  119OSM    H6S12455   3.299   1.781   5.771 -1.1419  1.0526  0.2856
  119OSM    H6T12456   3.136   1.717   5.776 -0.0125 -2.2450  0.8730
  119OSM    C7S12457   3.257   1.610   5.627 -0.1871  0.0057 -0.0449
  119OSM    H7S12458   3.201   1.514   5.630  1.1568 -0.8024 -0.1482
  119OSM    H7T12459   3.362   1.582   5.604 -0.3447 -0.7656  0.1541
  119OSM    C8S12460   3.201   1.687   5.508 -0.1692  0.0158 -0.5710
  119OSM    H8S12461   3.234   1.793   5.509 -0.9466  0.2655  1.3964
  119OSM    H8T12462   3.092   1.688   5.526 -0.8508  1.1738 -4.0281
  119OSM    C9S12463   3.233   1.629   5.365 -0.7700 -0.0647  0.0375
  119OSM    H9S12464   3.246   1.520   5.382  0.7559  0.2054  0.8764
  119OSM    H9T12465   3.331   1.673   5.338 -0.1949 -1.3528 -0.0598
  119OSM   C10S12466   3.129   1.659   5.264  0.1281 -0.4697 -0.9270
  119OSM   H10S12467   3.115   1.768   5.256 -1.9982 -0.6627 -0.3058
  119OSM   H10T12468   3.029   1.621   5.294  0.3678 -1.7088 -1.6359
  119OSM   C11S12469   3.173   1.600   5.131  0.1937  0.2830  0.6602
  119OSM   H11S12470   3.198   1.492   5.143 -0.0261  0.3506  1.7987
  119OSM   H11T12471   3.278   1.625   5.104 -0.1115  0.8687 -0.0167
  119OSM   C12S12472   3.087   1.634   5.010  0.1287 -0.2218 -0.4138
  119OSM   H12S12473   3.093   1.742   4.983  1.5407  0.3344  1.8299
  119OSM   H12T12474   2.982   1.613   5.040  0.6827  1.2621  3.1447
  119OSM   C13S12475   3.124   1.545   4.883  0.0296 -0.1897 -0.7510
  119OSM   H13S12476   3.163   1.450   4.926  1.4328  0.5244 -0.3708
  119OSM   H13T12477   3.216   1.588   4.838 -0.2892 -0.2990 -1.5296
  119OSM   C14S12478   3.016   1.521   4.779  0.5803  0.5290  0.2064
  119OSM   H14S12479   2.987   1.616   4.729 -0.1797 -0.3672 -1.1345
  119OSM   H14T12480   2.922   1.483   4.826  0.7769  0.3415  0.4517
  119OSM   C15S12481   3.063   1.407   4.678 -0.3505 -0.2130 -0.9337
  119OSM   H15S12482   3.103   1.331   4.748  1.6465 -0.3609 -2.1304
  119OSM   H15T12483   3.149   1.447   4.619 -1.6652  1.4866 -1.8130
  119OSM   C16S12484   2.944   1.352   4.595  0.4230 -0.0075  0.2854
  119OSM   H16S12485   2.899   1.441   4.545 -0.8782 -0.9876 -0.3436
  119OSM   H16T12486   2.880   1.289   4.660  1.6096 -0.9319  0.5886
  119OSM   C17S12487   2.985   1.253   4.486  0.6665 -0.0734 -0.8596
  119OSM   H17S12488   3.051   1.176   4.531 -1.4368 -0.2941  2.1385
  119OSM   H17T12489   3.056   1.278   4.404  0.5883 -1.2551 -1.3077
  119OSM   C18S12490   2.863   1.189   4.426  0.4338  0.6010  0.1390
  119OSM   H18S12491   2.802   1.140   4.505  1.4982 -0.6547  0.2064
  119OSM   H18T12492   2.893   1.121   4.344 -0.6478 -0.1525  0.3527
  119OSM   H18U12493   2.793   1.271   4.398 -1.4908  0.2761  3.4094
  119OSM    C1F12494   3.411   1.869   6.270 -0.0495  0.8302  0.3104
  119OSM     OF12495   3.531   1.849   6.295 -0.0663  0.4572 -0.1851
  119OSM    C2F12496   3.353   2.005   6.288  0.8078  0.2896 -0.4143
  119OSM    H2F12497   3.332   2.016   6.397  2.8176  2.5533 -0.1630
  119OSM    H2G12498   3.256   2.007   6.234  0.6106 -0.7437 -0.1337
  119OSM    C3F12499   3.441   2.113   6.236 -0.4410 -0.6283  0.1521
  119OSM    H3F12500   3.517   2.126   6.316  0.4368 -1.2392 -0.5597
  119OSM    H3G12501   3.395   2.213   6.230 -1.0003 -0.7029  2.3847
  119OSM    C4F12502   3.520   2.080   6.105  0.4086 -0.1009 -0.3770
  119OSM    H4F12503   3.595   1.999   6.117  0.1561 -0.2706  0.0801
  119OSM    H4G12504   3.578   2.169   6.076  1.0181 -0.1489  0.6487
  119OSM    C5F12505   3.434   2.052   5.972  0.3690  0.9881  0.0278
  119OSM    H5F12506   3.371   2.143   5.964 -0.8877  0.0051 -2.5952
  119OSM    H5G12507   3.371   1.963   5.990  0.3146  0.8926 -0.5883
  119OSM    C6F12508   3.524   2.036   5.853  0.3865  0.1644 -0.4514
  119OSM    H6F12509   3.592   2.123   5.843  1.4137 -0.5751 -0.1345
  119OSM    H6G12510   3.463   2.026   5.760  2.4274 -0.6684 -1.7754
  119OSM    C7F12511   3.616   1.913   5.861  0.3737 -0.1482  0.5751
  119OSM    H7F12512   3.553   1.826   5.889  0.5902  0.1625  2.1016
  119OSM    H7G12513   3.692   1.917   5.941 -0.5410 -2.6625  1.6781
  119OSM    C8F12514   3.694   1.882   5.731 -0.1509 -0.3346  0.1281
  119OSM    H8F12515   3.755   1.795   5.764 -2.0686 -0.8280  2.7293
  119OSM    H8G12516   3.758   1.968   5.701 -0.7009 -0.0581 -0.2804
  119OSM    C9F12517   3.605   1.838   5.619  0.2260 -0.2766 -0.4025
  119OSM    H9F12518   3.542   1.758   5.661  0.2286  1.1757  2.6461
  119OSM   C10F12519   3.577   1.900   5.502 -0.0868 -0.0668  0.3434
  119OSM   H10F12520   3.521   1.834   5.433 -2.0907 -2.3020  3.7695
  119OSM   C11F12521   3.637   2.015   5.438 -0.1502 -0.0653 -0.8901
  119OSM   H11F12522   3.645   2.095   5.514 -0.9502 -1.3308  0.5861
  119OSM   H11G12523   3.575   2.064   5.359  2.3049  2.6747 -1.2847
  119OSM   C12F12524   3.784   2.018   5.387  0.0748  0.4926  0.4651
  119OSM   H12F12525   3.840   1.958   5.462  1.6836  1.8975  0.4442
  119OSM   H12G12526   3.830   2.117   5.407  2.7107 -0.5201 -0.1196
  119OSM   C13F12527   3.804   1.954   5.250  0.6555  0.6124  0.1485
  119OSM   H13F12528   3.741   2.008   5.176  0.3734  1.8843  1.2629
  119OSM   H13G12529   3.766   1.850   5.260  0.1364  0.8396  0.6231
  119OSM   C14F12530   3.952   1.942   5.206  0.3631 -0.3467 -0.0247
  119OSM   H14F12531   4.007   1.893   5.289 -0.4393  0.2750  0.8845
  119OSM   H14G12532   3.998   2.040   5.180  1.8080 -1.4405 -1.9252
  119OSM   C15F12533   3.979   1.859   5.079 -0.4452 -0.2237  0.1732
  119OSM   H15F12534   3.967   1.749   5.089 -0.3997 -0.2530 -0.1097
  119OSM   H15G12535   4.088   1.862   5.060 -0.3213 -1.2667  0.6413
  119OSM   C16F12536   3.895   1.894   4.953 -0.0265 -0.4431 -0.0557
  119OSM   H16F12537   3.901   2.002   4.930 -2.6615 -0.3377 -0.4699
  119OSM   H16G12538   3.786   1.881   4.971 -0.1775  0.8523  0.0091
  119OSM   C17F12539   3.940   1.819   4.830 -0.0404  0.6532  0.4656
  119OSM   H17F12540   3.956   1.714   4.864  1.2030  0.1669 -1.4342
  119OSM   H17G12541   4.036   1.866   4.798 -1.0657  2.4254 -0.1163
  119OSM   C18F12542   3.840   1.838   4.711  0.3516  0.4948 -0.7955
  119OSM   H18F12543   3.744   1.782   4.714  0.7792 -0.2627 -1.1863
  119OSM   H18G12544   3.887   1.817   4.613  1.5275  0.4616 -0.2425
  119OSM   H18H12545   3.810   1.945   4.717  0.3735  0.5150 -1.0343
  120OSM      N12546   0.443   3.879   6.665 -0.4854 -0.2505  0.5345
  120OSM    C1512547   0.364   3.835   6.542 -0.7463 -0.1394 -0.6221
  120OSM   H15A12548   0.318   3.739   6.557 -0.7602 -0.1739 -0.8770
  120OSM   H15B12549   0.428   3.833   6.455  0.2264 -1.0055  0.0863
  120OSM   H15C12550   0.276   3.896   6.529  0.0932  1.1238 -0.5841
  120OSM    C1412551   0.480   3.746   6.729 -1.1618  0.2919  0.5273
  120OSM   H14A12552   0.527   3.688   6.651 -0.8059 -0.2335  1.1215
  120OSM   H14B12553   0.393   3.690   6.762 -0.3655 -1.1844  0.2410
  120OSM   H14C12554   0.553   3.758   6.807 -0.9950 -0.1851  0.4460
  120OSM    C1312555   0.560   3.959   6.621  0.2235 -0.0982 -0.1114
  120OSM   H13A12556   0.534   4.048   6.566 -2.8670 -1.0105 -0.3328
  120OSM   H13B12557   0.631   3.891   6.576 -0.3726 -1.5846  1.0814
  120OSM   H13C12558   0.604   4.006   6.707  0.6663  1.4165 -1.1160
  120OSM    C1212559   0.363   3.953   6.769 -0.2432 -1.0633 -0.2595
  120OSM   H12A12560   0.310   4.032   6.718  0.1332 -1.2133 -0.8948
  120OSM   H12B12561   0.427   4.012   6.834  3.0877 -1.7941 -2.6204
  120OSM    C1112562   0.260   3.879   6.857  0.1126 -0.1480  0.3062
  120OSM   H11A12563   0.214   3.963   6.914 -0.8207  0.0710 -0.7403
  120OSM   H11B12564   0.314   3.801   6.915  1.0865 -0.0024 -0.3919
  120OSM      P12565   0.052   3.725   6.839  0.3748 -0.0764  0.3918
  120OSM    O1312566   0.096   3.583   6.826  0.2478 -0.3620 -0.3408
  120OSM    O1412567   0.008   3.773   6.971 -0.5226  0.2462  0.8330
  120OSM    O1112568  -0.071   3.734   6.747  0.3564  0.0842  0.0061
  120OSM    O1212569   0.157   3.822   6.770 -0.3977  0.1426  0.7475
  120OSM    C1S12570  -0.128   3.857   6.697  0.6214  0.0188  0.1515
  120OSM    H1S12571  -0.107   3.935   6.773  1.2671  1.1802 -1.1667
  120OSM    H1T12572  -0.238   3.844   6.699  0.8305 -2.2225  0.5711
  120OSM     NF12573  -0.141   4.030   6.505  0.5045  0.7225 -0.0940
  120OSM    HNF12574  -0.231   4.044   6.465  0.1811 -0.5698  0.1285
  120OSM    C2S12575  -0.096   3.895   6.548  0.1433 -0.0047  0.4348
  120OSM    H2S12576   0.015   3.896   6.539  0.1046 -2.3873 -1.5976
  120OSM    C3S12577  -0.142   3.780   6.449 -0.1066  0.6787  0.1516
  120OSM    H3S12578  -0.252   3.791   6.437  0.0725  0.6337 -1.7134
  120OSM     O312579  -0.129   3.648   6.507 -0.5163 -0.7190 -0.0229
  120OSM    HO312580  -0.119   3.672   6.600 -1.3971  1.4454 -0.4479
  120OSM    C4S12581  -0.084   3.780   6.308 -0.1338 -0.4099  0.6322
  120OSM    H4S12582   0.026   3.779   6.305 -0.1468 -1.9558 -0.4678
  120OSM    C5S12583  -0.169   3.777   6.199  0.2407  0.4138  0.4274
  120OSM    H5S12584  -0.278   3.778   6.208 -0.0280  0.2345 -1.9874
  120OSM    C6S12585  -0.113   3.793   6.059  0.0425  0.4006  0.5885
  120OSM    H6S12586  -0.159   3.879   6.005  1.7623  0.8005 -0.3430
  120OSM    H6T12587  -0.150   3.712   5.993 -0.5019  1.4628 -0.4529
  120OSM    C7S12588   0.037   3.800   6.027  0.0668  0.3230  0.5486
  120OSM    H7S12589   0.101   3.735   6.090  2.8162 -1.6824 -3.8015
  120OSM    H7T12590   0.071   3.905   6.044 -1.4276  0.9292  0.0066
  120OSM    C8S12591   0.077   3.766   5.877 -0.1221 -0.7295 -0.6524
  120OSM    H8S12592   0.081   3.655   5.869  1.1981 -0.7520 -0.0167
  120OSM    H8T12593   0.179   3.806   5.856  1.1387 -3.5203 -0.4139
  120OSM    C9S12594  -0.023   3.815   5.767  0.1889  0.7666 -0.8219
  120OSM    H9S12595  -0.045   3.924   5.772  0.0479  0.6766  1.9681
  120OSM    H9T12596  -0.125   3.770   5.770  0.3476  0.4025  2.4624
  120OSM   C10S12597   0.033   3.786   5.623  0.8171  0.1144 -0.6740
  120OSM   H10S12598   0.054   3.677   5.613 -0.6147 -0.3983  1.2163
  120OSM   H10T12599   0.126   3.846   5.627 -0.1482  1.6196  0.0129
  120OSM   C11S12600  -0.049   3.837   5.510  0.1636  0.4889  0.3576
  120OSM   H11S12601  -0.060   3.945   5.533 -1.8144 -0.2228  3.3015
  120OSM   H11T12602  -0.152   3.797   5.504  0.7722 -1.0493 -0.5706
  120OSM   C12S12603   0.020   3.823   5.374 -0.3263 -0.0980 -0.7014
  120OSM   H12S12604   0.050   3.718   5.354 -0.1535 -0.6260  1.9317
  120OSM   H12T12605   0.114   3.881   5.385 -0.7067  0.5725 -0.9259
  120OSM   C13S12606  -0.060   3.875   5.251 -0.8758 -0.5654  0.3612
  120OSM   H13S12607  -0.100   3.975   5.280 -1.0553 -0.5422  0.0398
  120OSM   H13T12608  -0.151   3.816   5.224 -0.5310 -0.7534 -0.4209
  120OSM   C14S12609   0.025   3.892   5.122 -0.2194  0.4242  0.6671
  120OSM   H14S12610   0.080   3.797   5.106 -1.6754 -0.5610  1.2637
  120OSM   H14T12611   0.097   3.976   5.124 -0.1389  0.4574 -1.2082
  120OSM   C15S12612  -0.063   3.887   4.989 -0.0069  0.2266  0.1489
  120OSM   H15S12613  -0.107   3.788   4.966  0.8301 -0.0275 -0.4045
  120OSM   H15T12614  -0.001   3.915   4.902  0.5264  1.1464  0.8098
  120OSM   C16S12615  -0.184   3.988   4.986  0.3092  0.8376 -0.1518
  120OSM   H16S12616  -0.248   3.979   5.076 -1.5226  3.4816 -1.0541
  120OSM   H16T12617  -0.257   3.961   4.907 -0.5863  0.9280  0.6390
  120OSM   C17S12618  -0.137   4.130   4.982  0.0553 -0.5124 -0.1564
  120OSM   H17S12619  -0.071   4.140   4.893 -2.6633 -1.2303 -2.4025
  120OSM   H17T12620  -0.080   4.147   5.076 -2.2008 -0.2279  1.2127
  120OSM   C18S12621  -0.251   4.231   4.961 -0.0381 -0.1016 -0.5309
  120OSM   H18S12622  -0.214   4.329   4.996 -1.4789 -0.4610  2.2052
  120OSM   H18T12623  -0.334   4.207   5.030  0.9031  1.7992  1.3528
  120OSM   H18U12624  -0.289   4.236   4.856 -1.2487 -1.1142 -0.1727
  120OSM    C1F12625  -0.105   4.141   6.564 -0.2612  0.0441  0.4357
  120OSM     OF12626  -0.018   4.137   6.657  0.4894  0.3062  0.6512
  120OSM    C2F12627  -0.174   4.269   6.522 -0.2115 -0.4022 -0.3699
  120OSM    H2F12628  -0.174   4.334   6.612  1.1321  1.4922 -1.6558
  120OSM    H2G12629  -0.283   4.264   6.504 -0.2292  0.6503 -0.6172
  120OSM    C3F12630  -0.095   4.354   6.407 -0.3429  0.6287  0.0862
  120OSM    H3F12631  -0.004   4.401   6.450 -0.9363  1.6233  0.2950
  120OSM    H3G12632  -0.164   4.440   6.392 -0.3601  0.4933 -0.6137
  120OSM    C4F12633  -0.063   4.283   6.271 -0.2239  0.0708 -0.2346
  120OSM    H4F12634  -0.024   4.183   6.296  1.1135  1.0522  1.8749
  120OSM    H4G12635   0.019   4.333   6.216 -0.0972  0.0750 -0.0419
  120OSM    C5F12636  -0.185   4.267   6.170  0.0333  0.4759 -0.0301
  120OSM    H5F12637  -0.192   4.370   6.131 -0.7302  1.1845  1.8280
  120OSM    H5G12638  -0.280   4.235   6.219 -0.2953 -0.4072 -1.1946
  120OSM    C6F12639  -0.149   4.155   6.057 -0.5098  0.2435 -0.5801
  120OSM    H6F12640  -0.138   4.059   6.112  1.7206  1.0797  0.5375
  120OSM    H6G12641  -0.049   4.177   6.014 -0.6627  1.9537 -0.1430
  120OSM    C7F12642  -0.253   4.140   5.948 -0.6117 -0.3015  0.3357
  120OSM    H7F12643  -0.217   4.063   5.877  1.4142  0.0844  0.8743
  120OSM    H7G12644  -0.244   4.230   5.883  0.9605  0.8260  1.9980
  120OSM    C8F12645  -0.394   4.130   5.985  0.6363 -0.0546  0.1346
  120OSM    H8F12646  -0.462   4.157   5.900 -0.3555 -1.5163  0.4349
  120OSM    H8G12647  -0.416   4.208   6.061  0.8586 -0.0404  0.1841
  120OSM    C9F12648  -0.427   3.998   6.040 -0.1991 -0.3731 -0.4967
  120OSM    H9F12649  -0.387   3.979   6.140 -0.1020 -0.1762 -0.4991
  120OSM   C10F12650  -0.532   3.916   6.014 -0.2387  0.5407  0.0513
  120OSM   H10F12651  -0.539   3.818   6.064  1.6428 -0.7040 -1.9378
  120OSM   C11F12652  -0.621   3.940   5.895  0.1657  0.1403  0.0874
  120OSM   H11F12653  -0.624   4.046   5.862  0.2943 -0.1841 -0.9706
  120OSM   H11G12654  -0.724   3.910   5.925  1.2673 -1.0922  3.0428
  120OSM   C12F12655  -0.574   3.842   5.785 -0.3752  0.1147  0.3601
  120OSM   H12F12656  -0.594   3.735   5.808  2.4017 -0.8388 -1.0642
  120OSM   H12G12657  -0.463   3.852   5.777 -0.5870  3.2059  0.1180
  120OSM   C13F12658  -0.636   3.868   5.644 -0.6131 -0.2801 -0.8737
  120OSM   H13F12659  -0.736   3.912   5.663  0.1170  1.2929 -0.5550
  120OSM   H13G12660  -0.640   3.767   5.597  2.0118 -1.7248  1.6614
  120OSM   C14F12661  -0.565   3.970   5.551 -0.3244  0.1124 -0.0296
  120OSM   H14F12662  -0.543   4.067   5.601  0.5428 -1.3914  2.7161
  120OSM   H14G12663  -0.631   4.001   5.467 -0.3992 -1.1720 -0.4694
  120OSM   C15F12664  -0.442   3.919   5.477  0.0421 -0.6572  0.0641
  120OSM   H15F12665  -0.476   3.826   5.426 -1.3259 -0.6213  0.8563
  120OSM   H15G12666  -0.363   3.886   5.547 -0.8175  0.7372  1.7767
  120OSM   C16F12667  -0.395   4.023   5.377 -0.1850 -1.3021 -0.3655
  120OSM   H16F12668  -0.473   4.050   5.304  0.8843  0.2280 -0.9958
  120OSM   H16G12669  -0.324   3.970   5.310 -0.9180 -0.8104 -1.5381
  120OSM   C17F12670  -0.328   4.144   5.450  0.4197  0.8197 -0.1313
  120OSM   H17F12671  -0.255   4.109   5.526 -1.4616 -0.5777  1.1075
  120OSM   H17G12672  -0.396   4.194   5.522 -0.3564  0.8222 -0.8455
  120OSM   C18F12673  -0.276   4.253   5.359  0.0681  0.5563  0.0504
  120OSM   H18F12674  -0.200   4.213   5.288 -0.5374 -0.2432 -0.1740
  120OSM   H18G12675  -0.226   4.333   5.417  1.2838 -0.4219  0.3835
  120OSM   H18H12676  -0.371   4.284   5.310 -0.3284  0.9370  1.0371
  121OSM      N12677   5.722   0.892   6.802 -0.6997  0.3453 -0.5275
  121OSM    C1512678   5.836   0.952   6.860 -0.6494 -0.0988  0.6152
  121OSM   H15A12679   5.927   0.894   6.859  0.0156  0.8457 -1.9298
  121OSM   H15B12680   5.828   0.971   6.966  1.8152 -0.7921  0.9951
  121OSM   H15C12681   5.849   1.051   6.817  2.7770  0.1598  1.9307
  121OSM    C1412682   5.727   0.752   6.844  0.8376  0.7830  0.2277
  121OSM   H14A12683   5.640   0.694   6.817  1.7136 -0.3362 -0.2648
  121OSM   H14B12684   5.734   0.750   6.952 -1.4027 -0.9369  0.4179
  121OSM   H14C12685   5.811   0.702   6.800  0.0007 -0.5774  0.1149
  121OSM    C1312686   5.598   0.955   6.865  0.3427 -0.3615 -0.2768
  121OSM   H13A12687   5.609   0.939   6.971  3.9663  1.5119 -0.2240
  121OSM   H13B12688   5.519   0.894   6.823  0.2328  0.5489 -1.4505
  121OSM   H13C12689   5.590   1.060   6.840  2.1137 -0.3514 -0.9195
  121OSM    C1212690   5.724   0.903   6.649  0.9642  0.3639 -0.3819
  121OSM   H12A12691   5.697   1.003   6.617  0.1981 -0.0288 -0.9936
  121OSM   H12B12692   5.645   0.850   6.598 -1.3590  3.2917 -0.1041
  121OSM    C1112693   5.852   0.855   6.569 -0.6562 -0.4901  0.3535
  121OSM   H11A12694   5.941   0.895   6.621 -0.2337 -0.1996 -0.5717
  121OSM   H11B12695   5.845   0.890   6.464  0.1430  0.5605  0.6406
  121OSM      P12696   6.008   0.646   6.527 -0.4474  0.0830 -0.6197
  121OSM    O1312697   6.093   0.618   6.643 -0.0454  0.2853  0.1830
  121OSM    O1412698   5.974   0.524   6.450  0.4415  0.1523 -0.0606
  121OSM    O1112699   6.080   0.750   6.432 -0.0422 -0.4393  0.1274
  121OSM    O1212700   5.877   0.715   6.569  0.0489  0.4671  0.4342
  121OSM    C1S12701   6.131   0.713   6.302  0.8181  0.0650 -1.1342
  121OSM    H1S12702   6.130   0.604   6.281  1.7700  0.1570 -1.7340
  121OSM    H1T12703   6.237   0.743   6.290  0.9949 -0.1116 -0.0772
  121OSM     NF12704   6.081   0.759   6.054 -0.1965  0.1145 -0.4144
  121OSM    HNF12705   6.142   0.825   6.012  1.8087 -0.9135  0.6958
  121OSM    C2S12706   6.035   0.784   6.195  0.0616  0.5434 -0.1017
  121OSM    H2S12707   5.931   0.746   6.208 -0.8621  3.0809  0.6055
  121OSM    C3S12708   6.028   0.939   6.221  0.1792  0.0747 -0.2626
  121OSM    H3S12709   6.122   0.978   6.178  0.1963 -0.9233 -1.1570
  121OSM     O312710   6.052   0.984   6.357 -0.8471  0.1480  0.0536
  121OSM    HO312711   6.087   0.909   6.404 -0.6835  1.6486  2.4755
  121OSM    C4S12712   5.917   1.008   6.162  0.5341  0.1717 -0.6317
  121OSM    H4S12713   5.942   1.023   6.056  2.1084  2.1275 -0.0326
  121OSM    C5S12714   5.801   1.053   6.216 -0.4706  0.0159  0.2930
  121OSM    H5S12715   5.783   1.034   6.323  1.2586 -1.5603  0.3774
  121OSM    C6S12716   5.693   1.122   6.139 -0.3295  0.8008  0.4940
  121OSM    H6S12717   5.684   1.228   6.170 -0.5225  0.2667  2.3383
  121OSM    H6T12718   5.595   1.071   6.153  0.0522 -0.6070 -1.5298
  121OSM    C7S12719   5.711   1.149   5.990  0.0741 -0.1234  0.7319
  121OSM    H7S12720   5.728   1.054   5.936 -0.7011  0.2447 -0.1709
  121OSM    H7T12721   5.805   1.208   5.978  0.0719  0.3110  2.5125
  121OSM    C8S12722   5.587   1.219   5.939  0.5732  0.2104 -0.2414
  121OSM    H8S12723   5.569   1.309   6.001  0.8102 -0.5765  0.9989
  121OSM    H8T12724   5.494   1.160   5.957 -1.0172  2.0818 -1.7277
  121OSM    C9S12725   5.594   1.254   5.796 -0.3844  0.1691  0.0199
  121OSM    H9S12726   5.492   1.263   5.751  0.4806 -1.1085 -2.3789
  121OSM    H9T12727   5.642   1.183   5.725 -0.8249 -0.0154 -0.1001
  121OSM   C10S12728   5.651   1.390   5.775 -0.2283 -0.3747 -0.0692
  121OSM   H10S12729   5.762   1.394   5.782 -0.2985  3.0897  0.5604
  121OSM   H10T12730   5.609   1.452   5.857  1.5936  0.2348  0.4432
  121OSM   C11S12731   5.611   1.455   5.646  0.5724  0.0128 -0.0692
  121OSM   H11S12732   5.651   1.559   5.648 -1.1961  0.7679 -1.4754
  121OSM   H11T12733   5.502   1.455   5.625  0.4609  0.6299  0.4598
  121OSM   C12S12734   5.689   1.394   5.527  0.4479 -0.0053  0.0040
  121OSM   H12S12735   5.709   1.288   5.556 -0.6948 -0.0205  0.7843
  121OSM   H12T12736   5.791   1.438   5.527  0.7809 -0.6998  1.2282
  121OSM   C13S12737   5.624   1.410   5.393 -0.1394  0.2486 -0.5659
  121OSM   H13S12738   5.612   1.516   5.362 -2.0402  0.2592  0.0767
  121OSM   H13T12739   5.518   1.382   5.411  0.5180 -1.1152  1.5169
  121OSM   C14S12740   5.704   1.336   5.288 -0.2204  0.3060  0.5543
  121OSM   H14S12741   5.685   1.229   5.312 -1.0604 -0.1300 -1.8074
  121OSM   H14T12742   5.814   1.350   5.294 -0.3979  2.1647  0.1799
  121OSM   C15S12743   5.672   1.362   5.138 -0.1275 -0.1682  0.1734
  121OSM   H15S12744   5.566   1.331   5.126  0.1705 -1.2588  0.1860
  121OSM   H15T12745   5.744   1.303   5.077 -1.2505 -0.9474 -0.4374
  121OSM   C16S12746   5.709   1.506   5.096  0.7102 -0.0703  1.0653
  121OSM   H16S12747   5.818   1.522   5.090  0.8142 -0.9996 -0.0745
  121OSM   H16T12748   5.669   1.580   5.168 -2.1528 -0.3127 -0.1141
  121OSM   C17S12749   5.657   1.546   4.950  0.0850 -0.0284  0.0670
  121OSM   H17S12750   5.685   1.651   4.929 -0.4740  0.3255  1.0336
  121OSM   H17T12751   5.548   1.527   4.935  0.4850 -2.6194 -0.0126
  121OSM   C18S12752   5.711   1.445   4.846  0.4068 -0.3052 -0.2874
  121OSM   H18S12753   5.660   1.348   4.863  0.6386 -0.7224 -1.8115
  121OSM   H18T12754   5.821   1.436   4.850  0.3262 -1.3042  0.0465
  121OSM   H18U12755   5.688   1.474   4.741 -0.2927 -1.8367 -0.5948
  121OSM    C1F12756   6.055   0.643   5.995 -0.2058  0.5372 -0.3369
  121OSM     OF12757   5.997   0.557   6.060 -0.1800  0.0834 -0.1087
  121OSM    C2F12758   6.093   0.620   5.851  0.7668  0.1623 -0.0962
  121OSM    H2F12759   6.204   0.621   5.856  0.7296  0.7104  1.0269
  121OSM    H2G12760   6.056   0.707   5.794  0.7405  1.2404  1.4883
  121OSM    C3F12761   6.060   0.479   5.787  0.0310 -0.2220 -0.3307
  121OSM    H3F12762   5.950   0.465   5.788 -0.2360  1.6093 -0.9223
  121OSM    H3G12763   6.112   0.402   5.848  0.5600  0.8632  0.6152
  121OSM    C4F12764   6.130   0.472   5.653  0.2176  0.0227 -0.1172
  121OSM    H4F12765   6.084   0.390   5.595  0.2586  0.2504 -0.4770
  121OSM    H4G12766   6.237   0.442   5.659  0.2266  0.3438  2.0930
  121OSM    C5F12767   6.135   0.603   5.565 -0.5100  0.1761 -0.2921
  121OSM    H5F12768   6.228   0.651   5.603  0.3778 -0.5198 -1.5095
  121OSM    H5G12769   6.044   0.662   5.590  0.0883 -0.3113  3.7042
  121OSM    C6F12770   6.153   0.574   5.419  0.0000 -0.3683  0.3431
  121OSM    H6F12771   6.130   0.466   5.408 -0.4865 -0.2967  0.6487
  121OSM    H6G12772   6.260   0.584   5.389  0.3410 -0.9995  1.3012
  121OSM    C7F12773   6.062   0.641   5.314 -0.0596 -0.0239 -0.1664
  121OSM    H7F12774   6.059   0.751   5.327 -1.9431  0.1193 -1.3987
  121OSM    H7G12775   5.961   0.596   5.322  0.3000 -0.9031 -0.3651
  121OSM    C8F12776   6.111   0.611   5.170 -0.4322  0.0415  0.1871
  121OSM    H8F12777   6.105   0.505   5.137  1.3832  0.5116 -1.8970
  121OSM    H8G12778   6.217   0.639   5.156 -0.9871  1.1882 -2.3872
  121OSM    C9F12779   6.040   0.692   5.064  0.5237  0.5666 -0.0489
  121OSM    H9F12780   5.942   0.721   5.104 -0.4589  1.5142 -2.8725
  121OSM   C10F12781   6.081   0.725   4.938 -0.2081  0.3411  0.1109
  121OSM   H10F12782   6.013   0.787   4.878  1.8709  1.8786 -0.7820
  121OSM   C11F12783   6.204   0.686   4.867 -0.7842  0.0143  0.2158
  121OSM   H11F12784   6.229   0.579   4.887  1.7461  0.4032 -0.5229
  121OSM   H11G12785   6.291   0.753   4.888 -0.5732 -0.4225  0.7627
  121OSM   C12F12786   6.172   0.712   4.721 -0.1308  0.0002 -0.8265
  121OSM   H12F12787   6.162   0.818   4.688  0.5898  0.1891 -0.4751
  121OSM   H12G12788   6.085   0.657   4.680 -0.2009  0.6241 -1.5383
  121OSM   C13F12789   6.296   0.666   4.641 -0.5012 -0.1622 -0.1275
  121OSM   H13F12790   6.323   0.562   4.669  0.0717  0.2019  0.7293
  121OSM   H13G12791   6.378   0.732   4.677  1.1824 -0.3913 -3.2301
  121OSM   C14F12792   6.286   0.682   4.492 -0.6036  0.2607  0.3394
  121OSM   H14F12793   6.275   0.787   4.455 -2.3103  0.5986  1.7098
  121OSM   H14G12794   6.198   0.622   4.462 -1.7052  0.3910  3.0095
  121OSM   C15F12795   6.405   0.612   4.422  0.8719 -0.0101  0.0092
  121OSM   H15F12796   6.373   0.606   4.316  0.4303  0.3264  0.1203
  121OSM   H15G12797   6.424   0.516   4.474  0.9079  0.1196  0.2410
  121OSM   C16F12798   6.525   0.707   4.420  0.4816  0.1259 -0.2950
  121OSM   H16F12799   6.487   0.806   4.389 -0.5169  0.2319  1.1616
  121OSM   H16G12800   6.597   0.679   4.340 -0.0806 -1.5253 -0.2782
  121OSM   C17F12801   6.615   0.692   4.538  0.3597  0.5949 -0.4242
  121OSM   H17F12802   6.684   0.606   4.522 -0.7666 -0.2250 -0.9592
  121OSM   H17G12803   6.572   0.655   4.633  0.0416  1.2252 -0.3160
  121OSM   C18F12804   6.700   0.816   4.575 -0.2448 -0.0525  0.4709
  121OSM   H18F12805   6.785   0.776   4.635  1.3435 -0.8684 -2.1344
  121OSM   H18G12806   6.638   0.898   4.615  1.0576  1.6931 -0.9150
  121OSM   H18H12807   6.732   0.841   4.472  0.7915 -2.3362  0.1595
  122OSM      N12808   0.849   5.184   6.747  0.1475  0.6526 -0.3926
  122OSM    C1512809   0.739   5.234   6.838 -0.0943 -0.0321  0.1979
  122OSM   H15A12810   0.653   5.169   6.842 -0.0451 -0.1387 -0.3690
  122OSM   H15B12811   0.701   5.331   6.811 -0.4991  0.0732  1.1088
  122OSM   H15C12812   0.758   5.238   6.945 -0.0561  0.7268  0.1685
  122OSM    C1412813   0.969   5.268   6.769  0.2238 -0.0467  0.2365
  122OSM   H14A12814   1.044   5.263   6.691 -1.3533  0.8875 -1.4336
  122OSM   H14B12815   1.017   5.232   6.858  1.0382 -1.0645 -0.5775
  122OSM   H14C12816   0.936   5.370   6.777 -1.7152 -0.5768 -0.4149
  122OSM    C1312817   0.881   5.045   6.775  0.1067  0.3086  0.3073
  122OSM   H13A12818   0.905   5.029   6.879 -2.6825  2.1264  1.3472
  122OSM   H13B12819   0.965   5.004   6.720  0.0725  0.8360 -0.1545
  122OSM   H13C12820   0.798   4.982   6.749  0.7905 -0.7500  0.6275
  122OSM    C1212821   0.799   5.200   6.600  0.3677 -0.2109 -0.2093
  122OSM   H12A12822   0.871   5.157   6.531 -1.8799  0.5284 -3.2415
  122OSM   H12B12823   0.798   5.304   6.569 -1.1594 -0.2790 -0.4554
  122OSM    C1112824   0.653   5.147   6.571 -0.5991 -0.5233 -0.2791
  122OSM   H11A12825   0.617   5.192   6.476  0.6046 -3.1402 -2.1102
  122OSM   H11B12826   0.583   5.180   6.651 -1.5052 -0.4447 -1.0766
  122OSM      P12827   0.513   4.934   6.577 -0.2262 -0.8725  0.0112
  122OSM    O1312828   0.531   4.789   6.587  0.3648  0.5779  0.3865
  122OSM    O1412829   0.437   5.003   6.691  0.8377  0.0064  0.2434
  122OSM    O1112830   0.460   4.974   6.433  0.6262  0.2676  0.0826
  122OSM    O1212831   0.657   5.005   6.573 -0.4994  0.5196 -0.1745
  122OSM    C1S12832   0.520   4.905   6.321  0.1064  0.0552 -0.2981
  122OSM    H1S12833   0.507   4.797   6.342  0.4220  0.2776  1.1430
  122OSM    H1T12834   0.631   4.917   6.322  0.4238 -2.3353  0.9617
  122OSM     NF12835   0.548   4.867   6.075 -0.5215 -0.2984  0.1671
  122OSM    HNF12836   0.595   4.920   6.004 -2.7236 -0.6867 -1.7088
  122OSM    C2S12837   0.474   4.944   6.176  1.3038  0.3385  0.5073
  122OSM    H2S12838   0.370   4.907   6.164  0.8216  1.3856  1.2777
  122OSM    C3S12839   0.476   5.102   6.148 -0.1446  0.3702 -0.4352
  122OSM    H3S12840   0.582   5.127   6.128 -0.4358  0.3202 -2.2342
  122OSM     O312841   0.445   5.182   6.266 -0.2529 -0.3717  0.6697
  122OSM    HO312842   0.450   5.124   6.342 -1.9487 -2.7478 -0.8597
  122OSM    C4S12843   0.388   5.130   6.023 -0.5724  1.0078 -0.1144
  122OSM    H4S12844   0.452   5.150   5.936 -0.1898  0.4512  0.0353
  122OSM    C5S12845   0.252   5.138   6.024  0.2451 -0.8166  0.1152
  122OSM    H5S12846   0.196   5.138   6.119  0.9785  0.2294  0.5637
  122OSM    C6S12847   0.166   5.185   5.907  0.8005  0.2868 -0.6140
  122OSM    H6S12848   0.071   5.232   5.943  1.0285  0.5955 -0.4086
  122OSM    H6T12849   0.135   5.089   5.860  0.3250 -0.0850  0.4389
  122OSM    C7S12850   0.233   5.263   5.797  0.6292 -0.4323  0.1955
  122OSM    H7S12851   0.171   5.276   5.705  0.6379  3.1387  0.5704
  122OSM    H7T12852   0.325   5.215   5.757 -0.0839 -1.6051 -0.1023
  122OSM    C8S12853   0.274   5.403   5.836 -0.1192 -0.2837  0.0135
  122OSM    H8S12854   0.300   5.392   5.943  1.8524  0.9508 -0.2707
  122OSM    H8T12855   0.187   5.472   5.836  1.1039  1.3090  0.0231
  122OSM    C9S12856   0.403   5.464   5.761  0.1730  0.3516 -0.8257
  122OSM    H9S12857   0.473   5.378   5.754 -1.9969 -1.4698 -1.4122
  122OSM    H9T12858   0.435   5.546   5.829  0.3738 -0.1990 -0.2501
  122OSM   C10S12859   0.378   5.528   5.619  0.6226 -0.0393 -0.2251
  122OSM   H10S12860   0.327   5.626   5.633 -0.0131 -0.4346  0.2922
  122OSM   H10T12861   0.313   5.462   5.558  0.4523 -0.3526  0.2879
  122OSM   C11S12862   0.517   5.549   5.556  0.5843 -0.3795 -0.3613
  122OSM   H11S12863   0.574   5.454   5.564 -0.0060 -0.9597 -2.4711
  122OSM   H11T12864   0.573   5.625   5.615 -0.0506  0.0844 -0.3400
  122OSM   C12S12865   0.515   5.602   5.410 -0.2468  0.2442 -0.4415
  122OSM   H12S12866   0.617   5.622   5.372 -0.2036  0.4779 -0.2066
  122OSM   H12T12867   0.454   5.695   5.403  1.1918  1.0811 -2.6360
  122OSM   C13S12868   0.450   5.500   5.315 -0.4297 -0.1608 -0.4637
  122OSM   H13S12869   0.345   5.478   5.341 -0.9948  1.5901 -1.1014
  122OSM   H13T12870   0.515   5.409   5.319  0.6720  0.6435  1.3731
  122OSM   C14S12871   0.448   5.557   5.174  0.5334  0.1974  0.3384
  122OSM   H14S12872   0.533   5.624   5.149 -0.4763  0.2826 -3.3291
  122OSM   H14T12873   0.354   5.616   5.167 -1.0536 -2.1632  0.4844
  122OSM   C15S12874   0.444   5.457   5.053 -0.0699 -0.1793 -0.0211
  122OSM   H15S12875   0.351   5.396   5.052  0.7899 -1.6317  2.4450
  122OSM   H15T12876   0.536   5.397   5.069 -0.3981 -0.7951 -0.4149
  122OSM   C16S12877   0.430   5.525   4.914  0.5538 -1.0505 -0.7193
  122OSM   H16S12878   0.496   5.614   4.898 -0.2364 -0.9768 -4.2993
  122OSM   H16T12879   0.330   5.574   4.916  0.4143 -1.3011  1.8982
  122OSM   C17S12880   0.450   5.424   4.801 -0.4371  0.5320  0.5934
  122OSM   H17S12881   0.351   5.375   4.788  0.0016 -0.5105  1.1148
  122OSM   H17T12882   0.542   5.363   4.812 -1.0752 -1.0211 -1.7823
  122OSM   C18S12883   0.471   5.501   4.675  0.4052  0.0698 -0.0646
  122OSM   H18S12884   0.573   5.545   4.675  0.5445 -0.2435  0.5159
  122OSM   H18T12885   0.400   5.585   4.660 -2.1841 -2.3196 -2.5037
  122OSM   H18U12886   0.460   5.435   4.586 -0.2633 -1.2740  0.9832
  122OSM    C1F12887   0.544   4.735   6.058  0.4159  0.1964  0.9282
  122OSM     OF12888   0.468   4.672   6.129  0.2047  0.0908 -0.2422
  122OSM    C2F12889   0.636   4.665   5.959 -0.3771  0.6185 -0.1789
  122OSM    H2F12890   0.743   4.684   5.979 -0.4339  1.4406 -0.6185
  122OSM    H2G12891   0.615   4.691   5.853  0.3111 -2.7577 -1.2550
  122OSM    C3F12892   0.607   4.510   5.970  0.2683 -0.6067 -0.1729
  122OSM    H3F12893   0.498   4.490   5.967 -0.2271  1.9001 -0.4009
  122OSM    H3G12894   0.652   4.474   6.065  1.2121  0.9710  0.0142
  122OSM    C4F12895   0.652   4.432   5.840  0.4554 -0.9744  0.3794
  122OSM    H4F12896   0.605   4.331   5.835  0.0022 -0.7581  0.2493
  122OSM    H4G12897   0.762   4.420   5.839  0.1829 -4.3701  0.0571
  122OSM    C5F12898   0.633   4.490   5.701  0.2404 -0.0171  0.5643
  122OSM    H5F12899   0.706   4.569   5.672 -0.4994 -0.3093 -2.4977
  122OSM    H5G12900   0.530   4.529   5.693 -0.1794 -1.2208 -0.2160
  122OSM    C6F12901   0.631   4.369   5.595  0.5548 -0.1628 -0.3968
  122OSM    H6F12902   0.541   4.310   5.622  1.8975 -1.0293  2.7280
  122OSM    H6G12903   0.715   4.296   5.599  0.2035 -0.5610 -0.1012
  122OSM    C7F12904   0.610   4.420   5.452 -0.4706 -0.2137  0.7644
  122OSM    H7F12905   0.704   4.447   5.400 -0.4572  0.4471  1.1260
  122OSM    H7G12906   0.568   4.522   5.462  1.2444  0.6534 -0.4959
  122OSM    C8F12907   0.531   4.332   5.364 -0.0819 -0.0652 -1.3416
  122OSM    H8F12908   0.501   4.396   5.278 -0.4055 -0.2277 -1.3506
  122OSM    H8G12909   0.437   4.302   5.414  1.2663 -0.7526  0.9175
  122OSM    C9F12910   0.610   4.207   5.339 -0.4810 -0.4772 -0.0886
  122OSM    H9F12911   0.635   4.149   5.429  3.2339  2.9288  1.4069
  122OSM   C10F12912   0.671   4.175   5.221 -0.6170 -0.6034  0.3155
  122OSM   H10F12913   0.732   4.083   5.225  0.2999 -0.0235 -0.2080
  122OSM   C11F12914   0.669   4.248   5.085  0.5392 -0.4312  0.3055
  122OSM   H11F12915   0.764   4.277   5.037 -0.6848  1.0429 -1.3920
  122OSM   H11G12916   0.614   4.344   5.099  0.9638  0.7140 -4.2883
  122OSM   C12F12917   0.587   4.167   4.985 -0.0308  0.3972  0.1757
  122OSM   H12F12918   0.481   4.148   5.013 -0.2538  0.6127 -0.5139
  122OSM   H12G12919   0.634   4.068   4.968 -2.4084 -0.3526 -3.1398
  122OSM   C13F12920   0.588   4.230   4.842  0.4058  0.2364  0.3163
  122OSM   H13F12921   0.676   4.209   4.778  0.3088 -0.5218  0.4162
  122OSM   H13G12922   0.588   4.338   4.865  3.7506  0.0756  1.6045
  122OSM   C14F12923   0.461   4.206   4.760  0.2261  0.2017  0.5961
  122OSM   H14F12924   0.460   4.269   4.669  0.3994  1.1758  1.2634
  122OSM   H14G12925   0.377   4.237   4.826  0.5057 -0.0806  1.1002
  122OSM   C15F12926   0.444   4.057   4.734 -0.0559 -0.4818  0.7461
  122OSM   H15F12927   0.415   4.006   4.829 -1.3729  0.1219  0.6991
  122OSM   H15G12928   0.545   4.025   4.702  0.5348  1.2725  0.7549
  122OSM   C16F12929   0.332   4.023   4.635  1.0373  0.4866 -0.2370
  122OSM   H16F12930   0.349   3.922   4.592  0.3066 -0.4066  1.4469
  122OSM   H16G12931   0.332   4.094   4.550 -0.2072 -0.7777 -1.3334
  122OSM   C17F12932   0.188   4.016   4.702 -0.5110 -0.0486  0.1886
  122OSM   H17F12933   0.165   4.118   4.740 -0.6163  0.6633 -1.6547
  122OSM   H17G12934   0.187   3.952   4.792  0.1622  1.7217  1.5153
  122OSM   C18F12935   0.087   3.974   4.603  0.9343 -0.5138  0.5963
  122OSM   H18F12936   0.116   3.881   4.550  3.1834  0.2235  0.4105
  122OSM   H18G12937   0.079   4.056   4.528  3.4565 -0.5675  0.1686
  122OSM   H18H12938  -0.009   3.971   4.658 -0.2713  0.3875 -1.3223
  123OSM      N12939   3.475   3.975   1.922  0.3229 -0.3989 -0.4141
  123OSM    C1512940   3.599   4.056   1.957  0.5099 -0.2723 -0.4137
  123OSM   H15A12941   3.575   4.160   1.944  1.1068 -0.0340  0.3024
  123OSM   H15B12942   3.668   4.044   1.875  1.0973  1.7003 -0.2519
  123OSM   H15C12943   3.643   4.024   2.051  1.7214 -1.1133 -1.2344
  123OSM    C1412944   3.402   4.042   1.812  0.0952 -0.8525  0.0793
  123OSM   H14A12945   3.459   4.041   1.720  1.5003  1.2625  0.8670
  123OSM   H14B12946   3.367   4.139   1.843  0.0716 -1.1813  1.0996
  123OSM   H14C12947   3.316   3.980   1.792 -1.1641  0.8875 -0.1581
  123OSM    C1312948   3.520   3.834   1.878 -0.0183 -1.0725 -0.2088
  123OSM   H13A12949   3.590   3.790   1.947  2.6215 -0.9453 -2.5792
  123OSM   H13B12950   3.580   3.831   1.788  0.9770  2.2343  0.1877
  123OSM   H13C12951   3.432   3.771   1.879 -1.1378  0.4141 -0.4846
  123OSM    C1212952   3.384   3.978   2.045  0.4030  0.1509  0.1639
  123OSM   H12A12953   3.282   3.952   2.021  1.0909 -1.9938 -0.6847
  123OSM   H12B12954   3.383   4.082   2.076  2.1203  0.4133 -0.4904
  123OSM    C1112955   3.425   3.892   2.177  0.6160 -0.8151  0.2776
  123OSM   H11A12956   3.400   3.786   2.159 -0.2247 -0.3790 -1.3390
  123OSM   H11B12957   3.345   3.909   2.252 -0.8683 -4.6393 -0.2210
  123OSM      P12958   3.664   3.792   2.222 -0.2937  0.5549  0.1893
  123OSM    O1312959   3.640   3.697   2.113  0.2689  0.0336  0.2258
  123OSM    O1412960   3.794   3.853   2.219  0.4497  0.1024 -0.7774
  123OSM    O1112961   3.640   3.721   2.356  0.4034  0.0552 -0.3438
  123OSM    O1212962   3.555   3.910   2.223 -0.2484  0.3508 -0.4395
  123OSM    C1S12963   3.570   3.783   2.468 -0.3520  0.5076 -0.1613
  123OSM    H1S12964   3.465   3.804   2.439 -0.2710 -0.4349 -1.2229
  123OSM    H1T12965   3.621   3.878   2.493  1.1373 -0.0136 -1.0335
  123OSM     NF12966   3.499   3.775   2.704  0.4824  0.3373  0.3408
  123OSM    HNF12967   3.557   3.832   2.762  0.0615  0.5047  0.5988
  123OSM    C2S12968   3.568   3.698   2.602 -0.2329  0.0415 -0.1882
  123OSM    H2S12969   3.506   3.606   2.590 -1.6072  0.8285  0.6665
  123OSM    C3S12970   3.714   3.648   2.639  1.1166  0.6200 -0.7367
  123OSM    H3S12971   3.776   3.739   2.656  3.0831 -0.4815 -1.6292
  123OSM     O312972   3.784   3.579   2.531  0.0269 -1.0125 -0.0738
  123OSM    HO312973   3.718   3.586   2.462 -2.0186  0.4678  1.8736
  123OSM    C4S12974   3.707   3.576   2.771 -0.2857  0.4329  0.6045
  123OSM    H4S12975   3.608   3.531   2.790  0.5074 -0.8493  1.9167
  123OSM    C5S12976   3.804   3.555   2.862  0.1497 -0.1929  0.2996
  123OSM    H5S12977   3.906   3.584   2.833  0.1969  1.5869  2.0584
  123OSM    C6S12978   3.805   3.463   2.980 -0.1713  0.0153 -0.1230
  123OSM    H6S12979   3.885   3.388   2.965 -0.7779 -0.7461  0.3386
  123OSM    H6T12980   3.715   3.404   3.007  0.0529 -0.3398 -0.1428
  123OSM    C7S12981   3.852   3.541   3.111  0.0470  0.2206  0.4536
  123OSM    H7S12982   3.767   3.610   3.133  0.3618  0.5599  0.6326
  123OSM    H7T12983   3.939   3.608   3.094 -0.8597  1.0929 -0.9753
  123OSM    C8S12984   3.874   3.447   3.231 -0.1078  0.8109 -0.3138
  123OSM    H8S12985   3.959   3.381   3.201 -0.7331  0.5384 -1.5814
  123OSM    H8T12986   3.787   3.377   3.237  0.8233 -0.2949  0.7468
  123OSM    C9S12987   3.909   3.521   3.359  0.0772  0.4293 -0.1601
  123OSM    H9S12988   3.827   3.594   3.378  0.1106  0.0877  1.3749
  123OSM    H9T12989   3.994   3.593   3.351  0.5602 -0.0998  0.1441
  123OSM   C10S12990   3.915   3.431   3.482 -0.3796 -0.0112 -0.0504
  123OSM   H10S12991   3.997   3.356   3.486 -1.7533 -1.7892 -2.3828
  123OSM   H10T12992   3.816   3.383   3.495 -0.8248  0.5446 -1.2754
  123OSM   C11S12993   3.936   3.525   3.596 -0.1921  0.3060 -0.0858
  123OSM   H11S12994   3.847   3.592   3.588 -0.0204  0.6529  0.8422
  123OSM   H11T12995   4.022   3.592   3.576 -0.9365  1.3095 -0.0254
  123OSM   C12S12996   3.954   3.462   3.731 -0.2014 -0.0217  0.2830
  123OSM   H12S12997   4.039   3.391   3.739  0.6903  1.0075  0.2078
  123OSM   H12T12998   3.861   3.406   3.754 -1.4062  1.4553 -0.8207
  123OSM   C13S12999   3.965   3.574   3.840 -0.2013  0.3126 -0.3172
  123OSM   H13S13000   3.872   3.635   3.840 -2.4538 -2.9051 -0.4134
  123OSM   H13T13001   4.049   3.646   3.827 -1.4041  1.8629  0.0906
  123OSM   C14S13002   3.974   3.505   3.979 -0.5105 -0.1234  0.1468
  123OSM   H14S13003   4.061   3.437   3.984  0.1473  0.6291 -0.6075
  123OSM   H14T13004   3.881   3.450   4.003  0.5428 -1.7192  0.7214
  123OSM   C15S13005   3.990   3.596   4.102 -0.2045  0.4214  0.0197
  123OSM   H15S13006   3.888   3.640   4.107 -1.5467 -2.3416 -1.0564
  123OSM   H15T13007   4.066   3.677   4.093 -0.5599  0.8359  0.7296
  123OSM   C16S13008   4.001   3.513   4.229  0.9601  0.5715 -0.4698
  123OSM   H16S13009   4.069   3.428   4.207  0.4308 -0.6070  2.0675
  123OSM   H16T13010   3.907   3.466   4.264  0.7375  1.7590  0.5753
  123OSM   C17S13011   4.045   3.581   4.359 -0.2248 -0.2535 -0.2054
  123OSM   H17S13012   3.988   3.675   4.376 -0.0256 -0.4580  1.9690
  123OSM   H17T13013   4.144   3.628   4.343 -0.7833  0.7047 -0.9907
  123OSM   C18S13014   4.036   3.476   4.467  0.2875  0.5370 -0.2092
  123OSM   H18S13015   3.932   3.452   4.499  0.3691 -0.1855 -0.4852
  123OSM   H18T13016   4.094   3.505   4.557  0.2749  0.7273 -0.2612
  123OSM   H18U13017   4.092   3.389   4.428  0.5196 -0.2003  1.6613
  123OSM    C1F13018   3.367   3.776   2.713 -0.0431 -0.8478  0.5984
  123OSM     OF13019   3.297   3.694   2.643 -0.1814  0.1962  0.1564
  123OSM    C2F13020   3.308   3.880   2.803  0.8390 -0.3304  0.1259
  123OSM    H2F13021   3.292   3.971   2.741  0.5554 -0.9322 -0.7090
  123OSM    H2G13022   3.384   3.916   2.875  1.1489 -1.4826  0.3963
  123OSM    C3F13023   3.180   3.851   2.874 -0.2114 -0.4020  0.8923
  123OSM    H3F13024   3.181   3.740   2.887  0.3996 -0.4520  0.4679
  123OSM    H3G13025   3.093   3.895   2.820  1.7102  2.2544 -0.2351
  123OSM    C4F13026   3.180   3.913   3.013  0.4175  0.0056 -0.9419
  123OSM    H4F13027   3.076   3.935   3.045  0.6625 -0.9871  0.6173
  123OSM    H4G13028   3.243   4.005   3.010  0.0823  0.4093  1.9388
  123OSM    C5F13029   3.243   3.833   3.120  0.2105  0.2317 -0.3372
  123OSM    H5F13030   3.352   3.817   3.103 -0.0079 -2.5818  0.3025
  123OSM    H5G13031   3.184   3.739   3.130 -1.2609  1.2811  1.6984
  123OSM    C6F13032   3.223   3.907   3.253 -0.4526  0.1775 -0.1182
  123OSM    H6F13033   3.116   3.939   3.257  0.0703  1.9406  0.8465
  123OSM    H6G13034   3.290   3.995   3.250  1.7530 -1.4293 -0.5967
  123OSM    C7F13035   3.255   3.822   3.375  0.2011 -0.0669 -0.1833
  123OSM    H7F13036   3.361   3.791   3.363  0.2210 -1.0125  1.9782
  123OSM    H7G13037   3.190   3.732   3.374  0.6178 -0.3736  0.1179
  123OSM    C8F13038   3.223   3.893   3.507 -0.0110 -0.3477  0.0092
  123OSM    H8F13039   3.219   3.824   3.594 -3.2250  0.3157  0.5117
  123OSM    H8G13040   3.121   3.937   3.509 -0.5188 -1.5252  0.6212
  123OSM    C9F13041   3.312   4.007   3.533 -0.6119  0.7527  0.4642
  123OSM    H9F13042   3.328   4.089   3.461  3.3330  2.5124  2.9754
  123OSM   C10F13043   3.395   4.027   3.637  0.9350  0.1142  0.7461
  123OSM   H10F13044   3.477   4.099   3.623  0.0433  1.0969  0.4262
  123OSM   C11F13045   3.401   3.945   3.762 -0.3617  0.0500 -0.1292
  123OSM   H11F13046   3.489   3.878   3.772 -1.2262 -1.2573 -0.9305
  123OSM   H11G13047   3.330   3.861   3.773  0.4050 -0.8014 -1.4011
  123OSM   C12F13048   3.404   4.013   3.898  0.1277 -0.6677  0.4584
  123OSM   H12F13049   3.303   4.060   3.892  0.2557 -0.5321 -1.5540
  123OSM   H12G13050   3.479   4.094   3.907 -2.7699  2.0051  2.7032
  123OSM   C13F13051   3.402   3.926   4.024 -0.4849 -0.6641 -0.1864
  123OSM   H13F13052   3.500   3.879   4.044 -1.2516 -1.9154  0.7821
  123OSM   H13G13053   3.331   3.841   4.015  2.5160 -3.6024  1.8535
  123OSM   C14F13054   3.387   4.002   4.158 -0.3759 -0.0784  0.1997
  123OSM   H14F13055   3.312   4.084   4.159  1.1580  1.4106 -0.0658
  123OSM   H14G13056   3.479   4.059   4.184 -0.9621  1.3928 -0.8170
  123OSM   C15F13057   3.348   3.902   4.275 -0.3273 -0.1178  0.1903
  123OSM   H15F13058   3.444   3.855   4.305  0.2021 -0.1623 -1.4685
  123OSM   H15G13059   3.281   3.819   4.246 -0.0318 -1.1733  2.3526
  123OSM   C16F13060   3.283   3.992   4.384 -0.2185 -0.0587  0.1236
  123OSM   H16F13061   3.342   4.086   4.376  1.6687 -1.3244 -5.0882
  123OSM   H16G13062   3.305   3.946   4.483 -0.2412  0.7708  0.5155
  123OSM   C17F13063   3.127   4.014   4.366  0.2036  0.0171  0.1510
  123OSM   H17F13064   3.074   3.928   4.414 -0.9680 -0.2950 -1.6166
  123OSM   H17G13065   3.091   4.023   4.262  1.1276  0.7354 -0.1186
  123OSM   C18F13066   3.069   4.131   4.439 -0.0132  0.3340  0.0339
  123OSM   H18F13067   2.960   4.122   4.422 -0.3097 -0.8563  2.2655
  123OSM   H18G13068   3.118   4.224   4.402  1.1004 -0.8043 -1.4698
  123OSM   H18H13069   3.087   4.123   4.548  0.1898  2.5361  0.2004
  124OSM      N13070   4.098   6.828   2.130 -0.0311  0.0762 -0.0395
  124OSM    C1513071   3.992   6.892   2.054 -0.4596 -0.4000 -0.0839
  124OSM   H15A13072   4.009   6.998   2.041 -0.4914 -0.3589  0.2133
  124OSM   H15B13073   3.893   6.868   2.089 -1.3074  1.8915 -0.7471
  124OSM   H15C13074   3.988   6.849   1.955  0.0660 -0.1526 -0.2183
  124OSM    C1413075   4.230   6.865   2.064  0.1315  0.0431  0.6822
  124OSM   H14A13076   4.309   6.807   2.108  0.9391 -0.5115 -1.3786
  124OSM   H14B13077   4.252   6.970   2.077 -1.1627  0.3633  0.4351
  124OSM   H14C13078   4.244   6.829   1.963 -0.0478 -0.8325  0.9662
  124OSM    C1313079   4.109   6.880   2.267  0.5417 -0.5762  0.2999
  124OSM   H13A13080   4.116   6.987   2.262  0.9464 -0.5988  0.3657
  124OSM   H13B13081   4.200   6.853   2.317  0.3480  0.2817  1.1295
  124OSM   H13C13082   4.019   6.859   2.324 -0.2811  1.4686 -0.1545
  124OSM    C1213083   4.076   6.672   2.135  0.4776  0.7849 -0.0462
  124OSM   H12A13084   3.973   6.647   2.157  0.9389  0.7398  2.2563
  124OSM   H12B13085   4.135   6.614   2.204  0.2152 -0.4213 -0.8070
  124OSM    C1113086   4.092   6.608   1.996 -0.0090  0.2961  0.1525
  124OSM   H11A13087   4.043   6.672   1.920 -0.3353 -0.7795 -0.5563
  124OSM   H11B13088   4.067   6.500   2.000  1.2826  0.0093  1.1047
  124OSM      P13089   4.335   6.509   2.026 -0.1061  0.1370  0.1415
  124OSM    O1313090   4.261   6.416   2.118  0.0758  0.0349  0.3143
  124OSM    O1413091   4.422   6.449   1.923  0.3110  0.1949 -0.5040
  124OSM    O1113092   4.426   6.610   2.108 -0.1289 -0.4451  0.7805
  124OSM    O1213093   4.232   6.608   1.952 -1.0795 -0.2577 -0.4765
  124OSM    C1S13094   4.538   6.575   2.190  0.3447  0.0074 -0.0804
  124OSM    H1S13095   4.620   6.648   2.174  1.9454 -2.0473 -1.7421
  124OSM    H1T13096   4.583   6.477   2.166  0.5133  0.0723 -0.0280
  124OSM     NF13097   4.473   6.454   2.403  0.0136  0.4518 -0.4322
  124OSM    HNF13098   4.376   6.436   2.413  0.3783 -1.5918 -0.1446
  124OSM    C2S13099   4.507   6.583   2.346 -0.4058 -0.2426 -0.2924
  124OSM    H2S13100   4.603   6.596   2.400 -1.3853 -0.6457  1.6124
  124OSM    C3S13101   4.404   6.697   2.371  0.2128 -0.9444 -0.1113
  124OSM    H3S13102   4.312   6.658   2.322  0.1076  0.1480 -0.8287
  124OSM     O313103   4.428   6.814   2.295  0.0546  0.7713  0.4431
  124OSM    HO313104   4.450   6.771   2.212  0.7948  2.3432 -0.2015
  124OSM    C4S13105   4.399   6.731   2.519  0.3404  0.1250  0.0118
  124OSM    H4S13106   4.490   6.781   2.556 -0.6283  0.5331  1.9843
  124OSM    C5S13107   4.299   6.691   2.604  0.1286 -0.7082 -0.0587
  124OSM    H5S13108   4.213   6.629   2.574 -0.6134  0.2954 -0.0594
  124OSM    C6S13109   4.305   6.718   2.749 -0.2271 -0.0611 -0.4400
  124OSM    H6S13110   4.289   6.625   2.809 -1.2580  0.0994 -0.4362
  124OSM    H6T13111   4.222   6.785   2.780 -0.0074  1.7988 -3.5364
  124OSM    C7S13112   4.437   6.785   2.799  0.0740 -0.0808  0.2690
  124OSM    H7S13113   4.450   6.884   2.751  0.6126 -0.0481  0.4708
  124OSM    H7T13114   4.517   6.712   2.773 -0.6287 -0.4919 -0.8111
  124OSM    C8S13115   4.436   6.791   2.953  0.2179 -0.5283  0.2676
  124OSM    H8S13116   4.450   6.687   2.989  0.7617 -0.5443  0.0137
  124OSM    H8T13117   4.342   6.831   2.998  1.2917 -0.6281  2.7145
  124OSM    C9S13118   4.530   6.901   3.019  0.2003 -0.3406  0.2505
  124OSM    H9S13119   4.507   7.000   2.973  2.0022  0.3749  0.7972
  124OSM    H9T13120   4.635   6.873   2.996 -0.3568 -0.3660 -2.7996
  124OSM   C10S13121   4.514   6.905   3.168 -0.5947 -0.2493  0.2259
  124OSM   H10S13122   4.532   6.801   3.203 -0.5492 -1.4573 -3.0753
  124OSM   H10T13123   4.412   6.940   3.197 -1.3622 -0.1631 -2.3288
  124OSM   C11S13124   4.612   7.005   3.235 -0.2563 -0.1048 -0.1731
  124OSM   H11S13125   4.580   7.108   3.210  0.3317 -0.6099 -3.5284
  124OSM   H11T13126   4.709   7.001   3.180 -0.1171  2.5755 -0.2346
  124OSM   C12S13127   4.648   6.981   3.379  0.2719  0.5027  0.3514
  124OSM   H12S13128   4.729   6.905   3.378  0.2448  0.4663 -0.9523
  124OSM   H12T13129   4.561   6.923   3.417  0.9558 -3.0577 -2.9239
  124OSM   C13S13130   4.689   7.105   3.453  0.1709 -0.5673 -0.0270
  124OSM   H13S13131   4.621   7.188   3.425  0.3141 -0.8796 -1.3547
  124OSM   H13T13132   4.783   7.153   3.417 -0.2302  1.1896  1.1198
  124OSM   C14S13133   4.698   7.083   3.599 -0.4673 -0.5018  0.0233
  124OSM   H14S13134   4.757   6.991   3.623 -1.1467 -1.1316 -0.6912
  124OSM   H14T13135   4.595   7.072   3.639  0.0703  0.1500  1.6850
  124OSM   C15S13136   4.766   7.204   3.678 -0.2110 -0.6766  0.8268
  124OSM   H15S13137   4.723   7.297   3.635  0.4310 -0.7036  0.0963
  124OSM   H15T13138   4.873   7.213   3.648 -0.1334  1.6211  1.5768
  124OSM   C16S13139   4.760   7.197   3.830 -0.3583 -0.1634 -0.0355
  124OSM   H16S13140   4.676   7.260   3.866 -0.6217 -0.7922  0.4692
  124OSM   H16T13141   4.853   7.254   3.855  0.1237 -0.2903 -1.4450
  124OSM   C17S13142   4.756   7.064   3.907 -0.3219  0.7245  0.1380
  124OSM   H17S13143   4.847   7.001   3.901 -0.9236 -0.0290 -1.8440
  124OSM   H17T13144   4.673   7.001   3.868 -0.1547  0.8863 -0.4970
  124OSM   C18S13145   4.722   7.082   4.053  0.2979  0.4463 -0.0350
  124OSM   H18S13146   4.642   7.158   4.064 -2.0331 -1.8894 -0.1377
  124OSM   H18T13147   4.812   7.110   4.113 -0.9609 -1.7737  3.1421
  124OSM   H18U13148   4.682   6.988   4.096  2.4133 -0.1906  0.6749
  124OSM    C1F13149   4.557   6.351   2.419  0.5113  0.0544  0.8479
  124OSM     OF13150   4.680   6.366   2.404 -0.2523 -0.0358  0.1616
  124OSM    C2F13151   4.498   6.218   2.441  0.2479 -0.0753 -0.5330
  124OSM    H2F13152   4.581   6.151   2.469 -0.9376 -0.5170  2.2414
  124OSM    H2G13153   4.445   6.198   2.345  0.8742  0.4217 -0.9988
  124OSM    C3F13154   4.404   6.222   2.570 -0.4710  0.8291  0.1689
  124OSM    H3F13155   4.362   6.119   2.571 -1.0669  1.0545 -0.5755
  124OSM    H3G13156   4.316   6.289   2.557 -2.1529 -1.3703 -0.5630
  124OSM    C4F13157   4.478   6.261   2.695  0.5304 -0.4581 -0.6290
  124OSM    H4F13158   4.452   6.369   2.696 -0.1926 -0.5223  3.4216
  124OSM    H4G13159   4.584   6.228   2.699  0.0405 -2.1156 -0.3805
  124OSM    C5F13160   4.417   6.207   2.828  0.3363  0.0522  0.3612
  124OSM    H5F13161   4.392   6.100   2.812 -2.0881  0.9472 -2.8252
  124OSM    H5G13162   4.314   6.247   2.841 -0.5272 -1.2233 -2.0370
  124OSM    C6F13163   4.507   6.227   2.946 -0.8143 -0.2784 -0.0452
  124OSM    H6F13164   4.531   6.335   2.958  0.6255 -0.6186  0.3646
  124OSM    H6G13165   4.601   6.171   2.924 -1.5891 -1.1563 -1.2621
  124OSM    C7F13166   4.444   6.169   3.076  0.6445  0.3712  0.3020
  124OSM    H7F13167   4.416   6.063   3.057 -0.2181  0.2978  1.7893
  124OSM    H7G13168   4.353   6.224   3.107  1.5156  1.4221  1.0510
  124OSM    C8F13169   4.549   6.154   3.190 -0.7611 -0.1139  0.0051
  124OSM    H8F13170   4.565   6.255   3.233  0.1859  0.1409 -0.8882
  124OSM    H8G13171   4.650   6.122   3.155 -0.0898  1.2693  0.6272
  124OSM    C9F13172   4.485   6.062   3.291 -0.1342 -0.1214  0.1479
  124OSM    H9F13173   4.378   6.046   3.274  0.0826 -0.4527 -0.9803
  124OSM   C10F13174   4.552   6.013   3.395  0.8578 -0.0862  0.0065
  124OSM   H10F13175   4.500   5.945   3.465  1.8245  0.4723  1.2994
  124OSM   C11F13176   4.701   6.035   3.421 -0.3505 -0.1275  0.4305
  124OSM   H11F13177   4.759   6.061   3.330 -0.5641  0.8916  0.5742
  124OSM   H11G13178   4.744   5.942   3.463  0.6692 -0.1513 -0.6173
  124OSM   C12F13179   4.718   6.148   3.516  0.1519 -0.6268  0.1232
  124OSM   H12F13180   4.666   6.237   3.475 -0.0932 -1.1940 -0.8378
  124OSM   H12G13181   4.826   6.174   3.517 -0.4279  2.2384  2.7787
  124OSM   C13F13182   4.670   6.131   3.656 -0.5834  0.5498 -0.4809
  124OSM   H13F13183   4.672   6.022   3.677 -0.0748  0.3410 -1.5361
  124OSM   H13G13184   4.567   6.170   3.664 -1.2899 -0.5424 -3.2416
  124OSM   C14F13185   4.754   6.211   3.758  0.2076 -0.0265  0.2846
  124OSM   H14F13186   4.742   6.318   3.731 -2.1295 -1.0057 -3.2161
  124OSM   H14G13187   4.862   6.183   3.752 -0.0872 -1.1182 -0.1894
  124OSM   C15F13188   4.686   6.194   3.893  0.1348  0.9541 -0.8940
  124OSM   H15F13189   4.665   6.088   3.917  2.5523  0.5897 -0.0682
  124OSM   H15G13190   4.587   6.244   3.885 -0.5186  0.5552  2.7614
  124OSM   C16F13191   4.768   6.257   4.004 -0.4841 -0.2565 -0.4435
  124OSM   H16F13192   4.764   6.368   3.997 -1.2271 -0.2245  0.2627
  124OSM   H16G13193   4.876   6.233   3.995  0.2699  2.1019  1.3039
  124OSM   C17F13194   4.717   6.219   4.135 -0.0021  0.2191 -1.4906
  124OSM   H17F13195   4.702   6.110   4.146 -1.1084  0.5321  0.5953
  124OSM   H17G13196   4.616   6.262   4.151  0.3254  0.7191 -0.7315
  124OSM   C18F13197   4.814   6.260   4.243  0.5368  0.3615 -0.0116
  124OSM   H18F13198   4.824   6.371   4.248  1.2498  0.2684  3.0906
  124OSM   H18G13199   4.916   6.216   4.240  0.7483  0.8849 -0.7457
  124OSM   H18H13200   4.774   6.228   4.342  1.7585  0.7200  0.6297
  125OSM      N13201   5.708   3.352   2.209 -0.1376 -0.3133 -0.2421
  125OSM    C1513202   5.856   3.381   2.201 -0.4610 -0.0972  0.7455
  125OSM   H15A13203   5.914   3.306   2.253  0.0677  0.1392  0.5045
  125OSM   H15B13204   5.881   3.477   2.244  1.2738  0.5057 -1.4062
  125OSM   H15C13205   5.884   3.396   2.098  1.8291 -1.9561  1.0127
  125OSM    C1413206   5.666   3.347   2.351 -0.3271 -0.4579 -0.0679
  125OSM   H14A13207   5.559   3.350   2.366 -0.2198 -0.2919  0.6980
  125OSM   H14B13208   5.712   3.435   2.395  0.1733 -0.4697 -0.5632
  125OSM   H14C13209   5.711   3.262   2.401 -1.1394 -0.1784  1.1899
  125OSM    C1313210   5.642   3.468   2.147 -0.1584 -0.5040 -0.3301
  125OSM   H13A13211   5.535   3.472   2.161  0.0537 -2.7667  2.9905
  125OSM   H13B13212   5.658   3.471   2.040  0.0174 -0.3770 -0.3011
  125OSM   H13C13213   5.684   3.561   2.182 -1.4866  0.6856 -1.7230
  125OSM    C1213214   5.682   3.221   2.131  0.1423  0.0695 -0.1623
  125OSM   H12A13215   5.646   3.267   2.040  0.5257  2.5338  0.8331
  125OSM   H12B13216   5.596   3.173   2.175  1.0524 -0.1843  1.4159
  125OSM    C1113217   5.791   3.116   2.111  0.0755  0.3674  0.0299
  125OSM   H11A13218   5.849   3.169   2.032  1.1655  0.5710  0.9344
  125OSM   H11B13219   5.748   3.022   2.071 -1.4026  1.3216 -0.7211
  125OSM      P13220   5.865   2.976   2.317 -0.3345  0.3568 -0.2725
  125OSM    O1313221   5.729   2.947   2.370 -0.5844 -0.2315 -0.3046
  125OSM    O1413222   5.931   2.871   2.235  0.0563  0.3186 -0.7692
  125OSM    O1113223   5.955   3.015   2.443 -0.5918 -0.1128  1.0117
  125OSM    O1213224   5.865   3.101   2.226  0.0835  0.6761 -0.0981
  125OSM    C1S13225   5.931   3.127   2.526 -0.0353  0.9083  0.0051
  125OSM    H1S13226   5.831   3.171   2.509 -0.1849  0.6493  0.2186
  125OSM    H1T13227   6.003   3.206   2.495  2.3509 -1.3655 -0.6808
  125OSM     NF13228   5.889   3.203   2.769  0.0986 -0.4695  0.6352
  125OSM    HNF13229   5.946   3.281   2.795  0.1473  0.1877 -1.3189
  125OSM    C2S13230   5.945   3.101   2.682  0.2907  0.2894 -0.2382
  125OSM    H2S13231   5.892   3.007   2.707  3.1358 -1.2693  0.3485
  125OSM    C3S13232   6.097   3.071   2.718  0.2850 -0.3174  0.1991
  125OSM    H3S13233   6.151   3.168   2.723 -0.2766  0.0211 -0.1695
  125OSM     O313234   6.167   2.987   2.624  0.1186  0.4813  0.5796
  125OSM    HO313235   6.115   2.987   2.544 -0.0088  1.5712  0.6554
  125OSM    C4S13236   6.119   3.022   2.864  0.3069  0.7192  0.0690
  125OSM    H4S13237   6.072   2.925   2.884 -2.6486  1.8483 -0.7611
  125OSM    C5S13238   6.195   3.088   2.958  0.0854  0.2949  0.8150
  125OSM    H5S13239   6.249   3.174   2.918  0.5432 -0.6773 -0.7395
  125OSM    C6S13240   6.219   3.043   3.098  0.1324  0.6360  0.3963
  125OSM    H6S13241   6.214   3.130   3.167 -0.9432 -0.3253  1.5892
  125OSM    H6T13242   6.318   2.995   3.111  0.5173  1.9504  2.8895
  125OSM    C7S13243   6.116   2.945   3.158 -0.5717 -0.0388 -0.1933
  125OSM    H7S13244   6.104   2.851   3.099 -0.6178 -0.1686  0.0232
  125OSM    H7T13245   6.021   3.001   3.149  0.7218  2.3133  0.0784
  125OSM    C8S13246   6.159   2.909   3.305 -0.2877  0.3375 -0.4488
  125OSM    H8S13247   6.261   2.868   3.293 -1.2060 -1.9152 -1.0962
  125OSM    H8T13248   6.090   2.831   3.344 -0.8620  0.5427 -1.0449
  125OSM    C9S13249   6.167   3.024   3.415  0.3791 -0.0926  0.7976
  125OSM    H9S13250   6.064   3.064   3.417  0.2128 -0.1227 -2.1416
  125OSM    H9T13251   6.243   3.098   3.381 -0.0528 -0.8294 -1.9993
  125OSM   C10S13252   6.221   2.962   3.542 -0.6415 -0.0190  0.2399
  125OSM   H10S13253   6.199   2.854   3.527 -2.4413  0.2253  0.8388
  125OSM   H10T13254   6.169   2.998   3.633 -1.0034 -0.6563  0.2919
  125OSM   C11S13255   6.371   2.979   3.570 -0.1150 -0.2443  0.5190
  125OSM   H11S13256   6.402   3.086   3.574  0.0957 -0.2711 -0.2702
  125OSM   H11T13257   6.429   2.932   3.488 -0.8258  1.9003 -1.3048
  125OSM   C12S13258   6.403   2.918   3.709  0.1058 -0.2750  0.0421
  125OSM   H12S13259   6.513   2.905   3.715  0.6889  2.7388 -2.0597
  125OSM   H12T13260   6.361   2.816   3.717  1.2250 -0.5830  3.1619
  125OSM   C13S13261   6.356   3.008   3.824 -0.8272  0.2522  0.5383
  125OSM   H13S13262   6.246   3.029   3.826 -0.5221  1.9232  0.9767
  125OSM   H13T13263   6.396   3.112   3.823  1.3329 -0.5345 -0.1789
  125OSM   C14S13264   6.377   2.947   3.959  0.0193 -0.5698 -0.0979
  125OSM   H14S13265   6.487   2.934   3.966  0.4242  2.2730 -0.1852
  125OSM   H14T13266   6.332   2.845   3.965  2.1514 -1.5842 -0.2365
  125OSM   C15S13267   6.326   3.034   4.073 -0.0856 -0.1037  0.3096
  125OSM   H15S13268   6.300   3.134   4.032 -1.3496 -0.4609  0.1970
  125OSM   H15T13269   6.404   3.056   4.149 -0.7851  0.0568  0.9870
  125OSM   C16S13270   6.193   2.985   4.125  0.1465  0.2130  0.6679
  125OSM   H16S13271   6.206   2.888   4.176  1.9377 -0.0433 -0.1910
  125OSM   H16T13272   6.121   2.978   4.041  1.1672  0.6750 -0.2782
  125OSM   C17S13273   6.127   3.076   4.227 -0.0365 -0.1404  0.1633
  125OSM   H17S13274   6.088   3.165   4.174 -1.7067 -0.9373 -0.0153
  125OSM   H17T13275   6.195   3.106   4.310 -0.0409 -1.7582  0.7986
  125OSM   C18S13276   6.007   3.007   4.292 -0.6120 -0.2179  0.0163
  125OSM   H18S13277   5.949   2.954   4.213  1.2056 -0.8345 -0.9639
  125OSM   H18T13278   5.936   3.066   4.354  2.2060  1.6871  1.6349
  125OSM   H18U13279   6.042   2.931   4.364 -0.5286  1.2355  1.5693
  125OSM    C1F13280   5.760   3.232   2.783 -0.0045  0.9099  0.4460
  125OSM     OF13281   5.683   3.167   2.715 -0.6204  0.5248  0.0919
  125OSM    C2F13282   5.719   3.347   2.865  0.1027 -0.7510 -0.2007
  125OSM    H2F13283   5.652   3.416   2.809 -0.3808 -0.7733  0.3382
  125OSM    H2G13284   5.814   3.404   2.872  1.6794 -3.1928 -0.6438
  125OSM    C3F13285   5.674   3.289   2.993  0.8224  0.3592 -0.1777
  125OSM    H3F13286   5.596   3.211   2.977  0.3354  0.5144  1.3202
  125OSM    H3G13287   5.625   3.367   3.055  3.1744  1.7270  0.0577
  125OSM    C4F13288   5.795   3.237   3.080  0.4393  0.0020  0.4974
  125OSM    H4F13289   5.886   3.301   3.078  0.6775 -0.3408 -0.6181
  125OSM    H4G13290   5.821   3.141   3.029  1.1013  0.6099 -0.3314
  125OSM    C5F13291   5.750   3.199   3.218 -0.5335 -0.8054  0.7286
  125OSM    H5F13292   5.838   3.150   3.265  0.1215 -1.5120 -1.1333
  125OSM    H5G13293   5.655   3.141   3.217 -0.1684 -1.4363 -0.7548
  125OSM    C6F13294   5.710   3.320   3.303  0.1822  0.2274  0.6851
  125OSM    H6F13295   5.608   3.348   3.269  0.7029 -0.0002 -1.1462
  125OSM    H6G13296   5.786   3.397   3.281  1.4711 -0.7089  1.6832
  125OSM    C7F13297   5.702   3.291   3.452  0.3802 -0.0471 -0.0628
  125OSM    H7F13298   5.805   3.287   3.493  1.0957 -0.4960 -1.8128
  125OSM    H7G13299   5.647   3.195   3.469 -1.0403  0.9718  1.4628
  125OSM    C8F13300   5.638   3.407   3.529  0.0952 -0.2614 -0.2060
  125OSM    H8F13301   5.685   3.499   3.488  1.2359 -0.7747 -0.0739
  125OSM    H8G13302   5.668   3.406   3.636 -1.0265 -0.8236  0.1227
  125OSM    C9F13303   5.489   3.414   3.508  0.0585  1.9792  0.4121
  125OSM    H9F13304   5.463   3.429   3.402 -3.2877  0.0174  0.8299
  125OSM   C10F13305   5.392   3.403   3.600 -0.1237  0.9011 -0.9006
  125OSM   H10F13306   5.287   3.388   3.569 -0.6162  1.4532  0.4225
  125OSM   C11F13307   5.423   3.416   3.751  0.8397  0.4484 -0.1252
  125OSM   H11F13308   5.527   3.440   3.779  1.5539  0.8809 -2.8929
  125OSM   H11G13309   5.388   3.324   3.803  0.6606  0.4096 -0.3098
  125OSM   C12F13310   5.326   3.519   3.820  0.1771 -0.4576  0.2824
  125OSM   H12F13311   5.218   3.515   3.795 -0.3626  1.3124  2.1205
  125OSM   H12G13312   5.356   3.617   3.778 -0.6002  0.6463  2.2174
  125OSM   C13F13313   5.343   3.522   3.976 -0.4470  0.1871  0.4058
  125OSM   H13F13314   5.449   3.546   3.997  0.0973 -0.0430 -1.8298
  125OSM   H13G13315   5.324   3.415   4.000 -1.4789  0.1416 -0.5395
  125OSM   C14F13316   5.248   3.616   4.051  0.6076 -0.1054  0.6218
  125OSM   H14F13317   5.147   3.612   4.005  1.4857  1.8737 -1.6501
  125OSM   H14G13318   5.282   3.720   4.038  2.6363 -0.9221 -1.1190
  125OSM   C15F13319   5.256   3.583   4.198  0.2362  0.4880 -0.5066
  125OSM   H15F13320   5.363   3.572   4.226 -0.8136  0.4021  4.2796
  125OSM   H15G13321   5.199   3.495   4.233 -1.6577  2.7119  2.4529
  125OSM   C16F13322   5.213   3.698   4.289  0.2213  0.2946 -0.2557
  125OSM   H16F13323   5.103   3.699   4.301 -0.0049  2.5197 -1.8750
  125OSM   H16G13324   5.239   3.801   4.256  0.3497  0.2785 -0.2079
  125OSM   C17F13325   5.278   3.684   4.430  0.0293  0.0136  0.4491
  125OSM   H17F13326   5.387   3.666   4.422 -0.3435 -2.1164 -0.5882
  125OSM   H17G13327   5.241   3.595   4.486  1.2727 -0.5585  0.3968
  125OSM   C18F13328   5.248   3.802   4.517  0.1270  0.0367 -0.2307
  125OSM   H18F13329   5.142   3.787   4.547 -0.3654  1.1320 -1.3582
  125OSM   H18G13330   5.255   3.903   4.471 -0.0034  0.3575  0.4422
  125OSM   H18H13331   5.311   3.797   4.609  0.5685 -0.6251 -0.5563
  126OSM      N13332   4.299   3.926   2.407 -0.0400  0.3316  0.1297
  126OSM    C1513333   4.364   3.878   2.287 -0.0998  0.0267 -0.1971
  126OSM   H15A13334   4.289   3.849   2.215  1.7911 -0.9118 -1.8621
  126OSM   H15B13335   4.423   3.792   2.314 -0.0874  0.2181  0.4172
  126OSM   H15C13336   4.431   3.951   2.245  0.3554 -0.5112 -0.4173
  126OSM    C1413337   4.401   3.976   2.501  0.2751 -0.6980 -0.1353
  126OSM   H14A13338   4.349   4.007   2.590 -0.9655 -1.3897 -0.6016
  126OSM   H14B13339   4.447   4.058   2.447 -1.3373  0.2896 -0.0472
  126OSM   H14C13340   4.477   3.904   2.527 -1.2863 -2.0978  0.7455
  126OSM    C1313341   4.217   4.042   2.359  0.7335 -0.1650  0.0512
  126OSM   H13A13342   4.153   4.080   2.437 -0.6686 -1.1155 -0.6017
  126OSM   H13B13343   4.159   4.016   2.272 -1.3309 -0.1248  1.3607
  126OSM   H13C13344   4.279   4.122   2.321  0.9376 -0.9204 -1.3025
  126OSM    C1213345   4.214   3.820   2.471 -0.3832 -0.0247 -0.3718
  126OSM   H12A13346   4.187   3.870   2.563 -0.5355  0.4882 -0.6926
  126OSM   H12B13347   4.287   3.746   2.502 -1.6384 -1.1188  0.0358
  126OSM    C1113348   4.107   3.742   2.393 -0.2330 -0.8541 -0.9203
  126OSM   H11A13349   4.021   3.805   2.361 -1.3092 -2.9076 -2.3443
  126OSM   H11B13350   4.061   3.669   2.463  0.7998  1.5581  2.5242
  126OSM      P13351   4.253   3.545   2.302 -0.2176  0.0482  0.3358
  126OSM    O1313352   4.265   3.471   2.179 -0.1644  0.1797  0.1379
  126OSM    O1413353   4.380   3.588   2.364  0.1414  0.1711 -0.2518
  126OSM    O1113354   4.174   3.465   2.401  0.2097  0.1861 -0.0408
  126OSM    O1213355   4.164   3.668   2.284  0.3429 -0.0726  0.2101
  126OSM    C1S13356   4.211   3.452   2.540 -0.9948  0.3673  0.6752
  126OSM    H1S13357   4.242   3.551   2.580 -0.0764  0.9568 -1.3181
  126OSM    H1T13358   4.284   3.371   2.559 -4.1826 -2.4861  1.6472
  126OSM     NF13359   4.156   3.360   2.772 -0.1184  0.1933 -0.0464
  126OSM    HNF13360   4.167   3.262   2.785  2.9833  0.5086  0.3902
  126OSM    C2S13361   4.101   3.395   2.642  0.1771  0.0537  0.1314
  126OSM    H2S13362   4.028   3.476   2.660 -1.2179 -1.5039  1.8966
  126OSM    C3S13363   4.015   3.276   2.581 -0.2474  0.4970 -0.3698
  126OSM    H3S13364   4.075   3.188   2.611 -0.1286  0.3057 -1.1379
  126OSM     O313365   3.992   3.272   2.443  0.4602 -0.1981  0.0624
  126OSM    HO313366   4.051   3.340   2.409 -0.5482 -0.2901 -1.9733
  126OSM    C4S13367   3.886   3.271   2.661 -0.3194  0.3620  0.6461
  126OSM    H4S13368   3.863   3.367   2.710  1.3092  1.4034 -0.5292
  126OSM    C5S13369   3.815   3.152   2.686  0.2244 -0.3335  0.7637
  126OSM    H5S13370   3.869   3.066   2.642  1.2857  0.5281  0.3448
  126OSM    C6S13371   3.696   3.127   2.775 -0.5603 -0.8159  0.2042
  126OSM    H6S13372   3.621   3.071   2.715  1.0464 -1.5124 -1.2770
  126OSM    H6T13373   3.664   3.227   2.811  2.1430  0.4970 -0.7535
  126OSM    C7S13374   3.720   3.040   2.908  0.4238 -0.3087  0.0215
  126OSM    H7S13375   3.794   3.100   2.964 -1.0727  1.6408  0.0307
  126OSM    H7T13376   3.760   2.938   2.892  1.8794  0.0176  1.3237
  126OSM    C8S13377   3.586   3.033   2.988  0.1225  0.0596  0.7434
  126OSM    H8S13378   3.526   2.951   2.942 -0.2184 -0.1899  1.5972
  126OSM    H8T13379   3.546   3.134   3.008  2.7924  0.8061  3.0132
  126OSM    C9S13380   3.616   2.971   3.128  0.6097 -0.0931 -0.6405
  126OSM    H9S13381   3.693   3.028   3.184  2.2265 -1.4471 -1.3862
  126OSM    H9T13382   3.676   2.881   3.103 -1.8527 -1.5510 -1.6422
  126OSM   C10S13383   3.490   2.952   3.221  0.2897 -0.0013 -0.1658
  126OSM   H10S13384   3.441   2.863   3.176  0.1597  1.8727 -4.1385
  126OSM   H10T13385   3.417   3.035   3.216 -1.9932 -1.8718  0.5544
  126OSM   C11S13386   3.525   2.929   3.367 -0.7223 -0.7034 -0.7017
  126OSM   H11S13387   3.579   2.832   3.370  0.1885 -0.2251 -1.1030
  126OSM   H11T13388   3.427   2.914   3.417 -1.1481  0.2339 -1.2324
  126OSM   C12S13389   3.614   3.020   3.451  0.6328 -0.1485  0.2027
  126OSM   H12S13390   3.580   3.125   3.435 -0.3917 -0.1960  1.7723
  126OSM   H12T13391   3.720   3.003   3.423  1.3508 -2.3568  3.5963
  126OSM   C13S13392   3.586   2.994   3.598  0.5122  0.1564  0.1036
  126OSM   H13S13393   3.587   2.889   3.634 -2.4364  0.6342  1.9300
  126OSM   H13T13394   3.487   3.032   3.632 -0.5190 -3.2850  1.3616
  126OSM   C14S13395   3.686   3.065   3.699 -0.3079  0.6697 -0.1503
  126OSM   H14S13396   3.683   3.175   3.680  1.1059  0.4359 -1.9846
  126OSM   H14T13397   3.785   3.019   3.678 -0.9423 -1.2073  0.7695
  126OSM   C15S13398   3.650   3.056   3.852 -0.3810  0.1860  0.5074
  126OSM   H15S13399   3.644   2.945   3.858 -3.7661  0.3353  2.6738
  126OSM   H15T13400   3.548   3.094   3.873 -0.1670  0.5329  0.9355
  126OSM   C16S13401   3.757   3.115   3.947 -0.4536  0.2559  0.2939
  126OSM   H16S13402   3.748   3.225   3.938  0.6092  0.3695  0.5993
  126OSM   H16T13403   3.858   3.086   3.911 -1.4003 -1.6073 -1.0440
  126OSM   C17S13404   3.743   3.074   4.094 -0.8485  0.4771 -0.1898
  126OSM   H17S13405   3.778   2.969   4.096  3.7342  1.7962  0.5182
  126OSM   H17T13406   3.635   3.080   4.121 -0.5807  1.0264  0.7867
  126OSM   C18S13407   3.823   3.166   4.192  0.0221  0.2147  0.5638
  126OSM   H18S13408   3.758   3.250   4.225 -0.1642  0.1828  0.2742
  126OSM   H18T13409   3.918   3.196   4.143  0.7266 -4.0518 -1.0772
  126OSM   H18U13410   3.857   3.111   4.283  1.6598  2.5828  1.4881
  126OSM    C1F13411   4.201   3.454   2.859  1.0537  0.6152  0.5671
  126OSM     OF13412   4.216   3.570   2.826 -0.0352 -0.3122  0.1205
  126OSM    C2F13413   4.244   3.407   2.997  0.3057 -0.8372 -0.7288
  126OSM    H2F13414   4.332   3.342   2.978  0.3419 -1.0271  0.0566
  126OSM    H2G13415   4.161   3.341   3.032 -0.6338  0.4009 -0.5225
  126OSM    C3F13416   4.247   3.523   3.097  0.4032  0.1147  0.0386
  126OSM    H3F13417   4.142   3.560   3.107  0.7465  0.8183  1.2177
  126OSM    H3G13418   4.315   3.607   3.069  0.5159  0.5533  1.5575
  126OSM    C4F13419   4.297   3.482   3.236 -0.0488  0.3298 -0.2516
  126OSM    H4F13420   4.396   3.432   3.226  0.4517  1.1020  0.6156
  126OSM    H4G13421   4.230   3.405   3.279  1.1122  0.2984  1.5979
  126OSM    C5F13422   4.312   3.603   3.324  0.0886  0.0235 -0.7148
  126OSM    H5F13423   4.212   3.624   3.368  0.8519 -1.2797  1.8872
  126OSM    H5G13424   4.349   3.700   3.285 -0.6313  0.8695  0.6174
  126OSM    C6F13425   4.388   3.578   3.457 -0.1465  0.1177 -0.1801
  126OSM    H6F13426   4.497   3.586   3.433  0.0884  0.5944  0.9569
  126OSM    H6G13427   4.361   3.476   3.492 -0.3451  0.5833  1.0902
  126OSM    C7F13428   4.327   3.670   3.563  0.5299 -0.4575  0.4191
  126OSM    H7F13429   4.219   3.651   3.582  0.4769 -0.0504  0.5334
  126OSM    H7G13430   4.334   3.777   3.533  0.0083  0.3344  2.8478
  126OSM    C8F13431   4.406   3.663   3.694 -0.1469  0.0941 -0.1557
  126OSM    H8F13432   4.368   3.741   3.764  1.2442  0.2474  0.4724
  126OSM    H8G13433   4.512   3.674   3.662 -0.6872 -0.0698 -2.1456
  126OSM    C9F13434   4.380   3.535   3.774 -0.8011  0.2795 -0.4435
  126OSM    H9F13435   4.365   3.441   3.718 -2.4935 -0.3847  1.0350
  126OSM   C10F13436   4.368   3.531   3.912 -0.3942  0.0386  0.3975
  126OSM   H10F13437   4.345   3.439   3.967  0.6271 -0.8054 -0.5326
  126OSM   C11F13438   4.391   3.646   4.008 -0.4851 -0.0640  0.2333
  126OSM   H11F13439   4.296   3.684   4.051 -0.8996 -0.9418  0.1062
  126OSM   H11G13440   4.439   3.733   3.957  2.2948 -2.0448 -0.7572
  126OSM   C12F13441   4.478   3.607   4.133 -0.2951 -0.4623  0.6482
  126OSM   H12F13442   4.580   3.576   4.102  0.8153  1.0880  2.4819
  126OSM   H12G13443   4.419   3.524   4.178 -0.6470  1.1969  3.5220
  126OSM   C13F13444   4.480   3.713   4.255 -0.7792  0.1754  0.1794
  126OSM   H13F13445   4.380   3.745   4.292 -0.9874 -0.6636  0.3823
  126OSM   H13G13446   4.522   3.809   4.219 -1.5101  1.1366  1.7408
  126OSM   C14F13447   4.562   3.659   4.375 -0.0488 -0.5232  0.6474
  126OSM   H14F13448   4.657   3.617   4.334 -0.2536  0.1132 -0.5489
  126OSM   H14G13449   4.519   3.568   4.422 -1.2658 -0.7920 -0.9095
  126OSM   C15F13450   4.598   3.773   4.468  0.6162  0.0312  0.0938
  126OSM   H15F13451   4.505   3.824   4.500  0.7474  1.2185 -1.2892
  126OSM   H15G13452   4.652   3.848   4.405  0.5998 -0.6741 -0.7885
  126OSM   C16F13453   4.694   3.726   4.579 -0.4456 -0.4400  0.0081
  126OSM   H16F13454   4.778   3.671   4.531 -0.5394  0.2448 -0.9759
  126OSM   H16G13455   4.633   3.658   4.642  0.8069 -1.1523  0.4805
  126OSM   C17F13456   4.750   3.843   4.665 -0.1936 -0.9134  0.4610
  126OSM   H17F13457   4.832   3.897   4.614  0.4881 -0.4708  1.9505
  126OSM   H17G13458   4.792   3.794   4.756  0.2855  0.6817  1.1386
  126OSM   C18F13459   4.650   3.957   4.692  0.3266  0.3093 -0.3121
  126OSM   H18F13460   4.553   3.911   4.719  0.3491 -0.5372 -1.6025
  126OSM   H18G13461   4.631   4.008   4.595  1.6147 -0.1289 -0.8020
  126OSM   H18H13462   4.680   4.030   4.770 -1.3963  1.4102 -0.6118
  127OSM      N13463   4.555   6.124   1.797 -0.2239  0.2569 -0.0046
  127OSM    C1513464   4.647   6.239   1.843  0.1510  0.1113 -0.5533
  127OSM   H15A13465   4.671   6.218   1.947  0.9352 -0.5288 -0.8502
  127OSM   H15B13466   4.585   6.326   1.828  0.0185 -0.3287 -2.9418
  127OSM   H15C13467   4.742   6.247   1.792  0.5733  1.8272  0.4141
  127OSM    C1413468   4.541   6.134   1.649  0.1126 -0.3396  0.1244
  127OSM   H14A13469   4.477   6.052   1.622  0.1347 -0.7595  1.2917
  127OSM   H14B13470   4.639   6.129   1.604 -0.6600  0.0180 -1.6502
  127OSM   H14C13471   4.496   6.225   1.613  0.3837 -1.0696 -2.2376
  127OSM    C1313472   4.619   5.992   1.831  0.1958 -0.6076 -0.6685
  127OSM   H13A13473   4.587   5.962   1.929  0.8266  0.9183  0.0345
  127OSM   H13B13474   4.725   5.997   1.814  0.2072  0.1739 -0.3913
  127OSM   H13C13475   4.583   5.910   1.770  2.2990 -3.2173  1.3978
  127OSM    C1213476   4.420   6.131   1.870 -0.0464  1.1244  0.0845
  127OSM   H12A13477   4.356   6.058   1.823  0.6564 -1.7189  3.1444
  127OSM   H12B13478   4.376   6.227   1.850 -0.1069  1.1237  0.2144
  127OSM    C1113479   4.414   6.109   2.019 -0.4412 -0.3830  0.3025
  127OSM   H11A13480   4.318   6.147   2.061  0.1287 -0.2795  1.5393
  127OSM   H11B13481   4.500   6.165   2.061 -2.0041  1.3746  1.3033
  127OSM      P13482   4.316   5.867   2.010 -0.1430 -0.3460 -0.2728
  127OSM    O1313483   4.290   5.864   1.862 -0.1898  0.3069 -0.3949
  127OSM    O1413484   4.351   5.741   2.080  0.2427 -0.6956  0.1071
  127OSM    O1113485   4.187   5.928   2.086  0.2443  0.4395  1.1208
  127OSM    O1213486   4.426   5.970   2.043 -0.0658 -0.0993  0.2017
  127OSM    C1S13487   4.076   5.849   2.112  0.0555  0.0272 -0.5408
  127OSM    H1S13488   4.091   5.743   2.083  1.2036 -0.2492  0.9538
  127OSM    H1T13489   3.989   5.891   2.058  0.4275  2.7266  0.7697
  127OSM     NF13490   3.946   5.748   2.294  0.4983  0.0674  0.0969
  127OSM    HNF13491   3.850   5.776   2.293  0.2235 -0.8171 -1.8109
  127OSM    C2S13492   4.047   5.845   2.264  0.2765  0.7647  0.5441
  127OSM    H2S13493   4.135   5.806   2.319  1.0127  0.5603 -0.7477
  127OSM    C3S13494   4.013   5.976   2.321  0.2990 -0.5208 -0.6368
  127OSM    H3S13495   3.915   5.999   2.274  0.6871 -2.1711 -2.3881
  127OSM     O313496   4.104   6.074   2.279 -0.2300 -0.7041  0.0632
  127OSM    HO313497   4.156   6.019   2.219 -0.0710  0.3247 -0.7895
  127OSM    C4S13498   3.989   5.971   2.471  1.2076 -0.0793 -0.0031
  127OSM    H4S13499   4.071   5.929   2.531 -0.5752 -2.0847  1.1883
  127OSM    C5S13500   3.873   6.006   2.541 -0.7946  0.8408 -0.0539
  127OSM    H5S13501   3.788   6.053   2.489 -1.5507 -0.1700  0.2403
  127OSM    C6S13502   3.855   5.999   2.694 -0.6866 -0.2995  0.7460
  127OSM    H6S13503   3.769   5.931   2.718 -0.4946 -0.5023  0.8601
  127OSM    H6T13504   3.845   6.106   2.721 -3.4372  0.3407 -2.2097
  127OSM    C7S13505   3.979   5.953   2.768  0.1861  0.5463 -0.0899
  127OSM    H7S13506   4.061   6.023   2.743  0.0802  0.1874 -1.5843
  127OSM    H7T13507   4.007   5.849   2.739  1.6159 -0.3328  3.8547
  127OSM    C8S13508   3.957   5.945   2.921  0.2188  0.1781 -0.5698
  127OSM    H8S13509   3.875   5.872   2.937  0.3938  0.3388  1.2975
  127OSM    H8T13510   3.929   6.042   2.968  1.9244  0.0149  0.9232
  127OSM    C9S13511   4.085   5.887   2.982 -1.6642  0.0128  1.0345
  127OSM    H9S13512   4.168   5.951   2.945 -1.2709 -1.0129  0.0619
  127OSM    H9T13513   4.106   5.781   2.955 -1.7456  0.7369 -2.2009
  127OSM   C10S13514   4.074   5.885   3.136 -0.0956 -0.1957 -0.8138
  127OSM   H10S13515   4.158   5.822   3.172  1.3066  1.9824 -0.0404
  127OSM   H10T13516   3.984   5.827   3.167  0.6642 -0.3120  1.3168
  127OSM   C11S13517   4.055   6.025   3.195  1.0012  0.5249  0.4179
  127OSM   H11S13518   3.959   6.061   3.153  1.2005  1.2556  0.5884
  127OSM   H11T13519   4.126   6.105   3.166 -0.6233  1.6315 -0.6370
  127OSM   C12S13520   4.066   6.020   3.350  0.5093 -0.6927 -0.0755
  127OSM   H12S13521   4.166   5.994   3.391  1.0944  1.9134  0.3133
  127OSM   H12T13522   3.986   5.948   3.378  2.2833 -2.6898  0.1122
  127OSM   C13S13523   4.033   6.165   3.404  0.0841  1.1071  0.1204
  127OSM   H13S13524   3.940   6.208   3.362 -0.0559 -1.5376 -2.6797
  127OSM   H13T13525   4.124   6.224   3.381  0.4253  0.2670 -0.7866
  127OSM   C14S13526   4.037   6.154   3.560 -0.1431  0.1053 -0.0044
  127OSM   H14S13527   4.132   6.105   3.589  0.1902 -0.4621 -1.9531
  127OSM   H14T13528   3.958   6.081   3.592  0.4625  0.6870  3.2130
  127OSM   C15S13529   4.018   6.278   3.647 -0.1004 -0.3886  0.3687
  127OSM   H15S13530   3.978   6.254   3.748  1.1343  0.9861  1.2261
  127OSM   H15T13531   3.945   6.337   3.588  0.0651 -1.5216 -1.0345
  127OSM   C16S13532   4.149   6.360   3.663 -0.6996  0.0276 -0.6840
  127OSM   H16S13533   4.131   6.459   3.709  2.1796  0.6439 -0.7546
  127OSM   H16T13534   4.175   6.396   3.561  0.5950  2.1654  0.3323
  127OSM   C17S13535   4.273   6.295   3.730  0.2313  0.3491  0.2239
  127OSM   H17S13536   4.357   6.368   3.723 -0.5032  1.1479 -0.4827
  127OSM   H17T13537   4.298   6.202   3.675 -2.4667 -0.6377  0.5131
  127OSM   C18S13538   4.241   6.247   3.874 -0.5820  0.3720  0.4523
  127OSM   H18S13539   4.312   6.168   3.907  0.2727  1.9503  2.6760
  127OSM   H18T13540   4.135   6.215   3.887 -0.3205 -0.4415  0.6072
  127OSM   H18U13541   4.245   6.332   3.946 -2.7907  1.6726 -0.8350
  127OSM    C1F13542   3.955   5.618   2.280  0.2947 -0.1471  0.2472
  127OSM     OF13543   4.068   5.570   2.269 -0.3400 -0.3289  0.2061
  127OSM    C2F13544   3.830   5.531   2.277  0.6222 -0.3380 -0.3553
  127OSM    H2F13545   3.841   5.465   2.189 -2.5295 -1.9432  0.3009
  127OSM    H2G13546   3.736   5.590   2.278  1.4114  0.9457 -0.2588
  127OSM    C3F13547   3.836   5.429   2.394  0.2047 -0.4102  0.4604
  127OSM    H3F13548   3.927   5.368   2.379 -0.6506 -1.8091  0.8048
  127OSM    H3G13549   3.748   5.363   2.379 -0.2315  0.1270  0.6094
  127OSM    C4F13550   3.838   5.489   2.535 -0.4111  0.8554 -0.0164
  127OSM    H4F13551   3.938   5.534   2.555  0.5930 -0.2888 -2.1381
  127OSM    H4G13552   3.824   5.406   2.608 -1.0747  1.0002  0.0201
  127OSM    C5F13553   3.732   5.599   2.561 -0.3942  0.9567  0.0744
  127OSM    H5F13554   3.630   5.567   2.530  0.1010  0.0013 -0.6092
  127OSM    H5G13555   3.753   5.684   2.493 -0.4160 -0.5686 -1.9230
  127OSM    C6F13556   3.726   5.644   2.708 -0.3867 -0.1321  0.8727
  127OSM    H6F13557   3.664   5.736   2.712  0.4024  0.4300  0.3081
  127OSM    H6G13558   3.826   5.681   2.737 -0.2346  0.6199 -0.4932
  127OSM    C7F13559   3.676   5.537   2.813 -0.1408 -0.3612  0.2586
  127OSM    H7F13560   3.759   5.464   2.824  0.2282  0.1746  1.1988
  127OSM    H7G13561   3.594   5.474   2.774 -0.6946  0.4544  0.0752
  127OSM    C8F13562   3.624   5.599   2.954  0.5611  0.1485 -0.1685
  127OSM    H8F13563   3.560   5.516   2.992  1.9727 -1.2307 -0.6649
  127OSM    H8G13564   3.556   5.684   2.935  0.9942  1.0553  1.9754
  127OSM    C9F13565   3.723   5.638   3.064  0.3327  0.1440 -0.0042
  127OSM    H9F13566   3.823   5.665   3.027  0.2353  0.2788 -0.1705
  127OSM   C10F13567   3.691   5.644   3.196  0.4648  0.1658  0.0729
  127OSM   H10F13568   3.769   5.688   3.260  1.8152 -0.8229 -0.8195
  127OSM   C11F13569   3.565   5.603   3.263  0.5824  0.3694 -0.2671
  127OSM   H11F13570   3.497   5.540   3.203 -0.8196  1.2464  0.3531
  127OSM   H11G13571   3.504   5.689   3.297 -1.5002 -1.1512  0.0196
  127OSM   C12F13572   3.599   5.512   3.381  0.2385  0.3327 -0.3024
  127OSM   H12F13573   3.669   5.431   3.352 -0.4337  0.2205 -1.6519
  127OSM   H12G13574   3.506   5.478   3.431  1.7187  0.4233  2.7751
  127OSM   C13F13575   3.649   5.596   3.506  0.4954 -0.2459  0.6119
  127OSM   H13F13576   3.568   5.668   3.529 -0.6772 -1.0298 -0.8873
  127OSM   H13G13577   3.745   5.651   3.495  1.7383 -1.9560  2.1936
  127OSM   C14F13578   3.691   5.504   3.623  0.4333 -0.1254 -0.8077
  127OSM   H14F13579   3.782   5.453   3.584 -0.9928 -2.3825 -1.3391
  127OSM   H14G13580   3.619   5.427   3.655  0.1718  0.3736 -0.1735
  127OSM   C15F13581   3.722   5.585   3.746 -0.1641 -0.5365  0.0183
  127OSM   H15F13582   3.632   5.628   3.795 -0.1408  0.3998 -0.7353
  127OSM   H15G13583   3.778   5.672   3.706 -1.6124  0.6644  0.5045
  127OSM   C16F13584   3.818   5.527   3.844 -0.5824 -0.1029 -0.2548
  127OSM   H16F13585   3.912   5.511   3.786 -1.5697 -0.1935 -1.9109
  127OSM   H16G13586   3.784   5.426   3.874 -0.0012 -0.5336 -0.9905
  127OSM   C17F13587   3.833   5.624   3.967  0.4485 -0.3151 -0.0363
  127OSM   H17F13588   3.887   5.717   3.940 -0.9258 -0.2325 -2.8793
  127OSM   H17G13589   3.906   5.570   4.031  0.7313  0.8747  0.6765
  127OSM   C18F13590   3.714   5.646   4.062 -0.0031 -0.2358 -0.2977
  127OSM   H18F13591   3.670   5.550   4.095 -0.0683  0.1233  0.7116
  127OSM   H18G13592   3.638   5.702   4.003 -0.6720 -0.0840  0.6738
  127OSM   H18H13593   3.747   5.693   4.157 -0.3765 -2.0014  0.7383
  128OSM      N13594   3.872   3.415   2.060 -0.6709  0.2090 -0.2635
  128OSM    C1513595   3.916   3.534   1.976 -0.2108 -0.1200 -0.4478
  128OSM   H15A13596   3.941   3.617   2.041 -2.7721  0.7638 -0.4765
  128OSM   H15B13597   3.834   3.576   1.920 -2.3461 -1.2960  1.5932
  128OSM   H15C13598   3.997   3.500   1.913 -0.5357 -1.3424 -0.2355
  128OSM    C1413599   3.849   3.297   1.969 -0.2742  0.1607  0.1111
  128OSM   H14A13600   3.821   3.212   2.030  2.8437 -1.2306 -0.2264
  128OSM   H14B13601   3.936   3.256   1.921 -0.6164 -0.0797 -0.3173
  128OSM   H14C13602   3.780   3.315   1.888  1.3709  2.0051 -0.9559
  128OSM    C1313603   3.979   3.381   2.159 -0.3533 -0.2716  0.5723
  128OSM   H13A13604   3.983   3.452   2.241 -2.5547 -1.0665  1.4607
  128OSM   H13B13605   4.076   3.368   2.114 -0.8280 -0.7515 -0.3435
  128OSM   H13C13606   3.952   3.288   2.206 -1.2136 -1.1308 -1.4868
  128OSM    C1213607   3.743   3.449   2.136  0.3646  0.4232 -0.3616
  128OSM   H12A13608   3.677   3.474   2.055 -0.1993  0.8368  0.2100
  128OSM   H12B13609   3.763   3.540   2.190  0.0270 -0.4181  1.2558
  128OSM    C1113610   3.674   3.342   2.220 -0.1999  0.3018  0.1063
  128OSM   H11A13611   3.574   3.383   2.246 -0.0353 -0.2881  1.7935
  128OSM   H11B13612   3.730   3.325   2.314 -0.2895 -1.7518 -0.1621
  128OSM      P13613   3.529   3.176   2.059 -0.2649  0.3057 -0.0080
  128OSM    O1313614   3.513   3.283   1.957 -0.2983  0.0198 -0.6355
  128OSM    O1413615   3.534   3.038   2.020 -0.1519 -0.3373  0.7035
  128OSM    O1113616   3.411   3.189   2.163  0.4101 -0.7223 -0.0812
  128OSM    O1213617   3.657   3.214   2.154  0.5230 -0.7086  0.1069
  128OSM    C1S13618   3.379   3.086   2.261  0.2699 -0.0016 -0.6035
  128OSM    H1S13619   3.421   2.987   2.235 -0.7016 -0.1970 -1.4942
  128OSM    H1T13620   3.271   3.066   2.280  0.7485  0.5005  3.5228
  128OSM     NF13621   3.431   3.025   2.495 -0.2313  0.0520  0.0138
  128OSM    HNF13622   3.352   3.022   2.554 -1.1892  0.6253 -1.1929
  128OSM    C2S13623   3.433   3.132   2.403 -0.1041 -0.1857  1.0658
  128OSM    H2S13624   3.542   3.153   2.396  0.3565 -2.7676 -1.3980
  128OSM    C3S13625   3.351   3.254   2.445 -0.0829  0.1411 -0.1653
  128OSM    H3S13626   3.246   3.217   2.455  0.4865 -1.0052  2.2637
  128OSM     O313627   3.345   3.366   2.350  0.6088  0.1442  0.0297
  128OSM    HO313628   3.392   3.339   2.270 -2.0444 -0.7429 -1.3487
  128OSM    C4S13629   3.396   3.305   2.572  0.3506  0.5512  0.2912
  128OSM    H4S13630   3.492   3.359   2.565  0.9058 -0.4816 -0.4590
  128OSM    C5S13631   3.320   3.310   2.683 -0.2246 -0.1066 -0.0221
  128OSM    H5S13632   3.224   3.258   2.692 -1.1406  1.1272 -1.8576
  128OSM    C6S13633   3.364   3.385   2.807  0.4259 -0.1757  0.0488
  128OSM    H6S13634   3.350   3.493   2.784 -0.5466 -0.0675  1.0639
  128OSM    H6T13635   3.472   3.367   2.825  1.0302  2.5178 -0.5295
  128OSM    C7S13636   3.297   3.351   2.945 -0.2193  0.1350  0.8001
  128OSM    H7S13637   3.319   3.244   2.964  1.1824  0.8423  3.7023
  128OSM    H7T13638   3.186   3.363   2.939 -0.3008  0.1288  1.9843
  128OSM    C8S13639   3.353   3.435   3.058 -0.4723  0.5696  0.6964
  128OSM    H8S13640   3.299   3.532   3.065  1.6225  1.8706 -0.1509
  128OSM    H8T13641   3.455   3.472   3.034 -0.8261  1.2576  0.2085
  128OSM    C9S13642   3.365   3.362   3.194 -0.5112  0.3102  0.7411
  128OSM    H9S13643   3.422   3.268   3.177 -1.5161 -0.3681  1.0216
  128OSM    H9T13644   3.262   3.337   3.227 -2.0557  3.2836 -1.4042
  128OSM   C10S13645   3.421   3.457   3.303  0.0494  0.4360 -0.4692
  128OSM   H10S13646   3.362   3.551   3.314 -0.4883 -0.1125  2.1618
  128OSM   H10T13647   3.527   3.478   3.280 -0.4956  4.1399 -0.2925
  128OSM   C11S13648   3.424   3.399   3.445  0.3861 -0.6302 -0.1476
  128OSM   H11S13649   3.482   3.304   3.451  0.8513 -0.5251 -2.3883
  128OSM   H11T13650   3.320   3.370   3.473  0.2125 -0.5676 -0.7142
  128OSM   C12S13651   3.480   3.493   3.553 -0.3181 -0.8175 -0.0101
  128OSM   H12S13652   3.413   3.580   3.566 -1.7219 -2.0166  1.2185
  128OSM   H12T13653   3.579   3.517   3.509 -1.5373 -1.4235 -3.4243
  128OSM   C13S13654   3.472   3.431   3.692  0.2195  0.3506 -0.5602
  128OSM   H13S13655   3.532   3.338   3.685 -0.3796  0.0236 -1.4913
  128OSM   H13T13656   3.366   3.409   3.715  0.9910 -1.2165  1.8726
  128OSM   C14S13657   3.534   3.533   3.790 -0.0587 -0.1656  0.4404
  128OSM   H14S13658   3.466   3.621   3.800 -0.3695 -0.0874 -1.7475
  128OSM   H14T13659   3.622   3.584   3.744  1.0539 -2.3761  0.0025
  128OSM   C15S13660   3.569   3.495   3.935  0.4812 -0.1932  0.2549
  128OSM   H15S13661   3.625   3.581   3.976  0.9322 -0.1634 -0.4223
  128OSM   H15T13662   3.632   3.404   3.948  0.5711  0.0023  1.2647
  128OSM   C16S13663   3.450   3.488   4.035  0.0848  0.0991 -0.3620
  128OSM   H16S13664   3.367   3.425   3.997  1.0753 -0.6374 -1.3587
  128OSM   H16T13665   3.416   3.590   4.064  1.1900 -0.3802  3.1428
  128OSM   C17S13666   3.494   3.417   4.163  0.1454  0.5788  0.1796
  128OSM   H17S13667   3.556   3.325   4.147 -0.1841 -0.1882  2.9173
  128OSM   H17T13668   3.403   3.387   4.218 -0.4327  0.8125 -0.6233
  128OSM   C18S13669   3.566   3.509   4.255  0.6000  0.0409  0.3587
  128OSM   H18S13670   3.605   3.461   4.347 -0.1161  1.0345  1.2076
  128OSM   H18T13671   3.514   3.605   4.277 -1.9496 -0.8695 -1.2954
  128OSM   H18U13672   3.658   3.545   4.204 -0.5506  0.9618 -1.1345
  128OSM    C1F13673   3.510   2.919   2.498  0.8457 -0.6268 -0.4672
  128OSM     OF13674   3.587   2.892   2.409  0.4949 -0.5452  0.2167
  128OSM    C2F13675   3.489   2.824   2.608 -1.0232  0.7145  0.7627
  128OSM    H2F13676   3.404   2.753   2.596 -0.3987  0.0446  0.2337
  128OSM    H2G13677   3.469   2.888   2.696 -1.6663  1.0734  0.3630
  128OSM    C3F13678   3.611   2.729   2.638  1.2109 -0.3992  0.2059
  128OSM    H3F13679   3.706   2.785   2.649  0.7187  0.8628 -1.5365
  128OSM    H3G13680   3.619   2.656   2.555 -2.2340 -2.7602  1.7025
  128OSM    C4F13681   3.577   2.669   2.781  0.2030  0.3699 -0.4219
  128OSM    H4F13682   3.489   2.608   2.754  1.8882 -1.2581 -2.5815
  128OSM    H4G13683   3.551   2.750   2.853  1.1901 -1.6425  2.3804
  128OSM    C5F13684   3.691   2.589   2.851 -0.2517  0.1979  0.3088
  128OSM    H5F13685   3.776   2.655   2.825  0.5999 -1.0228 -0.1218
  128OSM    H5G13686   3.702   2.487   2.809 -1.3519  0.8814 -1.8087
  128OSM    C6F13687   3.681   2.590   3.002 -0.6231  0.2360  0.4555
  128OSM    H6F13688   3.587   2.534   3.023  0.2861 -0.8814  1.6988
  128OSM    H6G13689   3.664   2.689   3.051 -2.1399  1.2442 -1.9254
  128OSM    C7F13690   3.803   2.513   3.076 -1.0529 -0.6604 -0.5219
  128OSM    H7F13691   3.835   2.419   3.026 -0.2178  0.2239 -1.6959
  128OSM    H7G13692   3.756   2.475   3.169 -3.1841  2.4422 -0.1651
  128OSM    C8F13693   3.927   2.599   3.104 -0.2524  0.5663  0.2795
  128OSM    H8F13694   3.894   2.700   3.138  0.6532  1.0168 -0.1370
  128OSM    H8G13695   3.987   2.617   3.012  1.1913 -1.6520  0.7133
  128OSM    C9F13696   4.010   2.545   3.217 -0.0547 -0.0394 -0.2363
  128OSM    H9F13697   4.092   2.476   3.192  0.5481  1.2865 -2.1626
  128OSM   C10F13698   3.994   2.574   3.348  0.6186  0.5682 -0.2418
  128OSM   H10F13699   4.058   2.522   3.422 -1.5323 -0.5178  0.9410
  128OSM   C11F13700   3.888   2.663   3.412 -0.3768  0.4532 -0.5964
  128OSM   H11F13701   3.814   2.699   3.336 -1.8155 -1.9638 -0.4500
  128OSM   H11G13702   3.934   2.745   3.471  0.6842 -2.3463  2.8081
  128OSM   C12F13703   3.803   2.599   3.522  0.8368 -0.3136 -0.2203
  128OSM   H12F13704   3.758   2.506   3.482 -4.0412  1.8846 -0.4800
  128OSM   H12G13705   3.711   2.657   3.540  0.8011 -1.1231  2.6856
  128OSM   C13F13706   3.868   2.568   3.654 -0.1876  0.1387  0.2361
  128OSM   H13F13707   3.959   2.509   3.629 -0.3812  0.1077 -0.4359
  128OSM   H13G13708   3.812   2.494   3.715  1.2517 -0.0955  1.3162
  128OSM   C14F13709   3.904   2.694   3.736 -0.2805  0.0916  0.7607
  128OSM   H14F13710   3.818   2.739   3.791  0.7540  2.1981  0.7487
  128OSM   H14G13711   3.939   2.780   3.676 -1.9244  1.6879  1.9698
  128OSM   C15F13712   4.005   2.665   3.851  0.0897 -0.3714  0.1645
  128OSM   H15F13713   4.100   2.633   3.803  0.3850 -1.3859  1.3890
  128OSM   H15G13714   3.973   2.584   3.920  2.3286 -0.7079  0.8820
  128OSM   C16F13715   4.023   2.784   3.940  0.0747 -0.2864  0.1149
  128OSM   H16F13716   3.936   2.853   3.933 -1.3278 -1.9235  0.7906
  128OSM   H16G13717   4.116   2.834   3.906 -0.4489  0.0420 -0.8736
  128OSM   C17F13718   4.035   2.758   4.091 -0.0338  0.6158 -0.5281
  128OSM   H17F13719   4.105   2.671   4.095 -0.5525  0.1473 -1.3652
  128OSM   H17G13720   3.939   2.728   4.137  1.3365 -3.4520  0.1316
  128OSM   C18F13721   4.106   2.882   4.156  0.5211 -0.1182 -0.1129
  128OSM   H18F13722   4.043   2.969   4.128 -2.4417 -1.6388  1.3164
  128OSM   H18G13723   4.211   2.901   4.124 -0.6442  2.5728 -2.8407
  128OSM   H18H13724   4.102   2.871   4.266  2.5677 -1.9938 -0.1473
  129OSM      N13725   6.257   3.088   2.116  0.0180 -0.1691 -0.1417
  129OSM    C1513726   6.208   3.203   2.034 -0.3887 -0.2711 -0.1978
  129OSM   H15A13727   6.252   3.293   2.074  1.9449  1.0497 -5.0149
  129OSM   H15B13728   6.103   3.217   2.052 -0.0993  0.4901  1.0929
  129OSM   H15C13729   6.247   3.190   1.934  0.7006  0.3625  0.1175
  129OSM    C1413730   6.202   2.959   2.063  0.2036 -0.1716 -0.1200
  129OSM   H14A13731   6.248   2.881   2.123 -1.5688 -0.5683  0.7934
  129OSM   H14B13732   6.211   2.952   1.956  0.7233 -0.8215 -0.0394
  129OSM   H14C13733   6.095   2.950   2.078  0.3872 -0.7900  0.9300
  129OSM    C1313734   6.405   3.077   2.112 -0.2760 -0.1195  0.2242
  129OSM   H13A13735   6.449   3.166   2.153 -0.1356 -0.4009  0.6922
  129OSM   H13B13736   6.444   3.082   2.011  0.2387 -1.8252  0.2992
  129OSM   H13C13737   6.443   2.983   2.150  1.4162  0.6456  0.4845
  129OSM    C1213738   6.214   3.098   2.257  0.9772 -0.0606 -0.0676
  129OSM   H12A13739   6.261   3.019   2.314  0.8121 -1.1728 -1.4207
  129OSM   H12B13740   6.107   3.084   2.264  0.8612  0.2626 -1.0169
  129OSM    C1113741   6.254   3.225   2.342  0.3701  1.0140  0.1345
  129OSM   H11A13742   6.363   3.236   2.329  0.4000  0.3974 -0.2005
  129OSM   H11B13743   6.232   3.209   2.449  1.6689 -2.4019  0.0055
  129OSM      P13744   6.208   3.488   2.321 -0.3284  0.1654  0.5331
  129OSM    O1313745   6.274   3.545   2.205  0.5082 -0.8048 -0.7722
  129OSM    O1413746   6.078   3.544   2.360 -0.3213 -0.3872  0.0299
  129OSM    O1113747   6.302   3.484   2.439  0.3974  0.4647  0.0908
  129OSM    O1213748   6.175   3.334   2.295 -0.2878  0.2383 -0.6208
  129OSM    C1S13749   6.272   3.528   2.566  0.7234 -0.0236 -0.4036
  129OSM    H1S13750   6.163   3.551   2.573  0.0166 -1.8984 -3.2683
  129OSM    H1T13751   6.327   3.624   2.573 -0.5203  0.7325 -0.5681
  129OSM     NF13752   6.268   3.480   2.819 -1.0154  0.8141  0.0945
  129OSM    HNF13753   6.325   3.534   2.879 -0.4814 -0.6838  0.9850
  129OSM    C2S13754   6.327   3.443   2.692  0.1386 -0.2648  0.7350
  129OSM    H2S13755   6.297   3.340   2.664  0.7645  0.1034 -1.5323
  129OSM    C3S13756   6.486   3.428   2.687 -0.0919  0.2578 -0.1168
  129OSM    H3S13757   6.527   3.525   2.721  2.3992 -0.7386 -0.0444
  129OSM     O313758   6.554   3.408   2.558  0.1675  0.1702 -0.3138
  129OSM    HO313759   6.484   3.399   2.492 -0.9403  1.3328  0.6634
  129OSM    C4S13760   6.530   3.328   2.796 -0.1366  0.0935 -0.4738
  129OSM    H4S13761   6.559   3.376   2.891 -0.8034 -1.0870  0.3673
  129OSM    C5S13762   6.528   3.189   2.787  0.1224  0.5784 -0.2764
  129OSM    H5S13763   6.484   3.149   2.694  1.1360  0.0369 -0.5366
  129OSM    C6S13764   6.556   3.094   2.901  0.0475 -0.0628 -0.6023
  129OSM    H6S13765   6.646   3.041   2.863  0.8511  1.0487 -0.2945
  129OSM    H6T13766   6.471   3.024   2.919 -0.3503 -0.1317 -2.4534
  129OSM    C7S13767   6.582   3.155   3.043  0.7167  0.1492  0.0567
  129OSM    H7S13768   6.481   3.198   3.062 -0.1634 -1.2997 -1.1000
  129OSM    H7T13769   6.659   3.235   3.041  0.8664 -0.0020 -1.1197
  129OSM    C8S13770   6.628   3.057   3.147 -0.4073  0.6053  0.1575
  129OSM    H8S13771   6.726   3.017   3.116 -1.1806 -1.0216 -0.3265
  129OSM    H8T13772   6.546   2.983   3.161 -1.3937  1.7769  0.7831
  129OSM    C9S13773   6.657   3.112   3.287 -0.3605  0.2188 -0.1937
  129OSM    H9S13774   6.565   3.129   3.347 -1.2567  1.6163 -1.8867
  129OSM    H9T13775   6.709   3.210   3.283  1.6285 -0.5746  2.7684
  129OSM   C10S13776   6.751   3.011   3.351 -0.3146 -0.6036 -0.4426
  129OSM   H10S13777   6.849   2.995   3.301  2.4118  2.4396  3.3117
  129OSM   H10T13778   6.699   2.912   3.347 -2.2336  0.3883 -2.6103
  129OSM   C11S13779   6.796   3.057   3.498  0.5795 -0.6009  0.0147
  129OSM   H11S13780   6.707   3.063   3.563 -0.0822 -3.2339 -0.5392
  129OSM   H11T13781   6.846   3.155   3.482  2.4940 -0.8273  3.6207
  129OSM   C12S13782   6.902   2.957   3.552  0.1445  0.3288 -0.1519
  129OSM   H12S13783   7.001   2.984   3.508  0.2782  1.8346  0.9688
  129OSM   H12T13784   6.869   2.862   3.507 -0.8487  0.7963 -0.4381
  129OSM   C13S13785   6.896   2.945   3.707 -0.0988 -0.3219  0.5838
  129OSM   H13S13786   6.977   2.874   3.735  0.1332  0.9726  3.6030
  129OSM   H13T13787   6.797   2.897   3.723  0.5378 -2.1716 -0.6711
  129OSM   C14S13788   6.890   3.082   3.772 -1.1703 -0.1252  0.1166
  129OSM   H14S13789   6.804   3.142   3.734 -1.0413 -0.8653 -1.4229
  129OSM   H14T13790   6.981   3.138   3.740 -0.2615 -2.2890 -1.2493
  129OSM   C15S13791   6.885   3.070   3.925 -0.6914  0.1329  0.1126
  129OSM   H15S13792   6.886   3.173   3.967 -1.9461 -0.2464  1.1340
  129OSM   H15T13793   6.968   3.000   3.946  1.5921  2.3907 -0.8829
  129OSM   C16S13794   6.757   3.008   3.982  0.7395  0.0356  0.4534
  129OSM   H16S13795   6.732   2.918   3.922  0.8182 -0.5382  1.2796
  129OSM   H16T13796   6.678   3.085   3.963  0.2876 -0.2008  1.3129
  129OSM   C17S13797   6.753   2.976   4.137 -0.2011  0.3499  0.8050
  129OSM   H17S13798   6.844   2.921   4.169  0.4265  1.2509  0.6395
  129OSM   H17T13799   6.669   2.907   4.156  0.1439 -0.6155 -1.0009
  129OSM   C18S13800   6.738   3.101   4.232  0.4085  0.4776 -0.0020
  129OSM   H18S13801   6.780   3.092   4.334  0.4755  0.9362  0.0125
  129OSM   H18T13802   6.632   3.135   4.238  0.3037  0.3944 -1.1112
  129OSM   H18U13803   6.792   3.186   4.183 -2.3302  2.4924  0.2135
  129OSM    C1F13804   6.137   3.469   2.844  0.6584  0.1254 -0.6167
  129OSM     OF13805   6.055   3.417   2.769 -0.0692  0.5085  0.8973
  129OSM    C2F13806   6.079   3.524   2.970  0.0558 -0.4206 -0.2091
  129OSM    H2F13807   5.974   3.498   2.992  0.3970 -0.6988  1.2068
  129OSM    H2G13808   6.094   3.634   2.980  0.5681 -0.4854 -0.2182
  129OSM    C3F13809   6.150   3.451   3.092  0.1635 -0.1192  0.0515
  129OSM    H3F13810   6.258   3.473   3.104  0.0345  1.7788 -1.7199
  129OSM    H3G13811   6.140   3.343   3.071  2.6381 -0.3747 -0.0543
  129OSM    C4F13812   6.079   3.497   3.219 -0.3833  1.1012 -0.4722
  129OSM    H4F13813   5.971   3.495   3.196 -0.9791 -2.7184  1.6375
  129OSM    H4G13814   6.117   3.596   3.253  0.3103  0.2169  1.5217
  129OSM    C5F13815   6.104   3.399   3.337 -0.3443 -0.0508  0.4561
  129OSM    H5F13816   6.209   3.360   3.339 -0.2924  0.0173  2.8228
  129OSM    H5G13817   6.032   3.315   3.326 -0.7086  0.1516  1.2247
  129OSM    C6F13818   6.060   3.466   3.470  0.2936  0.1291 -0.1397
  129OSM    H6F13819   5.951   3.459   3.490  0.6195 -0.3422  1.5781
  129OSM    H6G13820   6.074   3.576   3.463 -0.0239  0.2272  0.6418
  129OSM    C7F13821   6.146   3.419   3.584 -0.7421 -0.1926  0.8485
  129OSM    H7F13822   6.254   3.436   3.563 -0.5205 -0.6790  1.5355
  129OSM    H7G13823   6.129   3.309   3.593  0.2864 -0.4183  0.2002
  129OSM    C8F13824   6.108   3.488   3.710 -0.2296  0.9990 -0.7562
  129OSM    H8F13825   5.997   3.500   3.714 -0.5245 -1.3170 -0.3230
  129OSM    H8G13826   6.165   3.582   3.718 -0.5503  1.1854 -0.6420
  129OSM    C9F13827   6.138   3.391   3.824 -0.2890 -0.1666 -0.6270
  129OSM    H9F13828   6.246   3.377   3.837 -0.0133  0.9837 -1.4531
  129OSM   C10F13829   6.051   3.315   3.893  0.1923 -0.3751  0.0904
  129OSM   H10F13830   6.088   3.249   3.972  2.5843 -0.5057 -1.0717
  129OSM   C11F13831   5.898   3.309   3.864 -0.3908 -0.1798  0.2891
  129OSM   H11F13832   5.869   3.317   3.758 -1.4805  0.7630  0.6385
  129OSM   H11G13833   5.853   3.396   3.918 -0.9388  1.5067 -2.6711
  129OSM   C12F13834   5.839   3.186   3.928 -0.1792  0.4056 -0.0874
  129OSM   H12F13835   5.867   3.163   4.033  0.0889  0.7817 -0.0735
  129OSM   H12G13836   5.888   3.100   3.879 -1.3029 -0.2105 -0.1606
  129OSM   C13F13837   5.680   3.169   3.909 -0.4205  0.6869  0.2602
  129OSM   H13F13838   5.651   3.066   3.939  0.1047  0.7896  1.1849
  129OSM   H13G13839   5.646   3.195   3.807 -0.7882 -0.4600  0.0852
  129OSM   C14F13840   5.607   3.254   4.010  0.4775  0.0670 -0.3243
  129OSM   H14F13841   5.499   3.233   4.000  1.0884 -3.8991 -0.3907
  129OSM   H14G13842   5.625   3.363   3.995  0.6176  0.4961  2.4201
  129OSM   C15F13843   5.643   3.216   4.159 -0.1275 -0.0310 -0.5101
  129OSM   H15F13844   5.734   3.264   4.199 -1.3847  0.5796  1.8408
  129OSM   H15G13845   5.638   3.106   4.150 -0.4961  0.0495 -1.3639
  129OSM   C16F13846   5.532   3.245   4.255  0.3851  0.3137  0.2904
  129OSM   H16F13847   5.501   3.351   4.243 -3.4613 -0.7883 -0.8832
  129OSM   H16G13848   5.568   3.206   4.353 -0.1939 -0.3482  0.2457
  129OSM   C17F13849   5.409   3.149   4.251  0.7555 -0.4488 -0.0302
  129OSM   H17F13850   5.439   3.041   4.248  1.1392 -0.4988  2.8999
  129OSM   H17G13851   5.346   3.163   4.161  0.8272 -2.4460 -0.4428
  129OSM   C18F13852   5.330   3.168   4.382  0.7558 -0.0639  0.7610
  129OSM   H18F13853   5.240   3.105   4.398  0.5401  0.7283  2.9862
  129OSM   H18G13854   5.294   3.272   4.391 -0.5011 -0.3411 -0.7042
  129OSM   H18H13855   5.408   3.159   4.461  1.3703  0.5918  0.2555
  130OSM      N13856   4.622   6.682   1.767  0.0438  0.2463  0.6543
  130OSM    C1513857   4.551   6.789   1.836  0.3073 -0.4408  0.0817
  130OSM   H15A13858   4.535   6.870   1.766 -0.4067 -0.4344  0.2444
  130OSM   H15B13859   4.600   6.820   1.927 -1.4775 -0.7120  1.1858
  130OSM   H15C13860   4.457   6.754   1.877  0.3325 -1.3241 -0.5739
  130OSM    C1413861   4.522   6.630   1.673 -0.2880  0.4714  0.1835
  130OSM   H14A13862   4.495   6.717   1.615  0.0696  2.4404  2.7908
  130OSM   H14B13863   4.431   6.595   1.719  0.2467 -2.2538 -0.6544
  130OSM   H14C13864   4.554   6.541   1.622 -0.0841  0.6564 -0.0127
  130OSM    C1313865   4.736   6.742   1.679  1.0969 -0.3388  0.2467
  130OSM   H13A13866   4.828   6.764   1.732  1.8083 -1.0476 -0.6527
  130OSM   H13B13867   4.699   6.830   1.630 -0.9250 -1.4581 -0.3616
  130OSM   H13C13868   4.773   6.673   1.605  1.0178  0.3792 -0.4687
  130OSM    C1213869   4.670   6.578   1.857 -0.5923  0.3759 -0.8216
  130OSM   H12A13870   4.705   6.495   1.797 -0.1879 -2.1276  2.6141
  130OSM   H12B13871   4.584   6.554   1.917 -2.1905  3.5883 -1.6364
  130OSM    C1113872   4.788   6.615   1.952 -0.0285  0.2374 -0.4835
  130OSM   H11A13873   4.797   6.546   2.039 -1.0332  1.1381  0.3635
  130OSM   H11B13874   4.764   6.712   2.001  1.3799 -0.0154  0.7994
  130OSM      P13875   5.032   6.721   1.942  0.2924 -0.1210 -0.3413
  130OSM    O1313876   5.155   6.654   1.912 -0.4840 -0.4053 -0.3874
  130OSM    O1413877   5.022   6.859   1.896  0.1151  0.0726 -0.4999
  130OSM    O1113878   5.009   6.719   2.100 -0.6659 -0.3554 -0.5304
  130OSM    O1213879   4.913   6.637   1.885  0.4798  0.1442  0.6710
  130OSM    C1S13880   5.084   6.622   2.166 -0.4678  0.5885  0.0321
  130OSM    H1S13881   5.192   6.641   2.144 -0.1986 -1.8057 -1.0279
  130OSM    H1T13882   5.066   6.519   2.129  0.9348  0.9857 -1.9156
  130OSM     NF13883   5.112   6.497   2.374 -0.2323  0.5397 -0.4344
  130OSM    HNF13884   5.042   6.430   2.397 -1.3081  1.9793  0.7521
  130OSM    C2S13885   5.066   6.622   2.320  0.0730 -0.4755 -0.1672
  130OSM    H2S13886   5.137   6.705   2.340 -0.5803 -0.2615  1.3474
  130OSM    C3S13887   4.925   6.653   2.373  0.0682 -0.3594 -0.4962
  130OSM    H3S13888   4.855   6.575   2.337  1.5551 -2.5113  1.0160
  130OSM     O313889   4.875   6.773   2.325 -0.5712 -0.2915 -0.4899
  130OSM    HO313890   4.891   6.772   2.230 -0.6491  0.7325 -0.5333
  130OSM    C4S13891   4.938   6.663   2.523  0.2720  0.3547  0.5624
  130OSM    H4S13892   4.982   6.757   2.559  0.6034  0.7275 -0.7699
  130OSM    C5S13893   4.887   6.584   2.616  0.1863 -0.9262 -0.2702
  130OSM    H5S13894   4.833   6.493   2.585  0.0741 -1.0022  0.1370
  130OSM    C6S13895   4.913   6.601   2.762  0.3436 -0.4620  0.0856
  130OSM    H6S13896   4.971   6.693   2.785  0.8103 -0.6861 -0.1608
  130OSM    H6T13897   4.959   6.510   2.808  3.0226 -0.5442 -2.4690
  130OSM    C7S13898   4.769   6.607   2.826 -0.1107 -0.2941  0.7939
  130OSM    H7S13899   4.685   6.547   2.786  1.2787 -1.9811  0.2820
  130OSM    H7T13900   4.743   6.713   2.806  1.4746 -0.1288 -0.6891
  130OSM    C8S13901   4.770   6.577   2.980 -0.4647  0.6090  0.1976
  130OSM    H8S13902   4.775   6.467   2.996  2.8176  0.3775 -1.4667
  130OSM    H8T13903   4.675   6.614   3.024 -0.4663 -0.1330  0.8343
  130OSM    C9S13904   4.880   6.646   3.060  0.1451  0.5404  0.8486
  130OSM    H9S13905   4.875   6.754   3.036 -0.9584  0.5445  1.0445
  130OSM    H9T13906   4.986   6.613   3.049 -0.0373 -1.5636  3.8732
  130OSM   C10S13907   4.849   6.653   3.215  0.6063  0.7670 -0.4223
  130OSM   H10S13908   4.842   6.549   3.253  0.6293  0.2810 -1.7200
  130OSM   H10T13909   4.749   6.701   3.217  1.4694  2.6728 -0.1192
  130OSM   C11S13910   4.954   6.740   3.287  0.9302  0.0651  0.9373
  130OSM   H11S13911   4.942   6.848   3.261 -0.1142  0.2342  1.9974
  130OSM   H11T13912   5.056   6.713   3.253  1.1359  0.8886  0.8801
  130OSM   C12S13913   4.945   6.730   3.442  0.1424  0.1041  0.0751
  130OSM   H12S13914   4.845   6.749   3.485  1.3739 -0.0578  3.2377
  130OSM   H12T13915   5.012   6.807   3.486 -0.3804  1.4505 -1.3825
  130OSM   C13S13916   4.992   6.594   3.504 -0.2666  0.2688  0.1755
  130OSM   H13S13917   5.100   6.574   3.494 -0.9413 -4.2076 -0.3170
  130OSM   H13T13918   4.941   6.511   3.450  3.7502 -2.4170  0.1234
  130OSM   C14S13919   4.959   6.584   3.652  0.0652 -0.9551  0.4665
  130OSM   H14S13920   5.006   6.493   3.694  1.9771  0.0111  0.5192
  130OSM   H14T13921   4.850   6.574   3.672 -0.3687  0.8880 -0.7201
  130OSM   C15S13922   5.019   6.712   3.729 -0.2847 -0.1552 -0.2961
  130OSM   H15S13923   4.962   6.803   3.698  3.4290  1.4746 -3.2169
  130OSM   H15T13924   5.124   6.714   3.693  0.8830  0.6346  2.8333
  130OSM   C16S13925   5.033   6.700   3.883 -0.5047  0.4442 -1.3403
  130OSM   H16S13926   5.092   6.789   3.912 -0.5293  0.3211 -0.9092
  130OSM   H16T13927   5.076   6.598   3.898 -1.5745  0.3215  1.3249
  130OSM   C17S13928   4.900   6.701   3.960 -0.0882  0.6333 -0.2051
  130OSM   H17S13929   4.830   6.623   3.924  0.6395 -0.0542 -0.1505
  130OSM   H17T13930   4.846   6.796   3.939  0.8167  0.9499 -1.2342
  130OSM   C18S13931   4.921   6.668   4.110  0.1809 -0.5017 -0.4368
  130OSM   H18S13932   4.836   6.699   4.175 -0.5179  2.1668 -2.4431
  130OSM   H18T13933   5.009   6.717   4.155 -0.0322  0.8003 -1.3590
  130OSM   H18U13934   4.926   6.558   4.124  0.3412 -0.4221  0.1559
  130OSM    C1F13935   5.239   6.460   2.382 -0.1121  0.3858  0.2828
  130OSM     OF13936   5.326   6.507   2.311 -0.2896 -0.0893 -0.1992
  130OSM    C2F13937   5.265   6.362   2.487 -0.3031  0.4107 -0.2129
  130OSM    H2F13938   5.269   6.260   2.445 -0.4222 -0.1915  1.1660
  130OSM    H2G13939   5.177   6.360   2.555  0.3136 -1.2940  0.6003
  130OSM    C3F13940   5.392   6.392   2.570 -0.3876 -0.2471 -0.2262
  130OSM    H3F13941   5.396   6.498   2.604  0.1400 -0.8800  1.8404
  130OSM    H3G13942   5.489   6.380   2.517 -0.6353 -0.6070 -0.6025
  130OSM    C4F13943   5.391   6.303   2.695  0.1374 -0.2493 -0.2409
  130OSM    H4F13944   5.404   6.195   2.673  1.1430 -0.3695  0.8892
  130OSM    H4G13945   5.295   6.312   2.750  0.8400 -2.2323  1.4177
  130OSM    C5F13946   5.502   6.344   2.785  0.9603  0.1190 -0.2620
  130OSM    H5F13947   5.489   6.449   2.819  0.8058 -0.3356  1.1446
  130OSM    H5G13948   5.602   6.335   2.736  0.6842  0.2344 -0.8518
  130OSM    C6F13949   5.511   6.249   2.904 -0.1582 -0.6166 -0.0430
  130OSM    H6F13950   5.503   6.147   2.860 -0.1957 -0.3563 -0.6475
  130OSM    H6G13951   5.423   6.251   2.972 -1.5588  1.7834 -1.7687
  130OSM    C7F13952   5.645   6.247   2.976 -0.1021  0.9727  0.3828
  130OSM    H7F13953   5.633   6.315   3.064 -2.1959  0.1599  0.7973
  130OSM    H7G13954   5.730   6.273   2.910 -0.3077 -1.1042 -0.7578
  130OSM    C8F13955   5.689   6.108   3.041  0.9381  0.0132  0.3664
  130OSM    H8F13956   5.697   6.038   2.955  1.5573 -0.5333  0.8616
  130OSM    H8G13957   5.607   6.070   3.104 -0.3149 -0.1456 -1.2840
  130OSM    C9F13958   5.820   6.118   3.118  0.1128  0.3064 -0.3475
  130OSM    H9F13959   5.902   6.149   3.052 -1.6392  1.3051 -2.1814
  130OSM   C10F13960   5.838   6.085   3.245 -0.3732 -0.3281 -0.0778
  130OSM   H10F13961   5.942   6.088   3.279  0.7140 -1.7884 -2.9469
  130OSM   C11F13962   5.739   6.032   3.347  0.8836  0.7115  0.4574
  130OSM   H11F13963   5.657   5.981   3.293  1.9552 -1.3579  0.6800
  130OSM   H11G13964   5.693   6.111   3.410 -0.4132  0.5827 -0.3075
  130OSM   C12F13965   5.803   5.923   3.444  0.5478 -0.8577  0.3101
  130OSM   H12F13966   5.906   5.955   3.473 -0.4152  2.8830  0.0567
  130OSM   H12G13967   5.827   5.834   3.382  3.0079  0.3141 -0.5285
  130OSM   C13F13968   5.714   5.871   3.559 -0.2185  0.4863  0.1684
  130OSM   H13F13969   5.773   5.798   3.618  0.8876  0.4961 -0.8875
  130OSM   H13G13970   5.619   5.822   3.527 -0.5238  0.1918  1.4670
  130OSM   C14F13971   5.679   5.983   3.655 -0.6589  0.1339 -0.3777
  130OSM   H14F13972   5.602   5.952   3.728 -0.0782 -1.8889 -0.5721
  130OSM   H14G13973   5.620   6.059   3.599  0.2946  0.3495 -1.1273
  130OSM   C15F13974   5.805   6.047   3.722  0.2743 -0.2911  0.7418
  130OSM   H15F13975   5.855   6.108   3.644 -1.7341  0.7740  0.2167
  130OSM   H15G13976   5.883   5.970   3.744  1.2993  0.4397 -0.2305
  130OSM   C16F13977   5.772   6.139   3.841 -0.4099  0.5576 -0.1168
  130OSM   H16F13978   5.719   6.074   3.913  0.9345  2.3339  2.6393
  130OSM   H16G13979   5.701   6.217   3.806 -0.4807  1.1732  1.3399
  130OSM   C17F13980   5.900   6.199   3.898  0.0564  0.3013 -0.1120
  130OSM   H17F13981   5.954   6.243   3.811  1.9210 -1.2164  0.2031
  130OSM   H17G13982   5.952   6.111   3.940 -1.7162 -1.1902 -0.8707
  130OSM   C18F13983   5.880   6.299   4.014 -0.3088 -0.3100 -0.0561
  130OSM   H18F13984   5.829   6.253   4.102 -2.7065  0.6904 -0.8309
  130OSM   H18G13985   5.820   6.388   3.985 -0.6585 -0.6626 -0.4145
  130OSM   H18H13986   5.980   6.328   4.054 -0.7288 -0.2643  0.9853
  131OSM      N13987   2.231   4.896   2.157  0.2917  0.7706 -0.5045
  131OSM    C1513988   2.327   4.972   2.230  0.1861  0.0977 -0.5707
  131OSM   H15A13989   2.427   4.975   2.191  1.6310 -0.0720  2.7877
  131OSM   H15B13990   2.342   4.944   2.333  0.5409  1.0716 -0.3520
  131OSM   H15C13991   2.288   5.072   2.239 -0.2690 -0.2343  2.2828
  131OSM    C1413992   2.287   4.760   2.147 -0.2189  0.1869 -0.0051
  131OSM   H14A13993   2.388   4.763   2.110 -0.2705 -3.8417 -1.0009
  131OSM   H14B13994   2.231   4.698   2.079  0.9438 -0.9105 -0.0051
  131OSM   H14C13995   2.287   4.714   2.245  1.1264 -0.1240 -0.1285
  131OSM    C1313996   2.105   4.895   2.246 -0.0252 -0.5182  0.2059
  131OSM   H13A13997   2.038   4.816   2.213 -0.8263 -0.0448  0.6811
  131OSM   H13B13998   2.060   4.993   2.240  1.8727  0.3221 -2.3563
  131OSM   H13C13999   2.136   4.867   2.345 -1.5481 -0.4802  0.7157
  131OSM    C1214000   2.219   4.953   2.017 -0.1047  0.1018 -0.0853
  131OSM   H12A14001   2.164   4.877   1.962 -2.0461  1.5243 -0.2056
  131OSM   H12B14002   2.313   4.959   1.965 -0.7471  2.1748 -1.1148
  131OSM    C1114003   2.135   5.082   2.006 -0.3142  0.3151 -0.3241
  131OSM   H11A14004   2.029   5.077   2.039 -0.0097  1.4333  0.9475
  131OSM   H11B14005   2.129   5.097   1.896  2.1600 -1.3900 -0.7769
  131OSM      P14006   2.127   5.303   2.140  0.0660  0.5236  0.0203
  131OSM    O1314007   2.153   5.423   2.062  0.1514  0.2985 -0.0637
  131OSM    O1414008   1.990   5.261   2.165  0.6905  0.6234 -1.0206
  131OSM    O1114009   2.207   5.312   2.272 -0.6973  0.3514 -0.2647
  131OSM    O1214010   2.206   5.190   2.065  0.6091  0.0500  0.2542
  131OSM    C1S14011   2.158   5.257   2.397  0.6084 -0.5927 -0.2479
  131OSM    H1S14012   2.203   5.156   2.411  1.7389  0.1563  2.0885
  131OSM    H1T14013   2.049   5.269   2.415  0.8741  0.2435  0.9351
  131OSM     NF14014   2.182   5.259   2.640 -0.7465 -0.3182 -0.1631
  131OSM    HNF14015   2.107   5.297   2.694  0.0543  0.5532  0.3722
  131OSM    C2S14016   2.219   5.334   2.523  0.5419 -0.0949  0.3069
  131OSM    H2S14017   2.329   5.345   2.510  0.2228  1.1193 -1.9201
  131OSM    C3S14018   2.165   5.480   2.510  0.0439 -0.2885  0.2187
  131OSM    H3S14019   2.055   5.483   2.495  0.1658 -0.2573 -0.6997
  131OSM     O314020   2.214   5.556   2.397  0.5162  0.3919  0.3213
  131OSM    HO314021   2.227   5.483   2.337 -0.3511 -0.8323  1.5446
  131OSM    C4S14022   2.192   5.553   2.641  0.1167  0.2231 -0.3729
  131OSM    H4S14023   2.107   5.545   2.710  0.1957 -0.3802 -0.3473
  131OSM    C5S14024   2.305   5.618   2.677  0.4930 -0.2158  0.4322
  131OSM    H5S14025   2.370   5.642   2.592  1.7185  2.0311  1.8894
  131OSM    C6S14026   2.340   5.668   2.816  0.3564 -0.5089  0.3703
  131OSM    H6S14027   2.339   5.779   2.813 -2.5247 -0.4353  1.0041
  131OSM    H6T14028   2.444   5.645   2.848  1.1378  1.0061 -0.9370
  131OSM    C7S14029   2.249   5.636   2.929 -0.0564  0.8895 -0.7470
  131OSM    H7S14030   2.277   5.530   2.947 -0.0123  1.0492  0.1386
  131OSM    H7T14031   2.140   5.641   2.907 -0.3598 -2.4245 -0.6452
  131OSM    C8S14032   2.280   5.726   3.049  0.5235 -0.0574 -0.2979
  131OSM    H8S14033   2.231   5.825   3.040  1.7430  0.6193  0.2357
  131OSM    H8T14034   2.389   5.750   3.048  0.3863  0.7309 -2.6224
  131OSM    C9S14035   2.240   5.674   3.189  0.0554  0.1119 -0.4303
  131OSM    H9S14036   2.306   5.587   3.205 -0.9994 -0.6013  0.1913
  131OSM    H9T14037   2.138   5.630   3.182 -0.3863  1.1731 -0.9361
  131OSM   C10S14038   2.252   5.778   3.315 -0.7357  0.3332 -0.2765
  131OSM   H10S14039   2.202   5.720   3.396  0.3830 -1.8417 -1.0456
  131OSM   H10T14040   2.208   5.878   3.293  1.4636  2.2539  3.1775
  131OSM   C11S14041   2.396   5.799   3.359 -0.3910 -0.1678 -0.0903
  131OSM   H11S14042   2.435   5.860   3.275  0.6042  1.9280  1.7803
  131OSM   H11T14043   2.446   5.700   3.361  0.2369  0.1494  0.0263
  131OSM   C12S14044   2.404   5.859   3.502  0.3007  0.5963  0.2055
  131OSM   H12S14045   2.374   5.779   3.572  1.2907 -0.0713 -0.0988
  131OSM   H12T14046   2.338   5.947   3.510 -0.4045 -0.1072  3.9292
  131OSM   C13S14047   2.547   5.897   3.543  0.5182 -0.2646  0.4815
  131OSM   H13S14048   2.587   5.990   3.498 -1.5110  1.3739  1.9105
  131OSM   H13T14049   2.608   5.815   3.499  0.7775 -0.3168  0.9373
  131OSM   C14S14050   2.575   5.908   3.691  0.0884  0.2037 -0.1280
  131OSM   H14S14051   2.684   5.894   3.701  0.3701  2.9240  1.9729
  131OSM   H14T14052   2.525   5.816   3.727 -1.7554  1.0440 -0.4148
  131OSM   C15S14053   2.516   6.035   3.749  0.1184 -0.1022 -0.0419
  131OSM   H15S14054   2.405   6.029   3.746  0.1497 -0.8152  0.0346
  131OSM   H15T14055   2.551   6.130   3.703  0.9310  0.1886  1.1261
  131OSM   C16S14056   2.557   6.049   3.897  0.2935 -0.3395 -0.3348
  131OSM   H16S14057   2.668   6.048   3.904  0.2106  0.3479  2.6404
  131OSM   H16T14058   2.534   5.954   3.951  1.0701 -0.3555 -0.0118
  131OSM   C17S14059   2.484   6.162   3.979  0.4662 -0.0047  0.8528
  131OSM   H17S14060   2.374   6.143   3.988  0.0164  1.8125 -0.3952
  131OSM   H17T14061   2.499   6.259   3.929 -0.3431 -0.0587  0.4904
  131OSM   C18S14062   2.529   6.172   4.126  0.6903 -0.4484  0.1508
  131OSM   H18S14063   2.471   6.247   4.184  0.3457  0.5538 -1.4320
  131OSM   H18T14064   2.638   6.189   4.124  0.6535 -0.3063 -1.5487
  131OSM   H18U14065   2.525   6.070   4.171 -1.3347 -0.5944 -0.2601
  131OSM    C1F14066   2.241   5.141   2.671 -0.1808 -0.4111  0.3012
  131OSM     OF14067   2.334   5.097   2.610 -0.0841 -0.5966 -0.0573
  131OSM    C2F14068   2.193   5.067   2.796  0.6412 -0.4489  0.5886
  131OSM    H2F14069   2.109   5.000   2.768  0.3918  0.4998 -1.0671
  131OSM    H2G14070   2.146   5.142   2.864 -0.2353  0.2334 -0.7394
  131OSM    C3F14071   2.302   4.980   2.872 -0.2308 -0.2077 -0.1467
  131OSM    H3F14072   2.401   5.031   2.863 -0.3995  0.0942 -0.2995
  131OSM    H3G14073   2.317   4.886   2.815 -1.6756 -0.3691 -0.2927
  131OSM    C4F14074   2.267   4.951   3.020  0.3833 -0.4062 -0.8712
  131OSM    H4F14075   2.214   5.039   3.063 -0.7682 -1.7196  0.5326
  131OSM    H4G14076   2.356   4.933   3.083  0.8602  1.2479 -1.0137
  131OSM    C5F14077   2.171   4.838   3.046  0.3734  0.0206 -0.2549
  131OSM    H5F14078   2.224   4.743   3.021 -0.0976 -0.2897 -0.0931
  131OSM    H5G14079   2.080   4.845   2.983  0.5712 -0.7584 -0.6461
  131OSM    C6F14080   2.130   4.818   3.203 -0.0677 -0.2292 -0.3818
  131OSM    H6F14081   2.086   4.915   3.232  3.3123  1.5646 -0.7276
  131OSM    H6G14082   2.224   4.794   3.257 -0.7967 -1.2574  0.4718
  131OSM    C7F14083   2.026   4.711   3.234 -0.0526 -0.1084 -0.2530
  131OSM    H7F14084   2.058   4.611   3.199 -1.1732 -1.3104  1.9244
  131OSM    H7G14085   1.936   4.728   3.172 -0.8526 -1.6431  0.4484
  131OSM    C8F14086   1.991   4.716   3.386  0.1700  0.3660 -0.0526
  131OSM    H8F14087   1.989   4.822   3.419  1.0239  0.3275  0.1413
  131OSM    H8G14088   2.082   4.685   3.442 -0.1946 -1.3223 -0.3251
  131OSM    C9F14089   1.871   4.640   3.438 -0.4861  0.4181 -0.2208
  131OSM    H9F14090   1.786   4.709   3.431 -0.6043  0.2434 -0.4871
  131OSM   C10F14091   1.855   4.506   3.448  0.8120 -0.0184  0.1176
  131OSM   H10F14092   1.757   4.466   3.477  0.3564  1.8989  1.4081
  131OSM   C11F14093   1.958   4.406   3.425 -0.4635 -0.2820  0.2349
  131OSM   H11F14094   2.015   4.382   3.517 -1.0681 -0.3084  0.6129
  131OSM   H11G14095   2.032   4.438   3.349  0.2904 -1.4729  0.4486
  131OSM   C12F14096   1.896   4.274   3.371  0.6857  0.2780 -0.2054
  131OSM   H12F14097   1.831   4.225   3.446  1.6831 -0.6195  0.0905
  131OSM   H12G14098   1.975   4.199   3.351  0.7213 -0.3454  2.0995
  131OSM   C13F14099   1.813   4.294   3.244 -0.1794 -0.0173  0.2181
  131OSM   H13F14100   1.734   4.372   3.246 -1.4698 -1.2902  0.2945
  131OSM   H13G14101   1.765   4.194   3.234 -0.1027 -0.0944  0.5919
  131OSM   C14F14102   1.903   4.304   3.121  0.4327 -0.2438  0.4173
  131OSM   H14F14103   1.974   4.219   3.130  0.1572 -0.4136  1.1268
  131OSM   H14G14104   1.955   4.402   3.126 -0.4750  0.3663 -1.4566
  131OSM   C15F14105   1.819   4.285   2.987 -0.1776 -0.1496  0.3208
  131OSM   H15F14106   1.728   4.347   3.000 -0.5118 -0.8804  1.6636
  131OSM   H15G14107   1.780   4.181   2.985 -1.4244  0.2808  1.0691
  131OSM   C16F14108   1.896   4.320   2.861  0.1349 -0.0441  0.0602
  131OSM   H16F14109   1.966   4.234   2.847 -0.1385 -0.3059  0.2842
  131OSM   H16G14110   1.957   4.412   2.873  0.0456  0.1963 -1.2814
  131OSM   C17F14111   1.805   4.328   2.740  0.8404 -0.7500 -0.4447
  131OSM   H17F14112   1.741   4.418   2.752  0.0048 -1.4256  0.3133
  131OSM   H17G14113   1.735   4.241   2.742  0.8018 -0.7738  2.6722
  131OSM   C18F14114   1.885   4.337   2.606  0.9660  0.0030  0.8992
  131OSM   H18F14115   1.934   4.437   2.605 -3.7001  2.6024  0.4278
  131OSM   H18G14116   1.819   4.326   2.517  2.4305  2.7823 -0.7001
  131OSM   H18H14117   1.956   4.252   2.606 -0.5717 -1.4063 -1.6365
  132OSM      N14118   3.075   3.307   2.019 -0.4588 -1.2504  0.2031
  132OSM    C1514119   2.970   3.219   1.949  0.8471  0.9425 -0.2012
  132OSM   H15A14120   3.007   3.118   1.941  0.0559  0.5921  0.4740
  132OSM   H15B14121   2.937   3.253   1.851  1.8400  0.2748 -0.7821
  132OSM   H15C14122   2.880   3.204   2.007  2.0498 -0.2646  1.4614
  132OSM    C1414123   3.201   3.316   1.937 -0.0820 -0.0152  0.0221
  132OSM   H14A14124   3.271   3.373   1.995  0.9833 -3.4500  2.3817
  132OSM   H14B14125   3.178   3.362   1.842 -3.6950  0.0446  0.7558
  132OSM   H14C14126   3.252   3.223   1.919 -2.3641 -1.9570  2.7187
  132OSM    C1314127   3.020   3.444   2.026 -0.2523  1.0373 -0.2736
  132OSM   H13A14128   2.932   3.449   2.089 -0.1208  1.6646 -0.1360
  132OSM   H13B14129   3.006   3.467   1.921  0.7832 -0.6491 -0.8243
  132OSM   H13C14130   3.091   3.516   2.063  0.1958  1.0326 -1.1070
  132OSM    C1214131   3.119   3.253   2.157 -0.2877  0.3196 -0.2695
  132OSM   H12A14132   3.193   3.314   2.209 -0.6788  0.4361  0.1570
  132OSM   H12B14133   3.163   3.155   2.146  3.5949  1.6931  1.1653
  132OSM    C1114134   3.007   3.237   2.262 -0.4340 -1.0038  0.3295
  132OSM   H11A14135   2.959   3.337   2.265  3.5201  1.1953 -1.6312
  132OSM   H11B14136   3.054   3.222   2.361  0.8899 -1.2568 -0.3061
  132OSM      P14137   2.969   2.977   2.243 -0.0479 -0.1877 -0.0157
  132OSM    O1314138   2.852   2.895   2.215  0.1748 -0.4748 -0.0848
  132OSM    O1414139   3.089   2.953   2.164  0.5790  0.2007 -0.1261
  132OSM    O1114140   3.002   2.968   2.402 -0.0288 -0.2330  0.3781
  132OSM    O1214141   2.928   3.130   2.214 -0.6339  0.0122  0.2895
  132OSM    C1S14142   2.916   3.010   2.503  0.1973  0.0158 -0.7259
  132OSM    H1S14143   2.812   2.990   2.470  0.3248  0.0669 -1.1588
  132OSM    H1T14144   2.925   3.119   2.523  1.2488 -0.1651 -0.1019
  132OSM     NF14145   2.827   2.949   2.731  0.3334 -0.5993  0.1159
  132OSM    HNF14146   2.823   3.028   2.793 -2.1423  0.8591 -1.6963
  132OSM    C2S14147   2.939   2.934   2.639 -0.0986  0.7549  0.5689
  132OSM    H2S14148   2.952   2.827   2.612 -0.8323  1.2677 -2.0782
  132OSM    C3S14149   3.081   2.979   2.700  0.4369  0.3382 -0.6794
  132OSM    H3S14150   3.069   3.086   2.728  0.1060  0.0017  0.5154
  132OSM     O314151   3.182   2.973   2.600  0.0762  0.5999  0.5174
  132OSM    HO314152   3.130   2.955   2.522  0.7634 -0.5974  0.3121
  132OSM    C4S14153   3.114   2.904   2.828  0.4500  0.4916 -1.1779
  132OSM    H4S14154   3.047   2.929   2.912  2.8815  3.3732  0.0530
  132OSM    C5S14155   3.194   2.800   2.846 -0.0244 -0.6363  0.6244
  132OSM    H5S14156   3.260   2.780   2.760 -0.4993 -2.0404  0.5656
  132OSM    C6S14157   3.215   2.719   2.971  0.1370  0.3954  0.3190
  132OSM    H6S14158   3.321   2.688   2.986  0.2221 -2.2568 -3.9209
  132OSM    H6T14159   3.160   2.624   2.954  0.8285  0.2312 -1.2756
  132OSM    C7S14160   3.179   2.781   3.109  0.4224  1.2893  0.0214
  132OSM    H7S14161   3.072   2.810   3.111 -0.1880 -0.8087  0.9526
  132OSM    H7T14162   3.235   2.872   3.138  2.2486 -0.3619  2.0928
  132OSM    C8S14163   3.217   2.682   3.226  0.5140  0.1655 -0.0569
  132OSM    H8S14164   3.322   2.648   3.229  0.8069  1.0251 -0.2829
  132OSM    H8T14165   3.166   2.584   3.217  2.5422 -0.7232 -3.8835
  132OSM    C9S14166   3.185   2.745   3.368  0.4060  0.3221  0.3355
  132OSM    H9S14167   3.074   2.746   3.376  0.4272 -0.2827  0.7993
  132OSM    H9T14168   3.218   2.851   3.371 -2.5558  1.3765 -0.7491
  132OSM   C10S14169   3.246   2.652   3.478 -0.3792  0.0828  0.2081
  132OSM   H10S14170   3.346   2.625   3.437 -0.7242  0.4345 -0.9018
  132OSM   H10T14171   3.199   2.556   3.510  0.1078  0.3824  1.9406
  132OSM   C11S14172   3.270   2.731   3.614 -0.3634 -0.1983 -0.3914
  132OSM   H11S14173   3.175   2.739   3.672 -1.3945  1.3841 -2.1980
  132OSM   H11T14174   3.312   2.832   3.598 -1.7824  0.2122 -1.7218
  132OSM   C12S14175   3.361   2.643   3.705  0.2548  1.0186  0.3417
  132OSM   H12S14176   3.446   2.613   3.640  0.5110  0.3250  0.9866
  132OSM   H12T14177   3.304   2.551   3.730  1.5613  0.4846  1.5294
  132OSM   C13S14178   3.416   2.702   3.827 -0.5065 -0.4395 -0.0777
  132OSM   H13S14179   3.337   2.742   3.893  0.5592  2.3551 -0.3373
  132OSM   H13T14180   3.482   2.784   3.789  0.3794 -2.2525 -2.7847
  132OSM   C14S14181   3.530   2.615   3.893  0.4408 -0.1803 -0.3656
  132OSM   H14S14182   3.625   2.612   3.836  0.4499 -1.0394 -0.3279
  132OSM   H14T14183   3.498   2.509   3.903 -0.4695  0.2615  1.9846
  132OSM   C15S14184   3.569   2.675   4.027  0.4848 -0.0717 -0.0746
  132OSM   H15S14185   3.474   2.698   4.079 -0.1201 -1.2409 -0.6465
  132OSM   H15T14186   3.624   2.770   4.009  0.9637 -0.5865 -1.4172
  132OSM   C16S14187   3.661   2.584   4.107  0.1884 -0.3123 -0.5213
  132OSM   H16S14188   3.761   2.631   4.102  0.1514 -0.2139 -0.3360
  132OSM   H16T14189   3.685   2.490   4.054  0.7102  0.4542 -1.6731
  132OSM   C17S14190   3.617   2.566   4.256 -1.1242 -0.3252 -0.0757
  132OSM   H17S14191   3.692   2.507   4.313 -0.9727  1.2266  1.4040
  132OSM   H17T14192   3.524   2.506   4.262 -0.0121 -2.2852 -1.5417
  132OSM   C18S14193   3.598   2.705   4.327  0.3428  0.8775 -0.0715
  132OSM   H18S14194   3.582   2.679   4.434 -1.0992 -0.4628 -0.5669
  132OSM   H18T14195   3.506   2.757   4.290  0.3621  0.6380 -0.4613
  132OSM   H18U14196   3.681   2.778   4.321  1.2590 -0.2338 -2.5487
  132OSM    C1F14197   2.715   2.885   2.701 -0.4056  0.3244  0.2365
  132OSM     OF14198   2.706   2.813   2.605  0.2590  0.0118 -0.0737
  132OSM    C2F14199   2.596   2.906   2.789  0.0013  0.5881 -0.0344
  132OSM    H2F14200   2.508   2.863   2.737 -0.1536  0.7374  0.1050
  132OSM    H2G14201   2.576   3.015   2.794 -0.1407  0.5076  1.9263
  132OSM    C3F14202   2.606   2.846   2.930 -0.4062 -0.1016  0.4198
  132OSM    H3F14203   2.711   2.849   2.964 -0.3145 -1.1187  0.2553
  132OSM    H3G14204   2.571   2.741   2.941  2.6742 -1.1214  1.3316
  132OSM    C4F14205   2.533   2.925   3.040  0.2500 -0.0246 -1.1936
  132OSM    H4F14206   2.560   3.033   3.041 -0.5909  0.1989 -1.6241
  132OSM    H4G14207   2.570   2.897   3.141  0.5690  2.6340 -0.4909
  132OSM    C5F14208   2.376   2.933   3.028 -0.8895  0.1902  0.4560
  132OSM    H5F14209   2.355   2.838   2.975  1.5137 -0.3268  0.3058
  132OSM    H5G14210   2.346   3.011   2.955 -1.5331  0.3599  0.8952
  132OSM    C6F14211   2.316   2.935   3.167  0.1417  0.4441  0.3117
  132OSM    H6F14212   2.357   2.843   3.214  0.3544  0.0150 -0.7078
  132OSM    H6G14213   2.209   2.909   3.160  0.2596  0.1787 -0.6057
  132OSM    C7F14214   2.346   3.060   3.241 -0.0626  0.2104 -0.6899
  132OSM    H7F14215   2.269   3.131   3.203  1.1149 -0.2880 -4.4758
  132OSM    H7G14216   2.446   3.094   3.205 -0.2533  1.5708 -0.0047
  132OSM    C8F14217   2.339   3.055   3.394 -0.2749 -0.2908 -0.3394
  132OSM    H8F14218   2.386   3.150   3.426  0.5762 -0.7594 -0.1893
  132OSM    H8G14219   2.411   2.973   3.415  3.1576  2.3049 -1.2519
  132OSM    C9F14220   2.202   3.025   3.441  0.1679 -0.3510  0.6505
  132OSM    H9F14221   2.118   3.090   3.410  1.0298 -0.1475 -1.4227
  132OSM   C10F14222   2.169   2.914   3.501  0.5227 -0.0758 -0.3834
  132OSM   H10F14223   2.063   2.903   3.527  0.8064  1.9491  2.0797
  132OSM   C11F14224   2.247   2.796   3.552  0.9386 -0.1402 -0.4594
  132OSM   H11F14225   2.349   2.790   3.507  1.0950 -0.2471 -0.0928
  132OSM   H11G14226   2.197   2.702   3.521 -0.8020  0.2274  1.0505
  132OSM   C12F14227   2.267   2.789   3.700 -0.1974  0.5612  0.2509
  132OSM   H12F14228   2.279   2.684   3.734 -0.4529  0.5216  0.2177
  132OSM   H12G14229   2.178   2.817   3.759 -0.1275 -2.6349  2.1571
  132OSM   C13F14230   2.390   2.864   3.752 -0.0080 -0.8821 -0.0585
  132OSM   H13F14231   2.397   2.961   3.699  0.6112 -1.3648 -0.8968
  132OSM   H13G14232   2.483   2.813   3.718  2.0842  2.3759  0.3531
  132OSM   C14F14233   2.375   2.866   3.905 -0.3403  0.2863  0.1634
  132OSM   H14F14234   2.407   2.777   3.963 -2.0316 -0.7386 -0.4004
  132OSM   H14G14235   2.266   2.878   3.925 -0.0309  1.3247  1.3774
  132OSM   C15F14236   2.442   2.995   3.968  1.0741  0.0509 -0.5549
  132OSM   H15F14237   2.407   3.082   3.909  0.7086  0.7681  0.6658
  132OSM   H15G14238   2.551   3.012   3.959  1.5751 -0.3376  3.2069
  132OSM   C16F14239   2.396   3.010   4.110  0.2977 -0.4668  0.2913
  132OSM   H16F14240   2.432   2.914   4.154  1.7194 -1.2664 -2.4504
  132OSM   H16G14241   2.285   3.008   4.099  0.1418 -3.1422  1.3642
  132OSM   C17F14242   2.454   3.133   4.184 -0.7742 -0.2506 -0.3133
  132OSM   H17F14243   2.556   3.154   4.147 -0.2413 -1.8057  0.1831
  132OSM   H17G14244   2.475   3.100   4.288 -0.5566 -0.5224 -0.4415
  132OSM   C18F14245   2.362   3.257   4.175 -0.2603  0.6966 -0.5702
  132OSM   H18F14246   2.261   3.224   4.208  1.3814 -2.3779  1.9603
  132OSM   H18G14247   2.367   3.278   4.066  3.0550  1.4484 -0.4011
  132OSM   H18H14248   2.404   3.341   4.236 -0.1114  0.0470  0.2406
  133OSM      N14249   0.702   4.739   2.299 -0.5907 -0.2782 -0.1582
  133OSM    C1514250   0.839   4.669   2.305  0.4342  0.1687 -0.1269
  133OSM   H15A14251   0.832   4.576   2.360  0.5129 -1.3727 -2.5808
  133OSM   H15B14252   0.922   4.726   2.344  2.4782 -1.6949 -1.4995
  133OSM   H15C14253   0.865   4.656   2.201 -1.0980  1.7898 -0.7724
  133OSM    C1414254   0.680   4.796   2.444 -0.1319  0.0089  0.8510
  133OSM   H14A14255   0.639   4.896   2.439 -1.6758 -0.6478 -0.7870
  133OSM   H14B14256   0.771   4.808   2.499  0.1899 -1.1316  0.5900
  133OSM   H14C14257   0.625   4.725   2.504  0.8182  0.1976  1.9580
  133OSM    C1314258   0.708   4.842   2.197 -0.1242 -0.0523  0.8412
  133OSM   H13A14259   0.734   4.795   2.103 -1.5150  0.3100  0.2506
  133OSM   H13B14260   0.777   4.923   2.218 -0.0085  0.3861 -0.9853
  133OSM   H13C14261   0.609   4.882   2.185  0.1770  0.2692 -0.8900
  133OSM    C1214262   0.587   4.643   2.267 -0.5146 -0.4134  0.2535
  133OSM   H12A14263   0.615   4.590   2.177 -0.1498 -1.0690  0.7467
  133OSM   H12B14264   0.501   4.700   2.233 -0.1293 -0.5377 -0.9593
  133OSM    C1114265   0.547   4.533   2.366 -0.0985 -1.1857 -0.3155
  133OSM   H11A14266   0.447   4.491   2.343 -0.8964  0.9160 -0.9335
  133OSM   H11B14267   0.524   4.581   2.464  0.2415 -0.4721 -0.5734
  133OSM      P14268   0.687   4.333   2.264 -0.6455  0.4744  0.1750
  133OSM    O1314269   0.636   4.375   2.132  0.4711  0.4846 -0.9759
  133OSM    O1414270   0.835   4.318   2.271  0.2139 -0.3772  0.5169
  133OSM    O1114271   0.611   4.205   2.296 -0.2753  0.4579  0.3323
  133OSM    O1214272   0.644   4.426   2.384  0.6468 -0.2491 -0.2004
  133OSM    C1S14273   0.668   4.097   2.371 -0.6251  0.4005  1.0591
  133OSM    H1S14274   0.771   4.076   2.336 -1.9809 -0.2603 -2.9982
  133OSM    H1T14275   0.610   4.004   2.355 -1.3021  0.5673  2.3559
  133OSM     NF14276   0.732   4.008   2.581 -0.0553  0.0745  0.3647
  133OSM    HNF14277   0.673   3.931   2.604 -4.1547  2.4791 -0.8647
  133OSM    C2S14278   0.670   4.124   2.520 -0.2489  0.0343 -0.6153
  133OSM    H2S14279   0.733   4.214   2.536 -0.9788  0.6175 -0.9640
  133OSM    C3S14280   0.526   4.161   2.581 -0.5516 -0.2602  0.1219
  133OSM    H3S14281   0.458   4.078   2.551  0.7450 -0.7483 -1.6772
  133OSM     O314282   0.462   4.279   2.536  0.6838  0.3824 -0.0996
  133OSM    HO314283   0.510   4.296   2.454  1.3236  2.9807  0.7424
  133OSM    C4S14284   0.530   4.162   2.735  0.1037 -0.5654 -0.3963
  133OSM    H4S14285   0.462   4.088   2.779  0.7961 -1.3526 -0.6213
  133OSM    C5S14286   0.590   4.251   2.820 -0.1520 -0.7307  0.4223
  133OSM    H5S14287   0.629   4.343   2.774 -1.3967  0.2349  1.2279
  133OSM    C6S14288   0.588   4.247   2.971 -0.2833 -0.3023 -0.5783
  133OSM    H6S14289   0.547   4.337   3.021  1.1857  1.1755 -1.9232
  133OSM    H6T14290   0.688   4.228   3.015 -0.4875 -1.3976 -0.5521
  133OSM    C7S14291   0.501   4.124   3.026  0.0059  0.4208 -0.3727
  133OSM    H7S14292   0.555   4.036   2.988  1.7580  0.8503  1.0054
  133OSM    H7T14293   0.405   4.125   2.969  0.1565  0.0077 -0.6322
  133OSM    C8S14294   0.485   4.128   3.177 -0.7267 -0.6286  0.5396
  133OSM    H8S14295   0.444   4.228   3.204  1.7659  0.6426 -0.0931
  133OSM    H8T14296   0.575   4.118   3.241 -0.8825  2.0320  1.3004
  133OSM    C9S14297   0.387   4.029   3.231  1.0654  0.0773  0.1108
  133OSM    H9S14298   0.422   3.930   3.195  0.7447  0.9230 -2.7748
  133OSM    H9T14299   0.286   4.052   3.191 -0.4540 -1.3910  2.7751
  133OSM   C10S14300   0.376   4.029   3.385 -0.4560 -0.1078 -0.1220
  133OSM   H10S14301   0.371   4.138   3.407 -0.0095  0.3724 -2.1506
  133OSM   H10T14302   0.470   3.999   3.437  0.9146  3.4240 -0.2158
  133OSM   C11S14303   0.263   3.942   3.444  0.1085 -0.4390  0.0151
  133OSM   H11S14304   0.270   3.833   3.421 -0.1080 -0.3082 -0.7061
  133OSM   H11T14305   0.179   3.977   3.381  1.3666  2.0462 -0.4006
  133OSM   C12S14306   0.233   3.944   3.595 -0.7281  0.1694 -0.4508
  133OSM   H12S14307   0.168   3.855   3.610 -0.2437 -1.0387 -4.3233
  133OSM   H12T14308   0.180   4.038   3.620 -1.8375 -0.5224 -0.1103
  133OSM   C13S14309   0.359   3.939   3.693 -0.9707  0.3625  0.4026
  133OSM   H13S14310   0.415   4.033   3.672  0.3875 -0.3752  0.6319
  133OSM   H13T14311   0.419   3.847   3.677  0.8246  1.1480  2.2672
  133OSM   C14S14312   0.323   3.965   3.836 -0.2353  0.0754 -0.1159
  133OSM   H14S14313   0.236   4.032   3.851  1.7310  2.6929  0.2970
  133OSM   H14T14314   0.411   4.015   3.883 -0.1257  0.6624 -0.9259
  133OSM   C15S14315   0.301   3.836   3.921 -0.2683 -0.1934 -0.0884
  133OSM   H15S14316   0.392   3.774   3.909 -0.2197  0.1231 -1.6658
  133OSM   H15T14317   0.227   3.766   3.876  1.2890 -0.8162 -1.7961
  133OSM   C16S14318   0.279   3.888   4.062 -0.1568  0.4783 -0.2536
  133OSM   H16S14319   0.177   3.929   4.050 -0.7496 -1.2560 -1.4768
  133OSM   H16T14320   0.350   3.970   4.088 -0.0181  0.7684 -1.4723
  133OSM   C17S14321   0.280   3.781   4.170 -0.0333  0.7527 -0.4735
  133OSM   H17S14322   0.385   3.754   4.192 -0.6305 -0.8753  0.5871
  133OSM   H17T14323   0.230   3.691   4.129  2.0342 -0.7847  0.1905
  133OSM   C18S14324   0.216   3.828   4.292 -0.3124  0.0367  0.4094
  133OSM   H18S14325   0.271   3.909   4.345  1.3508 -0.6395 -0.2282
  133OSM   H18T14326   0.210   3.740   4.358  1.3033 -0.7888 -0.4822
  133OSM   H18U14327   0.114   3.868   4.271 -2.0455 -3.3019  1.8248
  133OSM    C1F14328   0.863   3.995   2.581  0.5522  0.1523 -0.3041
  133OSM     OF14329   0.937   4.083   2.550 -0.0865 -0.4725  0.3376
  133OSM    C2F14330   0.921   3.862   2.624  0.2070  0.7215 -0.2446
  133OSM    H2F14331   0.977   3.813   2.542 -2.7823 -0.4392 -1.7168
  133OSM    H2G14332   0.835   3.798   2.653  0.2405  1.1721  0.8991
  133OSM    C3F14333   1.027   3.870   2.736 -0.6171  0.2616 -0.3393
  133OSM    H3F14334   1.124   3.913   2.702  0.8081 -1.2388  1.5424
  133OSM    H3G14335   1.055   3.767   2.767 -0.6556  0.6582  1.0560
  133OSM    C4F14336   0.973   3.931   2.863 -0.3695  0.5263 -0.7201
  133OSM    H4F14337   0.916   4.022   2.833  2.0772  1.5624 -2.6689
  133OSM    H4G14338   1.055   3.959   2.932  1.0588 -1.0344 -1.6998
  133OSM    C5F14339   0.866   3.847   2.939  0.4111  0.1932  0.0364
  133OSM    H5F14340   0.915   3.752   2.970  0.7801  0.3908  0.0618
  133OSM    H5G14341   0.775   3.813   2.886 -0.1324  0.7135  0.6265
  133OSM    C6F14342   0.815   3.920   3.071  0.5659  0.2742 -0.1808
  133OSM    H6F14343   0.724   3.863   3.100 -0.3505  1.7749 -0.0111
  133OSM    H6G14344   0.784   4.016   3.025 -0.2573  0.1156  0.0303
  133OSM    C7F14345   0.918   3.914   3.182 -0.3357  0.5198 -0.4832
  133OSM    H7F14346   1.004   3.970   3.140 -0.4329 -0.0368 -1.4453
  133OSM    H7G14347   0.957   3.817   3.219 -0.5943  0.5493 -0.1247
  133OSM    C8F14348   0.881   3.987   3.314  0.8806 -0.1991 -0.9252
  133OSM    H8F14349   0.858   4.089   3.277  2.8848 -0.4017 -2.9346
  133OSM    H8G14350   0.968   3.986   3.383  0.5677  0.2208 -0.5215
  133OSM    C9F14351   0.756   3.924   3.384 -0.5488 -0.0693  0.2398
  133OSM    H9F14352   0.674   3.914   3.312 -0.0184  1.0628 -0.5421
  133OSM   C10F14353   0.742   3.891   3.514  0.5086 -0.6674 -0.2097
  133OSM   H10F14354   0.657   3.828   3.545  1.2735 -0.8814  1.5627
  133OSM   C11F14355   0.847   3.913   3.622  0.2692  0.2833  0.5584
  133OSM   H11F14356   0.944   3.933   3.573  0.5859 -2.5560 -0.1490
  133OSM   H11G14357   0.864   3.821   3.682 -0.2559  0.0457  0.3562
  133OSM   C12F14358   0.796   4.020   3.719  0.1068  0.0640 -0.0035
  133OSM   H12F14359   0.694   3.992   3.752  1.0872 -2.6298  0.9807
  133OSM   H12G14360   0.777   4.119   3.672 -2.2098 -0.9564 -1.3715
  133OSM   C13F14361   0.903   4.059   3.828  0.1682  0.3265 -0.5645
  133OSM   H13F14362   0.920   3.970   3.892 -2.9241  0.2569  0.3342
  133OSM   H13G14363   0.863   4.136   3.897 -1.5408  0.3475 -1.5264
  133OSM   C14F14364   1.036   4.105   3.769  0.1540 -0.1739 -0.0380
  133OSM   H14F14365   1.023   4.214   3.754  0.5282 -0.3330 -1.7193
  133OSM   H14G14366   1.054   4.047   3.676 -1.8960 -0.6396 -0.1949
  133OSM   C15F14367   1.163   4.093   3.855 -0.4262  0.1559 -0.1155
  133OSM   H15F14368   1.242   4.136   3.790 -0.1373 -1.2272 -0.7334
  133OSM   H15G14369   1.171   3.984   3.875 -1.1158  0.1922  0.3782
  133OSM   C16F14370   1.176   4.170   3.985  0.1946  0.1931 -0.4086
  133OSM   H16F14371   1.280   4.160   4.024  0.9504 -2.6886 -2.7638
  133OSM   H16G14372   1.108   4.121   4.058  0.1928 -0.0478 -0.5702
  133OSM   C17F14373   1.141   4.322   3.972  0.1305 -0.1039 -0.6304
  133OSM   H17F14374   1.032   4.334   3.954 -0.1256  1.1872  1.3734
  133OSM   H17G14375   1.201   4.372   3.894 -0.1083  0.6719 -0.3286
  133OSM   C18F14376   1.180   4.403   4.098 -0.4734  0.0619  0.1164
  133OSM   H18F14377   1.207   4.508   4.072  1.2866 -1.0214 -3.0929
  133OSM   H18G14378   1.265   4.358   4.153 -2.3100 -2.7864  0.8307
  133OSM   H18H14379   1.093   4.399   4.167  0.1358 -1.5632  0.8486
  134OSM      N14380   5.128   0.804   1.895  0.0136 -0.4481  0.7396
  134OSM    C1514381   5.017   0.725   1.840 -0.2019  0.1452  0.2586
  134OSM   H15A14382   5.015   0.621   1.867  0.3896  0.9210  3.6908
  134OSM   H15B14383   5.001   0.750   1.736 -2.2042 -1.2563  0.1635
  134OSM   H15C14384   4.928   0.775   1.877  0.0551  0.7207  0.1082
  134OSM    C1414385   5.154   0.758   2.032 -0.4632 -0.0753 -0.2396
  134OSM   H14A14386   5.182   0.654   2.042  0.6585  0.1391 -0.9891
  134OSM   H14B14387   5.055   0.758   2.075 -1.1530  0.2897 -1.7606
  134OSM   H14C14388   5.223   0.821   2.087 -0.7276  1.2014 -1.3290
  134OSM    C1314389   5.251   0.768   1.808  0.3419 -0.1152 -0.8792
  134OSM   H13A14390   5.273   0.662   1.803 -0.0901 -0.1842 -1.4107
  134OSM   H13B14391   5.339   0.820   1.842 -0.2247 -1.1054  2.4184
  134OSM   H13C14392   5.223   0.799   1.708 -2.9337 -0.2135 -0.0964
  134OSM    C1214393   5.116   0.955   1.886  0.1595 -0.1893  0.3962
  134OSM   H12A14394   5.151   1.004   1.796 -0.6864  1.9326  1.1673
  134OSM   H12B14395   5.184   0.993   1.961  2.1629  0.6944 -1.7511
  134OSM    C1114396   4.974   1.014   1.918 -0.0057 -0.4307 -0.2000
  134OSM   H11A14397   4.902   0.988   1.838  0.5151 -0.1731 -0.7652
  134OSM   H11B14398   4.982   1.125   1.913 -2.2719 -0.2446 -0.8339
  134OSM      P14399   4.882   1.069   2.153 -0.1494 -0.5383  0.0445
  134OSM    O1314400   4.794   1.167   2.088  0.2003  0.3005 -0.1266
  134OSM    O1414401   4.831   0.987   2.271 -0.2929  0.8022 -0.6293
  134OSM    O1114402   5.013   1.143   2.193  0.1171 -0.1403 -0.0592
  134OSM    O1214403   4.931   0.965   2.042  0.0464  0.1250 -0.0070
  134OSM    C1S14404   5.028   1.213   2.317 -0.3496 -0.4817 -0.6549
  134OSM    H1S14405   4.941   1.279   2.335 -1.3201 -1.7044 -0.7841
  134OSM    H1T14406   5.120   1.277   2.317  1.1754 -2.5746  0.4756
  134OSM     NF14407   5.072   1.201   2.568  0.3912  0.2711 -0.2126
  134OSM    HNF14408   5.162   1.206   2.611  0.5940 -1.0546 -0.4451
  134OSM    C2S14409   5.064   1.131   2.445  0.3054 -0.2488  0.8641
  134OSM    H2S14410   4.978   1.061   2.455 -1.7495  2.0312  0.3336
  134OSM    C3S14411   5.196   1.056   2.406 -0.1897  0.0697 -0.5860
  134OSM    H3S14412   5.280   1.128   2.394 -0.5436  0.8194  1.1337
  134OSM     O314413   5.177   0.975   2.293  0.2687  0.7060  0.0114
  134OSM    HO314414   5.125   1.029   2.234 -2.1895 -0.7733  0.6523
  134OSM    C4S14415   5.226   0.964   2.522  0.7391  0.3300  0.2311
  134OSM    H4S14416   5.156   0.878   2.526  2.2077 -0.8621  2.3109
  134OSM    C5S14417   5.313   0.964   2.622  0.7608  0.3422 -0.5290
  134OSM    H5S14418   5.375   1.053   2.639 -0.4279  0.7897  1.8360
  134OSM    C6S14419   5.317   0.857   2.726  0.2366 -0.4188 -0.5110
  134OSM    H6S14420   5.423   0.827   2.731  0.1767 -0.5326  0.0988
  134OSM    H6T14421   5.264   0.767   2.688  2.5015 -1.7721 -0.6297
  134OSM    C7S14422   5.271   0.891   2.869  0.1016 -0.5284  0.3412
  134OSM    H7S14423   5.163   0.918   2.871  0.5258  1.2622  0.8830
  134OSM    H7T14424   5.320   0.984   2.902 -1.4005 -0.0179  1.2075
  134OSM    C8S14425   5.301   0.787   2.976  0.1213  0.3065  0.3660
  134OSM    H8S14426   5.409   0.788   3.004  0.6756  0.3650 -1.6208
  134OSM    H8T14427   5.277   0.686   2.936 -1.0712  0.9725 -0.6612
  134OSM    C9S14428   5.211   0.788   3.092  0.0368  0.1419 -0.6212
  134OSM    H9S14429   5.252   0.714   3.165  0.1710 -0.7017 -1.5226
  134OSM    H9T14430   5.117   0.748   3.048  1.0857 -0.1895 -2.6582
  134OSM   C10S14431   5.191   0.931   3.143 -0.7061 -0.3536  0.6017
  134OSM   H10S14432   5.184   1.005   3.060  0.9179 -0.3088  0.4720
  134OSM   H10T14433   5.285   0.963   3.193  0.0605  0.3752 -1.2075
  134OSM   C11S14434   5.089   0.961   3.254  0.3991 -0.3276 -0.9840
  134OSM   H11S14435   5.093   0.883   3.333  0.1456  1.5794  1.0095
  134OSM   H11T14436   4.986   0.974   3.213 -0.2886  0.2378  0.8316
  134OSM   C12S14437   5.122   1.097   3.317  0.9384 -0.4511  0.0566
  134OSM   H12S14438   5.137   1.178   3.242  1.7650  0.1999  0.8957
  134OSM   H12T14439   5.212   1.101   3.382  0.4025  0.3053  0.7912
  134OSM   C13S14440   5.013   1.122   3.425  0.1102  0.0485  0.4589
  134OSM   H13S14441   4.989   1.031   3.484 -1.1258  0.5666  0.7906
  134OSM   H13T14442   4.915   1.158   3.388  0.0173  0.3653  1.0113
  134OSM   C14S14443   5.062   1.226   3.526 -0.1393  0.1434 -0.6711
  134OSM   H14S14444   5.081   1.317   3.466 -0.8867  0.1160 -0.9610
  134OSM   H14T14445   5.152   1.183   3.576  0.4754 -0.7229 -2.4563
  134OSM   C15S14446   4.961   1.268   3.632  0.0272  0.4540  0.3362
  134OSM   H15S14447   4.940   1.181   3.697  0.5837 -1.0148 -1.3578
  134OSM   H15T14448   4.865   1.303   3.589 -0.1977 -0.0629  0.4128
  134OSM   C16S14449   5.019   1.379   3.719  0.0997  0.2958 -0.2551
  134OSM   H16S14450   4.939   1.421   3.783 -2.7017 -1.9507 -2.0498
  134OSM   H16T14451   5.053   1.456   3.646 -1.9018  0.2204 -1.3252
  134OSM   C17S14452   5.136   1.334   3.813  0.0797 -0.3447 -0.0079
  134OSM   H17S14453   5.219   1.313   3.743 -0.3497 -2.2968  0.0084
  134OSM   H17T14454   5.101   1.241   3.863  0.9261 -0.6216  0.0905
  134OSM   C18S14455   5.182   1.440   3.921  0.1177  0.3011  0.7470
  134OSM   H18S14456   5.226   1.530   3.873 -0.6289  1.8571  2.8238
  134OSM   H18T14457   5.268   1.398   3.978  0.2070 -0.2800  0.1938
  134OSM   H18U14458   5.096   1.465   3.987 -0.6388  1.7151 -0.7101
  134OSM    C1F14459   4.966   1.255   2.624  0.1785  0.3189  0.0464
  134OSM     OF14460   4.857   1.238   2.574  0.1920 -0.4251  0.0309
  134OSM    C2F14461   4.987   1.333   2.740  0.7990  0.3974 -0.9080
  134OSM    H2F14462   5.004   1.441   2.716 -1.3148  0.6568 -1.4711
  134OSM    H2G14463   5.072   1.285   2.792 -0.0497 -0.4772 -0.2869
  134OSM    C3F14464   4.871   1.326   2.844  0.6758 -0.3253  0.6947
  134OSM    H3F14465   4.853   1.218   2.861 -3.5494 -0.6083 -3.5566
  134OSM    H3G14466   4.782   1.380   2.805  0.8380 -0.5639 -0.0044
  134OSM    C4F14467   4.900   1.402   2.980  0.0523  0.0884  0.0636
  134OSM    H4F14468   4.991   1.357   3.024  0.3758  0.2260 -0.4626
  134OSM    H4G14469   4.815   1.389   3.052 -1.4515  1.6182 -1.3428
  134OSM    C5F14470   4.934   1.549   2.963  0.0744 -0.3756  0.8898
  134OSM    H5F14471   4.863   1.583   2.885  0.9040  1.0836  0.7305
  134OSM    H5G14472   5.039   1.559   2.928  0.5768 -1.7297  1.9042
  134OSM    C6F14473   4.904   1.639   3.090  0.4315  0.4468  0.0563
  134OSM    H6F14474   4.797   1.625   3.117  0.2993  4.4039  2.4389
  134OSM    H6G14475   4.919   1.744   3.056 -2.1167  0.8393 -0.0442
  134OSM    C7F14476   4.992   1.611   3.210  0.5371 -0.4010 -0.7181
  134OSM    H7F14477   5.099   1.622   3.183  0.2763  2.9533 -0.8839
  134OSM    H7G14478   4.976   1.510   3.253 -0.1581 -0.4732 -1.1318
  134OSM    C8F14479   4.955   1.718   3.316 -0.3007  0.2918 -0.3174
  134OSM    H8F14480   4.866   1.687   3.376 -1.3011  1.7384 -0.9900
  134OSM    H8G14481   4.925   1.810   3.261  0.7859  2.0148  1.7822
  134OSM    C9F14482   5.075   1.747   3.406  0.5066 -0.3010  0.1937
  134OSM    H9F14483   5.172   1.732   3.356  0.1760  0.0721 -0.5886
  134OSM   C10F14484   5.077   1.775   3.539  0.2321  0.4040  0.5237
  134OSM   H10F14485   5.176   1.782   3.587  0.3645 -1.0224  0.5039
  134OSM   C11F14486   4.952   1.787   3.632  0.5354 -0.0011  0.8297
  134OSM   H11F14487   4.876   1.708   3.614  0.1699  0.5751 -0.2500
  134OSM   H11G14488   4.905   1.887   3.620  0.0294 -0.3813 -0.6279
  134OSM   C12F14489   4.980   1.761   3.776 -0.4799  0.3295  0.2782
  134OSM   H12F14490   5.059   1.830   3.814  1.6329  0.1408 -3.3393
  134OSM   H12G14491   5.033   1.666   3.796  1.4980  1.2681 -0.3130
  134OSM   C13F14492   4.855   1.781   3.864 -0.5981 -0.0045 -0.0840
  134OSM   H13F14493   4.772   1.723   3.819 -1.1232 -0.0946  0.9640
  134OSM   H13G14494   4.817   1.883   3.843  0.1684  0.2303 -0.3692
  134OSM   C14F14495   4.883   1.754   4.010 -0.2582  0.3914 -0.0983
  134OSM   H14F14496   4.957   1.818   4.061  1.1635 -1.4689  0.2977
  134OSM   H14G14497   4.921   1.649   4.014  2.0815  1.2182  2.0697
  134OSM   C15F14498   4.755   1.747   4.098  0.0549 -0.4646  0.0869
  134OSM   H15F14499   4.697   1.659   4.064 -0.9483  0.1224  0.2270
  134OSM   H15G14500   4.692   1.835   4.072  0.2308 -0.8867 -1.9201
  134OSM   C16F14501   4.770   1.743   4.251 -0.1245 -0.8584 -0.0584
  134OSM   H16F14502   4.851   1.813   4.281 -0.1469 -0.9401  0.1966
  134OSM   H16G14503   4.816   1.643   4.272 -1.1824 -1.2136  0.6193
  134OSM   C17F14504   4.640   1.755   4.330 -0.1429  0.0013 -0.5934
  134OSM   H17F14505   4.559   1.691   4.289 -0.3963  0.7492 -1.2926
  134OSM   H17G14506   4.607   1.859   4.310  0.6021  0.4534  0.4644
  134OSM   C18F14507   4.647   1.731   4.482  0.1516  0.5802 -0.2366
  134OSM   H18F14508   4.723   1.797   4.529 -1.2149  0.5763  2.1057
  134OSM   H18G14509   4.670   1.625   4.506 -3.7129 -0.2775  0.3572
  134OSM   H18H14510   4.550   1.741   4.535  0.0251  0.6639 -0.4867
  135OSM      N14511   6.352   0.010   1.835 -0.2913 -0.0616 -0.9295
  135OSM    C1514512   6.297  -0.016   1.700 -0.3585  0.5906 -0.0592
  135OSM   H15A14513   6.379  -0.050   1.638  0.3256  1.3798  0.3938
  135OSM   H15B14514   6.266   0.073   1.646  1.1923  0.8934 -0.5069
  135OSM   H15C14515   6.222  -0.093   1.705  0.4032 -0.0494  2.3091
  135OSM    C1414516   6.237   0.067   1.920 -0.2430  0.1371 -0.6166
  135OSM   H14A14517   6.148   0.007   1.915 -1.0444  1.2435  0.0207
  135OSM   H14B14518   6.215   0.168   1.891  0.1490  0.4262  0.0626
  135OSM   H14C14519   6.264   0.069   2.025  0.6942 -2.4832 -0.7203
  135OSM    C1314520   6.387  -0.122   1.888 -0.1690 -0.3572  0.3938
  135OSM   H13A14521   6.302  -0.188   1.878  0.1913 -0.4351 -3.6297
  135OSM   H13B14522   6.436  -0.107   1.983  0.3615  0.1834  0.0422
  135OSM   H13C14523   6.464  -0.170   1.830 -1.0315  1.0777 -2.0994
  135OSM    C1214524   6.464   0.114   1.844 -0.5963 -0.2980 -0.3952
  135OSM   H12A14525   6.411   0.206   1.825 -0.8019 -0.4910 -0.7789
  135OSM   H12B14526   6.537   0.087   1.769  0.8117  1.2988  0.3263
  135OSM    C1114527   6.543   0.119   1.982 -0.5891  0.2860  0.4949
  135OSM   H11A14528   6.463   0.116   2.059 -1.4220  1.7699 -0.2695
  135OSM   H11B14529   6.603   0.211   1.995  0.3159  0.1436 -2.1028
  135OSM      P14530   6.760  -0.013   1.922 -0.2074 -0.0429  0.4697
  135OSM    O1314531   6.766  -0.152   1.862 -0.4732 -0.6511  0.0596
  135OSM    O1414532   6.790   0.098   1.831  0.3245 -0.5821 -0.2963
  135OSM    O1114533   6.867  -0.009   2.038  0.4445 -0.3187 -0.5876
  135OSM    O1214534   6.626   0.002   2.002 -0.7380  0.2058  0.4649
  135OSM    C1S14535   6.836   0.065   2.156 -0.6372  0.0833  0.2554
  135OSM    H1S14536   6.740   0.036   2.205  0.5718 -0.9654  2.1588
  135OSM    H1T14537   6.847   0.175   2.149  2.2660 -0.2411 -1.8998
  135OSM     NF14538   6.944   0.112   2.384  0.1111  0.2471 -0.0750
  135OSM    HNF14539   7.012   0.181   2.405  0.0500 -0.2600  2.0286
  135OSM    C2S14540   6.946   0.026   2.266  0.6361 -0.3199  0.8441
  135OSM    H2S14541   6.919  -0.076   2.301 -0.1832 -0.4590 -0.1756
  135OSM    C3S14542   7.089   0.011   2.209  1.2611  0.4799 -0.2395
  135OSM    H3S14543   7.123   0.113   2.179  1.3607  0.2026 -1.1058
  135OSM     O314544   7.108  -0.079   2.104 -0.6266  0.3614  0.0810
  135OSM    HO314545   7.029  -0.062   2.052 -0.3106  0.2971 -0.4324
  135OSM    C4S14546   7.174  -0.025   2.325  0.1730  0.5155  0.3207
  135OSM    H4S14547   7.136  -0.116   2.374  1.5294  0.5112  1.4356
  135OSM    C5S14548   7.288   0.037   2.372  0.1898  0.5088 -0.0670
  135OSM    H5S14549   7.317   0.133   2.328 -0.0377 -0.4218 -2.4272
  135OSM    C6S14550   7.337  -0.015   2.502 -0.7981 -0.4886 -0.0894
  135OSM    H6S14551   7.440   0.023   2.521 -0.1553 -3.1196  2.4878
  135OSM    H6T14552   7.345  -0.126   2.495 -1.4816 -0.4868 -1.1596
  135OSM    C7S14553   7.253   0.020   2.625  0.6043  0.1082  0.5448
  135OSM    H7S14554   7.145  -0.003   2.608  1.0317 -1.0901 -0.7054
  135OSM    H7T14555   7.257   0.127   2.654 -2.4083  0.7661 -1.0507
  135OSM    C8S14556   7.303  -0.063   2.744  0.1454  0.4896  0.0203
  135OSM    H8S14557   7.377   0.005   2.791 -0.7972 -0.1949  2.7262
  135OSM    H8T14558   7.357  -0.152   2.705  0.2765  0.2623  0.7012
  135OSM    C9S14559   7.199  -0.102   2.845  0.4038 -0.5331  0.0572
  135OSM    H9S14560   7.119  -0.154   2.788  0.7164  2.3963 -3.4517
  135OSM    H9T14561   7.161  -0.014   2.901  1.3226  0.0406 -0.1960
  135OSM   C10S14562   7.268  -0.187   2.947  0.0704 -0.5788 -1.3051
  135OSM   H10S14563   7.315  -0.130   3.030  2.0181 -1.4874 -1.7100
  135OSM   H10T14564   7.344  -0.254   2.901 -0.2010 -0.4572 -1.9361
  135OSM   C11S14565   7.175  -0.289   3.011  0.0448  0.6932  0.1984
  135OSM   H11S14566   7.228  -0.363   3.075  0.1724  0.3247 -0.3254
  135OSM   H11T14567   7.134  -0.353   2.930 -0.5516 -1.8272  2.3581
  135OSM   C12S14568   7.058  -0.231   3.090  0.6832 -0.5337  0.3152
  135OSM   H12S14569   6.992  -0.204   3.005  0.9859 -1.2320 -0.1577
  135OSM   H12T14570   7.072  -0.135   3.144  0.4386  0.1579 -0.8113
  135OSM   C13S14571   6.977  -0.334   3.170  0.9729  0.3988  0.2039
  135OSM   H13S14572   6.962  -0.414   3.095  0.3344  1.3418 -0.7193
  135OSM   H13T14573   6.876  -0.298   3.203  0.6705  0.6366 -0.9504
  135OSM   C14S14574   7.035  -0.401   3.297 -0.2211 -1.0301 -0.0346
  135OSM   H14S14575   7.139  -0.434   3.278 -0.0578  0.3337 -1.8393
  135OSM   H14T14576   6.960  -0.481   3.316 -0.4584 -0.5110  1.3772
  135OSM   C15S14577   7.042  -0.322   3.433 -0.4782  0.2717 -0.1112
  135OSM   H15S14578   6.943  -0.275   3.450  0.8344  3.0202  0.3723
  135OSM   H15T14579   7.114  -0.238   3.429 -1.6068  1.2825  0.2264
  135OSM   C16S14580   7.094  -0.411   3.545 -0.8908  0.0633 -0.4753
  135OSM   H16S14581   7.194  -0.445   3.511 -1.9514 -1.5061 -2.1986
  135OSM   H16T14582   7.041  -0.506   3.569  0.3777 -0.8155 -1.0730
  135OSM   C17S14583   7.106  -0.333   3.682 -0.1175  0.1551  0.0695
  135OSM   H17S14584   7.158  -0.403   3.751 -0.3056  0.3440  0.4069
  135OSM   H17T14585   7.011  -0.309   3.735 -0.1992  2.3968 -0.9790
  135OSM   C18S14586   7.177  -0.197   3.681 -0.2522  0.3513  1.1616
  135OSM   H18S14587   7.275  -0.196   3.630 -0.2495  2.6126  1.1200
  135OSM   H18T14588   7.190  -0.174   3.789  0.3380  1.3783  0.8790
  135OSM   H18U14589   7.112  -0.123   3.629 -0.0872  0.0787  0.5715
  135OSM    C1F14590   6.836   0.112   2.469  0.9363 -0.1761 -0.1403
  135OSM     OF14591   6.734   0.042   2.453  0.1771 -0.7020  0.1390
  135OSM    C2F14592   6.838   0.194   2.592  0.3745  0.1956 -0.2872
  135OSM    H2F14593   6.814   0.301   2.575  1.5109  0.8953  2.0381
  135OSM    H2G14594   6.943   0.199   2.629  0.2306  1.0664  0.0294
  135OSM    C3F14595   6.742   0.148   2.705 -0.3535  1.1046  0.0841
  135OSM    H3F14596   6.789   0.066   2.764 -2.0867 -1.2711 -1.6705
  135OSM    H3G14597   6.652   0.099   2.663  0.3343  0.9398 -1.2293
  135OSM    C4F14598   6.691   0.262   2.792 -1.0694 -0.0943 -0.5001
  135OSM    H4F14599   6.627   0.223   2.874  3.0544 -2.7431  1.8614
  135OSM    H4G14600   6.633   0.335   2.732 -1.3246  2.2461  2.3591
  135OSM    C5F14601   6.810   0.350   2.850 -0.4145 -0.1671 -0.6723
  135OSM    H5F14602   6.773   0.429   2.919  1.4976  0.7443 -0.6257
  135OSM    H5G14603   6.850   0.412   2.767 -2.3807  1.3344 -0.5670
  135OSM    C6F14604   6.933   0.276   2.926  0.4485 -0.1020 -0.4822
  135OSM    H6F14605   7.003   0.356   2.957  1.4196 -0.9615 -0.3956
  135OSM    H6G14606   6.980   0.215   2.846  1.7832 -0.9668  0.9106
  135OSM    C7F14607   6.907   0.184   3.047  0.4487 -0.0210 -0.4213
  135OSM    H7F14608   6.997   0.129   3.083 -0.2403 -0.2745  1.0057
  135OSM    H7G14609   6.832   0.106   3.021  0.0899  0.2736 -0.2652
  135OSM    C8F14610   6.863   0.263   3.177  0.4777  0.0490  0.0512
  135OSM    H8F14611   6.780   0.336   3.167 -0.8187 -1.1512  1.4501
  135OSM    H8G14612   6.949   0.329   3.199  0.0721  0.8049 -0.5581
  135OSM    C9F14613   6.834   0.162   3.292 -0.2696  0.2419  0.1051
  135OSM    H9F14614   6.898   0.073   3.286 -0.2994  0.3034 -1.3285
  135OSM   C10F14615   6.745   0.161   3.390 -0.5241 -0.7444 -0.3927
  135OSM   H10F14616   6.736   0.074   3.456  0.2334 -1.1320 -0.7864
  135OSM   C11F14617   6.644   0.263   3.421 -0.0406 -0.0082 -0.4058
  135OSM   H11F14618   6.585   0.297   3.334  0.0323 -0.3585 -0.5939
  135OSM   H11G14619   6.692   0.356   3.458 -0.0255 -0.5226  0.9071
  135OSM   C12F14620   6.536   0.215   3.521  0.1053 -0.2872  0.3565
  135OSM   H12F14621   6.588   0.204   3.618  1.4395  2.5572  0.0611
  135OSM   H12G14622   6.483   0.126   3.479 -0.1841  0.0767 -0.0564
  135OSM   C13F14623   6.424   0.326   3.545 -0.8639  0.1898  0.0160
  135OSM   H13F14624   6.395   0.359   3.443  0.5005 -1.1909 -0.8735
  135OSM   H13G14625   6.462   0.412   3.603  0.1099 -1.2770  1.6546
  135OSM   C14F14626   6.311   0.267   3.627 -0.3900 -0.3678 -0.2884
  135OSM   H14F14627   6.286   0.168   3.584  0.1614 -0.1566 -1.1056
  135OSM   H14G14628   6.219   0.327   3.610  0.7561  1.8238  0.8425
  135OSM   C15F14629   6.349   0.266   3.779  0.2676 -0.2006 -0.2175
  135OSM   H15F14630   6.368   0.370   3.815 -1.0283 -0.5051  1.4692
  135OSM   H15G14631   6.445   0.210   3.777  1.1544  1.2070  1.0903
  135OSM   C16F14632   6.247   0.195   3.869 -0.1305 -0.4698  0.2743
  135OSM   H16F14633   6.217   0.107   3.809 -1.4987  0.0233  0.1929
  135OSM   H16G14634   6.154   0.256   3.878 -0.5815 -1.1046 -0.0257
  135OSM   C17F14635   6.289   0.150   4.012  0.5719  0.0255 -0.4429
  135OSM   H17F14636   6.200   0.102   4.060  1.4992 -2.2721 -0.8922
  135OSM   H17G14637   6.323   0.240   4.067 -2.2392  1.3070 -0.6183
  135OSM   C18F14638   6.400   0.036   4.013 -0.0646 -0.1371 -0.0901
  135OSM   H18F14639   6.370  -0.048   3.947 -1.5028  0.3754 -0.1433
  135OSM   H18G14640   6.411  -0.019   4.108  2.0157 -0.5433 -0.5158
  135OSM   H18H14641   6.499   0.056   3.968 -0.2542 -0.8836 -0.8624
  136OSM      N14642   4.239   0.657   1.823  0.3306 -0.1685 -0.5599
  136OSM    C1514643   4.089   0.648   1.845 -0.1833  0.0352 -0.2567
  136OSM   H15A14644   4.046   0.549   1.843  2.4941 -1.3231  2.4002
  136OSM   H15B14645   4.040   0.718   1.778  0.0758  0.7611  0.3046
  136OSM   H15C14646   4.064   0.690   1.941 -0.2288  0.3257 -0.3942
  136OSM    C1414647   4.268   0.612   1.689 -0.1464  0.2270 -0.2241
  136OSM   H14A14648   4.225   0.669   1.608 -1.2252  0.9662  0.8500
  136OSM   H14B14649   4.233   0.512   1.667 -0.3236  0.4578 -1.0448
  136OSM   H14C14650   4.375   0.608   1.674  0.0778 -2.8678  1.4572
  136OSM    C1314651   4.289   0.798   1.852 -0.2445  1.0571 -0.6755
  136OSM   H13A14652   4.272   0.836   1.951 -0.2514 -0.3202 -0.1205
  136OSM   H13B14653   4.239   0.862   1.781 -2.7484 -0.2786 -0.2314
  136OSM   H13C14654   4.394   0.795   1.827 -0.2280  0.3926 -0.5546
  136OSM    C1214655   4.299   0.555   1.920 -0.1081 -0.0206  0.4068
  136OSM   H12A14656   4.405   0.560   1.900 -0.1358  2.4008  0.5439
  136OSM   H12B14657   4.270   0.454   1.895 -1.3593  0.1251  1.1983
  136OSM    C1114658   4.275   0.573   2.070  0.1908 -0.3970  0.0380
  136OSM   H11A14659   4.293   0.680   2.096  3.6496 -0.9157  0.3145
  136OSM   H11B14660   4.361   0.518   2.114  0.4970 -0.5236 -0.7088
  136OSM      P14661   4.106   0.384   2.135  0.0844 -0.2008  0.0340
  136OSM    O1314662   3.983   0.375   2.216  0.4226  0.3143 -0.0951
  136OSM    O1414663   4.087   0.330   2.000  0.3750 -0.5530  0.2040
  136OSM    O1114664   4.217   0.312   2.210 -0.1830  0.3853  0.1089
  136OSM    O1214665   4.147   0.534   2.118  0.2248  0.0659 -0.5437
  136OSM    C1S14666   4.245   0.355   2.346 -0.7957 -0.0308  0.1500
  136OSM    H1S14667   4.154   0.355   2.410 -1.2019 -1.2334 -0.3861
  136OSM    H1T14668   4.281   0.460   2.352  0.8281 -0.6300  1.4860
  136OSM     NF14669   4.326   0.256   2.553  0.3280  0.1370 -0.2339
  136OSM    HNF14670   4.381   0.325   2.600 -0.1399 -0.1197  0.7187
  136OSM    C2S14671   4.341   0.251   2.407  0.2574  0.3880 -0.2375
  136OSM    H2S14672   4.303   0.153   2.371 -0.2818 -0.5099  2.4659
  136OSM    C3S14673   4.482   0.273   2.352 -0.0874  0.0685 -0.3532
  136OSM    H3S14674   4.512   0.380   2.350 -2.4582  0.7867 -0.8852
  136OSM     O314675   4.496   0.230   2.215  0.3254 -0.4168 -0.2200
  136OSM    HO314676   4.403   0.223   2.193  0.7923 -1.4034 -2.1235
  136OSM    C4S14677   4.592   0.198   2.428  0.3159 -0.0881  0.1059
  136OSM    H4S14678   4.562   0.092   2.421 -1.6038  0.4832 -1.1182
  136OSM    C5S14679   4.691   0.253   2.508  0.3036  0.0057  0.3025
  136OSM    H5S14680   4.677   0.360   2.530 -2.6113 -0.1648 -0.3182
  136OSM    C6S14681   4.793   0.175   2.584  0.2950  0.3325 -0.1737
  136OSM    H6S14682   4.890   0.220   2.554  1.0850 -2.1499 -1.6436
  136OSM    H6T14683   4.793   0.065   2.565  1.3466 -0.2735  2.8038
  136OSM    C7S14684   4.782   0.204   2.736  0.6680  0.1945  0.3313
  136OSM    H7S14685   4.682   0.171   2.774  0.0248  1.3137 -0.3275
  136OSM    H7T14686   4.801   0.313   2.746  0.1146  0.6930 -2.8264
  136OSM    C8S14687   4.888   0.140   2.816  0.3350  0.0934  0.3929
  136OSM    H8S14688   4.985   0.150   2.763  0.6637 -0.7723  0.8122
  136OSM    H8T14689   4.880   0.029   2.813 -0.1866  0.1217 -2.3835
  136OSM    C9S14690   4.907   0.189   2.963  1.0417 -1.0061  0.5712
  136OSM    H9S14691   4.908   0.106   3.037 -0.5236 -1.4619  0.1325
  136OSM    H9T14692   4.832   0.268   2.989  1.7823 -0.2177  0.3378
  136OSM   C10S14693   5.043   0.268   2.983  0.2194 -0.1390 -0.1070
  136OSM   H10S14694   5.023   0.353   2.913  0.1459 -1.2843 -1.5323
  136OSM   H10T14695   5.123   0.197   2.955  0.1454 -0.1945 -0.1758
  136OSM   C11S14696   5.054   0.314   3.130  0.1917  0.5247  0.3752
  136OSM   H11S14697   5.081   0.223   3.187  0.1211 -1.0312 -1.9144
  136OSM   H11T14698   4.950   0.343   3.156 -0.3015  1.3974 -2.2330
  136OSM   C12S14699   5.161   0.420   3.168  0.2275 -0.2079 -0.0017
  136OSM   H12S14700   5.148   0.497   3.089  1.8585 -0.1004 -0.2053
  136OSM   H12T14701   5.267   0.390   3.149  0.5646 -0.4322  2.0050
  136OSM   C13S14702   5.152   0.474   3.310  0.0553 -0.3553 -0.3956
  136OSM   H13S14703   5.052   0.517   3.330  1.2205  1.3984  2.2217
  136OSM   H13T14704   5.242   0.534   3.335  1.0567 -1.9384  0.0015
  136OSM   C14S14705   5.165   0.357   3.415 -0.4636  0.6526 -0.1430
  136OSM   H14S14706   5.258   0.300   3.392 -0.4726  0.5607  0.0405
  136OSM   H14T14707   5.073   0.295   3.409 -0.0960  0.0929 -0.1096
  136OSM   C15S14708   5.173   0.416   3.556  0.1533 -0.3650 -0.3169
  136OSM   H15S14709   5.081   0.476   3.572  0.7726  0.8321 -1.1170
  136OSM   H15T14710   5.260   0.485   3.555 -0.9609  1.0905 -1.0481
  136OSM   C16S14711   5.186   0.309   3.670  0.2021  0.6475 -0.2983
  136OSM   H16S14712   5.153   0.208   3.636 -3.2685  1.6701 -0.3870
  136OSM   H16T14713   5.110   0.324   3.750 -0.9126  1.2031 -1.4182
  136OSM   C17S14714   5.330   0.306   3.732 -0.1883 -0.2750 -0.7757
  136OSM   H17S14715   5.353   0.409   3.766 -1.3571 -0.3157  0.2017
  136OSM   H17T14716   5.399   0.271   3.652  0.4258  1.8110 -1.2108
  136OSM   C18S14717   5.348   0.219   3.848 -0.2342 -0.1565  0.0417
  136OSM   H18S14718   5.275   0.258   3.922  0.1678  1.2375 -0.2555
  136OSM   H18T14719   5.446   0.233   3.899 -0.3887  3.0392 -0.3057
  136OSM   H18U14720   5.320   0.113   3.834  2.1249 -0.7134 -0.8505
  136OSM    C1F14721   4.225   0.206   2.623  0.2718  0.1411  0.1598
  136OSM     OF14722   4.144   0.127   2.573 -0.6058 -0.3836  0.0855
  136OSM    C2F14723   4.210   0.248   2.770 -0.3265 -0.1905  0.9407
  136OSM    H2F14724   4.193   0.357   2.765 -0.6909 -0.2242  1.4127
  136OSM    H2G14725   4.294   0.223   2.837  0.1119  3.4950  1.9653
  136OSM    C3F14726   4.084   0.186   2.833 -0.1617 -0.2529  0.3684
  136OSM    H3F14727   4.086   0.075   2.836 -1.0865 -0.2884  0.1193
  136OSM    H3G14728   3.990   0.206   2.777 -0.4648  1.2093  1.3590
  136OSM    C4F14729   4.054   0.234   2.981 -0.7076 -0.5044  1.0108
  136OSM    H4F14730   3.953   0.197   3.009 -0.3048 -0.8227  2.1200
  136OSM    H4G14731   4.059   0.345   2.980 -1.0533 -0.4423  2.7781
  136OSM    C5F14732   4.152   0.178   3.085 -0.8582  0.3140 -0.2333
  136OSM    H5F14733   4.255   0.209   3.057  0.1196 -2.7916 -0.4106
  136OSM    H5G14734   4.154   0.068   3.102 -3.2914  0.2203 -0.2575
  136OSM    C6F14735   4.119   0.228   3.227 -0.0006 -0.4852 -0.6031
  136OSM    H6F14736   4.010   0.220   3.242 -0.0493  0.4231 -0.4381
  136OSM    H6G14737   4.147   0.335   3.238 -0.2148 -0.5825  1.0173
  136OSM    C7F14738   4.183   0.145   3.345  0.1592  0.2988 -0.2289
  136OSM    H7F14739   4.290   0.173   3.359  0.9776 -0.8072 -3.3234
  136OSM    H7G14740   4.175   0.036   3.326  0.3880 -0.1971  2.2321
  136OSM    C8F14741   4.106   0.172   3.476 -0.0921 -0.3130  0.1282
  136OSM    H8F14742   4.003   0.132   3.469 -1.1530  2.0967  1.0400
  136OSM    H8G14743   4.093   0.282   3.486 -0.5883 -0.4508  1.1495
  136OSM    C9F14744   4.173   0.090   3.587 -0.5804  0.0962 -0.1498
  136OSM    H9F14745   4.170  -0.018   3.568  1.1165 -0.4631  2.3367
  136OSM   C10F14746   4.255   0.137   3.682 -0.1626  0.0542  0.1646
  136OSM   H10F14747   4.277   0.060   3.757 -1.0840 -1.7711 -1.3491
  136OSM   C11F14748   4.283   0.282   3.705  0.3894  0.3892  0.8428
  136OSM   H11F14749   4.282   0.338   3.609  1.3616  0.6885  0.9929
  136OSM   H11G14750   4.389   0.289   3.738  0.7795 -2.7304  0.5279
  136OSM   C12F14751   4.179   0.350   3.795 -0.4205  0.1300 -0.9356
  136OSM   H12F14752   4.078   0.328   3.753  0.4849 -3.2273 -1.6034
  136OSM   H12G14753   4.195   0.460   3.783 -3.0819  0.6078 -0.8258
  136OSM   C13F14754   4.182   0.309   3.942 -0.3510 -0.0957  0.0693
  136OSM   H13F14755   4.150   0.203   3.954 -1.5462 -0.0127 -1.8841
  136OSM   H13G14756   4.115   0.372   4.004 -0.6322 -0.8932  0.5883
  136OSM   C14F14757   4.317   0.320   4.011  0.4941 -0.0775 -0.8819
  136OSM   H14F14758   4.353   0.425   4.012  1.0514 -0.2453 -1.9416
  136OSM   H14G14759   4.405   0.273   3.962  1.4212  1.5697 -0.8772
  136OSM   C15F14760   4.327   0.273   4.156  0.0733 -0.3495  0.7140
  136OSM   H15F14761   4.254   0.335   4.213 -1.4226 -0.7285 -0.6957
  136OSM   H15G14762   4.433   0.283   4.188  0.1394 -3.6391  1.8854
  136OSM   C16F14763   4.285   0.128   4.165 -0.2910 -0.6967 -0.2142
  136OSM   H16F14764   4.344   0.081   4.085  1.1105 -0.5286  0.6856
  136OSM   H16G14765   4.177   0.112   4.142 -0.6221  0.8987  0.0552
  136OSM   C17F14766   4.314   0.071   4.302  0.4288  0.2381  0.4415
  136OSM   H17F14767   4.416   0.105   4.331  1.4734 -1.6309 -0.7861
  136OSM   H17G14768   4.318  -0.040   4.299 -0.2708  0.1589  1.9268
  136OSM   C18F14769   4.213   0.125   4.398  0.7101  0.1704  0.1579
  136OSM   H18F14770   4.111   0.087   4.376  0.0493  2.2205 -0.6042
  136OSM   H18G14771   4.213   0.236   4.410  0.5394  0.2038 -0.1315
  136OSM   H18H14772   4.241   0.082   4.496 -0.4824 -0.3992  0.2688
  137OSM      N14773   2.054   1.664   2.159  0.2542  0.3319 -0.2180
  137OSM    C1514774   1.945   1.734   2.086  0.0745  0.3287  0.1210
  137OSM   H15A14775   1.875   1.668   2.037  0.0872 -0.0688  0.6318
  137OSM   H15B14776   1.984   1.813   2.023  0.5910 -0.7987 -1.0159
  137OSM   H15C14777   1.884   1.786   2.159 -0.4088  1.8746 -1.3238
  137OSM    C1414778   2.146   1.605   2.057  0.2419  0.6788 -0.0129
  137OSM   H14A14779   2.104   1.521   2.002 -1.2865  1.9155 -0.8142
  137OSM   H14B14780   2.226   1.569   2.120 -1.2691  0.4177  1.8636
  137OSM   H14C14781   2.186   1.682   1.993  0.5917  1.2754  0.9032
  137OSM    C1314782   2.131   1.775   2.235  0.2901  0.0786 -0.7784
  137OSM   H13A14783   2.066   1.809   2.314 -2.2719  1.9480 -3.4865
  137OSM   H13B14784   2.159   1.859   2.174 -0.5131  0.3098 -0.8343
  137OSM   H13C14785   2.223   1.735   2.276  0.3318 -0.3107 -1.2449
  137OSM    C1214786   1.997   1.568   2.252  0.6227 -0.1623  0.2807
  137OSM   H12A14787   1.963   1.478   2.203  1.9751 -0.1451 -0.7324
  137OSM   H12B14788   1.902   1.612   2.280  0.5222 -0.6550  0.7374
  137OSM    C1114789   2.081   1.536   2.370 -0.6869  0.2373 -0.8523
  137OSM   H11A14790   2.027   1.472   2.444  0.2397 -0.0715 -0.4191
  137OSM   H11B14791   2.100   1.628   2.429 -2.2310 -0.2898  0.5661
  137OSM      P14792   2.223   1.319   2.321  0.0924 -0.2561  0.4389
  137OSM    O1314793   2.156   1.263   2.203  0.1883 -0.3808  0.1130
  137OSM    O1414794   2.366   1.284   2.332  0.6693 -0.0778 -0.2038
  137OSM    O1114795   2.144   1.276   2.454 -0.4043  0.2136  0.1058
  137OSM    O1214796   2.206   1.476   2.329 -0.1777  0.7179 -0.4404
  137OSM    C1S14797   2.142   1.133   2.487 -0.1648 -0.1218 -0.4309
  137OSM    H1S14798   2.237   1.077   2.471 -0.5301 -1.1546  0.8361
  137OSM    H1T14799   2.060   1.081   2.433 -1.6599  0.0419  1.5736
  137OSM     NF14800   2.113   0.973   2.670  0.5153 -0.4533  0.5714
  137OSM    HNF14801   2.023   0.936   2.691  0.4184 -0.2157  0.5694
  137OSM    C2S14802   2.114   1.110   2.637  0.7911 -0.0534  0.6631
  137OSM    H2S14803   2.201   1.158   2.687 -0.8330  0.6965  2.9530
  137OSM    C3S14804   1.980   1.188   2.680 -0.6160  0.6502 -0.0949
  137OSM    H3S14805   1.893   1.148   2.623  0.7939  1.2993 -2.8462
  137OSM     O314806   1.976   1.329   2.653 -0.6662 -0.4044  0.2764
  137OSM    HO314807   2.058   1.333   2.602 -0.0660 -3.2839  0.8397
  137OSM    C4S14808   1.973   1.171   2.832  0.3758 -0.2109  0.0537
  137OSM    H4S14809   2.065   1.198   2.886  0.5946 -3.0406  1.2670
  137OSM    C5S14810   1.867   1.123   2.905  0.5259  1.3177  0.7362
  137OSM    H5S14811   1.776   1.089   2.853  2.3127  0.8921 -2.3423
  137OSM    C6S14812   1.868   1.124   3.050 -0.1653  0.4032 -0.0271
  137OSM    H6S14813   1.962   1.165   3.094  0.2283  1.4692 -1.7451
  137OSM    H6T14814   1.850   1.019   3.079  1.0648  0.0236 -0.5604
  137OSM    C7S14815   1.751   1.206   3.095 -0.3379  0.1569 -0.4386
  137OSM    H7S14816   1.729   1.193   3.203 -3.4129  1.3174 -0.8296
  137OSM    H7T14817   1.665   1.169   3.035  0.2305 -3.2314  0.5950
  137OSM    C8S14818   1.766   1.352   3.063  0.1777  0.4169 -0.0726
  137OSM    H8S14819   1.780   1.367   2.954 -1.0341 -0.1716 -0.3337
  137OSM    H8T14820   1.853   1.400   3.111  1.0540 -1.0572 -0.1362
  137OSM    C9S14821   1.642   1.442   3.108 -0.6945  0.4395  0.1184
  137OSM    H9S14822   1.542   1.401   3.082  0.1886 -1.6577 -0.1560
  137OSM    H9T14823   1.653   1.544   3.066  2.6454  0.3451  0.5727
  137OSM   C10S14824   1.657   1.457   3.253 -0.1250 -0.7382  0.1826
  137OSM   H10S14825   1.743   1.523   3.278 -0.7204  0.4496 -0.8265
  137OSM   H10T14826   1.677   1.360   3.304  1.5838  0.5172  2.1003
  137OSM   C11S14827   1.539   1.517   3.323  0.0515  1.3179 -0.1815
  137OSM   H11S14828   1.525   1.620   3.284 -0.3698  0.8269 -1.3977
  137OSM   H11T14829   1.552   1.513   3.433 -0.6303 -0.6048 -0.1326
  137OSM   C12S14830   1.408   1.436   3.302  0.2080 -0.9454  0.5603
  137OSM   H12S14831   1.375   1.466   3.201 -0.6656  2.6476  1.7639
  137OSM   H12T14832   1.331   1.471   3.374  0.2940 -0.4463  0.4094
  137OSM   C13S14833   1.421   1.280   3.317 -0.1678  0.1571 -0.1633
  137OSM   H13S14834   1.512   1.244   3.265 -0.2677 -0.5756  0.1523
  137OSM   H13T14835   1.335   1.235   3.262 -0.3770  1.5281 -1.0029
  137OSM   C14S14836   1.423   1.231   3.467  0.2449  1.2269  0.3436
  137OSM   H14S14837   1.324   1.257   3.510 -0.7071 -0.6355 -0.6162
  137OSM   H14T14838   1.506   1.293   3.508 -0.8698  2.9340  0.1282
  137OSM   C15S14839   1.463   1.089   3.481  0.3622  0.2561  0.3989
  137OSM   H15S14840   1.559   1.068   3.429 -0.2014  1.8802 -1.3965
  137OSM   H15T14841   1.381   1.039   3.425  1.4240 -0.2982 -0.7068
  137OSM   C16S14842   1.470   1.047   3.630  0.0752 -0.1846  0.1574
  137OSM   H16S14843   1.438   0.941   3.637 -0.3320 -0.1625 -1.1565
  137OSM   H16T14844   1.391   1.108   3.680 -1.5671 -1.0898 -1.2241
  137OSM   C17S14845   1.599   1.077   3.695 -0.8056 -0.0577 -0.2654
  137OSM   H17S14846   1.633   1.178   3.664 -0.4831 -0.1917 -0.3511
  137OSM   H17T14847   1.671   0.999   3.664 -0.0713  0.6293 -0.3179
  137OSM   C18S14848   1.589   1.062   3.848 -0.0079 -0.3821  0.2125
  137OSM   H18S14849   1.680   1.086   3.909 -1.9516  0.9510  2.8148
  137OSM   H18T14850   1.559   0.956   3.862 -0.5300 -0.1406  0.9775
  137OSM   H18U14851   1.516   1.135   3.891  0.7647 -0.6565  2.1091
  137OSM    C1F14852   2.217   0.895   2.688 -0.1100 -0.3623  0.1304
  137OSM     OF14853   2.330   0.937   2.669  0.6364  0.0650  0.1162
  137OSM    C2F14854   2.172   0.755   2.726  0.1707  0.3045 -0.3731
  137OSM    H2F14855   2.242   0.679   2.685  0.5071 -0.1696  0.9912
  137OSM    H2G14856   2.069   0.734   2.691 -0.1238  1.6645 -0.3659
  137OSM    C3F14857   2.162   0.739   2.876 -0.0725 -0.2983 -0.7075
  137OSM    H3F14858   2.119   0.642   2.910  0.2268  0.0881  0.8786
  137OSM    H3G14859   2.091   0.816   2.912 -1.4368 -0.7726 -2.2607
  137OSM    C4F14860   2.290   0.757   2.957  0.0733 -0.3593  0.0669
  137OSM    H4F14861   2.352   0.846   2.932 -0.8396  0.6876  1.3944
  137OSM    H4G14862   2.351   0.664   2.948  0.4956 -0.3909  2.6000
  137OSM    C5F14863   2.263   0.776   3.110  0.2819  0.4204 -0.2998
  137OSM    H5F14864   2.184   0.708   3.148  1.9639 -0.8814  1.0204
  137OSM    H5G14865   2.246   0.883   3.133 -0.6733 -0.0322  1.2481
  137OSM    C6F14866   2.387   0.740   3.194  0.2522  0.4455 -0.6554
  137OSM    H6F14867   2.476   0.755   3.130  0.0202  1.0593 -0.8427
  137OSM    H6G14868   2.376   0.635   3.229 -2.6354  1.1244  0.8120
  137OSM    C7F14869   2.408   0.834   3.305 -0.0626 -0.1862  0.0704
  137OSM    H7F14870   2.390   0.939   3.275  0.8534 -0.0892 -0.1867
  137OSM    H7G14871   2.516   0.836   3.333 -0.2349  2.3940  0.7965
  137OSM    C8F14872   2.328   0.801   3.434  0.8691 -0.3173 -0.8018
  137OSM    H8F14873   2.224   0.765   3.419  0.5246  0.0095  0.6165
  137OSM    H8G14874   2.313   0.898   3.487 -0.4847 -0.3507 -1.0716
  137OSM    C9F14875   2.406   0.697   3.509  0.1077  0.0449  0.7563
  137OSM    H9F14876   2.426   0.611   3.444 -0.0007 -0.6708  1.6504
  137OSM   C10F14877   2.461   0.700   3.636  0.4987 -0.1025  0.3430
  137OSM   H10F14878   2.523   0.616   3.672  0.6273 -0.6518 -1.0942
  137OSM   C11F14879   2.452   0.815   3.736 -0.9679 -0.2658  0.0810
  137OSM   H11F14880   2.423   0.907   3.680 -0.8502  0.7056  1.5545
  137OSM   H11G14881   2.547   0.851   3.782 -1.1569  0.9400 -0.4202
  137OSM   C12F14882   2.352   0.778   3.841  0.4911  0.5324  0.0358
  137OSM   H12F14883   2.271   0.720   3.794  0.9263  0.4785 -0.6632
  137OSM   H12G14884   2.314   0.879   3.868 -0.9454  0.4242 -1.4270
  137OSM   C13F14885   2.406   0.684   3.948 -0.0588  0.4098  0.1886
  137OSM   H13F14886   2.453   0.743   4.029  1.6547  0.0204 -0.4775
  137OSM   H13G14887   2.483   0.618   3.902  1.9391  3.8138 -1.7898
  137OSM   C14F14888   2.295   0.615   4.018 -0.9610  0.2418  0.1292
  137OSM   H14F14889   2.232   0.558   3.946  2.4276 -3.7089 -0.0194
  137OSM   H14G14890   2.221   0.691   4.051 -2.4008  0.0349 -2.3540
  137OSM   C15F14891   2.324   0.529   4.145 -0.0569  0.0143 -0.1759
  137OSM   H15F14892   2.369   0.597   4.221 -2.3888  0.2065  1.1338
  137OSM   H15G14893   2.401   0.454   4.116  0.4993  0.2517  0.6475
  137OSM   C16F14894   2.208   0.473   4.222 -0.2563 -0.4166  0.5609
  137OSM   H16F14895   2.144   0.404   4.163  1.2196 -1.0488 -0.3530
  137OSM   H16G14896   2.156   0.567   4.250  1.2192  0.6113 -0.0273
  137OSM   C17F14897   2.266   0.387   4.334 -0.3433 -0.5498  0.3261
  137OSM   H17F14898   2.334   0.454   4.391 -0.1232  1.1799 -1.8551
  137OSM   H17G14899   2.329   0.307   4.291  2.5710  2.4660 -1.4748
  137OSM   C18F14900   2.157   0.312   4.409  0.1179  0.3007 -0.3750
  137OSM   H18F14901   2.203   0.234   4.474 -0.7277 -0.6253 -0.8520
  137OSM   H18G14902   2.101   0.260   4.329 -0.9138 -0.0601  0.5509
  137OSM   H18H14903   2.094   0.391   4.457 -2.9094  0.5629 -4.3119
  138OSM      N14904   0.574   1.976   1.841  0.2043  0.4798 -0.5016
  138OSM    C1514905   0.433   1.924   1.816 -0.2405 -0.0546  0.7063
  138OSM   H15A14906   0.429   1.840   1.748 -1.1828  0.1307  0.5302
  138OSM   H15B14907   0.379   2.005   1.771 -1.0712 -1.1087 -0.2387
  138OSM   H15C14908   0.391   1.888   1.909  1.5422 -2.8084  0.5660
  138OSM    C1414909   0.658   1.868   1.908  1.0496  0.3432  0.8736
  138OSM   H14A14910   0.657   1.771   1.862 -1.1447  0.5658  0.2971
  138OSM   H14B14911   0.607   1.859   2.003  0.6654  1.1427  0.7583
  138OSM   H14C14912   0.758   1.906   1.924  0.9097  2.2826 -1.9748
  138OSM    C1314913   0.633   1.999   1.707  0.4133  0.1293 -0.6565
  138OSM   H13A14914   0.563   2.054   1.646  0.9621  0.2958 -1.1448
  138OSM   H13B14915   0.660   1.909   1.654  0.2066  0.5133 -1.4159
  138OSM   H13C14916   0.722   2.061   1.710  0.1058  0.6003  2.3182
  138OSM    C1214917   0.577   2.100   1.926 -0.4124 -0.5131  0.3109
  138OSM   H12A14918   0.513   2.173   1.877  0.9614  0.7456  0.2934
  138OSM   H12B14919   0.676   2.140   1.909 -1.3974  1.4735 -1.2939
  138OSM    C1114920   0.540   2.086   2.073 -0.0692 -0.0675  0.7516
  138OSM   H11A14921   0.455   2.015   2.078  0.5011 -0.7245  1.2726
  138OSM   H11B14922   0.501   2.185   2.105  0.7015  1.5885 -2.9186
  138OSM      P14923   0.761   2.111   2.207 -0.1072 -0.0745 -0.3575
  138OSM    O1314924   0.871   2.019   2.246  0.0287 -0.2477 -0.3596
  138OSM    O1414925   0.788   2.227   2.121  0.0591  0.0814  0.1499
  138OSM    O1114926   0.692   2.164   2.345  0.2841 -0.1485  0.5981
  138OSM    O1214927   0.648   2.022   2.146  0.1234  0.2947  0.3692
  138OSM    C1S14928   0.603   2.074   2.405  0.2701  0.0302 -0.2500
  138OSM    H1S14929   0.652   1.975   2.418  1.1156  0.5798  0.9043
  138OSM    H1T14930   0.517   2.038   2.344 -0.9864  1.2327  0.7560
  138OSM     NF14931   0.428   2.024   2.571  0.4445  0.4683 -0.2774
  138OSM    HNF14932   0.336   2.057   2.552 -0.1636 -0.9034  0.2053
  138OSM    C2S14933   0.540   2.116   2.549  0.8565 -0.4490  0.8168
  138OSM    H2S14934   0.623   2.092   2.619 -0.2937 -0.1300  2.3576
  138OSM    C3S14935   0.502   2.277   2.551 -0.0133 -0.4455 -0.6437
  138OSM    H3S14936   0.439   2.301   2.463  0.2847 -2.0225 -1.3152
  138OSM     O314937   0.623   2.352   2.527  0.3196  0.2412 -0.8474
  138OSM    HO314938   0.675   2.285   2.482  1.8729 -0.6101  1.9783
  138OSM    C4S14939   0.444   2.318   2.683 -0.0776  0.9099 -0.0895
  138OSM    H4S14940   0.334   2.316   2.675 -0.0185 -1.4363 -1.3608
  138OSM    C5S14941   0.499   2.340   2.803 -0.0095 -0.9718  0.3360
  138OSM    H5S14942   0.608   2.324   2.806  0.1247 -0.6427 -1.5699
  138OSM    C6S14943   0.424   2.381   2.934  0.2614  0.0329  0.2048
  138OSM    H6S14944   0.333   2.442   2.914  1.3122  1.2984 -0.9520
  138OSM    H6T14945   0.491   2.437   3.002 -0.2273  0.0597  0.6690
  138OSM    C7S14946   0.379   2.261   3.024 -0.0927  0.1895  0.6486
  138OSM    H7S14947   0.326   2.186   2.962 -0.1196  2.0320 -1.6970
  138OSM    H7T14948   0.316   2.299   3.107 -1.9774 -2.1231  0.3909
  138OSM    C8S14949   0.499   2.190   3.092 -0.2066 -0.0542  0.1354
  138OSM    H8S14950   0.586   2.257   3.108  0.6079 -1.1926  0.5978
  138OSM    H8T14951   0.535   2.112   3.021  0.7094 -0.3564  0.9021
  138OSM    C9S14952   0.449   2.131   3.230  0.1326  0.4086  0.1707
  138OSM    H9S14953   0.376   2.054   3.197 -2.8786  2.0640  2.3646
  138OSM    H9T14954   0.393   2.208   3.288 -1.1930 -0.7710  0.5243
  138OSM   C10S14955   0.566   2.071   3.312  0.6878 -0.0494 -1.0409
  138OSM   H10S14956   0.633   1.996   3.263  2.6896 -1.4360  3.3374
  138OSM   H10T14957   0.516   2.008   3.388  2.2114 -2.7437 -2.1235
  138OSM   C11S14958   0.642   2.180   3.381 -0.5120  0.3553 -0.2788
  138OSM   H11S14959   0.573   2.239   3.445  0.3914 -0.2125  1.2812
  138OSM   H11T14960   0.685   2.255   3.312  3.0181 -0.4975  0.7896
  138OSM   C12S14961   0.774   2.133   3.447 -0.1559  0.4514  0.4967
  138OSM   H12S14962   0.845   2.078   3.382  1.6617 -2.4874  4.4763
  138OSM   H12T14963   0.746   2.058   3.525  1.8633 -0.4934  0.3640
  138OSM   C13S14964   0.836   2.254   3.518  0.1498  0.1449  0.3406
  138OSM   H13S14965   0.757   2.320   3.560 -0.0866 -0.7001  1.2829
  138OSM   H13T14966   0.886   2.325   3.449  0.2655  0.5673  0.8531
  138OSM   C14S14967   0.926   2.225   3.636 -0.1501  0.1258  0.0772
  138OSM   H14S14968   0.991   2.314   3.646  1.8701 -1.4775  2.6891
  138OSM   H14T14969   0.994   2.141   3.607  0.0907  0.1559  0.5434
  138OSM   C15S14970   0.858   2.191   3.767  0.3161  0.2400  0.8957
  138OSM   H15S14971   0.827   2.084   3.762 -0.0710  0.3647 -3.1544
  138OSM   H15T14972   0.769   2.257   3.778  0.9318  1.3015 -0.2276
  138OSM   C16S14973   0.953   2.226   3.882 -0.2777 -0.5023 -0.4851
  138OSM   H16S14974   0.973   2.335   3.877  3.3129 -1.0174 -0.5745
  138OSM   H16T14975   1.050   2.179   3.855  1.1885  0.7260  2.2358
  138OSM   C17S14976   0.911   2.175   4.021 -0.1988 -0.5355 -0.0099
  138OSM   H17S14977   0.927   2.065   4.023  0.3160 -0.5234 -1.7324
  138OSM   H17T14978   0.807   2.197   4.053 -0.3416  0.3851 -1.0430
  138OSM   C18S14979   1.009   2.214   4.124 -0.0584  0.2024  0.5994
  138OSM   H18S14980   1.109   2.176   4.095 -0.5403 -1.0997  0.5767
  138OSM   H18T14981   0.990   2.161   4.220 -0.7577  1.0419  0.9430
  138OSM   H18U14982   1.011   2.324   4.140 -2.2628  0.4537 -0.4559
  138OSM    C1F14983   0.458   1.900   2.595  1.0685  0.2849 -0.5571
  138OSM     OF14984   0.577   1.853   2.590  0.4562  0.3641 -0.4581
  138OSM    C2F14985   0.340   1.801   2.623  0.2229  0.1767 -0.2700
  138OSM    H2F14986   0.387   1.711   2.666 -0.2400 -0.6911 -1.5233
  138OSM    H2G14987   0.294   1.784   2.523  0.0894 -0.9225 -0.0296
  138OSM    C3F14988   0.231   1.862   2.722 -0.2407 -0.2876  0.1277
  138OSM    H3F14989   0.159   1.925   2.664  0.0183 -0.0679  0.0458
  138OSM    H3G14990   0.275   1.915   2.809  1.4184 -1.7734  0.2576
  138OSM    C4F14991   0.145   1.740   2.774 -0.1606 -0.2588  0.3034
  138OSM    H4F14992   0.209   1.662   2.821 -0.6629  0.4538  2.2881
  138OSM    H4G14993   0.098   1.701   2.682  0.0268 -1.0930  0.5567
  138OSM    C5F14994   0.034   1.777   2.872  0.0901 -0.1004  0.5941
  138OSM    H5F14995  -0.040   1.695   2.877 -1.2614  1.1244  1.7320
  138OSM    H5G14996  -0.035   1.853   2.828 -2.3170 -2.0878  0.7008
  138OSM    C6F14997   0.077   1.815   3.012  0.1689 -0.0299 -0.2165
  138OSM    H6F14998   0.118   1.918   3.008 -1.1549  0.5065 -0.4434
  138OSM    H6G14999   0.162   1.748   3.038  0.1247 -0.1049 -0.2645
  138OSM    C7F15000  -0.027   1.800   3.127 -0.0557  0.6450 -0.7725
  138OSM    H7F15001  -0.064   1.695   3.117 -0.1255  0.5123  0.6630
  138OSM    H7G15002  -0.112   1.868   3.107 -0.4714  0.9801  1.8057
  138OSM    C8F15003   0.032   1.839   3.266 -0.4757  0.0000  0.0924
  138OSM    H8F15004  -0.044   1.900   3.318 -1.6555  2.1272 -3.7822
  138OSM    H8G15005   0.104   1.920   3.243  1.3670 -1.4196  0.5542
  138OSM    C9F15006   0.091   1.723   3.347 -0.0921 -0.1554 -0.1167
  138OSM    H9F15007   0.153   1.651   3.291  0.7314  0.8221 -0.5029
  138OSM   C10F15008   0.073   1.706   3.479 -0.6418 -0.1432  0.1863
  138OSM   H10F15009   0.130   1.628   3.534 -2.5644 -0.4994  1.7758
  138OSM   C11F15010  -0.011   1.795   3.567  0.6994 -0.3895  0.8120
  138OSM   H11F15011  -0.114   1.800   3.524  0.3365 -1.0236  1.5833
  138OSM   H11G15012   0.023   1.900   3.580 -0.6769 -0.1050  2.5280
  138OSM   C12F15013  -0.032   1.745   3.707  1.0447 -0.0230 -0.1647
  138OSM   H12F15014  -0.099   1.824   3.748 -0.5734 -0.5216 -1.7606
  138OSM   H12G15015   0.066   1.739   3.760  1.7137 -2.9057 -1.5326
  138OSM   C13F15016  -0.107   1.617   3.722  0.2268 -0.1203 -0.1547
  138OSM   H13F15017  -0.072   1.544   3.646  2.4414 -2.6588  2.9739
  138OSM   H13G15018  -0.215   1.632   3.702  0.1069  1.2817  1.3571
  138OSM   C14F15019  -0.086   1.563   3.863  0.3498 -0.9947 -0.3254
  138OSM   H14F15020   0.019   1.561   3.900  0.2812  1.4200  0.1946
  138OSM   H14G15021  -0.135   1.465   3.882  1.5373 -1.5497 -0.0172
  138OSM   C15F15022  -0.163   1.658   3.953 -0.3857  0.2633 -0.2881
  138OSM   H15F15023  -0.124   1.762   3.945 -1.4278  0.7719  0.7914
  138OSM   H15G15024  -0.147   1.630   4.060 -1.8504 -0.3332 -0.2073
  138OSM   C16F15025  -0.321   1.655   3.947 -0.4529  0.7309 -0.0772
  138OSM   H16F15026  -0.352   1.553   3.978 -0.8686  1.2120  1.1604
  138OSM   H16G15027  -0.346   1.678   3.841 -0.5861 -0.7417 -0.3870
  138OSM   C17F15028  -0.407   1.746   4.033 -0.1841  0.0923 -0.1812
  138OSM   H17F15029  -0.369   1.850   4.045 -3.2974  1.4027 -0.4485
  138OSM   H17G15030  -0.396   1.701   4.134 -0.4899  0.2534 -0.0711
  138OSM   C18F15031  -0.551   1.754   3.979 -0.4793 -0.1337  0.7672
  138OSM   H18F15032  -0.605   1.657   3.983  0.2195 -0.6618 -1.2444
  138OSM   H18G15033  -0.553   1.803   3.879  0.6418  0.1629  0.8742
  138OSM   H18H15034  -0.615   1.822   4.039 -1.6674 -1.6572  1.3074
  139OSM      N15035   1.277   5.755   1.937 -0.1311 -0.4864 -0.4460
  139OSM    C1515036   1.411   5.739   2.002  0.1271  0.4477 -0.4746
  139OSM   H15A15037   1.423   5.818   2.074  2.3409  0.3589 -0.6741
  139OSM   H15B15038   1.500   5.749   1.942  2.8197 -0.5181  2.9689
  139OSM   H15C15039   1.429   5.640   2.043 -0.2008  0.9453  0.9192
  139OSM    C1415040   1.286   5.901   1.884  0.8964  0.0677 -0.4075
  139OSM   H14A15041   1.190   5.929   1.843  1.3185 -1.2284 -2.4416
  139OSM   H14B15042   1.348   5.907   1.796  1.6060 -0.2804  0.0601
  139OSM   H14C15043   1.320   5.976   1.953  0.8089  1.5250 -1.8718
  139OSM    C1315044   1.260   5.656   1.829 -0.1192  0.6782  0.2986
  139OSM   H13A15045   1.276   5.556   1.866  2.4520  0.7432 -0.4015
  139OSM   H13B15046   1.342   5.670   1.760 -0.7721 -0.3761 -0.7475
  139OSM   H13C15047   1.168   5.658   1.773 -0.9947  0.0446  1.6808
  139OSM    C1215048   1.162   5.740   2.042  0.5941  0.6638 -0.7443
  139OSM   H12A15049   1.077   5.766   1.981  1.6946  0.5076 -2.3851
  139OSM   H12B15050   1.168   5.812   2.122 -1.7727  0.3105 -0.1533
  139OSM    C1115051   1.154   5.599   2.106 -0.0806 -0.0660 -0.4827
  139OSM   H11A15052   1.115   5.611   2.209  0.0615  0.2489 -0.4651
  139OSM   H11B15053   1.255   5.563   2.136 -0.6596 -1.4155 -0.0768
  139OSM      P15054   0.950   5.546   1.939  0.1779 -0.3223  0.5840
  139OSM    O1315055   0.980   5.618   1.808 -0.5623  0.2856  0.6634
  139OSM    O1415056   0.847   5.440   1.937 -0.9110  0.6100  0.1276
  139OSM    O1115057   0.887   5.650   2.043 -0.6731 -0.1300  0.2757
  139OSM    O1215058   1.092   5.511   2.018  0.5825  0.2541  0.2458
  139OSM    C1S15059   0.808   5.600   2.147 -0.2601 -0.1370 -1.1689
  139OSM    H1S15060   0.849   5.507   2.192 -2.1131 -1.6338 -2.3784
  139OSM    H1T15061   0.710   5.573   2.102 -0.5909  1.4974 -1.4847
  139OSM     NF15062   0.758   5.660   2.396  0.3054  0.3793 -0.3177
  139OSM    HNF15063   0.667   5.686   2.427  0.0317  1.6518 -2.0035
  139OSM    C2S15064   0.798   5.708   2.262  0.0346  0.5428 -0.2620
  139OSM    H2S15065   0.903   5.744   2.270  0.8261 -1.7788  0.7357
  139OSM    C3S15066   0.715   5.826   2.212 -0.1154 -0.2049 -0.2391
  139OSM    H3S15067   0.609   5.795   2.196 -1.0582  1.6091  1.8369
  139OSM     O315068   0.756   5.880   2.084 -0.2749 -0.4274 -0.3118
  139OSM    HO315069   0.812   5.811   2.047 -0.3310 -0.2682 -0.7059
  139OSM    C4S15070   0.713   5.940   2.312 -0.0605 -0.0302  0.0845
  139OSM    H4S15071   0.815   5.975   2.334 -0.0201  0.6327 -1.0829
  139OSM    C5S15072   0.609   6.003   2.373  0.3191  0.4550 -0.0573
  139OSM    H5S15073   0.510   5.970   2.337  0.5353  0.8134 -1.0107
  139OSM    C6S15074   0.609   6.111   2.478 -0.6131 -0.4869 -0.2562
  139OSM    H6S15075   0.508   6.159   2.478 -0.9382 -1.0597  1.8185
  139OSM    H6T15076   0.686   6.184   2.447 -2.1313  1.6765  0.7722
  139OSM    C7S15077   0.645   6.053   2.616  0.2701 -0.8534 -0.3278
  139OSM    H7S15078   0.748   6.011   2.619 -0.6386 -3.2010 -0.2726
  139OSM    H7T15079   0.576   5.971   2.644  1.0123 -1.2723  0.3154
  139OSM    C8S15080   0.632   6.166   2.727 -0.6623 -0.2126  0.0473
  139OSM    H8S15081   0.525   6.195   2.731 -0.4052  0.7039  0.4986
  139OSM    H8T15082   0.682   6.259   2.693 -1.8907 -0.3264 -2.2497
  139OSM    C9S15083   0.679   6.121   2.866 -0.6044  0.5363 -0.1980
  139OSM    H9S15084   0.778   6.071   2.857 -1.2174 -0.6146 -0.7788
  139OSM    H9T15085   0.621   6.034   2.904  0.8903 -1.4182 -2.0994
  139OSM   C10S15086   0.673   6.226   2.963  0.1800  0.0749  0.1435
  139OSM   H10S15087   0.565   6.246   2.979  0.0830 -0.8000  0.6488
  139OSM   H10T15088   0.719   6.319   2.924 -1.1380  0.3866 -0.7332
  139OSM   C11S15089   0.738   6.192   3.100  0.6826  0.9445  0.0643
  139OSM   H11S15090   0.846   6.209   3.082  0.8511  1.7091  1.6082
  139OSM   H11T15091   0.719   6.085   3.124 -1.1636  1.3310  0.5411
  139OSM   C12S15092   0.689   6.268   3.220  0.5790 -0.3483 -0.9655
  139OSM   H12S15093   0.581   6.256   3.241  0.8406  0.9601  1.5373
  139OSM   H12T15094   0.696   6.378   3.203  1.3235 -0.5241 -1.8630
  139OSM   C13S15095   0.778   6.240   3.353  0.4558  0.1300  0.4274
  139OSM   H13S15096   0.713   6.281   3.434  2.3923  1.1642  1.5436
  139OSM   H13T15097   0.866   6.305   3.334 -0.1947  1.1584  0.8602
  139OSM   C14S15098   0.817   6.083   3.367  0.1683  0.0632  0.0591
  139OSM   H14S15099   0.868   6.040   3.279  2.3488  1.9521  0.2918
  139OSM   H14T15100   0.724   6.025   3.384  0.0700  0.7422  2.1218
  139OSM   C15S15101   0.906   6.049   3.487 -0.0928  0.3751 -0.2570
  139OSM   H15S15102   1.007   6.095   3.481  0.7272 -1.4028 -0.7451
  139OSM   H15T15103   0.925   5.940   3.473 -4.1885 -0.3690 -1.5108
  139OSM   C16S15104   0.848   6.084   3.627  0.3693  0.1418 -0.3761
  139OSM   H16S15105   0.738   6.102   3.630  0.2952 -0.4589  1.4148
  139OSM   H16T15106   0.878   6.186   3.661  1.8044  0.1142 -1.4727
  139OSM   C17S15107   0.867   5.973   3.724 -0.1240 -0.7608 -0.1580
  139OSM   H17S15108   0.966   5.923   3.714  0.8557  0.6510  1.6012
  139OSM   H17T15109   0.784   5.903   3.704 -1.4652  0.8797 -0.5479
  139OSM   C18S15110   0.836   6.030   3.863 -0.2653 -0.0929  0.7929
  139OSM   H18S15111   0.845   5.951   3.941  0.0789 -0.5238  0.3242
  139OSM   H18T15112   0.733   6.072   3.859 -0.2842 -0.1903 -2.7877
  139OSM   H18U15113   0.897   6.114   3.902 -2.2928  2.1503 -0.5940
  139OSM    C1F15114   0.844   5.585   2.462  0.9280 -0.5448 -0.0654
  139OSM     OF15115   0.960   5.589   2.424 -0.0271 -0.5186 -0.1429
  139OSM    C2F15116   0.801   5.517   2.590  0.4443 -0.9416 -0.6571
  139OSM    H2F15117   0.765   5.414   2.566 -1.6868 -0.6031  0.7769
  139OSM    H2G15118   0.711   5.571   2.627  0.9765 -0.4308 -0.0940
  139OSM    C3F15119   0.912   5.513   2.693 -0.4902 -0.0996  0.2718
  139OSM    H3F15120   0.944   5.618   2.709 -1.1697 -0.0812  1.6613
  139OSM    H3G15121   1.002   5.456   2.663 -0.6927 -0.1565 -0.2331
  139OSM    C4F15122   0.863   5.453   2.831  0.1013 -0.4481  0.7606
  139OSM    H4F15123   0.757   5.484   2.838 -0.3901 -1.4426 -1.3524
  139OSM    H4G15124   0.922   5.504   2.910 -0.7417  2.2032 -0.2031
  139OSM    C5F15125   0.871   5.305   2.860  1.0694 -0.4897 -0.3225
  139OSM    H5F15126   0.971   5.264   2.835  1.8343  0.7985  0.5407
  139OSM    H5G15127   0.798   5.254   2.794 -0.0353  1.3727 -0.6142
  139OSM    C6F15128   0.837   5.276   3.005 -0.0085  0.2775  0.1092
  139OSM    H6F15129   0.737   5.322   3.020 -0.5617 -0.8504 -0.0204
  139OSM    H6G15130   0.916   5.318   3.070  1.2687 -0.2314 -1.0732
  139OSM    C7F15131   0.813   5.125   3.049  0.0387  1.0366  0.1071
  139OSM    H7F15132   0.910   5.071   3.044 -1.1051 -1.0076 -3.1474
  139OSM    H7G15133   0.741   5.087   2.973 -2.9253 -0.4961  3.3941
  139OSM    C8F15134   0.743   5.099   3.179 -0.1619 -0.2594  0.4003
  139OSM    H8F15135   0.743   4.988   3.189  1.9813 -0.2094  1.4254
  139OSM    H8G15136   0.639   5.139   3.178  0.7455  2.3502  1.6230
  139OSM    C9F15137   0.819   5.152   3.299  0.5115 -0.4093 -0.1318
  139OSM    H9F15138   0.926   5.127   3.302  0.6529  0.2298  0.2068
  139OSM   C10F15139   0.762   5.225   3.406 -0.0100  0.4052 -0.2713
  139OSM   H10F15140   0.829   5.255   3.487 -0.8920 -1.8545  1.4176
  139OSM   C11F15141   0.622   5.268   3.425  0.5392  0.5015  0.0546
  139OSM   H11F15142   0.552   5.187   3.395  1.3403 -0.4404  0.6600
  139OSM   H11G15143   0.593   5.357   3.366 -3.2278  0.2646  1.2678
  139OSM   C12F15144   0.586   5.291   3.572 -1.2162  0.5177 -0.2656
  139OSM   H12F15145   0.653   5.371   3.609 -1.0114  0.2388 -0.0252
  139OSM   H12G15146   0.603   5.210   3.647 -0.5053  0.4683 -0.4767
  139OSM   C13F15147   0.452   5.360   3.585 -0.0537  0.1925  0.1232
  139OSM   H13F15148   0.382   5.282   3.548  1.0481 -1.3309  1.1455
  139OSM   H13G15149   0.441   5.456   3.530 -0.0983 -0.7011 -1.4839
  139OSM   C14F15150   0.415   5.380   3.733 -0.1923 -0.0480  0.2891
  139OSM   H14F15151   0.501   5.430   3.782 -1.2396  1.0744  1.0030
  139OSM   H14G15152   0.405   5.277   3.774 -0.2893 -0.3255 -0.4063
  139OSM   C15F15153   0.281   5.455   3.759 -0.1014  0.6867 -0.6108
  139OSM   H15F15154   0.205   5.381   3.728 -1.5190  1.0367  1.7921
  139OSM   H15G15155   0.287   5.546   3.696  1.6048  0.5281 -0.7296
  139OSM   C16F15156   0.259   5.499   3.904 -0.5279  0.0720  0.0361
  139OSM   H16F15157   0.342   5.564   3.940  1.2457 -1.9891 -0.1435
  139OSM   H16G15158   0.253   5.410   3.970  1.3985 -1.1029 -1.2862
  139OSM   C17F15159   0.133   5.580   3.925  0.4965  0.0623  0.5224
  139OSM   H17F15160   0.121   5.668   3.858 -0.1599 -0.6344 -0.2916
  139OSM   H17G15161   0.133   5.613   4.031  0.1057  0.2577  0.4658
  139OSM   C18F15162   0.019   5.483   3.904 -0.7139  0.1110 -0.5345
  139OSM   H18F15163  -0.073   5.525   3.951 -0.2532  0.2955  0.2178
  139OSM   H18G15164   0.031   5.388   3.959 -1.3226 -0.4938 -1.4216
  139OSM   H18H15165  -0.002   5.461   3.797 -1.9975 -0.4779 -0.1817
  140OSM      N15166   5.959   2.225   1.785 -0.1099  0.3746 -0.4617
  140OSM    C1515167   6.024   2.250   1.653  0.3481 -0.1246  0.5199
  140OSM   H15A15168   5.975   2.188   1.579  1.7385  0.4036 -0.8835
  140OSM   H15B15169   6.127   2.217   1.650  0.0720 -0.9408 -0.6155
  140OSM   H15C15170   6.025   2.356   1.636  0.2749  0.2594  2.5979
  140OSM    C1415171   6.037   2.295   1.892 -0.6809 -0.0778  0.1261
  140OSM   H14A15172   6.053   2.399   1.869  1.0990 -0.4133 -0.3292
  140OSM   H14B15173   6.133   2.244   1.897 -1.6011 -1.7704  2.3227
  140OSM   H14C15174   6.006   2.278   1.994 -0.3595 -0.7904  0.1145
  140OSM    C1315175   5.823   2.283   1.776 -0.9403 -0.6089  0.1268
  140OSM   H13A15176   5.784   2.266   1.676 -1.0004  0.1155  0.0249
  140OSM   H13B15177   5.826   2.390   1.790 -0.1697 -0.6119  0.0590
  140OSM   H13C15178   5.757   2.247   1.853  0.1288 -0.2354  1.2500
  140OSM    C1215179   5.960   2.082   1.825  0.5032  0.0216  0.1835
  140OSM   H12A15180   6.060   2.042   1.822  0.9817  0.6736  3.6630
  140OSM   H12B15181   5.901   2.020   1.759  0.2899  0.7636 -0.3337
  140OSM    C1115182   5.909   2.045   1.967 -0.3469  0.0407  0.7722
  140OSM   H11A15183   5.801   2.063   1.982 -0.3095  0.7076  0.2848
  140OSM   H11B15184   5.960   2.101   2.048  0.2148  0.9721 -0.2063
  140OSM      P15185   6.061   1.829   2.013 -0.2814  0.1814  0.3028
  140OSM    O1315186   6.039   1.686   1.992 -0.3886 -0.0505  0.2606
  140OSM    O1415187   6.174   1.888   1.943 -0.0822 -0.1055 -0.6899
  140OSM    O1115188   6.063   1.847   2.167  0.2934  0.0496  0.3867
  140OSM    O1215189   5.926   1.899   1.968 -0.7047 -0.7108  0.3291
  140OSM    C1S15190   6.096   1.968   2.241 -0.1673  0.6913 -0.4894
  140OSM    H1S15191   6.002   2.026   2.246 -0.4753  0.2280 -0.8840
  140OSM    H1T15192   6.169   2.028   2.183 -0.9862  0.6487 -1.5921
  140OSM     NF15193   6.161   2.053   2.470  0.0940 -0.6611 -0.6003
  140OSM    HNF15194   6.252   2.094   2.476  0.3753 -1.1624 -1.3402
  140OSM    C2S15195   6.148   1.938   2.393 -0.0449  0.6158 -0.1353
  140OSM    H2S15196   6.068   1.868   2.426  2.0689 -1.4629  0.8992
  140OSM    C3S15197   6.277   1.850   2.379  0.8655 -0.0326  0.6414
  140OSM    H3S15198   6.361   1.904   2.331  0.2436  1.6008  1.3005
  140OSM     O315199   6.264   1.734   2.295 -0.2512  0.3118 -0.4248
  140OSM    HO315200   6.183   1.747   2.245  0.3975 -1.0210 -1.9016
  140OSM    C4S15201   6.328   1.820   2.515  0.2324  0.0526 -0.5635
  140OSM    H4S15202   6.383   1.899   2.568  0.0534 -0.5899  0.6188
  140OSM    C5S15203   6.301   1.706   2.592 -0.6258  0.2604 -0.2818
  140OSM    H5S15204   6.248   1.622   2.545 -1.2746  1.0271 -0.9838
  140OSM    C6S15205   6.348   1.684   2.733  0.2752  0.2913  0.1596
  140OSM    H6S15206   6.432   1.614   2.714  0.0776  0.3415 -0.9324
  140OSM    H6T15207   6.260   1.653   2.794  2.5193 -2.9625  2.0438
  140OSM    C7S15208   6.408   1.809   2.802  0.1712  0.0690 -0.2516
  140OSM    H7S15209   6.491   1.848   2.739  1.2234 -1.7654 -0.0480
  140OSM    H7T15210   6.460   1.774   2.894 -0.8205  2.4972  1.3627
  140OSM    C8S15211   6.302   1.909   2.855 -0.3514 -0.2139  0.5358
  140OSM    H8S15212   6.230   1.844   2.908  0.1637 -0.3343  1.0981
  140OSM    H8T15213   6.256   1.965   2.770  1.8347 -0.6863 -1.0520
  140OSM    C9S15214   6.359   2.010   2.959  0.4939  0.0432 -0.4759
  140OSM    H9S15215   6.279   2.087   2.964  1.5919  1.2520 -0.8900
  140OSM    H9T15216   6.455   2.056   2.928  0.2823  0.3194 -0.7248
  140OSM   C10S15217   6.386   1.956   3.101  0.1878 -0.0805 -0.8734
  140OSM   H10S15218   6.479   1.896   3.108  1.1568  1.2231 -1.9670
  140OSM   H10T15219   6.308   1.885   3.137  1.6738 -1.0679  0.5674
  140OSM   C11S15220   6.391   2.063   3.205 -0.6167  0.2844  0.2876
  140OSM   H11S15221   6.310   2.139   3.200  0.9231  2.0964  1.5161
  140OSM   H11T15222   6.479   2.129   3.192 -0.2355  0.2181  2.2104
  140OSM   C12S15223   6.400   1.999   3.345  0.1256 -0.5229 -0.4898
  140OSM   H12S15224   6.485   1.927   3.345  0.7997  0.2549 -0.2122
  140OSM   H12T15225   6.304   1.944   3.355 -1.2134  1.7273 -0.4234
  140OSM   C13S15226   6.431   2.096   3.459 -0.0947 -0.4413  0.5496
  140OSM   H13S15227   6.334   2.148   3.475 -0.9638 -2.1809  1.1499
  140OSM   H13T15228   6.504   2.174   3.429 -0.3984 -1.2158 -2.5329
  140OSM   C14S15229   6.481   2.036   3.594 -0.1297  0.5302  0.4084
  140OSM   H14S15230   6.585   1.999   3.589 -0.4766 -0.5239  0.6699
  140OSM   H14T15231   6.426   1.944   3.623  2.0153 -1.0519 -0.3397
  140OSM   C15S15232   6.469   2.143   3.702  0.5815 -0.3114 -0.3225
  140OSM   H15S15233   6.360   2.157   3.717  0.7891 -0.5949  1.8158
  140OSM   H15T15234   6.510   2.243   3.677 -0.6949  0.6900  1.3430
  140OSM   C16S15235   6.520   2.101   3.835 -0.6707  0.3924 -0.1472
  140OSM   H16S15236   6.630   2.103   3.818 -0.6121  0.3230  0.2075
  140OSM   H16T15237   6.489   1.996   3.850  2.8074 -0.6087  1.0927
  140OSM   C17S15238   6.477   2.195   3.945  0.3776  0.7202  0.0571
  140OSM   H17S15239   6.367   2.192   3.933  0.4576  0.1844 -0.6568
  140OSM   H17T15240   6.517   2.297   3.931  1.6570  0.4027  1.1504
  140OSM   C18S15241   6.520   2.146   4.083  0.1080 -0.1688  0.5103
  140OSM   H18S15242   6.455   2.200   4.156 -0.2771 -0.1822  0.1828
  140OSM   H18T15243   6.629   2.156   4.103  0.6094  0.9264 -2.3222
  140OSM   H18U15244   6.493   2.039   4.093  1.6410 -0.7734 -1.1681
  140OSM    C1F15245   6.059   2.134   2.502 -0.3616  0.2277 -0.2079
  140OSM     OF15246   5.944   2.097   2.495  0.3276  0.5711 -0.3392
  140OSM    C2F15247   6.098   2.281   2.547  0.5423 -0.2336  0.2897
  140OSM    H2F15248   6.055   2.352   2.473 -0.0458  1.7347  2.3971
  140OSM    H2G15249   6.209   2.284   2.547  0.5535 -0.6132  0.0555
  140OSM    C3F15250   6.033   2.325   2.677 -0.0871  0.4089 -0.0632
  140OSM    H3F15251   5.927   2.293   2.688 -0.5134  2.0665  1.1810
  140OSM    H3G15252   6.029   2.435   2.663  0.9155  0.9143  2.9011
  140OSM    C4F15253   6.111   2.294   2.800  0.2157  0.4160  0.2117
  140OSM    H4F15254   6.213   2.336   2.787  0.4080 -0.2618 -0.5675
  140OSM    H4G15255   6.111   2.183   2.803 -1.1196  0.4086  0.4106
  140OSM    C5F15256   6.050   2.349   2.930 -0.4253  0.3412 -0.1576
  140OSM    H5F15257   5.944   2.323   2.946  0.1402  0.1480  4.6543
  140OSM    H5G15258   6.055   2.459   2.915 -0.3124  0.1908 -1.3549
  140OSM    C6F15259   6.126   2.306   3.061 -1.3905  0.3859  0.1831
  140OSM    H6F15260   6.236   2.310   3.052 -0.8082 -1.6879  4.1856
  140OSM    H6G15261   6.105   2.199   3.078 -0.3290  0.0068 -0.7551
  140OSM    C7F15262   6.084   2.402   3.182  0.1567  0.4387  0.2189
  140OSM    H7F15263   5.975   2.408   3.162  0.1191  1.7025  0.7107
  140OSM    H7G15264   6.122   2.505   3.162  1.2554 -0.2881 -1.8251
  140OSM    C8F15265   6.117   2.336   3.318  0.2219  0.3390 -0.6580
  140OSM    H8F15266   6.228   2.338   3.326  0.3254 -0.6170 -1.6269
  140OSM    H8G15267   6.080   2.232   3.326 -1.0460  0.7399 -1.0147
  140OSM    C9F15268   6.042   2.416   3.418 -0.4005  0.3677  0.3072
  140OSM    H9F15269   5.942   2.450   3.387 -0.3848  1.0775  1.0035
  140OSM   C10F15270   6.091   2.439   3.546 -0.0018 -0.3506 -0.2973
  140OSM   H10F15271   6.013   2.477   3.614  1.2271 -0.7853  1.4253
  140OSM   C11F15272   6.228   2.398   3.595  0.5558  1.0428 -0.0748
  140OSM   H11F15273   6.297   2.401   3.508 -2.3497 -1.3935 -2.6927
  140OSM   H11G15274   6.228   2.295   3.635  0.0816  0.5421 -1.3323
  140OSM   C12F15275   6.276   2.484   3.714 -0.1820 -0.1613  0.2343
  140OSM   H12F15276   6.275   2.591   3.685 -0.5797  0.2307  1.6409
  140OSM   H12G15277   6.382   2.450   3.716  0.2447  1.1212  0.1359
  140OSM   C13F15278   6.212   2.449   3.852  0.1806 -0.7403  0.7902
  140OSM   H13F15279   6.253   2.350   3.884 -0.3429 -0.5600  2.0665
  140OSM   H13G15280   6.103   2.439   3.835  0.4168 -0.6678 -1.0036
  140OSM   C14F15281   6.247   2.559   3.958  0.0536  0.3000 -0.0925
  140OSM   H14F15282   6.226   2.663   3.922 -0.3312  0.7005  1.2346
  140OSM   H14G15283   6.358   2.560   3.957  0.0646 -0.2709  0.2252
  140OSM   C15F15284   6.174   2.547   4.095 -0.1516  0.1486 -0.2813
  140OSM   H15F15285   6.065   2.532   4.079 -0.2518 -0.0301  0.5475
  140OSM   H15G15286   6.182   2.644   4.149  0.4453  0.0172 -0.1238
  140OSM   C16F15287   6.228   2.419   4.173 -0.2027  0.2189 -0.0992
  140OSM   H16F15288   6.326   2.459   4.207 -1.0613  0.1784  2.7090
  140OSM   H16G15289   6.228   2.324   4.116 -2.5721 -0.2140  0.5307
  140OSM   C17F15290   6.157   2.376   4.305  0.6587 -0.5713 -0.1807
  140OSM   H17F15291   6.057   2.333   4.285  0.6479  0.1155 -1.7451
  140OSM   H17G15292   6.141   2.460   4.376  1.3585 -0.9779  0.4715
  140OSM   C18F15293   6.235   2.276   4.395  0.3703  0.2136 -0.3380
  140OSM   H18F15294   6.253   2.171   4.364  1.9425  0.5116 -0.5268
  140OSM   H18G15295   6.186   2.275   4.495  0.2957  4.9515 -0.1343
  140OSM   H18H15296   6.335   2.323   4.401 -0.3909  2.0205 -1.1231
  141OSM      N15297   2.639   6.073   1.667  0.2792 -0.1669  0.0983
  141OSM    C1515298   2.572   6.166   1.568  0.5706  0.5113 -0.0812
  141OSM   H15A15299   2.649   6.185   1.494  2.5217 -2.1052  1.1100
  141OSM   H15B15300   2.544   6.263   1.607  2.3026  0.7674  0.6091
  141OSM   H15C15301   2.489   6.126   1.512  1.5420 -1.1170 -0.4428
  141OSM    C1415302   2.663   5.943   1.605 -0.0822  0.5800  0.5091
  141OSM   H14A15303   2.576   5.886   1.576  1.3789 -0.9339 -1.1198
  141OSM   H14B15304   2.738   5.888   1.660  0.4409  0.0590 -0.6944
  141OSM   H14C15305   2.705   5.949   1.506 -0.0256 -3.2867  0.1324
  141OSM    C1315306   2.773   6.144   1.683 -0.5447  0.1312  0.2458
  141OSM   H13A15307   2.826   6.136   1.589  0.1005  0.8913  0.5392
  141OSM   H13B15308   2.826   6.090   1.761 -1.7120 -0.9532  0.3208
  141OSM   H13C15309   2.770   6.251   1.698  0.1791  0.2653 -0.5086
  141OSM    C1215310   2.553   6.055   1.799  0.7650 -0.4921  0.3067
  141OSM   H12A15311   2.536   6.151   1.845 -3.0935 -0.3847 -0.9597
  141OSM   H12B15312   2.604   5.990   1.868 -0.4867 -0.9487  0.8368
  141OSM    C1115313   2.414   5.984   1.778  0.3774 -0.8726  0.1429
  141OSM   H11A15314   2.363   5.950   1.871 -3.2705 -1.4578 -1.9011
  141OSM   H11B15315   2.425   5.893   1.715  1.3010 -0.6022 -0.0976
  141OSM      P15316   2.268   6.204   1.798 -0.0818  0.3921 -0.2057
  141OSM    O1315317   2.379   6.297   1.820 -0.1729  0.1071  0.3140
  141OSM    O1415318   2.139   6.258   1.740  0.1859 -0.3208 -0.4130
  141OSM    O1115319   2.237   6.128   1.934  0.8900 -0.5182  0.1212
  141OSM    O1215320   2.325   6.075   1.716  0.0439 -0.1100  0.1938
  141OSM    C1S15321   2.205   6.193   2.057 -1.1330  0.3505  0.6419
  141OSM    H1S15322   2.159   6.290   2.030 -1.0834 -0.0529 -1.0509
  141OSM    H1T15323   2.296   6.220   2.114 -0.0772 -0.1583 -0.7285
  141OSM     NF15324   2.133   6.181   2.297 -0.3900  0.7702  0.5528
  141OSM    HNF15325   2.195   6.132   2.358  0.7952 -0.5740 -1.5845
  141OSM    C2S15326   2.119   6.111   2.160  0.0833  0.8841  0.2463
  141OSM    H2S15327   2.013   6.123   2.130 -0.0940 -0.4013  0.3349
  141OSM    C3S15328   2.157   5.962   2.160  0.1291  1.1405  0.3427
  141OSM    H3S15329   2.266   5.956   2.176  0.2694  0.1565 -0.8322
  141OSM     O315330   2.139   5.901   2.030  0.1563  0.1461  0.8106
  141OSM    HO315331   2.143   5.977   1.972 -0.2061 -1.6559 -1.7274
  141OSM    C4S15332   2.075   5.887   2.265 -0.2644 -0.1075  0.7940
  141OSM    H4S15333   2.130   5.870   2.359  2.0828  2.3738  0.0018
  141OSM    C5S15334   1.948   5.841   2.251  0.0105 -0.1726  0.0221
  141OSM    H5S15335   1.889   5.877   2.165 -2.4256 -1.7602  0.9327
  141OSM    C6S15336   1.875   5.763   2.360  0.3876 -0.0783 -0.0061
  141OSM    H6S15337   1.946   5.702   2.419 -1.5600 -2.9253 -0.4265
  141OSM    H6T15338   1.798   5.692   2.322  1.2034 -0.6719 -0.5674
  141OSM    C7S15339   1.792   5.855   2.458 -0.0893 -0.0364  0.6164
  141OSM    H7S15340   1.694   5.898   2.427  0.4442  1.8890  1.4962
  141OSM    H7T15341   1.847   5.950   2.475 -0.5904  0.8839 -2.3594
  141OSM    C8S15342   1.755   5.782   2.586  0.4335 -0.0294  0.5244
  141OSM    H8S15343   1.855   5.762   2.629  0.5601  1.2787  0.8811
  141OSM    H8T15344   1.706   5.687   2.558 -0.2350  0.2205  0.8234
  141OSM    C9S15345   1.666   5.860   2.689 -0.0523 -0.0911  0.4365
  141OSM    H9S15346   1.559   5.839   2.664  0.3716 -0.6781 -0.9553
  141OSM    H9T15347   1.687   5.969   2.689 -1.2643  0.1618  0.3458
  141OSM   C10S15348   1.695   5.806   2.829  0.2562 -1.3497 -0.5711
  141OSM   H10S15349   1.801   5.809   2.861  0.2908 -1.1093 -0.7041
  141OSM   H10T15350   1.668   5.699   2.826  0.0248 -1.4116  1.6504
  141OSM   C11S15351   1.600   5.866   2.939  1.0441  0.0529 -0.4218
  141OSM   H11S15352   1.508   5.893   2.881 -0.2355  0.7248  1.8102
  141OSM   H11T15353   1.638   5.964   2.973 -1.7430  1.2150 -0.4153
  141OSM   C12S15354   1.560   5.766   3.055  0.2355 -0.9197 -0.5260
  141OSM   H12S15355   1.520   5.673   3.009  1.8600 -1.1449 -1.5457
  141OSM   H12T15356   1.481   5.814   3.116  0.5794  0.1514 -0.9013
  141OSM   C13S15357   1.674   5.726   3.151 -0.5615 -0.2560  0.5662
  141OSM   H13S15358   1.730   5.814   3.190 -1.0981  1.1696 -1.7142
  141OSM   H13T15359   1.748   5.663   3.097 -1.9066 -1.2260 -0.2032
  141OSM   C14S15360   1.630   5.640   3.265  0.0617  0.1217 -0.0143
  141OSM   H14S15361   1.581   5.549   3.224  0.7517  0.4836 -1.7096
  141OSM   H14T15362   1.554   5.688   3.331 -2.8087  0.5295 -3.2758
  141OSM   C15S15363   1.756   5.599   3.348 -0.8953  0.4781  0.5504
  141OSM   H15S15364   1.826   5.683   3.371 -1.0667  0.4983  1.0051
  141OSM   H15T15365   1.813   5.533   3.278 -0.8522  1.7916 -0.7234
  141OSM   C16S15366   1.727   5.517   3.475  0.0796 -0.6101 -0.2884
  141OSM   H16S15367   1.823   5.479   3.517  0.0274  0.8044  1.2342
  141OSM   H16T15368   1.662   5.428   3.457 -2.6865  1.1828  0.1651
  141OSM   C17S15369   1.660   5.599   3.591 -0.1458 -0.1690  0.3196
  141OSM   H17S15370   1.561   5.637   3.556  0.0200  0.4444  0.4947
  141OSM   H17T15371   1.708   5.697   3.612 -1.2495  0.2674  0.9073
  141OSM   C18S15372   1.651   5.525   3.718 -0.3996  0.5020 -0.3712
  141OSM   H18S15373   1.594   5.430   3.726  0.2337  0.1389 -0.1366
  141OSM   H18T15374   1.602   5.593   3.792 -0.8353  0.1018 -0.2906
  141OSM   H18U15375   1.749   5.499   3.763 -0.1841 -0.8187 -1.5440
  141OSM    C1F15376   2.088   6.303   2.324  0.3047  0.1969 -0.7601
  141OSM     OF15377   2.022   6.361   2.239 -0.1212  0.0278  0.2864
  141OSM    C2F15378   2.123   6.373   2.457 -0.5963 -0.1875 -0.2353
  141OSM    H2F15379   2.141   6.480   2.434 -0.4915 -0.2263 -0.3338
  141OSM    H2G15380   2.217   6.334   2.503 -0.2927  0.6929 -0.0964
  141OSM    C3F15381   2.005   6.373   2.553  0.1635  0.1857 -0.4609
  141OSM    H3F15382   1.922   6.412   2.490  0.9529  1.1848 -0.8999
  141OSM    H3G15383   2.008   6.448   2.635 -2.0035  0.1542 -0.2933
  141OSM    C4F15384   1.947   6.238   2.605  0.4168 -0.4878  0.4301
  141OSM    H4F15385   1.918   6.176   2.517 -1.5395  2.4719 -1.1512
  141OSM    H4G15386   1.851   6.253   2.658 -1.1676 -1.7103 -1.9170
  141OSM    C5F15387   2.050   6.168   2.691 -1.2905  0.4598 -0.7529
  141OSM    H5F15388   2.143   6.147   2.633 -0.1962  1.5825  0.5103
  141OSM    H5G15389   2.031   6.061   2.714  4.1233 -0.9469 -1.2538
  141OSM    C6F15390   2.095   6.234   2.824 -1.0600 -0.2636  0.2430
  141OSM    H6F15391   2.005   6.244   2.889 -1.3457 -0.5839 -0.0954
  141OSM    H6G15392   2.145   6.332   2.809  0.0342 -0.8166  0.1920
  141OSM    C7F15393   2.208   6.168   2.902 -1.3569 -0.0614 -0.2878
  141OSM    H7F15394   2.296   6.174   2.835  0.2047 -3.0888  1.2854
  141OSM    H7G15395   2.185   6.060   2.919 -1.5381 -0.0362 -0.3655
  141OSM    C8F15396   2.235   6.250   3.030 -0.5334 -0.4174  0.1546
  141OSM    H8F15397   2.146   6.300   3.072  0.2759  1.8613 -0.6721
  141OSM    H8G15398   2.287   6.343   2.998 -0.1652 -0.7096 -0.1076
  141OSM    C9F15399   2.304   6.159   3.132  0.5497  0.6214  0.9009
  141OSM    H9F15400   2.348   6.071   3.083 -0.1978  1.4740 -1.4564
  141OSM   C10F15401   2.318   6.179   3.264 -1.1232 -0.3055  0.5268
  141OSM   H10F15402   2.373   6.103   3.322 -1.1896 -1.0916 -0.4115
  141OSM   C11F15403   2.282   6.305   3.344  0.2910  0.3209  0.2385
  141OSM   H11F15404   2.186   6.351   3.310  0.2188 -1.2896 -1.9148
  141OSM   H11G15405   2.356   6.385   3.322 -0.1198  0.6524  0.0434
  141OSM   C12F15406   2.276   6.260   3.493 -0.0852 -0.4364  0.1840
  141OSM   H12F15407   2.379   6.242   3.530  1.3758  0.2141 -3.2411
  141OSM   H12G15408   2.231   6.159   3.492 -1.1218 -0.0114  1.1314
  141OSM   C13F15409   2.216   6.355   3.595  0.0107  0.5414 -0.3873
  141OSM   H13F15410   2.107   6.375   3.586 -0.0132 -0.2749 -2.5124
  141OSM   H13G15411   2.254   6.457   3.576 -1.0135  0.7355 -1.4683
  141OSM   C14F15412   2.238   6.330   3.747 -0.0030  0.4427  0.2012
  141OSM   H14F15413   2.343   6.308   3.775 -0.3042  0.8615  1.7234
  141OSM   H14G15414   2.176   6.244   3.779  0.3722  0.3122  0.5845
  141OSM   C15F15415   2.175   6.442   3.840  0.1482  0.2381 -0.1750
  141OSM   H15F15416   2.064   6.433   3.832  0.0736  0.2949  0.7043
  141OSM   H15G15417   2.200   6.545   3.806 -0.7771  1.3724  2.3216
  141OSM   C16F15418   2.213   6.426   3.988 -0.3785 -0.1993  0.4659
  141OSM   H16F15419   2.314   6.468   4.001 -0.7235  0.2586  1.8115
  141OSM   H16G15420   2.213   6.320   4.021 -2.3171 -0.1912  0.6557
  141OSM   C17F15421   2.122   6.504   4.092 -0.5744  0.3444  0.3181
  141OSM   H17F15422   2.028   6.448   4.075 -0.9016  1.1376 -0.5771
  141OSM   H17G15423   2.120   6.609   4.057 -3.7494  0.6178  1.0250
  141OSM   C18F15424   2.172   6.500   4.235  0.6901 -0.0796  0.0176
  141OSM   H18F15425   2.255   6.569   4.259 -1.4057  2.4289  0.5044
  141OSM   H18G15426   2.203   6.396   4.257  0.0296 -0.4234 -0.6142
  141OSM   H18H15427   2.094   6.519   4.311  1.4803 -3.3764  1.8549
  142OSM      N15428   2.507   0.717   2.301  0.5544 -0.6164 -0.5931
  142OSM    C1515429   2.475   0.592   2.232  0.0296  0.4634  0.3365
  142OSM   H15A15430   2.368   0.576   2.239  0.0759  0.3941  0.9646
  142OSM   H15B15431   2.519   0.503   2.275  1.0685  0.8982  0.1997
  142OSM   H15C15432   2.499   0.571   2.129 -0.2576 -0.2496  0.4084
  142OSM    C1415433   2.436   0.716   2.444  0.2811  0.2104  0.1921
  142OSM   H14A15434   2.476   0.633   2.500  0.1961  1.0547  1.5411
  142OSM   H14B15435   2.330   0.707   2.429  0.3835 -0.4320 -0.1814
  142OSM   H14C15436   2.468   0.808   2.491 -0.1895  0.9501 -0.8832
  142OSM    C1315437   2.652   0.692   2.326  0.0005 -0.1719 -0.1366
  142OSM   H13A15438   2.655   0.605   2.391  0.8862 -0.3869 -0.4587
  142OSM   H13B15439   2.694   0.780   2.372  0.8116  0.4480 -2.0131
  142OSM   H13C15440   2.704   0.663   2.237 -0.6251  0.5249 -0.7434
  142OSM    C1215441   2.483   0.842   2.217 -0.4587  0.8301 -0.1831
  142OSM   H12A15442   2.385   0.839   2.171 -1.6872 -2.4698  2.2825
  142OSM   H12B15443   2.545   0.840   2.129 -0.1108 -2.6209  0.0240
  142OSM    C1115444   2.493   0.973   2.281 -0.3436  0.0579 -0.2005
  142OSM   H11A15445   2.416   0.987   2.359  1.3258 -0.3473  1.5828
  142OSM   H11B15446   2.469   1.046   2.201  1.0816 -0.0922 -0.8051
  142OSM      P15447   2.749   1.041   2.279  0.0688 -0.0767 -0.0149
  142OSM    O1315448   2.859   0.962   2.336  0.2535 -0.3725 -0.3029
  142OSM    O1415449   2.738   1.050   2.131  0.4307 -0.0310 -0.0786
  142OSM    O1115450   2.760   1.186   2.332  0.4329 -0.4904 -0.0938
  142OSM    O1215451   2.615   0.994   2.346 -0.6107  0.9258  0.3177
  142OSM    C1S15452   2.759   1.225   2.468  0.0284 -0.3789  0.1589
  142OSM    H1S15453   2.770   1.136   2.533 -1.1874 -0.6740 -0.0104
  142OSM    H1T15454   2.657   1.265   2.487  0.7264  1.1867  0.7847
  142OSM     NF15455   2.865   1.342   2.653 -0.3386 -0.6862  0.0502
  142OSM    HNF15456   2.805   1.417   2.680 -0.5242 -1.5583  2.2849
  142OSM    C2S15457   2.880   1.318   2.506 -0.1287 -0.0992 -0.9834
  142OSM    H2S15458   2.974   1.261   2.490 -0.0658  0.5040 -3.0029
  142OSM    C3S15459   2.881   1.445   2.417  0.6902 -0.1402 -0.2502
  142OSM    H3S15460   2.777   1.485   2.414  0.3762 -0.9323 -0.2547
  142OSM     O315461   2.916   1.411   2.285  1.0013 -0.8001 -0.1499
  142OSM    HO315462   2.888   1.320   2.276 -1.4142 -0.0176 -1.6384
  142OSM    C4S15463   2.969   1.552   2.465 -0.1333 -0.3769 -1.0285
  142OSM    H4S15464   3.073   1.527   2.440  0.8540  3.1059 -0.9162
  142OSM    C5S15465   2.941   1.682   2.501 -0.2632 -0.3545 -0.3570
  142OSM    H5S15466   2.848   1.740   2.494  0.1639  0.4835  0.5917
  142OSM    C6S15467   3.060   1.773   2.533 -0.8015 -0.7767 -0.3038
  142OSM    H6S15468   3.054   1.857   2.461 -0.0059 -0.2122  0.2654
  142OSM    H6T15469   3.153   1.714   2.518 -0.3497 -0.4463  1.0103
  142OSM    C7S15470   3.052   1.825   2.672  0.5032  0.0223  0.7976
  142OSM    H7S15471   3.069   1.740   2.742  0.8082 -2.1123 -1.6999
  142OSM    H7T15472   2.957   1.877   2.695 -0.3777 -0.9314 -0.5400
  142OSM    C8S15473   3.169   1.907   2.723  0.0428 -0.9497  1.1003
  142OSM    H8S15474   3.199   1.990   2.655  1.6879 -1.0162  1.7043
  142OSM    H8T15475   3.255   1.838   2.731  2.0254  1.3494  0.7939
  142OSM    C9S15476   3.143   1.972   2.860  0.3274 -0.0383 -0.3606
  142OSM    H9S15477   3.037   2.005   2.857 -0.1926 -1.6760 -1.6378
  142OSM    H9T15478   3.208   2.059   2.880 -0.1590  0.4415 -0.8248
  142OSM   C10S15479   3.154   1.868   2.973 -0.3294  0.2578 -0.5241
  142OSM   H10S15480   3.248   1.809   2.961  1.3825  2.7383 -0.1190
  142OSM   H10T15481   3.064   1.804   2.969  0.7525 -1.3311 -0.3301
  142OSM   C11S15482   3.168   1.931   3.115 -0.3892 -0.3816  0.3473
  142OSM   H11S15483   3.103   2.020   3.122 -1.9976 -1.4729  0.0029
  142OSM   H11T15484   3.275   1.960   3.115 -0.3929 -0.3671  0.1711
  142OSM   C12S15485   3.148   1.821   3.225  0.3766  0.0727  0.1780
  142OSM   H12S15486   3.231   1.748   3.226 -0.9208 -1.4686  0.7945
  142OSM   H12T15487   3.062   1.764   3.184  0.5412  1.2638 -1.9937
  142OSM   C13S15488   3.126   1.882   3.362 -0.4324  0.7842  0.5037
  142OSM   H13S15489   3.025   1.926   3.377 -1.2788 -1.2850  1.1281
  142OSM   H13T15490   3.193   1.970   3.378 -1.6188  2.1917 -1.7231
  142OSM   C14S15491   3.153   1.769   3.469 -0.1673 -0.2621  0.7285
  142OSM   H14S15492   3.258   1.734   3.467  0.3130  1.1250  0.5595
  142OSM   H14T15493   3.085   1.684   3.446 -0.9164  0.1692  1.2973
  142OSM   C15S15494   3.125   1.805   3.614 -0.4282  0.0691  0.8298
  142OSM   H15S15495   3.024   1.849   3.628 -0.4930  1.2920 -2.4644
  142OSM   H15T15496   3.200   1.886   3.622 -0.6231  0.6260 -1.8654
  142OSM   C16S15497   3.151   1.679   3.707 -0.1128 -0.0574 -0.2882
  142OSM   H16S15498   3.239   1.623   3.669  0.5911  2.0617 -2.0120
  142OSM   H16T15499   3.060   1.615   3.711 -1.1027  1.2840  3.8596
  142OSM   C17S15500   3.188   1.719   3.853 -0.7176  0.0935  1.2003
  142OSM   H17S15501   3.115   1.801   3.870  0.7889  1.4800  1.1951
  142OSM   H17T15502   3.291   1.753   3.874  0.2578 -1.7245 -0.3321
  142OSM   C18S15503   3.158   1.603   3.945 -0.2815 -0.0211  0.4157
  142OSM   H18S15504   3.157   1.644   4.048  0.0572  1.6961 -0.2400
  142OSM   H18T15505   3.252   1.544   3.935  1.1703  2.3354 -0.9397
  142OSM   H18U15506   3.069   1.543   3.915  0.1138 -0.0233 -0.8407
  142OSM    C1F15507   2.897   1.246   2.744 -0.2001  0.5010 -0.1117
  142OSM     OF15508   2.992   1.169   2.720 -0.0927  0.5733  0.0004
  142OSM    C2F15509   2.832   1.242   2.881  1.1388 -0.1822  0.9007
  142OSM    H2F15510   2.741   1.305   2.876  1.7917  0.8435  1.5444
  142OSM    H2G15511   2.900   1.283   2.959  0.9678  0.9867  0.4503
  142OSM    C3F15512   2.795   1.093   2.912  0.2254  0.1942  0.0273
  142OSM    H3F15513   2.871   1.018   2.881 -0.0492 -0.3833  0.7182
  142OSM    H3G15514   2.711   1.063   2.845  1.0714 -2.6120  0.1076
  142OSM    C4F15515   2.747   1.071   3.062 -0.0177  0.2995  0.3516
  142OSM    H4F15516   2.677   0.985   3.064  0.8668 -0.4138  2.6990
  142OSM    H4G15517   2.698   1.164   3.098 -1.7980  0.1652 -1.4946
  142OSM    C5F15518   2.862   1.043   3.160 -0.1023  0.2486 -0.4706
  142OSM    H5F15519   2.934   1.126   3.164 -1.7032  1.7994 -2.1006
  142OSM    H5G15520   2.933   0.967   3.121  1.0520  1.1402 -0.1330
  142OSM    C6F15521   2.821   1.015   3.306 -0.0281  0.1495 -0.6172
  142OSM    H6F15522   2.786   0.913   3.331 -1.5776  0.6773 -0.5020
  142OSM    H6G15523   2.733   1.078   3.332  0.3304  0.0230  0.9717
  142OSM    C7F15524   2.918   1.077   3.409  0.6990  0.7596 -0.3202
  142OSM    H7F15525   2.913   1.186   3.390 -1.3196  0.3786 -2.3425
  142OSM    H7G15526   3.020   1.040   3.382 -0.1913 -2.3477  0.1386
  142OSM    C8F15527   2.872   1.037   3.553  0.5085 -0.1582  0.0063
  142OSM    H8F15528   2.836   0.933   3.536 -1.2369  0.0315  2.1141
  142OSM    H8G15529   2.787   1.100   3.587  1.8467 -0.3056  4.2348
  142OSM    C9F15530   2.984   1.029   3.653  0.0469  0.9313  0.0113
  142OSM    H9F15531   3.064   1.103   3.639  0.2557  0.9587  1.2351
  142OSM   C10F15532   2.994   0.945   3.755  0.5750  0.6209  0.6916
  142OSM   H10F15533   3.082   0.957   3.820 -0.1678 -0.4483  1.9327
  142OSM   C11F15534   2.896   0.831   3.784 -0.0946 -0.4062 -0.7108
  142OSM   H11F15535   2.941   0.732   3.762 -2.2151 -1.1248 -2.0895
  142OSM   H11G15536   2.805   0.853   3.724 -0.9050  0.2922  0.7270
  142OSM   C12F15537   2.842   0.833   3.930  0.8928 -0.2187  0.5063
  142OSM   H12F15538   2.751   0.769   3.922  0.2700  0.8909 -4.2711
  142OSM   H12G15539   2.811   0.935   3.962 -0.8898 -0.8287  0.8331
  142OSM   C13F15540   2.930   0.776   4.032 -0.4167  0.4992 -0.7068
  142OSM   H13F15541   2.996   0.857   4.069 -0.2730 -0.4932  1.3755
  142OSM   H13G15542   3.007   0.712   3.983  1.1090  1.9775 -0.3178
  142OSM   C14F15543   2.860   0.686   4.134  0.2240  0.2690 -0.6551
  142OSM   H14F15544   2.936   0.655   4.209  1.2354 -1.2719 -2.2359
  142OSM   H14G15545   2.806   0.596   4.096  1.6912 -1.1296  0.4220
  142OSM   C15F15546   2.756   0.767   4.208  0.4219  0.6879  0.4300
  142OSM   H15F15547   2.673   0.792   4.138 -0.6539 -1.0595  1.0224
  142OSM   H15G15548   2.799   0.861   4.250  1.0022  0.8878 -0.5672
  142OSM   C16F15549   2.687   0.673   4.314 -0.4137  0.0776 -0.2625
  142OSM   H16F15550   2.757   0.636   4.392 -1.2130 -0.4088  0.2329
  142OSM   H16G15551   2.652   0.585   4.255  0.7331  0.3791 -1.4684
  142OSM   C17F15552   2.575   0.747   4.382 -0.2672 -0.2004 -0.4929
  142OSM   H17F15553   2.515   0.684   4.451 -0.6343  1.5685  0.8778
  142OSM   H17G15554   2.506   0.781   4.301 -0.4632  0.9334  0.1361
  142OSM   C18F15555   2.617   0.870   4.460  0.2621 -1.2739  0.1806
  142OSM   H18F15556   2.527   0.934   4.473  0.7605 -0.4519 -0.3411
  142OSM   H18G15557   2.688   0.941   4.414 -0.8338 -1.8902 -2.6411
  142OSM   H18H15558   2.650   0.840   4.562 -2.0995 -1.7623  0.8606
  143OSM      N15559   2.100   2.279   1.664  0.1472  0.1634  0.3838
  143OSM    C1515560   2.031   2.415   1.671 -0.7594  0.8195  0.0699
  143OSM   H15A15561   2.006   2.442   1.773  0.0487  0.2422  0.4373
  143OSM   H15B15562   1.947   2.425   1.604  1.2354  1.9231 -2.4733
  143OSM   H15C15563   2.097   2.494   1.638  0.8765  0.5739  2.4851
  143OSM    C1415564   1.997   2.179   1.697  0.3230  0.2858 -0.4385
  143OSM   H14A15565   2.039   2.080   1.684 -1.2586 -0.0952 -3.6589
  143OSM   H14B15566   1.913   2.200   1.632  0.6964 -1.4430 -1.5332
  143OSM   H14C15567   1.973   2.202   1.799  1.5581  0.0976 -0.0918
  143OSM    C1315568   2.143   2.267   1.524 -0.2736 -0.2443  0.3454
  143OSM   H13A15569   2.183   2.169   1.503 -0.0552 -0.8129  3.0694
  143OSM   H13B15570   2.219   2.339   1.498 -0.6495  0.3848  0.9733
  143OSM   H13C15571   2.057   2.280   1.459  0.4669  0.7593 -0.4644
  143OSM    C1215572   2.219   2.282   1.751 -0.1184 -0.1459  0.0416
  143OSM   H12A15573   2.280   2.351   1.694 -1.1327 -0.6743 -1.7522
  143OSM   H12B15574   2.266   2.186   1.736 -1.4646 -0.9230  0.5718
  143OSM    C1115575   2.194   2.311   1.901  0.6446 -0.8786  0.2292
  143OSM   H11A15576   2.129   2.399   1.922 -2.6860 -3.4106  1.2699
  143OSM   H11B15577   2.293   2.337   1.944  0.9408  0.2882 -1.0771
  143OSM      P15578   2.238   2.057   1.967  0.0929 -0.2506  0.4051
  143OSM    O1315579   2.144   1.952   1.923  0.3012 -0.5331  0.2881
  143OSM    O1415580   2.359   2.084   1.881  0.1685 -0.2225 -0.6464
  143OSM    O1115581   2.274   2.030   2.119 -0.1591  0.0727 -0.2969
  143OSM    O1215582   2.150   2.194   1.978 -0.3530 -0.7385  0.2582
  143OSM    C1S15583   2.252   2.137   2.214 -0.2661  1.1692  0.0206
  143OSM    H1S15584   2.143   2.157   2.222 -0.2802  0.7002  1.1257
  143OSM    H1T15585   2.302   2.230   2.179 -0.4788  0.5302 -2.1785
  143OSM     NF15586   2.270   2.218   2.459  0.3152  0.0561  0.4441
  143OSM    HNF15587   2.325   2.300   2.475  0.2130  0.2363 -0.0915
  143OSM    C2S15588   2.312   2.110   2.361  0.0220 -0.8278 -0.2269
  143OSM    H2S15589   2.268   2.014   2.395  2.0348 -2.0227 -0.8050
  143OSM    C3S15590   2.467   2.092   2.354 -0.1841 -0.5385 -0.7838
  143OSM    H3S15591   2.512   2.194   2.344  0.2893 -0.4456  1.7005
  143OSM     O315592   2.522   2.013   2.252  0.0160  0.6092  0.0422
  143OSM    HO315593   2.450   2.011   2.188 -0.1790  0.9332  0.2523
  143OSM    C4S15594   2.530   2.046   2.487  0.1674 -1.4464 -0.3541
  143OSM    H4S15595   2.479   1.958   2.530 -1.4230  0.7162  2.5469
  143OSM    C5S15596   2.632   2.103   2.549 -0.3502 -0.0484 -0.0633
  143OSM    H5S15597   2.673   2.197   2.511 -0.6854  0.2606  0.3274
  143OSM    C6S15598   2.686   2.069   2.680 -0.5917 -0.1667 -0.6741
  143OSM    H6S15599   2.663   2.151   2.751 -0.7323 -0.9756  0.2189
  143OSM    H6T15600   2.797   2.063   2.676 -0.4903 -0.4004  1.6149
  143OSM    C7S15601   2.636   1.948   2.759 -0.2429  0.1424 -0.0528
  143OSM    H7S15602   2.664   1.861   2.697  1.7466 -0.3528  1.4415
  143OSM    H7T15603   2.525   1.946   2.771 -0.1655 -0.7050  0.6644
  143OSM    C8S15604   2.706   1.940   2.889 -0.0142  0.0589 -0.6795
  143OSM    H8S15605   2.640   1.997   2.958  1.7086  0.5039  0.6727
  143OSM    H8T15606   2.809   1.981   2.889  1.2972 -2.8415  1.3686
  143OSM    C9S15607   2.715   1.791   2.928  0.2510  0.3953  0.4580
  143OSM    H9S15608   2.783   1.731   2.864 -1.0068 -1.7441  1.0343
  143OSM    H9T15609   2.615   1.748   2.910  0.7912 -1.4112  1.5523
  143OSM   C10S15610   2.744   1.761   3.078 -0.2575 -0.6494 -0.2793
  143OSM   H10S15611   2.673   1.816   3.143  0.6200 -1.8994  1.8116
  143OSM   H10T15612   2.845   1.804   3.097 -0.5371 -0.3979  0.6673
  143OSM   C11S15613   2.749   1.617   3.118 -0.2308  1.0819  0.4645
  143OSM   H11S15614   2.851   1.592   3.081 -0.9748 -0.1955 -0.8166
  143OSM   H11T15615   2.672   1.554   3.068 -2.3900  2.4955  1.8259
  143OSM   C12S15616   2.757   1.597   3.268 -0.1927  0.1870 -0.4321
  143OSM   H12S15617   2.658   1.610   3.317 -0.7059  1.1155 -1.6560
  143OSM   H12T15618   2.819   1.684   3.302  1.3191 -0.6575 -0.9233
  143OSM   C13S15619   2.823   1.466   3.312  0.9325  0.0158  0.2618
  143OSM   H13S15620   2.917   1.453   3.254  0.0087  0.0628 -1.3318
  143OSM   H13T15621   2.764   1.379   3.276 -0.1171  0.7855  0.0659
  143OSM   C14S15622   2.849   1.479   3.461 -0.3297 -1.0844 -0.4286
  143OSM   H14S15623   2.898   1.574   3.492  0.2304 -1.6521  0.4821
  143OSM   H14T15624   2.912   1.395   3.498 -0.5770 -0.7229  0.8855
  143OSM   C15S15625   2.719   1.476   3.549  0.4083 -0.2628 -0.0857
  143OSM   H15S15626   2.668   1.380   3.529 -0.2209 -0.1421  0.8822
  143OSM   H15T15627   2.649   1.558   3.520  0.2138  0.0748  1.2703
  143OSM   C16S15628   2.737   1.480   3.704 -0.1936 -0.1996 -0.2888
  143OSM   H16S15629   2.637   1.474   3.752 -0.8539 -1.3154 -1.7238
  143OSM   H16T15630   2.787   1.576   3.727 -0.1709 -0.5944  1.4320
  143OSM   C17S15631   2.817   1.361   3.765  0.4180  0.2500  0.2799
  143OSM   H17S15632   2.922   1.357   3.729  1.4792 -4.7038  3.0709
  143OSM   H17T15633   2.777   1.261   3.738  2.5648 -0.8114  0.8525
  143OSM   C18S15634   2.816   1.386   3.917  0.5564  0.0260 -0.9595
  143OSM   H18S15635   2.863   1.305   3.977 -0.2130  0.6259  0.5027
  143OSM   H18T15636   2.715   1.402   3.962  1.7840  0.0163  2.0587
  143OSM   H18U15637   2.851   1.489   3.940 -1.9605  0.8960 -0.6035
  143OSM    C1F15638   2.142   2.231   2.497 -0.0927 -0.4384 -0.0576
  143OSM     OF15639   2.055   2.163   2.448 -0.0708 -0.3025 -0.0370
  143OSM    C2F15640   2.109   2.342   2.595  0.1308 -0.2356 -0.8176
  143OSM    H2F15641   2.024   2.402   2.556  0.8340 -0.3373 -2.5900
  143OSM    H2G15642   2.196   2.408   2.616  1.1055 -1.4182 -1.0053
  143OSM    C3F15643   2.074   2.278   2.736  0.0306 -0.1057  0.0164
  143OSM    H3F15644   1.992   2.204   2.719  0.3438 -0.5805  0.5512
  143OSM    H3G15645   2.024   2.353   2.800  1.2180  0.2917  0.4992
  143OSM    C4F15646   2.198   2.219   2.801  0.2786  0.1984 -0.0632
  143OSM    H4F15647   2.290   2.280   2.792  0.2452  0.0399 -1.8115
  143OSM    H4G15648   2.223   2.124   2.748 -1.0047  0.2062 -0.7162
  143OSM    C5F15649   2.180   2.171   2.945  0.1711  0.1162  0.0768
  143OSM    H5F15650   2.103   2.092   2.935 -0.3351  0.6894 -0.6590
  143OSM    H5G15651   2.147   2.245   3.021  0.3378  1.0043 -0.6975
  143OSM    C6F15652   2.321   2.120   2.992  0.2991  0.4837 -0.0949
  143OSM    H6F15653   2.397   2.201   2.978  0.0257  0.4966 -1.6412
  143OSM    H6G15654   2.352   2.032   2.932 -0.9843 -0.7041  0.9256
  143OSM    C7F15655   2.318   2.083   3.141 -0.0282  0.5555 -0.0819
  143OSM    H7F15656   2.244   2.000   3.148  1.5545 -1.1546 -2.1805
  143OSM    H7G15657   2.273   2.168   3.196  0.3420  0.0207  1.0774
  143OSM    C8F15658   2.456   2.050   3.200  0.4028 -0.0248 -0.6856
  143OSM    H8F15659   2.492   2.149   3.232 -3.0871  1.4037 -0.6692
  143OSM    H8G15660   2.527   2.012   3.123  1.3215 -0.6038  0.4268
  143OSM    C9F15661   2.439   1.954   3.316 -0.5727 -0.3087  0.6071
  143OSM    H9F15662   2.374   1.872   3.283 -1.2263  0.1440  0.7611
  143OSM   C10F15663   2.504   1.953   3.432 -0.3151  0.4133  0.6980
  143OSM   H10F15664   2.478   1.865   3.493  1.6310  0.2677  1.3859
  143OSM   C11F15665   2.600   2.046   3.490 -0.4502 -0.7869 -0.3366
  143OSM   H11F15666   2.566   2.078   3.591 -0.9256 -2.2868  0.0115
  143OSM   H11G15667   2.616   2.137   3.428 -0.2853  0.0269  0.8678
  143OSM   C12F15668   2.734   1.977   3.495  0.1579  0.0485 -0.6200
  143OSM   H12F15669   2.817   2.050   3.502  0.2075 -0.0743  0.2535
  143OSM   H12G15670   2.761   1.929   3.399  0.0278  1.5117 -1.4194
  143OSM   C13F15671   2.744   1.872   3.609 -0.5610  0.1782  0.2610
  143OSM   H13F15672   2.822   1.798   3.582 -0.4823 -0.0403  1.0723
  143OSM   H13G15673   2.651   1.812   3.606 -0.2272 -0.3213 -1.2834
  143OSM   C14F15674   2.787   1.929   3.751  0.3655 -0.6858 -0.0869
  143OSM   H14F15675   2.728   2.021   3.769 -1.6503 -1.8886 -0.2484
  143OSM   H14G15676   2.897   1.946   3.742  0.4271 -0.8186  0.4119
  143OSM   C15F15677   2.762   1.838   3.873  0.4402 -0.2753  0.3909
  143OSM   H15F15678   2.808   1.738   3.858 -1.0911 -1.1078  0.9812
  143OSM   H15G15679   2.654   1.810   3.874  0.1793  0.6927  0.4415
  143OSM   C16F15680   2.787   1.913   4.004  0.0216  0.4390 -0.3337
  143OSM   H16F15681   2.771   1.852   4.096  0.2454 -0.3142 -0.7774
  143OSM   H16G15682   2.713   1.995   4.006  0.7780  1.1650 -1.3163
  143OSM   C17F15683   2.930   1.959   4.032  0.0652  0.7647  0.8005
  143OSM   H17F15684   2.966   1.991   3.932  3.0758  0.4017  1.6794
  143OSM   H17G15685   2.988   1.867   4.054 -0.0332 -0.4292 -3.2129
  143OSM   C18F15686   2.942   2.057   4.148  0.0467 -0.0486  0.5505
  143OSM   H18F15687   2.922   2.003   4.243  0.7324  0.1361  0.8088
  143OSM   H18G15688   2.865   2.136   4.133 -0.1471 -0.4102 -0.4546
  143OSM   H18H15689   3.041   2.099   4.176 -0.3931  0.0401  2.0848
  144OSM      N15690   2.536   3.106   1.972  0.5840  0.3579  0.6092
  144OSM    C1515691   2.660   3.053   2.040  0.4271 -0.0373  0.0270
  144OSM   H15A15692   2.640   2.967   2.103  0.3138  1.5661  2.3218
  144OSM   H15B15693   2.712   3.120   2.107 -1.0122 -0.3694  1.5495
  144OSM   H15C15694   2.728   3.025   1.961  0.3788  1.8980 -0.7519
  144OSM    C1415695   2.418   3.104   2.058  0.0266 -0.0412  0.0210
  144OSM   H14A15696   2.414   3.172   2.142 -3.1238 -2.3210  1.9292
  144OSM   H14B15697   2.394   3.003   2.087 -0.7677  0.3498  0.7527
  144OSM   H14C15698   2.330   3.132   2.002  0.9181 -0.0878 -1.4577
  144OSM    C1315699   2.544   3.247   1.927 -0.0921  0.6453 -0.1687
  144OSM   H13A15700   2.624   3.268   1.858 -1.0063  5.0485 -0.1866
  144OSM   H13B15701   2.549   3.310   2.014  0.3400  0.8966 -0.3703
  144OSM   H13C15702   2.454   3.278   1.875 -0.7528 -2.9192 -1.4560
  144OSM    C1215703   2.508   3.014   1.853  0.1280 -0.0925 -0.5464
  144OSM   H12A15704   2.598   3.021   1.793 -0.1883  1.7883 -0.8586
  144OSM   H12B15705   2.420   3.051   1.803 -0.3967  0.0980  0.4885
  144OSM    C1115706   2.470   2.862   1.870  0.1687  0.2749  0.4134
  144OSM   H11A15707   2.557   2.809   1.916 -0.3317 -0.5188  0.4725
  144OSM   H11B15708   2.470   2.811   1.772  3.7439 -1.6322  1.2146
  144OSM      P15709   2.296   2.709   1.977 -0.4682 -0.0477  0.4425
  144OSM    O1315710   2.232   2.724   2.101 -0.0038 -0.0730  0.2810
  144OSM    O1415711   2.215   2.658   1.866 -0.6131 -0.0484 -0.2581
  144OSM    O1115712   2.426   2.623   1.998  0.0547 -0.7851  0.2542
  144OSM    O1215713   2.348   2.852   1.937  0.9696 -0.3003 -0.2737
  144OSM    C1S15714   2.494   2.611   2.120  0.4422 -0.4456  0.8740
  144OSM    H1S15715   2.434   2.649   2.205 -0.3787 -2.9409  1.4992
  144OSM    H1T15716   2.587   2.672   2.119 -0.6297  1.2601  0.2537
  144OSM     NF15717   2.579   2.477   2.283 -0.0562 -0.3860 -0.1628
  144OSM    HNF15718   2.676   2.502   2.287 -0.2480  0.2259  2.5815
  144OSM    C2S15719   2.533   2.464   2.147  0.0861 -0.8042 -0.2959
  144OSM    H2S15720   2.439   2.404   2.147 -0.8231  0.4779 -3.0787
  144OSM    C3S15721   2.631   2.422   2.034  0.4188 -0.2671  0.2750
  144OSM    H3S15722   2.703   2.505   2.014 -0.0360 -0.1566 -0.9919
  144OSM     O315723   2.578   2.421   1.905 -0.7220 -0.1941 -0.0758
  144OSM    HO315724   2.501   2.477   1.914 -1.1083 -0.8191  0.5888
  144OSM    C4S15725   2.693   2.292   2.060 -0.5919  0.1914  0.2358
  144OSM    H4S15726   2.622   2.209   2.074  0.3146 -0.7134 -0.4448
  144OSM    C5S15727   2.818   2.253   2.043  0.5282 -0.4497 -0.3092
  144OSM    H5S15728   2.901   2.322   2.023  1.7663 -1.6290  0.6359
  144OSM    C6S15729   2.881   2.118   2.069 -0.2760 -0.0245 -0.5653
  144OSM    H6S15730   2.982   2.112   2.024  0.7409  1.5486  1.3865
  144OSM    H6T15731   2.821   2.037   2.021  0.0383 -0.7595  0.2678
  144OSM    C7S15732   2.876   2.105   2.226 -0.0721 -0.0652  1.0265
  144OSM    H7S15733   2.916   2.003   2.246  1.1532  0.2979  0.5448
  144OSM    H7T15734   2.774   2.120   2.268 -1.4201 -1.3954 -1.5482
  144OSM    C8S15735   2.971   2.204   2.295  0.6293 -0.2853  0.2059
  144OSM    H8S15736   2.919   2.302   2.293 -0.3634 -0.7773  0.9488
  144OSM    H8T15737   3.071   2.214   2.248  0.2491 -0.3956 -0.6477
  144OSM    C9S15738   2.992   2.175   2.441 -0.3319 -0.1458  0.0084
  144OSM    H9S15739   3.070   2.096   2.448 -0.0875  0.0106 -0.8182
  144OSM    H9T15740   2.897   2.131   2.476 -0.1240 -0.4914  0.1430
  144OSM   C10S15741   3.045   2.296   2.523 -0.0075  0.5011 -0.2593
  144OSM   H10S15742   2.981   2.385   2.512  0.7737  1.0889 -0.1264
  144OSM   H10T15743   3.148   2.321   2.490 -0.1505 -0.4634 -1.5366
  144OSM   C11S15744   3.025   2.271   2.677 -0.2513  0.0183  0.0454
  144OSM   H11S15745   3.073   2.176   2.706 -0.6156 -0.8664 -2.0351
  144OSM   H11T15746   2.916   2.252   2.686 -0.8920 -0.2104 -5.1018
  144OSM   C12S15747   3.050   2.393   2.758  0.6713 -0.5969 -0.4031
  144OSM   H12S15748   3.016   2.483   2.703  0.1436 -1.9694 -2.4169
  144OSM   H12T15749   3.157   2.392   2.789  0.2492 -1.1686  1.1628
  144OSM   C13S15750   2.981   2.398   2.895 -0.6131  0.6329  0.6281
  144OSM   H13S15751   2.875   2.364   2.894 -0.1217 -0.9966  1.0410
  144OSM   H13T15752   2.978   2.503   2.931 -1.1744 -0.2932  3.5665
  144OSM   C14S15753   3.056   2.320   3.000  0.4289 -0.6471 -0.3827
  144OSM   H14S15754   3.161   2.356   2.989 -0.2071  1.8257  0.8236
  144OSM   H14T15755   3.046   2.215   2.967  1.3669 -0.3678 -1.6245
  144OSM   C15S15756   3.001   2.342   3.144 -0.7758 -0.5378  0.4444
  144OSM   H15S15757   2.903   2.291   3.147 -0.5094 -1.1536 -0.6688
  144OSM   H15T15758   2.990   2.453   3.150 -0.6200 -0.5657  1.3584
  144OSM   C16S15759   3.082   2.299   3.267  0.8709 -0.0965 -0.2080
  144OSM   H16S15760   3.172   2.362   3.280  0.1447  0.3445  4.3281
  144OSM   H16T15761   3.112   2.194   3.247 -3.6079 -1.1765 -2.6566
  144OSM   C17S15762   2.993   2.310   3.392  0.2993 -0.1489 -0.1126
  144OSM   H17S15763   2.905   2.245   3.377 -0.3762  0.2145  2.0000
  144OSM   H17T15764   2.975   2.419   3.407  0.0256 -0.2548  0.3292
  144OSM   C18S15765   3.047   2.267   3.531  0.0078 -0.5426  0.7447
  144OSM   H18S15766   3.072   2.159   3.524 -1.9605 -0.9462 -0.8347
  144OSM   H18T15767   2.972   2.266   3.613 -0.4186 -1.1230  0.3516
  144OSM   H18U15768   3.138   2.321   3.566  1.8979 -1.7738 -1.9016
  144OSM    C1F15769   2.513   2.486   2.395 -0.7836  0.1022  0.7388
  144OSM     OF15770   2.389   2.471   2.393  0.5726 -0.0186 -0.5407
  144OSM    C2F15771   2.597   2.524   2.518  0.0534 -0.7090 -0.7497
  144OSM    H2F15772   2.624   2.632   2.511  5.1644 -1.6188  1.0519
  144OSM    H2G15773   2.695   2.474   2.511  0.6684  0.1737  0.8231
  144OSM    C3F15774   2.528   2.473   2.650  0.1924  0.2614  0.2763
  144OSM    H3F15775   2.526   2.362   2.641  0.0044  0.2899 -0.0260
  144OSM    H3G15776   2.427   2.515   2.667  1.4298  3.2109  0.9059
  144OSM    C4F15777   2.618   2.489   2.774  0.0489 -0.3946  0.6392
  144OSM    H4F15778   2.661   2.590   2.758  0.9530 -1.0911 -1.8454
  144OSM    H4G15779   2.711   2.432   2.753  1.3294  2.2658 -1.5141
  144OSM    C5F15780   2.549   2.453   2.912 -0.6328  0.4864 -0.2662
  144OSM    H5F15781   2.513   2.348   2.907 -0.5135  0.4591 -0.5665
  144OSM    H5G15782   2.452   2.507   2.921 -0.7323  0.1581  0.7462
  144OSM    C6F15783   2.638   2.466   3.037 -0.0058 -0.3161 -0.4570
  144OSM    H6F15784   2.705   2.550   3.009 -0.9044  0.4111 -0.4518
  144OSM    H6G15785   2.707   2.379   3.046 -0.3918 -0.7185 -1.3052
  144OSM    C7F15786   2.566   2.506   3.166 -0.0479 -0.3345 -0.5240
  144OSM    H7F15787   2.499   2.419   3.183 -2.0777  0.7100 -2.6422
  144OSM    H7G15788   2.496   2.590   3.147  0.5477  0.9294  2.4445
  144OSM    C8F15789   2.650   2.545   3.286 -0.4470  0.7984  0.3326
  144OSM    H8F15790   2.733   2.472   3.295  0.1053  1.1290 -1.6762
  144OSM    H8G15791   2.586   2.540   3.377  0.0467  0.1193  0.6523
  144OSM    C9F15792   2.720   2.676   3.276 -0.1543 -1.3720 -0.0232
  144OSM    H9F15793   2.724   2.707   3.171  0.6057 -1.1549  0.0658
  144OSM   C10F15794   2.769   2.740   3.385  0.1723 -0.1209  0.2575
  144OSM   H10F15795   2.815   2.839   3.366  1.2668 -0.7163 -0.3042
  144OSM   C11F15796   2.770   2.697   3.529  0.0074 -0.2132 -1.2700
  144OSM   H11F15797   2.708   2.605   3.533  0.8950 -0.7946 -0.7074
  144OSM   H11G15798   2.732   2.778   3.595  3.0255 -0.0835  0.4714
  144OSM   C12F15799   2.903   2.665   3.581 -0.5903  1.0685  0.2881
  144OSM   H12F15800   2.971   2.748   3.610  0.2425  0.6084 -0.3348
  144OSM   H12G15801   2.961   2.598   3.515 -0.2900  0.8327  0.7812
  144OSM   C13F15802   2.894   2.568   3.701  0.2851  0.1225 -0.4706
  144OSM   H13F15803   2.998   2.540   3.729 -0.1891 -2.6279 -1.1350
  144OSM   H13G15804   2.855   2.471   3.663 -0.2096  0.0281  0.2505
  144OSM   C14F15805   2.821   2.632   3.827  0.5953 -0.1694 -0.1175
  144OSM   H14F15806   2.714   2.659   3.809  0.3788 -0.3491  0.8338
  144OSM   H14G15807   2.877   2.725   3.851  0.7042 -0.1637 -0.3949
  144OSM   C15F15808   2.832   2.533   3.943  0.1992 -0.2597  0.6544
  144OSM   H15F15809   2.793   2.432   3.915  1.9598 -0.9020  0.3942
  144OSM   H15G15810   2.770   2.570   4.028  0.4702  0.2210  0.6464
  144OSM   C16F15811   2.970   2.493   3.990  0.2972 -0.4272 -0.3185
  144OSM   H16F15812   3.030   2.447   3.909 -0.2729 -1.2512 -0.2867
  144OSM   H16G15813   2.972   2.432   4.083 -0.1289  0.6019  0.3859
  144OSM   C17F15814   3.047   2.620   4.029  0.5568  0.1798  0.4640
  144OSM   H17F15815   2.989   2.694   4.090  2.4803  2.8011 -0.6863
  144OSM   H17G15816   3.080   2.676   3.939 -0.1409 -0.8896 -0.4819
  144OSM   C18F15817   3.164   2.582   4.109  0.5458 -0.6103 -0.5449
  144OSM   H18F15818   3.129   2.515   4.191 -0.7714  2.9719  2.0953
  144OSM   H18G15819   3.214   2.671   4.155  1.6440 -1.4773 -0.0155
  144OSM   H18H15820   3.235   2.526   4.045  2.3720 -1.6070  2.1964
  145SAPE     N15821   0.623   1.310   6.466  0.4736  0.2429  0.3183
  145SAPE   HN115822   0.706   1.335   6.524 -0.3418  3.4903  0.2640
  145SAPE   HN215823   0.554   1.263   6.528 -0.8471  1.2176 -0.3745
  145SAPE   HN315824   0.646   1.236   6.397  0.2380 -0.6311  1.1540
  145SAPE   C1215825   0.563   1.435   6.404 -0.2884  0.5910 -0.3315
  145SAPE  H12A15826   0.642   1.509   6.379 -0.0994  0.0907 -1.2562
  145SAPE  H12B15827   0.505   1.488   6.483 -0.8180  0.1552 -0.4223
  145SAPE   C1115828   0.471   1.418   6.280 -0.8329 -0.2346  0.1331
  145SAPE  H11A15829   0.540   1.362   6.213 -0.5850 -0.5756  0.6676
  145SAPE  H11B15830   0.452   1.521   6.242  0.0451  0.6275  1.9146
  145SAPE     P15831   0.255   1.312   6.182  0.0078  0.2908 -0.0457
  145SAPE   O1315832   0.308   1.203   6.090  0.0964 -0.5116 -0.0709
  145SAPE   O1415833   0.121   1.283   6.238  0.1181 -0.1542  0.1360
  145SAPE   O1215834   0.353   1.345   6.302 -0.3617  0.0526  0.2863
  145SAPE   O1115835   0.246   1.445   6.113  0.3292 -0.1195  0.5877
  145SAPE    C115836   0.203   1.474   5.974  0.4931  0.9210 -0.4408
  145SAPE    HA15837   0.110   1.420   5.947  1.5253 -0.9942 -0.4252
  145SAPE    HB15838   0.173   1.581   5.978 -0.8745  0.5404  0.0062
  145SAPE    C215839   0.312   1.434   5.859 -0.1445 -0.4309 -0.2447
  145SAPE    HS15840   0.337   1.326   5.870  0.7871 -0.4378 -2.0572
  145SAPE   O2115841   0.431   1.510   5.881 -0.0111 -0.1623  0.0088
  145SAPE   C2115842   0.549   1.451   5.866  0.4009 -0.4421 -0.2822
  145SAPE   O2215843   0.564   1.338   5.829 -0.1915  0.0902 -0.0232
  145SAPE   C2215844   0.659   1.540   5.902 -0.4942 -0.3287 -0.0532
  145SAPE   H2R15845   0.638   1.648   5.891 -0.5884 -0.3978 -0.6059
  145SAPE   H2S15846   0.679   1.533   6.011 -0.6559  0.4646  0.0330
  145SAPE    C315847   0.257   1.450   5.718  0.2714  0.2561 -0.6663
  145SAPE    HX15848   0.243   1.559   5.700 -2.3203  0.1367  0.2617
  145SAPE    HY15849   0.158   1.403   5.701  1.1733 -1.1655 -2.3680
  145SAPE   O3115850   0.360   1.411   5.628  0.7369 -0.5125 -0.6703
  145SAPE   C3115851   0.375   1.280   5.602 -0.3259 -0.6150 -0.4222
  145SAPE   O3215852   0.305   1.198   5.657  0.0848  0.3440 -0.2016
  145SAPE   C3215853   0.485   1.262   5.499 -0.1157  0.0127 -0.0545
  145SAPE   H2X15854   0.588   1.265   5.539  0.8797 -1.5567 -2.3040
  145SAPE   H2Y15855   0.457   1.335   5.420 -0.8634  0.1147  0.2981
  145SAPE   C2315856   0.789   1.507   5.825  0.0429 -0.3610 -0.1272
  145SAPE   H3R15857   0.805   1.397   5.821  1.8531 -0.2511  2.4322
  145SAPE   H3S15858   0.867   1.570   5.872 -0.6874 -0.9191  1.9088
  145SAPE   C2415859   0.769   1.571   5.682 -0.6770 -0.5228  0.8651
  145SAPE   H4R15860   0.746   1.677   5.707 -1.3686 -0.0102 -1.6559
  145SAPE   H4S15861   0.686   1.515   5.636  1.6964 -4.2800  0.7555
  145SAPE   C2515862   0.894   1.565   5.594  0.1500  0.4055 -1.0866
  145SAPE   H5R15863   0.986   1.597   5.645 -0.5733  0.7905  0.0029
  145SAPE   C2615864   0.909   1.503   5.478  0.0464  0.7455 -0.0972
  145SAPE   H6R15865   1.013   1.498   5.443  0.2244 -0.2730  0.5456
  145SAPE   C2715866   0.808   1.439   5.387  0.4061 -0.0544  0.3258
  145SAPE   H7R15867   0.703   1.454   5.420 -0.7644  1.4205 -3.4687
  145SAPE   H7S15868   0.826   1.330   5.374  0.8935  0.1052 -0.4254
  145SAPE   C2815869   0.817   1.493   5.240 -0.3345 -0.3966  0.2485
  145SAPE   H8R15870   0.796   1.601   5.237 -1.4571 -0.6104 -2.1230
  145SAPE   C2915871   0.841   1.428   5.124 -0.1877 -0.5475 -0.5293
  145SAPE   H9R15872   0.855   1.483   5.030 -0.4811 -1.0588 -0.8724
  145SAPE  C21015873   0.874   1.288   5.107 -0.6049 -0.0093  0.3876
  145SAPE  H10R15874   0.865   1.233   5.204 -2.8434 -0.5709 -0.0860
  145SAPE  H10S15875   0.981   1.294   5.078 -0.6178  1.0010  0.5153
  145SAPE  C21115876   0.789   1.216   5.009  0.4982  0.2544  0.8608
  145SAPE  H11R15877   0.686   1.206   5.047  0.6214 -0.6994  0.9683
  145SAPE  C21215878   0.817   1.178   4.882  0.0585 -0.2596 -0.4177
  145SAPE  H12R15879   0.737   1.127   4.827 -2.9696  1.7681  1.7818
  145SAPE  C21315880   0.955   1.200   4.808  0.3618  0.2349 -0.2333
  145SAPE  H13R15881   1.029   1.231   4.885 -0.2553  0.4020  0.3074
  145SAPE  H13S15882   0.935   1.285   4.739  1.2367 -0.2653 -1.1177
  145SAPE  C21415883   1.010   1.080   4.738  0.1165  0.0891  1.1903
  145SAPE  H14R15884   1.050   1.014   4.816 -2.2457 -0.1328  2.3090
  145SAPE  C21515885   0.979   1.038   4.619 -0.2219  0.1947  0.0059
  145SAPE  H15R15886   1.030   0.950   4.577 -0.1369  0.1510  0.2023
  145SAPE  C21615887   0.886   1.108   4.522 -0.1707 -0.5042  1.0560
  145SAPE  H16R15888   0.939   1.138   4.429 -0.1108 -1.7510  0.6734
  145SAPE  H16S15889   0.856   1.208   4.560  0.7398  0.2808 -0.2174
  145SAPE  C21715890   0.772   1.022   4.483  0.4994 -0.7963 -0.5643
  145SAPE  H17R15891   0.703   1.011   4.569  1.8009  0.8510  0.7357
  145SAPE  H17S15892   0.797   0.923   4.438 -0.1822  0.5508 -4.2830
  145SAPE  C21815893   0.684   1.085   4.379  0.5163  0.7224  0.5066
  145SAPE  H18R15894   0.692   1.195   4.371 -2.2865  1.0729  1.3671
  145SAPE  H18S15895   0.578   1.072   4.409  0.5001  1.8607  0.9625
  145SAPE  C21915896   0.707   1.022   4.234  0.2436 -0.2522 -0.3713
  145SAPE  H19R15897   0.677   0.915   4.229  0.2704 -0.2101 -1.6791
  145SAPE  H19S15898   0.815   1.030   4.213  0.6131 -0.0222  1.4715
  145SAPE  C22015899   0.622   1.104   4.142 -0.2267 -0.6803 -0.2096
  145SAPE  H20R15900   0.627   1.075   4.035 -1.7671 -1.7876 -0.0114
  145SAPE  H20S15901   0.650   1.212   4.150 -0.5651 -0.3521 -2.6556
  145SAPE  H20T15902   0.517   1.083   4.169 -0.3670 -1.9810 -1.6459
  145SAPE   C3315903   0.457   1.119   5.434 -0.0507  0.3022 -0.0713
  145SAPE   H3X15904   0.356   1.120   5.389 -0.6617  1.4621  1.2292
  145SAPE   H3Y15905   0.454   1.049   5.520  2.5098  3.0691  2.5202
  145SAPE   C3415906   0.556   1.067   5.332  0.0667 -0.2098  0.1319
  145SAPE   H4X15907   0.643   1.021   5.382 -0.6090 -0.4835  1.0918
  145SAPE   H4Y15908   0.589   1.154   5.271  0.9011  0.8660  2.0286
  145SAPE   C3515909   0.491   0.958   5.251  0.5743  0.2393 -0.3584
  145SAPE   H5X15910   0.388   0.987   5.223  0.3725 -0.3747 -0.2650
  145SAPE   H5Y15911   0.483   0.870   5.319 -1.0504  0.4401 -0.2519
  145SAPE   C3615912   0.580   0.932   5.127  0.0387  0.3189 -0.4183
  145SAPE   H6X15913   0.687   0.934   5.159 -0.7370  2.7865  2.5068
  145SAPE   H6Y15914   0.575   1.002   5.041 -0.3320  0.6638 -0.1202
  145SAPE   C3715915   0.551   0.798   5.064  0.4455  0.5819  0.1969
  145SAPE   H7X15916   0.440   0.786   5.059  0.5968 -1.4685  0.7709
  145SAPE   H7Y15917   0.583   0.723   5.139 -1.7743  0.2628  0.9123
  145SAPE   C3815918   0.614   0.774   4.926  0.0004 -0.4888  0.3331
  145SAPE   H8X15919   0.722   0.798   4.941 -0.1556 -0.1916  1.0141
  145SAPE   H8Y15920   0.576   0.846   4.850 -0.4936 -2.1462 -1.0462
  145SAPE   C3915921   0.595   0.636   4.866 -1.0836  0.3950  0.2399
  145SAPE   H9X15922   0.490   0.624   4.834 -0.4420 -0.6902 -1.5818
  145SAPE   H9Y15923   0.614   0.565   4.950 -0.7393 -0.6002 -0.6613
  145SAPE  C31015924   0.700   0.592   4.757  0.2473 -0.5950 -0.3916
  145SAPE  H10X15925   0.709   0.482   4.769  0.5918 -0.3662  2.1442
  145SAPE  H10Y15926   0.797   0.640   4.779 -1.3672  2.7601  0.0495
  145SAPE  C31115927   0.655   0.630   4.620 -0.2308 -0.9085  0.1702
  145SAPE  H11X15928   0.648   0.741   4.615  1.6600 -0.7493  0.2065
  145SAPE  H11Y15929   0.565   0.572   4.590  0.7419 -2.5027  0.2351
  145SAPE  C31215930   0.773   0.603   4.524  0.1885  0.4389 -0.9581
  145SAPE  H12X15931   0.779   0.493   4.538  0.4651  0.7074  1.3861
  145SAPE  H12Y15932   0.864   0.656   4.559 -0.2094  0.0145  0.7951
  145SAPE  C31315933   0.741   0.627   4.376 -0.4327  0.6073  0.1077
  145SAPE  H13X15934   0.711   0.731   4.351  0.8642  0.7277 -1.0956
  145SAPE  H13Y15935   0.647   0.573   4.351 -0.3622 -0.2740  1.6474
  145SAPE  C31415936   0.856   0.587   4.279 -0.4961 -0.4617 -0.1696
  145SAPE  H14X15937   0.951   0.640   4.302 -1.6342  1.5085  0.2200
  145SAPE  H14Y15938   0.838   0.603   4.170 -0.1432 -1.2195 -0.3478
  145SAPE  C31515939   0.896   0.435   4.302 -0.0048 -0.7920  0.0459
  145SAPE  H15X15940   0.805   0.375   4.322 -1.1792  0.1818 -2.0725
  145SAPE  H15Y15941   0.950   0.434   4.399  0.5315  0.1556 -0.2218
  145SAPE  C31615942   0.978   0.379   4.188 -0.0056 -0.2454 -0.1656
  145SAPE  H16X15943   1.057   0.454   4.166 -0.4445  0.1140 -0.5613
  145SAPE  H16Y15944   0.915   0.380   4.096 -0.0014  1.2843 -0.1695
  145SAPE  C31715945   1.026   0.236   4.204  0.1721  0.3681 -0.0340
  145SAPE  H17X15946   1.064   0.214   4.306  0.3880 -1.7718 -0.5324
  145SAPE  H17Y15947   1.119   0.211   4.148  1.1883 -0.5940  1.9720
  145SAPE  C31815948   0.919   0.130   4.183  0.3830  0.7516 -0.0887
  145SAPE  H18X15949   0.962   0.028   4.197  0.2644  1.0736  3.8118
  145SAPE  H18Y15950   0.879   0.141   4.080  0.2358 -2.1841 -0.4307
  145SAPE  H18Z15951   0.841   0.152   4.259 -0.0006 -2.0954  0.4470
  146SAPE     N15952   4.086   1.917   6.590  0.2319 -0.0553 -0.2360
  146SAPE   HN115953   4.030   1.862   6.523  1.9411 -2.3613  0.1132
  146SAPE   HN215954   4.128   1.852   6.660 -0.4928  1.0303  1.2723
  146SAPE   HN315955   4.024   1.980   6.645  2.7473  2.2103  0.2566
  146SAPE   C1215956   4.191   1.984   6.512  0.0919  0.1443 -0.8844
  146SAPE  H12A15957   4.140   2.055   6.443 -1.3535  0.6628  0.6356
  146SAPE  H12B15958   4.250   1.911   6.453  2.7938  2.1004 -0.7794
  146SAPE   C1115959   4.287   2.060   6.609  0.1385 -0.4425 -0.2467
  146SAPE  H11A15960   4.338   2.130   6.540  2.7919 -2.1006 -0.0844
  146SAPE  H11B15961   4.368   1.995   6.648  2.3427  2.5319  0.4995
  146SAPE     P15962   4.156   2.275   6.704 -0.2450  0.1788  0.2455
  146SAPE   O1315963   4.082   2.297   6.828 -0.2717  0.2082 -0.2802
  146SAPE   O1415964   4.243   2.382   6.653 -0.1109 -0.8496 -0.4171
  146SAPE   O1215965   4.229   2.134   6.723 -0.1761 -0.6170 -0.0532
  146SAPE   O1115966   4.048   2.233   6.602 -0.0657  0.1206  0.2715
  146SAPE    C115967   3.966   2.331   6.531 -0.9420 -0.3540  0.2241
  146SAPE    HA15968   3.860   2.299   6.532 -1.6364  1.8206  0.1502
  146SAPE    HB15969   3.966   2.430   6.581  2.1814 -0.2482  0.2417
  146SAPE    C215970   4.006   2.332   6.378  0.1309  1.0639 -1.0333
  146SAPE    HS15971   4.018   2.224   6.354  1.5815  1.5570 -2.7104
  146SAPE   O2115972   4.118   2.412   6.360  0.0011 -0.0517  0.0423
  146SAPE   C2115973   4.208   2.355   6.278  0.2867 -0.8812  0.0796
  146SAPE   O2215974   4.202   2.248   6.220 -0.1893  0.3432  0.0729
  146SAPE   C2215975   4.337   2.435   6.279 -0.7230  0.5822  0.1338
  146SAPE   H2R15976   4.341   2.525   6.345 -0.3116 -0.0350  0.9631
  146SAPE   H2S15977   4.417   2.366   6.312 -0.8160  0.1558 -0.5181
  146SAPE    C315978   3.890   2.399   6.293  0.4775  0.8087  0.4485
  146SAPE    HX15979   3.886   2.501   6.337 -0.5439  1.0786 -0.2265
  146SAPE    HY15980   3.793   2.350   6.317 -0.1381  0.2660 -2.6427
  146SAPE   O3115981   3.915   2.399   6.144 -0.1193 -0.1171 -0.0622
  146SAPE   C3115982   3.900   2.280   6.089  0.1813  0.9400  0.3814
  146SAPE   O3215983   3.862   2.187   6.158  0.7620  0.5605 -0.0180
  146SAPE   C3215984   3.943   2.278   5.937 -0.0457 -0.5138 -0.5396
  146SAPE   H2X15985   4.048   2.311   5.922  0.6473 -0.9284  2.6290
  146SAPE   H2Y15986   3.878   2.344   5.875  0.0861  1.2881  1.1388
  146SAPE   C2315987   4.388   2.475   6.141 -0.2071 -0.2081  0.2319
  146SAPE   H3R15988   4.363   2.392   6.072 -0.3349 -0.3505  0.4485
  146SAPE   H3S15989   4.499   2.477   6.138 -0.1925  2.1191  0.2967
  146SAPE   C2415990   4.335   2.602   6.084  0.2567 -0.2054  0.7612
  146SAPE   H4R15991   4.398   2.637   5.999  1.1065  1.3219  1.9648
  146SAPE   H4S15992   4.348   2.690   6.150  1.0136  1.6271 -1.6946
  146SAPE   C2515993   4.197   2.584   6.019 -0.1990 -0.4805 -0.0986
  146SAPE   H5R15994   4.115   2.609   6.087  1.7517  2.8917  1.2637
  146SAPE   C2615995   4.169   2.543   5.893 -0.2951  0.1748  0.7809
  146SAPE   H6R15996   4.064   2.518   5.870 -0.4580  1.5769 -0.1152
  146SAPE   C2715997   4.273   2.496   5.789  0.7285  0.3845 -0.0065
  146SAPE   H7R15998   4.249   2.392   5.760  1.0837  0.4270 -0.4600
  146SAPE   H7S15999   4.364   2.488   5.852  0.3422  1.9288  0.8193
  146SAPE   C2816000   4.301   2.572   5.668 -0.4867 -0.0076 -0.8776
  146SAPE   H8R16001   4.220   2.628   5.620 -0.4303  0.3255 -0.5803
  146SAPE   C2916002   4.431   2.583   5.625 -0.0541 -0.4429  0.4766
  146SAPE   H9R16003   4.452   2.653   5.543  2.0418 -0.6174  0.8100
  146SAPE  C21016004   4.562   2.537   5.683 -0.0918 -0.8133  0.7167
  146SAPE  H10R16005   4.639   2.538   5.602  0.3070 -0.6154  1.0968
  146SAPE  H10S16006   4.561   2.432   5.719  0.6539  0.2943  4.3017
  146SAPE  C21116007   4.610   2.632   5.790  0.4232  1.1612 -0.1746
  146SAPE  H11R16008   4.558   2.729   5.793 -0.0816  0.8638  2.0759
  146SAPE  C21216009   4.703   2.605   5.884 -0.3242  1.2830 -0.1688
  146SAPE  H12R16010   4.743   2.686   5.946  1.8127  1.6250 -1.8929
  146SAPE  C21316011   4.781   2.477   5.904 -0.1940  0.3116  0.0046
  146SAPE  H13R16012   4.886   2.487   5.871  0.0027 -1.8331 -0.1692
  146SAPE  H13S16013   4.735   2.409   5.829 -2.2670  2.6922 -1.0496
  146SAPE  C21416014   4.778   2.432   6.054  0.2297  0.2918 -0.6808
  146SAPE  H14R16015   4.848   2.469   6.131  0.0958 -0.6829 -0.0754
  146SAPE  C21516016   4.711   2.318   6.084  0.0880 -0.3774 -0.8806
  146SAPE  H15R16017   4.726   2.277   6.185 -0.3775  0.5571 -0.4252
  146SAPE  C21616018   4.615   2.245   6.005  0.1269 -0.0512  0.3213
  146SAPE  H16R16019   4.670   2.192   5.924  1.7358  1.0581  0.6360
  146SAPE  H16S16020   4.545   2.312   5.951 -0.0950  0.4160  1.1694
  146SAPE  C21716021   4.523   2.143   6.080  0.5971 -0.0374 -0.3784
  146SAPE  H17R16022   4.447   2.193   6.144  0.4337  1.8206 -1.9412
  146SAPE  H17S16023   4.587   2.078   6.143  0.3889  0.4661  0.3780
  146SAPE  C21816024   4.430   2.068   5.976  0.5640  0.7069  0.1276
  146SAPE  H18R16025   4.498   2.005   5.915  2.0226  1.6444  0.7166
  146SAPE  H18S16026   4.374   2.137   5.910 -1.2160 -2.1250 -1.5128
  146SAPE  C21916027   4.326   1.985   6.048 -0.5646  0.2365 -0.4566
  146SAPE  H19R16028   4.249   1.956   5.974 -1.3187  0.1235  0.3587
  146SAPE  H19S16029   4.285   2.058   6.122  0.9986  0.9422 -0.2387
  146SAPE  C22016030   4.382   1.851   6.102  1.1517  0.2619  0.2003
  146SAPE  H20R16031   4.453   1.869   6.186  0.9305  0.1623  0.4104
  146SAPE  H20S16032   4.419   1.790   6.017 -1.1468  1.6973 -1.9732
  146SAPE  H20T16033   4.295   1.798   6.145  0.1037  1.9923  0.3211
  146SAPE   C3316034   3.929   2.135   5.876  0.4364  0.5721  0.1747
  146SAPE   H3X16035   3.827   2.109   5.843  0.9593  0.0411 -1.0755
  146SAPE   H3Y16036   3.954   2.065   5.958 -2.9120  0.4645  1.2487
  146SAPE   C3416037   4.024   2.123   5.756 -0.4768  0.1870  0.3062
  146SAPE   H4X16038   4.036   2.017   5.727 -1.2628 -0.6385  2.7384
  146SAPE   H4Y16039   4.124   2.149   5.797 -0.3395 -0.5664  0.4530
  146SAPE   C3516040   4.009   2.221   5.640  0.2380 -0.0829 -0.5118
  146SAPE   H5X16041   4.011   2.329   5.668  0.6638  0.3260 -1.9916
  146SAPE   H5Y16042   3.913   2.198   5.590  0.1788  0.6179 -0.7414
  146SAPE   C3616043   4.118   2.206   5.535 -0.0328  0.4778 -0.0114
  146SAPE   H6X16044   4.135   2.102   5.502  1.7049  1.7414 -3.5902
  146SAPE   H6Y16045   4.216   2.231   5.581 -0.1521  0.8960  0.0209
  146SAPE   C3716046   4.092   2.278   5.404 -0.3075  0.0367  0.1703
  146SAPE   H7X16047   4.055   2.381   5.424  2.8787  0.9254  2.3212
  146SAPE   H7Y16048   4.012   2.236   5.339 -0.8863  3.9726 -2.0164
  146SAPE   C3816049   4.220   2.304   5.321  0.6986 -0.3294  0.0450
  146SAPE   H8X16050   4.303   2.338   5.387  0.7840  0.0989 -0.2783
  146SAPE   H8Y16051   4.203   2.380   5.243  3.3629 -0.1341 -0.4245
  146SAPE   C3916052   4.263   2.177   5.246 -0.4076  0.5194  0.5480
  146SAPE   H9X16053   4.189   2.162   5.165  0.9565  2.2751 -1.1436
  146SAPE   H9Y16054   4.268   2.089   5.312  1.4849 -1.7264 -2.3417
  146SAPE  C31016055   4.395   2.194   5.169 -0.1626 -0.2021 -0.3264
  146SAPE  H10X16056   4.477   2.187   5.244 -0.9192 -1.3809  0.4071
  146SAPE  H10Y16057   4.405   2.286   5.107  3.1544  2.0672  3.0907
  146SAPE  C31116058   4.396   2.071   5.076  0.8760  0.3839  0.5161
  146SAPE  H11X16059   4.311   2.067   5.004  0.9211  0.6377  0.4488
  146SAPE  H11Y16060   4.382   1.981   5.139  2.4850 -0.8770 -0.8422
  146SAPE  C31216061   4.531   2.054   5.002 -0.3451 -0.4722 -0.0926
  146SAPE  H12X16062   4.535   1.947   4.973  1.2022 -0.9304  1.6057
  146SAPE  H12Y16063   4.601   2.081   5.084 -1.9859  2.5720  0.4538
  146SAPE  C31316064   4.560   2.143   4.882 -0.3336  0.0118 -0.2553
  146SAPE  H13X16065   4.663   2.128   4.844 -0.0690 -3.0510  1.4254
  146SAPE  H13Y16066   4.546   2.247   4.921 -2.5276 -0.3150 -0.0755
  146SAPE  C31416067   4.462   2.131   4.763 -0.0436 -0.0211 -0.0402
  146SAPE  H14X16068   4.364   2.162   4.805  1.3070  0.6397  2.9018
  146SAPE  H14Y16069   4.458   2.022   4.744  0.4304  0.2664 -1.9717
  146SAPE  C31516070   4.494   2.185   4.626 -0.1298 -0.3681 -0.5283
  146SAPE  H15X16071   4.487   2.296   4.637  0.4132 -0.5452  2.1824
  146SAPE  H15Y16072   4.410   2.160   4.557  0.8983 -1.1814 -1.5251
  146SAPE  C31616073   4.634   2.160   4.569  0.2549  0.3100 -0.2100
  146SAPE  H16X16074   4.648   2.050   4.560 -1.4294  0.0978 -0.6102
  146SAPE  H16Y16075   4.710   2.193   4.643 -0.9084  0.1165  1.1115
  146SAPE  C31716076   4.657   2.230   4.440 -0.3096  0.7044  1.0899
  146SAPE  H17X16077   4.744   2.189   4.385  0.2327 -0.8806  3.0208
  146SAPE  H17Y16078   4.677   2.337   4.465  0.6263  0.9915 -0.7211
  146SAPE  C31816079   4.549   2.215   4.335  0.3146  0.6670  0.2471
  146SAPE  H18X16080   4.577   2.241   4.231 -1.5284  2.7793  0.2029
  146SAPE  H18Y16081   4.461   2.275   4.367 -1.1398  0.5188 -3.0637
  146SAPE  H18Z16082   4.516   2.109   4.329  0.1736  0.7478 -0.4192
  147SAPE     N16083   6.032   0.356   6.246 -0.3457  0.1793  0.8116
  147SAPE   HN116084   6.125   0.316   6.270  0.6995  0.3426 -2.4772
  147SAPE   HN216085   6.053   0.409   6.159 -2.2471  0.8578  0.7240
  147SAPE   HN316086   6.007   0.434   6.311 -0.0789  1.3093 -0.3971
  147SAPE   C1216087   5.923   0.251   6.244  0.1789 -0.2153 -0.6865
  147SAPE  H12A16088   5.827   0.309   6.242  0.7849  0.8323 -3.4384
  147SAPE  H12B16089   5.928   0.205   6.345  0.6964  0.6301 -0.3079
  147SAPE   C1116090   5.937   0.149   6.132  0.2102  0.7909 -0.5029
  147SAPE  H11A16091   5.932   0.203   6.036  0.3844  0.6449 -0.5950
  147SAPE  H11B16092   5.848   0.083   6.130  0.3861  0.5072  0.3317
  147SAPE     P16093   6.062  -0.052   6.224  0.0057  0.2391 -0.4783
  147SAPE   O1316094   6.005  -0.027   6.359  0.1066 -0.0694  0.3817
  147SAPE   O1416095   6.008  -0.168   6.153 -1.0154 -0.2168  0.1266
  147SAPE   O1216096   6.061   0.079   6.139 -0.2602 -0.3290  0.3222
  147SAPE   O1116097   6.220  -0.083   6.247  0.1925 -0.6359  0.1130
  147SAPE    C116098   6.325  -0.016   6.173 -0.4949 -0.0173 -0.1043
  147SAPE    HA16099   6.306   0.092   6.154 -0.4879  0.3921  1.9909
  147SAPE    HB16100   6.413  -0.012   6.240  0.7261 -2.7620 -1.3737
  147SAPE    C216101   6.356  -0.086   6.045  0.7243 -0.2265 -0.9704
  147SAPE    HS16102   6.440  -0.035   5.994 -0.0521  1.5262 -0.5660
  147SAPE   O2116103   6.240  -0.092   5.959  0.5969 -0.3281  0.2525
  147SAPE   C2116104   6.219   0.018   5.885  0.0926  0.1108  0.0230
  147SAPE   O2216105   6.285   0.117   5.877 -0.5707 -0.0749 -0.3115
  147SAPE   C2216106   6.099  -0.006   5.801 -0.5678 -0.2193 -0.3515
  147SAPE   H2R16107   6.110  -0.105   5.752  0.2181 -0.3782  0.1348
  147SAPE   H2S16108   6.013  -0.021   5.870  1.2453  0.2106  2.1363
  147SAPE    C316109   6.398  -0.239   6.087  0.2180  0.2219  0.4034
  147SAPE    HX16110   6.305  -0.285   6.126 -1.0424  1.7718 -0.6361
  147SAPE    HY16111   6.470  -0.246   6.172 -2.6384  1.9839  3.1828
  147SAPE   O3116112   6.457  -0.302   5.971  0.2741 -0.7751  0.3228
  147SAPE   C3116113   6.389  -0.400   5.914 -0.0950  1.3461  0.3088
  147SAPE   O3216114   6.277  -0.441   5.946 -0.2671  0.4256 -0.2103
  147SAPE   C3216115   6.475  -0.460   5.800 -0.5410  0.4733 -0.0674
  147SAPE   H2X16116   6.578  -0.483   5.837 -1.0098 -0.5592  0.6503
  147SAPE   H2Y16117   6.482  -0.384   5.719  2.0969  1.5710  1.0689
  147SAPE   C2316118   6.081   0.111   5.691 -0.8147  0.0570  0.0651
  147SAPE   H3R16119   6.177   0.155   5.656 -1.6721  0.8071 -1.4762
  147SAPE   H3S16120   6.028   0.197   5.737 -1.2457  0.7683 -1.6669
  147SAPE   C2416121   6.006   0.063   5.568  0.4076  0.3610  0.1435
  147SAPE   H4R16122   5.905   0.030   5.602  0.6184  0.1182  0.5405
  147SAPE   H4S16123   6.051  -0.028   5.522  2.0416  1.2292 -0.0132
  147SAPE   C2516124   5.986   0.174   5.469 -0.1861 -0.2288  0.3868
  147SAPE   H5R16125   5.925   0.262   5.495 -0.9988 -1.1222  1.6069
  147SAPE   C2616126   6.043   0.176   5.348 -0.2555 -0.3728 -0.0615
  147SAPE   H6R16127   6.033   0.271   5.293 -0.1188 -0.1805  0.2416
  147SAPE   C2716128   6.126   0.069   5.284 -0.9270 -0.0997  0.1143
  147SAPE   H7R16129   6.064  -0.011   5.238  1.2819 -1.8925  0.0726
  147SAPE   H7S16130   6.177   0.021   5.370  0.4740  2.2390  0.7091
  147SAPE   C2816131   6.243   0.117   5.202  0.9467 -0.0414 -0.1884
  147SAPE   H8R16132   6.331   0.152   5.258  1.1047 -0.9686  0.1533
  147SAPE   C2916133   6.262   0.105   5.068  0.8136  0.2745 -0.1252
  147SAPE   H9R16134   6.348   0.151   5.017  1.3052 -1.5073 -0.9650
  147SAPE  C21016135   6.167   0.046   4.969  0.0864  0.0855 -1.1992
  147SAPE  H10R16136   6.116  -0.032   5.030 -0.1067  1.8880  1.0902
  147SAPE  H10S16137   6.227  -0.003   4.889  2.5237 -0.2962  0.7451
  147SAPE  C21116138   6.064   0.149   4.935 -0.5006  0.1057  0.0940
  147SAPE  H11R16139   5.984   0.163   5.009 -0.6976  0.4412 -0.1751
  147SAPE  C21216140   6.076   0.236   4.833 -0.0929  0.1805 -0.5839
  147SAPE  H12R16141   5.997   0.312   4.826 -0.7490 -0.5882 -2.0081
  147SAPE  C21316142   6.176   0.240   4.723 -0.3852  0.8831 -0.2261
  147SAPE  H13R16143   6.267   0.276   4.776 -0.7815 -0.9874  1.9209
  147SAPE  H13S16144   6.161   0.327   4.657  0.8147  1.8672  0.7448
  147SAPE  C21416145   6.209   0.116   4.639  0.4533  0.2419 -0.5952
  147SAPE  H14R16146   6.120   0.066   4.598 -1.0333  2.3332 -0.0857
  147SAPE  C21516147   6.333   0.070   4.617 -0.7756  0.4771 -1.0022
  147SAPE  H15R16148   6.337  -0.018   4.552 -0.1224  0.3007 -0.7334
  147SAPE  C21616149   6.463   0.135   4.669 -0.7893  0.5051  0.2621
  147SAPE  H16R16150   6.481   0.095   4.771 -0.6772 -1.6856 -0.5612
  147SAPE  H16S16151   6.455   0.244   4.686 -0.2802  0.4983  0.5762
  147SAPE  C21716152   6.589   0.104   4.582  0.6021 -0.5411  0.1532
  147SAPE  H17R16153   6.625  -0.001   4.591  0.9575 -0.6821 -2.1844
  147SAPE  H17S16154   6.680   0.150   4.627  1.8189 -3.7968  1.3319
  147SAPE  C21816155   6.562   0.179   4.446  0.7352  0.7096 -0.0345
  147SAPE  H18R16156   6.512   0.277   4.461 -2.1949 -0.3585 -1.9424
  147SAPE  H18S16157   6.506   0.118   4.372 -1.4624  2.5503  0.0079
  147SAPE  C21916158   6.693   0.222   4.382 -0.0527  0.2735  0.0779
  147SAPE  H19R16159   6.741   0.297   4.449 -0.4079 -1.4136  2.3571
  147SAPE  H19S16160   6.670   0.274   4.287  1.0264 -0.1237 -0.4135
  147SAPE  C22016161   6.786   0.107   4.352 -0.3561 -0.3725 -0.1831
  147SAPE  H20R16162   6.728   0.013   4.342 -2.9246  1.1434 -0.3269
  147SAPE  H20S16163   6.861   0.095   4.434  1.3069  0.1207 -1.5605
  147SAPE  H20T16164   6.839   0.120   4.255 -2.4303  3.4585 -1.0030
  147SAPE   C3316165   6.419  -0.594   5.747  0.4875 -0.3708  0.3548
  147SAPE   H3X16166   6.317  -0.576   5.707  0.2572 -1.7645  0.2858
  147SAPE   H3Y16167   6.404  -0.667   5.829  1.0566 -0.8967  0.0006
  147SAPE   C3416168   6.509  -0.665   5.650 -0.3639 -0.1780 -0.8573
  147SAPE   H4X16169   6.493  -0.774   5.667  2.1419 -0.5085 -0.1645
  147SAPE   H4Y16170   6.612  -0.657   5.692  0.5797  0.1513 -3.1034
  147SAPE   C3516171   6.488  -0.623   5.500  0.5097  0.0542  0.0884
  147SAPE   H5X16172   6.519  -0.517   5.509  0.9585 -0.1758  1.5121
  147SAPE   H5Y16173   6.380  -0.633   5.475  0.9957 -1.7799 -1.5296
  147SAPE   C3616174   6.583  -0.698   5.415  0.2474  0.8583  0.1743
  147SAPE   H6X16175   6.559  -0.805   5.430  1.2557  0.6395  0.2754
  147SAPE   H6Y16176   6.687  -0.668   5.442 -0.7556  2.2092  3.0554
  147SAPE   C3716177   6.576  -0.667   5.268  0.6586 -0.3774  0.1708
  147SAPE   H7X16178   6.578  -0.558   5.246 -0.0562 -0.5451 -0.7755
  147SAPE   H7Y16179   6.480  -0.706   5.230  0.9499  1.2564 -2.5260
  147SAPE   C3816180   6.681  -0.733   5.180 -0.5086 -0.7868  0.5433
  147SAPE   H8X16181   6.668  -0.842   5.202 -2.4740 -0.8127 -0.4928
  147SAPE   H8Y16182   6.783  -0.697   5.203  0.7087 -3.0342 -0.8855
  147SAPE   C3916183   6.655  -0.707   5.031  0.0291 -0.0666 -0.8671
  147SAPE   H9X16184   6.649  -0.596   5.028 -4.0891 -0.1227  0.0591
  147SAPE   H9Y16185   6.553  -0.739   5.002  0.6234 -0.7718 -2.2698
  147SAPE  C31016186   6.755  -0.767   4.941  0.0661 -0.1604 -0.0973
  147SAPE  H10X16187   6.757  -0.878   4.946  0.3734 -0.1371  0.3413
  147SAPE  H10Y16188   6.856  -0.732   4.974 -0.9542  0.1499  3.0365
  147SAPE  C31116189   6.734  -0.726   4.794 -0.0223  0.0859  0.3198
  147SAPE  H11X16190   6.736  -0.616   4.779  0.0540  0.0978  0.4136
  147SAPE  H11Y16191   6.637  -0.755   4.747  0.7422 -0.7493 -0.7777
  147SAPE  C31216192   6.833  -0.792   4.702 -0.5351  0.3848 -0.2366
  147SAPE  H12X16193   6.812  -0.901   4.700 -0.3596  0.2830  1.7339
  147SAPE  H12Y16194   6.932  -0.777   4.749  0.5079 -0.1529 -2.1945
  147SAPE  C31316195   6.827  -0.743   4.556 -0.3528  0.3879  0.7630
  147SAPE  H13X16196   6.870  -0.816   4.485 -2.0085 -1.5569  1.6647
  147SAPE  H13Y16197   6.876  -0.645   4.538  0.0435 -0.1345 -1.1863
  147SAPE  C31416198   6.684  -0.717   4.495  0.4086 -0.0424  0.0293
  147SAPE  H14X16199   6.627  -0.632   4.537 -2.0008  0.2882 -3.4265
  147SAPE  H14Y16200   6.625  -0.810   4.507  3.4837 -2.4886 -2.1239
  147SAPE  C31516201   6.679  -0.673   4.349  0.3970  0.5463  0.2830
  147SAPE  H15X16202   6.743  -0.738   4.285  1.4916  1.7340  0.1249
  147SAPE  H15Y16203   6.727  -0.573   4.356  2.1907 -0.1665 -0.8336
  147SAPE  C31616204   6.537  -0.657   4.295  0.4402 -0.0629 -0.4621
  147SAPE  H16X16205   6.497  -0.562   4.335 -3.7753 -1.3206 -1.1676
  147SAPE  H16Y16206   6.479  -0.748   4.323  1.0848 -0.3865 -0.1787
  147SAPE  C31716207   6.528  -0.633   4.147 -0.1375  0.2583  0.0581
  147SAPE  H17X16208   6.537  -0.727   4.089 -1.4704  0.6050 -0.7311
  147SAPE  H17Y16209   6.608  -0.570   4.103  0.6322 -0.5539  0.2536
  147SAPE  C31816210   6.402  -0.554   4.110 -1.0663  0.5873  0.0079
  147SAPE  H18X16211   6.417  -0.456   4.160  2.8259  0.4421 -0.5714
  147SAPE  H18Y16212   6.308  -0.603   4.145 -1.2104  0.9628  0.1543
  147SAPE  H18Z16213   6.395  -0.544   4.000 -0.4999  2.8463  0.1406
  148SAPE     N16214   1.428   5.600   6.147 -0.2133 -0.7248 -0.3348
  148SAPE   HN116215   1.399   5.700   6.152 -1.6427 -1.1451 -0.0331
  148SAPE   HN216216   1.408   5.551   6.236 -1.1804 -1.3340 -0.8780
  148SAPE   HN316217   1.530   5.615   6.128 -0.5715  1.4831 -0.8658
  148SAPE   C1216218   1.361   5.521   6.043  0.1095  0.1295  0.1826
  148SAPE  H12A16219   1.375   5.419   6.086 -0.8535  0.1601  0.5954
  148SAPE  H12B16220   1.409   5.534   5.944 -0.9899  1.0718 -0.2481
  148SAPE   C1116221   1.205   5.551   6.047 -0.4883 -0.2259 -1.0179
  148SAPE  H11A16222   1.155   5.492   5.966 -1.7832 -2.0687  0.9902
  148SAPE  H11B16223   1.189   5.658   6.020 -0.9830  0.3410  1.3142
  148SAPE     P16224   0.989   5.518   6.179  0.1037 -0.2572  0.0517
  148SAPE   O1316225   0.936   5.394   6.123  0.0907 -0.1451  1.0349
  148SAPE   O1416226   0.934   5.546   6.312 -0.0832 -0.2779 -0.0537
  148SAPE   O1216227   1.146   5.523   6.174  0.1301 -0.5590 -0.4390
  148SAPE   O1116228   0.933   5.633   6.089  0.1450 -0.0554 -0.1878
  148SAPE    C116229   0.832   5.623   5.994 -0.3312  0.0112 -0.0184
  148SAPE    HA16230   0.768   5.532   5.995 -1.1682  0.5792 -0.4323
  148SAPE    HB16231   0.764   5.709   6.008  0.9954  1.0743  0.0283
  148SAPE    C216232   0.891   5.627   5.852  0.7270 -0.6241  0.4120
  148SAPE    HS16233   0.962   5.543   5.840  0.9598 -0.3975  0.1957
  148SAPE   O2116234   0.950   5.756   5.830 -0.1830 -0.4949  0.1853
  148SAPE   C2116235   1.065   5.760   5.770 -0.3005 -0.7323 -0.0281
  148SAPE   O2216236   1.132   5.661   5.745 -0.0869  0.0416 -0.2789
  148SAPE   C2216237   1.102   5.905   5.752 -0.8141 -0.2080 -0.8809
  148SAPE   H2R16238   1.019   5.963   5.706  1.3791  3.0817 -1.0806
  148SAPE   H2S16239   1.136   5.943   5.851  1.2161 -2.1397 -0.7436
  148SAPE    C316240   0.781   5.599   5.741 -0.7772 -1.2090 -0.5176
  148SAPE    HX16241   0.694   5.663   5.767 -1.2601 -2.1408  0.2173
  148SAPE    HY16242   0.749   5.494   5.755 -2.1060 -0.7929 -0.3229
  148SAPE   O3116243   0.822   5.625   5.610  0.4901 -0.2922 -0.2585
  148SAPE   C3116244   0.905   5.539   5.555  0.0556 -0.5499  0.2626
  148SAPE   O3216245   0.958   5.443   5.610 -0.0616  0.3013  0.5544
  148SAPE   C3216246   0.936   5.584   5.411  0.4051 -0.1217  0.0247
  148SAPE   H2X16247   0.970   5.688   5.426  1.0412 -0.5913  2.3437
  148SAPE   H2Y16248   0.840   5.595   5.357 -2.2636 -0.1137  4.3243
  148SAPE   C2316249   1.213   5.924   5.647  0.0887  0.1868 -0.0167
  148SAPE   H3R16250   1.175   5.863   5.563  1.5416 -0.5138 -0.1865
  148SAPE   H3S16251   1.311   5.875   5.668 -0.1002 -0.6701 -1.0616
  148SAPE   C2416252   1.227   6.072   5.610  0.1424  0.3374 -0.3636
  148SAPE   H4R16253   1.324   6.085   5.558  1.0682 -0.7712  1.0297
  148SAPE   H4S16254   1.241   6.141   5.696 -3.0196  1.6855 -0.7877
  148SAPE   C2516255   1.115   6.122   5.523  0.0056  0.2598  0.0459
  148SAPE   H5R16256   1.043   6.189   5.571  1.5290  1.0613  1.2930
  148SAPE   C2616257   1.102   6.098   5.391  0.9301  0.1699  0.1946
  148SAPE   H6R16258   1.023   6.153   5.338  0.2785  0.3895  1.3674
  148SAPE   C2716259   1.203   6.029   5.301  0.5952 -0.4870  0.2113
  148SAPE   H7R16260   1.259   5.953   5.360  0.0691 -2.1509 -1.3363
  148SAPE   H7S16261   1.279   6.099   5.262  0.3083  0.6933  1.6560
  148SAPE   C2816262   1.128   5.961   5.194  0.4225 -0.2004 -0.2256
  148SAPE   H8R16263   1.030   5.928   5.231  0.6278 -0.4698  0.0795
  148SAPE   C2916264   1.163   5.951   5.064  0.5487 -0.0837 -0.4796
  148SAPE   H9R16265   1.084   5.919   4.995 -0.1865  1.4675 -0.3928
  148SAPE  C21016266   1.292   5.989   5.002 -0.3049  0.7068 -0.1590
  148SAPE  H10R16267   1.311   5.902   4.936 -1.1751  0.3317  0.0686
  148SAPE  H10S16268   1.371   5.994   5.080  1.2190  4.5009 -1.6939
  148SAPE  C21116269   1.280   6.124   4.932  0.1177  0.5046  0.6247
  148SAPE  H11R16270   1.333   6.201   4.989  2.4384 -0.0440 -0.6888
  148SAPE  C21216271   1.241   6.149   4.803 -0.3235 -0.6681  0.5160
  148SAPE  H12R16272   1.244   6.252   4.767  0.1029 -1.2286 -1.1364
  148SAPE  C21316273   1.212   6.057   4.689  0.1023  0.0166 -0.3235
  148SAPE  H13R16274   1.139   6.102   4.618 -2.9352 -0.8100  2.0481
  148SAPE  H13S16275   1.153   5.976   4.737 -0.8592  1.1787  0.5439
  148SAPE  C21416276   1.352   6.024   4.628  0.0384  0.0056  0.5036
  148SAPE  H14R16277   1.416   5.960   4.689 -0.4334 -1.5732 -0.5989
  148SAPE  C21516278   1.393   6.062   4.503  0.7454  0.4969 -0.7476
  148SAPE  H15R16279   1.491   6.028   4.465  1.0290  2.9120 -2.4066
  148SAPE  C21616280   1.327   6.158   4.415  0.5104 -0.3130  0.6166
  148SAPE  H16R16281   1.391   6.215   4.344  0.4420 -0.9865  0.0132
  148SAPE  H16S16282   1.255   6.227   4.464 -1.5542 -1.3309 -0.8409
  148SAPE  C21716283   1.240   6.072   4.317 -0.6752 -0.7529  0.1588
  148SAPE  H17R16284   1.167   6.137   4.264  1.2163  0.2408 -1.3634
  148SAPE  H17S16285   1.184   6.008   4.388  1.8931 -0.9636  2.1342
  148SAPE  C21816286   1.315   5.991   4.218 -0.3613  0.5806 -0.0395
  148SAPE  H18R16287   1.359   5.900   4.263 -0.9296 -1.5971 -3.4646
  148SAPE  H18S16288   1.398   6.046   4.169  0.0266 -0.3188 -0.4191
  148SAPE  C21916289   1.230   5.926   4.109  0.1387  0.8359 -0.7727
  148SAPE  H19R16290   1.199   6.016   4.053 -0.0938  2.2363  1.4619
  148SAPE  H19S16291   1.140   5.881   4.156  0.6612  1.0322  0.4509
  148SAPE  C22016292   1.313   5.830   4.025  0.0060 -0.8148 -0.0868
  148SAPE  H20R16293   1.393   5.892   3.978 -0.3080  0.2490  0.7489
  148SAPE  H20S16294   1.260   5.787   3.937 -1.1451  0.2708  0.0527
  148SAPE  H20T16295   1.359   5.757   4.095  1.2420  1.8694  2.0863
  148SAPE   C3316296   1.047   5.511   5.330  0.3432 -0.1406  0.9429
  148SAPE   H3X16297   1.061   5.402   5.344  0.1594 -0.3980 -0.6790
  148SAPE   H3Y16298   1.133   5.566   5.374  0.8821  0.1595 -0.4095
  148SAPE   C3416299   1.048   5.558   5.181  0.7104 -0.2507  0.3818
  148SAPE   H4X16300   1.059   5.669   5.181 -3.8550  0.3935  2.2481
  148SAPE   H4Y16301   0.955   5.528   5.128  0.3507  0.7510  0.4228
  148SAPE   C3516302   1.167   5.496   5.105  0.7816  0.5164 -0.1868
  148SAPE   H5X16303   1.142   5.388   5.094 -0.1313  0.7629 -0.7216
  148SAPE   H5Y16304   1.260   5.516   5.162  0.5961  0.2668  0.2122
  148SAPE   C3616305   1.188   5.538   4.958 -0.3806  0.8465  0.3053
  148SAPE   H6X16306   1.199   5.647   4.940  0.4232  0.4573 -1.9511
  148SAPE   H6Y16307   1.100   5.508   4.898 -0.2362 -0.7985  0.8600
  148SAPE   C3716308   1.299   5.462   4.885  0.0967 -0.0276 -0.5397
  148SAPE   H7X16309   1.289   5.356   4.914 -1.2683 -0.1840 -1.4835
  148SAPE   H7Y16310   1.400   5.479   4.929 -0.0592  0.8528 -0.4853
  148SAPE   C3816311   1.323   5.490   4.730 -0.3315  0.1741  0.2598
  148SAPE   H8X16312   1.407   5.435   4.682  0.0767  0.5439  0.5313
  148SAPE   H8Y16313   1.366   5.592   4.714 -1.4733  0.5206 -0.7951
  148SAPE   C3916314   1.199   5.489   4.636 -0.0593  0.6200  0.2860
  148SAPE   H9X16315   1.153   5.583   4.672 -1.5727 -0.1117  0.3440
  148SAPE   H9Y16316   1.134   5.399   4.650  2.4913 -0.9746  3.1776
  148SAPE  C31016317   1.220   5.492   4.487  0.0427  0.1625 -0.5219
  148SAPE  H10X16318   1.254   5.393   4.449  0.9132  1.0350 -2.0768
  148SAPE  H10Y16319   1.288   5.570   4.448 -0.0141  0.1090 -0.7340
  148SAPE  C31116320   1.084   5.524   4.416 -0.3079  0.0094 -0.4061
  148SAPE  H11X16321   1.059   5.625   4.453 -1.4481  0.3675 -2.0371
  148SAPE  H11Y16322   1.002   5.460   4.457 -1.4587  1.5985 -0.1540
  148SAPE  C31216323   1.101   5.511   4.263 -0.3432 -0.0707 -0.1198
  148SAPE  H12X16324   1.135   5.411   4.229 -0.5083 -0.7679  1.6380
  148SAPE  H12Y16325   1.171   5.588   4.225 -0.2953  0.2772  0.6470
  148SAPE  C31316326   0.961   5.554   4.203 -0.1528  0.4362  0.5458
  148SAPE  H13X16327   0.949   5.664   4.212  1.0694  0.7829 -1.4851
  148SAPE  H13Y16328   0.889   5.492   4.261  0.6166 -1.3730 -0.3479
  148SAPE  C31416329   0.946   5.503   4.061 -0.9347 -0.5193 -0.0966
  148SAPE  H14X16330   0.931   5.393   4.061 -2.5205 -0.3199 -0.0426
  148SAPE  H14Y16331   1.044   5.526   4.013 -0.4268  0.1562  1.2248
  148SAPE  C31516332   0.850   5.586   3.980  0.3954 -0.2158 -0.8317
  148SAPE  H15X16333   0.864   5.554   3.874  2.2227 -0.0070 -0.6945
  148SAPE  H15Y16334   0.878   5.693   3.988  1.4972 -0.5820  0.7618
  148SAPE  C31616335   0.706   5.577   4.031  0.5493  0.4089  0.2814
  148SAPE  H16X16336   0.694   5.592   4.140  3.5429 -0.4687  0.8093
  148SAPE  H16Y16337   0.687   5.471   4.004  1.4808  0.2747  0.1094
  148SAPE  C31716338   0.616   5.672   3.945 -0.0936 -0.5006 -0.3744
  148SAPE  H17X16339   0.615   5.775   3.985  2.0230  0.2545 -2.0605
  148SAPE  H17Y16340   0.518   5.619   3.955 -0.8887  0.7784 -1.1478
  148SAPE  C31816341   0.655   5.671   3.792  0.1604  0.0533 -0.4070
  148SAPE  H18X16342   0.659   5.567   3.752  0.5422 -0.3664  0.6824
  148SAPE  H18Y16343   0.752   5.724   3.787 -0.4060  1.3888  1.6272
  148SAPE  H18Z16344   0.583   5.732   3.734 -3.2108 -3.6756 -0.5844
  149SAPE     N16345   3.116   4.365   7.272  0.0001 -0.1241  0.2898
  149SAPE   HN116346   3.103   4.462   7.235 -0.3260  0.2134  1.2536
  149SAPE   HN216347   3.040   4.308   7.231  0.8729 -0.0869 -1.4350
  149SAPE   HN316348   3.104   4.360   7.375 -2.9822  2.8399  0.2708
  149SAPE   C1216349   3.242   4.304   7.226  0.3337 -0.1735 -0.1189
  149SAPE  H12A16350   3.244   4.205   7.278 -1.2592  0.4876  1.2973
  149SAPE  H12B16351   3.325   4.371   7.256  0.4263 -0.8045  1.1177
  149SAPE   C1116352   3.250   4.272   7.078  0.4140 -0.2437  0.1598
  149SAPE  H11A16353   3.342   4.211   7.065  2.4390  2.4635  0.8758
  149SAPE  H11B16354   3.270   4.370   7.030 -0.5841  0.7945  1.7748
  149SAPE     P16355   3.024   4.274   6.917 -0.0199 -0.0601  0.0929
  149SAPE   O1316356   2.888   4.221   6.924 -0.6245 -0.0720 -0.4554
  149SAPE   O1416357   3.044   4.415   6.930  0.4360 -0.1777  0.4447
  149SAPE   O1216358   3.121   4.213   7.033 -0.1264  0.2207 -0.1014
  149SAPE   O1116359   3.083   4.236   6.782  0.0861  0.1641  0.0312
  149SAPE    C116360   3.091   4.102   6.750 -0.4583 -0.4228 -0.0513
  149SAPE    HA16361   3.176   4.052   6.801 -0.4983 -0.7045 -0.2527
  149SAPE    HB16362   2.997   4.046   6.770  0.3172 -1.2705  1.3415
  149SAPE    C216363   3.100   4.075   6.601 -0.3583 -0.3334 -0.1372
  149SAPE    HS16364   3.085   3.968   6.579  0.9988 -0.3435 -1.1839
  149SAPE   O2116365   3.225   4.123   6.551  0.0985  0.1231  0.1108
  149SAPE   C2116366   3.331   4.049   6.573  0.1897  0.1664 -0.0201
  149SAPE   O2216367   3.332   3.939   6.633 -0.3711 -0.0351 -0.1267
  149SAPE   C2216368   3.463   4.113   6.521 -0.2385 -0.2523 -0.0388
  149SAPE   H2R16369   3.535   4.136   6.603 -0.7681 -1.2703  0.7330
  149SAPE   H2S16370   3.510   4.021   6.481 -1.0063  0.2600 -2.2680
  149SAPE    C316371   2.993   4.155   6.525  0.1941 -0.6078 -1.1675
  149SAPE    HX16372   2.994   4.257   6.569 -0.1453 -1.5446  1.1911
  149SAPE    HY16373   2.895   4.112   6.556 -0.9137  1.3799 -1.7674
  149SAPE   O3116374   3.020   4.151   6.384  0.0687  0.0769 -0.9244
  149SAPE   C3116375   3.091   4.237   6.323  0.8865 -0.0380 -0.0191
  149SAPE   O3216376   3.125   4.347   6.360  0.4794 -0.5101  0.6508
  149SAPE   C3216377   3.118   4.180   6.185  0.2074  0.0098  0.0912
  149SAPE   H2X16378   3.031   4.125   6.144  0.3707 -0.7911  0.7873
  149SAPE   H2Y16379   3.194   4.100   6.191  1.1638  0.9582  1.2434
  149SAPE   C2316380   3.448   4.224   6.412  0.1964 -0.5116  0.0310
  149SAPE   H3R16381   3.403   4.310   6.466 -1.0140 -1.4483  0.5830
  149SAPE   H3S16382   3.375   4.201   6.331  2.4475 -0.6481 -2.0443
  149SAPE   C2416383   3.582   4.279   6.352  0.3618  0.0212  0.5216
  149SAPE   H4R16384   3.665   4.304   6.422  1.2390 -2.5014  0.4775
  149SAPE   H4S16385   3.553   4.374   6.302 -0.4209  0.1658  1.2362
  149SAPE   C2516386   3.632   4.188   6.240 -0.1641 -0.1863  0.4510
  149SAPE   H5R16387   3.647   4.085   6.275  2.5753  0.4753  1.4034
  149SAPE   C2616388   3.648   4.219   6.107 -0.7513 -0.0034  0.0148
  149SAPE   H6R16389   3.682   4.137   6.043 -0.7587 -0.9226  1.1489
  149SAPE   C2716390   3.633   4.350   6.032  0.1506  0.0770 -0.0731
  149SAPE   H7R16391   3.533   4.396   6.045 -0.8151 -1.8452 -0.3424
  149SAPE   H7S16392   3.637   4.324   5.925  0.8963 -1.6955  0.3555
  149SAPE   C2816393   3.742   4.445   6.084  0.0345 -0.1625  1.2763
  149SAPE   H8R16394   3.729   4.460   6.192  2.5624 -0.3100  1.6726
  149SAPE   C2916395   3.847   4.502   6.029 -0.5113  0.4676 -0.0544
  149SAPE   H9R16396   3.921   4.547   6.096 -0.6173  0.4963  0.0445
  149SAPE  C21016397   3.875   4.493   5.880 -0.4290  0.2109  0.6462
  149SAPE  H10R16398   3.847   4.392   5.844  1.2319 -0.9346  2.3648
  149SAPE  H10S16399   3.982   4.510   5.854 -0.5810 -1.0525 -0.9387
  149SAPE  C21116400   3.789   4.594   5.799 -0.3493 -0.5376 -0.2888
  149SAPE  H11R16401   3.741   4.667   5.866  0.6364 -0.9466  0.9028
  149SAPE  C21216402   3.777   4.587   5.666  0.0104 -0.9208 -0.0922
  149SAPE  H12R16403   3.709   4.658   5.617  0.0242 -1.2062 -0.5294
  149SAPE  C21316404   3.853   4.497   5.573 -0.4800  0.5202  0.2125
  149SAPE  H13R16405   3.802   4.401   5.547 -1.0166  0.6521  0.7516
  149SAPE  H13S16406   3.942   4.452   5.622 -2.0110 -2.4016  0.5213
  149SAPE  C21416407   3.903   4.559   5.439  0.3073 -0.1636 -1.1904
  149SAPE  H14R16408   4.006   4.597   5.441 -0.3977  1.9238  1.7156
  149SAPE  C21516409   3.837   4.563   5.324 -0.0982 -0.7348  0.7778
  149SAPE  H15R16410   3.890   4.612   5.241  0.7460 -1.0882  1.0940
  149SAPE  C21616411   3.693   4.521   5.298  0.1391  0.0606  0.6459
  149SAPE  H16R16412   3.636   4.616   5.306 -2.0220 -1.1443  0.3651
  149SAPE  H16S16413   3.651   4.450   5.372 -1.3226 -1.5467 -1.6036
  149SAPE  C21716414   3.698   4.472   5.155 -0.4176 -0.0871  0.2818
  149SAPE  H17R16415   3.768   4.388   5.134 -0.5729  0.4474 -2.8645
  149SAPE  H17S16416   3.725   4.562   5.096  3.2558  1.0755  3.3211
  149SAPE  C21816417   3.563   4.414   5.107 -0.1159 -0.7003 -0.3948
  149SAPE  H18R16418   3.477   4.479   5.130 -2.2304 -2.0482 -3.6797
  149SAPE  H18S16419   3.544   4.317   5.158 -1.2143  0.5266  1.6137
  149SAPE  C21916420   3.572   4.394   4.953  0.2311  0.7935 -1.0118
  149SAPE  H19R16421   3.495   4.321   4.920 -0.8828  0.9972  0.9328
  149SAPE  H19S16422   3.665   4.337   4.936  0.1322 -0.0387  0.9620
  149SAPE  C22016423   3.553   4.517   4.870 -0.7129 -0.3877 -0.1649
  149SAPE  H20R16424   3.629   4.598   4.872 -1.5257  0.4001 -0.5403
  149SAPE  H20S16425   3.449   4.552   4.888 -0.4938  0.9839 -1.3144
  149SAPE  H20T16426   3.571   4.483   4.765  0.5486 -0.4582  0.0589
  149SAPE   C3316427   3.168   4.294   6.088  0.2286  0.1494  0.2435
  149SAPE   H3X16428   3.267   4.339   6.109  0.6609 -0.5614 -0.2208
  149SAPE   H3Y16429   3.098   4.381   6.087 -0.4250 -0.3285  1.5023
  149SAPE   C3416430   3.178   4.242   5.938 -0.1838 -0.5403 -0.0247
  149SAPE   H4X16431   3.171   4.334   5.876 -1.9073 -0.6087  0.0260
  149SAPE   H4Y16432   3.088   4.185   5.905  0.9341 -2.1364 -0.4570
  149SAPE   C3516433   3.308   4.171   5.917  0.2162 -0.8330 -0.5563
  149SAPE   H5X16434   3.303   4.071   5.965 -2.0100  0.1719  1.5276
  149SAPE   H5Y16435   3.377   4.219   5.991 -1.5599  1.4753 -0.2765
  149SAPE   C3616436   3.356   4.167   5.771 -0.5779 -0.4804  0.2996
  149SAPE   H6X16437   3.323   4.259   5.719 -1.1795 -1.4921 -1.1697
  149SAPE   H6Y16438   3.287   4.092   5.726  0.2612 -1.8376  1.2096
  149SAPE   C3716439   3.501   4.132   5.748  0.4568  0.0307  0.0800
  149SAPE   H7X16440   3.533   4.063   5.829  1.0242  3.6950  3.2766
  149SAPE   H7Y16441   3.549   4.230   5.771 -1.7760  1.8808 -2.5158
  149SAPE   C3816442   3.534   4.097   5.608  0.5528  0.2424 -0.0178
  149SAPE   H8X16443   3.468   4.162   5.546  0.8328  0.3440 -0.2092
  149SAPE   H8Y16444   3.500   3.996   5.578  1.8917 -0.0185 -0.7103
  149SAPE   C3916445   3.668   4.114   5.561  0.0666 -0.4749 -0.0954
  149SAPE   H9X16446   3.719   4.033   5.617 -2.2372 -2.1441 -0.2646
  149SAPE   H9Y16447   3.696   4.216   5.595  1.0823 -0.5814 -0.5727
  149SAPE  C31016448   3.698   4.092   5.407  0.0547  0.4733  0.3991
  149SAPE  H10X16449   3.703   4.188   5.351 -0.2785  0.6814  0.7204
  149SAPE  H10Y16450   3.626   4.025   5.354  0.8121  0.3939 -0.5623
  149SAPE  C31116451   3.842   4.021   5.388  0.3449 -0.4064 -0.2958
  149SAPE  H11X16452   3.852   3.917   5.426  1.1251  1.0514  3.9884
  149SAPE  H11Y16453   3.901   4.083   5.459 -0.2504 -0.5633  0.3483
  149SAPE  C31216454   3.880   4.015   5.241  0.1465 -0.2911 -0.3521
  149SAPE  H12X16455   3.793   3.985   5.178 -0.1688  0.0388 -0.0714
  149SAPE  H12Y16456   3.962   3.940   5.237  1.3333  0.9884 -0.8814
  149SAPE  C31316457   3.949   4.151   5.201  0.9086  0.6447 -0.3866
  149SAPE  H13X16458   4.050   4.155   5.246  1.3045  1.4679 -1.3271
  149SAPE  H13Y16459   3.881   4.234   5.229  0.1595  1.0637 -3.1733
  149SAPE  C31416460   3.967   4.167   5.050 -0.6040 -1.0160 -0.6288
  149SAPE  H14X16461   4.023   4.260   5.026  0.5220 -1.3810  0.4905
  149SAPE  H14Y16462   3.865   4.179   5.005 -1.4124 -1.9086  0.9014
  149SAPE  C31516463   4.040   4.049   4.987  0.3875  0.1039 -0.0600
  149SAPE  H15X16464   3.998   3.953   5.024  1.2284 -0.2719 -0.0632
  149SAPE  H15Y16465   4.146   4.054   5.018  0.2577  0.9202  0.2755
  149SAPE  C31616466   4.044   4.064   4.838  0.2098  0.2297 -0.1146
  149SAPE  H16X16467   4.112   4.151   4.823 -1.5773  2.0200  1.5356
  149SAPE  H16Y16468   3.946   4.074   4.787 -0.6551 -2.2264  0.9453
  149SAPE  C31716469   4.101   3.949   4.753 -0.7153  0.2750  1.0227
  149SAPE  H17X16470   4.101   3.980   4.646 -0.6385 -3.2439 -0.1449
  149SAPE  H17Y16471   4.037   3.858   4.763 -1.8392  0.9909  0.5355
  149SAPE  C31816472   4.243   3.908   4.796 -0.0269  0.1847  0.3064
  149SAPE  H18X16473   4.249   3.867   4.899 -2.5302  0.5871  0.6803
  149SAPE  H18Y16474   4.312   3.995   4.797 -0.2079  0.3258  0.4779
  149SAPE  H18Z16475   4.284   3.820   4.742  1.5849 -1.1617  3.4914
  150SAPE     N16476   5.181   3.342   6.993 -0.1703 -0.2803  0.1888
  150SAPE   HN116477   5.106   3.350   6.922 -2.4632 -0.1174  2.5118
  150SAPE   HN216478   5.198   3.435   7.037  0.2533  0.2794 -1.1098
  150SAPE   HN316479   5.269   3.323   6.940  0.3337  1.9783  0.1131
  150SAPE   C1216480   5.164   3.243   7.107 -0.6345 -0.3882  0.2181
  150SAPE  H12A16481   5.054   3.227   7.115 -0.7735 -0.9872 -2.2661
  150SAPE  H12B16482   5.206   3.292   7.197 -0.6414  1.4891 -0.7642
  150SAPE   C1116483   5.234   3.103   7.073  0.5382  0.5145  0.2442
  150SAPE  H11A16484   5.209   3.032   7.154 -1.2118 -1.1718 -1.6620
  150SAPE  H11B16485   5.345   3.102   7.063  0.5800 -3.2008 -0.1278
  150SAPE     P16486   5.224   2.909   6.911  0.1010 -0.0596 -0.2857
  150SAPE   O1316487   5.369   2.913   6.938 -0.1548  0.3910 -0.3335
  150SAPE   O1416488   5.153   2.785   6.957  0.3427 -0.1213  0.2474
  150SAPE   O1216489   5.163   3.044   6.962  0.0288  0.6971  0.3514
  150SAPE   O1116490   5.209   2.921   6.754 -0.3119  0.1245 -0.4544
  150SAPE    C116491   5.175   3.040   6.692 -0.3661  0.3585 -0.2077
  150SAPE    HA16492   5.065   3.026   6.684  0.0121 -3.0589 -1.0094
  150SAPE    HB16493   5.202   3.136   6.741 -1.3282  1.9039 -2.5462
  150SAPE    C216494   5.238   3.036   6.545  0.0326 -1.5559 -0.4363
  150SAPE    HS16495   5.221   3.137   6.500  1.6899 -1.8671 -1.8570
  150SAPE   O2116496   5.192   2.930   6.461 -0.2196  0.2659  0.5734
  150SAPE   C2116497   5.072   2.954   6.399 -0.2214 -0.4599 -0.1802
  150SAPE   O2216498   5.002   3.045   6.443 -0.7170 -0.7221 -0.0891
  150SAPE   C2216499   5.037   2.856   6.291  0.7690  0.1044 -0.1173
  150SAPE   H2R16500   5.119   2.785   6.269 -0.1061 -1.9331  2.6570
  150SAPE   H2S16501   4.953   2.789   6.321  0.3137  0.7773  0.1601
  150SAPE    C316502   5.393   3.016   6.544 -0.6653  0.3809  0.4289
  150SAPE    HX16503   5.420   2.914   6.579 -3.1454 -0.5408 -0.1476
  150SAPE    HY16504   5.437   3.086   6.619  0.1576 -1.2202  1.5141
  150SAPE   O3116505   5.464   3.032   6.417  0.1079  0.5482  0.3139
  150SAPE   C3116506   5.486   3.154   6.379  0.0647 -0.8369 -0.0753
  150SAPE   O3216507   5.454   3.253   6.443  0.3020 -0.1214 -1.1671
  150SAPE   C3216508   5.561   3.155   6.249 -0.3374 -0.0617  0.1684
  150SAPE   H2X16509   5.483   3.137   6.171 -0.6119  2.8167 -0.3568
  150SAPE   H2Y16510   5.632   3.071   6.237 -2.7815 -2.0793 -1.1385
  150SAPE   C2316511   5.013   2.942   6.160  0.6344 -0.3451 -0.1100
  150SAPE   H3R16512   4.957   3.036   6.180  1.6473 -0.1542  2.1024
  150SAPE   H3S16513   4.959   2.879   6.087  2.2375 -1.8521 -0.0696
  150SAPE   C2416514   5.147   2.960   6.091 -0.4330  0.4359 -0.3357
  150SAPE   H4R16515   5.191   2.859   6.076  0.5088  0.0776  3.7638
  150SAPE   H4S16516   5.207   3.011   6.169  0.6139 -1.2232 -0.0128
  150SAPE   C2516517   5.152   3.038   5.964 -0.1769 -0.4767  0.8995
  150SAPE   H5R16518   5.154   3.148   5.972 -0.9336 -0.3202 -0.6227
  150SAPE   C2616519   5.140   2.991   5.835 -0.6226 -0.5277 -0.0013
  150SAPE   H6R16520   5.152   3.060   5.750  3.1060 -0.6555  0.2610
  150SAPE   C2716521   5.133   2.846   5.788 -0.4854 -0.4185  0.6186
  150SAPE   H7R16522   5.171   2.786   5.874 -0.2746  2.3302  2.5884
  150SAPE   H7S16523   5.204   2.850   5.703 -0.8597  1.3244  0.3402
  150SAPE   C2816524   4.994   2.780   5.759  0.1238 -0.7220 -0.0715
  150SAPE   H8R16525   4.949   2.725   5.842 -0.1774  1.9900  1.6827
  150SAPE   C2916526   4.946   2.779   5.634 -1.0558  0.0023 -0.1025
  150SAPE   H9R16527   4.845   2.735   5.632 -1.4715  0.8162  1.3972
  150SAPE  C21016528   4.998   2.844   5.511 -0.5965 -0.1016 -0.1693
  150SAPE  H10R16529   5.107   2.867   5.518 -0.3266 -1.1335 -0.6485
  150SAPE  H10S16530   4.952   2.942   5.489  1.9028  1.5591  1.4213
  150SAPE  C21116531   4.987   2.755   5.395 -0.4429 -0.3579 -0.5052
  150SAPE  H11R16532   5.059   2.673   5.409  0.4134  0.6140  0.9811
  150SAPE  C21216533   4.909   2.764   5.284  0.1299 -0.2627 -0.5075
  150SAPE  H12R16534   4.920   2.691   5.203  1.0341 -0.4675 -0.2117
  150SAPE  C21316535   4.807   2.879   5.260 -0.1157  0.1691 -0.3585
  150SAPE  H13R16536   4.765   2.908   5.358 -0.2734  1.4261 -0.7822
  150SAPE  H13S16537   4.716   2.841   5.209  0.9564 -3.9155  0.3565
  150SAPE  C21416538   4.877   3.001   5.199  0.6134  0.3875 -0.2226
  150SAPE  H14R16539   4.941   3.061   5.265 -0.5499  1.1714  0.2009
  150SAPE  C21516540   4.841   3.045   5.080 -0.5781 -0.5438  0.9560
  150SAPE  H15R16541   4.910   3.119   5.037 -1.6203 -0.3641 -0.5131
  150SAPE  C21616542   4.747   2.983   4.987  0.3314 -0.5467 -0.4442
  150SAPE  H16R16543   4.700   3.056   4.919 -0.9277  1.0467  1.9921
  150SAPE  H16S16544   4.657   2.935   5.032 -0.7394  1.0944 -0.7595
  150SAPE  C21716545   4.819   2.898   4.883  0.1065 -0.2665 -0.0216
  150SAPE  H17R16546   4.742   2.838   4.831 -0.3722  0.0038  0.3732
  150SAPE  H17S16547   4.869   2.817   4.940  0.9074 -0.2768 -0.7067
  150SAPE  C21816548   4.916   2.973   4.790  0.8078 -0.3628  1.2618
  150SAPE  H18R16549   4.996   3.015   4.855  0.5753  1.7119  0.2792
  150SAPE  H18S16550   4.849   3.044   4.738  3.7068  0.4495 -1.7308
  150SAPE  C21916551   4.987   2.902   4.671  0.0778  0.1461  0.2231
  150SAPE  H19R16552   5.051   2.837   4.734  0.9863 -1.9061 -2.6113
  150SAPE  H19S16553   5.054   2.975   4.618 -0.5034 -0.7056 -1.7765
  150SAPE  C22016554   4.916   2.823   4.569  0.0364  1.0433 -0.0438
  150SAPE  H20R16555   4.991   2.764   4.512 -1.1112 -1.5616  0.9956
  150SAPE  H20S16556   4.849   2.874   4.496 -4.2402 -3.9418 -0.2253
  150SAPE  H20T16557   4.851   2.749   4.620  1.4955 -1.8147 -2.0678
  150SAPE   C3316558   5.631   3.296   6.226  0.3694  0.1697 -0.3815
  150SAPE   H3X16559   5.704   3.322   6.305  0.3154  3.1559 -1.2043
  150SAPE   H3Y16560   5.564   3.384   6.235  0.6538  0.5114 -1.4434
  150SAPE   C3416561   5.693   3.311   6.084 -0.2751  0.5383 -0.1746
  150SAPE   H4X16562   5.752   3.218   6.066 -1.7731 -0.3431 -0.7466
  150SAPE   H4Y16563   5.768   3.392   6.092  0.0178  0.0781  2.6613
  150SAPE   C3516564   5.591   3.343   5.976  0.1741  1.0196 -0.2603
  150SAPE   H5X16565   5.530   3.432   6.005 -0.1262  0.5075  0.7428
  150SAPE   H5Y16566   5.517   3.266   5.948 -2.0065  3.9346 -3.3565
  150SAPE   C3616567   5.668   3.386   5.846 -1.1760 -0.2067  0.4216
  150SAPE   H6X16568   5.737   3.301   5.827  0.5658  1.2705 -0.1857
  150SAPE   H6Y16569   5.734   3.475   5.856  0.6034 -1.3410 -0.7257
  150SAPE   C3716570   5.578   3.415   5.726  0.8237 -0.1296  0.2133
  150SAPE   H7X16571   5.537   3.518   5.734  1.5574  0.1260  0.7295
  150SAPE   H7Y16572   5.491   3.346   5.736  0.4709  0.3104  0.2363
  150SAPE   C3816573   5.647   3.409   5.591  0.0322 -0.0531 -0.6810
  150SAPE   H8X16574   5.706   3.315   5.587 -0.4574 -0.4413  0.5825
  150SAPE   H8Y16575   5.724   3.487   5.576  2.0940 -1.9864 -0.6226
  150SAPE   C3916576   5.552   3.407   5.472  0.6192 -0.2023  0.1360
  150SAPE   H9X16577   5.523   3.513   5.456  0.2442 -0.1701  0.9878
  150SAPE   H9Y16578   5.466   3.345   5.505 -0.3952  1.5190  0.8126
  150SAPE  C31016579   5.624   3.343   5.350 -0.2591 -0.0366 -0.2016
  150SAPE  H10X16580   5.622   3.232   5.358 -0.7628  0.0461  1.1617
  150SAPE  H10Y16581   5.727   3.383   5.334 -1.2855  3.1016  0.3388
  150SAPE  C31116582   5.558   3.367   5.213  0.1636  0.3319  0.2410
  150SAPE  H11X16583   5.631   3.340   5.134  0.3325 -0.6336  0.7070
  150SAPE  H11Y16584   5.525   3.473   5.206 -1.2612 -0.1018  0.0974
  150SAPE  C31216585   5.437   3.283   5.194  0.0154 -0.7784 -0.0265
  150SAPE  H12X16586   5.380   3.292   5.289  0.8445  1.4969  0.3111
  150SAPE  H12Y16587   5.473   3.180   5.174  0.1116 -0.5292 -1.2766
  150SAPE  C31316588   5.359   3.334   5.072  0.0875 -0.5806  0.1461
  150SAPE  H13X16589   5.416   3.354   4.979 -2.3547  0.8975 -1.1490
  150SAPE  H13Y16590   5.314   3.430   5.107  0.0752 -0.6889  0.4302
  150SAPE  C31416591   5.237   3.250   5.024 -0.0049  0.0517  0.2157
  150SAPE  H14X16592   5.162   3.239   5.105  0.1146 -0.9407  0.2076
  150SAPE  H14Y16593   5.269   3.150   4.987  1.3811 -0.2763  2.1434
  150SAPE  C31516594   5.169   3.337   4.912  0.0847  0.2871  0.7654
  150SAPE  H15X16595   5.190   3.442   4.943  2.8744 -0.2871  1.1136
  150SAPE  H15Y16596   5.060   3.318   4.905 -0.2370  2.2976 -0.3941
  150SAPE  C31616597   5.233   3.318   4.771 -0.5181  0.0145  0.6384
  150SAPE  H16X16598   5.198   3.226   4.719  2.7176  0.4255 -2.7030
  150SAPE  H16Y16599   5.344   3.304   4.771 -0.6370 -1.1212  1.4383
  150SAPE  C31716600   5.199   3.430   4.679 -0.3173 -0.3272  0.8765
  150SAPE  H17X16601   5.208   3.398   4.573  1.6798 -0.9053  1.1733
  150SAPE  H17Y16602   5.251   3.525   4.705 -1.7834  0.3005  1.6595
  150SAPE  C31816603   5.059   3.475   4.690  0.4729 -0.4633  0.0831
  150SAPE  H18X16604   4.992   3.386   4.686  0.1348 -0.1824 -0.8922
  150SAPE  H18Y16605   5.045   3.554   4.612  2.4028  1.1494  1.2780
  150SAPE  H18Z16606   5.049   3.524   4.789  0.7328 -2.1891  0.9983
  151SAPE     N16607   5.209   6.669   6.356  0.3828  0.2026 -0.2381
  151SAPE   HN116608   5.218   6.571   6.388  0.0944  0.1289 -0.3806
  151SAPE   HN216609   5.177   6.728   6.435 -0.2705 -0.3827 -0.0610
  151SAPE   HN316610   5.125   6.660   6.294  0.4501 -3.5598 -0.0003
  151SAPE   C1216611   5.333   6.717   6.282 -0.0112 -0.0881  0.3950
  151SAPE  H12A16612   5.407   6.740   6.362  1.6668 -1.4006 -0.7083
  151SAPE  H12B16613   5.312   6.817   6.239  1.9161  0.2377  0.1097
  151SAPE   C1116614   5.394   6.601   6.199 -0.8559 -1.1072 -0.0654
  151SAPE  H11A16615   5.496   6.625   6.161 -0.6514 -2.6106 -0.5383
  151SAPE  H11B16616   5.330   6.608   6.108 -0.5447 -3.2396 -0.5276
  151SAPE     P16617   5.531   6.381   6.277  0.1873  0.0581 -0.1786
  151SAPE   O1316618   5.612   6.461   6.369 -0.6793 -0.0526 -0.1685
  151SAPE   O1416619   5.490   6.248   6.324 -0.2744 -0.0470  0.0387
  151SAPE   O1216620   5.400   6.469   6.241  0.1917  0.1615  0.3741
  151SAPE   O1116621   5.593   6.362   6.130 -0.2005 -0.4934  0.3134
  151SAPE    C116622   5.511   6.294   6.029  0.2368  0.2157 -0.3921
  151SAPE    HA16623   5.497   6.187   6.057  1.4996  0.3783  0.9293
  151SAPE    HB16624   5.409   6.337   6.021  1.8024  4.0669 -1.8029
  151SAPE    C216625   5.583   6.289   5.889  0.7731 -0.2776 -0.1715
  151SAPE    HS16626   5.508   6.237   5.826 -1.4557  1.2613  1.0720
  151SAPE   O2116627   5.702   6.209   5.895  0.1425 -0.5563 -0.0834
  151SAPE   C2116628   5.690   6.080   5.891  0.0313 -0.3247 -0.2534
  151SAPE   O2216629   5.581   6.019   5.878  0.3430 -0.4609 -0.3925
  151SAPE   C2216630   5.828   6.013   5.919  0.4932 -0.3793  0.2196
  151SAPE   H2R16631   5.865   6.040   6.020 -0.1926 -1.9857  0.9316
  151SAPE   H2S16632   5.812   5.904   5.911  2.4758 -0.6397 -0.9269
  151SAPE    C316633   5.604   6.435   5.825  0.4740 -0.2851 -0.1278
  151SAPE    HX16634   5.651   6.485   5.912 -0.0857 -1.2210  0.7253
  151SAPE    HY16635   5.502   6.478   5.817  0.9201  0.7873 -0.2598
  151SAPE   O3116636   5.684   6.437   5.701 -0.4723  0.6975 -0.3789
  151SAPE   C3116637   5.800   6.507   5.707 -0.6266  0.4228  0.4755
  151SAPE   O3216638   5.824   6.598   5.785  0.1932  0.0112 -0.7063
  151SAPE   C3216639   5.903   6.445   5.608 -0.3187  0.0606  0.3744
  151SAPE   H2X16640   5.850   6.429   5.512 -0.3155  0.7920  0.2394
  151SAPE   H2Y16641   5.930   6.343   5.641 -0.1050 -0.4462 -1.2729
  151SAPE   C2316642   5.935   6.054   5.818 -0.0347  0.5249  0.7616
  151SAPE   H3R16643   6.030   6.001   5.841  0.1135 -1.5837 -3.6781
  151SAPE   H3S16644   5.951   6.164   5.812  1.1572  0.3604  0.7038
  151SAPE   C2416645   5.902   6.006   5.677  0.1392 -0.0401  0.2952
  151SAPE   H4R16646   5.811   6.055   5.636  0.7130  0.2619 -0.6613
  151SAPE   H4S16647   5.883   5.897   5.676 -0.3422  0.0427  0.2382
  151SAPE   C2516648   6.021   6.036   5.584 -0.2220 -0.0361  0.0073
  151SAPE   H5R16649   6.024   6.138   5.542  0.0628  1.0883  2.5861
  151SAPE   C2616650   6.116   5.948   5.548 -0.2056 -0.2578  0.5396
  151SAPE   H6R16651   6.197   5.989   5.485 -2.2543 -0.1111 -2.1829
  151SAPE   C2716652   6.121   5.804   5.597 -0.2716 -0.6555 -0.0097
  151SAPE   H7R16653   6.084   5.744   5.511  2.3475  0.0338 -1.7425
  151SAPE   H7S16654   6.074   5.777   5.693  2.3328 -1.4123  1.1283
  151SAPE   C2816655   6.269   5.783   5.612 -0.2611  0.5001  0.1445
  151SAPE   H8R16656   6.311   5.831   5.702 -0.3544 -1.1072  1.0710
  151SAPE   C2916657   6.358   5.736   5.522 -0.3939  1.2194 -0.0711
  151SAPE   H9R16658   6.463   5.724   5.553 -0.5706 -0.4020  0.0185
  151SAPE  C21016659   6.333   5.668   5.386 -0.1121  0.3002 -0.9219
  151SAPE  H10R16660   6.269   5.735   5.323  1.4419  3.0399  0.2444
  151SAPE  H10S16661   6.252   5.592   5.388 -0.1161  0.1513 -3.4931
  151SAPE  C21116662   6.452   5.621   5.313 -1.2276 -0.2645 -0.1316
  151SAPE  H11R16663   6.506   5.533   5.350 -1.0403  0.7384  2.1667
  151SAPE  C21216664   6.503   5.672   5.192 -0.2642 -0.3651 -0.5634
  151SAPE  H12R16665   6.589   5.624   5.142  0.8987  2.7718 -1.8675
  151SAPE  C21316666   6.445   5.788   5.109  0.2574 -0.3439  0.2331
  151SAPE  H13R16667   6.485   5.880   5.157 -1.6941  0.0772  1.1303
  151SAPE  H13S16668   6.338   5.808   5.131  0.4630  1.5015 -0.2233
  151SAPE  C21416669   6.473   5.784   4.958  0.0933 -0.6012 -0.0561
  151SAPE  H14R16670   6.547   5.860   4.928 -0.6657  1.0982  2.0996
  151SAPE  C21516671   6.439   5.686   4.874 -0.7104 -0.2456  0.1779
  151SAPE  H15R16672   6.469   5.696   4.769 -1.2489  0.9407  0.1207
  151SAPE  C21616673   6.343   5.573   4.895 -0.1873  0.0301  0.6046
  151SAPE  H16R16674   6.330   5.551   5.003 -0.4582 -1.4239  0.2956
  151SAPE  H16S16675   6.373   5.477   4.848 -0.1865  1.2273 -2.0318
  151SAPE  C21716676   6.203   5.602   4.847 -0.1223 -0.1472 -0.5014
  151SAPE  H17R16677   6.211   5.595   4.737  1.6424 -1.6651 -0.3078
  151SAPE  H17S16678   6.168   5.704   4.874  0.7460  0.6178 -2.1137
  151SAPE  C21816679   6.107   5.489   4.891  0.9154  0.2780  0.5137
  151SAPE  H18R16680   6.116   5.475   5.000 -1.3447  1.4821  0.9390
  151SAPE  H18S16681   6.145   5.405   4.829 -0.2467  1.5852 -2.1523
  151SAPE  C21916682   5.967   5.521   4.844  0.8826 -0.1989 -0.0563
  151SAPE  H19R16683   5.966   5.557   4.739 -1.1396  0.9155  0.2902
  151SAPE  H19S16684   5.930   5.611   4.898  1.8434  0.9175 -1.2097
  151SAPE  C22016685   5.868   5.405   4.849  0.7630  0.8216 -0.2676
  151SAPE  H20R16686   5.768   5.429   4.807 -0.2776 -1.7483  0.5308
  151SAPE  H20S16687   5.846   5.375   4.954 -0.9415 -0.8233 -1.0170
  151SAPE  H20T16688   5.915   5.321   4.793 -0.6371  1.7105 -2.9933
  151SAPE   C3316689   6.034   6.531   5.606 -0.4547 -0.0109  0.3183
  151SAPE   H3X16690   6.096   6.534   5.698  1.7327  1.8969 -1.0993
  151SAPE   H3Y16691   6.006   6.637   5.587 -0.2849  0.2623  1.5239
  151SAPE   C3416692   6.117   6.475   5.493  0.0567 -0.1818  0.5729
  151SAPE   H4X16693   6.120   6.364   5.497  2.4187 -0.3101 -1.8733
  151SAPE   H4Y16694   6.225   6.501   5.494  0.3699 -1.2013 -1.0702
  151SAPE   C3516695   6.058   6.506   5.345 -1.1502 -0.8804 -0.2800
  151SAPE   H5X16696   6.061   6.615   5.325  1.2730 -0.6384  1.0305
  151SAPE   H5Y16697   5.953   6.474   5.329 -0.8998 -1.1739 -1.5054
  151SAPE   C3616698   6.142   6.442   5.230  0.1045  0.4056 -0.3016
  151SAPE   H6X16699   6.089   6.474   5.138 -0.2163  0.6708 -0.0242
  151SAPE   H6Y16700   6.127   6.333   5.221  1.9582  0.1742 -1.0534
  151SAPE   C3716701   6.289   6.479   5.233 -0.0602  0.0154  0.2892
  151SAPE   H7X16702   6.342   6.434   5.319 -0.4307  0.4527  0.7513
  151SAPE   H7Y16703   6.295   6.589   5.252 -0.1945  0.0014  0.4154
  151SAPE   C3816704   6.371   6.454   5.106  0.1853 -0.1349  0.1898
  151SAPE   H8X16705   6.367   6.350   5.069  0.6916 -0.6099  1.4179
  151SAPE   H8Y16706   6.479   6.460   5.132  0.2817 -0.7129 -0.0694
  151SAPE   C3916707   6.340   6.561   5.000 -0.1961  0.9773  0.1722
  151SAPE   H9X16708   6.303   6.658   5.037 -1.6110  0.0447  1.3122
  151SAPE   H9Y16709   6.250   6.537   4.939 -1.0728  1.7028  1.1564
  151SAPE  C31016710   6.463   6.597   4.902  0.6273  0.2598 -0.3489
  151SAPE  H10X16711   6.540   6.523   4.933  0.5069  0.1847 -0.2268
  151SAPE  H10Y16712   6.499   6.699   4.930 -2.9592  1.2311  1.4315
  151SAPE  C31116713   6.428   6.602   4.750  0.5807  0.0745 -1.2787
  151SAPE  H11X16714   6.363   6.690   4.729 -1.0366 -0.3598  1.4096
  151SAPE  H11Y16715   6.370   6.511   4.724  1.3765 -0.1107 -2.5124
  151SAPE  C31216716   6.558   6.605   4.670 -0.7837  0.2611  0.7093
  151SAPE  H12X16717   6.634   6.529   4.698 -0.2600  0.0090 -1.2831
  151SAPE  H12Y16718   6.609   6.702   4.685  1.2230 -0.8520  1.4835
  151SAPE  C31316719   6.540   6.597   4.513 -0.1291  0.8270  0.0836
  151SAPE  H13X16720   6.474   6.684   4.492 -1.3824 -0.0390  0.3539
  151SAPE  H13Y16721   6.487   6.503   4.489  0.0994  1.2235 -2.1047
  151SAPE  C31416722   6.666   6.601   4.427 -0.5014 -0.5656 -0.4070
  151SAPE  H14X16723   6.735   6.515   4.442 -1.5793 -1.7897 -2.1226
  151SAPE  H14Y16724   6.719   6.694   4.457  3.8833 -2.8820 -0.2116
  151SAPE  C31516725   6.648   6.612   4.275  0.0622  0.2515 -0.0272
  151SAPE  H15X16726   6.582   6.701   4.265 -1.4800 -0.4668  2.7354
  151SAPE  H15Y16727   6.588   6.530   4.229 -1.1854  0.4801  1.1192
  151SAPE  C31616728   6.784   6.633   4.200  0.2121  0.7539  1.1461
  151SAPE  H16X16729   6.862   6.667   4.271  0.8848 -0.3800  0.9700
  151SAPE  H16Y16730   6.773   6.707   4.118 -0.6238 -1.1853 -0.5861
  151SAPE  C31716731   6.846   6.508   4.125  0.1753  0.2013  0.2171
  151SAPE  H17X16732   6.778   6.481   4.041  1.5687 -0.9442 -0.5862
  151SAPE  H17Y16733   6.854   6.419   4.191 -1.4791 -0.6414 -0.6528
  151SAPE  C31816734   6.986   6.535   4.066  0.4266 -0.0108 -0.0227
  151SAPE  H18X16735   6.994   6.621   3.996  0.6950 -0.9247 -1.1482
  151SAPE  H18Y16736   7.036   6.449   4.015  0.4908  0.2922 -0.4763
  151SAPE  H18Z16737   7.036   6.560   4.162  1.4354 -3.0245  0.3582
  152SAPE     N16738   1.025   2.963   6.845 -0.2781  0.2670 -0.5104
  152SAPE   HN116739   1.078   2.891   6.793  1.6069  1.4798 -0.3659
  152SAPE   HN216740   0.952   2.913   6.899  0.0353  2.2422  1.9466
  152SAPE   HN316741   0.974   3.032   6.786 -1.2015 -0.6505 -0.8138
  152SAPE   C1216742   1.139   3.016   6.935  0.6586  0.0702 -0.7610
  152SAPE  H12A16743   1.155   2.941   7.015  0.1306 -0.6908 -1.3528
  152SAPE  H12B16744   1.107   3.111   6.982  0.7061  1.1234 -2.7479
  152SAPE   C1116745   1.261   3.045   6.858 -0.0223  0.4009  0.4092
  152SAPE  H11A16746   1.304   2.948   6.823 -0.9447 -1.1719  3.2968
  152SAPE  H11B16747   1.334   3.100   6.921  0.3480  1.5618 -0.9824
  152SAPE     P16748   1.315   3.169   6.637 -0.5358  0.1134 -0.1134
  152SAPE   O1316749   1.242   3.268   6.561 -0.7204 -0.4910 -0.0134
  152SAPE   O1416750   1.439   3.207   6.695  0.0849 -0.1217 -0.7690
  152SAPE   O1216751   1.225   3.136   6.758  0.3410 -0.3062 -0.4736
  152SAPE   O1116752   1.328   3.032   6.549 -0.4348 -0.3336 -0.2857
  152SAPE    C116753   1.216   2.965   6.498  0.4782  0.1642  0.0094
  152SAPE    HA16754   1.249   2.860   6.486 -0.3468 -0.2377  1.0226
  152SAPE    HB16755   1.134   2.981   6.572  1.6208 -1.1508  1.6367
  152SAPE    C216756   1.179   3.022   6.362  0.4729 -0.2350 -0.5257
  152SAPE    HS16757   1.169   3.133   6.365  0.3641 -0.2639  0.9482
  152SAPE   O2116758   1.062   2.954   6.315  0.6851  0.1975 -0.0996
  152SAPE   C2116759   0.949   3.010   6.343  0.5878  0.0832  0.2209
  152SAPE   O2216760   0.937   3.126   6.384  0.1524  0.2097  0.0927
  152SAPE   C2216761   0.827   2.922   6.315  1.1280  0.0869  0.5969
  152SAPE   H2R16762   0.865   2.834   6.258  0.8159  0.4527 -0.1982
  152SAPE   H2S16763   0.776   2.898   6.411 -1.5848  0.4465 -0.6633
  152SAPE    C316764   1.300   3.005   6.256 -0.3003 -0.2776  0.4823
  152SAPE    HX16765   1.355   2.911   6.278  0.3907  0.0642  0.2397
  152SAPE    HY16766   1.380   3.079   6.280 -0.2268  0.1819 -1.0716
  152SAPE   O3116767   1.256   3.016   6.120  0.4561  0.0050  0.6291
  152SAPE   C3116768   1.282   3.130   6.049 -0.3770  0.0855  0.1323
  152SAPE   O3216769   1.329   3.230   6.099  0.0814 -0.0102 -0.0290
  152SAPE   C3216770   1.227   3.130   5.902 -0.1661 -0.2855  0.3186
  152SAPE   H2X16771   1.166   3.223   5.896  1.0705  0.5520  0.3360
  152SAPE   H2Y16772   1.158   3.043   5.889 -1.5682  0.8689 -0.2985
  152SAPE   C2316773   0.705   2.993   6.239 -0.3052  0.4512  0.0357
  152SAPE   H3R16774   0.671   3.090   6.281  0.6659 -0.3936  3.0443
  152SAPE   H3S16775   0.622   2.922   6.258 -0.7875  1.6169  2.6744
  152SAPE   C2416776   0.737   3.009   6.093 -0.3198 -0.4838  0.3150
  152SAPE   H4R16777   0.801   2.930   6.049  0.7273  0.6846 -0.3235
  152SAPE   H4S16778   0.792   3.103   6.071 -0.9608  0.1740  1.3891
  152SAPE   C2516779   0.600   3.011   6.025 -0.4809  0.2542  0.4305
  152SAPE   H5R16780   0.527   3.030   6.105  2.0393 -1.1910  3.2649
  152SAPE   C2616781   0.562   2.976   5.903  0.0067  0.8157  0.0833
  152SAPE   H6R16782   0.460   3.006   5.873  0.1341  0.7932 -0.3839
  152SAPE   C2716783   0.662   2.947   5.789 -0.6207  0.1502 -0.9751
  152SAPE   H7R16784   0.742   2.880   5.826 -0.7207  0.7112  0.3060
  152SAPE   H7S16785   0.715   3.037   5.750  0.4233 -0.0896 -0.1668
  152SAPE   C2816786   0.588   2.879   5.672 -0.2784 -0.0051  0.2729
  152SAPE   H8R16787   0.496   2.823   5.693 -0.1561  0.8271  3.5700
  152SAPE   C2916788   0.633   2.858   5.547  0.2542  0.2731  0.9000
  152SAPE   H9R16789   0.575   2.807   5.469  1.8344  1.4599 -1.1391
  152SAPE  C21016790   0.762   2.921   5.494  0.1670  0.1373 -0.0573
  152SAPE  H10R16791   0.808   2.857   5.416  2.0136  1.4881 -0.1420
  152SAPE  H10S16792   0.839   2.933   5.573  2.1757  0.9110 -2.0106
  152SAPE  C21116793   0.732   3.064   5.441 -0.8918 -0.7321  0.0087
  152SAPE  H11R16794   0.696   3.135   5.517  0.6454 -1.1766  1.2046
  152SAPE  C21216795   0.721   3.099   5.313 -0.7166 -0.1635  0.4202
  152SAPE  H12R16796   0.694   3.205   5.300 -1.1990 -0.2264  0.8355
  152SAPE  C21316797   0.740   3.018   5.189 -0.2677  0.5375  0.3721
  152SAPE  H13R16798   0.646   2.960   5.181 -0.2891  0.3625  1.6544
  152SAPE  H13S16799   0.824   2.947   5.206 -1.0374 -0.2890  0.8064
  152SAPE  C21416800   0.775   3.104   5.072 -0.4426 -0.3080  0.6678
  152SAPE  H14R16801   0.875   3.092   5.028 -1.1245 -1.2492 -0.7199
  152SAPE  C21516802   0.692   3.184   5.000 -0.4504  0.3717 -0.2908
  152SAPE  H15R16803   0.739   3.243   4.920  1.3500  1.5268  1.5318
  152SAPE  C21616804   0.545   3.210   5.021  0.1209  0.6824  0.1693
  152SAPE  H16R16805   0.525   3.320   5.026 -0.6562  0.5446  0.2225
  152SAPE  H16S16806   0.513   3.157   5.113 -1.1567 -1.9111 -1.6387
  152SAPE  C21716807   0.458   3.158   4.909 -0.5371 -0.6271  1.1763
  152SAPE  H17R16808   0.476   3.048   4.906 -2.8484 -1.0395  0.0397
  152SAPE  H17S16809   0.490   3.202   4.812 -0.1088 -4.3551 -0.5659
  152SAPE  C21816810   0.308   3.167   4.930 -0.8031  0.5382  0.2545
  152SAPE  H18R16811   0.300   3.274   4.956  0.3701  0.2983  1.7310
  152SAPE  H18S16812   0.284   3.098   5.013  0.8835 -1.5164 -0.8759
  152SAPE  C21916813   0.236   3.117   4.800  0.2277 -0.6427 -0.4390
  152SAPE  H19R16814   0.267   3.010   4.791  1.6020 -0.2632 -0.4839
  152SAPE  H19S16815   0.284   3.174   4.717 -0.4842  0.3682 -0.1730
  152SAPE  C22016816   0.086   3.132   4.801 -0.0483 -0.3924 -0.2586
  152SAPE  H20R16817   0.031   3.097   4.892 -1.8158 -0.9767 -1.4869
  152SAPE  H20S16818   0.050   3.074   4.713  0.4188 -0.9092 -0.1114
  152SAPE  H20T16819   0.051   3.238   4.796 -0.4586 -0.5924 -2.7877
  152SAPE   C3316820   1.331   3.111   5.786  0.0446 -0.9317 -0.0463
  152SAPE   H3X16821   1.282   3.087   5.689  0.6390  0.1889 -0.6494
  152SAPE   H3Y16822   1.398   3.024   5.804  2.1807  0.6934  0.2903
  152SAPE   C3416823   1.426   3.227   5.748 -0.2642 -0.9813 -0.9979
  152SAPE   H4X16824   1.498   3.251   5.829  0.3102 -0.1870 -1.7363
  152SAPE   H4Y16825   1.372   3.322   5.730  2.0039  0.1797 -2.0214
  152SAPE   C3516826   1.517   3.189   5.636  0.2640 -0.6902  0.3401
  152SAPE   H5X16827   1.586   3.110   5.672  2.9843  2.8651  3.8557
  152SAPE   H5Y16828   1.587   3.274   5.625  0.9763 -1.2827  0.1730
  152SAPE   C3616829   1.443   3.168   5.500 -0.8283  0.5503 -0.5804
  152SAPE   H6X16830   1.384   3.260   5.483  0.0331  0.7947 -2.4973
  152SAPE   H6Y16831   1.366   3.088   5.507 -0.1069 -0.1190  0.0404
  152SAPE   C3716832   1.545   3.147   5.395 -0.2914 -0.1902 -0.6276
  152SAPE   H7X16833   1.603   3.054   5.417  0.2229  0.4942  1.0518
  152SAPE   H7Y16834   1.623   3.226   5.392 -1.5190  1.0214 -1.9997
  152SAPE   C3816835   1.496   3.130   5.247 -0.2427  0.0896  0.1466
  152SAPE   H8X16836   1.405   3.193   5.242  0.2914  1.0609  1.9207
  152SAPE   H8Y16837   1.477   3.021   5.236  2.9078 -0.5317 -0.2803
  152SAPE   C3916838   1.587   3.163   5.132  0.3234  0.7367  0.2215
  152SAPE   H9X16839   1.672   3.091   5.133 -0.5426 -0.2977  1.1879
  152SAPE   H9Y16840   1.630   3.265   5.141 -1.4598  1.3754  2.3233
  152SAPE  C31016841   1.528   3.142   4.989 -0.4503  0.5656 -0.1028
  152SAPE  H10X16842   1.429   3.192   4.988  0.0648  1.8673  3.0407
  152SAPE  H10Y16843   1.517   3.032   4.975  1.8822  0.3288 -0.4222
  152SAPE  C31116844   1.622   3.188   4.882 -0.3589 -0.6497  0.2051
  152SAPE  H11X16845   1.726   3.155   4.904  0.6003  1.9632 -0.0200
  152SAPE  H11Y16846   1.630   3.298   4.892  1.9129 -0.9849  3.7209
  152SAPE  C31216847   1.584   3.140   4.739  0.4851 -0.2429 -0.0312
  152SAPE  H12X16848   1.478   3.173   4.733  0.3626 -0.7994 -1.1961
  152SAPE  H12Y16849   1.606   3.035   4.712  1.3418  0.0042 -0.3035
  152SAPE  C31316850   1.656   3.218   4.625  0.1455  0.0349 -0.2551
  152SAPE  H13X16851   1.765   3.199   4.636  0.0007 -0.0092  1.2375
  152SAPE  H13Y16852   1.646   3.329   4.629  1.0044  0.1645 -1.1367
  152SAPE  C31416853   1.612   3.179   4.482 -0.5538  0.8622 -0.1218
  152SAPE  H14X16854   1.523   3.239   4.453  1.2762  2.5491 -2.7394
  152SAPE  H14Y16855   1.585   3.073   4.468 -2.0515  1.5434 -3.1131
  152SAPE  C31516856   1.708   3.230   4.372  0.1807  0.4589 -0.1135
  152SAPE  H15X16857   1.656   3.214   4.275 -0.9588  1.7074  0.2512
  152SAPE  H15Y16858   1.799   3.167   4.368  1.0188  1.6903 -1.6231
  152SAPE  C31616859   1.756   3.376   4.381 -0.1054 -0.4574 -0.3107
  152SAPE  H16X16860   1.826   3.377   4.467 -0.7464  2.6103  0.2987
  152SAPE  H16Y16861   1.673   3.444   4.410  0.8748  0.9976 -0.7905
  152SAPE  C31716862   1.825   3.425   4.252 -0.2626 -0.2618 -0.3748
  152SAPE  H17X16863   1.827   3.536   4.249  0.3500 -0.2284  0.7113
  152SAPE  H17Y16864   1.762   3.392   4.167 -2.3165 -1.3287  1.4667
  152SAPE  C31816865   1.968   3.365   4.243  0.1530 -0.1408  0.2793
  152SAPE  H18X16866   1.972   3.255   4.233 -0.5251 -0.1627  0.2267
  152SAPE  H18Y16867   2.027   3.384   4.335  1.3739 -1.6911 -0.1501
  152SAPE  H18Z16868   2.015   3.416   4.156  1.9734 -0.1654  1.2016
  153SAPE     N16869   6.747   2.187   6.978  0.0709 -0.0447  1.2090
  153SAPE   HN116870   6.824   2.120   6.958  3.7053  4.1638 -0.5626
  153SAPE   HN216871   6.792   2.277   6.950  0.7673 -0.8228 -0.2328
  153SAPE   HN316872   6.742   2.195   7.082 -0.2396 -1.6843  1.3480
  153SAPE   C1216873   6.608   2.149   6.918 -0.2797 -0.0804  0.0215
  153SAPE  H12A16874   6.532   2.218   6.959 -1.4008 -0.1928 -1.7807
  153SAPE  H12B16875   6.585   2.051   6.964  0.3472  0.0747  0.6962
  153SAPE   C1116876   6.625   2.143   6.766  0.3591 -0.0943  0.0038
  153SAPE  H11A16877   6.626   2.248   6.730  2.1649  0.4555  1.4658
  153SAPE  H11B16878   6.534   2.093   6.726  1.7940 -3.1137  0.2191
  153SAPE     P16879   6.807   2.061   6.589 -0.2623  0.1484 -0.1597
  153SAPE   O1316880   6.943   2.102   6.623 -0.0088 -0.0754 -0.1432
  153SAPE   O1416881   6.782   1.924   6.533 -0.2531  0.0174 -0.0589
  153SAPE   O1216882   6.730   2.062   6.721 -0.1278 -0.1189  0.2882
  153SAPE   O1116883   6.728   2.175   6.508 -0.0206  0.3387 -0.1700
  153SAPE    C116884   6.620   2.139   6.425  0.6009  0.2841  0.0860
  153SAPE    HA16885   6.561   2.056   6.469 -2.3403  2.2287  0.0677
  153SAPE    HB16886   6.543   2.218   6.415  0.6101  0.3067  0.1886
  153SAPE    C216887   6.668   2.093   6.284  0.7857 -0.8050  0.1291
  153SAPE    HS16888   6.745   2.015   6.302 -0.0509 -1.4586  0.9576
  153SAPE   O2116889   6.723   2.201   6.211 -0.2672  0.1540  0.3352
  153SAPE   C2116890   6.824   2.166   6.135 -0.0231 -0.0096  0.8916
  153SAPE   O2216891   6.871   2.058   6.130 -0.4628 -0.0230  0.3007
  153SAPE   C2216892   6.853   2.283   6.042 -0.0043  0.4135  0.0949
  153SAPE   H2R16893   6.893   2.366   6.105  0.7079 -0.0143  0.2228
  153SAPE   H2S16894   6.947   2.255   5.989  0.3293 -0.5873  1.1688
  153SAPE    C316895   6.553   2.023   6.205  0.5570 -0.1998 -0.0273
  153SAPE    HX16896   6.493   2.103   6.158 -0.4667  0.4872  2.3054
  153SAPE    HY16897   6.489   1.983   6.287  1.6963 -1.9251  0.0926
  153SAPE   O3116898   6.588   1.931   6.101 -0.1508  0.1143 -0.1115
  153SAPE   C3116899   6.619   1.810   6.135 -0.3564  0.1597  0.1745
  153SAPE   O3216900   6.605   1.761   6.250 -0.0826 -0.4477  0.1137
  153SAPE   C3216901   6.669   1.726   6.019 -0.6048 -0.1380 -0.2356
  153SAPE   H2X16902   6.582   1.666   5.986  1.0044 -1.2890 -2.6800
  153SAPE   H2Y16903   6.741   1.650   6.057 -0.6405 -0.5053 -0.8858
  153SAPE   C2316904   6.736   2.318   5.947  0.2089  0.0285  0.7742
  153SAPE   H3R16905   6.759   2.412   5.893 -1.6296  0.4751  0.6943
  153SAPE   H3S16906   6.650   2.357   6.006 -0.4959  1.7075 -1.2320
  153SAPE   C2416907   6.696   2.208   5.849  0.6648  0.8354 -0.1356
  153SAPE   H4R16908   6.606   2.245   5.795 -0.6244 -1.2579  0.4252
  153SAPE   H4S16909   6.647   2.122   5.900 -1.2447  2.2641  0.5654
  153SAPE   C2516910   6.794   2.171   5.739 -0.1161  0.4886  0.3754
  153SAPE   H5R16911   6.864   2.091   5.767  0.5188  0.9047  0.0104
  153SAPE   C2616912   6.796   2.207   5.607  0.5398  0.7286  0.6820
  153SAPE   H6R16913   6.883   2.178   5.546  0.6766  0.2022  1.1176
  153SAPE   C2716914   6.701   2.295   5.533  0.0489  0.2100  0.1226
  153SAPE   H7R16915   6.748   2.395   5.531 -0.5963  0.5868  1.8627
  153SAPE   H7S16916   6.614   2.316   5.599  1.1224  0.9337  1.3613
  153SAPE   C2816917   6.651   2.238   5.403 -0.7566  0.2086  0.6277
  153SAPE   H8R16918   6.618   2.134   5.413 -1.7370  0.4107 -0.3240
  153SAPE   C2916919   6.643   2.297   5.280 -0.5759  0.4445  0.2739
  153SAPE   H9R16920   6.619   2.227   5.199  2.5271  2.1585 -2.3651
  153SAPE  C21016921   6.689   2.439   5.239  0.5159  0.0966 -0.5197
  153SAPE  H10R16922   6.796   2.445   5.267  0.6144  1.6872 -1.1624
  153SAPE  H10S16923   6.640   2.524   5.291  1.0223  1.0938 -1.6215
  153SAPE  C21116924   6.681   2.462   5.085  0.8118 -0.7214 -0.2656
  153SAPE  H11R16925   6.658   2.375   5.022  0.1444  0.2019 -1.3267
  153SAPE  C21216926   6.708   2.574   5.008 -0.4496 -0.2110  0.4090
  153SAPE  H12R16927   6.710   2.556   4.900  3.3882 -0.1299  0.3471
  153SAPE  C21316928   6.741   2.711   5.053  0.0256 -0.7785  0.8740
  153SAPE  H13R16929   6.758   2.704   5.162  1.4280  0.5758  0.7692
  153SAPE  H13S16930   6.659   2.782   5.029  0.5805 -1.1363 -2.5699
  153SAPE  C21416931   6.867   2.752   4.983 -0.5031 -0.0133  0.1415
  153SAPE  H14R16932   6.962   2.748   5.038 -0.5496  4.3652  0.9279
  153SAPE  C21516933   6.877   2.817   4.867 -0.8189  0.2446 -0.1541
  153SAPE  H15R16934   6.975   2.844   4.825 -0.1541 -1.0034  0.5433
  153SAPE  C21616935   6.759   2.853   4.785 -0.2903 -0.2008  0.1884
  153SAPE  H16R16936   6.747   2.958   4.753 -1.3812 -0.6785 -1.1006
  153SAPE  H16S16937   6.664   2.815   4.829 -1.4427  2.4600  0.1668
  153SAPE  C21716938   6.770   2.778   4.652  1.2319 -0.5341 -0.2250
  153SAPE  H17R16939   6.807   2.675   4.671  0.7644 -0.2933  2.3160
  153SAPE  H17S16940   6.834   2.832   4.579  1.2646 -1.8019 -1.1611
  153SAPE  C21816941   6.623   2.755   4.603  0.7031 -0.4945  0.1295
  153SAPE  H18R16942   6.617   2.805   4.504 -0.0326 -0.7241  0.0540
  153SAPE  H18S16943   6.547   2.802   4.670  1.9532 -0.4508  1.5892
  153SAPE  C21916944   6.586   2.609   4.588  0.5380 -0.1776 -0.8144
  153SAPE  H19R16945   6.621   2.560   4.681  0.0383 -1.5947 -1.3444
  153SAPE  H19S16946   6.649   2.571   4.506  0.9664 -0.4657 -0.3556
  153SAPE  C22016947   6.439   2.570   4.562 -0.2542  0.9541  0.2901
  153SAPE  H20R16948   6.428   2.565   4.451  2.1514 -0.3297  0.0258
  153SAPE  H20S16949   6.357   2.630   4.604 -1.0619 -1.1669  1.9342
  153SAPE  H20T16950   6.423   2.466   4.599  1.9433  0.7204  0.7176
  153SAPE   C3316951   6.707   1.808   5.890 -0.6330  0.7373  0.1025
  153SAPE   H3X16952   6.801   1.864   5.910  0.6699  0.1845 -3.7305
  153SAPE   H3Y16953   6.626   1.882   5.873 -0.1645  0.9667 -1.2144
  153SAPE   C3416954   6.704   1.723   5.764  0.4210 -0.8889  0.5378
  153SAPE   H4X16955   6.610   1.666   5.750 -0.8953  0.8557  1.7315
  153SAPE   H4Y16956   6.780   1.644   5.752 -0.5685 -2.0085  1.3889
  153SAPE   C3516957   6.713   1.813   5.638 -0.5885 -0.5324 -0.1062
  153SAPE   H5X16958   6.817   1.853   5.635 -0.6677 -0.3949 -1.1322
  153SAPE   H5Y16959   6.641   1.897   5.647 -0.1933 -0.2549  0.5468
  153SAPE   C3616960   6.679   1.747   5.513  0.5318  0.3053  0.3164
  153SAPE   H6X16961   6.579   1.700   5.521  0.6306 -0.2665 -1.3814
  153SAPE   H6Y16962   6.759   1.674   5.488  0.6716  0.6029 -0.1084
  153SAPE   C3716963   6.658   1.849   5.393  0.1543  1.2503  0.1466
  153SAPE   H7X16964   6.757   1.898   5.385  0.4763  0.4889 -0.8244
  153SAPE   H7Y16965   6.578   1.921   5.421  0.6507  1.3400  1.4044
  153SAPE   C3816966   6.633   1.777   5.267 -0.1871  0.2871 -0.5223
  153SAPE   H8X16967   6.525   1.770   5.244 -0.6791 -0.2241  1.7378
  153SAPE   H8Y16968   6.681   1.676   5.268  1.0683  0.8305  2.0813
  153SAPE   C3916969   6.693   1.858   5.146  0.2863  0.1893 -0.0972
  153SAPE   H9X16970   6.802   1.834   5.152  0.0592 -0.6616  1.2099
  153SAPE   H9Y16971   6.675   1.967   5.150 -1.0261 -0.0350  0.5016
  153SAPE  C31016972   6.623   1.817   5.012 -0.0104  0.3193  0.3775
  153SAPE  H10X16973   6.635   1.883   4.923  0.2131 -0.2742 -0.0380
  153SAPE  H10Y16974   6.514   1.829   5.025 -0.2629 -0.1692 -1.1124
  153SAPE  C31116975   6.660   1.673   4.973 -0.7207  0.9628 -0.3262
  153SAPE  H11X16976   6.599   1.634   4.889 -2.5075  1.1040  0.8582
  153SAPE  H11Y16977   6.650   1.601   5.057 -0.5132  0.5132 -0.6789
  153SAPE  C31216978   6.804   1.666   4.919 -0.7556  0.0614 -0.1494
  153SAPE  H12X16979   6.882   1.662   4.997 -2.3304  0.1148  1.5029
  153SAPE  H12Y16980   6.820   1.759   4.861 -0.2223 -1.1727 -2.0989
  153SAPE  C31316981   6.824   1.548   4.825 -0.2973 -0.3980  0.1119
  153SAPE  H13X16982   6.737   1.564   4.757 -0.5278 -0.4360  0.3946
  153SAPE  H13Y16983   6.798   1.457   4.884 -0.8809  1.0470  2.1921
  153SAPE  C31416984   6.956   1.522   4.748 -0.5759 -0.1435 -0.3569
  153SAPE  H14X16985   6.951   1.418   4.710  0.3015  0.1327 -1.2739
  153SAPE  H14Y16986   7.045   1.538   4.812  0.8925 -1.4008 -2.0325
  153SAPE  C31516987   6.945   1.618   4.623 -0.0263  0.0361 -0.3557
  153SAPE  H15X16988   6.982   1.720   4.647 -1.6848  0.7131 -0.5281
  153SAPE  H15Y16989   6.840   1.627   4.587  0.0991 -0.0253 -0.7422
  153SAPE  C31616990   7.040   1.560   4.513 -0.4942 -0.4789 -0.7131
  153SAPE  H16X16991   7.023   1.450   4.511  2.9314 -1.1175 -1.1613
  153SAPE  H16Y16992   7.147   1.578   4.537 -0.5001  0.9034 -1.6405
  153SAPE  C31716993   7.015   1.609   4.369 -0.3797  0.1934 -0.3701
  153SAPE  H17X16994   7.034   1.718   4.359  0.2617  0.4230  2.4030
  153SAPE  H17Y16995   6.908   1.596   4.344 -1.0454  1.5051  1.5146
  153SAPE  C31816996   7.093   1.532   4.252  0.0593  0.5432  0.1687
  153SAPE  H18X16997   7.059   1.583   4.160 -1.3310  0.9754  0.8891
  153SAPE  H18Y16998   7.056   1.427   4.251  0.0872  0.4882  1.8280
  153SAPE  H18Z16999   7.203   1.543   4.263 -0.0457  1.1573  0.6843
  154SAPE     N17000   4.258   0.499   6.498  0.2421  0.2348 -0.0374
  154SAPE   HN117001   4.236   0.574   6.429 -0.9868 -1.2124 -1.2876
  154SAPE   HN217002   4.358   0.492   6.528  0.5590  1.5477 -0.7221
  154SAPE   HN317003   4.240   0.406   6.454 -0.1217 -0.3070  1.2082
  154SAPE   C1217004   4.152   0.514   6.608  0.1667  0.5845 -0.1104
  154SAPE  H12A17005   4.157   0.425   6.674  0.7416  2.9797  3.3468
  154SAPE  H12B17006   4.050   0.536   6.569 -0.2898  1.8270  1.6521
  154SAPE   C1117007   4.204   0.632   6.699  0.6349  0.2978 -0.0591
  154SAPE  H11A17008   4.310   0.609   6.724  0.7404  1.3658  0.5508
  154SAPE  H11B17009   4.151   0.629   6.797 -1.8675 -0.8747 -1.3568
  154SAPE     P17010   4.154   0.887   6.709 -0.1709  0.1673  0.1442
  154SAPE   O1317011   4.187   0.873   6.853  0.0010  0.2246  0.3593
  154SAPE   O1417012   4.226   0.999   6.643 -0.2663  0.2336  0.2539
  154SAPE   O1217013   4.194   0.755   6.636 -0.1802  0.9892  0.0242
  154SAPE   O1117014   3.999   0.898   6.692  0.4000  0.0515  0.1901
  154SAPE    C117015   3.919   0.970   6.597  0.6823 -0.1778  0.0647
  154SAPE    HA17016   3.825   0.998   6.649 -0.0066 -0.9525 -0.7280
  154SAPE    HB17017   3.964   1.063   6.556 -1.6490 -0.3227 -3.1534
  154SAPE    C217018   3.880   0.889   6.474  0.5734 -0.0226  0.0626
  154SAPE    HS17019   3.973   0.838   6.440  0.0842  0.9574 -3.0659
  154SAPE   O2117020   3.830   0.973   6.366 -0.5592 -0.2217 -0.0699
  154SAPE   C2117021   3.926   1.030   6.291  0.0289  0.0173 -0.9093
  154SAPE   O2217022   4.043   0.990   6.281  0.3060 -0.1268 -0.2237
  154SAPE   C2217023   3.879   1.162   6.224  0.5965 -0.4879 -0.5984
  154SAPE   H2R17024   3.883   1.249   6.293  0.1632  0.4224 -1.6909
  154SAPE   H2S17025   3.945   1.184   6.138 -0.0081  0.8802 -0.7352
  154SAPE    C317026   3.770   0.780   6.508  0.5224  0.3878 -0.5457
  154SAPE    HX17027   3.688   0.827   6.567  1.1515  0.0532  0.6225
  154SAPE    HY17028   3.818   0.705   6.575 -1.4147 -0.2311  0.2366
  154SAPE   O3117029   3.698   0.717   6.395 -0.1898 -0.5113 -0.2485
  154SAPE   C3117030   3.769   0.635   6.326 -0.6868 -1.1184  0.7186
  154SAPE   O3217031   3.882   0.608   6.341  0.3696  0.1650 -0.0895
  154SAPE   C3217032   3.698   0.580   6.207  0.4967  0.4661 -0.3737
  154SAPE   H2X17033   3.594   0.620   6.206  0.6297  0.8138 -0.6092
  154SAPE   H2Y17034   3.689   0.470   6.217  1.2556 -0.0341 -3.8649
  154SAPE   C2317035   3.728   1.149   6.169 -0.7595 -0.1575 -0.1013
  154SAPE   H3R17036   3.660   1.154   6.257 -0.7856 -4.2622  0.2715
  154SAPE   H3S17037   3.718   1.050   6.120  1.7908 -1.2397  1.3681
  154SAPE   C2417038   3.692   1.269   6.075 -0.2865  0.4663 -0.4972
  154SAPE   H4R17039   3.776   1.274   6.001  0.2850 -0.6065  0.0679
  154SAPE   H4S17040   3.682   1.367   6.128  1.8432  1.0261 -1.0174
  154SAPE   C2517041   3.558   1.240   6.020  0.1002 -0.1760 -0.1551
  154SAPE   H5R17042   3.496   1.178   6.086  1.2131  0.0079  1.1317
  154SAPE   C2617043   3.519   1.292   5.906  0.2317 -0.2544 -0.0078
  154SAPE   H6R17044   3.413   1.284   5.880  0.2822  0.7157 -0.5561
  154SAPE   C2717045   3.600   1.388   5.813 -0.8365  0.2602 -0.5391
  154SAPE   H7R17046   3.661   1.460   5.871 -0.5363  0.1768 -0.7460
  154SAPE   H7S17047   3.530   1.455   5.759  0.2937 -0.7453 -3.5086
  154SAPE   C2817048   3.673   1.302   5.719  0.1701  1.1592  0.4978
  154SAPE   H8R17049   3.713   1.214   5.771 -1.5689  0.7743  1.2722
  154SAPE   C2917050   3.689   1.323   5.587  0.5986  0.7106 -0.3280
  154SAPE   H9R17051   3.735   1.245   5.524  0.0072  1.1798 -1.3562
  154SAPE  C21017052   3.637   1.441   5.515 -0.1491  0.1016 -0.6010
  154SAPE  H10R17053   3.726   1.498   5.481 -0.1368  0.3457 -0.1676
  154SAPE  H10S17054   3.573   1.500   5.584  0.8514  0.1609  0.2876
  154SAPE  C21117055   3.548   1.401   5.396 -0.2595 -0.4925  0.2951
  154SAPE  H11R17056   3.441   1.393   5.422 -0.3098  0.3047  0.3515
  154SAPE  C21217057   3.579   1.354   5.272  0.1077 -0.6875  0.2241
  154SAPE  H12R17058   3.493   1.343   5.205 -1.5573 -0.3726  2.2045
  154SAPE  C21317059   3.718   1.348   5.208 -0.0226  0.3770 -0.1480
  154SAPE  H13R17060   3.728   1.262   5.138  0.7587  0.7971 -0.5626
  154SAPE  H13S17061   3.786   1.323   5.292 -0.5467 -2.3676 -0.4636
  154SAPE  C21417062   3.734   1.482   5.136  0.0574  0.4627 -0.0032
  154SAPE  H14R17063   3.744   1.561   5.211 -0.7019 -0.2917  0.9110
  154SAPE  C21517064   3.746   1.502   4.999  0.2955  0.3101 -0.7319
  154SAPE  H15R17065   3.749   1.605   4.963 -0.4167  0.3512 -0.6735
  154SAPE  C21617066   3.729   1.400   4.884  0.5400 -0.1496 -0.0584
  154SAPE  H16R17067   3.768   1.300   4.913  0.6183 -0.4774 -1.2514
  154SAPE  H16S17068   3.791   1.431   4.797  0.1975  2.0826  0.4138
  154SAPE  C21717069   3.585   1.394   4.825  0.3157  0.0707  0.2152
  154SAPE  H17R17070   3.554   1.495   4.792  0.1396 -0.4350 -1.2581
  154SAPE  H17S17071   3.520   1.365   4.910  0.4049  1.2661  0.7059
  154SAPE  C21817072   3.567   1.298   4.702 -1.2550  0.4206 -0.2007
  154SAPE  H18R17073   3.585   1.193   4.730  0.8184  0.1717 -2.1864
  154SAPE  H18S17074   3.642   1.338   4.630  0.2496  0.4753  1.3563
  154SAPE  C21917075   3.434   1.326   4.640 -0.0518 -0.5917 -0.4045
  154SAPE  H19R17076   3.418   1.433   4.615  1.1148 -0.0112  1.1448
  154SAPE  H19S17077   3.361   1.306   4.722 -0.4790  2.2362  0.0112
  154SAPE  C22017078   3.420   1.253   4.506  0.0601  0.4524  0.0145
  154SAPE  H20R17079   3.325   1.284   4.456 -0.9977 -1.0797  1.0020
  154SAPE  H20S17080   3.419   1.144   4.524  2.3072  0.0226 -1.9558
  154SAPE  H20T17081   3.510   1.281   4.447  0.4071 -1.6142 -0.4829
  154SAPE   C3317082   3.756   0.600   6.062 -0.0131  0.4941  0.1703
  154SAPE   H3X17083   3.691   0.554   5.984 -1.1057  1.4593  0.4784
  154SAPE   H3Y17084   3.852   0.548   6.043 -0.8446 -0.9521 -0.2295
  154SAPE   C3417085   3.784   0.754   6.018 -0.3824  0.5449  0.2241
  154SAPE   H4X17086   3.835   0.800   6.105 -0.8830  0.1066  0.7551
  154SAPE   H4Y17087   3.685   0.803   6.007 -0.2389  0.6645 -0.6221
  154SAPE   C3517088   3.861   0.753   5.887  0.2927  0.1319 -0.0439
  154SAPE   H5X17089   3.799   0.692   5.818 -1.2896  0.0266  1.3884
  154SAPE   H5Y17090   3.957   0.702   5.911 -0.6742 -0.7637  2.2511
  154SAPE   C3617091   3.881   0.894   5.830 -0.5499 -0.1206 -0.4632
  154SAPE   H6X17092   3.933   0.941   5.916  0.0403  0.5510 -1.1678
  154SAPE   H6Y17093   3.789   0.946   5.795 -0.5388 -0.2086 -0.6264
  154SAPE   C3717094   3.974   0.881   5.706  0.2002  0.1738 -0.7043
  154SAPE   H7X17095   3.916   0.835   5.624  2.2083 -0.4074 -1.8579
  154SAPE   H7Y17096   4.059   0.813   5.729  1.2585  2.0259  1.2358
  154SAPE   C3817097   4.022   1.019   5.662 -0.3521 -0.4998  0.3070
  154SAPE   H8X17098   4.113   1.044   5.721 -0.2153  1.4592 -0.6507
  154SAPE   H8Y17099   3.950   1.097   5.692  0.7620 -0.1051  2.1396
  154SAPE   C3917100   4.054   1.027   5.514 -0.0733  0.2561 -0.1520
  154SAPE   H9X17101   3.959   1.025   5.456  1.0561 -1.5786 -2.0987
  154SAPE   H9Y17102   4.117   0.939   5.490  2.5848  1.4927  1.7672
  154SAPE  C31017103   4.119   1.161   5.477  0.0023  0.9846  0.0831
  154SAPE  H10X17104   4.226   1.152   5.505 -0.2648 -3.7818  0.5137
  154SAPE  H10Y17105   4.076   1.248   5.531 -2.8743 -0.3299  0.1293
  154SAPE  C31117106   4.110   1.179   5.325 -0.4527 -0.0328 -0.0241
  154SAPE  H11X17107   4.012   1.201   5.278  0.4299 -0.0953 -1.9926
  154SAPE  H11Y17108   4.153   1.090   5.273 -1.3490 -1.2045  1.1773
  154SAPE  C31217109   4.206   1.295   5.287  0.0176  0.4494  0.4485
  154SAPE  H12X17110   4.311   1.261   5.300 -0.7381 -1.8095  1.1260
  154SAPE  H12Y17111   4.173   1.384   5.344 -3.6099 -0.4817  0.0742
  154SAPE  C31317112   4.191   1.324   5.134 -0.4332 -0.1979 -0.3124
  154SAPE  H13X17113   4.088   1.359   5.111 -1.1413 -0.9313  1.4909
  154SAPE  H13Y17114   4.222   1.234   5.076  2.2844  1.4660 -1.6497
  154SAPE  C31417115   4.289   1.435   5.092  0.5766 -0.1594  0.5480
  154SAPE  H14X17116   4.396   1.404   5.098  0.5700 -0.1415  0.7485
  154SAPE  H14Y17117   4.276   1.525   5.155 -1.2957  0.1973 -0.2902
  154SAPE  C31517118   4.259   1.474   4.937 -0.1462 -0.2375 -0.8903
  154SAPE  H15X17119   4.157   1.519   4.932 -1.0571 -2.1262 -0.4369
  154SAPE  H15Y17120   4.252   1.386   4.869 -1.6311  0.1159 -1.2386
  154SAPE  C31617121   4.363   1.568   4.870 -0.1540  0.3952 -0.3123
  154SAPE  H16X17122   4.461   1.517   4.880 -1.1759 -1.4276  0.9542
  154SAPE  H16Y17123   4.374   1.649   4.946  1.3309 -0.6625  0.6518
  154SAPE  C31717124   4.328   1.625   4.732  0.5379 -0.7623  0.1355
  154SAPE  H17X17125   4.407   1.696   4.700 -0.1161 -0.1616 -0.1731
  154SAPE  H17Y17126   4.235   1.685   4.729  0.5589 -0.7549 -1.1665
  154SAPE  C31817127   4.316   1.522   4.620  0.7985  0.0738  0.1107
  154SAPE  H18X17128   4.257   1.437   4.661  0.3340 -0.4331 -1.5212
  154SAPE  H18Y17129   4.416   1.501   4.577  0.7064  2.5897 -1.5144
  154SAPE  H18Z17130   4.257   1.569   4.539 -0.5742  1.7213  1.9492
  155SAPE     N17131   6.454   4.822   6.736  0.6048  0.1303 -0.6372
  155SAPE   HN117132   6.472   4.835   6.838 -0.2250  3.5096 -0.8103
  155SAPE   HN217133   6.417   4.727   6.719 -0.2963 -0.0583  1.8544
  155SAPE   HN317134   6.543   4.813   6.683  0.4708 -1.3758 -0.6524
  155SAPE   C1217135   6.345   4.924   6.691 -0.2628 -0.0451 -0.4416
  155SAPE  H12A17136   6.246   4.902   6.738  1.0117 -1.4693  1.8133
  155SAPE  H12B17137   6.336   4.923   6.581  0.8919  1.0431 -0.5679
  155SAPE   C1117138   6.394   5.065   6.743  0.2995  0.0271  0.6320
  155SAPE  H11A17139   6.411   5.053   6.852  0.2837  1.8887  0.8607
  155SAPE  H11B17140   6.317   5.141   6.722 -0.7746 -1.4791 -1.1763
  155SAPE     P17141   6.544   5.233   6.610  0.2154  0.1769  0.0842
  155SAPE   O1317142   6.515   5.341   6.705 -0.7245 -0.1699  0.1125
  155SAPE   O1417143   6.683   5.234   6.556  0.2319  0.1395 -0.2929
  155SAPE   O1217144   6.519   5.091   6.679  0.4697 -0.2697 -0.5571
  155SAPE   O1117145   6.438   5.238   6.499 -0.6279  0.7152  0.0273
  155SAPE    C117146   6.416   5.172   6.372 -0.1986  0.2445  0.3667
  155SAPE    HA17147   6.490   5.090   6.361  1.2551  1.5216  0.3376
  155SAPE    HB17148   6.313   5.129   6.365  2.0182 -6.1445  0.5901
  155SAPE    C217149   6.447   5.266   6.256 -0.1051 -0.5842  0.6264
  155SAPE    HS17150   6.556   5.280   6.261  0.0391 -1.4624  0.2985
  155SAPE   O2117151   6.376   5.387   6.262  0.0500 -0.3554  0.2235
  155SAPE   C2117152   6.449   5.487   6.224 -0.3285 -0.5945 -0.3292
  155SAPE   O2217153   6.558   5.483   6.167  0.1816 -0.0444  0.7728
  155SAPE   C2217154   6.380   5.623   6.257 -0.4811 -0.2915  0.5242
  155SAPE   H2R17155   6.363   5.614   6.366 -1.5494 -5.4401  0.2067
  155SAPE   H2S17156   6.459   5.700   6.241 -2.5920  1.9634  0.3384
  155SAPE    C317157   6.407   5.195   6.125 -0.8855 -0.2729  0.2084
  155SAPE    HX17158   6.298   5.177   6.119 -0.8436 -0.1972 -0.8812
  155SAPE    HY17159   6.457   5.095   6.124  0.1791  0.2419 -0.2002
  155SAPE   O3117160   6.431   5.272   6.014 -0.5476 -0.3084  0.5536
  155SAPE   C3117161   6.553   5.264   5.954 -0.0068  0.6004 -0.5461
  155SAPE   O3217162   6.649   5.208   6.001  0.1990  0.5521 -0.2826
  155SAPE   C3217163   6.553   5.339   5.824 -0.7907 -0.2979 -0.3822
  155SAPE   H2X17164   6.466   5.405   5.808 -0.2170  0.2201 -1.4866
  155SAPE   H2Y17165   6.560   5.265   5.741  0.9074  0.3943 -0.9166
  155SAPE   C2317166   6.252   5.649   6.173  0.0771 -0.3425  0.3206
  155SAPE   H3R17167   6.203   5.739   6.214  1.8503  0.6681  0.3390
  155SAPE   H3S17168   6.192   5.558   6.193 -1.6926  1.1421  2.1099
  155SAPE   C2417169   6.278   5.676   6.021  0.0300  0.1559 -0.1972
  155SAPE   H4R17170   6.367   5.615   5.994  0.9978 -0.0240  2.9336
  155SAPE   H4S17171   6.319   5.779   6.012  3.3958 -0.7440  2.4369
  155SAPE   C2517172   6.177   5.667   5.915 -0.3674 -0.0924  0.5232
  155SAPE   H5R17173   6.143   5.765   5.878 -1.0736 -0.2162  0.8203
  155SAPE   C2617174   6.116   5.558   5.863 -0.3731 -0.1593 -0.4356
  155SAPE   H6R17175   6.064   5.581   5.769  1.7395 -0.1383 -1.6455
  155SAPE   C2717176   6.143   5.413   5.878  0.5701  0.7284  0.4665
  155SAPE   H7R17177   6.232   5.403   5.945  1.6856  2.7179 -0.6446
  155SAPE   H7S17178   6.175   5.380   5.777  1.4638 -0.1939  1.0225
  155SAPE   C2817179   6.026   5.333   5.926 -0.2595  0.7253  0.1471
  155SAPE   H8R17180   6.045   5.278   6.019  1.3449 -0.8428 -1.0574
  155SAPE   C2917181   5.921   5.302   5.843 -0.0879 -0.4227  0.1793
  155SAPE   H9R17182   5.843   5.238   5.887 -0.6541  1.6071  2.3492
  155SAPE  C21017183   5.901   5.350   5.701 -0.2944 -0.7582  0.2949
  155SAPE  H10R17184   5.999   5.373   5.653 -1.8454 -1.4967 -3.5660
  155SAPE  H10S17185   5.848   5.447   5.706  0.0780 -0.6016  1.5879
  155SAPE  C21117186   5.837   5.252   5.609  0.0711  0.2884 -0.2758
  155SAPE  H11R17187   5.752   5.191   5.643  0.2791 -0.9827 -1.9187
  155SAPE  C21217188   5.884   5.219   5.483  0.5876  0.7389  0.3832
  155SAPE  H12R17189   5.837   5.130   5.438  0.6089 -0.2122  2.1474
  155SAPE  C21317190   6.005   5.272   5.403  0.0937  0.6701 -0.0377
  155SAPE  H13R17191   5.995   5.383   5.407 -1.8718  0.6094 -1.7806
  155SAPE  H13S17192   5.992   5.247   5.296 -0.5535 -2.1593  0.6130
  155SAPE  C21417193   6.143   5.230   5.454 -0.1259 -0.0892 -0.1166
  155SAPE  H14R17194   6.167   5.248   5.560 -3.1162  0.0651  0.6213
  155SAPE  C21517195   6.237   5.160   5.381  0.5473 -0.1602 -1.2326
  155SAPE  H15R17196   6.336   5.151   5.427  0.6388 -1.6536 -1.6683
  155SAPE  C21617197   6.212   5.116   5.241  0.5771 -0.4168 -0.1449
  155SAPE  H16R17198   6.106   5.086   5.225  1.0995 -1.6503 -1.4810
  155SAPE  H16S17199   6.274   5.025   5.232  0.6066 -0.3106 -1.1380
  155SAPE  C21717200   6.234   5.221   5.138  0.5978  0.1627 -0.7178
  155SAPE  H17R17201   6.189   5.320   5.160  3.0635  1.5700 -1.6622
  155SAPE  H17S17202   6.192   5.186   5.041 -1.9735 -1.4506  0.8461
  155SAPE  C21817203   6.381   5.251   5.107  0.0291 -0.3423 -0.3499
  155SAPE  H18R17204   6.436   5.273   5.201 -0.2473  0.6155 -0.3994
  155SAPE  H18S17205   6.386   5.339   5.040 -0.2981  2.3549  2.9295
  155SAPE  C21917206   6.449   5.138   5.035 -0.4358  0.3420  0.1944
  155SAPE  H19R17207   6.385   5.116   4.947 -2.2725  0.3047  1.4926
  155SAPE  H19S17208   6.450   5.051   5.104  0.2961  1.6602  1.9175
  155SAPE  C22017209   6.599   5.168   5.004 -0.0338 -0.3725  0.7311
  155SAPE  H20R17210   6.657   5.179   5.098  1.1884  2.6160 -0.2691
  155SAPE  H20S17211   6.616   5.256   4.938 -1.1533  0.4662  1.5237
  155SAPE  H20T17212   6.638   5.077   4.954 -1.0500 -0.4331  0.0067
  155SAPE   C3317213   6.687   5.415   5.809 -0.7504 -0.1369  0.3250
  155SAPE   H3X17214   6.772   5.345   5.825  0.4025  1.4822  1.7015
  155SAPE   H3Y17215   6.698   5.496   5.885 -1.5994 -1.7310  2.2317
  155SAPE   C3417216   6.699   5.480   5.674 -0.9603 -0.3675  0.1745
  155SAPE   H4X17217   6.614   5.552   5.667  0.5759  1.3114 -3.4900
  155SAPE   H4Y17218   6.676   5.398   5.602  0.9302  0.5177 -1.5318
  155SAPE   C3517219   6.829   5.559   5.646 -0.1955  0.1822  0.4811
  155SAPE   H5X17220   6.900   5.491   5.699 -0.9885 -1.3253 -0.3240
  155SAPE   H5Y17221   6.841   5.660   5.690  1.2353  1.2338 -2.1233
  155SAPE   C3617222   6.867   5.560   5.494 -0.6045 -0.7615 -0.3008
  155SAPE   H6X17223   6.971   5.598   5.488 -0.5780 -0.6514  0.6790
  155SAPE   H6Y17224   6.800   5.638   5.453 -1.3720 -0.5564  1.2583
  155SAPE   C3717225   6.870   5.422   5.418 -0.2817  0.9323  0.0988
  155SAPE   H7X17226   6.764   5.402   5.392 -0.9562  1.4939  2.2027
  155SAPE   H7Y17227   6.915   5.336   5.472  0.2042  2.8480  2.9833
  155SAPE   C3817228   6.928   5.432   5.272 -0.4278  0.0135 -0.0476
  155SAPE   H8X17229   6.932   5.330   5.227 -0.2774  0.6501 -1.5251
  155SAPE   H8Y17230   7.034   5.466   5.279 -0.7562  0.7944  1.4379
  155SAPE   C3917231   6.843   5.510   5.177  0.7473  1.1752  0.7451
  155SAPE   H9X17232   6.814   5.606   5.224 -0.1759  0.6294  1.3148
  155SAPE   H9Y17233   6.750   5.455   5.152  1.9600  0.4415 -2.6443
  155SAPE  C31017234   6.901   5.557   5.041 -0.7004  0.0660  0.1832
  155SAPE  H10X17235   6.961   5.483   4.985 -1.0024 -0.5352  0.6385
  155SAPE  H10Y17236   6.967   5.639   5.076 -2.4441  0.8111  1.9006
  155SAPE  C31117237   6.795   5.621   4.953  0.5386  0.0330  0.4728
  155SAPE  H11X17238   6.735   5.688   5.017  0.0535  0.4898 -0.4513
  155SAPE  H11Y17239   6.729   5.539   4.919  1.3112 -0.1924 -0.5357
  155SAPE  C31217240   6.839   5.700   4.829 -0.1370 -0.2656 -0.6461
  155SAPE  H12X17241   6.924   5.760   4.866  1.0989 -1.0305 -2.1737
  155SAPE  H12Y17242   6.759   5.770   4.795  0.3914 -1.0904 -3.9016
  155SAPE  C31317243   6.895   5.623   4.714  0.4647  0.6425  0.0486
  155SAPE  H13X17244   6.809   5.576   4.662  1.1808  0.0934 -0.6597
  155SAPE  H13Y17245   6.958   5.553   4.772  0.5713 -0.2311 -1.0973
  155SAPE  C31417246   6.967   5.707   4.602  0.0286  0.9410 -0.3153
  155SAPE  H14X17247   7.064   5.747   4.638  1.3297 -0.9500 -1.4951
  155SAPE  H14Y17248   6.891   5.783   4.572  1.8003  1.8626 -2.8252
  155SAPE  C31517249   6.990   5.608   4.488 -0.2147  0.3006  0.1730
  155SAPE  H15X17250   6.886   5.580   4.461 -0.5504 -0.6923  2.3133
  155SAPE  H15Y17251   7.047   5.518   4.522 -0.9946 -0.2176  0.1359
  155SAPE  C31617252   7.057   5.659   4.357  0.7815  0.2242 -0.0525
  155SAPE  H16X17253   7.010   5.759   4.345 -1.2009 -0.6241  0.2956
  155SAPE  H16Y17254   7.026   5.599   4.269 -0.9196  0.0989  0.5995
  155SAPE  C31717255   7.207   5.676   4.355 -0.0184 -0.1347 -0.1913
  155SAPE  H17X17256   7.259   5.578   4.352  1.4850  0.6524 -1.1346
  155SAPE  H17Y17257   7.241   5.731   4.446  0.9110 -0.0080 -0.6124
  155SAPE  C31817258   7.245   5.767   4.242  0.1151  0.0194  0.6367
  155SAPE  H18X17259   7.349   5.802   4.262 -0.9890  3.0588  1.5040
  155SAPE  H18Y17260   7.184   5.859   4.240 -2.6922 -1.6746  1.6059
  155SAPE  H18Z17261   7.228   5.720   4.142 -3.4435  1.7557  0.2648
  156SAPE     N17262   0.326   2.024   6.508  0.1063  0.7130  0.1434
  156SAPE   HN117263   0.264   2.030   6.591  0.2465  1.8938  0.1775
  156SAPE   HN217264   0.295   1.944   6.449  0.1263 -0.0531  1.1536
  156SAPE   HN317265   0.426   2.006   6.531  0.7020 -0.2644 -2.7196
  156SAPE   C1217266   0.317   2.158   6.439  0.3816  0.0231 -0.3630
  156SAPE  H12A17267   0.372   2.224   6.510  3.8268 -0.7225 -2.0834
  156SAPE  H12B17268   0.209   2.176   6.420  0.2907 -0.1409 -0.0195
  156SAPE   C1117269   0.415   2.170   6.319 -0.3143  0.2823  0.3313
  156SAPE  H11A17270   0.397   2.258   6.255 -0.3000  0.1349  0.1249
  156SAPE  H11B17271   0.391   2.090   6.246 -2.9814  0.3188  1.0511
  156SAPE     P17272   0.642   2.056   6.352  0.0050  0.4969 -0.2448
  156SAPE   O1317273   0.781   2.085   6.401 -0.4071  0.3512 -0.3287
  156SAPE   O1417274   0.583   1.945   6.425 -0.6678  0.6830 -0.0328
  156SAPE   O1217275   0.549   2.183   6.369 -0.0540 -0.4452  0.2121
  156SAPE   O1117276   0.669   2.023   6.196 -0.8227 -0.1386  0.3588
  156SAPE    C117277   0.687   2.131   6.106  0.5383 -0.0037 -0.0207
  156SAPE    HA17278   0.618   2.218   6.115  1.4878  0.7041  0.7672
  156SAPE    HB17279   0.783   2.185   6.120  0.8664 -0.8566  1.1665
  156SAPE    C217280   0.672   2.096   5.957 -0.0814 -0.9887 -0.2025
  156SAPE    HS17281   0.652   2.191   5.904 -0.1969 -1.4982 -1.0797
  156SAPE   O2117282   0.568   2.001   5.932  0.0465 -0.4078  0.0502
  156SAPE   C2117283   0.447   2.051   5.953  0.8337 -1.1920  0.0812
  156SAPE   O2217284   0.415   2.159   5.995 -0.6120 -0.5390 -0.1941
  156SAPE   C2217285   0.344   1.944   5.922  0.0644 -0.2530  0.0582
  156SAPE   H2R17286   0.396   1.859   5.874  1.6830  0.5367  0.3582
  156SAPE   H2S17287   0.303   1.919   6.022 -0.9962  1.1745  0.0166
  156SAPE    C317288   0.802   2.023   5.905 -0.0576 -0.4270  0.0306
  156SAPE    HX17289   0.815   1.925   5.955  3.6743  0.8564  2.0005
  156SAPE    HY17290   0.893   2.083   5.929  0.1370 -0.2492 -1.0924
  156SAPE   O3117291   0.790   1.993   5.763  0.0220  0.2547  0.1639
  156SAPE   C3117292   0.875   2.054   5.672  0.2205  0.0103 -0.2544
  156SAPE   O3217293   0.961   2.137   5.699 -0.2413  0.2206 -0.6803
  156SAPE   C3217294   0.862   1.983   5.539 -0.6794 -0.2005  0.2108
  156SAPE   H2X17295   0.827   1.879   5.549 -3.3337  0.4913 -1.0079
  156SAPE   H2Y17296   0.962   1.978   5.491 -0.6512 -1.5683  0.3995
  156SAPE   C2317297   0.225   1.997   5.834  1.0773  0.4387 -0.4813
  156SAPE   H3R17298   0.169   2.082   5.878  0.4543 -0.9418  1.5356
  156SAPE   H3S17299   0.154   1.912   5.824  2.0248 -0.3378 -0.7727
  156SAPE   C2417300   0.268   2.020   5.691 -0.1293  0.0627  0.9224
  156SAPE   H4R17301   0.187   1.968   5.636 -0.7535 -0.0323  1.9008
  156SAPE   H4S17302   0.367   1.975   5.669 -0.3592 -0.1885  0.4019
  156SAPE   C2517303   0.280   2.169   5.660  0.0237 -0.0974  0.2792
  156SAPE   H5R17304   0.271   2.227   5.753 -2.0335  0.7907 -0.4120
  156SAPE   C2617305   0.277   2.224   5.538  0.2137  0.0094 -1.0703
  156SAPE   H6R17306   0.259   2.332   5.524 -1.2864  0.1028  1.0581
  156SAPE   C2717307   0.283   2.153   5.407 -0.2691  0.3749 -1.0370
  156SAPE   H7R17308   0.268   2.044   5.421  0.1959  0.6740  2.9563
  156SAPE   H7S17309   0.391   2.156   5.380  0.2660  1.4298  0.9942
  156SAPE   C2817310   0.186   2.193   5.299 -0.3134 -0.1551 -0.7159
  156SAPE   H8R17311   0.107   2.265   5.326 -1.8599 -0.8620 -3.0600
  156SAPE   C2917312   0.201   2.159   5.170 -0.3224  0.5777 -0.3514
  156SAPE   H9R17313   0.139   2.213   5.098 -1.6177  0.6311  0.7592
  156SAPE  C21017314   0.307   2.061   5.116 -0.2392  0.5376  0.4045
  156SAPE  H10R17315   0.373   2.013   5.192  1.4359  1.6783 -0.2664
  156SAPE  H10S17316   0.373   2.117   5.047  2.0314 -2.0440  0.3180
  156SAPE  C21117317   0.237   1.945   5.058  0.6389  0.4758  0.2076
  156SAPE  H11R17318   0.169   1.895   5.129 -0.5031  0.6921 -0.6964
  156SAPE  C21217319   0.266   1.881   4.941 -0.1863 -0.2634 -0.4195
  156SAPE  H12R17320   0.208   1.790   4.920 -1.0192  0.1008  0.2277
  156SAPE  C21317321   0.365   1.927   4.840 -0.2373  0.0679 -0.6937
  156SAPE  H13R17322   0.444   1.850   4.823  0.0530  0.3890 -0.8166
  156SAPE  H13S17323   0.419   2.019   4.873 -0.0345 -0.2914  0.0047
  156SAPE  C21417324   0.310   1.938   4.699 -0.6338 -0.3119  0.7044
  156SAPE  H14R17325   0.333   1.853   4.633 -1.8703 -0.5809  0.5980
  156SAPE  C21517326   0.214   2.023   4.653  0.3002 -0.4775 -0.7831
  156SAPE  H15R17327   0.191   2.022   4.546 -1.5032 -2.1525 -0.4166
  156SAPE  C21617328   0.150   2.136   4.738 -0.4274  0.0002  0.3143
  156SAPE  H16R17329   0.154   2.231   4.681 -2.2203 -1.8012 -3.1382
  156SAPE  H16S17330   0.212   2.149   4.829 -0.0592  2.2776 -0.2097
  156SAPE  C21717331   0.004   2.100   4.773 -0.8575  0.1470  0.2673
  156SAPE  H17R17332  -0.035   2.182   4.835  0.4025  0.2481  0.9648
  156SAPE  H17S17333   0.005   2.011   4.840  0.1835  0.9132  1.3113
  156SAPE  C21817334  -0.086   2.073   4.656 -0.1004 -0.2384  0.0057
  156SAPE  H18R17335  -0.187   2.044   4.694 -0.6801  0.8916 -0.6381
  156SAPE  H18S17336  -0.042   1.985   4.605  0.7183  0.6659 -0.8816
  156SAPE  C21917337  -0.102   2.193   4.560 -0.5202  0.8317  0.8946
  156SAPE  H19R17338  -0.000   2.222   4.525 -0.8415 -0.0088 -0.8945
  156SAPE  H19S17339  -0.145   2.285   4.605  0.6017  0.7352  2.2089
  156SAPE  C22017340  -0.185   2.174   4.433  0.5404  0.2416  0.2853
  156SAPE  H20R17341  -0.173   2.269   4.378  0.1040  1.3158  1.9535
  156SAPE  H20S17342  -0.293   2.156   4.454  0.4606  1.5571  1.1326
  156SAPE  H20T17343  -0.140   2.092   4.374  2.4092  0.4883  1.2735
  156SAPE   C3317344   0.778   2.066   5.441 -0.0194  0.5794 -0.6229
  156SAPE   H3X17345   0.795   2.174   5.460  2.8365 -0.3902  3.8272
  156SAPE   H3Y17346   0.671   2.045   5.462  0.6912 -1.6654  1.2346
  156SAPE   C3417347   0.805   2.019   5.298  1.0779  0.6737 -0.2219
  156SAPE   H4X17348   0.757   1.923   5.268 -0.4578  1.9699 -2.1421
  156SAPE   H4Y17349   0.912   1.995   5.280  0.5536  0.1061 -3.1295
  156SAPE   C3517350   0.754   2.119   5.195 -0.2196 -1.0494  0.0436
  156SAPE   H5X17351   0.814   2.212   5.195  0.4737 -1.4885  0.2671
  156SAPE   H5Y17352   0.647   2.139   5.215 -0.3708 -1.5413 -0.2455
  156SAPE   C3617353   0.769   2.054   5.054 -0.0412  0.9201 -0.3033
  156SAPE   H6X17354   0.713   1.959   5.052  0.6546  0.3604  2.1588
  156SAPE   H6Y17355   0.878   2.047   5.033  0.1287  1.8688  0.1726
  156SAPE   C3717356   0.708   2.143   4.941  0.1731 -0.6023 -0.0022
  156SAPE   H7X17357   0.758   2.241   4.957  0.8303 -0.9876  0.3616
  156SAPE   H7Y17358   0.601   2.160   4.966  0.0704 -1.2289 -0.0197
  156SAPE   C3817359   0.738   2.078   4.803  0.4536 -0.5439 -0.6016
  156SAPE   H8X17360   0.670   1.994   4.778  1.1121 -1.5467  0.8842
  156SAPE   H8Y17361   0.838   2.031   4.814  1.2943  1.4547  0.8584
  156SAPE   C3917362   0.740   2.188   4.697  0.4892  0.0006  0.2594
  156SAPE   H9X17363   0.805   2.263   4.748 -0.4846 -0.7593  2.7964
  156SAPE   H9Y17364   0.639   2.233   4.688  0.3691 -0.0168  1.4008
  156SAPE  C31017365   0.789   2.134   4.558  0.1918  0.2927 -0.8387
  156SAPE  H10X17366   0.861   2.056   4.590  0.8473  1.1890 -0.0596
  156SAPE  H10Y17367   0.833   2.221   4.503 -0.2283 -0.1485 -1.8830
  156SAPE  C31117368   0.668   2.084   4.475  0.3880  0.3503  0.9548
  156SAPE  H11X17369   0.591   2.164   4.478 -0.3201 -0.2496 -0.2211
  156SAPE  H11Y17370   0.626   1.994   4.527  0.2620 -0.4391 -0.4513
  156SAPE  C31217371   0.695   2.036   4.327 -0.0011  0.1788  0.9890
  156SAPE  H12X17372   0.776   1.961   4.318 -0.3420 -0.0461 -0.4040
  156SAPE  H12Y17373   0.726   2.122   4.264 -1.2393  0.6169  0.9398
  156SAPE  C31317374   0.574   1.971   4.254  0.0124 -0.0966 -0.5084
  156SAPE  H13X17375   0.494   2.045   4.234 -0.0931 -0.8822 -3.4567
  156SAPE  H13Y17376   0.535   1.892   4.321 -0.7816  0.6574 -0.0587
  156SAPE  C31417377   0.628   1.916   4.119  0.0757  0.2651 -0.3641
  156SAPE  H14X17378   0.715   1.850   4.139 -0.4087 -0.6039 -1.0549
  156SAPE  H14Y17379   0.654   1.995   4.046 -1.8628  1.2276 -0.0739
  156SAPE  C31517380   0.533   1.805   4.074 -0.7616  0.4469 -0.3570
  156SAPE  H15X17381   0.541   1.719   4.144 -1.5908 -0.2580 -1.1107
  156SAPE  H15Y17382   0.559   1.762   3.976 -0.0654 -2.6777  1.0850
  156SAPE  C31617383   0.385   1.856   4.076 -0.6045  0.0296 -0.1312
  156SAPE  H16X17384   0.381   1.965   4.055 -2.4009 -0.0978 -0.6305
  156SAPE  H16Y17385   0.348   1.831   4.178 -0.2889 -1.1488 -0.2866
  156SAPE  C31717386   0.305   1.801   3.957  0.6017 -0.1415  0.5256
  156SAPE  H17X17387   0.328   1.867   3.871 -2.3399  2.8843  1.8615
  156SAPE  H17Y17388   0.196   1.813   3.972  0.4012 -2.5187  1.5332
  156SAPE  C31817389   0.329   1.654   3.925  0.4463 -0.2715  0.3645
  156SAPE  H18X17390   0.280   1.633   3.828  1.6599  2.4348 -0.9659
  156SAPE  H18Y17391   0.301   1.593   4.013  0.5113 -1.1848 -0.2419
  156SAPE  H18Z17392   0.436   1.627   3.915  0.5200  0.0618  0.2411
  157SAPE     N17393   1.728   0.664   6.442 -0.4523 -0.1587 -0.3899
  157SAPE   HN117394   1.815   0.720   6.430 -0.9197  0.8534  0.7288
  157SAPE   HN217395   1.717   0.635   6.541 -1.4635 -1.1307 -0.7737
  157SAPE   HN317396   1.731   0.573   6.392 -0.0263 -2.8391  3.9912
  157SAPE   C1217397   1.616   0.750   6.391  0.6673 -0.4037  0.3343
  157SAPE  H12A17398   1.637   0.759   6.282 -0.9612  2.5853  0.1502
  157SAPE  H12B17399   1.627   0.849   6.441  0.1385 -0.6534  0.9537
  157SAPE   C1117400   1.474   0.687   6.418  0.6350 -0.1218  0.4031
  157SAPE  H11A17401   1.393   0.735   6.360  0.4874 -0.3844  0.3873
  157SAPE  H11B17402   1.451   0.705   6.526  2.1421 -0.9280  0.8979
  157SAPE     P17403   1.367   0.451   6.434  0.0603 -0.4958 -0.1495
  157SAPE   O1317404   1.422   0.323   6.469 -0.2784  0.3060  0.6860
  157SAPE   O1417405   1.274   0.513   6.530 -0.4759 -0.5489  0.0934
  157SAPE   O1217406   1.484   0.553   6.392 -0.7703 -0.1729  0.2795
  157SAPE   O1117407   1.286   0.419   6.304 -0.3724  0.1874  0.4588
  157SAPE    C117408   1.343   0.356   6.189 -0.7322 -0.2102  0.4245
  157SAPE    HA17409   1.422   0.283   6.218  2.5560  2.3402 -1.3169
  157SAPE    HB17410   1.261   0.306   6.134  0.8375  0.3811 -2.7371
  157SAPE    C217411   1.412   0.463   6.097 -0.3812  0.3267 -0.2102
  157SAPE    HS17412   1.498   0.512   6.149 -0.1984 -0.3601  0.1450
  157SAPE   O2117413   1.323   0.556   6.053  0.7391 -0.2353  0.5744
  157SAPE   C2117414   1.365   0.676   6.006 -0.2498  0.7707  0.6634
  157SAPE   O2217415   1.480   0.708   6.012 -0.3811 -1.1096 -0.2634
  157SAPE   C2217416   1.251   0.744   5.938  0.2324 -0.3668  0.1552
  157SAPE   H2R17417   1.196   0.669   5.877  3.5168 -0.3014 -3.2135
  157SAPE   H2S17418   1.187   0.794   6.014 -1.0151  0.3169 -1.2814
  157SAPE    C317419   1.478   0.383   5.982  0.3656  0.8844 -0.0722
  157SAPE    HX17420   1.570   0.344   6.030  0.3936  0.9772 -0.0501
  157SAPE    HY17421   1.516   0.459   5.910  0.8869 -0.7267 -1.5810
  157SAPE   O3117422   1.394   0.287   5.922 -0.3332 -0.1549 -0.2021
  157SAPE   C3117423   1.313   0.335   5.824 -0.7082  0.1153 -0.2647
  157SAPE   O3217424   1.318   0.448   5.779 -0.6579  0.2758  0.4057
  157SAPE   C3217425   1.224   0.226   5.772 -0.1437 -0.0506  0.0997
  157SAPE   H2X17426   1.139   0.277   5.722  0.0404  0.1257 -0.0319
  157SAPE   H2Y17427   1.189   0.172   5.863 -1.3723  0.2680 -0.1717
  157SAPE   C2317428   1.306   0.852   5.841  0.3980 -0.4415 -0.0635
  157SAPE   H3R17429   1.382   0.912   5.896  1.1350 -1.3401 -0.0694
  157SAPE   H3S17430   1.228   0.925   5.812 -0.8236 -1.5718  0.2979
  157SAPE   C2417431   1.363   0.805   5.704 -0.3697  0.2884 -0.2476
  157SAPE   H4R17432   1.377   0.895   5.640  1.4567 -0.4794 -0.9945
  157SAPE   H4S17433   1.276   0.755   5.657  0.2620 -1.6015  0.4902
  157SAPE   C2517434   1.477   0.710   5.697 -0.5780 -0.0938  0.1148
  157SAPE   H5R17435   1.477   0.635   5.777  2.2334 -2.9511 -2.2913
  157SAPE   C2617436   1.570   0.698   5.598  0.8601 -0.3203  0.3426
  157SAPE   H6R17437   1.655   0.632   5.618 -0.4980 -1.3224  3.5147
  157SAPE   C2717438   1.571   0.793   5.475  0.1522  0.1920 -0.4438
  157SAPE   H7R17439   1.479   0.856   5.471  0.3923  0.8220  2.1359
  157SAPE   H7S17440   1.568   0.727   5.386 -0.6007  1.2844 -1.2546
  157SAPE   C2817441   1.696   0.881   5.468 -0.0341 -0.5291  0.2908
  157SAPE   H8R17442   1.707   0.938   5.562 -0.5845 -0.5885  0.3989
  157SAPE   C2917443   1.778   0.905   5.367 -0.5267 -0.4700 -0.1491
  157SAPE   H9R17444   1.870   0.963   5.385 -0.8407 -0.1020  0.2713
  157SAPE  C21017445   1.783   0.820   5.242  0.5127 -0.2901 -0.3849
  157SAPE  H10R17446   1.719   0.731   5.263 -0.3370  0.4789  0.4078
  157SAPE  H10S17447   1.886   0.786   5.219  1.0486  1.7528 -1.2460
  157SAPE  C21117448   1.724   0.882   5.117  0.6825 -0.2110  0.3427
  157SAPE  H11R17449   1.645   0.958   5.127  1.1546  0.3848 -0.3566
  157SAPE  C21217450   1.736   0.831   4.993  0.1240 -0.8698  0.6498
  157SAPE  H12R17451   1.689   0.887   4.910  0.8718 -0.9096  0.1879
  157SAPE  C21317452   1.827   0.714   4.955  0.0727 -0.0299  0.4826
  157SAPE  H13R17453   1.929   0.719   4.997  0.8031  0.2289 -1.2283
  157SAPE  H13S17454   1.834   0.716   4.844 -2.8958 -2.6766  0.0947
  157SAPE  C21417455   1.776   0.580   4.985  0.7581 -0.1827 -0.7696
  157SAPE  H14R17456   1.774   0.559   5.093 -0.8825  0.2950 -0.6816
  157SAPE  C21517457   1.730   0.483   4.902  0.4239  0.2651 -0.6376
  157SAPE  H15R17458   1.696   0.390   4.951  1.9686  2.1705  4.8339
  157SAPE  C21617459   1.722   0.480   4.755 -0.3152  0.0019  0.4168
  157SAPE  H16R17460   1.729   0.583   4.714  2.3554 -1.3216 -3.0104
  157SAPE  H16S17461   1.630   0.432   4.717 -0.2086  0.9587 -1.1269
  157SAPE  C21717462   1.839   0.403   4.683  0.0184 -1.1149  0.5161
  157SAPE  H17R17463   1.871   0.314   4.743 -1.3772 -1.8737  0.1745
  157SAPE  H17S17464   1.915   0.483   4.672 -1.1756  0.5817  3.5965
  157SAPE  C21817465   1.813   0.347   4.543  0.0803 -0.6248 -0.5430
  157SAPE  H18R17466   1.735   0.268   4.541 -0.4785 -0.1505  1.1951
  157SAPE  H18S17467   1.901   0.302   4.492  2.3724  3.0083 -0.2174
  157SAPE  C21917468   1.778   0.459   4.443 -0.0940  0.9133  0.6339
  157SAPE  H19R17469   1.848   0.542   4.464 -1.4339  2.4839 -0.7898
  157SAPE  H19S17470   1.670   0.480   4.460 -0.9945 -2.3665 -0.2614
  157SAPE  C22017471   1.813   0.412   4.300 -0.6397 -0.1499  0.1117
  157SAPE  H20R17472   1.923   0.416   4.286 -0.6585  1.6555  0.2597
  157SAPE  H20S17473   1.765   0.473   4.220 -1.2072  0.7848  1.1247
  157SAPE  H20T17474   1.769   0.312   4.282 -0.9691 -0.0858  0.5372
  157SAPE   C3317475   1.291   0.128   5.669  0.1082  0.5188 -0.5061
  157SAPE   H3X17476   1.350   0.048   5.720 -1.4112 -0.3375 -0.0473
  157SAPE   H3Y17477   1.357   0.169   5.589  0.5536  0.2924 -0.2628
  157SAPE   C3417478   1.172   0.063   5.597 -0.0722 -0.1681 -0.0409
  157SAPE   H4X17479   1.086   0.034   5.662 -1.0880 -0.1302 -1.3305
  157SAPE   H4Y17480   1.199  -0.036   5.554 -0.2490  0.0973 -0.7806
  157SAPE   C3517481   1.127   0.153   5.479 -0.1392 -0.5146 -0.0159
  157SAPE   H5X17482   1.214   0.209   5.439 -1.0748 -0.1136 -1.5675
  157SAPE   H5Y17483   1.057   0.232   5.515  0.0294  0.1134 -1.0529
  157SAPE   C3617484   1.057   0.072   5.373  0.2792 -0.2741  0.0946
  157SAPE   H6X17485   0.962   0.023   5.406 -0.1132 -0.8348 -1.7597
  157SAPE   H6Y17486   1.128  -0.002   5.330  0.1371  0.6656 -1.8328
  157SAPE   C3717487   1.032   0.156   5.248 -0.1517  0.1000 -0.2668
  157SAPE   H7X17488   1.097   0.246   5.240  1.0998 -0.7661 -0.0611
  157SAPE   H7Y17489   0.926   0.190   5.251  0.6801  3.0644 -1.1936
  157SAPE   C3817490   1.064   0.068   5.125  0.3397 -0.4120  0.0117
  157SAPE   H8X17491   0.995  -0.019   5.119 -0.9851  0.4043  2.0277
  157SAPE   H8Y17492   1.166   0.025   5.136 -0.1375 -2.1276 -1.6833
  157SAPE   C3917493   1.060   0.147   5.001 -0.0463 -0.3763  0.3412
  157SAPE   H9X17494   1.118   0.240   5.020 -2.0843  1.1173 -0.3496
  157SAPE   H9Y17495   0.957   0.183   4.979 -0.7078 -1.4439  1.5521
  157SAPE  C31017496   1.111   0.064   4.882  0.5468  0.2720 -0.2098
  157SAPE  H10X17497   1.064  -0.036   4.879  1.0744  0.0235 -0.3229
  157SAPE  H10Y17498   1.221   0.052   4.881  1.0333  3.6770 -1.5652
  157SAPE  C31117499   1.083   0.138   4.747  0.1116 -0.3024 -0.5927
  157SAPE  H11X17500   0.975   0.163   4.745  0.8830  3.5750 -0.3296
  157SAPE  H11Y17501   1.102   0.068   4.663 -1.1344  0.3414 -1.4360
  157SAPE  C31217502   1.150   0.277   4.734  0.0125 -0.5243  0.0218
  157SAPE  H12X17503   1.094   0.345   4.802  1.6075 -0.5282  1.4080
  157SAPE  H12Y17504   1.138   0.316   4.631 -0.0799  1.3217  0.7031
  157SAPE  C31317505   1.295   0.311   4.770 -0.1889  0.2584 -0.0725
  157SAPE  H13X17506   1.296   0.338   4.877 -0.5862  1.7612 -0.4303
  157SAPE  H13Y17507   1.320   0.404   4.714  1.7313 -0.2533 -0.1410
  157SAPE  C31417508   1.402   0.204   4.739  0.1989 -1.1649  0.0751
  157SAPE  H14X17509   1.394   0.111   4.799  0.5285 -0.4020  1.3315
  157SAPE  H14Y17510   1.501   0.251   4.752  0.2577 -1.2178 -0.1767
  157SAPE  C31517511   1.403   0.146   4.595  0.1439  0.6208 -0.0752
  157SAPE  H15X17512   1.323   0.076   4.562  1.0991  0.0389 -1.2309
  157SAPE  H15Y17513   1.488   0.074   4.596 -0.6892 -0.5217  3.7310
  157SAPE  C31617514   1.405   0.256   4.479 -0.0168  0.2192 -0.6258
  157SAPE  H16X17515   1.463   0.344   4.514 -2.6944  1.4096  1.0999
  157SAPE  H16Y17516   1.303   0.290   4.449 -0.0662 -1.3502 -2.4608
  157SAPE  C31717517   1.465   0.192   4.349  0.4558 -0.3040 -0.5004
  157SAPE  H17X17518   1.396   0.107   4.330 -0.7544  0.2841  1.0204
  157SAPE  H17Y17519   1.563   0.145   4.370  0.1432 -0.2915  1.1640
  157SAPE  C31817520   1.475   0.282   4.227 -0.2943 -0.0968 -0.3262
  157SAPE  H18X17521   1.530   0.376   4.243 -0.1071 -0.1325 -0.7433
  157SAPE  H18Y17522   1.369   0.305   4.202 -0.3334  0.2539  0.1549
  157SAPE  H18Z17523   1.529   0.231   4.145 -0.8696 -3.3711  1.1563
  158SAPE     N17524   2.531   1.177   6.455 -0.4856 -0.0972 -0.6839
  158SAPE   HN117525   2.561   1.078   6.443 -2.1375 -0.7023 -0.0588
  158SAPE   HN217526   2.604   1.249   6.440 -2.0423  1.8600  0.6246
  158SAPE   HN317527   2.516   1.187   6.557  0.0342  1.0294 -0.7080
  158SAPE   C1217528   2.410   1.195   6.371  0.4554  0.3831  0.5846
  158SAPE  H12A17529   2.371   1.297   6.389  0.3818  0.3784  0.4560
  158SAPE  H12B17530   2.336   1.116   6.398 -1.0970  1.2423 -0.9422
  158SAPE   C1117531   2.449   1.179   6.223 -0.5282  0.0629  0.0035
  158SAPE  H11A17532   2.521   1.097   6.201 -1.0215 -0.1914 -0.6910
  158SAPE  H11B17533   2.490   1.275   6.183  0.7507 -1.4384 -2.5896
  158SAPE     P17534   2.224   1.241   6.115  0.4626  0.4719 -0.4119
  158SAPE   O1317535   2.092   1.192   6.172 -0.3265  0.4533  0.0383
  158SAPE   O1417536   2.271   1.374   6.166 -0.4701  0.0697  0.1780
  158SAPE   O1217537   2.335   1.134   6.149  0.4041 -1.0758 -0.4561
  158SAPE   O1117538   2.209   1.234   5.952  0.0646  0.0326 -0.2206
  158SAPE    C117539   2.321   1.259   5.865 -0.2110  0.5521 -0.1913
  158SAPE    HA17540   2.301   1.349   5.802 -1.2666 -0.1151 -0.8204
  158SAPE    HB17541   2.421   1.261   5.913 -0.8933  2.6114  1.3316
  158SAPE    C217542   2.343   1.149   5.755  0.1164 -0.4971 -0.2906
  158SAPE    HS17543   2.441   1.166   5.706  2.0086 -1.3080  2.9359
  158SAPE   O2117544   2.239   1.153   5.665 -0.1563  0.2260  0.1910
  158SAPE   C2117545   2.254   1.234   5.565 -0.6791 -0.3185 -0.2794
  158SAPE   O2217546   2.340   1.321   5.556  0.0171  0.4862  0.2430
  158SAPE   C2217547   2.141   1.199   5.458  0.3088  0.6242  0.5933
  158SAPE   H2R17548   2.111   1.099   5.496 -0.0891  1.0766  1.4914
  158SAPE   H2S17549   2.055   1.267   5.475  0.1939  0.8036 -0.6200
  158SAPE    C317550   2.352   1.006   5.818  0.7098  0.0555 -0.5275
  158SAPE    HX17551   2.268   0.992   5.890  0.4133  0.3685 -0.8076
  158SAPE    HY17552   2.446   1.001   5.877  0.5463  0.3017 -0.2410
  158SAPE   O3117553   2.351   0.905   5.714  0.2082 -0.1749 -0.3397
  158SAPE   C3117554   2.235   0.859   5.670 -0.8508  0.7537 -0.4880
  158SAPE   O3217555   2.125   0.879   5.722 -0.4026  1.0011  0.1499
  158SAPE   C3217556   2.267   0.776   5.546 -0.4562  0.3059 -0.4605
  158SAPE   H2X17557   2.360   0.722   5.574 -1.0526 -0.8985 -0.6884
  158SAPE   H2Y17558   2.277   0.840   5.456  0.6403  0.7719 -0.0166
  158SAPE   C2317559   2.180   1.214   5.309 -0.2500  0.1151  0.1204
  158SAPE   H3R17560   2.214   1.313   5.271  0.5446 -0.4016 -0.5630
  158SAPE   H3S17561   2.094   1.190   5.243  0.0407  2.5336 -1.2749
  158SAPE   C2417562   2.296   1.113   5.281 -0.0656 -0.1711  0.2640
  158SAPE   H4R17563   2.273   1.011   5.318  2.0532 -1.1230 -0.8256
  158SAPE   H4S17564   2.390   1.140   5.333 -1.3350 -0.0374  2.5786
  158SAPE   C2517565   2.314   1.100   5.132  0.4341 -0.8448 -0.2421
  158SAPE   H5R17566   2.376   1.184   5.096 -0.0302 -0.9324 -1.2704
  158SAPE   C2617567   2.252   1.014   5.046 -0.3578  0.0716 -0.5856
  158SAPE   H6R17568   2.274   1.033   4.940  1.6051 -1.5819 -0.5388
  158SAPE   C2717569   2.157   0.903   5.076  0.1131 -0.4582 -0.5722
  158SAPE   H7R17570   2.056   0.927   5.038 -0.5233 -0.6573  0.9212
  158SAPE   H7S17571   2.141   0.890   5.185  0.1930 -0.5581 -0.5716
  158SAPE   C2817572   2.191   0.770   5.018 -0.1676  0.2224  0.0652
  158SAPE   H8R17573   2.199   0.687   5.089  0.4855  1.1494  1.1089
  158SAPE   C2917574   2.227   0.735   4.893 -0.0122  0.1831 -0.0901
  158SAPE   H9R17575   2.251   0.629   4.880 -0.1603 -0.1341  1.9684
  158SAPE  C21017576   2.231   0.821   4.766  0.4004  0.5129 -0.6765
  158SAPE  H10R17577   2.277   0.760   4.685  2.0340 -0.3772  0.8296
  158SAPE  H10S17578   2.291   0.915   4.771 -1.2523  1.5318  0.9673
  158SAPE  C21117579   2.096   0.874   4.726 -0.1990  0.0935  0.5860
  158SAPE  H11R17580   2.025   0.881   4.810 -1.7684  1.0901 -0.7621
  158SAPE  C21217581   2.036   0.877   4.607 -0.0433 -1.2080  0.4741
  158SAPE  H12R17582   1.930   0.906   4.605  0.4793  0.8463  0.4122
  158SAPE  C21317583   2.096   0.863   4.475 -0.2955 -0.1802 -0.6131
  158SAPE  H13R17584   2.204   0.837   4.482 -0.3130 -0.2309 -0.5273
  158SAPE  H13S17585   2.107   0.962   4.426  0.9481  1.2178  2.2086
  158SAPE  C21417586   2.027   0.762   4.389  0.3225 -0.0265 -0.5326
  158SAPE  H14R17587   2.019   0.665   4.441 -0.7121 -0.4148 -1.3589
  158SAPE  C21517588   1.987   0.780   4.259  0.3581  0.3730 -0.6673
  158SAPE  H15R17589   1.929   0.702   4.208 -3.0640  1.9991  0.3913
  158SAPE  C21617590   2.014   0.897   4.172 -0.0822  0.0879 -0.2213
  158SAPE  H16R17591   2.118   0.930   4.153 -0.8527  2.5413 -0.6730
  158SAPE  H16S17592   1.972   0.978   4.236  0.4710 -2.0739  3.1229
  158SAPE  C21717593   1.940   0.895   4.035 -0.7677  0.3303 -0.9373
  158SAPE  H17R17594   1.950   0.998   3.994  1.5268  0.4322 -0.2405
  158SAPE  H17S17595   1.832   0.880   4.057  0.2503 -0.4021  5.0732
  158SAPE  C21817596   1.980   0.786   3.928 -0.5893  0.3886 -0.4675
  158SAPE  H18R17597   1.928   0.690   3.947  0.6725 -0.4080 -0.8874
  158SAPE  H18S17598   2.088   0.763   3.924 -0.8477 -0.7221 -2.5223
  158SAPE  C21917599   1.935   0.827   3.791  0.1243 -0.5153 -0.2493
  158SAPE  H19R17600   1.973   0.926   3.758 -0.0213 -0.6818 -0.9443
  158SAPE  H19S17601   1.825   0.833   3.772  0.0160  1.9901  0.8215
  158SAPE  C22017602   1.983   0.716   3.697 -0.1573  0.6696  0.2157
  158SAPE  H20R17603   2.094   0.719   3.690  0.0486 -0.2231  2.3261
  158SAPE  H20S17604   1.947   0.733   3.593  0.4152  0.2650 -0.0552
  158SAPE  H20T17605   1.953   0.614   3.728  1.2675  0.8414  2.3766
  158SAPE   C3317606   2.157   0.677   5.509  0.6438  0.5282  0.1760
  158SAPE   H3X17607   2.069   0.741   5.484  1.9796  1.5913 -2.2365
  158SAPE   H3Y17608   2.130   0.613   5.595 -3.0733  2.0355  0.3036
  158SAPE   C3417609   2.192   0.589   5.388 -0.2259 -0.2044  0.0885
  158SAPE   H4X17610   2.272   0.518   5.419  0.5791  0.8367  0.4763
  158SAPE   H4Y17611   2.226   0.645   5.298 -0.3768 -0.4767 -0.1392
  158SAPE   C3517612   2.074   0.506   5.348  0.3655 -0.1786  0.1850
  158SAPE   H5X17613   1.986   0.567   5.317 -0.3317 -0.6691  1.1487
  158SAPE   H5Y17614   2.043   0.457   5.442  2.0942 -1.1349  0.2947
  158SAPE   C3617615   2.099   0.397   5.243 -0.1035 -0.1847  0.0335
  158SAPE   H6X17616   2.180   0.328   5.277 -0.3812  0.1638  1.4469
  158SAPE   H6Y17617   2.140   0.455   5.158 -0.4871 -1.4391 -1.0400
  158SAPE   C3717618   1.972   0.327   5.193  0.8335 -0.6849  0.0658
  158SAPE   H7X17619   1.882   0.392   5.198 -0.0908 -1.8045 -1.1955
  158SAPE   H7Y17620   1.948   0.236   5.253 -2.4220  0.0255  0.0649
  158SAPE   C3817621   1.998   0.282   5.045  0.1841 -0.4918  0.0007
  158SAPE   H8X17622   2.026   0.369   4.981 -0.6403 -0.7444 -0.7330
  158SAPE   H8Y17623   1.897   0.257   5.006 -0.1925  0.9250  0.0169
  158SAPE   C3917624   2.088   0.155   5.035 -0.2258  0.1356 -0.5298
  158SAPE   H9X17625   2.059   0.069   5.098  2.1142 -1.5698 -1.6203
  158SAPE   H9Y17626   2.175   0.198   5.090 -1.3714 -1.1775  2.4989
  158SAPE  C31017627   2.120   0.106   4.897  0.1087  0.6033  0.6938
  158SAPE  H10X17628   2.189   0.020   4.912 -0.8691 -0.1319  1.1014
  158SAPE  H10Y17629   2.171   0.182   4.833 -0.7950  0.4044 -0.2918
  158SAPE  C31117630   1.992   0.059   4.823  0.0136  0.1604  0.1125
  158SAPE  H11X17631   1.945   0.145   4.770 -0.2514 -0.6468 -1.0059
  158SAPE  H11Y17632   1.916   0.023   4.895 -0.2897  1.2781  0.3717
  158SAPE  C31217633   2.017  -0.054   4.724 -0.0855  0.8662  0.1722
  158SAPE  H12X17634   2.061  -0.140   4.779 -1.7238 -0.0119  0.1787
  158SAPE  H12Y17635   2.103  -0.026   4.660  0.7274  0.5538  1.1042
  158SAPE  C31317636   1.891  -0.078   4.642  0.3549 -0.0147  0.6616
  158SAPE  H13X17637   1.854   0.019   4.604  1.5606  0.7713  1.4259
  158SAPE  H13Y17638   1.812  -0.114   4.713 -0.6849  0.5237 -0.1961
  158SAPE  C31417639   1.915  -0.179   4.525  0.0261  0.1403 -0.8465
  158SAPE  H14X17640   1.960  -0.264   4.581 -2.8899 -1.9554 -1.5043
  158SAPE  H14Y17641   1.986  -0.126   4.458 -0.0017  2.7511  1.0044
  158SAPE  C31517642   1.797  -0.220   4.439  0.6408 -0.2099  0.0996
  158SAPE  H15X17643   1.716  -0.262   4.502 -0.7387 -1.2197 -2.2275
  158SAPE  H15Y17644   1.813  -0.305   4.370 -0.8634 -0.5441  0.1375
  158SAPE  C31617645   1.737  -0.105   4.355  0.3022 -0.1622 -0.2779
  158SAPE  H16X17646   1.721  -0.010   4.411 -2.6863 -0.5841 -0.2325
  158SAPE  H16Y17647   1.627  -0.115   4.338 -0.0364  3.2705 -0.8429
  158SAPE  C31717648   1.816  -0.071   4.224  0.0027 -0.0900 -0.3965
  158SAPE  H17X17649   1.919  -0.048   4.257 -0.5817  0.4562  1.1235
  158SAPE  H17Y17650   1.765   0.022   4.190  0.4489  0.7922  1.2603
  158SAPE  C31817651   1.817  -0.172   4.108  0.6582 -0.1660  0.5157
  158SAPE  H18X17652   1.902  -0.163   4.037  1.0824 -0.5814  0.9538
  158SAPE  H18Y17653   1.716  -0.181   4.064  0.2302  1.7805  1.0283
  158SAPE  H18Z17654   1.838  -0.274   4.149  1.5999 -0.0170  0.4198
  159SAPE     N17655   0.158   0.148   1.734  0.1610 -0.4978 -0.3930
  159SAPE   HN117656   0.150   0.213   1.653  1.7219  3.7342  2.4653
  159SAPE   HN217657   0.204   0.064   1.694 -0.4351 -1.2651  0.4917
  159SAPE   HN317658   0.063   0.129   1.770  0.9594 -0.0988  2.2063
  159SAPE   C1217659   0.240   0.214   1.839 -0.2585 -0.5607  0.2934
  159SAPE  H12A17660   0.249   0.140   1.922 -0.8440  0.1063  0.9694
  159SAPE  H12B17661   0.176   0.297   1.877  1.7405  0.5771  1.3234
  159SAPE   C1117662   0.373   0.261   1.779  0.2783  0.0516  0.0240
  159SAPE  H11A17663   0.433   0.325   1.846 -0.3477 -0.1969  0.8468
  159SAPE  H11B17664   0.351   0.338   1.703  0.0478  0.7380  0.7652
  159SAPE     P17665   0.550   0.067   1.810 -0.3660 -0.4840  0.1679
  159SAPE   O1317666   0.534  -0.081   1.787 -0.5493 -0.4716 -0.7130
  159SAPE   O1417667   0.676   0.133   1.781  0.4450  0.2543  0.1622
  159SAPE   O1217668   0.445   0.143   1.723 -0.3246 -0.4793 -0.3151
  159SAPE   O1117669   0.509   0.104   1.957  0.1067  0.4690  0.0490
  159SAPE    C117670   0.572   0.206   2.038  0.8214  0.4707 -0.0550
  159SAPE    HA17671   0.573   0.306   1.990  1.3276  0.5946  0.2143
  159SAPE    HB17672   0.507   0.222   2.127 -1.2429 -2.3972 -0.8558
  159SAPE    C217673   0.714   0.161   2.090 -0.0822 -0.0080  0.3510
  159SAPE    HS17674   0.779   0.142   2.003  0.7772  2.4382  0.3749
  159SAPE   O2117675   0.699   0.039   2.160 -0.0994 -0.8870 -0.4223
  159SAPE   C2117676   0.810  -0.033   2.177  0.3925 -0.2683  0.8836
  159SAPE   O2217677   0.920  -0.010   2.129 -0.0995  0.2581 -0.4046
  159SAPE   C2217678   0.785  -0.166   2.238  0.2037 -0.2471 -0.6701
  159SAPE   H2R17679   0.674  -0.180   2.242 -0.3203  3.2482 -0.2929
  159SAPE   H2S17680   0.837  -0.246   2.181 -0.3181  0.7946 -2.6665
  159SAPE    C317681   0.778   0.270   2.176  0.6463 -0.5652 -0.5040
  159SAPE    HX17682   0.807   0.356   2.112  3.6126 -2.8409 -2.4813
  159SAPE    HY17683   0.871   0.225   2.216  0.3419 -1.8463 -1.2014
  159SAPE   O3117684   0.692   0.309   2.284  0.1542  0.5538 -0.1353
  159SAPE   C3117685   0.726   0.267   2.406 -0.3901  0.5217  0.2307
  159SAPE   O3217686   0.819   0.190   2.431 -0.1340 -0.4471 -0.2044
  159SAPE   C3217687   0.638   0.318   2.516  0.3829  0.3883 -0.5109
  159SAPE   H2X17688   0.542   0.262   2.515 -1.5523  3.4452 -0.0743
  159SAPE   H2Y17689   0.601   0.420   2.491  0.3063  0.2321 -1.0555
  159SAPE   C2317690   0.823  -0.159   2.390  0.1454 -0.5223 -0.0846
  159SAPE   H3R17691   0.776  -0.073   2.441  1.3917  0.2995 -0.2677
  159SAPE   H3S17692   0.931  -0.145   2.412  0.5864 -0.4861 -2.0959
  159SAPE   C2417693   0.780  -0.289   2.455 -0.5319  0.0012 -0.1605
  159SAPE   H4R17694   0.848  -0.368   2.416 -0.9511 -1.7366  2.3685
  159SAPE   H4S17695   0.676  -0.303   2.418 -1.1148  2.5367  0.3300
  159SAPE   C2517696   0.759  -0.287   2.609  0.4207  0.3331  0.1381
  159SAPE   H5R17697   0.685  -0.364   2.633 -2.8137  1.9784 -3.3219
  159SAPE   C2617698   0.816  -0.206   2.701  0.2189  0.2831 -0.7998
  159SAPE   H6R17699   0.777  -0.226   2.802  0.6550 -1.5142 -0.9481
  159SAPE   C2717700   0.921  -0.099   2.691  0.1634  0.0247 -0.1578
  159SAPE   H7R17701   0.874  -0.013   2.637 -1.4182 -0.8893 -0.2936
  159SAPE   H7S17702   1.001  -0.126   2.619 -0.9092  0.1780 -1.4562
  159SAPE   C2817703   0.977  -0.053   2.823 -0.1815  0.8302  0.5369
  159SAPE   H8R17704   0.965   0.055   2.842  3.0043  1.3307  0.2570
  159SAPE   C2917705   1.062  -0.117   2.906 -0.3465  0.1403  0.2830
  159SAPE   H9R17706   1.083  -0.070   3.003  0.2482 -0.3793  0.4141
  159SAPE  C21017707   1.122  -0.254   2.890 -0.3349 -0.3358 -0.6260
  159SAPE  H10R17708   1.225  -0.257   2.932  0.0513  0.4338 -1.4872
  159SAPE  H10S17709   1.125  -0.283   2.782  0.8153  1.0161 -0.9811
  159SAPE  C21117710   1.030  -0.349   2.961  0.3353 -0.7063  0.0468
  159SAPE  H11R17711   0.940  -0.370   2.901 -0.2080 -1.9337  1.2292
  159SAPE  C21217712   1.042  -0.395   3.087 -0.0216 -0.5217 -0.3874
  159SAPE  H12R17713   0.963  -0.462   3.124 -0.1670 -0.5361 -0.7208
  159SAPE  C21317714   1.157  -0.365   3.175  1.3082  0.0168  0.0711
  159SAPE  H13R17715   1.165  -0.255   3.178  1.4168 -0.0132  1.6878
  159SAPE  H13S17716   1.248  -0.406   3.126  1.3467 -0.9452  0.9233
  159SAPE  C21417717   1.140  -0.425   3.313  0.0021 -0.2526  0.3252
  159SAPE  H14R17718   1.100  -0.358   3.391 -1.0809 -0.6016  0.0771
  159SAPE  C21517719   1.179  -0.546   3.359 -0.7451  0.4364 -0.5297
  159SAPE  H15R17720   1.162  -0.556   3.468  0.6388  0.9509 -0.2484
  159SAPE  C21617721   1.267  -0.650   3.292  0.2491 -0.3310 -0.0333
  159SAPE  H16R17722   1.291  -0.628   3.186 -4.5182  3.7040 -0.6639
  159SAPE  H16S17723   1.214  -0.747   3.288 -1.0365  0.3224  0.4360
  159SAPE  C21717724   1.410  -0.671   3.354  0.2491 -0.3013  0.0342
  159SAPE  H17R17725   1.459  -0.574   3.377  0.4898 -0.3839 -0.1258
  159SAPE  H17S17726   1.470  -0.729   3.280  1.2766  0.8028 -0.0250
  159SAPE  C21817727   1.391  -0.757   3.484 -0.4150 -0.3188  0.3475
  159SAPE  H18R17728   1.329  -0.849   3.469 -0.4878 -0.2777  0.3960
  159SAPE  H18S17729   1.334  -0.690   3.551 -0.3426 -0.7100  0.8097
  159SAPE  C21917730   1.525  -0.802   3.545  0.5789  0.5101  0.1145
  159SAPE  H19R17731   1.598  -0.722   3.568  1.3390  0.4716 -1.9791
  159SAPE  H19S17732   1.555  -0.871   3.463 -1.9871  0.9693 -1.3373
  159SAPE  C22017733   1.517  -0.882   3.677 -0.5541  0.0381 -0.0570
  159SAPE  H20R17734   1.532  -0.989   3.649 -0.7439  0.2343 -0.9225
  159SAPE  H20S17735   1.417  -0.870   3.724 -1.6639 -0.2729 -2.2147
  159SAPE  H20T17736   1.597  -0.854   3.749 -0.6967 -2.2465  1.0960
  159SAPE   C3317737   0.714   0.327   2.648  0.3771 -0.5350  0.7388
  159SAPE   H3X17738   0.748   0.433   2.648  1.6843 -0.9358  0.0171
  159SAPE   H3Y17739   0.811   0.274   2.657 -0.4289 -2.1312  0.2514
  159SAPE   C3417740   0.629   0.287   2.770 -0.7319 -0.0196  0.0609
  159SAPE   H4X17741   0.688   0.298   2.864 -1.6326 -1.3815  0.8250
  159SAPE   H4Y17742   0.606   0.180   2.755  2.0446 -0.3756 -2.4079
  159SAPE   C3517743   0.512   0.387   2.797  0.3725 -0.0142  0.0292
  159SAPE   H5X17744   0.446   0.384   2.708  0.7371  0.3205 -0.2557
  159SAPE   H5Y17745   0.556   0.488   2.810 -0.3527  0.3514 -0.3200
  159SAPE   C3617746   0.422   0.353   2.920 -0.1785 -0.9238 -0.4470
  159SAPE   H6X17747   0.389   0.247   2.918 -0.4346 -0.9424  2.0835
  159SAPE   H6Y17748   0.333   0.418   2.913  0.6182  0.0673 -2.2800
  159SAPE   C3717749   0.479   0.384   3.057 -0.2428  0.2697 -0.2517
  159SAPE   H7X17750   0.463   0.492   3.077 -2.6343  0.1339 -1.0519
  159SAPE   H7Y17751   0.581   0.342   3.071 -1.3301 -2.5349 -0.0621
  159SAPE   C3817752   0.386   0.315   3.163 -0.4934  0.3516 -0.3784
  159SAPE   H8X17753   0.367   0.210   3.132 -3.6644  0.8902 -0.6411
  159SAPE   H8Y17754   0.283   0.358   3.170  0.1481  1.9666 -0.5491
  159SAPE   C3917755   0.453   0.321   3.301 -0.0165  0.2379 -0.0018
  159SAPE   H9X17756   0.470   0.429   3.323 -0.5859  0.5835 -1.2081
  159SAPE   H9Y17757   0.555   0.276   3.304  0.7736  1.9689  1.3345
  159SAPE  C31017758   0.371   0.248   3.406 -0.3385 -0.4533 -0.4471
  159SAPE  H10X17759   0.436   0.209   3.487  0.5315 -0.4909 -1.1604
  159SAPE  H10Y17760   0.328   0.158   3.358 -0.6847 -0.3324 -0.3719
  159SAPE  C31117761   0.277   0.348   3.482  0.0220  0.5859  0.4677
  159SAPE  H11X17762   0.205   0.399   3.414  1.3002  1.5623 -0.2032
  159SAPE  H11Y17763   0.341   0.431   3.520 -1.7588  3.1884 -1.8052
  159SAPE  C31217764   0.193   0.281   3.597  0.3871 -0.4759  0.4313
  159SAPE  H12X17765   0.265   0.252   3.676 -0.7403  0.0296  1.6883
  159SAPE  H12Y17766   0.156   0.188   3.547 -2.2907  1.9608 -2.6207
  159SAPE  C31317767   0.075   0.361   3.648 -0.0427 -0.3814  0.2883
  159SAPE  H13X17768  -0.023   0.317   3.620 -0.4490 -0.1624  1.3427
  159SAPE  H13Y17769   0.079   0.458   3.593 -0.8953 -1.9514 -2.7508
  159SAPE  C31417770   0.070   0.358   3.803  0.2839 -0.1277  0.7097
  159SAPE  H14X17771   0.158   0.412   3.843  0.2485  0.1355  0.4293
  159SAPE  H14Y17772   0.067   0.260   3.855 -2.8493  0.9196  2.8379
  159SAPE  C31517773  -0.051   0.431   3.855  0.2561 -0.4675 -0.4125
  159SAPE  H15X17774  -0.141   0.392   3.803 -0.6698  1.8139 -0.6730
  159SAPE  H15Y17775  -0.065   0.540   3.836 -2.0747 -1.0785 -2.8042
  159SAPE  C31617776  -0.070   0.423   4.008 -0.2824 -0.0903 -0.1434
  159SAPE  H16X17777   0.023   0.455   4.059 -2.1520  0.8524  2.9584
  159SAPE  H16Y17778  -0.091   0.317   4.035 -0.5999 -0.0986 -0.3999
  159SAPE  C31717779  -0.176   0.516   4.068  1.0005  0.0733  0.0997
  159SAPE  H17X17780  -0.183   0.605   4.001 -0.5173 -1.3194 -1.7200
  159SAPE  H17Y17781  -0.143   0.549   4.169  1.7542  1.8620 -0.6927
  159SAPE  C31817782  -0.316   0.448   4.076 -0.1731  0.2718 -0.0212
  159SAPE  H18X17783  -0.303   0.356   4.136  1.1262  1.3255  1.3831
  159SAPE  H18Y17784  -0.354   0.403   3.981 -0.7658 -0.8459  0.7235
  159SAPE  H18Z17785  -0.394   0.516   4.117 -0.6654  0.2093 -0.8168
  160SAPE     N17786   6.415   5.750   2.370 -0.9943 -0.2553 -0.2813
  160SAPE   HN117787   6.323   5.799   2.360 -1.5609 -0.6692  2.3478
  160SAPE   HN217788   6.402   5.647   2.363 -0.6617 -0.2651 -0.7975
  160SAPE   HN317789   6.453   5.767   2.464  0.0309 -0.7990 -0.5858
  160SAPE   C1217790   6.519   5.806   2.275 -0.7540 -0.6412 -0.1019
  160SAPE  H12A17791   6.559   5.899   2.320  0.1399 -0.8913 -0.3634
  160SAPE  H12B17792   6.473   5.829   2.176 -1.5360 -1.6855  0.0048
  160SAPE   C1117793   6.625   5.702   2.256 -0.0580 -0.3572 -0.4014
  160SAPE  H11A17794   6.675   5.696   2.356 -1.2545  2.4384  0.4531
  160SAPE  H11B17795   6.704   5.749   2.194  0.6447  1.7878  1.9548
  160SAPE     P17796   6.692   5.477   2.148 -0.4485 -0.1220  0.2730
  160SAPE   O1317797   6.620   5.363   2.087 -0.2608  0.2506 -0.1731
  160SAPE   O1417798   6.774   5.560   2.059 -0.3924 -0.2491 -0.2908
  160SAPE   O1217799   6.577   5.580   2.202  0.3204  0.6243  0.3748
  160SAPE   O1117800   6.761   5.443   2.279 -0.7263  0.3485  0.0640
  160SAPE    C117801   6.686   5.366   2.373 -0.1999 -0.0595 -0.4045
  160SAPE    HA17802   6.578   5.359   2.352 -0.9618  2.8096  1.8985
  160SAPE    HB17803   6.722   5.261   2.371 -0.1058 -0.0288 -2.3634
  160SAPE    C217804   6.697   5.427   2.521  0.0067  0.7642  0.0513
  160SAPE    HS17805   6.627   5.513   2.522 -0.9904 -0.0211  1.2025
  160SAPE   O2117806   6.834   5.456   2.538 -0.0670 -0.2506 -0.0998
  160SAPE   C2117807   6.860   5.545   2.629 -0.4465 -0.4379  0.2669
  160SAPE   O2217808   6.782   5.630   2.679 -0.2313  0.4561  0.5671
  160SAPE   C2217809   7.010   5.535   2.656  0.3824  0.1332  0.1925
  160SAPE   H2R17810   7.035   5.433   2.623 -0.7668  0.4931 -1.9480
  160SAPE   H2S17811   7.060   5.602   2.583 -0.4162 -1.1143 -1.5553
  160SAPE    C317812   6.658   5.322   2.629 -0.5800  0.1882  0.6031
  160SAPE    HX17813   6.748   5.268   2.666 -1.0968 -1.4422 -0.3969
  160SAPE    HY17814   6.605   5.236   2.582 -0.6243  1.1592 -1.2174
  160SAPE   O3117815   6.580   5.386   2.729  0.3637  0.1629  0.8887
  160SAPE   C3117816   6.483   5.319   2.775  0.2698  0.0449 -0.7528
  160SAPE   O3217817   6.441   5.214   2.738 -0.1180  0.1368 -0.0986
  160SAPE   C3217818   6.430   5.400   2.902 -0.3612  0.5489  0.1027
  160SAPE   H2X17819   6.366   5.482   2.864  1.4725  1.6612 -0.7243
  160SAPE   H2Y17820   6.521   5.432   2.957  0.1042 -1.8139  0.8356
  160SAPE   C2317821   7.038   5.565   2.804  0.2857  0.0883  0.1582
  160SAPE   H3R17822   6.964   5.518   2.872 -0.7681 -0.1262 -1.1091
  160SAPE   H3S17823   7.032   5.673   2.828  1.1407  0.0454  0.6333
  160SAPE   C2417824   7.171   5.511   2.857  0.7560  0.0790  0.3635
  160SAPE   H4R17825   7.164   5.400   2.859  1.5745  0.0101 -0.0638
  160SAPE   H4S17826   7.183   5.540   2.963  1.3792 -0.8672  0.5718
  160SAPE   C2517827   7.286   5.567   2.778  0.7977  0.0342 -0.6260
  160SAPE   H5R17828   7.287   5.545   2.670 -2.9871 -3.0359 -0.2818
  160SAPE   C2617829   7.395   5.630   2.825  0.2682  0.3396  0.9263
  160SAPE   H6R17830   7.469   5.662   2.750 -1.0851 -0.2579 -0.7427
  160SAPE   C2717831   7.420   5.654   2.972  0.3403  0.0355 -0.7809
  160SAPE   H7R17832   7.435   5.555   3.020 -1.6681 -0.1789 -0.5075
  160SAPE   H7S17833   7.333   5.706   3.017  0.0606  1.5019 -2.8827
  160SAPE   C2817834   7.543   5.737   2.992 -0.1302  0.2426  0.5002
  160SAPE   H8R17835   7.555   5.826   2.928  0.0703 -0.3523 -0.3052
  160SAPE   C2917836   7.636   5.723   3.091  0.0685  0.2673  0.3014
  160SAPE   H9R17837   7.727   5.783   3.083 -0.6312  1.6630  2.0389
  160SAPE  C21017838   7.649   5.610   3.199  0.0824 -0.8744  0.0091
  160SAPE  H10R17839   7.747   5.561   3.182  0.6975 -0.2988  1.6525
  160SAPE  H10S17840   7.573   5.530   3.183 -1.7657  0.0813  3.0633
  160SAPE  C21117841   7.661   5.651   3.344  0.6135 -0.4571 -0.4336
  160SAPE  H11R17842   7.765   5.655   3.381  0.7136  0.0818 -0.7610
  160SAPE  C21217843   7.552   5.680   3.419 -0.3406 -0.1379 -0.1359
  160SAPE  H12R17844   7.569   5.719   3.521  1.8322 -2.7063  0.6319
  160SAPE  C21317845   7.413   5.683   3.358 -0.5619  0.1832 -0.4780
  160SAPE  H13R17846   7.390   5.582   3.317 -1.2270 -1.2582  3.0765
  160SAPE  H13S17847   7.415   5.755   3.273 -0.9641  0.3733 -0.3313
  160SAPE  C21417848   7.308   5.728   3.459 -0.0298  0.0791  0.4411
  160SAPE  H14R17849   7.351   5.785   3.542 -1.3115 -0.4728  1.5176
  160SAPE  C21517850   7.172   5.702   3.445  0.5656 -0.4383 -0.6577
  160SAPE  H15R17851   7.111   5.725   3.533 -3.9228  0.1151 -3.5971
  160SAPE  C21617852   7.108   5.622   3.337  0.3738 -0.0776 -0.2956
  160SAPE  H16R17853   7.175   5.627   3.249  1.4866 -2.5229  0.3442
  160SAPE  H16S17854   7.007   5.656   3.304 -0.1277  1.6463  2.6121
  160SAPE  C21717855   7.108   5.467   3.356 -0.3450 -0.4498  0.5895
  160SAPE  H17R17856   7.063   5.442   3.454 -1.9944 -0.3097 -0.1017
  160SAPE  H17S17857   7.214   5.435   3.350  1.0548  3.6500 -0.1408
  160SAPE  C21817858   7.024   5.395   3.248  0.0028 -0.3199 -0.6990
  160SAPE  H18R17859   7.083   5.371   3.157  0.4555  1.2846 -0.8507
  160SAPE  H18S17860   6.935   5.453   3.217  1.4551  2.2387 -0.3334
  160SAPE  C21917861   6.980   5.252   3.296 -0.7723  0.3638  0.4700
  160SAPE  H19R17862   6.915   5.206   3.219  0.6751 -1.1458  0.0956
  160SAPE  H19S17863   6.929   5.268   3.393  1.2167  0.9364  1.4735
  160SAPE  C22017864   7.106   5.163   3.307 -0.0421  0.1079 -0.3956
  160SAPE  H20R17865   7.156   5.159   3.208 -2.9483 -0.3634 -1.9711
  160SAPE  H20S17866   7.086   5.061   3.348 -0.9424  0.8910  1.1751
  160SAPE  H20T17867   7.176   5.206   3.381  0.5700 -1.8139  0.1995
  160SAPE   C3317868   6.335   5.313   2.990  0.0931 -0.5457  0.2790
  160SAPE   H3X17869   6.276   5.253   2.918  1.5731 -0.2817 -1.2196
  160SAPE   H3Y17870   6.267   5.387   3.037  1.2404 -0.9217  2.6726
  160SAPE   C3417871   6.396   5.221   3.087 -0.2390  0.5790  0.3079
  160SAPE   H4X17872   6.459   5.139   3.047 -0.5563  0.0935  0.7943
  160SAPE   H4Y17873   6.316   5.167   3.141  1.2611 -2.3311 -0.2219
  160SAPE   C3517874   6.476   5.289   3.197  0.0387 -0.1313  0.3063
  160SAPE   H5X17875   6.457   5.397   3.210 -0.3747  0.4729 -3.9348
  160SAPE   H5Y17876   6.582   5.278   3.167  0.1124 -0.0936  0.5570
  160SAPE   C3617877   6.477   5.222   3.346  0.2664 -0.8667  0.4834
  160SAPE   H6X17878   6.454   5.115   3.324  1.9496 -0.6603 -2.8975
  160SAPE   H6Y17879   6.391   5.271   3.396  1.7571  1.5443  0.8630
  160SAPE   C3717880   6.600   5.237   3.434  0.9279  0.2850  0.2396
  160SAPE   H7X17881   6.639   5.340   3.421  3.7493 -0.8643 -1.2835
  160SAPE   H7Y17882   6.685   5.184   3.384 -0.9260 -0.5581 -2.1916
  160SAPE   C3817883   6.590   5.189   3.572  0.3990 -0.1828 -0.0300
  160SAPE   H8X17884   6.529   5.096   3.571 -1.0872  0.7483  0.5564
  160SAPE   H8Y17885   6.513   5.256   3.615 -0.7959 -0.2397 -1.9982
  160SAPE   C3917886   6.725   5.190   3.647  0.5463 -0.2246 -0.7395
  160SAPE   H9X17887   6.786   5.278   3.614  2.6833 -1.4367 -0.2071
  160SAPE   H9Y17888   6.784   5.105   3.606 -1.8790 -1.7780 -1.1783
  160SAPE  C31017889   6.716   5.199   3.800  0.1652  0.0182 -0.1320
  160SAPE  H10X17890   6.667   5.290   3.840 -3.3658 -2.3058  1.4166
  160SAPE  H10Y17891   6.820   5.201   3.838  0.1314  2.2275 -0.0658
  160SAPE  C31117892   6.627   5.090   3.864  0.2330 -0.3821 -0.6638
  160SAPE  H11X17893   6.641   4.982   3.843 -1.8231 -0.7991 -0.1897
  160SAPE  H11Y17894   6.520   5.113   3.844  0.4789  2.3582  0.6428
  160SAPE  C31217895   6.650   5.083   4.016  0.1870 -0.2836  0.2710
  160SAPE  H12X17896   6.664   5.186   4.055 -0.5451 -0.0936  0.0594
  160SAPE  H12Y17897   6.746   5.029   4.027  1.7919  2.3367 -0.1336
  160SAPE  C31317898   6.539   5.007   4.084  0.2176  0.6652 -0.0607
  160SAPE  H13X17899   6.533   4.911   4.029 -0.3166  1.5542 -1.6212
  160SAPE  H13Y17900   6.441   5.058   4.079  1.1992  2.8375  1.0074
  160SAPE  C31417901   6.567   4.998   4.230 -0.1012 -0.5709  0.0382
  160SAPE  H14X17902   6.669   4.957   4.246 -0.8533 -2.7615 -0.4485
  160SAPE  H14Y17903   6.498   4.925   4.278  0.1830 -1.1751 -0.4678
  160SAPE  C31517904   6.542   5.131   4.290 -0.3321  0.2553 -0.2664
  160SAPE  H15X17905   6.437   5.154   4.264 -1.6779 -3.8755  0.7488
  160SAPE  H15Y17906   6.613   5.210   4.256  0.7750  0.5448  2.4768
  160SAPE  C31617907   6.560   5.124   4.444  0.1550  0.4341  0.4009
  160SAPE  H16X17908   6.663   5.092   4.470  0.8113  0.0357 -2.4275
  160SAPE  H16Y17909   6.503   5.050   4.505  2.0205  0.2770  2.0627
  160SAPE  C31717910   6.538   5.268   4.500  0.3278  0.9071 -0.0054
  160SAPE  H17X17911   6.435   5.299   4.472  0.0936  0.2230  0.0814
  160SAPE  H17Y17912   6.602   5.342   4.448 -0.7054  0.3750 -2.1696
  160SAPE  C31817913   6.553   5.279   4.651 -0.6791  0.3378 -0.6808
  160SAPE  H18X17914   6.458   5.246   4.699  0.5505 -1.4900  0.6776
  160SAPE  H18Y17915   6.571   5.384   4.681 -1.0838  0.1897  0.1195
  160SAPE  H18Z17916   6.641   5.220   4.687 -1.3484 -0.2744 -0.0078
  161SAPE     N17917   4.975   0.210   2.053 -0.3350 -0.3149 -0.4980
  161SAPE   HN117918   5.007   0.288   1.993  1.2263  2.0326  3.0815
  161SAPE   HN217919   4.999   0.121   2.005  0.2945 -2.0385  2.6749
  161SAPE   HN317920   4.874   0.226   2.073 -0.3934 -0.9800 -0.2225
  161SAPE   C1217921   5.054   0.212   2.183  0.4232 -0.5350  0.0011
  161SAPE  H12A17922   5.005   0.133   2.244  2.5394 -2.6521 -0.8828
  161SAPE  H12B17923   5.037   0.311   2.230 -2.7489 -0.8813 -0.1673
  161SAPE   C1117924   5.200   0.188   2.163 -0.4139 -0.1691  0.2676
  161SAPE  H11A17925   5.206   0.082   2.129 -0.3384  0.7267 -2.8254
  161SAPE  H11B17926   5.265   0.206   2.251 -0.2533 -0.4906  0.2135
  161SAPE     P17927   5.323   0.399   2.067  0.4323 -0.0496 -0.1668
  161SAPE   O1317928   5.461   0.369   2.107 -0.0220 -0.1072 -0.8019
  161SAPE   O1417929   5.306   0.468   1.940 -0.1952 -0.4003 -0.0311
  161SAPE   O1217930   5.237   0.266   2.046 -0.1635  0.1465  0.1424
  161SAPE   O1117931   5.239   0.474   2.184 -0.2376  0.5847 -0.5743
  161SAPE    C117932   5.318   0.557   2.272  0.4934  0.4650 -0.2501
  161SAPE    HA17933   5.415   0.591   2.229  1.2428 -0.2634  0.8058
  161SAPE    HB17934   5.262   0.652   2.282  0.5520  0.3092  1.9749
  161SAPE    C217935   5.336   0.492   2.406 -0.2528 -0.3373  0.3291
  161SAPE    HS17936   5.349   0.381   2.402  2.3671 -0.0818 -0.0401
  161SAPE   O2117937   5.222   0.528   2.493 -0.8587  0.6924  0.2510
  161SAPE   C2117938   5.129   0.440   2.500 -0.2751 -0.3026 -0.4384
  161SAPE   O2217939   5.138   0.317   2.477  0.3961 -0.3244 -0.3147
  161SAPE   C2217940   4.999   0.503   2.559 -0.7571  0.1619 -0.2146
  161SAPE   H2R17941   4.923   0.503   2.479  0.3083  0.7281 -1.2454
  161SAPE   H2S17942   4.959   0.435   2.638 -2.0722  0.0802 -0.9283
  161SAPE    C317943   5.461   0.541   2.481  0.1385 -0.1219 -0.5671
  161SAPE    HX17944   5.453   0.648   2.509  1.7059 -0.2948  0.7259
  161SAPE    HY17945   5.549   0.527   2.415  1.0907  1.3624  0.3274
  161SAPE   O3117946   5.472   0.472   2.608 -0.1865 -0.2819 -0.5146
  161SAPE   C3117947   5.538   0.370   2.628  0.0590  0.1883  0.7543
  161SAPE   O3217948   5.609   0.313   2.545 -0.3359 -0.1663  0.2007
  161SAPE   C3217949   5.517   0.322   2.771  0.2219  0.0762 -0.0350
  161SAPE   H2X17950   5.564   0.222   2.781  1.5522  0.6661 -0.2309
  161SAPE   H2Y17951   5.410   0.321   2.802  0.5397 -1.3580  1.1298
  161SAPE   C2317952   5.016   0.646   2.621  0.4064  0.2804  0.9496
  161SAPE   H3R17953   5.040   0.715   2.537 -1.7486 -2.1851 -1.8863
  161SAPE   H3S17954   5.108   0.640   2.684 -0.1718 -0.3057  1.7585
  161SAPE   C2417955   4.901   0.703   2.709 -0.2311  0.0252  0.9410
  161SAPE   H4R17956   4.950   0.772   2.782  2.0707 -1.2022  0.6679
  161SAPE   H4S17957   4.854   0.622   2.768 -0.3056  0.4540  1.4784
  161SAPE   C2517958   4.796   0.757   2.612 -0.2021  0.1511 -0.2389
  161SAPE   H5R17959   4.780   0.693   2.524  0.2030 -0.6437  0.2478
  161SAPE   C2617960   4.714   0.859   2.636 -0.4242 -0.1227  0.1448
  161SAPE   H6R17961   4.641   0.893   2.561 -1.4344 -0.2921  1.0174
  161SAPE   C2717962   4.730   0.943   2.759  1.0203 -0.1134 -0.3224
  161SAPE   H7R17963   4.829   0.993   2.756 -0.0357  2.0858 -2.3098
  161SAPE   H7S17964   4.739   0.879   2.849 -0.6197 -0.8896 -0.6790
  161SAPE   C2817965   4.628   1.056   2.778 -0.2205 -0.0970 -0.1793
  161SAPE   H8R17966   4.585   1.106   2.690  4.8601 -0.5165 -3.3214
  161SAPE   C2917967   4.584   1.087   2.897  0.8540  0.5597 -0.5961
  161SAPE   H9R17968   4.517   1.175   2.902 -1.0587 -0.8742  0.6105
  161SAPE  C21017969   4.612   1.008   3.031  0.3049  0.0244  0.0798
  161SAPE  H10R17970   4.634   0.899   3.030  0.9619  0.1351 -1.8112
  161SAPE  H10S17971   4.528   1.024   3.101  0.6359  1.7292  0.1355
  161SAPE  C21117972   4.726   1.080   3.098  0.0263  0.4309 -0.0256
  161SAPE  H11R17973   4.827   1.049   3.070 -0.8018 -0.7676 -1.8685
  161SAPE  C21217974   4.721   1.171   3.190 -0.8982  0.7932 -0.1481
  161SAPE  H12R17975   4.814   1.214   3.230  0.6708 -2.3100 -0.1386
  161SAPE  C21317976   4.595   1.228   3.248  0.4896 -0.1795  0.2341
  161SAPE  H13R17977   4.585   1.191   3.352  0.9308 -2.1944 -0.3923
  161SAPE  H13S17978   4.501   1.186   3.205 -0.7753 -0.4551  3.0503
  161SAPE  C21417979   4.584   1.380   3.223 -0.1181  0.3733 -0.1202
  161SAPE  H14R17980   4.553   1.418   3.124 -0.5001  0.5843  0.0815
  161SAPE  C21517981   4.619   1.465   3.318  0.0706 -0.7773  0.6889
  161SAPE  H15R17982   4.610   1.573   3.299  0.7523 -0.9563 -0.7753
  161SAPE  C21617983   4.670   1.428   3.458 -0.4254 -0.4082 -0.0883
  161SAPE  H16R17984   4.762   1.488   3.467 -0.1254 -0.7557 -0.7816
  161SAPE  H16S17985   4.702   1.321   3.459  2.5224  0.4073 -0.0373
  161SAPE  C21717986   4.562   1.473   3.560  0.3163 -0.1531 -0.6266
  161SAPE  H17R17987   4.468   1.418   3.540 -0.6108  0.3515  1.9083
  161SAPE  H17S17988   4.540   1.582   3.555  0.4575 -0.1311 -0.7732
  161SAPE  C21817989   4.610   1.438   3.701  0.3266 -0.7274  0.1499
  161SAPE  H18R17990   4.711   1.481   3.685 -0.2784 -0.1392 -2.4073
  161SAPE  H18S17991   4.618   1.327   3.711 -0.5954 -0.6746  1.9590
  161SAPE  C21917992   4.534   1.515   3.809  0.0972  0.1927 -0.4931
  161SAPE  H19R17993   4.426   1.492   3.797 -0.0738  0.3633  0.5692
  161SAPE  H19S17994   4.558   1.623   3.818  2.1425 -0.3885  3.7570
  161SAPE  C22017995   4.568   1.465   3.956  0.4414 -0.7729  0.2695
  161SAPE  H20R17996   4.524   1.529   4.035  0.0368  2.4283 -2.3124
  161SAPE  H20S17997   4.678   1.451   3.962  0.3973 -1.3827 -0.2126
  161SAPE  H20T17998   4.524   1.365   3.974  0.0465 -0.4321  1.2671
  161SAPE   C3317999   5.602   0.405   2.872  0.3307 -0.5225 -0.2871
  161SAPE   H3X18000   5.559   0.506   2.884  2.6173  0.5364 -0.5083
  161SAPE   H3Y18001   5.709   0.398   2.841  0.2663 -0.0302 -0.6331
  161SAPE   C3418002   5.579   0.339   3.008 -0.6482  0.3010 -0.5538
  161SAPE   H4X18003   5.631   0.242   3.020 -1.0251  0.3497  2.1042
  161SAPE   H4Y18004   5.478   0.301   3.036  0.6182 -0.4020  3.8680
  161SAPE   C3518005   5.613   0.440   3.124  0.0202 -0.6161 -0.4611
  161SAPE   H5X18006   5.557   0.533   3.100 -0.4364 -0.7890 -0.0643
  161SAPE   H5Y18007   5.721   0.467   3.116  0.2176 -0.8326  1.2597
  161SAPE   C3618008   5.590   0.399   3.272 -0.3226 -0.7057 -0.3110
  161SAPE   H6X18009   5.610   0.290   3.283 -0.4470 -1.0937 -3.0811
  161SAPE   H6Y18010   5.482   0.398   3.296 -0.2835 -0.2909 -0.1170
  161SAPE   C3718011   5.669   0.463   3.384  0.2682  0.4196 -1.2386
  161SAPE   H7X18012   5.641   0.571   3.390  0.4035  0.4403 -0.9717
  161SAPE   H7Y18013   5.772   0.459   3.341  1.0716 -0.8753  0.6980
  161SAPE   C3818014   5.650   0.399   3.519 -0.0880 -0.2815 -0.1015
  161SAPE   H8X18015   5.688   0.295   3.506  1.5776  0.4295 -1.2371
  161SAPE   H8Y18016   5.542   0.384   3.544 -0.1663 -1.0491 -0.8453
  161SAPE   C3918017   5.746   0.470   3.618  1.1340 -0.4893  0.4365
  161SAPE   H9X18018   5.712   0.575   3.631  3.9882  0.5755 -0.0808
  161SAPE   H9Y18019   5.848   0.474   3.575  2.2773 -2.3897  2.7328
  161SAPE  C31018020   5.744   0.400   3.752 -0.7115  0.6740 -0.3298
  161SAPE  H10X18021   5.638   0.375   3.773 -1.2878  1.4221 -2.0963
  161SAPE  H10Y18022   5.776   0.460   3.840 -0.5546  0.6878 -0.3949
  161SAPE  C31118023   5.838   0.276   3.748  0.8855 -1.2479  0.6435
  161SAPE  H11X18024   5.930   0.315   3.700 -0.8442  0.6892 -1.3344
  161SAPE  H11Y18025   5.792   0.201   3.680  1.9004 -0.1171 -1.3999
  161SAPE  C31218026   5.853   0.224   3.890  0.0387 -0.2299 -0.8311
  161SAPE  H12X18027   5.896   0.309   3.947 -1.8802 -0.4392  1.0389
  161SAPE  H12Y18028   5.933   0.146   3.889 -0.4290 -0.7196 -0.5167
  161SAPE  C31318029   5.722   0.185   3.968  0.3857  0.1674 -0.1783
  161SAPE  H13X18030   5.663   0.123   3.897  1.7545 -0.2894 -0.9650
  161SAPE  H13Y18031   5.672   0.283   3.980 -0.7832 -0.3048 -1.0184
  161SAPE  C31418032   5.747   0.108   4.101  0.3877  0.3625 -0.0979
  161SAPE  H14X18033   5.829   0.156   4.158  1.5937 -0.2601 -1.2458
  161SAPE  H14Y18034   5.785   0.010   4.066  0.6010 -0.0867  1.3446
  161SAPE  C31518035   5.616   0.069   4.181  0.3413  0.2967 -0.0083
  161SAPE  H15X18036   5.576   0.163   4.226 -0.5155  0.6464 -1.4482
  161SAPE  H15Y18037   5.646  -0.006   4.258  0.4387 -1.6870 -1.8951
  161SAPE  C31618038   5.516  -0.001   4.094 -0.1310 -0.3680 -0.1581
  161SAPE  H16X18039   5.575  -0.055   4.017 -1.1178 -0.7575 -0.6619
  161SAPE  H16Y18040   5.455   0.067   4.030 -0.8054 -0.8691 -0.0550
  161SAPE  C31718041   5.421  -0.098   4.166 -0.0851  0.1794  0.0123
  161SAPE  H17X18042   5.484  -0.172   4.220  0.1286  1.0978  1.0731
  161SAPE  H17Y18043   5.349  -0.148   4.098  0.1479  0.3165 -0.3329
  161SAPE  C31818044   5.329  -0.023   4.272  0.4620  1.2187  0.5363
  161SAPE  H18X18045   5.390   0.017   4.356 -2.9154  1.3020  3.1539
  161SAPE  H18Y18046   5.261  -0.092   4.325 -1.1236  1.7272 -0.7662
  161SAPE  H18Z18047   5.263   0.053   4.226 -2.0263 -0.2793  1.4575
  162SAPE     N18048   3.865   1.881   2.097 -0.0700  0.2600 -0.5549
  162SAPE   HN118049   3.898   1.960   2.038 -1.1698  1.8832  0.9053
  162SAPE   HN218050   3.951   1.833   2.129 -0.2210 -0.0558 -0.6161
  162SAPE   HN318051   3.811   1.821   2.032  0.0348 -0.1825 -0.2356
  162SAPE   C1218052   3.786   1.933   2.210  0.4383  0.2032  0.9235
  162SAPE  H12A18053   3.784   1.850   2.284  0.2155  0.4120  1.1556
  162SAPE  H12B18054   3.686   1.947   2.164  1.4026  1.1390 -0.9677
  162SAPE   C1118055   3.845   2.064   2.258 -0.0406 -0.3054  0.3600
  162SAPE  H11A18056   3.952   2.059   2.286 -0.2416 -0.2156  1.1669
  162SAPE  H11B18057   3.797   2.082   2.356 -0.7495 -2.9554  0.5768
  162SAPE     P18058   3.701   2.260   2.157 -0.1283  0.5038  0.2754
  162SAPE   O1318059   3.739   2.405   2.134  0.4765 -0.2195 -0.2316
  162SAPE   O1418060   3.593   2.196   2.082  0.3586  0.1640 -0.1705
  162SAPE   O1218061   3.832   2.171   2.160  0.4172  0.3110 -0.4193
  162SAPE   O1118062   3.652   2.250   2.306 -0.2499  0.2181  0.0710
  162SAPE    C118063   3.645   2.363   2.400  0.4100  0.1862  0.3123
  162SAPE    HA18064   3.729   2.436   2.401  0.7183 -0.1568 -0.3001
  162SAPE    HB18065   3.553   2.424   2.388  1.2387  1.4012 -0.0552
  162SAPE    C218066   3.650   2.319   2.553  0.9347 -0.4725  0.2966
  162SAPE    HS18067   3.626   2.411   2.612  1.2016 -1.5827  2.2407
  162SAPE   O2118068   3.776   2.257   2.579  0.4800  0.2275  0.0947
  162SAPE   C2118069   3.871   2.345   2.592  0.6295 -0.1768  0.7668
  162SAPE   O2218070   3.857   2.466   2.605  0.2026  0.6519 -0.0430
  162SAPE   C2218071   4.006   2.273   2.588 -0.2028 -0.7120 -0.0176
  162SAPE   H2R18072   3.998   2.174   2.538  0.2964 -0.5455 -0.4435
  162SAPE   H2S18073   4.062   2.324   2.507 -1.9172 -2.2481 -2.3115
  162SAPE    C318074   3.539   2.213   2.586  0.2453 -0.0228  0.5427
  162SAPE    HX18075   3.537   2.132   2.510 -3.1677  0.3561  0.0986
  162SAPE    HY18076   3.441   2.260   2.565  0.8118  0.9271 -0.0374
  162SAPE   O3118077   3.560   2.158   2.718 -0.2212 -0.7743  0.7502
  162SAPE   C3118078   3.497   2.236   2.816 -0.3727 -0.2637  0.1311
  162SAPE   O3218079   3.444   2.344   2.797 -0.2359 -0.7022  0.5153
  162SAPE   C3218080   3.539   2.176   2.950  0.1484 -0.8082 -0.0855
  162SAPE   H2X18081   3.640   2.219   2.967  0.6753 -2.0577  0.0809
  162SAPE   H2Y18082   3.550   2.066   2.939  0.0219 -0.6883 -1.7638
  162SAPE   C2318083   4.068   2.274   2.727 -0.1321  0.1525  0.5898
  162SAPE   H3R18084   4.100   2.380   2.732  2.1656 -0.4606  0.0392
  162SAPE   H3S18085   4.161   2.214   2.716 -1.7611 -2.4387  0.2470
  162SAPE   C2418086   3.981   2.238   2.844  0.1083  0.7521 -0.1718
  162SAPE   H4R18087   3.888   2.297   2.830 -0.5472 -0.4810 -1.2731
  162SAPE   H4S18088   4.025   2.291   2.932  0.1555  0.5279 -0.0596
  162SAPE   C2518089   3.958   2.095   2.853 -0.2079 -0.4014 -0.4072
  162SAPE   H5R18090   3.930   2.045   2.759 -0.1632 -0.8096 -0.2072
  162SAPE   C2618091   3.942   2.024   2.972 -0.0489 -0.1095 -0.3812
  162SAPE   H6R18092   3.919   1.917   2.964 -2.6581  0.4608 -1.8989
  162SAPE   C2718093   3.951   2.077   3.112 -0.0009 -0.0380  0.7292
  162SAPE   H7R18094   3.857   2.132   3.135 -0.2810 -0.1121 -0.1991
  162SAPE   H7S18095   4.024   2.160   3.122 -0.9737  0.6640  2.3737
  162SAPE   C2818096   3.964   1.981   3.225 -0.4732  0.0314 -0.0678
  162SAPE   H8R18097   3.915   1.887   3.195  1.4548 -0.5245 -1.6832
  162SAPE   C2918098   4.035   2.000   3.341 -0.3613 -0.0269  0.4218
  162SAPE   H9R18099   4.034   1.920   3.417 -1.4893 -0.4877 -0.0657
  162SAPE  C21018100   4.103   2.126   3.394 -0.3173 -0.1765 -0.1837
  162SAPE  H10R18101   4.147   2.183   3.309 -0.5800  1.7979  0.9668
  162SAPE  H10S18102   4.197   2.091   3.443 -0.1984 -0.1682 -0.3991
  162SAPE  C21118103   4.021   2.224   3.477 -0.0112 -0.4280  0.5809
  162SAPE  H11R18104   4.004   2.321   3.429  0.5702  0.4474  2.0803
  162SAPE  C21218105   3.974   2.196   3.602  0.2671 -0.4736  0.4311
  162SAPE  H12R18106   3.915   2.266   3.662  1.1779 -1.8404  3.0596
  162SAPE  C21318107   3.998   2.072   3.686  0.3143  0.1268  0.8443
  162SAPE  H13R18108   4.080   2.107   3.751  1.7033  2.7979 -2.0945
  162SAPE  H13S18109   4.064   1.997   3.636  0.2795  0.5833  0.1027
  162SAPE  C21418110   3.879   2.013   3.752  0.5198 -0.8114  0.3307
  162SAPE  H14R18111   3.808   1.971   3.680 -0.1228 -0.7876  0.9406
  162SAPE  C21518112   3.851   2.013   3.883 -0.1415 -0.5544  0.1953
  162SAPE  H15R18113   3.757   1.965   3.915 -0.1148 -0.8378 -0.1402
  162SAPE  C21618114   3.942   2.071   3.994 -0.5666  0.5016  0.7361
  162SAPE  H16R18115   4.049   2.066   3.964 -1.1306 -1.3850 -1.1903
  162SAPE  H16S18116   3.935   2.018   4.091  2.9153  1.2585  1.5365
  162SAPE  C21718117   3.906   2.213   4.007 -0.1786  0.5975 -0.0718
  162SAPE  H17R18118   3.797   2.211   4.024 -0.4642 -2.1912 -1.5134
  162SAPE  H17S18119   3.922   2.268   3.912 -0.7418  1.0219  0.0757
  162SAPE  C21818120   3.967   2.291   4.123 -0.0455 -0.1660  0.5174
  162SAPE  H18R18121   3.955   2.220   4.208  0.0181  1.6919  2.1394
  162SAPE  H18S18122   3.895   2.373   4.143 -1.8171 -1.4817 -0.1198
  162SAPE  C21918123   4.112   2.340   4.091  0.5692 -0.6096 -0.4304
  162SAPE  H19R18124   4.112   2.420   4.015  1.2264  0.5396  0.7206
  162SAPE  H19S18125   4.156   2.253   4.038 -0.3569  0.0731 -2.4044
  162SAPE  C22018126   4.195   2.368   4.216 -0.1191 -1.1385  0.1014
  162SAPE  H20R18127   4.300   2.390   4.187  0.2023 -1.0377  1.2651
  162SAPE  H20S18128   4.200   2.274   4.276 -2.3028 -2.0541 -1.0245
  162SAPE  H20T18129   4.146   2.439   4.286  0.4824 -2.0253  1.4863
  162SAPE   C3318130   3.424   2.198   3.057 -0.1457 -0.7076 -0.1030
  162SAPE   H3X18131   3.326   2.157   3.023 -0.6849  1.1815 -1.0284
  162SAPE   H3Y18132   3.422   2.309   3.066 -0.2854 -0.7851  0.9334
  162SAPE   C3418133   3.461   2.151   3.197  0.8717 -0.4360 -0.6131
  162SAPE   H4X18134   3.519   2.056   3.198 -1.9213 -2.3003  1.0530
  162SAPE   H4Y18135   3.367   2.126   3.251  0.2320 -0.6297 -1.7658
  162SAPE   C3518136   3.532   2.259   3.286 -0.0553 -0.2969 -0.0035
  162SAPE   H5X18137   3.457   2.340   3.297 -0.6608 -1.1523  3.0239
  162SAPE   H5Y18138   3.618   2.305   3.233 -0.7951  1.8659  0.5558
  162SAPE   C3618139   3.573   2.204   3.429  0.1849 -0.6381 -0.1042
  162SAPE   H6X18140   3.598   2.292   3.493 -0.2325  0.8439 -1.8876
  162SAPE   H6Y18141   3.654   2.129   3.422  0.2088 -0.5604 -0.6850
  162SAPE   C3718142   3.458   2.126   3.503  0.0447 -1.2090 -0.0736
  162SAPE   H7X18143   3.448   2.030   3.448 -0.3972 -0.7802 -0.7552
  162SAPE   H7Y18144   3.368   2.190   3.509  0.4790 -0.7247  3.2589
  162SAPE   C3818145   3.485   2.083   3.645 -0.7432 -0.1518 -1.1028
  162SAPE   H8X18146   3.575   2.020   3.654 -0.0951  0.4447 -2.8985
  162SAPE   H8Y18147   3.399   2.024   3.683 -0.1956  0.7359  1.8035
  162SAPE   C3918148   3.488   2.195   3.749  0.2271 -0.4448  0.4458
  162SAPE   H9X18149   3.563   2.274   3.724  0.4363 -0.9705 -0.6448
  162SAPE   H9Y18150   3.530   2.163   3.847 -2.1162 -1.5242  1.1556
  162SAPE  C31018151   3.348   2.258   3.777  0.6286  0.2792 -0.0698
  162SAPE  H10X18152   3.322   2.314   3.685  0.3326 -0.0112 -0.1633
  162SAPE  H10Y18153   3.362   2.340   3.851 -0.9452  0.0254  0.5583
  162SAPE  C31118154   3.240   2.153   3.834 -0.6595  0.2407 -0.2696
  162SAPE  H11X18155   3.209   2.082   3.755  0.3649 -0.9228  0.3356
  162SAPE  H11Y18156   3.146   2.210   3.847 -0.9836  0.1102 -1.8416
  162SAPE  C31218157   3.285   2.078   3.965 -0.4068  0.0307  0.2070
  162SAPE  H12X18158   3.372   2.011   3.951  1.1412  1.8486  0.6679
  162SAPE  H12Y18159   3.211   2.005   4.005 -1.9178  1.5067  0.2355
  162SAPE  C31318160   3.329   2.170   4.080  0.4054  0.2767  0.2239
  162SAPE  H13X18161   3.237   2.207   4.130 -0.9151  1.2537 -2.6930
  162SAPE  H13Y18162   3.376   2.267   4.051 -0.9930  1.0115  0.3439
  162SAPE  C31418163   3.404   2.102   4.196 -0.1411  0.0987  0.0021
  162SAPE  H14X18164   3.321   2.046   4.244  0.4209 -0.4915  0.2986
  162SAPE  H14Y18165   3.442   2.174   4.271 -1.3081 -0.5197  1.2244
  162SAPE  C31518166   3.524   2.009   4.152 -0.0909 -0.2535  0.1116
  162SAPE  H15X18167   3.591   2.084   4.105 -1.2273  1.6081  1.3243
  162SAPE  H15Y18168   3.499   1.917   4.096 -0.9737 -0.3216  0.5994
  162SAPE  C31618169   3.609   1.960   4.274  0.1429 -0.3372  0.3582
  162SAPE  H16X18170   3.611   2.028   4.361 -2.1426  0.3740 -0.0783
  162SAPE  H16Y18171   3.710   1.943   4.231 -0.5135 -3.4751 -0.2538
  162SAPE  C31718172   3.564   1.819   4.312  0.4886  0.7902  0.4471
  162SAPE  H17X18173   3.550   1.750   4.226  0.5054 -2.1538  2.6411
  162SAPE  H17Y18174   3.465   1.833   4.360  0.5795  0.4646  0.7358
  162SAPE  C31818175   3.662   1.752   4.411  0.3798  0.3658 -0.7776
  162SAPE  H18X18176   3.620   1.652   4.433  0.9190  0.6272  1.8121
  162SAPE  H18Y18177   3.656   1.809   4.507 -0.2151  1.8609 -1.6628
  162SAPE  H18Z18178   3.764   1.741   4.368  1.1806 -0.3435  1.1999
  163SAPE     N18179   3.033   5.589   2.226  0.2959  0.7440  0.8754
  163SAPE   HN118180   2.931   5.607   2.228  0.0016 -0.3159 -1.4065
  163SAPE   HN218181   3.051   5.521   2.150  0.7615 -1.9659  3.2304
  163SAPE   HN318182   3.059   5.537   2.312 -1.3575 -0.2125  0.8308
  163SAPE   C1218183   3.102   5.718   2.217  0.4597 -0.4804 -0.2329
  163SAPE  H12A18184   3.211   5.699   2.233  0.4234  1.0634  2.6432
  163SAPE  H12B18185   3.058   5.779   2.299  0.1174  0.8596 -1.3906
  163SAPE   C1118186   3.095   5.787   2.075 -0.7172  0.1555  0.5171
  163SAPE  H11A18187   3.109   5.896   2.089 -1.4110  0.3051  0.0591
  163SAPE  H11B18188   2.991   5.771   2.040 -0.7891  2.9166 -0.7726
  163SAPE     P18189   3.330   5.761   1.955  0.3240  0.0755  0.0837
  163SAPE   O1318190   3.410   5.684   2.053  0.0733 -0.2502 -0.0984
  163SAPE   O1418191   3.369   5.739   1.815 -0.4381  0.1581  0.8254
  163SAPE   O1218192   3.177   5.723   1.972  0.5034 -0.3881 -0.0677
  163SAPE   O1118193   3.330   5.911   1.996 -0.1165  0.1642  0.6147
  163SAPE    C118194   3.408   5.963   2.104 -0.0008  0.0757  0.6452
  163SAPE    HA18195   3.361   5.947   2.203 -2.5512  1.9968 -0.1554
  163SAPE    HB18196   3.508   5.915   2.105  0.2595  0.4445 -1.4461
  163SAPE    C218197   3.435   6.116   2.081 -0.7660  0.7857 -0.1530
  163SAPE    HS18198   3.457   6.133   1.973  0.3522 -1.0832 -0.2628
  163SAPE   O2118199   3.549   6.154   2.161 -0.4832  0.0098 -0.9516
  163SAPE   C2118200   3.604   6.264   2.123 -0.3752  0.1128 -0.1783
  163SAPE   O2218201   3.569   6.340   2.035 -0.0783  0.6875  0.0558
  163SAPE   C2218202   3.744   6.273   2.191 -0.7082 -0.4534  0.9286
  163SAPE   H2R18203   3.776   6.177   2.237 -0.4057  0.2124  2.1579
  163SAPE   H2S18204   3.808   6.306   2.107  0.3982  0.8622  2.2292
  163SAPE    C318205   3.309   6.198   2.123 -0.4739  0.2548 -0.0441
  163SAPE    HX18206   3.229   6.160   2.056  0.1434  0.8980 -1.1815
  163SAPE    HY18207   3.322   6.304   2.095  1.7411 -0.5044 -2.3048
  163SAPE   O3118208   3.275   6.196   2.261 -0.1826  0.3325 -0.0233
  163SAPE   C3118209   3.155   6.147   2.301  0.4648  0.6392  0.6575
  163SAPE   O3218210   3.070   6.093   2.230  0.6034 -0.2292 -0.7576
  163SAPE   C3218211   3.151   6.161   2.461 -0.6286  0.0560  0.2229
  163SAPE   H2X18212   3.186   6.262   2.491  0.3100  0.3431 -1.6751
  163SAPE   H2Y18213   3.220   6.083   2.499  0.2849  1.6120  1.9040
  163SAPE   C2318214   3.744   6.382   2.298 -0.2582 -0.2571  0.3807
  163SAPE   H3R18215   3.678   6.358   2.384 -0.5340 -0.5249  0.0956
  163SAPE   H3S18216   3.706   6.477   2.255 -0.3151 -0.1337  0.7022
  163SAPE   C2418217   3.879   6.408   2.368 -0.1146  0.4292  0.3153
  163SAPE   H4R18218   3.954   6.418   2.286  1.5793  1.6374  1.9268
  163SAPE   H4S18219   3.906   6.317   2.426 -1.3265  0.4367  0.9193
  163SAPE   C2518220   3.885   6.528   2.460 -0.2736  0.3627 -0.2009
  163SAPE   H5R18221   3.859   6.630   2.427  0.7701  0.9245  0.6350
  163SAPE   C2618222   3.913   6.533   2.591  0.7092 -0.3775  0.7201
  163SAPE   H6R18223   3.931   6.628   2.643 -0.6670 -1.2324  2.9228
  163SAPE   C2718224   3.943   6.423   2.688 -0.1436  0.6372  0.4200
  163SAPE   H7R18225   4.052   6.436   2.707  0.1299  0.6239 -1.0100
  163SAPE   H7S18226   3.944   6.321   2.643  0.3383  0.8977 -0.1729
  163SAPE   C2818227   3.855   6.425   2.812 -0.4398  0.2468 -0.0998
  163SAPE   H8R18228   3.747   6.439   2.795 -0.0970  2.4496 -0.8394
  163SAPE   C2918229   3.895   6.423   2.940 -0.1283 -0.6549 -0.0283
  163SAPE   H9R18230   3.811   6.418   3.011 -0.0983  0.0133  0.0567
  163SAPE  C21018231   4.036   6.403   2.996  0.6332 -0.3271  0.7421
  163SAPE  H10R18232   4.087   6.324   2.938  0.6268  0.4053 -0.2978
  163SAPE  H10S18233   4.003   6.364   3.094 -1.5777  2.4855  1.2717
  163SAPE  C21118234   4.106   6.529   3.006 -0.3136 -0.0181 -0.3454
  163SAPE  H11R18235   4.098   6.595   2.919  1.4184 -0.3816 -0.8236
  163SAPE  C21218236   4.177   6.570   3.115  0.2005  0.1831  0.2104
  163SAPE  H12R18237   4.201   6.677   3.128 -2.2260  0.8634 -0.4438
  163SAPE  C21318238   4.213   6.483   3.236  0.5405 -0.1800  0.3088
  163SAPE  H13R18239   4.194   6.375   3.219  0.3976 -1.1321  5.0692
  163SAPE  H13S18240   4.155   6.511   3.326 -1.2587 -2.2569 -0.1391
  163SAPE  C21418241   4.360   6.485   3.264 -0.3706  0.1332 -0.5179
  163SAPE  H14R18242   4.418   6.418   3.200  0.9381  0.2173  0.5381
  163SAPE  C21518243   4.426   6.565   3.350  0.5781  0.9965 -0.0764
  163SAPE  H15R18244   4.535   6.552   3.354  0.6873  0.7377 -2.5476
  163SAPE  C21618245   4.361   6.670   3.438 -0.1649 -0.0052  0.5278
  163SAPE  H16R18246   4.251   6.672   3.426 -0.0876  1.7843 -0.2261
  163SAPE  H16S18247   4.395   6.771   3.405  2.7237 -1.5966 -1.8877
  163SAPE  C21718248   4.378   6.635   3.585  0.7367  0.3357  1.0932
  163SAPE  H17R18249   4.356   6.526   3.592  0.1724  0.2748 -1.0432
  163SAPE  H17S18250   4.305   6.698   3.640 -0.9943 -0.4484 -0.2156
  163SAPE  C21818251   4.514   6.661   3.639 -0.7814  0.0542  0.1915
  163SAPE  H18R18252   4.588   6.670   3.557  0.8973 -1.0185  1.5124
  163SAPE  H18S18253   4.548   6.576   3.702 -0.5943  0.3625  0.5107
  163SAPE  C21918254   4.530   6.785   3.719  0.5649 -0.7518 -0.7948
  163SAPE  H19R18255   4.493   6.877   3.668 -0.8312 -2.0614 -2.2600
  163SAPE  H19S18256   4.640   6.800   3.723  0.8013 -2.3634 -0.6953
  163SAPE  C22018257   4.478   6.776   3.859 -0.7557 -0.5134 -0.3195
  163SAPE  H20R18258   4.458   6.878   3.898  1.0077 -0.0688 -0.4934
  163SAPE  H20S18259   4.562   6.737   3.922 -1.6525  0.2276  1.4029
  163SAPE  H20T18260   4.395   6.702   3.863 -0.5286 -0.7603 -0.1299
  163SAPE   C3318261   3.010   6.128   2.517 -0.2670 -0.8127 -0.0788
  163SAPE   H3X18262   2.994   6.019   2.499  1.6599 -1.0026 -0.7928
  163SAPE   H3Y18263   2.940   6.185   2.452 -0.9293 -1.9611 -0.3942
  163SAPE   C3418264   2.991   6.174   2.669  0.1097 -0.2268 -0.4124
  163SAPE   H4X18265   2.883   6.184   2.694  0.6071 -0.7337  2.2420
  163SAPE   H4Y18266   3.039   6.274   2.676  0.0874 -0.2964  1.2119
  163SAPE   C3518267   3.064   6.081   2.767 -0.3890 -0.3398  0.2312
  163SAPE   H5X18268   3.172   6.105   2.753 -0.3120 -0.5102  0.5275
  163SAPE   H5Y18269   3.043   5.975   2.742  0.4294 -0.6202  0.6801
  163SAPE   C3618270   3.020   6.105   2.919  0.0710  0.6012  0.2304
  163SAPE   H6X18271   2.917   6.074   2.946 -0.3737  2.5405  0.9095
  163SAPE   H6Y18272   3.018   6.215   2.936 -1.2137  0.5482  0.5034
  163SAPE   C3718273   3.108   6.034   3.015  0.2222  0.0370 -0.2379
  163SAPE   H7X18274   3.211   6.073   2.995  0.3313 -0.2694 -0.2744
  163SAPE   H7Y18275   3.116   5.925   2.995  1.7982 -0.0693  0.8119
  163SAPE   C3818276   3.081   6.043   3.166  0.2841  0.1056  0.0066
  163SAPE   H8X18277   2.973   6.023   3.186 -0.6193  2.1071 -2.3495
  163SAPE   H8Y18278   3.121   6.142   3.197  1.6709 -0.6177  0.5813
  163SAPE   C3918279   3.165   5.948   3.257  0.1387 -0.3040  0.3964
  163SAPE   H9X18280   3.273   5.961   3.235  0.5777 -0.4605  2.2726
  163SAPE   H9Y18281   3.136   5.848   3.218  0.3925  0.0829 -0.8461
  163SAPE  C31018282   3.139   5.932   3.405 -0.3980 -0.2776  0.6793
  163SAPE  H10X18283   3.030   5.916   3.415 -0.6199  0.8096  0.1771
  163SAPE  H10Y18284   3.167   6.022   3.464  1.4302 -0.0348 -0.4839
  163SAPE  C31118285   3.212   5.806   3.468  0.3154  0.8114 -0.4110
  163SAPE  H11X18286   3.319   5.817   3.440  0.9808 -0.5734  1.4084
  163SAPE  H11Y18287   3.173   5.716   3.416 -1.1687  0.8985  0.4807
  163SAPE  C31218288   3.207   5.800   3.620 -0.0668 -0.5410 -0.0780
  163SAPE  H12X18289   3.099   5.804   3.642 -0.0257 -0.1445  0.0551
  163SAPE  H12Y18290   3.258   5.896   3.643 -0.3354 -0.8034  1.7293
  163SAPE  C31318291   3.256   5.683   3.700  0.1327  0.5415  0.1634
  163SAPE  H13X18292   3.366   5.668   3.692 -0.1512 -0.8124 -1.9697
  163SAPE  H13Y18293   3.191   5.602   3.660  0.2360  1.0683 -1.1315
  163SAPE  C31418294   3.221   5.702   3.841  0.1251  0.6875 -0.4650
  163SAPE  H14X18295   3.113   5.729   3.849  0.0170  0.3458 -0.7154
  163SAPE  H14Y18296   3.256   5.797   3.886 -2.8628  2.1442 -0.9254
  163SAPE  C31518297   3.259   5.568   3.908 -0.6257  0.4354 -0.6022
  163SAPE  H15X18298   3.364   5.536   3.889 -1.1717 -0.8377 -1.6096
  163SAPE  H15Y18299   3.201   5.479   3.877 -0.6149  0.4777 -0.7432
  163SAPE  C31618300   3.240   5.566   4.063  0.7280 -0.5527  0.4995
  163SAPE  H16X18301   3.139   5.606   4.088  0.5506 -0.8715  0.3110
  163SAPE  H16Y18302   3.312   5.640   4.103 -0.4478 -0.0356  1.7345
  163SAPE  C31718303   3.257   5.430   4.130  0.2011  0.3846 -0.4187
  163SAPE  H17X18304   3.203   5.356   4.068 -0.0673 -1.0339  1.4224
  163SAPE  H17Y18305   3.205   5.430   4.228  1.6000  0.5330  0.3536
  163SAPE  C31818306   3.396   5.382   4.138 -0.4171  0.4723  0.0730
  163SAPE  H18X18307   3.397   5.280   4.183  0.8838  1.6532  2.9810
  163SAPE  H18Y18308   3.461   5.447   4.200 -1.9302  2.7640 -0.6309
  163SAPE  H18Z18309   3.441   5.363   4.038  0.9418 -2.3568  1.1047
  164SAPE     N18310   0.653   1.368   1.922 -0.1088 -0.6232 -0.1949
  164SAPE   HN118311   0.558   1.327   1.910 -1.3795  2.3622 -1.2630
  164SAPE   HN218312   0.700   1.393   1.833  1.4605 -0.0827  0.7523
  164SAPE   HN318313   0.712   1.300   1.974  1.6018  1.2636  0.4277
  164SAPE   C1218314   0.643   1.494   2.004  0.1805  0.1297  0.0860
  164SAPE  H12A18315   0.558   1.485   2.075 -0.5111  1.3624 -0.5599
  164SAPE  H12B18316   0.623   1.574   1.930  0.6209 -0.2492 -0.4426
  164SAPE   C1118317   0.774   1.518   2.081  0.2724 -0.6431  0.8788
  164SAPE  H11A18318   0.794   1.423   2.134 -0.3228 -0.2225  1.9024
  164SAPE  H11B18319   0.766   1.613   2.139  2.1403 -0.2602  0.5749
  164SAPE     P18320   1.019   1.558   2.045 -0.5060  0.7002 -0.0068
  164SAPE   O1318321   1.116   1.526   1.938 -0.3221 -0.0023 -0.1559
  164SAPE   O1418322   1.034   1.678   2.128 -0.4309  0.7264 -0.0297
  164SAPE   O1218323   0.869   1.551   1.986 -0.0682 -0.2423  0.1818
  164SAPE   O1118324   1.025   1.433   2.150 -0.3257  0.2684 -0.0884
  164SAPE    C118325   1.096   1.442   2.272  0.0363  0.4540 -0.1563
  164SAPE    HA18326   1.199   1.482   2.263  1.6136 -2.6653  2.2479
  164SAPE    HB18327   1.042   1.520   2.330  2.0858  0.7838  1.4093
  164SAPE    C218328   1.098   1.311   2.351  0.2683  0.1428 -0.0888
  164SAPE    HS18329   1.144   1.239   2.280 -0.4254  1.0390 -1.4889
  164SAPE   O2118330   0.965   1.267   2.374  0.5080  0.0721  0.2830
  164SAPE   C2118331   0.941   1.151   2.434  0.4247  0.4651  0.0237
  164SAPE   O2218332   1.027   1.067   2.455 -0.0005 -0.5930  0.3442
  164SAPE   C2218333   0.794   1.135   2.475 -0.8332  0.0481  0.5936
  164SAPE   H2R18334   0.734   1.211   2.421 -1.2026  0.7178  1.8986
  164SAPE   H2S18335   0.761   1.044   2.420 -2.2388  2.5081 -3.0362
  164SAPE    C318336   1.173   1.324   2.482  0.3611 -0.1912 -0.8794
  164SAPE    HX18337   1.271   1.368   2.453  0.4991  1.9664  2.3852
  164SAPE    HY18338   1.197   1.224   2.525 -1.8791 -0.6884 -0.6637
  164SAPE   O3118339   1.109   1.400   2.589 -0.2452  1.2191  1.0488
  164SAPE   C3118340   1.157   1.519   2.619 -0.4069 -0.6715  0.1570
  164SAPE   O3218341   1.250   1.572   2.559  0.6537  0.4658 -0.3674
  164SAPE   C3218342   1.084   1.578   2.729 -0.7940 -0.4221  0.2223
  164SAPE   H2X18343   0.976   1.564   2.707 -0.7595 -0.2893 -0.0315
  164SAPE   H2Y18344   1.102   1.686   2.745 -1.9040 -0.0491 -0.8442
  164SAPE   C2318345   0.766   1.131   2.632  0.1120  0.3799  0.0304
  164SAPE   H3R18346   0.829   1.047   2.667  1.8176  0.3414 -2.7917
  164SAPE   H3S18347   0.656   1.118   2.638 -0.4652  2.5765 -3.2113
  164SAPE   C2418348   0.797   1.274   2.687  0.4919 -0.2336 -0.3965
  164SAPE   H4R18349   0.736   1.349   2.632  0.2492 -0.9381 -1.1089
  164SAPE   H4S18350   0.908   1.283   2.680  0.4784 -0.3902 -0.8336
  164SAPE   C2518351   0.763   1.267   2.834 -0.1242 -0.1089 -0.1822
  164SAPE   H5R18352   0.821   1.197   2.896  2.5100  2.4115  0.4273
  164SAPE   C2618353   0.679   1.354   2.896 -0.3826 -1.3071  0.5027
  164SAPE   H6R18354   0.651   1.362   3.002  1.2746  0.5668  0.8660
  164SAPE   C2718355   0.591   1.457   2.824  0.2525  0.4635  0.1880
  164SAPE   H7R18356   0.653   1.517   2.754 -2.2980  4.3921  0.9791
  164SAPE   H7S18357   0.561   1.532   2.901 -0.7871  0.3623 -0.1105
  164SAPE   C2818358   0.473   1.405   2.742 -0.6470  0.7630 -0.0578
  164SAPE   H8R18359   0.497   1.395   2.635  2.5394  2.3800  0.3982
  164SAPE   C2918360   0.347   1.377   2.781 -0.0691  0.2113  0.4059
  164SAPE   H9R18361   0.281   1.339   2.702  0.3194  1.4315 -0.5574
  164SAPE  C21018362   0.302   1.396   2.926  0.8268  0.4882 -0.3442
  164SAPE  H10R18363   0.210   1.457   2.934  0.6416 -0.0234  2.5943
  164SAPE  H10S18364   0.387   1.448   2.977  1.3279 -1.7666  1.2912
  164SAPE  C21118365   0.279   1.273   3.009  1.1151 -0.3299  0.4925
  164SAPE  H11R18366   0.287   1.176   2.957 -0.0918 -0.4686  0.5547
  164SAPE  C21218367   0.255   1.283   3.139  0.1880 -0.5317 -0.4600
  164SAPE  H12R18368   0.240   1.193   3.201  1.3499 -0.9214 -0.7109
  164SAPE  C21318369   0.234   1.411   3.213  0.5405  0.0351 -0.5012
  164SAPE  H13R18370   0.193   1.489   3.146 -0.8814 -0.3250 -0.0880
  164SAPE  H13S18371   0.332   1.455   3.245 -0.3399  3.4069 -1.9545
  164SAPE  C21418372   0.124   1.392   3.318 -0.0589  0.2125  0.4069
  164SAPE  H14R18373   0.020   1.411   3.287 -0.1231  0.0774  0.5400
  164SAPE  C21518374   0.141   1.348   3.449 -0.0051 -0.3350  0.0898
  164SAPE  H15R18375   0.047   1.344   3.507 -1.5476 -0.5505 -2.3137
  164SAPE  C21618376   0.272   1.316   3.515 -1.0695  0.0527 -0.4047
  164SAPE  H16R18377   0.365   1.349   3.464  1.0495 -0.3900  2.8612
  164SAPE  H16S18378   0.287   1.206   3.512  0.5362  0.2775 -2.1235
  164SAPE  C21718379   0.287   1.379   3.657  0.0825  0.7606  0.2687
  164SAPE  H17R18380   0.221   1.323   3.727 -0.9143 -0.2289 -1.3757
  164SAPE  H17S18381   0.282   1.490   3.651  1.9544  0.8601  0.0889
  164SAPE  C21818382   0.432   1.367   3.715  0.1423  0.5893 -0.0896
  164SAPE  H18R18383   0.455   1.451   3.785 -0.9264  1.0716 -0.2999
  164SAPE  H18S18384   0.510   1.357   3.636 -0.6542  2.2597 -1.1425
  164SAPE  C21918385   0.454   1.239   3.809  0.3900 -0.1353  0.7176
  164SAPE  H19R18386   0.558   1.253   3.844  0.2905  0.5591  0.7507
  164SAPE  H19S18387   0.439   1.141   3.758 -2.3586  0.4140  0.2769
  164SAPE  C22018388   0.379   1.230   3.941  0.2030  0.1998 -0.8626
  164SAPE  H20R18389   0.404   1.313   4.011  0.9561 -1.4495  0.9017
  164SAPE  H20S18390   0.405   1.135   3.993  0.6436  0.4324 -0.6520
  164SAPE  H20T18391   0.269   1.238   3.928  0.1892  1.7017 -0.0121
  164SAPE   C3318392   1.118   1.504   2.862  0.1065  0.1726  0.3759
  164SAPE   H3X18393   1.224   1.503   2.895 -0.4071 -1.0782  2.1495
  164SAPE   H3Y18394   1.093   1.397   2.846  0.3448  0.0999  0.4941
  164SAPE   C3418395   1.027   1.552   2.985 -0.3999  0.3326 -0.2715
  164SAPE   H4X18396   0.926   1.551   2.941 -0.1467 -2.9458 -1.0389
  164SAPE   H4Y18397   1.056   1.654   3.019  2.5609 -0.3042 -0.5686
  164SAPE   C3518398   1.038   1.463   3.101 -0.8398  0.8551 -0.1492
  164SAPE   H5X18399   1.127   1.485   3.164 -0.5524 -2.2429  0.6845
  164SAPE   H5Y18400   1.045   1.356   3.072 -0.4274  0.5068  1.1713
  164SAPE   C3618401   0.918   1.471   3.195  0.3198 -0.4189 -0.7161
  164SAPE   H6X18402   0.832   1.497   3.129 -0.8928 -0.7025  0.7004
  164SAPE   H6Y18403   0.925   1.553   3.269 -1.3073  0.6782 -1.7001
  164SAPE   C3718404   0.879   1.334   3.250 -0.7439  0.2804 -0.5631
  164SAPE   H7X18405   0.953   1.277   3.310  0.7070  0.9284 -1.6774
  164SAPE   H7Y18406   0.862   1.276   3.156  0.2918  1.5932 -1.5906
  164SAPE   C3818407   0.747   1.334   3.326 -0.4758 -0.7310  0.9507
  164SAPE   H8X18408   0.684   1.406   3.270  1.6562  0.5391  0.0765
  164SAPE   H8Y18409   0.782   1.371   3.425  3.0830  0.5184 -0.6000
  164SAPE   C3918410   0.674   1.200   3.345 -0.0172  0.1462 -0.0423
  164SAPE   H9X18411   0.635   1.171   3.245 -0.5102  0.6018  0.0111
  164SAPE   H9Y18412   0.587   1.214   3.413  0.4076 -2.0643  1.0614
  164SAPE  C31018413   0.755   1.084   3.404 -0.5254 -0.4261 -0.3370
  164SAPE  H10X18414   0.839   1.080   3.332 -1.4324 -0.6917 -1.4154
  164SAPE  H10Y18415   0.688   0.995   3.407 -0.0950 -0.7895  2.9530
  164SAPE  C31118416   0.813   1.114   3.543 -0.5834  0.2062 -0.0111
  164SAPE  H11X18417   0.730   1.147   3.610 -1.6700  0.6514 -1.5343
  164SAPE  H11Y18418   0.885   1.198   3.534 -1.3130  0.8313 -0.0722
  164SAPE  C31218419   0.886   0.996   3.597 -0.0230 -0.0246  0.0817
  164SAPE  H12X18420   0.972   0.967   3.533 -0.4116  0.1205 -0.5155
  164SAPE  H12Y18421   0.820   0.906   3.595  2.1778 -1.7301  0.2756
  164SAPE  C31318422   0.937   1.019   3.744  0.5295 -0.0673 -0.1116
  164SAPE  H13X18423   0.846   1.064   3.788  0.4431  0.8252 -1.1571
  164SAPE  H13Y18424   1.023   1.089   3.752  1.1619 -0.8244 -0.1161
  164SAPE  C31418425   0.972   0.891   3.823  0.6324  0.3941 -0.2612
  164SAPE  H14X18426   0.897   0.811   3.809  0.3223  0.4106  1.1053
  164SAPE  H14Y18427   0.958   0.925   3.928  0.8624 -1.3389  0.3569
  164SAPE  C31518428   1.113   0.840   3.814  0.3029  0.5583  0.1228
  164SAPE  H15X18429   1.189   0.921   3.815  2.0246 -0.9837 -0.3946
  164SAPE  H15Y18430   1.111   0.791   3.714  0.3581  1.6556 -0.4373
  164SAPE  C31618431   1.139   0.737   3.928 -0.2036  0.6681  0.0344
  164SAPE  H16X18432   1.085   0.644   3.899  0.7510 -0.1277  0.7480
  164SAPE  H16Y18433   1.099   0.769   4.027  0.6825  0.6589  0.4043
  164SAPE  C31718434   1.283   0.713   3.947  0.2484 -0.2689  0.6542
  164SAPE  H17X18435   1.311   0.814   3.985 -1.9570  0.5529  0.2381
  164SAPE  H17Y18436   1.355   0.691   3.865  0.6307  0.8733  0.6584
  164SAPE  C31818437   1.302   0.596   4.040 -0.1930 -1.1189  0.3596
  164SAPE  H18X18438   1.239   0.516   3.994 -0.6143 -0.0694 -0.9729
  164SAPE  H18Y18439   1.264   0.620   4.142 -0.5780  0.1077 -0.0587
  164SAPE  H18Z18440   1.407   0.562   4.049 -0.4800 -1.6414  2.0514
  165SAPE     N18441   1.221   2.590   2.229  0.0121  0.6600 -0.7619
  165SAPE   HN118442   1.288   2.669   2.213 -0.2969  1.2260  0.6560
  165SAPE   HN218443   1.257   2.493   2.237 -0.9366  0.3215 -0.4606
  165SAPE   HN318444   1.152   2.586   2.151  1.2522 -0.8859 -1.8565
  165SAPE   C1218445   1.143   2.622   2.356  0.0136  0.0192  0.2616
  165SAPE  H12A18446   1.216   2.621   2.439  2.9296 -2.1277 -2.1065
  165SAPE  H12B18447   1.060   2.551   2.376 -1.0545  1.3797  0.8040
  165SAPE   C1118448   1.077   2.763   2.334 -0.0239  0.3436 -0.3276
  165SAPE  H11A18449   1.168   2.822   2.308 -0.7156  1.0126 -1.3218
  165SAPE  H11B18450   1.038   2.802   2.430 -1.1454 -1.2719 -0.0882
  165SAPE     P18451   0.918   2.875   2.160 -0.1312  0.3462 -0.0460
  165SAPE   O1318452   1.008   2.939   2.060  0.1478 -0.3279 -0.5879
  165SAPE   O1418453   0.787   2.836   2.110  0.5118  0.6969  0.4491
  165SAPE   O1218454   0.984   2.751   2.226 -0.5360 -0.8109 -0.3109
  165SAPE   O1118455   0.897   2.983   2.280  0.2772 -0.4453 -0.7665
  165SAPE    C118456   0.800   2.953   2.382 -0.0553 -0.0717 -0.2722
  165SAPE    HA18457   0.698   2.943   2.338 -0.5542 -0.1481  0.8533
  165SAPE    HB18458   0.831   2.854   2.422  3.1007 -0.5816 -3.5063
  165SAPE    C218459   0.798   3.056   2.496  0.0499  0.2275 -0.8694
  165SAPE    HS18460   0.783   3.005   2.594 -0.0464 -0.0332 -1.0188
  165SAPE   O2118461   0.691   3.144   2.483  0.0670  0.2455 -0.4331
  165SAPE   C2118462   0.571   3.087   2.516  0.0460 -0.7577  0.9318
  165SAPE   O2218463   0.567   2.980   2.572  0.8860 -0.0224 -0.0131
  165SAPE   C2218464   0.449   3.174   2.475  0.1330 -0.6290  0.3125
  165SAPE   H2R18465   0.479   3.279   2.495  2.5906 -1.2826  0.3159
  165SAPE   H2S18466   0.430   3.169   2.365  3.0110  0.9602 -0.3754
  165SAPE    C318467   0.929   3.138   2.517  0.5424 -0.1967  0.5345
  165SAPE    HX18468   0.926   3.209   2.432 -4.7934 -0.9038 -0.2553
  165SAPE    HY18469   1.015   3.068   2.515 -1.1198 -2.4309 -3.1940
  165SAPE   O3118470   0.912   3.200   2.644 -0.1034 -0.3772  0.0739
  165SAPE   C3118471   1.023   3.259   2.684 -0.1750  0.3215  0.5892
  165SAPE   O3218472   1.115   3.280   2.606 -0.6749 -0.1811  0.4577
  165SAPE   C3218473   1.020   3.282   2.839  0.1050  0.1807 -0.4315
  165SAPE   H2X18474   0.948   3.210   2.883 -0.1727 -0.9005 -2.5472
  165SAPE   H2Y18475   0.989   3.386   2.865  1.3777  0.4408  0.1308
  165SAPE   C2318476   0.315   3.141   2.544  0.2552  0.2073  0.2156
  165SAPE   H3R18477   0.304   3.031   2.538 -1.5935  0.4196 -1.1338
  165SAPE   H3S18478   0.222   3.174   2.495 -1.1606  1.5587  3.5121
  165SAPE   C2418479   0.320   3.196   2.687 -0.0461 -0.4789 -0.4989
  165SAPE   H4R18480   0.345   3.304   2.677 -3.8708  0.6371  0.3050
  165SAPE   H4S18481   0.401   3.149   2.746  0.2615 -0.8178 -1.1697
  165SAPE   C2518482   0.180   3.199   2.742 -0.1316 -0.4475  0.3524
  165SAPE   H5R18483   0.094   3.231   2.682 -0.3341  0.2165  0.9842
  165SAPE   C2618484   0.148   3.177   2.872  0.2489 -0.2094  0.0729
  165SAPE   H6R18485   0.042   3.188   2.897  0.0510 -2.1559  0.1980
  165SAPE   C2718486   0.250   3.151   2.979  0.1342 -0.4288  0.3757
  165SAPE   H7R18487   0.324   3.233   2.982 -0.1738 -0.0767 -0.8771
  165SAPE   H7S18488   0.309   3.058   2.966  0.6095  0.0084 -0.6834
  165SAPE   C2818489   0.182   3.147   3.115 -0.5480  0.9216  0.0386
  165SAPE   H8R18490   0.078   3.182   3.115 -1.2966 -1.2107 -0.6138
  165SAPE   C2918491   0.242   3.112   3.231  0.1719  0.0339  0.1557
  165SAPE   H9R18492   0.177   3.101   3.319  0.3089  0.7832  0.3570
  165SAPE  C21018493   0.388   3.079   3.254  0.6011 -0.0324  0.3547
  165SAPE  H10R18494   0.445   3.081   3.158 -0.8832  3.3510 -0.6039
  165SAPE  H10S18495   0.390   2.971   3.280 -2.1579 -0.5930 -1.2970
  165SAPE  C21118496   0.457   3.156   3.355  0.1011 -0.4246 -0.4601
  165SAPE  H11R18497   0.509   3.249   3.326  0.3594 -0.2374  0.5775
  165SAPE  C21218498   0.472   3.127   3.491  0.3045  0.5728 -0.6359
  165SAPE  H12R18499   0.529   3.199   3.552  1.8236 -0.5828 -0.6333
  165SAPE  C21318500   0.417   3.008   3.568  0.3051 -0.1538 -0.6443
  165SAPE  H13R18501   0.484   2.920   3.559  0.2744 -0.2323 -0.1787
  165SAPE  H13S18502   0.322   2.969   3.525  0.0637 -0.6586  0.3152
  165SAPE  C21418503   0.400   3.059   3.709  0.1819 -0.0958  0.0361
  165SAPE  H14R18504   0.308   3.114   3.732  0.2791  0.4798 -0.8788
  165SAPE  C21518505   0.490   3.020   3.810 -0.0171 -0.3233 -0.2166
  165SAPE  H15R18506   0.475   3.068   3.908  1.6588  0.9239 -0.5176
  165SAPE  C21618507   0.618   2.941   3.791 -0.1184 -1.0750 -1.5093
  165SAPE  H16R18508   0.679   2.971   3.703  0.9194 -0.4903 -0.6060
  165SAPE  H16S18509   0.589   2.837   3.763 -0.6939 -0.3328 -3.9434
  165SAPE  C21718510   0.721   2.950   3.907 -0.3503  0.1937 -0.1768
  165SAPE  H17R18511   0.758   3.054   3.910 -1.5443  0.6209  0.4212
  165SAPE  H17S18512   0.797   2.872   3.884 -1.2687 -0.5524 -0.7825
  165SAPE  C21818513   0.652   2.912   4.041 -0.9025 -0.6623 -0.0937
  165SAPE  H18R18514   0.590   2.825   4.011  2.6173 -2.7518 -2.0810
  165SAPE  H18S18515   0.603   3.004   4.080  1.9469  1.3173 -0.8309
  165SAPE  C21918516   0.751   2.863   4.144 -0.4273 -0.2359 -0.3230
  165SAPE  H19R18517   0.796   2.773   4.097  0.7606 -0.1183  0.5300
  165SAPE  H19S18518   0.693   2.829   4.232  0.0848 -0.5436 -0.0974
  165SAPE  C22018519   0.862   2.963   4.193  0.0979 -0.0853 -0.5449
  165SAPE  H20R18520   0.952   2.910   4.232  0.6713 -0.0708 -1.7955
  165SAPE  H20S18521   0.811   3.027   4.267  0.6901  1.1803 -1.2021
  165SAPE  H20T18522   0.895   3.020   4.104 -1.3808  0.4357 -0.7723
  165SAPE   C3318523   1.158   3.253   2.896 -0.6058  0.3373  0.2097
  165SAPE   H3X18524   1.218   3.341   2.866 -2.1971  1.5535  0.4282
  165SAPE   H3Y18525   1.202   3.158   2.858 -3.1703 -1.2097  0.8299
  165SAPE   C3418526   1.171   3.244   3.046 -0.0344 -0.2471  0.6383
  165SAPE   H4X18527   1.090   3.304   3.092 -0.0973  0.4179 -0.3199
  165SAPE   H4Y18528   1.268   3.285   3.082  0.5987 -1.1583  0.0166
  165SAPE   C3518529   1.152   3.096   3.095  0.4229  0.3321 -0.0303
  165SAPE   H5X18530   1.180   3.017   3.022  0.9095  0.2924  0.1947
  165SAPE   H5Y18531   1.043   3.080   3.108  0.1314 -0.3920 -2.7550
  165SAPE   C3618532   1.219   3.058   3.227 -0.0182 -0.0017  0.4555
  165SAPE   H6X18533   1.328   3.077   3.224  0.3677 -1.5470  2.4860
  165SAPE   H6Y18534   1.201   2.951   3.252 -2.5892  0.8738  2.8903
  165SAPE   C3718535   1.181   3.150   3.351 -0.1395  0.3782 -0.1852
  165SAPE   H7X18536   1.073   3.145   3.373 -0.7478 -1.8379 -3.1320
  165SAPE   H7Y18537   1.213   3.251   3.319  1.1909  1.4337  3.8422
  165SAPE   C3818538   1.271   3.112   3.478  0.1826  0.0540  0.5308
  165SAPE   H8X18539   1.380   3.118   3.457  0.7497 -1.3547  2.6865
  165SAPE   H8Y18540   1.248   3.005   3.500  1.5297 -0.2789  0.3708
  165SAPE   C3918541   1.219   3.196   3.598 -0.0319  0.3937  0.1946
  165SAPE   H9X18542   1.109   3.180   3.599  0.0346 -0.0917  0.1027
  165SAPE   H9Y18543   1.236   3.303   3.576  1.8602 -0.0784 -0.9169
  165SAPE  C31018544   1.298   3.152   3.724  0.3091  0.2138  0.7444
  165SAPE  H10X18545   1.403   3.173   3.694 -0.1870  1.0445 -0.5011
  165SAPE  H10Y18546   1.281   3.043   3.735  2.5564 -0.1980  0.6440
  165SAPE  C31118547   1.267   3.224   3.851  0.1787  0.3302  0.3108
  165SAPE  H11X18548   1.166   3.188   3.879 -0.1851  0.3424 -0.9025
  165SAPE  H11Y18549   1.275   3.334   3.842  3.0767  0.1321 -0.5171
  165SAPE  C31218550   1.361   3.174   3.963  0.6040  0.0599  0.0749
  165SAPE  H12X18551   1.459   3.222   3.942 -0.3506  1.0402 -2.5268
  165SAPE  H12Y18552   1.380   3.065   3.961  2.1877  0.2789 -2.8787
  165SAPE  C31318553   1.321   3.201   4.110  0.4928  0.5384 -0.5003
  165SAPE  H13X18554   1.399   3.157   4.176 -0.5837 -0.7847 -0.0778
  165SAPE  H13Y18555   1.228   3.159   4.153 -0.8154  2.0657 -1.7206
  165SAPE  C31418556   1.323   3.344   4.139 -0.4598 -0.3610  0.0475
  165SAPE  H14X18557   1.253   3.403   4.075  1.3795  0.6387 -1.1305
  165SAPE  H14Y18558   1.424   3.382   4.113 -1.0597  2.4672  1.4037
  165SAPE  C31518559   1.308   3.390   4.285  0.6743  0.0025 -0.6306
  165SAPE  H15X18560   1.328   3.499   4.290 -0.7092  0.2362  1.1690
  165SAPE  H15Y18561   1.381   3.339   4.352 -1.3925  0.1202  1.8929
  165SAPE  C31618562   1.175   3.359   4.352 -0.1507 -0.5562 -0.0590
  165SAPE  H16X18563   1.168   3.248   4.355  1.8338 -0.7196  2.8968
  165SAPE  H16Y18564   1.089   3.389   4.289 -1.0098 -1.4177  0.6832
  165SAPE  C31718565   1.160   3.395   4.498 -0.2804 -0.4109  0.5629
  165SAPE  H17X18566   1.244   3.347   4.552  0.5644  1.6763  1.2116
  165SAPE  H17Y18567   1.072   3.341   4.538 -0.7647 -1.3444 -1.6485
  165SAPE  C31818568   1.151   3.543   4.543 -0.6902 -0.7323  0.4244
  165SAPE  H18X18569   1.044   3.569   4.553 -0.0239  2.3749  0.3121
  165SAPE  H18Y18570   1.197   3.594   4.455 -1.0237  0.3842  0.8868
  165SAPE  H18Z18571   1.205   3.564   4.638 -1.1358 -2.4321  1.1012
  166SAPE     N18572   1.330   1.855   2.513  0.1691  0.2602  0.3558
  166SAPE   HN118573   1.312   1.922   2.590  2.5307  0.3439  0.9082
  166SAPE   HN218574   1.322   1.760   2.555  3.9597  0.0165  0.8311
  166SAPE   HN318575   1.432   1.855   2.495 -0.1187 -2.2442 -1.9044
  166SAPE   C1218576   1.244   1.878   2.392 -0.3097 -0.0792 -0.3432
  166SAPE  H12A18577   1.147   1.909   2.438 -0.0422 -1.3846  1.1690
  166SAPE  H12B18578   1.249   1.784   2.334  0.3988  0.2348 -0.8005
  166SAPE   C1118579   1.299   1.996   2.309  0.7096  0.3564 -0.3508
  166SAPE  H11A18580   1.227   2.011   2.226  1.7913  0.2341 -1.3313
  166SAPE  H11B18581   1.399   1.973   2.266  0.6953 -0.0483 -0.1678
  166SAPE     P18582   1.241   2.230   2.429  0.3876  0.2495 -0.2770
  166SAPE   O1318583   1.293   2.259   2.562 -0.7519 -0.0996  0.0428
  166SAPE   O1418584   1.252   2.336   2.327 -0.1925 -0.2835  0.5484
  166SAPE   O1218585   1.322   2.111   2.381  0.4403 -0.3072  0.0106
  166SAPE   O1118586   1.097   2.168   2.452 -0.0463  0.6820  0.3127
  166SAPE    C118587   1.000   2.252   2.511 -0.2803  0.4581  0.3625
  166SAPE    HA18588   1.007   2.357   2.474 -1.8257 -0.4014 -2.6958
  166SAPE    HB18589   0.899   2.232   2.468 -0.6913  2.6242  0.1725
  166SAPE    C218590   1.002   2.239   2.668 -1.2392  0.0538 -0.4737
  166SAPE    HS18591   1.101   2.203   2.704 -1.1796  1.0034  0.3445
  166SAPE   O2118592   0.907   2.146   2.707  0.7693  0.3735 -0.0402
  166SAPE   C2118593   0.927   2.071   2.812 -0.0535 -0.4014 -0.8814
  166SAPE   O2218594   1.022   2.082   2.889 -0.5131 -0.0215 -0.3599
  166SAPE   C2218595   0.826   1.957   2.828 -0.5636 -0.3543 -0.3745
  166SAPE   H2R18596   0.725   2.000   2.809 -0.4107  0.0419 -0.3011
  166SAPE   H2S18597   0.866   1.883   2.755  1.9231  1.3155 -0.8317
  166SAPE    C318598   0.969   2.372   2.735 -0.7752  0.1306  0.2454
  166SAPE    HX18599   0.861   2.391   2.716 -0.8384 -0.1534  0.3112
  166SAPE    HY18600   1.033   2.454   2.696  0.1162  0.1605  1.7007
  166SAPE   O3118601   0.979   2.369   2.877  0.5419 -0.5439  0.5376
  166SAPE   C3118602   1.092   2.377   2.936 -0.4936  1.5141 -0.0683
  166SAPE   O3218603   1.200   2.392   2.879 -0.1903  0.1755  0.4291
  166SAPE   C3218604   1.073   2.347   3.087  0.4672  0.0625 -0.3269
  166SAPE   H2X18605   1.024   2.247   3.100  0.5597  0.0279 -0.2464
  166SAPE   H2Y18606   1.020   2.433   3.133 -2.3444 -1.1780 -0.9847
  166SAPE   C2318607   0.829   1.900   2.972  0.5021 -0.4838  0.0263
  166SAPE   H3R18608   0.802   1.976   3.048  1.8688 -0.1530  0.1927
  166SAPE   H3S18609   0.929   1.860   2.998  1.5743  2.9306  1.6189
  166SAPE   C2418610   0.735   1.775   2.987  0.6289  1.0152  0.0562
  166SAPE   H4R18611   0.777   1.726   3.077  2.7603 -2.0356 -2.3610
  166SAPE   H4S18612   0.757   1.707   2.901 -1.2660 -0.3490  0.6034
  166SAPE   C2518613   0.591   1.807   2.995 -0.6972 -0.4805 -0.5144
  166SAPE   H5R18614   0.557   1.858   2.904  0.2665  0.8419 -0.1626
  166SAPE   C2618615   0.511   1.787   3.101 -0.1980 -0.5508  1.3779
  166SAPE   H6R18616   0.413   1.836   3.100  1.0280  2.0964 -0.4315
  166SAPE   C2718617   0.557   1.722   3.229  0.2204 -0.0585  0.6050
  166SAPE   H7R18618   0.644   1.780   3.265 -0.9934  1.3085  1.4136
  166SAPE   H7S18619   0.617   1.633   3.197 -2.1057 -0.3927 -3.6620
  166SAPE   C2818620   0.460   1.691   3.341 -0.0497 -0.2776  0.4875
  166SAPE   H8R18621   0.370   1.644   3.300  0.4440 -0.2627 -0.6649
  166SAPE   C2918622   0.492   1.697   3.474  0.0113  0.2961  0.0817
  166SAPE   H9R18623   0.411   1.678   3.545  0.0485  0.1263  0.0774
  166SAPE  C21018624   0.615   1.754   3.536  0.1751  0.1917 -0.7896
  166SAPE  H10R18625   0.591   1.779   3.642 -0.7973 -0.6074 -0.8042
  166SAPE  H10S18626   0.630   1.855   3.492 -1.7918  1.0178  0.2955
  166SAPE  C21118627   0.742   1.681   3.526 -0.4665  0.0141 -0.7283
  166SAPE  H11R18628   0.729   1.612   3.441  0.5735 -1.2932  0.1331
  166SAPE  C21218629   0.847   1.687   3.610 -0.5360 -0.4603  0.0504
  166SAPE  H12R18630   0.936   1.629   3.584 -0.1840 -0.0905  0.4153
  166SAPE  C21318631   0.863   1.781   3.721 -0.1867  0.2103  0.2493
  166SAPE  H13R18632   0.866   1.706   3.803  1.3604 -1.4244 -1.2366
  166SAPE  H13S18633   0.782   1.857   3.733  1.1883  2.0497 -1.5246
  166SAPE  C21418634   0.998   1.855   3.735  0.0482  0.8743 -0.5168
  166SAPE  H14R18635   1.035   1.885   3.636 -0.6664 -2.9447 -2.1299
  166SAPE  C21518636   1.087   1.852   3.839  0.3223  0.3046  0.1084
  166SAPE  H15R18637   1.182   1.905   3.823 -0.4793  1.8868  0.3691
  166SAPE  C21618638   1.079   1.772   3.964 -0.7440 -0.0131  0.2644
  166SAPE  H16R18639   1.059   1.666   3.938  1.0749 -1.0679  2.7427
  166SAPE  H16S18640   0.991   1.792   4.029 -0.3860 -1.7506  1.3454
  166SAPE  C21718641   1.197   1.776   4.068 -0.0210  0.2848  0.5127
  166SAPE  H17R18642   1.297   1.745   4.030 -0.2547 -1.0311  0.9017
  166SAPE  H17S18643   1.179   1.704   4.151  0.3839  0.5630  0.8480
  166SAPE  C21818644   1.201   1.915   4.127  0.7598 -0.2094 -0.1364
  166SAPE  H18R18645   1.097   1.941   4.156  1.5954  2.2462  0.9424
  166SAPE  H18S18646   1.237   1.992   4.055  1.0686  1.4746  1.7382
  166SAPE  C21918647   1.289   1.927   4.249 -0.0669 -0.4127  0.1070
  166SAPE  H19R18648   1.250   1.853   4.322 -2.7290  0.3391 -0.4266
  166SAPE  H19S18649   1.267   2.028   4.289  1.0678 -0.2209  0.2787
  166SAPE  C22018650   1.435   1.899   4.222 -0.2453  0.1059  0.6166
  166SAPE  H20R18651   1.473   1.995   4.181 -0.9680  0.8542  1.6370
  166SAPE  H20S18652   1.449   1.813   4.154  0.0953  2.0474 -1.9222
  166SAPE  H20T18653   1.471   1.878   4.325 -5.3447  1.4338  3.0388
  166SAPE   C3318654   1.205   2.333   3.157  0.1009  0.0081 -0.5249
  166SAPE   H3X18655   1.272   2.420   3.140  1.0170 -0.5394  0.2006
  166SAPE   H3Y18656   1.258   2.238   3.136  0.3811  0.1287 -0.3732
  166SAPE   C3418657   1.188   2.316   3.313 -0.6304 -0.3826  0.2270
  166SAPE   H4X18658   1.097   2.268   3.353 -1.0615 -2.0315 -2.4916
  166SAPE   H4Y18659   1.174   2.422   3.345 -1.5123  0.1980 -1.8867
  166SAPE   C3518660   1.309   2.255   3.392 -0.7788  0.1137 -0.4607
  166SAPE   H5X18661   1.401   2.304   3.354 -0.8473 -0.9452 -2.1057
  166SAPE   H5Y18662   1.334   2.149   3.365  0.0822 -0.1382  1.2121
  166SAPE   C3618663   1.303   2.273   3.547  0.4611 -0.1465  0.4909
  166SAPE   H6X18664   1.216   2.213   3.582  0.5680 -1.1705 -0.9095
  166SAPE   H6Y18665   1.296   2.382   3.568  0.5063  0.1931 -1.1287
  166SAPE   C3718666   1.411   2.198   3.615 -0.1586 -0.0135 -0.4770
  166SAPE   H7X18667   1.512   2.224   3.576  0.0529  0.9563  0.6809
  166SAPE   H7Y18668   1.383   2.091   3.601 -0.2987 -0.2435  1.4052
  166SAPE   C3818669   1.406   2.231   3.766 -0.4613 -0.2341 -0.1429
  166SAPE   H8X18670   1.308   2.210   3.812 -0.6793  0.3697 -0.3222
  166SAPE   H8Y18671   1.409   2.342   3.776  1.2395 -0.3495  1.1719
  166SAPE   C3918672   1.511   2.179   3.857 -0.5014 -0.3651 -0.9664
  166SAPE   H9X18673   1.482   2.203   3.961  2.2511  2.8344 -0.7705
  166SAPE   H9Y18674   1.605   2.237   3.842 -0.2418 -0.9691 -1.7849
  166SAPE  C31018675   1.547   2.029   3.835  0.4321 -0.6161  0.3413
  166SAPE  H10X18676   1.581   2.024   3.729  0.0790 -2.2060  0.2831
  166SAPE  H10Y18677   1.454   1.969   3.843  1.0528 -1.5681  0.5806
  166SAPE  C31118678   1.661   1.978   3.915 -0.7960  0.5423  0.0817
  166SAPE  H11X18679   1.634   1.953   4.020  0.3824 -2.2490 -0.1795
  166SAPE  H11Y18680   1.736   2.058   3.930 -0.0915 -0.2717  1.0917
  166SAPE  C31218681   1.723   1.853   3.852 -0.2553 -0.1500 -0.1488
  166SAPE  H12X18682   1.825   1.834   3.891 -0.9971  0.6971  2.4067
  166SAPE  H12Y18683   1.725   1.870   3.742  0.6890  2.5722  0.2156
  166SAPE  C31318684   1.649   1.721   3.891 -0.9455  0.2383  0.2339
  166SAPE  H13X18685   1.545   1.729   3.852 -0.9354 -0.9814 -0.0684
  166SAPE  H13Y18686   1.657   1.728   4.002  3.6732  1.5725  0.0352
  166SAPE  C31418687   1.721   1.594   3.842  0.0704 -0.5550 -0.3908
  166SAPE  H14X18688   1.653   1.510   3.866 -1.4631  0.9918  0.9613
  166SAPE  H14Y18689   1.820   1.575   3.888 -0.2213 -0.1066  0.4411
  166SAPE  C31518690   1.743   1.598   3.688  0.0483  0.2146  0.2556
  166SAPE  H15X18691   1.807   1.686   3.665  1.6136 -1.3335 -1.7296
  166SAPE  H15Y18692   1.648   1.623   3.637 -0.0044  0.4861  0.4825
  166SAPE  C31618693   1.801   1.460   3.635  0.0200  1.2515 -0.2452
  166SAPE  H16X18694   1.814   1.460   3.525 -0.1434  1.7158 -0.2680
  166SAPE  H16Y18695   1.720   1.387   3.657 -0.3073  0.6082 -3.2355
  166SAPE  C31718696   1.924   1.401   3.711  0.6035 -0.7189 -0.1890
  166SAPE  H17X18697   1.994   1.472   3.758 -1.3132  0.5879  0.8347
  166SAPE  H17Y18698   1.978   1.340   3.636  0.3100  0.5415 -1.4656
  166SAPE  C31818699   1.871   1.302   3.821  0.0327  0.3179 -0.4641
  166SAPE  H18X18700   1.811   1.354   3.899  0.9220  2.1786 -0.9690
  166SAPE  H18Y18701   1.961   1.261   3.873 -0.2810 -1.9514 -1.5641
  166SAPE  H18Z18702   1.820   1.212   3.779 -1.9798  0.9484  0.4801
  167SAPE     N18703   6.241   0.422   2.203 -0.3668 -0.2521  0.3415
  167SAPE   HN118704   6.292   0.453   2.288 -1.1598 -1.2021  1.1958
  167SAPE   HN218705   6.187   0.502   2.166  2.9402  0.7973 -2.7471
  167SAPE   HN318706   6.168   0.348   2.213 -1.9898  0.9241 -1.8518
  167SAPE   C1218707   6.341   0.387   2.099 -0.4118 -0.2426 -0.1258
  167SAPE  H12A18708   6.305   0.299   2.042  1.8393 -1.1750 -0.2229
  167SAPE  H12B18709   6.428   0.344   2.153 -2.2014  0.1995  3.4363
  167SAPE   C1118710   6.386   0.507   2.018  0.1168  0.3756  0.3274
  167SAPE  H11A18711   6.299   0.552   1.965 -0.0178  0.0205  0.2454
  167SAPE  H11B18712   6.456   0.492   1.933 -0.2772 -0.0079  0.0622
  167SAPE     P18713   6.473   0.749   2.046  0.1269  0.4125  0.1983
  167SAPE   O1318714   6.589   0.729   1.959 -0.0593  0.1593  0.0100
  167SAPE   O1418715   6.356   0.807   1.980  0.7484  0.3129 -0.3867
  167SAPE   O1218716   6.443   0.603   2.104 -0.5282  0.2903  0.0040
  167SAPE   O1118717   6.509   0.831   2.176 -0.7905 -0.4334 -0.0330
  167SAPE    C118718   6.464   0.808   2.313 -0.1917  0.2528  0.7134
  167SAPE    HA18719   6.413   0.710   2.320  2.2408 -1.4192 -2.4397
  167SAPE    HB18720   6.560   0.812   2.370 -0.4063  0.2944  1.0740
  167SAPE    C218721   6.376   0.929   2.358  0.2146  0.4738 -0.2114
  167SAPE    HS18722   6.418   0.954   2.457 -0.5602 -0.7846  0.4645
  167SAPE   O2118723   6.240   0.880   2.351  0.3415  0.2907 -0.5164
  167SAPE   C2118724   6.198   0.822   2.460  0.6102 -0.0773  0.0224
  167SAPE   O2218725   6.273   0.778   2.548  0.2172 -0.1124 -0.3210
  167SAPE   C2218726   6.047   0.819   2.442  0.2604 -0.0885 -0.0361
  167SAPE   H2R18727   6.023   0.774   2.343 -1.0195 -0.4867  0.4314
  167SAPE   H2S18728   6.019   0.750   2.524  1.5468 -0.1950  0.3416
  167SAPE    C318729   6.386   1.050   2.266  0.5558 -0.3131 -0.4076
  167SAPE    HX18730   6.353   1.020   2.164 -1.0411  1.4273 -0.4507
  167SAPE    HY18731   6.493   1.066   2.242  0.0062 -0.7749 -3.7083
  167SAPE   O3118732   6.313   1.164   2.318 -0.1835  0.3660  0.1214
  167SAPE   C3118733   6.379   1.228   2.410 -0.0851  0.6009  0.1158
  167SAPE   O3218734   6.493   1.203   2.448 -0.3015  0.4252  0.2180
  167SAPE   C3218735   6.285   1.337   2.452  0.2315 -0.5243 -0.1387
  167SAPE   H2X18736   6.216   1.366   2.371  0.4724 -2.4181 -1.0871
  167SAPE   H2Y18737   6.351   1.426   2.462  0.4136 -0.3967 -2.1151
  167SAPE   C2318738   5.969   0.945   2.462 -0.2342  0.7393 -0.4151
  167SAPE   H3R18739   5.868   0.920   2.425  0.4809 -1.3561 -1.1082
  167SAPE   H3S18740   6.009   1.026   2.397  1.8717 -1.6112 -2.2524
  167SAPE   C2418741   5.973   0.987   2.618  0.5302 -0.7937  0.1143
  167SAPE   H4R18742   5.967   1.095   2.641 -0.8610 -1.0971  1.3116
  167SAPE   H4S18743   6.072   0.966   2.663  0.0803 -1.1615  0.9484
  167SAPE   C2518744   5.862   0.915   2.686  0.8433 -0.6388  0.4627
  167SAPE   H5R18745   5.853   0.812   2.649 -2.7706  0.2685 -1.6744
  167SAPE   C2618746   5.766   0.961   2.770  0.0524 -0.4219 -0.0122
  167SAPE   H6R18747   5.684   0.890   2.787  0.7929 -1.2924 -0.0024
  167SAPE   C2718748   5.747   1.096   2.831 -0.1003 -0.5734  0.1454
  167SAPE   H7R18749   5.815   1.177   2.797  0.0656 -0.6400  0.3152
  167SAPE   H7S18750   5.768   1.095   2.941 -0.0985 -0.3180  0.1490
  167SAPE   C2818751   5.605   1.145   2.797 -0.3584 -0.2651 -0.6401
  167SAPE   H8R18752   5.591   1.147   2.688 -1.3983 -0.3765 -0.5218
  167SAPE   C2918753   5.516   1.214   2.872 -1.0023 -0.3650 -0.8160
  167SAPE   H9R18754   5.426   1.246   2.817 -1.9037  0.0821  0.8362
  167SAPE  C21018755   5.522   1.241   3.021 -0.1553 -0.2344  0.6094
  167SAPE  H10R18756   5.591   1.326   3.040  0.3127  0.2207 -2.5700
  167SAPE  H10S18757   5.564   1.149   3.067  0.0357  0.3870  1.7169
  167SAPE  C21118758   5.382   1.266   3.070  0.0482  0.4839 -0.1752
  167SAPE  H11R18759   5.308   1.194   3.031 -0.5228  1.1960 -0.4252
  167SAPE  C21218760   5.345   1.358   3.153  0.1498  0.5672  0.3537
  167SAPE  H12R18761   5.241   1.373   3.183  0.4997  1.1332  1.3156
  167SAPE  C21318762   5.457   1.430   3.229  0.4432 -0.3343 -0.3233
  167SAPE  H13R18763   5.499   1.507   3.161 -1.1802  0.7803 -0.1248
  167SAPE  H13S18764   5.529   1.356   3.269 -0.2032 -1.2630 -0.8241
  167SAPE  C21418765   5.423   1.514   3.355  0.4625  0.0629  0.4029
  167SAPE  H14R18766   5.399   1.619   3.335  0.0059  0.4096  2.5175
  167SAPE  C21518767   5.432   1.477   3.481  0.1846 -0.3374  0.3109
  167SAPE  H15R18768   5.414   1.552   3.559 -1.6448 -0.1264 -0.2588
  167SAPE  C21618769   5.476   1.335   3.522 -0.4104  0.0209 -0.2557
  167SAPE  H16R18770   5.555   1.291   3.457 -1.1810  0.1007 -1.2824
  167SAPE  H16S18771   5.390   1.268   3.502  1.0396 -1.5553 -1.5080
  167SAPE  C21718772   5.522   1.321   3.669  0.2298 -0.5968 -0.3834
  167SAPE  H17R18773   5.432   1.327   3.734  0.5928 -0.1827  0.0863
  167SAPE  H17S18774   5.592   1.405   3.689 -0.5252 -0.4753  2.1847
  167SAPE  C21818775   5.599   1.184   3.692  0.1489 -0.5841 -0.3219
  167SAPE  H18R18776   5.690   1.187   3.627  2.3409 -1.7074  2.5001
  167SAPE  H18S18777   5.527   1.103   3.666 -0.0988 -0.0086 -1.5088
  167SAPE  C21918778   5.640   1.174   3.837 -0.1023  0.1735  0.0212
  167SAPE  H19R18779   5.697   1.079   3.850  2.2191  1.1736 -2.0623
  167SAPE  H19S18780   5.547   1.164   3.897 -0.3191 -1.8738 -0.5682
  167SAPE  C22018781   5.723   1.284   3.898 -0.1239 -0.5209  0.2606
  167SAPE  H20R18782   5.824   1.292   3.851  0.4819 -0.1945  1.5693
  167SAPE  H20S18783   5.743   1.256   4.004 -1.4757 -0.4576  0.5489
  167SAPE  H20T18784   5.667   1.380   3.890  0.1468 -0.2963  0.9457
  167SAPE   C3318785   6.194   1.292   2.572 -0.8105 -0.6647  0.8916
  167SAPE   H3X18786   6.184   1.181   2.563 -0.6920 -0.5173 -2.0728
  167SAPE   H3Y18787   6.100   1.351   2.564  0.2306  1.0511  0.8791
  167SAPE   C3418788   6.260   1.314   2.708  0.3806 -0.5782  0.0799
  167SAPE   H4X18789   6.265   1.421   2.738 -0.2574 -1.1965  2.5955
  167SAPE   H4Y18790   6.365   1.278   2.709  0.8022  0.5770  2.4343
  167SAPE   C3518791   6.184   1.231   2.816  0.2738  0.5725  0.3080
  167SAPE   H5X18792   6.192   1.125   2.782 -2.2506  0.5777 -0.5338
  167SAPE   H5Y18793   6.074   1.247   2.818  0.4955  2.5694  3.5455
  167SAPE   C3618794   6.227   1.258   2.962 -0.1160  0.1492  0.5336
  167SAPE   H6X18795   6.219   1.363   2.997 -0.9416 -0.0909  1.0929
  167SAPE   H6Y18796   6.335   1.237   2.969  1.0440  4.4391 -1.3436
  167SAPE   C3718797   6.160   1.168   3.071 -0.3902 -0.6012  0.3424
  167SAPE   H7X18798   6.205   1.068   3.054 -2.4032 -1.2063 -1.9842
  167SAPE   H7Y18799   6.055   1.147   3.039 -0.8749  3.2782 -1.2212
  167SAPE   C3818800   6.168   1.228   3.211  0.4388 -0.2159 -0.3702
  167SAPE   H8X18801   6.104   1.319   3.201 -1.3393 -1.3468  0.2613
  167SAPE   H8Y18802   6.267   1.255   3.253 -0.1820  0.1906  0.8882
  167SAPE   C3918803   6.094   1.125   3.300 -0.2356 -0.1379 -0.3195
  167SAPE   H9X18804   6.147   1.028   3.298 -2.3205 -1.3414 -2.7207
  167SAPE   H9Y18805   5.995   1.100   3.257  0.6288 -0.6090 -2.1517
  167SAPE  C31018806   6.098   1.186   3.437 -0.0370  0.2394 -0.0294
  167SAPE  H10X18807   6.087   1.297   3.435  2.5072  0.6562  2.1087
  167SAPE  H10Y18808   6.203   1.172   3.471  0.6003  1.8737 -1.1748
  167SAPE  C31118809   6.000   1.136   3.540  0.5319 -0.1155 -0.8512
  167SAPE  H11X18810   5.994   1.025   3.542  3.1690 -0.3094 -0.2829
  167SAPE  H11Y18811   5.903   1.177   3.505 -0.4092 -0.8724  0.7063
  167SAPE  C31218812   6.023   1.197   3.677 -0.1811  0.3470 -0.4984
  167SAPE  H12X18813   5.928   1.170   3.729  0.7493 -1.0790  0.5258
  167SAPE  H12Y18814   6.032   1.308   3.678 -0.6808  0.4062 -1.3725
  167SAPE  C31318815   6.132   1.124   3.753  0.9308 -0.3216 -0.1900
  167SAPE  H13X18816   6.226   1.147   3.698  1.1301  1.0356  0.6715
  167SAPE  H13Y18817   6.106   1.016   3.751 -2.5776  0.3669  1.1838
  167SAPE  C31418818   6.159   1.180   3.893  0.6298 -0.3344 -0.0563
  167SAPE  H14X18819   6.067   1.167   3.954  0.6995 -0.9603 -0.0754
  167SAPE  H14Y18820   6.178   1.289   3.896  1.0337 -0.2746 -2.5593
  167SAPE  C31518821   6.267   1.117   3.972 -0.3969  0.3326  0.0360
  167SAPE  H15X18822   6.280   1.170   4.069 -1.7107 -0.1688  0.5116
  167SAPE  H15Y18823   6.361   1.136   3.916 -1.8639 -0.8765 -3.0494
  167SAPE  C31618824   6.264   0.968   3.999  0.1576  0.0769 -0.0594
  167SAPE  H16X18825   6.256   0.919   3.899  1.8278 -0.3851  0.0084
  167SAPE  H16Y18826   6.172   0.936   4.052 -0.1268  0.0842 -0.5480
  167SAPE  C31718827   6.387   0.918   4.084  0.3213  0.2797 -0.1388
  167SAPE  H17X18828   6.354   0.882   4.183 -3.9412  1.6517 -0.8475
  167SAPE  H17Y18829   6.452   1.003   4.115  2.6039 -1.8579  1.2681
  167SAPE  C31818830   6.454   0.806   4.003 -0.2612 -0.4504  0.1839
  167SAPE  H18X18831   6.540   0.769   4.064  1.5764  0.0940 -1.9220
  167SAPE  H18Y18832   6.480   0.826   3.897 -0.5248  0.0414  0.2133
  167SAPE  H18Z18833   6.378   0.725   3.992 -0.7513 -0.0463  0.6012
  168SAPE     N18834   2.360   5.484   1.922 -0.5855  0.1032  0.1824
  168SAPE   HN118835   2.277   5.445   1.972 -0.2394 -1.3425 -0.3310
  168SAPE   HN218836   2.354   5.441   1.828  3.4770 -1.0857  0.2875
  168SAPE   HN318837   2.442   5.429   1.957  0.6805  1.6490 -0.2563
  168SAPE   C1218838   2.368   5.634   1.932  0.2440 -0.4453  0.2315
  168SAPE  H12A18839   2.274   5.684   1.899  0.4763 -0.4862 -0.5281
  168SAPE  H12B18840   2.450   5.664   1.863 -0.5263 -1.2338 -1.0637
  168SAPE   C1118841   2.398   5.678   2.078 -0.5638  0.3275  0.1725
  168SAPE  H11A18842   2.315   5.643   2.144 -1.4960  1.6880 -0.2307
  168SAPE  H11B18843   2.398   5.789   2.068 -0.6229  0.3751  0.6474
  168SAPE     P18844   2.643   5.711   2.110 -0.2357  0.4935  0.4262
  168SAPE   O1318845   2.766   5.626   2.129  0.1042 -0.4103 -0.1989
  168SAPE   O1418846   2.635   5.783   1.981  0.2410 -0.4403 -0.1945
  168SAPE   O1218847   2.520   5.621   2.123  0.0331  0.2157  0.6178
  168SAPE   O1118848   2.616   5.822   2.222  0.4007  0.4912 -0.7160
  168SAPE    C118849   2.730   5.880   2.288  0.3953 -0.6342 -0.5058
  168SAPE    HA18850   2.770   5.802   2.356 -0.2841 -1.4584 -1.0209
  168SAPE    HB18851   2.807   5.908   2.214  0.6071  0.7850  0.2115
  168SAPE    C218852   2.700   6.013   2.357  1.2434 -0.4961 -0.6128
  168SAPE    HS18853   2.789   6.068   2.395  0.9938 -1.3102  1.2652
  168SAPE   O2118854   2.615   5.999   2.468  0.2697  0.1662 -0.4827
  168SAPE   C2118855   2.666   5.934   2.576  0.2390 -0.0217  0.4281
  168SAPE   O2218856   2.773   5.882   2.576  0.0472  0.7794  0.6429
  168SAPE   C2218857   2.550   5.920   2.668 -1.0984  1.1143 -0.5993
  168SAPE   H2R18858   2.457   5.972   2.635 -2.9181 -1.8924 -0.5631
  168SAPE   H2S18859   2.525   5.813   2.685  1.6610  0.3961 -0.5656
  168SAPE    C318860   2.632   6.120   2.265  0.0825  0.2326  0.2460
  168SAPE    HX18861   2.544   6.078   2.213  1.2887 -1.3713 -0.6075
  168SAPE    HY18862   2.711   6.143   2.190 -0.8375 -0.9622 -1.1551
  168SAPE   O3118863   2.595   6.248   2.332 -0.3012  0.0321  0.3194
  168SAPE   C3118864   2.679   6.350   2.346  0.5972 -0.3553  0.4508
  168SAPE   O3218865   2.798   6.343   2.326 -0.8231  0.1434 -0.1921
  168SAPE   C3218866   2.591   6.473   2.392  0.3046  0.5545  0.5199
  168SAPE   H2X18867   2.507   6.499   2.323 -1.0645 -0.5982  1.6891
  168SAPE   H2Y18868   2.666   6.556   2.397  2.2312 -1.1014  0.2650
  168SAPE   C2318869   2.596   5.982   2.807 -0.3467 -0.2837  0.6316
  168SAPE   H3R18870   2.503   6.017   2.859 -0.1082  0.3512  0.6402
  168SAPE   H3S18871   2.661   6.072   2.795 -0.9140 -0.1201 -1.5822
  168SAPE   C2418872   2.668   5.877   2.896 -0.7237 -0.8453  0.2157
  168SAPE   H4R18873   2.768   5.847   2.860 -1.0091  0.8369 -2.1655
  168SAPE   H4S18874   2.609   5.783   2.904 -0.8407 -0.6209  3.1513
  168SAPE   C2518875   2.671   5.932   3.042  0.0166  0.4301 -0.5119
  168SAPE   H5R18876   2.612   6.024   3.057 -1.0180 -0.6426  2.6418
  168SAPE   C2618877   2.730   5.874   3.147 -0.3645  0.2261  0.1163
  168SAPE   H6R18878   2.728   5.931   3.241 -1.0574 -0.2505  0.3915
  168SAPE   C2718879   2.811   5.751   3.119 -0.0990 -0.4391 -0.2306
  168SAPE   H7R18880   2.885   5.744   3.203 -0.7119 -0.3736  0.3237
  168SAPE   H7S18881   2.884   5.770   3.037  0.4313  0.5093  0.4390
  168SAPE   C2818882   2.739   5.621   3.118 -0.2876  0.0804 -0.0815
  168SAPE   H8R18883   2.695   5.583   3.024 -0.3935  0.4376 -0.1787
  168SAPE   C2918884   2.733   5.535   3.226  0.6472  0.1555 -0.3060
  168SAPE   H9R18885   2.697   5.431   3.217  1.0317 -0.0104  0.0080
  168SAPE  C21018886   2.787   5.555   3.362 -0.2435 -0.7605 -1.1389
  168SAPE  H10R18887   2.777   5.662   3.388 -2.0873 -0.9160 -1.0886
  168SAPE  H10S18888   2.893   5.522   3.364 -0.7375 -2.4476  0.1672
  168SAPE  C21118889   2.717   5.475   3.472 -0.1554 -0.0968  0.0900
  168SAPE  H11R18890   2.635   5.414   3.432 -2.1454  1.2836  1.8956
  168SAPE  C21218891   2.720   5.494   3.598 -0.0754 -0.5006 -0.0971
  168SAPE  H12R18892   2.659   5.428   3.662 -2.0876  1.9718  0.6926
  168SAPE  C21318893   2.799   5.588   3.681 -0.1264  0.3097  0.3197
  168SAPE  H13R18894   2.738   5.669   3.727 -2.0022 -0.0843 -1.3585
  168SAPE  H13S18895   2.870   5.635   3.610  0.0629 -0.1363  0.2095
  168SAPE  C21418896   2.882   5.526   3.788 -0.4956 -0.8060  0.4134
  168SAPE  H14R18897   2.985   5.502   3.757 -0.8416 -0.7026 -0.8409
  168SAPE  C21518898   2.842   5.511   3.917  0.4273 -0.1930  0.3545
  168SAPE  H15R18899   2.907   5.478   3.999  0.3679 -0.0471  0.4595
  168SAPE  C21618900   2.705   5.551   3.957  0.4065  0.5954 -0.0028
  168SAPE  H16R18901   2.654   5.470   4.015 -1.4027  0.5466 -1.5740
  168SAPE  H16S18902   2.637   5.564   3.870  2.3272 -0.3159 -1.7070
  168SAPE  C21718903   2.680   5.672   4.041 -0.0312  0.4374  0.1272
  168SAPE  H17R18904   2.575   5.672   4.076  0.1095 -1.1103  0.6280
  168SAPE  H17S18905   2.701   5.768   3.989 -1.3377  1.3687  1.2461
  168SAPE  C21818906   2.762   5.653   4.175  0.5372  0.3539  0.3832
  168SAPE  H18R18907   2.870   5.660   4.148  0.6422  2.7990  1.1985
  168SAPE  H18S18908   2.741   5.547   4.201 -1.4105  0.4829 -0.4850
  168SAPE  C21918909   2.722   5.752   4.281  0.1509 -0.1307 -0.4836
  168SAPE  H19R18910   2.740   5.854   4.240 -0.8530  0.6363  0.8899
  168SAPE  H19S18911   2.781   5.740   4.375 -0.6764  3.1221  0.5846
  168SAPE  C22018912   2.577   5.751   4.329 -0.0959  0.5410  0.0676
  168SAPE  H20R18913   2.544   5.658   4.379 -0.2579 -0.1962 -1.3726
  168SAPE  H20S18914   2.516   5.759   4.237  1.7849  0.7688 -1.2284
  168SAPE  H20T18915   2.555   5.835   4.399  0.4183  0.9375 -0.2300
  168SAPE   C3318916   2.518   6.440   2.530 -0.3235 -0.4002  0.2295
  168SAPE   H3X18917   2.449   6.353   2.526 -1.1122  0.2403 -0.4045
  168SAPE   H3Y18918   2.458   6.533   2.542  0.9459  0.7753 -1.8140
  168SAPE   C3418919   2.634   6.429   2.638  0.4460 -0.1963 -0.0140
  168SAPE   H4X18920   2.698   6.519   2.637  0.4906 -0.1927  1.3595
  168SAPE   H4Y18921   2.693   6.336   2.625  0.9882 -0.7308  4.7530
  168SAPE   C3518922   2.567   6.423   2.775 -0.8221  0.5334  0.4527
  168SAPE   H5X18923   2.492   6.341   2.784 -0.2795 -0.2957 -1.9411
  168SAPE   H5Y18924   2.518   6.520   2.797  1.3420  1.4623  1.4519
  168SAPE   C3618925   2.672   6.400   2.886  0.4138 -0.2787 -0.3575
  168SAPE   H6X18926   2.738   6.489   2.900 -0.0135  0.0825 -0.5943
  168SAPE   H6Y18927   2.734   6.315   2.852 -0.4022  0.0325 -2.8718
  168SAPE   C3718928   2.618   6.357   3.021 -0.5322  0.2121 -0.0801
  168SAPE   H7X18929   2.547   6.274   3.002 -0.3327  0.2722 -1.1944
  168SAPE   H7Y18930   2.575   6.444   3.074 -3.4194 -0.5112 -1.0559
  168SAPE   C3818931   2.731   6.302   3.109  1.0067 -0.5578  0.7935
  168SAPE   H8X18932   2.817   6.373   3.110 -0.5992  1.4969  0.2360
  168SAPE   H8Y18933   2.765   6.204   3.069  2.2361  0.5558 -0.9946
  168SAPE   C3918934   2.699   6.286   3.258  0.0801  0.4962  0.7204
  168SAPE   H9X18935   2.601   6.236   3.275  1.0131 -1.7867 -0.2503
  168SAPE   H9Y18936   2.692   6.386   3.307 -0.2006  0.5667  0.5381
  168SAPE  C31018937   2.804   6.223   3.344 -0.2783  0.6563  0.2301
  168SAPE  H10X18938   2.897   6.269   3.304 -0.2697 -0.6184 -1.3546
  168SAPE  H10Y18939   2.814   6.113   3.331 -0.2856  0.6943 -0.1127
  168SAPE  C31118940   2.781   6.233   3.493 -0.0997 -0.5477  0.3907
  168SAPE  H11X18941   2.681   6.196   3.523 -0.2145 -0.0209  0.6613
  168SAPE  H11Y18942   2.788   6.340   3.520 -1.3603  0.2462 -2.1780
  168SAPE  C31218943   2.877   6.155   3.577 -0.5751  0.2222 -0.9444
  168SAPE  H12X18944   2.981   6.171   3.542 -0.2928 -0.2623 -0.3472
  168SAPE  H12Y18945   2.862   6.045   3.570 -1.8572  0.2283  0.9502
  168SAPE  C31318946   2.880   6.178   3.728  0.5494 -0.4446  0.2118
  168SAPE  H13X18947   2.782   6.147   3.770 -0.7281 -0.7557 -2.7264
  168SAPE  H13Y18948   2.910   6.284   3.747  2.9211 -1.6279  4.3670
  168SAPE  C31418949   2.979   6.083   3.803  0.1511  0.3594  0.1976
  168SAPE  H14X18950   3.086   6.098   3.781  0.1829 -0.5188 -0.2608
  168SAPE  H14Y18951   2.946   5.981   3.774  2.3083 -0.5743  0.8780
  168SAPE  C31518952   2.967   6.116   3.961  0.7823 -0.5397 -0.0049
  168SAPE  H15X18953   2.859   6.119   3.987  1.1417 -0.0724  1.5695
  168SAPE  H15Y18954   2.999   6.220   3.984 -0.2158 -0.3670  0.6793
  168SAPE  C31618955   3.029   6.014   4.059 -1.0297 -0.2015 -0.6605
  168SAPE  H16X18956   3.009   5.907   4.036  3.3221 -1.2984 -0.1796
  168SAPE  H16Y18957   2.989   6.035   4.161  0.7464 -1.0599  0.2661
  168SAPE  C31718958   3.181   6.034   4.061 -0.0048  0.0332  0.3588
  168SAPE  H17X18959   3.205   6.142   4.062 -1.0531  0.3126 -1.2025
  168SAPE  H17Y18960   3.231   6.005   3.966 -0.4481  2.3303 -0.6354
  168SAPE  C31818961   3.251   5.974   4.182  0.4035 -0.2611 -0.3395
  168SAPE  H18X18962   3.248   5.864   4.173  2.1891 -0.2833 -1.0086
  168SAPE  H18Y18963   3.208   6.013   4.277  1.0964 -0.8147  0.2143
  168SAPE  H18Z18964   3.361   5.990   4.185  0.5762 -1.4937  0.9975
  169SAPE     N18965   1.687   2.040   2.081  0.1629 -0.2965  0.2175
  169SAPE   HN118966   1.696   1.938   2.100  0.2673 -0.1538  0.9490
  169SAPE   HN218967   1.596   2.065   2.038  0.0834 -0.9502 -0.0023
  169SAPE   HN318968   1.770   2.074   2.027  1.1136 -1.5177  0.8661
  169SAPE   C1218969   1.704   2.090   2.236  0.8785 -0.2761  0.2630
  169SAPE  H12A18970   1.609   2.064   2.287  1.6877  1.5821  2.8994
  169SAPE  H12B18971   1.734   2.197   2.233  0.0292  0.0096  1.5178
  169SAPE   C1118972   1.820   2.018   2.309 -0.4659 -0.0973 -0.0655
  169SAPE  H11A18973   1.818   2.053   2.414  1.6969 -1.0506  0.3497
  169SAPE  H11B18974   1.919   2.042   2.267 -0.5660 -0.2837 -0.4095
  169SAPE     P18975   1.706   1.803   2.391 -0.1114  0.4232  0.0280
  169SAPE   O1318976   1.571   1.872   2.402 -0.3417  0.4784 -0.2348
  169SAPE   O1418977   1.702   1.662   2.348  0.6457  0.6195 -0.0795
  169SAPE   O1218978   1.801   1.882   2.293 -0.0176  0.5036  0.1396
  169SAPE   O1118979   1.785   1.812   2.524  0.3413  0.1438 -0.7391
  169SAPE    C118980   1.811   1.686   2.593 -0.0999 -0.1238  0.3951
  169SAPE    HA18981   1.853   1.606   2.528  0.2613 -0.3553  0.9061
  169SAPE    HB18982   1.877   1.703   2.680 -1.2814 -0.1358  1.3227
  169SAPE    C218983   1.676   1.633   2.661 -0.2914  0.0189 -0.3475
  169SAPE    HS18984   1.598   1.645   2.583 -0.4607  3.3858  0.1882
  169SAPE   O2118985   1.648   1.709   2.781  0.3145  0.7178 -1.2169
  169SAPE   C2118986   1.520   1.737   2.806  0.5387 -0.9286  0.5967
  169SAPE   O2218987   1.434   1.704   2.728 -0.4804  0.0117 -0.4386
  169SAPE   C2218988   1.489   1.790   2.947 -0.2793  0.3938 -0.0838
  169SAPE   H2R18989   1.529   1.713   3.017 -1.7627  0.2537  0.6705
  169SAPE   H2S18990   1.543   1.885   2.963  0.4233  0.2483 -1.4666
  169SAPE    C318991   1.687   1.480   2.686 -0.1240 -0.0353 -0.5923
  169SAPE    HX18992   1.779   1.464   2.746 -0.6439 -0.5089  0.0911
  169SAPE    HY18993   1.695   1.436   2.584  0.5208 -1.1088 -0.0957
  169SAPE   O3118994   1.577   1.430   2.767  0.1583  0.4931  0.5080
  169SAPE   C3118995   1.537   1.312   2.722 -0.4422 -0.6646 -0.4052
  169SAPE   O3218996   1.593   1.238   2.644 -0.0470 -0.2764  0.1601
  169SAPE   C3218997   1.408   1.282   2.783  0.8091 -0.3930 -0.2198
  169SAPE   H2X18998   1.345   1.354   2.727  2.1968  0.4357 -0.7573
  169SAPE   H2Y18999   1.415   1.306   2.892 -1.5408 -0.9774  0.1101
  169SAPE   C2319000   1.339   1.808   2.989  0.2748 -0.9751  0.1984
  169SAPE   H3R19001   1.292   1.708   2.976  1.6421 -1.7890  1.2316
  169SAPE   H3S19002   1.296   1.888   2.925  4.0564  0.2390 -1.0900
  169SAPE   C2419003   1.332   1.845   3.137 -0.0755  0.3802 -0.4358
  169SAPE   H4R19004   1.403   1.927   3.162  1.0917 -1.2810  2.1771
  169SAPE   H4S19005   1.373   1.769   3.207  0.2537  0.1020 -0.9206
  169SAPE   C2519006   1.191   1.888   3.176 -0.2403  0.0398  0.3692
  169SAPE   H5R19007   1.145   1.971   3.122  0.7561  0.9688  0.9044
  169SAPE   C2619008   1.114   1.836   3.273 -0.1503 -0.3075  0.5418
  169SAPE   H6R19009   1.022   1.890   3.297  0.8174  0.9826  1.4823
  169SAPE   C2719010   1.161   1.725   3.365  0.3208  0.4866  0.1666
  169SAPE   H7R19011   1.197   1.638   3.307 -1.3173  0.5034 -0.9504
  169SAPE   H7S19012   1.066   1.692   3.412  0.4447 -1.8277 -1.0574
  169SAPE   C2819013   1.248   1.781   3.475  0.3748 -0.1706  0.2569
  169SAPE   H8R19014   1.293   1.878   3.450 -0.8931  0.3386 -0.1371
  169SAPE   C2919015   1.282   1.711   3.588  0.2286  0.7011 -0.2904
  169SAPE   H9R19016   1.338   1.772   3.661  2.0206  0.4506 -1.3955
  169SAPE  C21019017   1.235   1.574   3.628  0.1886  0.0155  0.4301
  169SAPE  H10R19018   1.223   1.512   3.536  2.8621 -0.9436  0.6367
  169SAPE  H10S19019   1.137   1.578   3.679 -0.4014 -0.7121 -0.6163
  169SAPE  C21119020   1.332   1.490   3.713 -0.0570  1.0852 -0.3969
  169SAPE  H11R19021   1.436   1.519   3.695  0.5947  0.4652  2.0564
  169SAPE  C21219022   1.296   1.379   3.779  0.0094  0.0100  0.5232
  169SAPE  H12R19023   1.377   1.330   3.835  1.4823  2.1408  0.3371
  169SAPE  C21319024   1.151   1.327   3.792 -0.1157 -0.3432 -0.4933
  169SAPE  H13R19025   1.167   1.222   3.760 -0.1112 -0.3948 -0.3178
  169SAPE  H13S19026   1.084   1.359   3.709  1.3059 -0.0952 -1.5766
  169SAPE  C21419027   1.070   1.355   3.920 -0.0908  0.1382 -0.8612
  169SAPE  H14R19028   1.002   1.440   3.909  0.2308  0.7025  1.1653
  169SAPE  C21519029   1.075   1.278   4.033 -0.0509  0.3748  0.0309
  169SAPE  H15R19030   1.010   1.302   4.119 -0.7008 -0.1386 -0.3114
  169SAPE  C21619031   1.156   1.148   4.062  0.6352 -0.7391  0.1173
  169SAPE  H16R19032   1.160   1.099   3.962 -0.0969  1.2275 -0.9322
  169SAPE  H16S19033   1.122   1.078   4.142  0.3943 -0.3890  0.3227
  169SAPE  C21719034   1.296   1.198   4.097  0.2046  0.3920 -0.0712
  169SAPE  H17R19035   1.335   1.261   4.014  1.2088  2.8200  2.1203
  169SAPE  H17S19036   1.366   1.112   4.109  0.5502  0.4947 -1.2287
  169SAPE  C21819037   1.293   1.295   4.220 -0.2845 -0.0767  0.5305
  169SAPE  H18R19038   1.264   1.227   4.303 -1.7717 -1.2823 -0.8921
  169SAPE  H18S19039   1.220   1.379   4.211  0.3626  0.3322 -1.4998
  169SAPE  C21919040   1.430   1.355   4.259 -0.0499 -0.6697  0.6976
  169SAPE  H19R19041   1.517   1.290   4.238  1.3411  0.9066  1.3086
  169SAPE  H19S19042   1.432   1.371   4.369 -0.1733 -1.1311  0.7684
  169SAPE  C22019043   1.461   1.490   4.193  0.3365  0.6716 -0.5967
  169SAPE  H20R19044   1.479   1.469   4.086  0.5988 -0.8076 -0.2870
  169SAPE  H20S19045   1.547   1.541   4.241 -0.8470 -0.4994  3.1881
  169SAPE  H20T19046   1.374   1.559   4.203  0.9231  1.6280 -1.8441
  169SAPE   C3319047   1.355   1.145   2.763 -0.3719 -0.2844  0.5495
  169SAPE   H3X19048   1.379   1.112   2.660  0.2578  0.9143  0.2989
  169SAPE   H3Y19049   1.245   1.151   2.779 -0.3954 -1.7542  1.1410
  169SAPE   C3419050   1.401   1.033   2.863 -0.3205  0.0741  0.1844
  169SAPE   H4X19051   1.508   1.005   2.847  0.0607  0.3924  1.9826
  169SAPE   H4Y19052   1.335   0.950   2.831 -2.2670  1.5168  0.2453
  169SAPE   C3519053   1.384   1.057   3.012 -0.0542 -0.5138  0.4471
  169SAPE   H5X19054   1.276   1.075   3.030  0.1760  0.7354  0.6629
  169SAPE   H5Y19055   1.442   1.145   3.046 -1.7449  0.1424  1.8035
  169SAPE   C3619056   1.416   0.944   3.107  0.6796  0.3917 -0.1722
  169SAPE   H6X19057   1.461   0.995   3.195 -1.8614  0.0642  1.4086
  169SAPE   H6Y19058   1.493   0.874   3.068 -0.3931 -0.3842 -0.9663
  169SAPE   C3719059   1.299   0.865   3.159 -0.1392 -0.3658 -0.0661
  169SAPE   H7X19060   1.261   0.810   3.070  1.8942  0.7199 -1.7126
  169SAPE   H7Y19061   1.216   0.927   3.199 -0.6742 -0.8974 -0.3331
  169SAPE   C3819062   1.331   0.758   3.254  0.1615 -0.1586 -0.1552
  169SAPE   H8X19063   1.322   0.809   3.352  1.2231 -4.7857  2.6719
  169SAPE   H8Y19064   1.432   0.715   3.234 -0.2231  0.0201 -2.9004
  169SAPE   C3919065   1.228   0.645   3.258  0.2796 -0.5112 -1.0202
  169SAPE   H9X19066   1.211   0.612   3.154 -0.9583  2.6986 -1.9506
  169SAPE   H9Y19067   1.129   0.681   3.295  0.4125  0.1824 -1.3282
  169SAPE  C31019068   1.274   0.529   3.350  0.1538  0.4875  0.3060
  169SAPE  H10X19069   1.374   0.491   3.321  0.6178  2.2129 -0.4597
  169SAPE  H10Y19070   1.207   0.441   3.332  1.0946  0.1271 -1.6915
  169SAPE  C31119071   1.287   0.567   3.498  0.4147 -0.0909 -0.2800
  169SAPE  H11X19072   1.182   0.597   3.521  0.1040  0.6784 -2.3781
  169SAPE  H11Y19073   1.348   0.656   3.522 -0.1900  0.1958  0.2295
  169SAPE  C31219074   1.345   0.455   3.588  0.6500  0.0956  0.5331
  169SAPE  H12X19075   1.347   0.497   3.691 -0.5122  0.1215  0.5585
  169SAPE  H12Y19076   1.446   0.416   3.562  0.6259  0.3958 -0.0222
  169SAPE  C31319077   1.249   0.336   3.608 -0.0861  0.2899 -0.5750
  169SAPE  H13X19078   1.262   0.256   3.532  1.6404 -0.2521  0.2394
  169SAPE  H13Y19079   1.146   0.373   3.591  0.4804  2.5722  0.5945
  169SAPE  C31419080   1.287   0.269   3.743  0.5667 -0.5704 -0.5069
  169SAPE  H14X19081   1.278   0.341   3.827 -1.6631 -1.7585  0.3418
  169SAPE  H14Y19082   1.389   0.226   3.730 -0.4149 -2.4136 -3.0537
  169SAPE  C31519083   1.200   0.144   3.778 -0.2732  0.8127 -0.0863
  169SAPE  H15X19084   1.211   0.069   3.697  0.8287  1.7859 -0.8742
  169SAPE  H15Y19085   1.094   0.171   3.797 -1.3025 -1.4602 -2.1086
  169SAPE  C31619086   1.264   0.084   3.908 -0.1837  0.3718  0.1160
  169SAPE  H16X19087   1.267   0.164   3.985  0.0648  1.4838 -1.0077
  169SAPE  H16Y19088   1.367   0.045   3.898 -1.3061 -2.7182 -0.6402
  169SAPE  C31719089   1.184  -0.045   3.948  0.0108  0.0045  0.0525
  169SAPE  H17X19090   1.075  -0.025   3.957  0.2347  1.4412 -0.1237
  169SAPE  H17Y19091   1.218  -0.063   4.053  1.7415  1.3810 -0.2146
  169SAPE  C31819092   1.211  -0.169   3.865 -0.6365  0.8395  0.5809
  169SAPE  H18X19093   1.318  -0.199   3.857  0.1305  3.3167  0.7609
  169SAPE  H18Y19094   1.172  -0.152   3.763  2.4557 -1.4021 -1.1322
  169SAPE  H18Z19095   1.157  -0.257   3.906  3.1813 -2.8037 -1.4320
  170SAPE     N19096   6.859   0.720   1.940 -0.4127 -0.5657 -0.1610
  170SAPE   HN119097   6.914   0.797   1.983 -3.2996  0.5578  1.8014
  170SAPE   HN219098   6.861   0.726   1.836 -1.2423  0.3553 -0.1326
  170SAPE   HN319099   6.761   0.738   1.969  0.3644  0.8396  1.7515
  170SAPE   C1219100   6.891   0.578   1.991  0.4262 -0.0701  0.3356
  170SAPE  H12A19101   6.979   0.545   1.930  0.5971  2.4142 -0.9035
  170SAPE  H12B19102   6.806   0.520   1.950  1.1820 -0.0058 -1.4406
  170SAPE   C1119103   6.907   0.569   2.148 -0.2535  0.4626  0.2806
  170SAPE  H11A19104   6.919   0.462   2.173  0.0568  0.3584 -0.2924
  170SAPE  H11B19105   6.811   0.602   2.194  0.6019  4.3694 -0.3946
  170SAPE     P19106   7.040   0.720   2.323  0.2468 -0.0507  0.4737
  170SAPE   O1319107   7.129   0.838   2.307 -0.2626  0.1548 -0.0298
  170SAPE   O1419108   6.908   0.744   2.379 -0.5670 -0.4162  0.4740
  170SAPE   O1219109   7.025   0.649   2.182  0.5220 -0.4016  0.0850
  170SAPE   O1119110   7.109   0.610   2.411 -0.3500  0.3304  0.2856
  170SAPE    C119111   7.232   0.642   2.476  0.2245  0.8380  0.3523
  170SAPE    HA19112   7.291   0.549   2.493 -1.3802 -0.4786 -0.9335
  170SAPE    HB19113   7.306   0.698   2.414  1.4877  1.2462  2.1506
  170SAPE    C219114   7.203   0.695   2.623 -0.0105 -0.1133  0.7892
  170SAPE    HS19115   7.152   0.793   2.611 -1.6362 -0.8767  1.2036
  170SAPE   O2119116   7.325   0.715   2.702 -0.1242 -0.3179  0.1153
  170SAPE   C2119117   7.400   0.812   2.663  0.0191 -0.8258 -0.4698
  170SAPE   O2219118   7.389   0.888   2.568  0.3411  0.0466  0.4842
  170SAPE   C2219119   7.520   0.815   2.766 -0.1912 -0.3040 -0.8280
  170SAPE   H2R19120   7.536   0.920   2.798 -2.0193  0.3609 -1.9547
  170SAPE   H2S19121   7.487   0.755   2.854 -2.3467 -1.4225 -2.2882
  170SAPE    C319122   7.109   0.597   2.687  0.6004  0.1997 -0.4484
  170SAPE    HX19123   7.156   0.497   2.677  0.3304 -0.0642  0.8050
  170SAPE    HY19124   7.017   0.612   2.626  0.3036  2.5093  0.4622
  170SAPE   O3119125   7.090   0.619   2.830 -0.3500 -0.3176 -0.5573
  170SAPE   C3119126   7.009   0.720   2.858  0.1878  0.4511 -0.7272
  170SAPE   O3219127   6.954   0.787   2.774 -0.2034  0.0079  0.2336
  170SAPE   C3219128   6.983   0.716   3.004 -0.9126 -0.8470 -0.5324
  170SAPE   H2X19129   6.898   0.651   3.036  0.3220 -1.3802  1.8905
  170SAPE   H2Y19130   6.954   0.818   3.036  0.2404 -0.6525 -0.0810
  170SAPE   C2319131   7.646   0.754   2.702  0.2621  0.1172 -0.1328
  170SAPE   H3R19132   7.682   0.811   2.615  3.0441  1.1716  1.5835
  170SAPE   H3S19133   7.608   0.657   2.663 -1.2054  0.4268  0.4707
  170SAPE   C2419134   7.773   0.742   2.792 -0.2602  0.5660  0.3672
  170SAPE   H4R19135   7.842   0.680   2.731 -0.4498  1.3721 -0.7119
  170SAPE   H4S19136   7.740   0.682   2.879 -1.0834 -0.4169 -0.5981
  170SAPE   C2519137   7.838   0.859   2.836 -0.6433 -0.2983  0.2245
  170SAPE   H5R19138   7.886   0.905   2.748 -3.6107  0.8188 -0.9105
  170SAPE   C2619139   7.862   0.900   2.965  0.6610 -0.7781 -0.8502
  170SAPE   H6R19140   7.920   0.991   2.986 -1.4672  0.6871 -1.0130
  170SAPE   C2719141   7.805   0.834   3.095  0.6763 -0.4091 -0.3932
  170SAPE   H7R19142   7.849   0.871   3.190  0.3543  1.4488 -0.9089
  170SAPE   H7S19143   7.836   0.728   3.089 -1.5889 -1.1323 -0.0296
  170SAPE   C2819144   7.655   0.853   3.103  0.9411 -0.0188  0.7948
  170SAPE   H8R19145   7.602   0.930   3.046  0.6826 -1.1685 -0.5667
  170SAPE   C2919146   7.573   0.768   3.171 -1.0243  0.1296  0.2200
  170SAPE   H9R19147   7.468   0.769   3.140 -0.3159 -0.8176 -2.5660
  170SAPE  C21019148   7.615   0.652   3.265 -0.7100  0.0669  0.4815
  170SAPE  H10R19149   7.723   0.627   3.266 -0.8360 -0.5354 -0.1840
  170SAPE  H10S19150   7.565   0.559   3.230 -0.2159  0.8921 -2.7707
  170SAPE  C21119151   7.568   0.686   3.406  0.1892  0.5971  0.1167
  170SAPE  H11R19152   7.504   0.772   3.427 -0.3712  0.3263 -0.4552
  170SAPE  C21219153   7.622   0.618   3.515  0.2369  0.0100 -0.7929
  170SAPE  H12R19154   7.601   0.660   3.615  1.0918 -1.3809  0.0057
  170SAPE  C21319155   7.713   0.497   3.517 -0.0062 -0.0433 -0.4064
  170SAPE  H13R19156   7.804   0.504   3.454 -0.1769 -0.2851 -0.6784
  170SAPE  H13S19157   7.650   0.411   3.485  1.0335 -1.4066  1.0376
  170SAPE  C21419158   7.755   0.469   3.663  0.6532 -0.3601  0.4527
  170SAPE  H14R19159   7.831   0.541   3.697  1.2526 -1.3018  1.1669
  170SAPE  C21519160   7.712   0.363   3.742 -0.3334 -0.0638  0.0489
  170SAPE  H15R19161   7.760   0.354   3.841 -1.9552  0.2831  0.9079
  170SAPE  C21619162   7.619   0.256   3.703  0.1955  0.0570  0.2269
  170SAPE  H16R19163   7.642   0.155   3.744 -3.0496 -0.3233  1.4404
  170SAPE  H16S19164   7.626   0.237   3.594 -0.5160 -0.8445  0.3253
  170SAPE  C21719165   7.467   0.289   3.734  0.1207 -0.8075 -0.2958
  170SAPE  H17R19166   7.411   0.213   3.675  1.2405  0.3232 -2.9766
  170SAPE  H17S19167   7.444   0.384   3.681  0.0866 -2.1343 -2.8042
  170SAPE  C21819168   7.410   0.298   3.881  1.2892  0.5817 -0.0276
  170SAPE  H18R19169   7.303   0.327   3.882  1.3790  0.9099  1.5730
  170SAPE  H18S19170   7.475   0.377   3.924 -0.9933  2.0852  0.8555
  170SAPE  C21919171   7.430   0.164   3.964  0.3850  0.1878 -0.1506
  170SAPE  H19R19172   7.396   0.158   4.069 -0.6196 -2.1344 -0.5613
  170SAPE  H19S19173   7.539   0.140   3.962  0.5366  0.8411  0.0818
  170SAPE  C22019174   7.356   0.049   3.896  0.1573 -0.2104 -0.1858
  170SAPE  H20R19175   7.245   0.057   3.901  0.2490  1.4316  0.0180
  170SAPE  H20S19176   7.378  -0.048   3.944  0.5668 -0.4782 -0.9136
  170SAPE  H20T19177   7.376   0.035   3.788 -0.9465 -2.6958 -0.1349
  170SAPE   C3319178   7.110   0.679   3.089 -0.1380  0.5988 -0.0197
  170SAPE   H3X19179   7.180   0.764   3.077  0.9418 -0.2383  0.1855
  170SAPE   H3Y19180   7.155   0.589   3.042  0.3787  1.0695 -0.4424
  170SAPE   C3419181   7.077   0.636   3.236  0.8133 -0.7025 -0.1520
  170SAPE   H4X19182   7.169   0.604   3.288  0.5654 -0.8405  0.2082
  170SAPE   H4Y19183   7.008   0.549   3.233 -1.9858  1.3768 -1.0777
  170SAPE   C3519184   7.029   0.759   3.318  0.7012  0.3594  0.2258
  170SAPE   H5X19185   6.937   0.806   3.276  1.0576  3.1186  2.2350
  170SAPE   H5Y19186   7.108   0.837   3.309 -0.3869  1.3234 -1.4388
  170SAPE   C3619187   7.022   0.719   3.468  0.3879 -0.3087  1.1831
  170SAPE   H6X19188   7.074   0.621   3.475 -0.9782 -1.1389  0.1373
  170SAPE   H6Y19189   6.919   0.711   3.508  0.4579  0.6342  1.5789
  170SAPE   C3719190   7.107   0.807   3.572 -0.0328  0.0809  0.4907
  170SAPE   H7X19191   7.086   0.764   3.672  0.1515 -0.0646  0.4662
  170SAPE   H7Y19192   7.066   0.910   3.577 -2.5474 -0.8339  0.1457
  170SAPE   C3819193   7.258   0.797   3.558 -0.6504 -0.6652 -0.0841
  170SAPE   H8X19194   7.277   0.843   3.459 -2.6092 -0.8758 -0.6173
  170SAPE   H8Y19195   7.281   0.692   3.531 -0.3601 -0.7394  0.4427
  170SAPE   C3919196   7.342   0.851   3.669  0.2565 -0.4592 -0.3293
  170SAPE   H9X19197   7.299   0.944   3.712  0.6186 -0.3721 -0.1509
  170SAPE   H9Y19198   7.439   0.882   3.625 -0.7941  1.0747 -1.6785
  170SAPE  C31019199   7.372   0.756   3.785 -0.0854  0.0320 -0.3411
  170SAPE  H10X19200   7.427   0.666   3.747  0.0933  0.1909 -0.4632
  170SAPE  H10Y19201   7.273   0.726   3.826 -1.3066  2.0824 -1.6514
  170SAPE  C31119202   7.458   0.819   3.894 -0.1020 -0.3148  0.0099
  170SAPE  H11X19203   7.394   0.881   3.961 -0.6501 -0.6677 -0.1759
  170SAPE  H11Y19204   7.534   0.883   3.844 -2.6829  1.0082 -2.5244
  170SAPE  C31219205   7.533   0.722   3.984 -0.7979  0.0328  0.1187
  170SAPE  H12X19206   7.577   0.795   4.055  0.8429  1.4581 -2.2080
  170SAPE  H12Y19207   7.616   0.682   3.922 -0.7958  0.6206 -0.2582
  170SAPE  C31319208   7.442   0.629   4.064 -0.4434 -0.5048  0.1705
  170SAPE  H13X19209   7.512   0.568   4.125  2.4746  0.7321 -1.7013
  170SAPE  H13Y19210   7.407   0.567   3.979 -1.0438  1.5222 -1.1301
  170SAPE  C31419211   7.328   0.698   4.130  0.6856  0.8202  0.3470
  170SAPE  H14X19212   7.265   0.744   4.052 -0.6206 -1.7430 -0.2393
  170SAPE  H14Y19213   7.372   0.776   4.196 -0.5908  0.7478  1.3170
  170SAPE  C31519214   7.231   0.606   4.214  0.2772 -0.3855  0.2868
  170SAPE  H15X19215   7.288   0.580   4.305 -0.8679 -1.1955  0.7971
  170SAPE  H15Y19216   7.224   0.508   4.161  4.2551 -1.8695  2.1629
  170SAPE  C31619217   7.104   0.683   4.263 -0.5462 -0.0816 -0.1494
  170SAPE  H16X19218   7.036   0.716   4.181 -2.0522  0.0929  1.1235
  170SAPE  H16Y19219   7.148   0.777   4.302 -0.4112 -0.6144  1.0279
  170SAPE  C31719220   7.031   0.606   4.373  0.2440 -0.4153  0.6088
  170SAPE  H17X19221   7.016   0.502   4.339  0.0714 -0.4545  0.8008
  170SAPE  H17Y19222   6.931   0.655   4.373 -0.1338 -1.1377  1.7743
  170SAPE  C31819223   7.094   0.613   4.512  0.1869  0.3157 -0.1572
  170SAPE  H18X19224   7.040   0.549   4.584  0.3689  0.7281  0.3557
  170SAPE  H18Y19225   7.088   0.718   4.549 -0.7172  0.2742 -0.1871
  170SAPE  H18Z19226   7.199   0.576   4.501 -0.8407 -2.5291 -1.2470
  171SAPE     N19227   2.267   0.180   2.058 -0.3539  0.5502 -1.1373
  171SAPE   HN119228   2.310   0.216   2.146  0.1231  1.0067 -1.5539
  171SAPE   HN219229   2.178   0.134   2.087  0.9581 -1.0768  0.5673
  171SAPE   HN319230   2.320   0.100   2.019 -1.9113 -1.2762  0.2737
  171SAPE   C1219231   2.257   0.279   1.954  0.1315 -0.2074  0.7746
  171SAPE  H12A19232   2.152   0.316   1.953 -0.0193 -0.6393  0.1397
  171SAPE  H12B19233   2.287   0.230   1.859 -0.6075  0.3489  0.2389
  171SAPE   C1119234   2.349   0.395   1.985 -0.4002  0.1288  0.3766
  171SAPE  H11A19235   2.311   0.452   2.073 -0.9076  1.4594 -0.6728
  171SAPE  H11B19236   2.340   0.475   1.909 -2.5433 -0.5520 -0.1805
  171SAPE     P19237   2.585   0.332   1.899  0.3773 -0.1224 -0.1064
  171SAPE   O1319238   2.525   0.247   1.791 -0.1086  0.0805 -0.6671
  171SAPE   O1419239   2.628   0.467   1.858 -0.7649 -0.3103 -0.2034
  171SAPE   O1219240   2.478   0.342   2.021  0.3253  0.1888 -0.0187
  171SAPE   O1119241   2.698   0.238   1.968 -0.0073 -0.4330  0.4266
  171SAPE    C119242   2.666   0.124   2.037  0.1037 -0.1867  0.4486
  171SAPE    HA19243   2.571   0.081   2.000  0.1422  1.4466 -1.7741
  171SAPE    HB19244   2.751   0.057   2.013  0.6516  1.1060 -1.4083
  171SAPE    C219245   2.657   0.149   2.186 -0.4299  0.0329 -0.2126
  171SAPE    HS19246   2.580   0.229   2.198 -0.7376 -0.4391  1.0605
  171SAPE   O2119247   2.788   0.174   2.228  0.0264  0.1770 -0.4084
  171SAPE   C2119248   2.801   0.281   2.303 -0.4700  0.2775  0.5960
  171SAPE   O2219249   2.718   0.362   2.339 -0.4111  0.5150  0.3985
  171SAPE   C2219250   2.949   0.289   2.340  0.4263  0.9564 -0.2645
  171SAPE   H2R19251   2.983   0.187   2.367 -1.2657  0.6173  0.7456
  171SAPE   H2S19252   2.994   0.321   2.243  0.0805  0.4840 -0.5875
  171SAPE    C319253   2.611   0.020   2.259  0.7672 -0.6755 -0.1685
  171SAPE    HX19254   2.663  -0.074   2.231 -0.7678 -1.4626 -0.4496
  171SAPE    HY19255   2.506   0.008   2.226  0.0695 -0.6498  1.8622
  171SAPE   O3119256   2.619   0.035   2.402 -0.3592  0.3451 -0.4361
  171SAPE   C3119257   2.518  -0.021   2.467  0.4647  0.0595 -0.1627
  171SAPE   O3219258   2.417  -0.073   2.418  0.4264 -0.3555 -0.6253
  171SAPE   C3219259   2.553  -0.030   2.610 -0.5066 -1.1237  0.6216
  171SAPE   H2X19260   2.584   0.071   2.646 -1.1567  0.1260 -2.0025
  171SAPE   H2Y19261   2.639  -0.099   2.622 -0.8042 -1.1605  3.0354
  171SAPE   C2319262   2.975   0.391   2.446  0.6643 -0.7430  0.4332
  171SAPE   H3R19263   2.931   0.353   2.540  1.9689 -0.5058  1.1672
  171SAPE   H3S19264   2.940   0.492   2.416  0.9373  0.0529  2.6517
  171SAPE   C2419265   3.128   0.424   2.465 -0.3009 -0.2874 -0.6893
  171SAPE   H4R19266   3.163   0.496   2.388  0.1223 -0.9056 -1.0808
  171SAPE   H4S19267   3.194   0.335   2.456  0.1149  0.1853 -2.7448
  171SAPE   C2519268   3.151   0.492   2.597 -0.5174  0.0518 -0.4523
  171SAPE   H5R19269   3.160   0.602   2.600  2.0725 -0.1082  0.2254
  171SAPE   C2619270   3.155   0.436   2.727 -0.0424  0.9535 -0.1843
  171SAPE   H6R19271   3.160   0.502   2.815 -0.7450 -0.5537  1.0266
  171SAPE   C2719272   3.156   0.286   2.764  0.4297 -0.1236  0.6654
  171SAPE   H7R19273   3.130   0.223   2.677 -1.7027  1.1037  0.3510
  171SAPE   H7S19274   3.082   0.267   2.845  1.1597 -2.1041  0.9278
  171SAPE   C2819275   3.304   0.262   2.808  0.3404  0.4374 -0.3643
  171SAPE   H8R19276   3.374   0.282   2.726 -0.1980  0.1039 -0.9103
  171SAPE   C2919277   3.349   0.215   2.928 -0.7572  0.0181  0.8928
  171SAPE   H9R19278   3.456   0.193   2.933 -0.4650  0.5274 -1.7680
  171SAPE  C21019279   3.269   0.189   3.048  0.3636  0.0632 -0.3978
  171SAPE  H10R19280   3.330   0.125   3.115 -0.3152 -1.1358 -0.8876
  171SAPE  H10S19281   3.175   0.132   3.032  1.3068 -1.4277 -0.8697
  171SAPE  C21119282   3.242   0.319   3.124 -0.3553 -0.2263  0.8132
  171SAPE  H11R19283   3.243   0.412   3.066 -2.3844 -1.5285 -1.5041
  171SAPE  C21219284   3.207   0.320   3.252 -0.1547  0.1755 -0.0127
  171SAPE  H12R19285   3.182   0.416   3.299  2.5157  1.0812 -0.2826
  171SAPE  C21319286   3.199   0.199   3.349  0.5055 -0.4441 -0.3610
  171SAPE  H13R19287   3.199   0.100   3.298 -0.3050  0.9383 -3.2019
  171SAPE  H13S19288   3.108   0.197   3.412  1.5740  0.3409  1.3014
  171SAPE  C21419289   3.321   0.226   3.436  0.2250  0.0967  0.0998
  171SAPE  H14R19290   3.398   0.300   3.411  0.6760 -0.4586 -0.1822
  171SAPE  C21519291   3.348   0.155   3.544 -0.7267 -0.0174 -0.1620
  171SAPE  H15R19292   3.439   0.185   3.599 -0.7611 -0.5688  0.2029
  171SAPE  C21619293   3.262   0.050   3.613  0.5940 -0.0833 -0.6131
  171SAPE  H16R19294   3.270  -0.049   3.563 -1.5734  0.1284 -1.4497
  171SAPE  H16S19295   3.155   0.076   3.603  0.2391 -1.6094 -1.0116
  171SAPE  C21719296   3.302   0.042   3.763  0.1221  0.4731 -0.3008
  171SAPE  H17R19297   3.311   0.142   3.810  0.8433  0.6187 -0.7238
  171SAPE  H17S19298   3.404   0.003   3.784 -0.1472  1.3352  3.2830
  171SAPE  C21819299   3.205  -0.042   3.843  0.0173 -1.0814  0.1563
  171SAPE  H18R19300   3.247  -0.039   3.946  1.4868 -0.5644 -0.4308
  171SAPE  H18S19301   3.214  -0.148   3.813 -1.9870 -0.6001 -2.4901
  171SAPE  C21919302   3.061   0.003   3.828 -0.0070  0.0520 -0.5508
  171SAPE  H19R19303   3.019  -0.020   3.728 -0.7200 -2.4733  0.2544
  171SAPE  H19S19304   3.065   0.110   3.856  0.4934 -0.2789  0.6902
  171SAPE  C22019305   2.976  -0.069   3.934  0.4087  0.1993  0.8441
  171SAPE  H20R19306   2.975  -0.176   3.903 -3.8114 -0.4577  2.5739
  171SAPE  H20S19307   2.874  -0.029   3.921 -1.5713 -4.2123  0.9577
  171SAPE  H20T19308   3.021  -0.055   4.034  0.9921 -2.0494  0.9638
  171SAPE   C3319309   2.437  -0.065   2.694 -0.3274  0.5341 -0.8489
  171SAPE   H3X19310   2.390  -0.164   2.676  1.5791 -1.0517  2.1353
  171SAPE   H3Y19311   2.355   0.007   2.713 -1.2813 -1.2381  2.5300
  171SAPE   C3419312   2.503  -0.068   2.836  0.0679  0.2299  0.3916
  171SAPE   H4X19313   2.542   0.036   2.841  2.3367 -0.4246 -1.6486
  171SAPE   H4Y19314   2.586  -0.141   2.837  0.5981  0.8187  0.3277
  171SAPE   C3519315   2.402  -0.105   2.944  0.3268  0.4915 -0.1918
  171SAPE   H5X19316   2.364  -0.209   2.936  0.8109  0.2053  1.0473
  171SAPE   H5Y19317   2.315  -0.037   2.939  0.8902  1.3253  0.8928
  171SAPE   C3619318   2.454  -0.089   3.081 -0.7430  0.2760  0.1992
  171SAPE   H6X19319   2.499   0.011   3.098  0.6228 -0.1325 -0.8809
  171SAPE   H6Y19320   2.529  -0.169   3.098  0.5085  1.2120 -0.7360
  171SAPE   C3719321   2.346  -0.118   3.197 -0.1188  0.2277  0.1801
  171SAPE   H7X19322   2.283  -0.203   3.165  1.0005 -0.3745 -0.4908
  171SAPE   H7Y19323   2.283  -0.027   3.208  1.3714  1.1463  1.6855
  171SAPE   C3819324   2.432  -0.148   3.322 -0.0187 -0.4172 -0.5921
  171SAPE   H8X19325   2.492  -0.056   3.335 -2.4585  0.9814  1.9856
  171SAPE   H8Y19326   2.492  -0.240   3.307 -1.5852 -1.5575 -0.1767
  171SAPE   C3919327   2.345  -0.157   3.449 -0.4755 -0.3826  0.6462
  171SAPE   H9X19328   2.286  -0.251   3.446 -0.2714 -0.6501  2.9680
  171SAPE   H9Y19329   2.270  -0.076   3.457  0.4542  0.3172  3.4635
  171SAPE  C31019330   2.423  -0.133   3.579  0.3624  0.7388  0.0008
  171SAPE  H10X19331   2.352  -0.140   3.665  0.1685  0.7596 -0.1580
  171SAPE  H10Y19332   2.463  -0.029   3.587 -1.6137  1.5266  0.3435
  171SAPE  C31119333   2.536  -0.229   3.606 -0.3132  0.1382  0.3170
  171SAPE  H11X19334   2.606  -0.223   3.520  0.7534  0.4378  1.1800
  171SAPE  H11Y19335   2.500  -0.334   3.604  1.3234 -0.4500 -1.3907
  171SAPE  C31219336   2.602  -0.205   3.740  0.0465 -0.3209  0.0021
  171SAPE  H12X19337   2.529  -0.159   3.811 -0.5800 -0.1537 -0.7411
  171SAPE  H12Y19338   2.692  -0.144   3.718  0.6912 -0.6042  1.6787
  171SAPE  C31319339   2.658  -0.333   3.796  0.0648  0.2684  0.2373
  171SAPE  H13X19340   2.756  -0.348   3.745  0.4722  2.7150  0.1981
  171SAPE  H13Y19341   2.600  -0.423   3.766  0.7180 -0.0066 -0.2400
  171SAPE  C31419342   2.686  -0.331   3.945  0.2036 -0.0287 -0.3661
  171SAPE  H14X19343   2.593  -0.350   4.003 -0.7619  0.0983 -1.8276
  171SAPE  H14Y19344   2.713  -0.229   3.980  0.1072 -0.0678 -0.1732
  171SAPE  C31519345   2.781  -0.431   4.016 -0.0682 -0.6864 -0.2331
  171SAPE  H15X19346   2.887  -0.434   3.983  0.6871 -2.0582  2.0905
  171SAPE  H15Y19347   2.743  -0.530   3.979  1.1344 -0.8154 -1.1826
  171SAPE  C31619348   2.790  -0.419   4.167 -0.5795  0.4156 -0.0071
  171SAPE  H16X19349   2.860  -0.496   4.206 -0.6776  0.5982  0.5246
  171SAPE  H16Y19350   2.689  -0.432   4.211 -1.1651  4.0294  0.0192
  171SAPE  C31719351   2.840  -0.276   4.207  0.1941  0.6867  0.6150
  171SAPE  H17X19352   2.768  -0.195   4.185 -0.4862  1.0529  3.6995
  171SAPE  H17Y19353   2.919  -0.254   4.132 -2.3143  0.8600 -2.1769
  171SAPE  C31819354   2.879  -0.257   4.349 -0.2165  0.2495 -0.1429
  171SAPE  H18X19355   2.896  -0.152   4.382  3.0765 -0.9588  2.4662
  171SAPE  H18Y19356   2.971  -0.310   4.379  1.5015  4.1872  2.3562
  171SAPE  H18Z19357   2.794  -0.296   4.409 -0.5036 -2.2320 -1.9786
  172SAPE     N19358   3.313   6.652   1.813 -0.7156  0.7972  0.3093
  172SAPE   HN119359   3.417   6.648   1.806 -0.7118  1.0815  0.1554
  172SAPE   HN219360   3.272   6.590   1.740  0.2948  1.2388 -0.6832
  172SAPE   HN319361   3.291   6.750   1.786  2.0578  0.4460 -4.4753
  172SAPE   C1219362   3.257   6.608   1.947  0.3895 -0.3188  0.9143
  172SAPE  H12A19363   3.298   6.506   1.958  1.1766 -0.4446 -2.3538
  172SAPE  H12B19364   3.150   6.597   1.920  1.2343 -3.1557 -1.9310
  172SAPE   C1119365   3.305   6.692   2.070 -0.2409  0.1579 -0.2062
  172SAPE  H11A19366   3.415   6.681   2.079 -0.3890 -1.8975 -0.3140
  172SAPE  H11B19367   3.259   6.661   2.167  0.4017  1.7703  0.6470
  172SAPE     P19368   3.154   6.905   2.093  0.5340 -0.2086  0.3131
  172SAPE   O1319369   3.166   7.053   2.056  0.1573  0.9901 -0.5526
  172SAPE   O1419370   3.040   6.844   2.032  0.0192 -0.1113  0.3928
  172SAPE   O1219371   3.281   6.833   2.051  0.5913 -0.1319 -0.1098
  172SAPE   O1119372   3.137   6.875   2.253 -0.1871  0.6480 -0.2976
  172SAPE    C119373   3.225   6.947   2.342  0.0917 -0.0508 -0.3156
  172SAPE    HA19374   3.231   7.056   2.322 -4.5027  0.4229 -0.3879
  172SAPE    HB19375   3.177   6.938   2.442  0.6087  0.4768 -0.0140
  172SAPE    C219376   3.363   6.883   2.360  0.3464  0.1781  0.7180
  172SAPE    HS19377   3.424   6.906   2.270 -2.9460 -0.2469 -1.8286
  172SAPE   O2119378   3.333   6.741   2.369 -0.2979  0.7130 -0.1869
  172SAPE   C2119379   3.434   6.664   2.397 -0.7820 -0.9020 -0.0474
  172SAPE   O2219380   3.551   6.701   2.378  0.4981  0.1987 -0.1343
  172SAPE   C2219381   3.403   6.528   2.457  0.0287 -0.3078  0.2059
  172SAPE   H2R19382   3.309   6.545   2.515  0.0128 -1.9478  0.7109
  172SAPE   H2S19383   3.386   6.446   2.383 -2.1446 -0.5528  0.8866
  172SAPE    C319384   3.422   6.943   2.482 -0.0997 -0.0160 -0.0190
  172SAPE    HX19385   3.526   6.905   2.499  0.0445  0.3215 -0.1379
  172SAPE    HY19386   3.358   6.914   2.568  1.9415  0.0837  1.6268
  172SAPE   O3119387   3.419   7.086   2.487  0.6547 -0.3114 -0.6031
  172SAPE   C3119388   3.495   7.153   2.410  0.2895  0.5911  0.4951
  172SAPE   O3219389   3.563   7.107   2.316 -0.1372  0.0936  0.7067
  172SAPE   C3219390   3.491   7.300   2.436 -0.3028 -0.2683 -0.2740
  172SAPE   H2X19391   3.429   7.325   2.525 -2.3722 -1.7972 -1.2091
  172SAPE   H2Y19392   3.447   7.342   2.343  1.0613 -0.9413 -1.2706
  172SAPE   C2319393   3.507   6.490   2.559  0.5025 -0.6409 -0.2354
  172SAPE   H3R19394   3.509   6.573   2.632 -0.1944 -0.3078 -0.5803
  172SAPE   H3S19395   3.605   6.501   2.509  0.7865  2.4897  0.8439
  172SAPE   C2419396   3.495   6.348   2.623 -0.7051 -0.8385  0.8507
  172SAPE   H4R19397   3.601   6.329   2.651 -0.6296 -3.4787 -0.9481
  172SAPE   H4S19398   3.480   6.276   2.540 -0.7880 -0.0101  0.1321
  172SAPE   C2519399   3.399   6.347   2.742  0.0261 -0.0028 -0.4054
  172SAPE   H5R19400   3.305   6.396   2.712  0.4898 -0.4508 -2.8216
  172SAPE   C2619401   3.418   6.279   2.858  0.0872 -0.0861 -0.0978
  172SAPE   H6R19402   3.346   6.293   2.940  0.6177  0.7702  0.2324
  172SAPE   C2719403   3.544   6.208   2.891 -0.5512  0.3862 -0.6464
  172SAPE   H7R19404   3.594   6.270   2.968  1.2702 -2.1684  0.3430
  172SAPE   H7S19405   3.623   6.192   2.815  1.5384 -0.6959  1.6182
  172SAPE   C2819406   3.529   6.071   2.954  0.7379 -0.1299 -0.4419
  172SAPE   H8R19407   3.536   5.988   2.882  0.3542 -0.2497 -0.3439
  172SAPE   C2919408   3.527   6.043   3.087 -0.7752  0.0415  0.0003
  172SAPE   H9R19409   3.509   5.937   3.114 -0.3067 -0.6106 -2.0627
  172SAPE  C21019410   3.523   6.149   3.203  0.1144  0.0968 -0.0890
  172SAPE  H10R19411   3.421   6.141   3.245 -0.4133 -0.5851 -1.4185
  172SAPE  H10S19412   3.539   6.253   3.168  1.2306  0.4499  1.3880
  172SAPE  C21119413   3.645   6.121   3.287  0.0839 -0.4415  0.5140
  172SAPE  H11R19414   3.745   6.149   3.251  1.1069 -1.5793  2.2899
  172SAPE  C21219415   3.639   6.063   3.411 -0.2178 -0.2548 -0.9587
  172SAPE  H12R19416   3.726   6.023   3.466 -0.9064  0.7273  0.9323
  172SAPE  C21319417   3.511   6.015   3.481 -0.2617 -0.1769 -0.0386
  172SAPE  H13R19418   3.525   5.911   3.516 -3.9990 -0.7707  0.0622
  172SAPE  H13S19419   3.423   6.016   3.412 -1.6880 -0.4727  1.7166
  172SAPE  C21419420   3.483   6.105   3.604  0.2940 -0.1502  1.0627
  172SAPE  H14R19421   3.419   6.192   3.581  1.1677  0.2867  0.1881
  172SAPE  C21519422   3.537   6.100   3.729 -0.1958  0.6463  0.8806
  172SAPE  H15R19423   3.507   6.170   3.808  0.3882 -0.1326  1.8078
  172SAPE  C21619424   3.633   5.987   3.767 -0.1695 -0.4656 -0.0018
  172SAPE  H16R19425   3.691   5.939   3.686  1.3693 -2.2428  2.0484
  172SAPE  H16S19426   3.592   5.893   3.810  0.2390  0.1549  1.8539
  172SAPE  C21719427   3.759   6.040   3.858  0.7033 -0.4671  0.0528
  172SAPE  H17R19428   3.812   6.115   3.795  1.1795 -0.9670 -0.1402
  172SAPE  H17S19429   3.835   5.960   3.867  1.9203  0.1706 -3.0996
  172SAPE  C21819430   3.724   6.124   3.981  0.1514 -0.0564 -0.0267
  172SAPE  H18R19431   3.641   6.196   3.967 -1.2461 -1.9235 -2.0296
  172SAPE  H18S19432   3.805   6.189   4.022 -0.4314  0.1309  0.8468
  172SAPE  C21919433   3.677   6.036   4.097 -0.1023  0.0610 -0.0204
  172SAPE  H19R19434   3.758   5.966   4.128 -0.7870 -1.4547 -1.4541
  172SAPE  H19S19435   3.586   5.981   4.063 -0.5010 -0.5982  2.0279
  172SAPE  C22019436   3.635   6.121   4.214 -0.8800  0.3448 -0.4253
  172SAPE  H20R19437   3.688   6.219   4.209  0.7597 -0.3064  2.0036
  172SAPE  H20S19438   3.631   6.076   4.316 -1.4938 -0.7228 -0.9140
  172SAPE  H20T19439   3.530   6.155   4.199 -0.8548 -0.0366 -1.5246
  172SAPE   C3319440   3.628   7.367   2.475  1.0053  0.1704 -0.0784
  172SAPE   H3X19441   3.614   7.477   2.488  0.3398 -0.0718  1.4673
  172SAPE   H3Y19442   3.701   7.356   2.393  0.9742 -0.4548 -0.0267
  172SAPE   C3419443   3.674   7.296   2.602 -0.4378 -0.2756 -0.3870
  172SAPE   H4X19444   3.783   7.302   2.622 -0.7997  1.5890  1.3751
  172SAPE   H4Y19445   3.649   7.187   2.602 -3.2055  0.2854  0.0266
  172SAPE   C3519446   3.615   7.360   2.733 -0.2498  0.4705 -0.0835
  172SAPE   H5X19447   3.505   7.344   2.735 -0.1772 -0.0526 -0.0753
  172SAPE   H5Y19448   3.626   7.471   2.728 -3.5553  0.9772  1.1891
  172SAPE   C3619449   3.676   7.284   2.852  0.3103  0.3026  0.4909
  172SAPE   H6X19450   3.787   7.285   2.850  0.3232  2.1421  0.9425
  172SAPE   H6Y19451   3.637   7.180   2.857 -1.1590  0.7014 -1.5505
  172SAPE   C3719452   3.638   7.350   2.992 -0.5291  1.3366 -0.4735
  172SAPE   H7X19453   3.528   7.364   2.989 -0.4755  1.5683 -1.9092
  172SAPE   H7Y19454   3.692   7.447   3.000  1.0616  0.4602 -0.1179
  172SAPE   C3819455   3.691   7.259   3.107 -0.0559 -0.4480  0.2691
  172SAPE   H8X19456   3.798   7.247   3.083  0.4226  1.1404  1.4384
  172SAPE   H8Y19457   3.646   7.157   3.107  1.3444 -1.0943  0.8683
  172SAPE   C3919458   3.664   7.315   3.243 -0.4840 -0.1625 -0.4141
  172SAPE   H9X19459   3.556   7.312   3.267  0.1262 -0.1142  2.8081
  172SAPE   H9Y19460   3.696   7.420   3.263 -1.1912 -0.3007  1.6435
  172SAPE  C31019461   3.745   7.228   3.342 -0.3970  0.0645  0.4107
  172SAPE  H10X19462   3.853   7.215   3.315 -0.7600  0.1127 -1.1719
  172SAPE  H10Y19463   3.711   7.123   3.348  0.4395 -0.1513  1.7614
  172SAPE  C31119464   3.723   7.279   3.484 -0.1965  0.6411 -0.4351
  172SAPE  H11X19465   3.613   7.291   3.497 -0.3770 -2.2956  1.7686
  172SAPE  H11Y19466   3.770   7.380   3.490 -1.4457  1.2857 -0.9528
  172SAPE  C31219467   3.774   7.187   3.596 -0.2971  0.4813  0.6128
  172SAPE  H12X19468   3.885   7.187   3.589 -0.3684 -0.9754 -1.8870
  172SAPE  H12Y19469   3.760   7.078   3.580  3.8532 -0.5314  2.4660
  172SAPE  C31319470   3.733   7.236   3.731 -0.1183  0.4908  0.7773
  172SAPE  H13X19471   3.622   7.246   3.733 -0.3973 -1.1626 -1.6185
  172SAPE  H13Y19472   3.774   7.338   3.747 -1.7012  1.2448  0.3075
  172SAPE  C31419473   3.779   7.142   3.847  0.4695  0.3310 -0.1559
  172SAPE  H14X19474   3.886   7.146   3.874  0.7456  0.5801 -1.2176
  172SAPE  H14Y19475   3.759   7.036   3.821  0.5213  0.1192  0.6392
  172SAPE  C31519476   3.696   7.173   3.976  0.4419  0.0363 -0.1046
  172SAPE  H15X19477   3.591   7.136   3.969 -0.2813  0.9630  3.6492
  172SAPE  H15Y19478   3.682   7.283   3.985 -1.2390 -0.2565  1.6102
  172SAPE  C31619479   3.766   7.121   4.104 -0.0326  0.4785  0.1753
  172SAPE  H16X19480   3.856   7.183   4.122  0.5556  1.1176 -3.8866
  172SAPE  H16Y19481   3.791   7.018   4.070 -0.6710  0.4206 -0.1414
  172SAPE  C31719482   3.673   7.116   4.227 -0.9144  0.1402 -0.3266
  172SAPE  H17X19483   3.580   7.056   4.218 -1.0345  0.4640 -1.4440
  172SAPE  H17Y19484   3.636   7.219   4.244 -1.0141  0.0458  0.0232
  172SAPE  C31819485   3.751   7.068   4.348  0.0489 -0.0337 -0.2550
  172SAPE  H18X19486   3.679   7.082   4.432  0.5239 -0.3306  0.2110
  172SAPE  H18Y19487   3.847   7.118   4.374  1.0883 -0.9703 -2.0955
  172SAPE  H18Z19488   3.768   6.959   4.330 -0.4525 -0.1743  0.1157
  173SLPC     N19489   5.925   1.972   7.111 -0.1380  0.0023 -0.6823
  173SLPC   C1319490   5.911   2.096   7.191 -0.3436 -0.2729  0.5317
  173SLPC  H13A19491   5.974   2.093   7.278  2.0199  1.5672 -0.9817
  173SLPC  H13B19492   5.956   2.178   7.136  0.1185  1.0150  2.7042
  173SLPC  H13C19493   5.808   2.123   7.206 -0.1112  1.8516 -1.2062
  173SLPC   C1419494   5.899   1.849   7.201 -0.6398 -0.3904  0.3006
  173SLPC  H14A19495   5.797   1.858   7.235 -0.7750  2.0449 -0.5254
  173SLPC  H14B19496   5.902   1.761   7.139  2.0412  1.1725 -2.0727
  173SLPC  H14C19497   5.957   1.849   7.292 -1.1002  0.4787  0.6077
  173SLPC   C1519498   6.068   1.952   7.079 -0.5042  0.0230 -0.3606
  173SLPC  H15A19499   6.101   2.042   7.028  0.1572 -0.6202 -1.0989
  173SLPC  H15B19500   6.112   1.927   7.174  0.7055 -1.0351 -1.1597
  173SLPC  H15C19501   6.088   1.867   7.015  0.4347 -0.1571  0.1511
  173SLPC   C1219502   5.847   1.979   6.980 -0.0797 -0.6581 -0.3175
  173SLPC  H12A19503   5.875   2.063   6.919 -0.3969 -0.5867 -0.3662
  173SLPC  H12B19504   5.745   2.010   6.996 -0.6453 -2.6699  0.3004
  173SLPC   C1119505   5.845   1.855   6.894  0.1922 -0.4222 -0.2692
  173SLPC  H11A19506   5.948   1.821   6.868 -0.1012 -1.5248 -0.0219
  173SLPC  H11B19507   5.814   1.894   6.795  2.8111  1.4637 -0.4611
  173SLPC     P19508   5.609   1.769   6.944  0.0080 -0.2968 -0.0883
  173SLPC   O1319509   5.539   1.649   6.997  0.0538 -0.1311 -0.0627
  173SLPC   O1419510   5.578   1.894   7.009  0.2493  0.2915  0.5453
  173SLPC   O1219511   5.768   1.752   6.948  0.6676 -0.5117  0.3132
  173SLPC   O1119512   5.576   1.789   6.788  0.2999 -0.0324 -0.1642
  173SLPC    C119513   5.545   1.672   6.704  0.4357 -0.2392 -0.6579
  173SLPC    HA19514   5.489   1.597   6.764 -0.5736  1.3122  0.4043
  173SLPC    HB19515   5.469   1.693   6.625  1.3526 -0.8018 -1.7246
  173SLPC    C219516   5.671   1.622   6.637 -0.0288 -0.2072 -0.7720
  173SLPC    HS19517   5.744   1.608   6.719  2.2656 -0.5289 -2.7388
  173SLPC   O2119518   5.708   1.714   6.533  0.3538  0.1858 -0.2442
  173SLPC   C2119519   5.841   1.700   6.507 -0.1262  0.4620 -0.7429
  173SLPC   O2219520   5.919   1.632   6.573  0.5402 -0.3020  0.1513
  173SLPC   C2219521   5.866   1.780   6.383 -0.3157  0.6458  0.4021
  173SLPC   H2R19522   5.806   1.723   6.308  1.1385 -1.3075  0.6528
  173SLPC   H2S19523   5.824   1.882   6.397 -1.8053 -0.2519  3.6403
  173SLPC    C319524   5.640   1.487   6.569  0.4767  0.3472 -1.0240
  173SLPC    HX19525   5.616   1.418   6.653  0.2356  0.3463 -1.0952
  173SLPC    HY19526   5.732   1.445   6.522  1.0340  0.5337 -0.1369
  173SLPC   O3119527   5.534   1.481   6.476 -0.3020 -0.4629  0.0322
  173SLPC   C3119528   5.560   1.502   6.351 -0.2797  0.5213  0.8653
  173SLPC   O3219529   5.672   1.499   6.299 -0.3203  0.5087 -0.1437
  173SLPC   C3219530   5.425   1.536   6.282  0.9869 -0.2325 -0.8582
  173SLPC   H2X19531   5.371   1.607   6.348  3.3623  0.1504  0.7995
  173SLPC   H2Y19532   5.366   1.441   6.286  1.3656 -0.4991 -1.3960
  173SLPC   C2319533   6.007   1.772   6.341 -0.0694 -0.3370 -0.0838
  173SLPC   H3R19534   6.034   1.667   6.313  1.4857  0.2757 -0.9866
  173SLPC   H3S19535   6.067   1.803   6.429 -0.1899  1.6566 -0.6558
  173SLPC   C2419536   6.037   1.861   6.225  0.1099  0.3288  0.3626
  173SLPC   H4R19537   6.004   1.962   6.257 -3.3358 -1.3107  2.5937
  173SLPC   H4S19538   5.985   1.828   6.133  0.4032  1.3923 -0.2050
  173SLPC   C2519539   6.182   1.866   6.174  0.5006  0.4838 -0.0391
  173SLPC   H5R19540   6.224   1.765   6.197  0.7100  0.3238 -1.0703
  173SLPC   H5S19541   6.247   1.924   6.243  1.8227 -1.8434  0.7968
  173SLPC   C2619542   6.194   1.912   6.032 -0.4438  0.1339  0.2668
  173SLPC   H6R19543   6.108   1.874   5.973 -1.1859 -2.9237  3.0355
  173SLPC   H6S19544   6.292   1.880   5.991 -1.2604  1.4654 -3.0194
  173SLPC   C2719545   6.195   2.064   6.017 -0.0475  0.4083  0.2931
  173SLPC   H7R19546   6.269   2.114   6.082  1.1334  0.7895 -1.2858
  173SLPC   H7S19547   6.097   2.104   6.048 -0.3072  1.0238 -1.2201
  173SLPC   C2819548   6.218   2.119   5.870  0.3802 -0.5621  0.2015
  173SLPC   H8R19549   6.203   2.229   5.878 -1.9495 -0.7811 -0.4314
  173SLPC   H8S19550   6.135   2.082   5.808 -0.4982  1.4645  0.1032
  173SLPC   C2919551   6.361   2.094   5.818 -0.2327  0.3867  0.1344
  173SLPC   H9R19552   6.426   2.034   5.884 -0.2940  1.0342  0.7901
  173SLPC  C21019553   6.408   2.103   5.688  0.0698 -0.5650 -0.2094
  173SLPC  H10R19554   6.509   2.077   5.652  0.5758 -3.1906  2.7363
  173SLPC  C21119555   6.324   2.175   5.589  0.3011 -0.0918  1.2774
  173SLPC  H11R19556   6.396   2.213   5.514  0.0195 -0.0213  1.0382
  173SLPC  H11S19557   6.279   2.257   5.649  1.3008  1.3301  0.1400
  173SLPC  C21219558   6.211   2.106   5.517  0.4426 -0.3788 -0.5122
  173SLPC  H12R19559   6.145   2.052   5.587 -0.9892 -1.9266 -2.9274
  173SLPC  C21319560   6.170   2.124   5.390  0.4415 -0.6289 -0.2877
  173SLPC  H13R19561   6.083   2.064   5.359 -2.4972  3.4743 -0.8492
  173SLPC  C21419562   6.228   2.215   5.292 -0.0307  0.6936 -0.1118
  173SLPC  H14R19563   6.299   2.287   5.336  0.4213 -0.0321  0.3641
  173SLPC  H14S19564   6.142   2.257   5.236 -0.2541  1.1272  0.5440
  173SLPC  C21519565   6.306   2.140   5.178  1.0932 -0.7772  0.5190
  173SLPC  H15R19566   6.255   2.045   5.154 -0.7974  0.3367 -0.0759
  173SLPC  H15S19567   6.412   2.121   5.208  1.4789 -0.0308 -0.3312
  173SLPC  C21619568   6.330   2.222   5.050 -0.5405 -0.4246 -0.9205
  173SLPC  H16R19569   6.374   2.321   5.072  0.3797 -0.7396 -1.2763
  173SLPC  H16S19570   6.228   2.236   5.009 -2.0074  1.6842  2.9848
  173SLPC  C21719571   6.422   2.158   4.949 -0.3936 -0.7683  0.3676
  173SLPC  H17R19572   6.382   2.058   4.921 -2.0983 -0.8350  2.7756
  173SLPC  H17S19573   6.516   2.138   5.003 -0.2475 -1.2504 -0.0518
  173SLPC  C21819574   6.456   2.249   4.826 -0.2178  0.2934 -0.2847
  173SLPC  H18R19575   6.454   2.359   4.842  0.2009  0.2033  0.3874
  173SLPC  H18S19576   6.382   2.224   4.746  0.1863 -2.5626  0.1299
  173SLPC  H18T19577   6.552   2.220   4.780 -1.7073 -2.6927 -1.8156
  173SLPC   C3319578   5.427   1.589   6.136 -0.1283  0.4437 -0.0358
  173SLPC   H3X19579   5.502   1.545   6.067 -0.6983 -0.2354 -0.2401
  173SLPC   H3Y19580   5.455   1.696   6.127  0.9968  0.1689  0.0309
  173SLPC   C3419581   5.288   1.566   6.063  0.0687  0.5515 -0.8688
  173SLPC   H4X19582   5.209   1.596   6.136  1.0925 -1.5493  1.2662
  173SLPC   H4Y19583   5.276   1.458   6.040  0.2830  0.6364 -1.3838
  173SLPC   C3519584   5.263   1.655   5.936  0.4226 -0.2427  0.6044
  173SLPC   H5X19585   5.281   1.762   5.960 -0.5461  0.4153 -1.4461
  173SLPC   H5Y19586   5.158   1.651   5.902  0.9729  1.4118 -1.4580
  173SLPC   C3619587   5.344   1.616   5.815  0.3834  0.0480 -0.5922
  173SLPC   H6X19588   5.341   1.505   5.812 -0.4998  0.0833 -1.8610
  173SLPC   H6Y19589   5.449   1.650   5.817 -0.2080  2.0210 -0.8223
  173SLPC   C3719590   5.274   1.685   5.693 -0.8839  0.2283 -0.0354
  173SLPC   H7X19591   5.252   1.791   5.717 -4.5859 -0.6276  0.9484
  173SLPC   H7Y19592   5.176   1.634   5.682 -0.5793 -0.4428  0.2594
  173SLPC   C3819593   5.350   1.674   5.557  0.1129  0.1237  0.0982
  173SLPC   H8X19594   5.355   1.566   5.532 -2.5230 -0.3733  1.3498
  173SLPC   H8Y19595   5.453   1.714   5.566  0.2681  0.2713 -2.0010
  173SLPC   C3919596   5.288   1.746   5.444  0.4438  0.2791  0.3373
  173SLPC   H9X19597   5.304   1.856   5.452 -0.8989  0.5831 -0.6871
  173SLPC   H9Y19598   5.179   1.731   5.465  0.3526  2.5166  1.9511
  173SLPC  C31019599   5.317   1.696   5.302  0.1620  0.4533 -0.1215
  173SLPC  H10X19600   5.331   1.587   5.294  0.7535  0.4733  0.5402
  173SLPC  H10Y19601   5.425   1.721   5.294 -0.0373  1.9816  1.1911
  173SLPC  C31119602   5.238   1.764   5.192 -0.4110  0.7075  0.2846
  173SLPC  H11X19603   5.242   1.872   5.220  0.2682  0.9506 -0.6967
  173SLPC  H11Y19604   5.128   1.753   5.193 -0.2269 -1.3863  0.7498
  173SLPC  C31219605   5.309   1.767   5.052 -0.3108  1.2058 -0.5494
  173SLPC  H12X19606   5.420   1.765   5.060 -0.4684  0.2239  3.4478
  173SLPC  H12Y19607   5.280   1.856   4.992  0.0033  1.1723 -0.7560
  173SLPC  C31319608   5.269   1.634   4.983 -0.2876  0.1944 -0.0042
  173SLPC  H13X19609   5.165   1.610   5.011 -0.1797  0.3603  0.5453
  173SLPC  H13Y19610   5.333   1.548   5.015 -0.1858  0.5918  0.8940
  173SLPC  C31419611   5.277   1.641   4.829 -0.7667 -0.1797  0.2473
  173SLPC  H14X19612   5.376   1.668   4.787 -0.8578  1.0931  0.7804
  173SLPC  H14Y19613   5.211   1.724   4.797  2.6438  2.3165 -0.8948
  173SLPC  C31519614   5.219   1.519   4.752  0.8093 -0.4689  0.7247
  173SLPC  H15X19615   5.125   1.482   4.798 -0.0901 -0.8493 -1.3140
  173SLPC  H15Y19616   5.287   1.432   4.764  0.3488 -1.4095 -2.5443
  173SLPC  C31619617   5.191   1.552   4.604  0.0532 -0.0302 -1.2320
  173SLPC  H16X19618   5.273   1.610   4.557 -1.1740  0.8967 -2.2832
  173SLPC  H16Y19619   5.103   1.618   4.588  0.0795 -0.1838 -2.0235
  173SLPC  C31719620   5.172   1.424   4.518  0.0804  0.2043  0.1136
  173SLPC  H17X19621   5.100   1.358   4.571 -0.2813  0.7614  0.3251
  173SLPC  H17Y19622   5.268   1.370   4.528 -0.9251 -1.6919 -0.0802
  173SLPC  C31819623   5.127   1.460   4.374 -0.0601  0.1924 -0.0011
  173SLPC  H18X19624   5.121   1.365   4.316 -0.2262  0.3614 -0.2635
  173SLPC  H18Y19625   5.202   1.506   4.307 -1.7083 -1.7695 -3.4337
  173SLPC  H18Z19626   5.027   1.509   4.368 -0.7132 -0.7733  2.0702
  174SLPC     N19627   3.366   3.347   6.871 -0.4220  0.6865  0.2551
  174SLPC   C1319628   3.408   3.268   6.990  0.0677 -0.4734  1.0925
  174SLPC  H13A19629   3.460   3.177   6.964  1.3243  0.0817  1.5485
  174SLPC  H13B19630   3.481   3.312   7.056  0.4639 -1.6148  1.4522
  174SLPC  H13C19631   3.324   3.222   7.040 -1.1730 -1.2485 -1.5472
  174SLPC   C1419632   3.321   3.473   6.928  0.1052  0.0317  0.0628
  174SLPC  H14A19633   3.394   3.522   6.991 -1.8160  1.8445  1.0447
  174SLPC  H14B19634   3.289   3.551   6.859  1.6137  0.7281  0.1103
  174SLPC  H14C19635   3.244   3.446   6.999  0.0847 -0.5547 -0.1761
  174SLPC   C1519636   3.254   3.276   6.800 -0.3340  0.1766 -0.2007
  174SLPC  H15A19637   3.227   3.324   6.707 -0.3124  0.9251  0.1691
  174SLPC  H15B19638   3.294   3.178   6.776 -1.4235 -0.7128  1.4296
  174SLPC  H15C19639   3.171   3.263   6.869  0.6723  1.1196  1.2540
  174SLPC   C1219640   3.479   3.351   6.777  0.1100  0.0993 -0.5952
  174SLPC  H12A19641   3.435   3.366   6.679  0.0657 -1.8387 -0.8961
  174SLPC  H12B19642   3.535   3.260   6.761 -0.5489 -0.5604  0.7469
  174SLPC   C1119643   3.588   3.453   6.809  0.3155 -0.0014  0.0248
  174SLPC  H11A19644   3.536   3.551   6.821 -0.3317 -0.6599  3.2671
  174SLPC  H11B19645   3.662   3.466   6.727 -0.0871  0.8995 -0.2085
  174SLPC     P19646   3.781   3.329   6.944 -0.1400 -0.4671 -0.1645
  174SLPC   O1319647   3.852   3.365   7.068 -0.1827  0.1398  0.0680
  174SLPC   O1419648   3.738   3.186   6.918 -0.0886 -0.5636 -0.5178
  174SLPC   O1219649   3.655   3.424   6.935  0.3321  0.5604 -0.0463
  174SLPC   O1119650   3.864   3.377   6.818  0.5792  0.4377 -0.0992
  174SLPC    C119651   3.997   3.326   6.783  0.0877 -0.4730  0.8094
  174SLPC    HA19652   4.067   3.411   6.770 -1.3444  0.8002  1.1466
  174SLPC    HB19653   4.037   3.260   6.864  1.2641 -0.3183  0.3752
  174SLPC    C219654   3.988   3.262   6.643 -0.6489  0.1860 -0.4052
  174SLPC    HS19655   4.089   3.283   6.603  0.0252 -0.5830  0.8650
  174SLPC   O2119656   3.894   3.330   6.556 -0.1232  0.5826  0.0363
  174SLPC   C2119657   3.911   3.447   6.519  0.1448  0.4373  0.3335
  174SLPC   O2219658   4.000   3.522   6.552 -0.2986 -0.3887  0.1348
  174SLPC   C2219659   3.802   3.491   6.432  0.0850 -0.2797  0.1209
  174SLPC   H2R19660   3.721   3.415   6.423  0.0401 -0.1386 -0.7357
  174SLPC   H2S19661   3.761   3.585   6.475  1.3701  1.6250 -2.5799
  174SLPC    C319662   3.956   3.110   6.633 -0.0950 -0.0099  0.8477
  174SLPC    HX19663   3.858   3.096   6.683 -0.7444  2.3188  0.3375
  174SLPC    HY19664   4.032   3.051   6.688  1.2544  2.3468  1.6815
  174SLPC   O3119665   3.934   3.071   6.489  0.6081 -0.2061 -0.2197
  174SLPC   C3119666   4.046   3.051   6.417  0.4392 -0.5255  0.4577
  174SLPC   O3219667   4.154   3.089   6.455  0.6160  0.8841 -0.0982
  174SLPC   C3219668   4.020   3.006   6.277 -0.4069  0.0804  0.1526
  174SLPC   H2X19669   3.935   3.070   6.245 -0.6606  0.3843  1.4120
  174SLPC   H2Y19670   3.994   2.898   6.271  1.0323 -0.2086 -1.7153
  174SLPC   C2319671   3.857   3.541   6.300 -0.0754  0.2333  0.1982
  174SLPC   H3R19672   3.934   3.618   6.321 -1.6652  1.5353  1.5465
  174SLPC   H3S19673   3.772   3.583   6.242  1.1242 -0.5018 -2.2246
  174SLPC   C2419674   3.928   3.432   6.217 -0.5170 -0.0019  0.0934
  174SLPC   H4R19675   3.867   3.341   6.234 -1.7498  1.1456  2.2213
  174SLPC   H4S19676   4.030   3.410   6.254  0.7954  2.1678 -1.9703
  174SLPC   C2519677   3.957   3.475   6.070  0.0627  0.0125 -0.2224
  174SLPC   H5R19678   4.013   3.571   6.068  0.7315 -0.3600  0.4390
  174SLPC   H5S19679   3.851   3.493   6.041 -0.6616 -0.2879  2.0440
  174SLPC   C2619680   4.033   3.382   5.979  0.2884  0.4697 -0.1060
  174SLPC   H6R19681   3.977   3.286   5.978 -2.5079  2.0127  0.2815
  174SLPC   H6S19682   4.134   3.347   6.010 -0.9902 -3.3512  0.3184
  174SLPC   C2719683   4.051   3.439   5.833  0.0721  0.3512  0.1904
  174SLPC   H7R19684   4.109   3.534   5.834 -1.5900  1.4151 -0.7532
  174SLPC   H7S19685   3.946   3.464   5.810 -0.2300 -0.0175  1.1293
  174SLPC   C2819686   4.122   3.338   5.733  0.0674 -0.2450 -0.1676
  174SLPC   H8R19687   4.051   3.253   5.734  0.0530 -0.2587 -1.0796
  174SLPC   H8S19688   4.222   3.316   5.776  0.7755  0.4874 -1.3776
  174SLPC   C2919689   4.114   3.404   5.599  0.4447 -0.0691  0.0688
  174SLPC   H9R19690   4.033   3.475   5.575  2.2124  1.6727 -0.9962
  174SLPC  C21019691   4.215   3.384   5.513  0.0603  0.1628  0.0663
  174SLPC  H10R19692   4.212   3.429   5.413  0.2576  3.6011  1.4614
  174SLPC  C21119693   4.334   3.296   5.532  0.2332  0.3438 -1.0620
  174SLPC  H11R19694   4.324   3.198   5.480  0.4864 -1.0769  1.4217
  174SLPC  H11S19695   4.362   3.279   5.638  3.5579  0.4445 -1.8126
  174SLPC  C21219696   4.450   3.366   5.472 -0.3559 -0.1855  0.7822
  174SLPC  H12R19697   4.515   3.426   5.537  0.2315 -2.0069  1.9858
  174SLPC  C21319698   4.493   3.346   5.346 -0.1778  0.7171 -0.1720
  174SLPC  H13R19699   4.591   3.390   5.325  0.3435  1.1424  2.6548
  174SLPC  C21419700   4.437   3.256   5.241  0.3343  0.0986 -0.1332
  174SLPC  H14R19701   4.329   3.235   5.258  0.5218 -2.0810 -1.3248
  174SLPC  H14S19702   4.487   3.158   5.249 -0.7168 -0.4260  0.1699
  174SLPC  C21519703   4.467   3.290   5.090 -0.6387  0.1660  0.2121
  174SLPC  H15R19704   4.442   3.196   5.036 -0.8699 -0.3544  1.1940
  174SLPC  H15S19705   4.576   3.306   5.073 -0.8002  0.2423 -0.8248
  174SLPC  C21619706   4.377   3.397   5.042 -0.1538 -0.6581  0.4816
  174SLPC  H16R19707   4.378   3.480   5.117 -1.4932 -0.2298  0.0708
  174SLPC  H16S19708   4.274   3.358   5.026  0.7237 -2.0298 -2.3805
  174SLPC  C21719709   4.409   3.439   4.899 -0.0766  0.4126  0.3870
  174SLPC  H17R19710   4.407   3.344   4.840  0.1324  0.3918  0.4133
  174SLPC  H17S19711   4.511   3.482   4.887 -0.1359  0.3369 -0.4930
  174SLPC  C21819712   4.306   3.542   4.838 -0.3177  0.5352 -0.2946
  174SLPC  H18R19713   4.209   3.489   4.825 -1.1432  2.1840 -1.0969
  174SLPC  H18S19714   4.331   3.571   4.734  0.2714 -1.3101 -0.7103
  174SLPC  H18T19715   4.297   3.620   4.916 -0.3500 -1.6104  1.9900
  174SLPC   C3319716   4.136   3.028   6.176  0.4127 -0.8939  0.1906
  174SLPC   H3X19717   4.219   2.964   6.212  0.5955 -0.2146  1.0062
  174SLPC   H3Y19718   4.179   3.129   6.157 -0.0831 -0.3976  1.5868
  174SLPC   C3419719   4.092   2.977   6.032 -0.0269  0.6177  0.2636
  174SLPC   H4X19720   4.028   3.059   5.995 -0.5794  0.1455  0.1601
  174SLPC   H4Y19721   4.035   2.882   6.028 -1.1875  1.2804  0.7247
  174SLPC   C3519722   4.208   2.959   5.932 -0.2294 -0.2033  0.1957
  174SLPC   H5X19723   4.271   2.870   5.953 -1.1155 -1.7651 -3.0965
  174SLPC   H5Y19724   4.270   3.051   5.933  1.6490 -1.3916 -0.6339
  174SLPC   C3619725   4.164   2.946   5.790 -0.1242  0.4008  0.3186
  174SLPC   H6X19726   4.093   3.028   5.763  0.3828  0.7586  0.0492
  174SLPC   H6Y19727   4.102   2.854   5.783  1.6607 -0.8454  0.3096
  174SLPC   C3719728   4.273   2.939   5.686  0.1009 -0.7874 -0.1484
  174SLPC   H7X19729   4.345   2.854   5.695  0.7193 -0.1187  1.8092
  174SLPC   H7Y19730   4.324   3.037   5.691 -3.6655  1.2729  2.5965
  174SLPC   C3819731   4.210   2.945   5.548 -0.5730  0.3426  0.5829
  174SLPC   H8X19732   4.163   3.045   5.535 -1.0685 -0.1834 -2.3194
  174SLPC   H8Y19733   4.126   2.872   5.557 -0.7540  0.5189  0.3178
  174SLPC   C3919734   4.311   2.916   5.437  0.5858  0.6888  1.2187
  174SLPC   H9X19735   4.382   2.832   5.457  1.2997  0.4697 -1.8270
  174SLPC   H9Y19736   4.385   2.994   5.410 -0.9908  1.0606 -2.5269
  174SLPC  C31019737   4.238   2.880   5.307  1.3545  0.1774  0.0913
  174SLPC  H10X19738   4.173   2.965   5.274 -0.5236 -1.3216 -0.2262
  174SLPC  H10Y19739   4.177   2.789   5.320  0.6733  0.4473 -1.0166
  174SLPC  C31119740   4.328   2.844   5.198  0.1109 -0.2322  0.4323
  174SLPC  H11X19741   4.433   2.846   5.236 -0.9292 -0.2862  3.6843
  174SLPC  H11Y19742   4.315   2.928   5.127 -0.7178 -0.7636 -0.0539
  174SLPC  C31219743   4.304   2.718   5.112  0.3659 -1.1364  0.0350
  174SLPC  H12X19744   4.210   2.718   5.052  0.0896 -0.3576  0.4405
  174SLPC  H12Y19745   4.297   2.635   5.185  2.0640 -1.6295 -0.3343
  174SLPC  C31319746   4.421   2.689   5.021 -0.4870  0.3336  0.7118
  174SLPC  H13X19747   4.508   2.696   5.091  0.2560  0.2900 -0.1836
  174SLPC  H13Y19748   4.442   2.763   4.940 -0.6843 -0.0005  0.3519
  174SLPC  C31419749   4.409   2.557   4.950  0.0832 -0.2181  0.6477
  174SLPC  H14X19750   4.308   2.551   4.905  0.6768  0.4272 -0.8246
  174SLPC  H14Y19751   4.413   2.474   5.024 -0.1633 -1.0279 -0.2291
  174SLPC  C31519752   4.505   2.535   4.830 -0.5563 -0.0633  0.1916
  174SLPC  H15X19753   4.478   2.595   4.741 -1.1535 -0.9774 -0.2683
  174SLPC  H15Y19754   4.499   2.432   4.789  0.2032 -0.0599  0.0632
  174SLPC  C31619755   4.651   2.548   4.861  0.4446  0.3549  0.3600
  174SLPC  H16X19756   4.667   2.479   4.947  0.2685  0.3124  0.3586
  174SLPC  H16Y19757   4.677   2.650   4.898 -0.8117  0.8632 -0.0704
  174SLPC  C31719758   4.744   2.496   4.749  0.8697  0.3766  0.0399
  174SLPC  H17X19759   4.721   2.565   4.664 -0.8589 -0.2077 -0.0007
  174SLPC  H17Y19760   4.725   2.391   4.719  0.7530  1.2352 -3.3660
  174SLPC  C31819761   4.889   2.529   4.769 -0.7051  0.2741 -0.3365
  174SLPC  H18X19762   4.903   2.619   4.833 -1.3438 -0.3547  0.7246
  174SLPC  H18Y19763   4.936   2.551   4.670  0.3097 -2.1297 -0.4705
  174SLPC  H18Z19764   4.944   2.446   4.818  0.0429  0.8233 -0.2338
  175SLPC     N19765   0.489   2.438   7.005 -0.3534  0.7059 -0.2694
  175SLPC   C1319766   0.381   2.368   7.075  0.6344 -0.6850  0.1253
  175SLPC  H13A19767   0.327   2.309   7.002  0.8422 -0.2340 -0.3968
  175SLPC  H13B19768   0.426   2.297   7.143  0.8674  0.3637  1.0842
  175SLPC  H13C19769   0.319   2.431   7.136 -0.0944 -0.6691 -0.6079
  175SLPC   C1419770   0.562   2.345   6.917  0.1392 -0.0738 -0.6547
  175SLPC  H14A19771   0.609   2.263   6.970 -1.2491 -0.0661  0.6794
  175SLPC  H14B19772   0.494   2.303   6.844 -0.6650 -1.2306  0.6777
  175SLPC  H14C19773   0.639   2.400   6.867 -1.6986  1.4521 -1.9584
  175SLPC   C1519774   0.591   2.497   7.104 -0.3285  0.1975  0.2834
  175SLPC  H15A19775   0.540   2.558   7.177 -0.7272  0.8871 -0.5527
  175SLPC  H15B19776   0.625   2.416   7.168 -1.0985 -2.6158 -2.6022
  175SLPC  H15C19777   0.675   2.539   7.050 -1.4733  0.5039 -1.3247
  175SLPC   C1219778   0.432   2.547   6.911 -0.2036  0.0819  0.4885
  175SLPC  H12A19779   0.509   2.611   6.870 -0.4694  2.3859  3.2309
  175SLPC  H12B19780   0.372   2.614   6.970  0.7614  2.0309 -0.6604
  175SLPC   C1119781   0.330   2.510   6.796  0.0811 -0.8541 -0.3986
  175SLPC  H11A19782   0.378   2.445   6.720 -1.0284 -0.8082 -1.1568
  175SLPC  H11B19783   0.299   2.607   6.753 -1.1234 -1.8267 -1.8004
  175SLPC     P19784   0.090   2.525   6.897  0.6041 -0.2878  0.2069
  175SLPC   O1319785  -0.010   2.423   6.938 -0.8121  0.0221 -0.3479
  175SLPC   O1419786   0.136   2.620   7.000 -0.2380  0.1426  0.3354
  175SLPC   O1219787   0.211   2.442   6.840 -0.0940 -0.4209  0.5765
  175SLPC   O1119788   0.038   2.616   6.777  0.3321  0.0550 -0.1589
  175SLPC    C119789  -0.063   2.579   6.679 -0.6382  0.1438  0.4590
  175SLPC    HA19790  -0.139   2.508   6.719 -1.4260 -1.1446 -2.9999
  175SLPC    HB19791  -0.108   2.673   6.640  1.5842  1.1462  0.2095
  175SLPC    C219792  -0.004   2.506   6.557  0.0193 -0.7139 -0.0028
  175SLPC    HS19793   0.038   2.414   6.603  0.4132 -1.6101 -2.0906
  175SLPC   O2119794   0.119   2.575   6.521 -0.3844 -0.6063  0.5106
  175SLPC   C2119795   0.185   2.518   6.425 -0.3967 -0.1914 -0.1597
  175SLPC   O2219796   0.176   2.403   6.396 -0.1151 -0.1000  0.7558
  175SLPC   C2219797   0.291   2.612   6.354  0.3232  0.4441 -0.3319
  175SLPC   H2R19798   0.264   2.713   6.390  0.3368  0.3097  0.0659
  175SLPC   H2S19799   0.392   2.587   6.393  0.8480  0.7923 -1.4100
  175SLPC    C319800  -0.112   2.476   6.454  0.2696  0.6796 -0.2249
  175SLPC    HX19801  -0.199   2.436   6.509  0.7927 -0.0353  0.1000
  175SLPC    HY19802  -0.072   2.387   6.400 -0.9466 -0.1891  0.2520
  175SLPC   O3119803  -0.158   2.585   6.365 -0.3343 -0.5845  0.7694
  175SLPC   C3119804  -0.271   2.655   6.393 -0.0501 -0.1355 -0.2662
  175SLPC   O3219805  -0.338   2.646   6.495 -0.1520 -0.3750  0.3182
  175SLPC   C3219806  -0.308   2.746   6.277  0.0216  0.4418 -0.1056
  175SLPC   H2X19807  -0.308   2.852   6.309 -2.3000 -0.0797  1.8771
  175SLPC   H2Y19808  -0.411   2.720   6.247 -0.8381  2.6745  0.7553
  175SLPC   C2319809   0.303   2.596   6.203 -0.2505  0.3559  0.3176
  175SLPC   H3R19810   0.305   2.487   6.183  0.8794  0.5164 -0.5561
  175SLPC   H3S19811   0.404   2.629   6.172 -0.0326  0.8579  1.5350
  175SLPC   C2419812   0.190   2.660   6.128  1.0696 -0.5191  0.3719
  175SLPC   H4R19813   0.212   2.769   6.126  5.5648 -1.2323 -0.3215
  175SLPC   H4S19814   0.100   2.628   6.183  1.8790 -1.5746  1.1214
  175SLPC   C2519815   0.186   2.598   5.987  0.6359 -0.7863  0.1639
  175SLPC   H5R19816   0.088   2.621   5.941  0.7860  0.1019  0.2609
  175SLPC   H5S19817   0.180   2.488   5.998  1.1645 -0.7454  0.9821
  175SLPC   C2619818   0.297   2.639   5.894  0.0931  0.1495  0.7785
  175SLPC   H6R19819   0.377   2.587   5.951 -0.9131 -1.9444  0.3606
  175SLPC   H6S19820   0.311   2.749   5.906 -2.1099  0.4173  1.3022
  175SLPC   C2719821   0.286   2.587   5.749  0.0499  0.5527  0.0911
  175SLPC   H7R19822   0.265   2.478   5.755  3.5802 -0.2084  0.9280
  175SLPC   H7S19823   0.383   2.579   5.695 -1.7876 -0.2131 -3.3482
  175SLPC   C2819824   0.172   2.662   5.658  0.3601 -0.0695  0.1774
  175SLPC   H8R19825   0.209   2.764   5.635  1.1333  0.2306  2.4833
  175SLPC   H8S19826   0.077   2.682   5.712 -0.3072  0.6375 -1.2243
  175SLPC   C2919827   0.142   2.602   5.519 -0.5138  0.4517  0.1157
  175SLPC   H9R19828   0.052   2.539   5.521 -0.0958 -0.1473  1.2679
  175SLPC  C21019829   0.201   2.634   5.400  0.3434  0.4789 -0.1249
  175SLPC  H10R19830   0.162   2.586   5.309  0.7148 -2.7475  1.2925
  175SLPC  C21119831   0.329   2.719   5.378 -0.2509 -0.2607 -1.3381
  175SLPC  H11R19832   0.411   2.648   5.356 -0.8170 -1.2722 -0.3487
  175SLPC  H11S19833   0.369   2.758   5.474 -1.6735 -1.5715 -0.1564
  175SLPC  C21219834   0.304   2.839   5.290  0.0981  0.0257 -0.2491
  175SLPC  H12R19835   0.264   2.929   5.340 -0.2728 -0.8353  1.0663
  175SLPC  C21319836   0.360   2.852   5.169 -0.2637 -0.1461 -0.7461
  175SLPC  H13R19837   0.358   2.951   5.120  0.8937  0.9975  1.3931
  175SLPC  C21419838   0.450   2.761   5.086 -0.6212  0.2155  0.2750
  175SLPC  H14R19839   0.466   2.662   5.134  0.2771  0.2444  0.0446
  175SLPC  H14S19840   0.548   2.809   5.069 -0.9231  0.7344 -0.0314
  175SLPC  C21519841   0.365   2.734   4.957  0.0304  0.1312 -0.3767
  175SLPC  H15R19842   0.331   2.834   4.921  5.7716  2.7620  0.4212
  175SLPC  H15S19843   0.285   2.661   4.982 -0.3418  0.7688  0.3430
  175SLPC  C21619844   0.451   2.675   4.845  0.0614  0.2516 -0.1497
  175SLPC  H16R19845   0.515   2.591   4.881  1.4912  0.6100 -1.6894
  175SLPC  H16S19846   0.522   2.757   4.821  0.6307 -0.4101 -0.8091
  175SLPC  C21719847   0.372   2.640   4.722  0.1408  0.0942 -0.1775
  175SLPC  H17R19848   0.330   2.733   4.679  0.8663  0.3750 -0.3023
  175SLPC  H17S19849   0.280   2.582   4.745 -0.1737 -0.2863 -2.1434
  175SLPC  C21819850   0.451   2.565   4.619  0.6745 -0.2456 -0.5722
  175SLPC  H18R19851   0.397   2.486   4.562  1.7925 -0.8396 -0.8402
  175SLPC  H18S19852   0.540   2.519   4.667 -1.2794 -1.4020  2.1991
  175SLPC  H18T19853   0.494   2.629   4.539  2.1432  0.0635  0.4315
  175SLPC   C3319854  -0.200   2.737   6.164  0.1878 -0.8611  0.6064
  175SLPC   H3X19855  -0.195   2.639   6.111 -2.0704 -0.1646 -0.9812
  175SLPC   H3Y19856  -0.100   2.761   6.206 -0.0178  1.3593 -0.0763
  175SLPC   C3419857  -0.235   2.843   6.062 -0.0945  0.3104 -0.7156
  175SLPC   H4X19858  -0.182   2.936   6.091 -0.1041 -0.0874  0.6434
  175SLPC   H4Y19859  -0.344   2.860   6.051 -0.7020 -1.8539  1.1604
  175SLPC   C3519860  -0.193   2.807   5.918  0.2134  0.7271 -0.0291
  175SLPC   H5X19861  -0.253   2.730   5.865  2.8577 -0.0171 -2.1468
  175SLPC   H5Y19862  -0.087   2.777   5.908 -0.1925 -0.4386 -0.9301
  175SLPC   C3619863  -0.208   2.936   5.834  0.3464 -0.2353  0.2225
  175SLPC   H6X19864  -0.165   2.921   5.733 -0.6059  0.3200 -0.2786
  175SLPC   H6Y19865  -0.152   3.022   5.878 -0.3662  0.5284 -0.3434
  175SLPC   C3719866  -0.348   2.992   5.812 -0.4653 -0.6538  0.4159
  175SLPC   H7X19867  -0.392   3.039   5.903 -0.7961 -0.0561 -0.0444
  175SLPC   H7Y19868  -0.417   2.917   5.767  0.3735  0.3198 -2.7657
  175SLPC   C3819869  -0.341   3.102   5.701  0.7497  0.9299 -0.2397
  175SLPC   H8X19870  -0.239   3.145   5.688  1.0970 -0.4095 -2.6613
  175SLPC   H8Y19871  -0.410   3.182   5.734 -1.2467 -1.1875  1.0247
  175SLPC   C3919872  -0.387   3.056   5.562  0.2143  0.5107 -0.0731
  175SLPC   H9X19873  -0.475   2.993   5.588  2.0622 -2.0244  0.4222
  175SLPC   H9Y19874  -0.312   2.990   5.515 -2.2900 -1.0053 -2.2446
  175SLPC  C31019875  -0.437   3.165   5.474  0.3684  0.0167 -0.0676
  175SLPC  H10X19876  -0.351   3.234   5.461 -0.3997  0.7728 -1.2612
  175SLPC  H10Y19877  -0.523   3.225   5.511  0.1434 -0.3055 -0.0660
  175SLPC  C31119878  -0.479   3.105   5.337 -0.3014 -0.4013 -0.1981
  175SLPC  H11X19879  -0.525   3.192   5.286 -0.7473  0.5767  1.7449
  175SLPC  H11Y19880  -0.550   3.021   5.354 -2.0771  1.3438  1.5269
  175SLPC  C31219881  -0.370   3.047   5.242  0.8197 -0.1934 -0.5515
  175SLPC  H12X19882  -0.428   2.975   5.181 -4.2708 -0.0361  3.4128
  175SLPC  H12Y19883  -0.293   2.989   5.297 -1.0959 -1.0216  1.3483
  175SLPC  C31319884  -0.301   3.145   5.150 -0.1972  0.5321 -0.2180
  175SLPC  H13X19885  -0.198   3.108   5.135  1.0392  4.1927 -1.9124
  175SLPC  H13Y19886  -0.284   3.245   5.196  0.1925  0.5462 -0.3946
  175SLPC  C31419887  -0.372   3.150   5.011 -0.2645  0.4896 -0.0484
  175SLPC  H14X19888  -0.476   3.187   5.026 -0.7074 -1.0567  0.8681
  175SLPC  H14Y19889  -0.372   3.046   4.973  1.1903 -0.0136  1.2429
  175SLPC  C31519890  -0.307   3.226   4.897  0.6846  0.2023 -0.1963
  175SLPC  H15X19891  -0.206   3.179   4.891  0.9844  0.9090 -0.9536
  175SLPC  H15Y19892  -0.288   3.334   4.915 -0.8672  0.4556  0.0030
  175SLPC  C31619893  -0.369   3.199   4.757  0.5996  0.3643 -0.1905
  175SLPC  H16X19894  -0.451   3.266   4.724 -0.1249 -0.6140 -0.4124
  175SLPC  H16Y19895  -0.411   3.097   4.755 -0.1226  0.6649 -0.5460
  175SLPC  C31719896  -0.260   3.198   4.655  0.4992  0.2439  0.3839
  175SLPC  H17X19897  -0.174   3.130   4.671 -0.0727 -0.8868 -1.0284
  175SLPC  H17Y19898  -0.218   3.301   4.662 -0.4967  0.7348 -0.4653
  175SLPC  C31819899  -0.316   3.182   4.513  0.2667  0.3730 -0.3685
  175SLPC  H18X19900  -0.272   3.094   4.462  0.8873  1.4470 -1.7285
  175SLPC  H18Y19901  -0.304   3.267   4.443 -0.5503  0.7990 -0.0068
  175SLPC  H18Z19902  -0.423   3.149   4.516  1.1050 -2.6266  0.3022
  176SLPC     N19903   5.245   1.986   7.191  0.4063 -0.4715  0.4390
  176SLPC   C1319904   5.271   2.079   7.305  0.6733  0.2072  0.2593
  176SLPC  H13A19905   5.247   2.180   7.276  1.0590 -0.1121 -1.2783
  176SLPC  H13B19906   5.208   2.046   7.387 -1.5331  1.6664 -0.7657
  176SLPC  H13C19907   5.376   2.080   7.329  1.0921  2.2748 -1.4166
  176SLPC   C1419908   5.096   2.002   7.151 -0.4415  0.3794  0.4112
  176SLPC  H14A19909   5.072   1.956   7.056  0.7493 -0.4138  0.4796
  176SLPC  H14B19910   5.033   1.940   7.214  1.4682 -2.3559 -0.2138
  176SLPC  H14C19911   5.059   2.102   7.133  0.9238  0.9442  0.6676
  176SLPC   C1519912   5.256   1.848   7.244 -0.2109  0.0562  0.1838
  176SLPC  H15A19913   5.192   1.837   7.331  0.0154 -0.0201  0.3415
  176SLPC  H15B19914   5.215   1.773   7.178  1.5920 -1.7992  1.0627
  176SLPC  H15C19915   5.353   1.815   7.277 -0.7589  0.9113  2.9870
  176SLPC   C1219916   5.329   2.016   7.070  0.1590 -0.5465 -0.0299
  176SLPC  H12A19917   5.297   1.965   6.981  1.3121  2.0304 -2.0708
  176SLPC  H12B19918   5.427   1.974   7.089  1.4998  2.2960 -0.1702
  176SLPC   C1119919   5.354   2.161   7.040 -0.0291 -1.0389  0.2126
  176SLPC  H11A19920   5.425   2.179   6.956 -1.5550  0.8051 -0.7804
  176SLPC  H11B19921   5.402   2.215   7.124  2.3528  1.0803 -2.3118
  176SLPC     P19922   5.167   2.213   6.862 -0.1207  0.2024 -0.5766
  176SLPC   O1319923   5.023   2.184   6.886  0.1243 -0.4716 -0.0628
  176SLPC   O1419924   5.196   2.333   6.779  0.5628 -0.2532  0.3240
  176SLPC   O1219925   5.243   2.227   6.990 -0.1966 -0.5428  0.3753
  176SLPC   O1119926   5.246   2.095   6.795  0.3039  0.5752  0.3016
  176SLPC    C119927   5.180   1.983   6.740 -0.2290  0.2257  0.0803
  176SLPC    HA19928   5.233   1.888   6.762 -3.3555 -1.9118 -0.8979
  176SLPC    HB19929   5.080   1.966   6.784 -0.9659  2.7706 -0.4821
  176SLPC    C219930   5.154   1.996   6.587 -0.5945 -0.2787  0.2971
  176SLPC    HS19931   5.105   1.904   6.549 -1.7268 -0.7321  2.7128
  176SLPC   O2119932   5.275   2.027   6.511 -0.3306 -0.7246  0.2492
  176SLPC   C2119933   5.330   1.937   6.431  0.5062 -0.3071  0.3318
  176SLPC   O2219934   5.284   1.829   6.410 -0.0898 -0.2926  0.8032
  176SLPC   C2219935   5.469   1.983   6.383  0.2609  0.6761 -0.5779
  176SLPC   H2R19936   5.497   2.072   6.443 -1.3982 -0.7247  2.4782
  176SLPC   H2S19937   5.538   1.903   6.414 -0.6653  0.3938  0.8508
  176SLPC    C319938   5.056   2.098   6.557  0.6372  0.0776  0.0936
  176SLPC    HX19939   5.089   2.195   6.600 -0.7257  1.7426 -2.3581
  176SLPC    HY19940   4.960   2.074   6.607  1.3937 -3.5393  0.0870
  176SLPC   O3119941   5.046   2.112   6.411 -0.0650 -0.0636  0.1254
  176SLPC   C3119942   4.952   2.040   6.355  0.4832 -0.3906  0.3586
  176SLPC   O3219943   4.863   1.969   6.404  0.2838  0.0218 -0.0796
  176SLPC   C3219944   4.965   2.061   6.201  0.2174  0.5662  0.2472
  176SLPC   H2X19945   5.057   2.121   6.180 -0.7560  1.9800 -0.1511
  176SLPC   H2Y19946   4.878   2.124   6.175  0.9540  1.3060 -0.5142
  176SLPC   C2319947   5.473   2.010   6.232 -0.4347  0.0700 -0.5204
  176SLPC   H3R19948   5.457   2.120   6.229 -2.5988  0.0804  3.3801
  176SLPC   H3S19949   5.398   1.952   6.174 -0.7960 -0.3157  0.3007
  176SLPC   C2419950   5.608   1.960   6.183 -0.2152 -0.0007  0.1653
  176SLPC   H4R19951   5.613   1.849   6.184  1.6072  0.0163 -1.2592
  176SLPC   H4S19952   5.695   1.988   6.246  1.3950 -1.5621 -1.2372
  176SLPC   C2519953   5.644   2.008   6.039  0.0479  0.6116  0.6511
  176SLPC   H5R19954   5.755   2.012   6.026  0.0440  0.3492  0.5242
  176SLPC   H5S19955   5.594   2.106   6.028  2.0370  1.4772 -1.5405
  176SLPC   C2619956   5.588   1.922   5.925  0.4739 -0.1481 -0.5197
  176SLPC   H6R19957   5.483   1.886   5.935 -0.5652  2.7125 -0.4418
  176SLPC   H6S19958   5.663   1.840   5.918  1.2352  0.4740  0.3027
  176SLPC   C2719959   5.585   1.990   5.787 -0.2558 -0.1491  0.3467
  176SLPC   H7R19960   5.526   2.082   5.805 -1.1655 -0.8184  0.8769
  176SLPC   H7S19961   5.542   1.931   5.704 -1.7743 -0.5249  1.3544
  176SLPC   C2819962   5.725   2.035   5.733  0.5731 -0.2309 -0.4893
  176SLPC   H8R19963   5.792   2.065   5.816  0.3150  1.5984 -0.9118
  176SLPC   H8S19964   5.699   2.125   5.674 -1.6707 -0.3188  0.2563
  176SLPC   C2919965   5.810   1.938   5.653 -0.7105 -0.7810 -0.1930
  176SLPC   H9R19966   5.866   1.864   5.712 -0.7026 -0.8218 -0.2509
  176SLPC  C21019967   5.797   1.927   5.516  0.4726 -1.0499  0.3027
  176SLPC  H10R19968   5.862   1.851   5.471 -0.5926 -0.7301 -1.8927
  176SLPC  C21119969   5.733   2.025   5.422  0.3377 -0.1049  0.5741
  176SLPC  H11R19970   5.815   2.084   5.375 -0.2359  0.2160 -0.0457
  176SLPC  H11S19971   5.663   2.098   5.468  0.8875  0.6997  0.1523
  176SLPC  C21219972   5.650   1.944   5.327 -0.1453  0.9317  0.6979
  176SLPC  H12R19973   5.551   1.915   5.365 -0.6408 -0.1524 -1.2795
  176SLPC  C21319974   5.678   1.909   5.197 -0.4760  0.7163  0.4021
  176SLPC  H13R19975   5.612   1.839   5.144  0.8239 -0.8742  0.8007
  176SLPC  C21419976   5.804   1.933   5.111 -0.4815 -0.4605 -0.2921
  176SLPC  H14R19977   5.853   1.836   5.088 -3.1175 -1.5467 -1.8155
  176SLPC  H14S19978   5.883   1.986   5.169 -0.8324  0.5713 -0.7388
  176SLPC  C21519979   5.781   2.017   4.983 -0.1726  0.4353  0.5837
  176SLPC  H15R19980   5.729   2.113   4.999 -1.2534  0.2396 -1.3765
  176SLPC  H15S19981   5.723   1.955   4.911  0.6344 -0.6600  0.8364
  176SLPC  C21619982   5.910   2.038   4.913  0.3677 -0.0800 -0.2091
  176SLPC  H16R19983   5.965   1.944   4.887  0.2017  0.3341 -2.2234
  176SLPC  H16S19984   5.989   2.086   4.975  0.3869  0.2284 -0.4700
  176SLPC  C21719985   5.914   2.129   4.782 -0.2469 -0.0832 -0.2519
  176SLPC  H17R19986   5.835   2.201   4.811  0.3463 -0.3892  2.3947
  176SLPC  H17S19987   5.900   2.065   4.691 -2.1150 -0.3255  0.1671
  176SLPC  C21819988   6.039   2.214   4.764  0.4870 -0.6837 -0.5622
  176SLPC  H18R19989   6.024   2.283   4.678  1.7411 -0.4019 -0.5671
  176SLPC  H18S19990   6.124   2.150   4.731  1.5477  1.1101 -1.4796
  176SLPC  H18T19991   6.067   2.277   4.851 -1.4822 -0.8062  0.2028
  176SLPC   C3319992   4.977   1.937   6.122  0.3135 -1.0602 -0.3730
  176SLPC   H3X19993   4.884   1.877   6.134 -1.7271  1.2543 -3.1653
  176SLPC   H3Y19994   5.062   1.877   6.161  1.1221 -1.0193 -2.0119
  176SLPC   C3419995   5.011   1.952   5.977  0.1451 -0.7212  0.0503
  176SLPC   H4X19996   5.041   1.863   5.918  0.0352 -0.2893 -0.6681
  176SLPC   H4Y19997   5.102   2.016   5.981  0.3065 -0.8502 -1.1794
  176SLPC   C3519998   4.893   2.026   5.897 -0.7700  0.1753 -0.4195
  176SLPC   H5X19999   4.871   2.127   5.935 -3.1400 -0.0116 -1.1137
  176SLPC   H5Y20000   4.806   1.958   5.909 -0.1998 -0.5883 -0.5445
  176SLPC   C3620001   4.917   2.039   5.748 -0.3767 -0.5436 -0.3088
  176SLPC   H6X20002   4.906   1.941   5.697  0.2515 -0.8259  0.0873
  176SLPC   H6Y20003   5.022   2.070   5.731 -1.2497  1.8870 -1.8483
  176SLPC   C3720004   4.821   2.139   5.683 -0.2835 -0.6558 -0.7432
  176SLPC   H7X20005   4.825   2.235   5.738  1.0994 -1.2766  0.2872
  176SLPC   H7Y20006   4.716   2.105   5.690 -0.6508  0.5169 -0.3863
  176SLPC   C3820007   4.868   2.163   5.538  0.4355  0.5662 -1.1519
  176SLPC   H8X20008   4.866   2.062   5.491 -0.6524 -0.5958  1.2240
  176SLPC   H8Y20009   4.972   2.202   5.548  0.0252  1.4420 -0.1696
  176SLPC   C3920010   4.780   2.254   5.463 -0.3842  0.6744 -0.3146
  176SLPC   H9X20011   4.761   2.345   5.525  2.7552  0.0869  1.7450
  176SLPC   H9Y20012   4.690   2.191   5.446 -0.0186 -0.4163  1.4603
  176SLPC  C31020013   4.846   2.304   5.330  0.5063 -0.2915  0.4269
  176SLPC  H10X20014   4.934   2.369   5.353  0.6552  0.0931 -1.0891
  176SLPC  H10Y20015   4.774   2.372   5.280 -1.8833 -1.4189  2.1731
  176SLPC  C31120016   4.886   2.194   5.232 -0.6495  0.3068 -0.0582
  176SLPC  H11X20017   4.789   2.145   5.206 -2.3991  2.3479  2.1912
  176SLPC  H11Y20018   4.954   2.119   5.279 -1.0346 -0.6694 -1.0111
  176SLPC  C31220019   4.962   2.259   5.119 -0.4375 -0.0574  0.6373
  176SLPC  H12X20020   5.040   2.331   5.151 -1.1629  1.2446 -0.4288
  176SLPC  H12Y20021   4.886   2.312   5.058  1.6206  0.9725 -1.1883
  176SLPC  C31320022   5.023   2.158   5.018 -0.2421 -0.1182  0.0230
  176SLPC  H13X20023   5.115   2.121   5.068  0.3913  2.5432  0.9965
  176SLPC  H13Y20024   5.045   2.209   4.922  1.0126 -1.1755 -0.2721
  176SLPC  C31420025   4.940   2.038   4.980  0.2463  0.1010  0.3005
  176SLPC  H14X20026   4.837   2.075   4.961 -0.9841 -1.5699  3.1493
  176SLPC  H14Y20027   4.943   1.973   5.070  0.9277  1.1934  1.0906
  176SLPC  C31520028   4.995   1.953   4.871 -0.2163  0.5557 -0.2733
  176SLPC  H15X20029   4.930   1.864   4.862  0.0797  0.2305  0.7059
  176SLPC  H15Y20030   5.093   1.915   4.905 -0.5290  1.0639  1.3110
  176SLPC  C31620031   5.010   2.024   4.734 -0.3191  0.5142  0.2293
  176SLPC  H16X20032   5.054   2.126   4.731  1.2136 -0.0802  1.2006
  176SLPC  H16Y20033   4.911   2.023   4.684  0.4527  0.1568 -1.3370
  176SLPC  C31720034   5.103   1.933   4.645  0.7273 -0.2716  0.7877
  176SLPC  H17X20035   5.056   1.833   4.639  1.1828 -0.4166 -2.7951
  176SLPC  H17Y20036   5.203   1.923   4.693  1.0295  1.6283  0.6463
  176SLPC  C31820037   5.107   1.986   4.504 -0.6105 -0.0061  0.7438
  176SLPC  H18X20038   5.141   2.090   4.485 -0.9590 -0.3709 -2.5261
  176SLPC  H18Y20039   5.006   1.974   4.460  0.1792 -0.5911 -0.9962
  176SLPC  H18Z20040   5.165   1.923   4.434 -1.1092  1.8657 -1.4780
  177SLPC     N20041   6.679   2.648   7.184 -0.1161  0.3781  0.2533
  177SLPC   C1320042   6.573   2.713   7.248 -0.2216 -0.3539 -0.6607
  177SLPC  H13A20043   6.493   2.645   7.273  1.2257 -2.5255 -1.5968
  177SLPC  H13B20044   6.614   2.755   7.339  2.3342  2.8604 -3.0656
  177SLPC  H13C20045   6.531   2.787   7.182  0.5131  2.3551  1.6991
  177SLPC   C1420046   6.734   2.540   7.268 -0.4304 -0.9206 -0.4405
  177SLPC  H14A20047   6.662   2.468   7.304 -1.2768 -0.1185 -0.4746
  177SLPC  H14B20048   6.814   2.486   7.220 -0.4107 -0.6467 -0.7154
  177SLPC  H14C20049   6.761   2.586   7.362 -2.5800 -0.4616  0.0061
  177SLPC   C1520050   6.794   2.743   7.161 -0.2386 -0.5851  0.1115
  177SLPC  H15A20051   6.847   2.721   7.070  2.1487  1.0755  0.9965
  177SLPC  H15B20052   6.757   2.844   7.156  1.5328  0.1024  0.1496
  177SLPC  H15C20053   6.870   2.737   7.238 -0.6595 -1.4700  0.4779
  177SLPC   C1220054   6.640   2.586   7.046  0.2634 -0.5062 -0.0106
  177SLPC  H12A20055   6.566   2.511   7.067 -1.5004  0.7971 -1.2453
  177SLPC  H12B20056   6.722   2.532   7.001 -0.7374 -1.2874 -0.9310
  177SLPC   C1120057   6.579   2.688   6.949 -0.6153  0.3446 -0.2844
  177SLPC  H11A20058   6.562   2.651   6.846  1.7219  1.1707 -1.0259
  177SLPC  H11B20059   6.652   2.769   6.930  0.8688 -0.2102  2.4562
  177SLPC     P20060   6.322   2.667   6.975 -0.1929  0.3841  0.3024
  177SLPC   O1320061   6.339   2.529   7.028 -0.0110 -0.1407 -0.0522
  177SLPC   O1420062   6.220   2.745   7.035  0.1379  0.0775  0.5313
  177SLPC   O1220063   6.455   2.746   6.994 -0.2085 -0.2006  1.1780
  177SLPC   O1120064   6.301   2.651   6.814  1.0167  0.1725  0.1226
  177SLPC    C120065   6.328   2.759   6.718  0.4812 -0.3497  0.4153
  177SLPC    HA20066   6.427   2.806   6.734 -1.0630  2.9529  1.0431
  177SLPC    HB20067   6.320   2.710   6.619 -0.9678 -1.0036  0.8306
  177SLPC    C220068   6.212   2.858   6.709  0.1419 -0.6954  0.0295
  177SLPC    HS20069   6.208   2.896   6.813  1.4188 -1.3500  0.3341
  177SLPC   O2120070   6.088   2.790   6.671 -0.0373 -0.0361 -0.1824
  177SLPC   C2120071   5.976   2.861   6.698 -0.5372  0.1768  0.6419
  177SLPC   O2220072   5.967   2.970   6.752 -0.4777 -0.4701 -0.0927
  177SLPC   C2220073   5.859   2.787   6.643  0.1602 -0.0500  0.2915
  177SLPC   H2R20074   5.885   2.679   6.645 -1.0393 -0.3843  2.7191
  177SLPC   H2S20075   5.779   2.805   6.718  0.5058 -1.8275  1.1545
  177SLPC    C320076   6.258   2.983   6.618  0.4864 -0.4520 -0.5068
  177SLPC    HX20077   6.353   3.028   6.653  0.4937 -0.5750 -0.3677
  177SLPC    HY20078   6.183   3.064   6.629  1.3211  0.0093  2.7244
  177SLPC   O3120079   6.296   2.952   6.480  0.6433  0.6499 -0.5217
  177SLPC   C3120080   6.229   3.023   6.390 -0.6135 -0.0532 -0.6129
  177SLPC   O3220081   6.156   3.115   6.415 -0.5404 -0.2984  0.3662
  177SLPC   C3220082   6.248   2.961   6.251  0.1923 -0.4320  0.1689
  177SLPC   H2X20083   6.225   2.852   6.256  1.1120 -0.8919 -3.0364
  177SLPC   H2Y20084   6.357   2.964   6.230 -0.2540  1.9420 -2.3832
  177SLPC   C2320085   5.823   2.838   6.500 -0.1541 -0.1895  0.2733
  177SLPC   H3R20086   5.788   2.943   6.502  1.8482  0.5421 -0.5658
  177SLPC   H3S20087   5.738   2.776   6.465 -0.0702 -0.4506  0.5306
  177SLPC   C2420088   5.942   2.832   6.403 -0.5820  0.1603  0.1199
  177SLPC   H4R20089   6.034   2.791   6.450  1.6273  2.5315 -1.7631
  177SLPC   H4S20090   5.985   2.931   6.377 -1.8451  0.6387 -0.2132
  177SLPC   C2520091   5.916   2.746   6.274  0.9025  0.4231 -0.9163
  177SLPC   H5R20092   5.875   2.648   6.307  0.7085  1.4707  2.3567
  177SLPC   H5S20093   6.013   2.739   6.221  1.4964  4.1384 -0.6453
  177SLPC   C2620094   5.805   2.807   6.183 -0.0455 -0.4141  0.7126
  177SLPC   H6R20095   5.821   2.916   6.168 -2.0046 -0.1672  0.0355
  177SLPC   H6S20096   5.703   2.785   6.221 -0.5496 -0.8209 -0.8208
  177SLPC   C2720097   5.824   2.745   6.037  0.3829  0.1072  0.5526
  177SLPC   H7R20098   5.754   2.659   6.024  2.4346 -1.7486  1.2562
  177SLPC   H7S20099   5.927   2.704   6.035  0.6167  0.7024  0.2457
  177SLPC   C2820100   5.803   2.859   5.933  0.2616 -0.4572 -0.7184
  177SLPC   H8R20101   5.878   2.940   5.945 -1.1810  0.6925  1.0557
  177SLPC   H8S20102   5.707   2.907   5.962  0.6546  0.6733 -1.2485
  177SLPC   C2920103   5.777   2.807   5.787  0.3705 -0.2059 -0.4977
  177SLPC   H9R20104   5.790   2.699   5.775 -0.1357 -0.5083  1.3932
  177SLPC  C21020105   5.712   2.869   5.685 -0.3955 -0.9462  0.0669
  177SLPC  H10R20106   5.687   2.823   5.588 -0.8990 -1.0580  0.2430
  177SLPC  C21120107   5.686   3.022   5.685 -0.4318  0.1354 -0.0385
  177SLPC  H11R20108   5.727   3.066   5.591  0.2858  1.3535  0.8151
  177SLPC  H11S20109   5.747   3.074   5.761  2.1026 -1.7615 -0.6209
  177SLPC  C21220110   5.538   3.038   5.690 -0.0668 -0.8368  0.0538
  177SLPC  H12R20111   5.505   3.066   5.792  1.7613  0.3180  0.3648
  177SLPC  C21320112   5.446   3.033   5.591 -0.6541  0.7868 -0.2989
  177SLPC  H13R20113   5.338   3.040   5.614 -0.1804  1.4062  2.0009
  177SLPC  C21420114   5.478   2.987   5.451  0.0815  0.0490  0.1433
  177SLPC  H14R20115   5.581   2.945   5.447  0.9298  1.7950  1.9402
  177SLPC  H14S20116   5.469   3.075   5.383 -0.4610 -0.0250  0.1116
  177SLPC  C21520117   5.391   2.870   5.388  0.3034 -0.4316 -0.0996
  177SLPC  H15R20118   5.287   2.888   5.425  0.0114  0.3073 -1.2226
  177SLPC  H15S20119   5.425   2.770   5.420  1.6464 -0.3759 -1.2452
  177SLPC  C21620120   5.381   2.869   5.236  0.4156  0.7675 -0.3459
  177SLPC  H16R20121   5.484   2.840   5.205  0.0850  1.0746 -1.8020
  177SLPC  H16S20122   5.345   2.965   5.195 -0.0301  0.3691 -0.8905
  177SLPC  C21720123   5.280   2.768   5.178  0.3974  0.2741  0.3778
  177SLPC  H17R20124   5.187   2.771   5.239 -2.1854  0.4286 -3.1994
  177SLPC  H17S20125   5.323   2.666   5.185 -0.6634 -0.1980  0.1979
  177SLPC  C21820126   5.251   2.806   5.033  0.1007  0.4282  0.1583
  177SLPC  H18R20127   5.204   2.716   4.987  0.9056  0.5602 -0.9661
  177SLPC  H18S20128   5.347   2.837   4.987  0.8096 -0.3423  1.0884
  177SLPC  H18T20129   5.188   2.897   5.024  0.1043  0.4007 -0.1654
  177SLPC   C3320130   6.168   3.028   6.134 -0.5391 -0.0387 -0.0564
  177SLPC   H3X20131   6.214   3.126   6.105 -1.4985  0.5232  0.2838
  177SLPC   H3Y20132   6.063   3.042   6.166 -0.3746  0.4415  0.2930
  177SLPC   C3420133   6.182   2.934   6.013 -0.4743 -0.4676 -1.0255
  177SLPC   H4X20134   6.106   2.853   6.018  0.6350 -1.6209 -2.1965
  177SLPC   H4Y20135   6.277   2.877   6.017  0.0006  0.3521 -0.3662
  177SLPC   C3520136   6.157   3.009   5.884  0.1571  0.1731  0.3363
  177SLPC   H5X20137   6.243   3.076   5.860  0.6837  0.3443  2.5242
  177SLPC   H5Y20138   6.064   3.070   5.890  0.7594  1.1367  0.2464
  177SLPC   C3620139   6.139   2.917   5.756  0.4763 -0.5845 -0.3191
  177SLPC   H6X20140   6.050   2.855   5.782 -0.5628  1.1245  0.3774
  177SLPC   H6Y20141   6.227   2.853   5.740 -1.8964 -4.0026 -0.7558
  177SLPC   C3720142   6.106   2.992   5.632 -0.5669 -0.3362 -0.3730
  177SLPC   H7X20143   6.188   3.062   5.604 -0.2739  0.5527  2.4239
  177SLPC   H7Y20144   6.012   3.046   5.659 -0.2270 -0.3275  0.8291
  177SLPC   C3820145   6.071   2.913   5.510  0.6071 -0.4192  0.0223
  177SLPC   H8X20146   5.998   2.832   5.533  0.3085  0.2138  1.4356
  177SLPC   H8Y20147   6.164   2.859   5.485 -0.8650 -2.9700 -0.2605
  177SLPC   C3920148   5.999   2.995   5.406  0.3609  0.0864  0.2003
  177SLPC   H9X20149   6.077   3.060   5.359  1.0380  0.5239  1.8792
  177SLPC   H9Y20150   5.924   3.064   5.451 -0.1016  0.1297 -0.6004
  177SLPC  C31020151   5.926   2.918   5.298 -0.8341  0.2547 -0.6981
  177SLPC  H10X20152   5.862   2.837   5.339  0.1966 -0.4805 -0.5082
  177SLPC  H10Y20153   6.007   2.873   5.237 -0.1138 -0.3579  0.6588
  177SLPC  C31120154   5.858   3.015   5.208  0.6202 -0.3920 -0.6426
  177SLPC  H11X20155   5.933   3.087   5.167  0.6737 -0.3709 -0.5088
  177SLPC  H11Y20156   5.784   3.076   5.263  0.6812  0.3400 -1.3529
  177SLPC  C31220157   5.788   2.947   5.090  0.3156  0.3750  0.0074
  177SLPC  H12X20158   5.713   2.875   5.132 -0.6485  0.4582 -1.4909
  177SLPC  H12Y20159   5.857   2.875   5.040  2.2151  1.6033  0.7596
  177SLPC  C31320160   5.730   3.049   4.989 -0.8079 -0.5751 -0.6584
  177SLPC  H13X20161   5.805   3.101   4.925  0.7727  0.8085  2.1299
  177SLPC  H13Y20162   5.690   3.139   5.040 -0.9844  0.5704 -2.7185
  177SLPC  C31420163   5.632   2.973   4.899  0.3454 -0.0526 -0.3004
  177SLPC  H14X20164   5.555   2.926   4.964  0.3297  1.2917  0.7040
  177SLPC  H14Y20165   5.698   2.898   4.849 -1.0434 -1.3377 -0.2645
  177SLPC  C31520166   5.556   3.057   4.792  0.3656 -0.6465  0.2983
  177SLPC  H15X20167   5.635   3.101   4.728  0.9816 -1.1383  0.7010
  177SLPC  H15Y20168   5.499   3.138   4.841  0.1351  0.2767 -1.4171
  177SLPC  C31620169   5.451   2.976   4.710  0.3283 -0.3804  0.6344
  177SLPC  H16X20170   5.406   3.040   4.631  0.8351 -0.4016  0.3193
  177SLPC  H16Y20171   5.382   2.967   4.796 -0.7144  1.3845  0.0400
  177SLPC  C31720172   5.511   2.851   4.642  0.5331  0.1289 -0.2603
  177SLPC  H17X20173   5.579   2.795   4.709  0.6305  0.4226 -0.1120
  177SLPC  H17Y20174   5.569   2.877   4.550 -0.1132 -0.9941 -1.0135
  177SLPC  C31820175   5.409   2.744   4.585  0.9711 -0.0130  0.0261
  177SLPC  H18X20176   5.458   2.655   4.540  2.3369 -0.1053  1.6127
  177SLPC  H18Y20177   5.353   2.803   4.509  0.1010 -1.7164 -0.7222
  177SLPC  H18Z20178   5.343   2.712   4.669 -1.4978  0.0902 -1.7626
  178SLPC     N20179   2.778   0.641   6.812  0.1873 -0.5189  0.3828
  178SLPC   C1320180   2.719   0.501   6.821  0.3319 -0.3591 -0.0437
  178SLPC  H13A20181   2.797   0.427   6.825  0.9264  0.2391  3.7907
  178SLPC  H13B20182   2.653   0.481   6.905 -1.6332 -2.3795 -1.9549
  178SLPC  H13C20183   2.662   0.492   6.730 -1.1925 -1.1449  0.9550
  178SLPC   C1420184   2.855   0.669   6.940  0.1882 -0.7199 -0.1112
  178SLPC  H14A20185   2.930   0.595   6.965  1.3631  0.4707  0.0236
  178SLPC  H14B20186   2.894   0.770   6.941 -1.0201 -0.2398 -0.2060
  178SLPC  H14C20187   2.782   0.671   7.020 -1.4992  1.1239 -1.6013
  178SLPC   C1520188   2.670   0.743   6.794 -0.2839  0.4983  0.4949
  178SLPC  H15A20189   2.607   0.719   6.710 -1.0311 -1.5702  1.5698
  178SLPC  H15B20190   2.603   0.759   6.877 -0.3796 -0.6190  0.6511
  178SLPC  H15C20191   2.701   0.844   6.774  0.0805  0.4675  0.8831
  178SLPC   C1220192   2.881   0.660   6.699 -0.2408  0.2079 -0.1213
  178SLPC  H12A20193   2.968   0.597   6.710  0.7704  1.5820 -0.0145
  178SLPC  H12B20194   2.918   0.761   6.708 -0.6414  0.2163  2.1338
  178SLPC   C1120195   2.836   0.647   6.551  0.1627 -0.1103  0.2324
  178SLPC  H11A20196   2.807   0.539   6.546  1.7286 -0.5397 -0.1051
  178SLPC  H11B20197   2.924   0.660   6.485  0.6537 -0.7283  0.7529
  178SLPC     P20198   2.741   0.850   6.425 -0.3228  0.0948  0.6892
  178SLPC   O1320199   2.611   0.926   6.401  0.0234 -0.0486  0.1257
  178SLPC   O1420200   2.851   0.931   6.473 -0.1180  0.4167 -0.0185
  178SLPC   O1220201   2.720   0.728   6.520 -0.2058 -0.6991 -0.3820
  178SLPC   O1120202   2.792   0.780   6.294 -0.2304  0.2205 -0.5505
  178SLPC    C120203   2.704   0.691   6.226  0.4463  0.2756  0.4131
  178SLPC    HA20204   2.726   0.588   6.262  0.2452  0.1781  0.2587
  178SLPC    HB20205   2.597   0.709   6.248 -0.4721 -2.1202 -1.5551
  178SLPC    C220206   2.714   0.703   6.070  0.5423 -0.2488 -0.3896
  178SLPC    HS20207   2.623   0.656   6.027  0.4299  0.4838 -0.9657
  178SLPC   O2120208   2.825   0.633   6.022  0.1785  0.2553 -0.1148
  178SLPC   C2120209   2.829   0.598   5.885 -0.2083  0.3926  0.2702
  178SLPC   O2220210   2.735   0.609   5.810 -0.3352  0.1469  0.6527
  178SLPC   C2220211   2.968   0.537   5.862  1.2216  0.3584 -0.0420
  178SLPC   H2R20212   3.036   0.625   5.866  1.0059  0.5418 -0.4085
  178SLPC   H2S20213   2.982   0.461   5.942  0.7776 -1.3499 -1.5341
  178SLPC    C320214   2.722   0.853   6.030  0.8642  0.2427  0.0621
  178SLPC    HX20215   2.814   0.898   6.074  0.4893  1.4364 -0.3379
  178SLPC    HY20216   2.642   0.919   6.070  1.1451 -0.0208  1.1095
  178SLPC   O3120217   2.744   0.868   5.890 -0.0685 -0.4458 -0.0787
  178SLPC   C3120218   2.730   0.998   5.856  0.1322 -0.2551  0.3335
  178SLPC   O3220219   2.704   1.089   5.934 -0.6849  0.6787  0.0022
  178SLPC   C3220220   2.753   1.015   5.706 -1.1436  0.1189  0.2710
  178SLPC   H2X20221   2.667   0.955   5.669  0.4244 -1.3687 -1.1730
  178SLPC   H2Y20222   2.843   0.950   5.690 -0.7291  0.8696 -0.5031
  178SLPC   C2320223   2.985   0.454   5.731  0.2543 -0.1144  0.1360
  178SLPC   H3R20224   2.887   0.408   5.709  0.3966 -0.1232 -0.4850
  178SLPC   H3S20225   3.067   0.381   5.748 -0.1363 -0.4412  0.6505
  178SLPC   C2420226   3.022   0.548   5.614 -0.4842 -0.8493 -0.3885
  178SLPC   H4R20227   3.133   0.556   5.620 -0.3563 -1.0049 -2.0106
  178SLPC   H4S20228   2.993   0.654   5.633  0.8290 -0.8654  2.0985
  178SLPC   C2520229   2.988   0.501   5.474 -0.7767  0.8867  0.9855
  178SLPC   H5R20230   3.023   0.395   5.468  0.8950  1.4272  0.5431
  178SLPC   H5S20231   3.040   0.562   5.398 -1.1899  1.0438  0.8299
  178SLPC   C2620232   2.839   0.504   5.440 -0.0501  0.3423 -0.3690
  178SLPC   H6R20233   2.788   0.435   5.511  1.9390 -1.4288 -0.5605
  178SLPC   H6S20234   2.825   0.469   5.336 -0.9849  0.4699 -0.2979
  178SLPC   C2720235   2.782   0.648   5.451 -0.0924 -0.6746  0.1922
  178SLPC   H7R20236   2.842   0.724   5.397  2.2760 -1.9533  0.8727
  178SLPC   H7S20237   2.801   0.685   5.555 -4.7019  0.6509  0.7872
  178SLPC   C2820238   2.632   0.670   5.411 -0.2760 -0.4264  0.9508
  178SLPC   H8R20239   2.567   0.603   5.473 -0.6371 -2.3447 -1.3551
  178SLPC   H8S20240   2.607   0.626   5.312 -0.3053 -1.8231  1.5499
  178SLPC   C2920241   2.586   0.815   5.398  0.3897 -1.4418  0.0270
  178SLPC   H9R20242   2.553   0.868   5.488  1.3586  1.0934 -1.0258
  178SLPC  C21020243   2.599   0.900   5.290 -0.4069  0.1734 -0.0106
  178SLPC  H10R20244   2.576   1.006   5.307  3.9665  1.1332  1.4368
  178SLPC  C21120245   2.671   0.865   5.164 -0.9949 -0.0156  0.2800
  178SLPC  H11R20246   2.591   0.840   5.091 -3.0224  0.9403  2.0900
  178SLPC  H11S20247   2.734   0.774   5.175  0.8890  1.2993  0.8621
  178SLPC  C21220248   2.765   0.970   5.105  0.2811  0.1236 -0.1362
  178SLPC  H12R20249   2.852   0.988   5.170 -0.1468 -0.7331  0.6989
  178SLPC  C21320250   2.740   1.051   5.004  0.3797 -0.2971 -0.1910
  178SLPC  H13R20251   2.824   1.119   4.986  1.3589 -0.8784  1.9058
  178SLPC  C21420252   2.619   1.053   4.910  0.1168 -0.1328 -0.0797
  178SLPC  H14R20253   2.524   1.015   4.953 -0.7184  1.3465 -0.5674
  178SLPC  H14S20254   2.642   0.988   4.822  0.1425 -0.4613  0.1660
  178SLPC  C21520255   2.582   1.191   4.848 -0.2033 -0.5830  0.1149
  178SLPC  H15R20256   2.673   1.239   4.805 -1.9874  2.1008 -0.8919
  178SLPC  H15S20257   2.563   1.262   4.931 -0.6375  0.2039 -0.6372
  178SLPC  C21620258   2.470   1.193   4.745  0.9784  0.9210 -0.4460
  178SLPC  H16R20259   2.370   1.198   4.793  0.1991 -1.9174 -1.5498
  178SLPC  H16S20260   2.467   1.097   4.688 -0.0165  0.2919  0.6417
  178SLPC  C21720261   2.464   1.316   4.655  0.1471 -0.5120  0.3065
  178SLPC  H17R20262   2.569   1.326   4.618 -0.3205 -0.2487 -1.0224
  178SLPC  H17S20263   2.436   1.412   4.704 -0.1756 -0.5632  0.2220
  178SLPC  C21820264   2.371   1.317   4.530 -0.2242  0.2961  0.0715
  178SLPC  H18R20265   2.376   1.418   4.484 -3.1591  1.0378  1.1045
  178SLPC  H18S20266   2.268   1.293   4.565 -0.4658  0.6236 -0.4080
  178SLPC  H18T20267   2.400   1.240   4.456  1.5178 -0.3189  1.3269
  178SLPC   C3320268   2.791   1.155   5.666  0.8710 -0.7161  0.5467
  178SLPC   H3X20269   2.887   1.194   5.706  0.3614  0.0861  1.0091
  178SLPC   H3Y20270   2.709   1.224   5.696  0.0224 -1.8802  0.9939
  178SLPC   C3420271   2.794   1.170   5.516 -0.8170  0.7334  0.4423
  178SLPC   H4X20272   2.697   1.142   5.470 -0.7390 -0.0577  0.7497
  178SLPC   H4Y20273   2.874   1.104   5.475 -1.0003  1.0235 -0.4009
  178SLPC   C3520274   2.827   1.312   5.473  0.0232 -0.5567  0.5306
  178SLPC   H5X20275   2.921   1.342   5.524  0.2654 -1.6952  0.7898
  178SLPC   H5Y20276   2.744   1.376   5.510  0.2798 -0.0419  0.2134
  178SLPC   C3620277   2.844   1.324   5.320 -0.2781  0.5209 -0.1610
  178SLPC   H6X20278   2.906   1.239   5.284 -0.8513  0.9159 -2.2064
  178SLPC   H6Y20279   2.917   1.408   5.311  0.4423  0.0730  1.1891
  178SLPC   C3720280   2.713   1.354   5.253 -0.7868  0.7061  0.2875
  178SLPC   H7X20281   2.650   1.408   5.327 -1.2136  0.2641  0.2527
  178SLPC   H7Y20282   2.658   1.260   5.231 -0.9447  0.4757  1.5724
  178SLPC   C3820283   2.735   1.450   5.129  1.1424 -0.2365 -0.6588
  178SLPC   H8X20284   2.771   1.405   5.034  0.5711 -1.1955 -0.4339
  178SLPC   H8Y20285   2.805   1.529   5.164  0.6038  0.1367 -0.4093
  178SLPC   C3920286   2.612   1.536   5.089  0.4306 -0.2537  0.5458
  178SLPC   H9X20287   2.575   1.590   5.179  2.2357  0.3225  0.9910
  178SLPC   H9Y20288   2.533   1.469   5.048  0.1522 -0.5975  1.6310
  178SLPC  C31020289   2.663   1.642   4.988 -0.8316  0.4284 -0.6567
  178SLPC  H10X20290   2.766   1.674   5.013 -1.0208  1.0220 -0.6201
  178SLPC  H10Y20291   2.596   1.729   5.001 -1.1496  0.0112  0.7607
  178SLPC  C31120292   2.652   1.591   4.847 -0.8884 -0.2269  0.5161
  178SLPC  H11X20293   2.547   1.561   4.828 -0.2831 -0.8576 -2.1771
  178SLPC  H11Y20294   2.719   1.502   4.848 -0.4851  0.0641 -0.0123
  178SLPC  C31220295   2.698   1.686   4.738 -0.3180 -1.1048 -0.3651
  178SLPC  H12X20296   2.807   1.704   4.739 -0.7202  1.7709 -0.5847
  178SLPC  H12Y20297   2.661   1.789   4.753  0.8442 -0.9402  1.6796
  178SLPC  C31320298   2.657   1.653   4.588 -0.2425 -0.8310  0.4457
  178SLPC  H13X20299   2.549   1.675   4.574 -0.6297 -1.8686  1.5842
  178SLPC  H13Y20300   2.674   1.547   4.560  1.2023 -0.0745 -1.7247
  178SLPC  C31420301   2.727   1.743   4.498  0.0599 -0.4615 -0.3612
  178SLPC  H14X20302   2.836   1.726   4.511 -0.2008 -0.3891  2.6699
  178SLPC  H14Y20303   2.694   1.843   4.534  0.8875 -0.6180  0.9052
  178SLPC  C31520304   2.680   1.718   4.356  0.4045  0.5017 -0.3070
  178SLPC  H15X20305   2.708   1.800   4.287  0.0771  0.3679 -0.6046
  178SLPC  H15Y20306   2.569   1.712   4.352  0.3879  1.1383 -1.0633
  178SLPC  C31620307   2.722   1.589   4.292 -0.2728  0.0051 -0.3042
  178SLPC  H16X20308   2.756   1.518   4.370 -3.5544 -2.9373 -1.2743
  178SLPC  H16Y20309   2.810   1.590   4.224  0.2825 -1.6676  0.3485
  178SLPC  C31720310   2.611   1.526   4.209  0.6315  0.3234  0.3508
  178SLPC  H17X20311   2.533   1.507   4.286  1.5237 -1.9565  0.8087
  178SLPC  H17Y20312   2.661   1.433   4.172 -1.8806 -0.5752 -0.9872
  178SLPC  C31820313   2.556   1.621   4.092  0.4640  0.6993  0.3048
  178SLPC  H18X20314   2.628   1.610   4.008 -0.3478  0.9972 -0.4483
  178SLPC  H18Y20315   2.552   1.728   4.121  2.3236  1.3743 -1.6525
  178SLPC  H18Z20316   2.460   1.575   4.058  1.8413 -3.3331  1.2801
  179SLPC     N20317   6.653   3.669   2.239  0.5345  0.4576  0.3375
  179SLPC   C1320318   6.754   3.582   2.305  0.4232  0.4618  0.3578
  179SLPC  H13A20319   6.834   3.544   2.243  0.6606 -3.2557  2.6068
  179SLPC  H13B20320   6.803   3.641   2.381  3.3033  0.3282 -1.2403
  179SLPC  H13C20321   6.691   3.501   2.338 -1.0896  0.5298 -2.1363
  179SLPC   C1420322   6.614   3.605   2.108 -0.2077 -0.0057 -0.5315
  179SLPC  H14A20323   6.547   3.663   2.047 -0.7903  2.8326  2.5519
  179SLPC  H14B20324   6.702   3.603   2.046  1.5250  0.8291  1.7595
  179SLPC  H14C20325   6.580   3.502   2.110 -0.2080 -0.0198 -1.0135
  179SLPC   C1520326   6.718   3.800   2.201  1.2494 -0.2384  0.0985
  179SLPC  H15A20327   6.816   3.786   2.159  0.5456  0.2602 -1.8272
  179SLPC  H15B20328   6.667   3.850   2.120  0.3748 -1.2182  0.0152
  179SLPC  H15C20329   6.721   3.868   2.285 -0.1162 -1.4827  1.2210
  179SLPC   C1220330   6.522   3.695   2.317  0.0022  0.5310  0.1179
  179SLPC  H12A20331   6.450   3.616   2.306 -0.1073  0.5699  0.5693
  179SLPC  H12B20332   6.477   3.779   2.265  0.5057  0.1646 -0.9346
  179SLPC   C1120333   6.550   3.753   2.461  0.2122 -0.1490 -0.0575
  179SLPC  H11A20334   6.619   3.682   2.513  0.3611  0.4349  0.5515
  179SLPC  H11B20335   6.454   3.751   2.517 -0.2276  1.4443 -0.6920
  179SLPC     P20336   6.536   4.010   2.522 -0.2701 -0.2864  0.0210
  179SLPC   O1320337   6.612   4.124   2.474 -0.4311 -0.1239 -0.1556
  179SLPC   O1420338   6.391   4.011   2.493 -0.0776 -0.1180  0.6858
  179SLPC   O1220339   6.608   3.884   2.458  0.0049  0.1069 -0.7302
  179SLPC   O1120340   6.549   3.988   2.682  0.6220 -0.0570  0.1585
  179SLPC    C120341   6.666   3.930   2.745 -0.6520 -0.3437 -0.2283
  179SLPC    HA20342   6.638   3.866   2.831  0.5057 -0.9394 -0.2744
  179SLPC    HB20343   6.715   3.863   2.672 -2.5339 -1.1545 -0.8200
  179SLPC    C220344   6.763   4.032   2.805 -0.4662 -0.1476  0.0228
  179SLPC    HS20345   6.845   3.974   2.853 -0.9423 -0.4319  0.5031
  179SLPC   O2120346   6.696   4.112   2.904  0.0082 -0.5115  0.4437
  179SLPC   C2120347   6.674   4.064   3.020  0.0088  0.1098 -0.6768
  179SLPC   O2220348   6.707   3.953   3.058 -0.2321 -0.1636 -0.5035
  179SLPC   C2220349   6.601   4.166   3.105 -0.0447  0.1599  0.4941
  179SLPC   H2R20350   6.665   4.256   3.112  0.0573  0.1554 -0.3108
  179SLPC   H2S20351   6.510   4.196   3.049 -0.5768 -0.3647  1.0562
  179SLPC    C320352   6.833   4.127   2.705 -0.0834  0.0387 -0.0365
  179SLPC    HX20353   6.753   4.167   2.638 -0.4470 -1.7771 -0.7322
  179SLPC    HY20354   6.902   4.073   2.637 -0.1339 -0.2576  0.1461
  179SLPC   O3120355   6.899   4.240   2.765 -0.4017  0.9860 -0.2102
  179SLPC   C3120356   7.024   4.219   2.817  0.7542 -0.3502  0.7246
  179SLPC   O3220357   7.098   4.130   2.790 -0.0650  1.2016 -0.2328
  179SLPC   C3220358   7.046   4.333   2.911  0.4497 -0.7300  0.0582
  179SLPC   H2X20359   7.006   4.426   2.864  1.2216 -1.3842 -2.0003
  179SLPC   H2Y20360   7.156   4.342   2.915  0.4918 -1.3769  0.4066
  179SLPC   C2320361   6.545   4.114   3.243 -0.1792 -0.1101  0.1973
  179SLPC   H3R20362   6.516   4.007   3.236 -1.0324 -0.0456  2.0406
  179SLPC   H3S20363   6.455   4.173   3.269 -0.6479 -1.1315  0.9332
  179SLPC   C2420364   6.660   4.125   3.347 -0.1340 -0.5677  0.2594
  179SLPC   H4R20365   6.696   4.229   3.357 -1.2289 -0.1839  0.3431
  179SLPC   H4S20366   6.753   4.070   3.323  0.2173 -1.3600  3.0583
  179SLPC   C2520367   6.616   4.063   3.486 -0.2407 -0.4488 -0.0631
  179SLPC   H5R20368   6.591   3.958   3.459 -1.9281 -0.4881  1.4920
  179SLPC   H5S20369   6.523   4.118   3.511  0.7607  0.1203  2.6784
  179SLPC   C2620370   6.727   4.092   3.598  0.7559 -0.1122 -0.5164
  179SLPC   H6R20371   6.745   4.201   3.610  1.0381  0.2846 -3.5398
  179SLPC   H6S20372   6.823   4.043   3.575  2.6495  2.7252  0.8141
  179SLPC   C2720373   6.665   4.047   3.728  0.6405  0.4607  0.1807
  179SLPC   H7R20374   6.617   3.948   3.710  1.5159  0.0131  0.2410
  179SLPC   H7S20375   6.580   4.117   3.741  0.1641 -0.0748 -0.0210
  179SLPC   C2820376   6.755   4.033   3.848 -0.9173  0.7000  0.4870
  179SLPC   H8R20377   6.844   3.969   3.830 -2.1644 -0.5189 -1.9956
  179SLPC   H8S20378   6.699   3.979   3.927 -0.1882 -1.2298 -0.2430
  179SLPC   C2920379   6.801   4.169   3.887 -0.0823 -0.0863  0.5262
  179SLPC   H9R20380   6.837   4.221   3.796  0.7242 -1.8365 -0.1943
  179SLPC  C21020381   6.780   4.219   4.013 -0.2670 -0.4065  0.1846
  179SLPC  H10R20382   6.794   4.326   4.032  2.5924 -0.8752  1.2775
  179SLPC  C21120383   6.726   4.156   4.140  0.3934  0.0870 -0.3020
  179SLPC  H11R20384   6.791   4.201   4.219  1.4188 -1.8006 -0.0033
  179SLPC  H11S20385   6.748   4.047   4.144 -0.9641 -0.1815  0.8396
  179SLPC  C21220386   6.581   4.179   4.169 -0.4222  0.2341  0.1358
  179SLPC  H12R20387   6.516   4.220   4.090 -1.0928 -0.7314  0.1702
  179SLPC  C21320388   6.509   4.128   4.274  0.1420 -0.4820 -0.3962
  179SLPC  H13R20389   6.399   4.138   4.270  0.2488  0.3955 -1.4838
  179SLPC  C21420390   6.567   4.055   4.392  0.4459 -0.6946  0.3968
  179SLPC  H14R20391   6.583   4.127   4.475  2.2095  0.0129 -0.5104
  179SLPC  H14S20392   6.662   4.003   4.366 -0.4665 -1.7725 -0.9429
  179SLPC  C21520393   6.458   3.962   4.454  0.1485 -0.4405 -0.3413
  179SLPC  H15R20394   6.440   3.883   4.379  0.7610 -0.0193 -0.9448
  179SLPC  H15S20395   6.360   4.013   4.463 -1.0861 -2.5309 -1.1441
  179SLPC  C21620396   6.496   3.910   4.599 -0.5912 -0.2942  0.4486
  179SLPC  H16R20397   6.506   3.989   4.677 -3.4401 -0.1760  0.8113
  179SLPC  H16S20398   6.592   3.856   4.592 -0.1169  0.5748  0.1195
  179SLPC  C21720399   6.402   3.811   4.656  0.1479  0.5316  0.1791
  179SLPC  H17R20400   6.386   3.718   4.596  1.0437  0.6669 -0.2978
  179SLPC  H17S20401   6.299   3.851   4.664 -0.5588 -1.0729 -0.3993
  179SLPC  C21820402   6.444   3.760   4.801 -0.1177  0.3402  0.2167
  179SLPC  H18R20403   6.380   3.673   4.824 -0.9705  0.4794 -1.5010
  179SLPC  H18S20404   6.417   3.833   4.881 -0.5463 -2.0549  2.4136
  179SLPC  H18T20405   6.553   3.738   4.813  0.0720 -0.2386 -2.2177
  179SLPC   C3320406   6.987   4.311   3.058 -0.8154 -0.0172 -0.5661
  179SLPC   H3X20407   7.037   4.220   3.097 -0.5170 -0.6096 -2.2511
  179SLPC   H3Y20408   6.877   4.300   3.047 -0.7826 -0.0052 -0.9021
  179SLPC   C3420409   7.007   4.439   3.144 -0.2795  0.2735  0.4086
  179SLPC   H4X20410   6.955   4.516   3.083 -1.8978  0.3498  1.8184
  179SLPC   H4Y20411   7.117   4.458   3.142 -0.1626 -0.3311  0.9441
  179SLPC   C3520412   6.953   4.442   3.285 -0.2617  0.0513 -0.1883
  179SLPC   H5X20413   6.977   4.538   3.336 -0.5437  1.0141 -1.8008
  179SLPC   H5Y20414   6.843   4.429   3.285 -0.2152 -1.3935  3.0814
  179SLPC   C3620415   7.001   4.336   3.384 -0.7573 -0.7825 -0.0981
  179SLPC   H6X20416   7.112   4.339   3.390 -0.7708  0.1560 -0.0828
  179SLPC   H6Y20417   6.991   4.236   3.337  1.9533 -0.7358 -0.9542
  179SLPC   C3720418   6.939   4.368   3.523 -0.4756 -0.3139  0.6495
  179SLPC   H7X20419   6.963   4.279   3.586 -0.0632 -0.9888 -0.4422
  179SLPC   H7Y20420   6.830   4.370   3.502 -0.7831 -2.0509  1.8500
  179SLPC   C3820421   7.009   4.484   3.601 -0.2667 -0.1810  0.0804
  179SLPC   H8X20422   7.018   4.569   3.529  1.1958 -1.8756 -1.8361
  179SLPC   H8Y20423   7.114   4.449   3.608 -0.1750 -0.4187 -1.9444
  179SLPC   C3920424   6.931   4.513   3.727  0.7091  0.7892  0.7858
  179SLPC   H9X20425   6.942   4.433   3.803 -0.6669  0.4142  0.6165
  179SLPC   H9Y20426   6.824   4.518   3.694  0.7683 -0.7605  0.2710
  179SLPC  C31020427   6.972   4.642   3.802 -0.2274 -0.9653  0.3064
  179SLPC  H10X20428   6.929   4.739   3.769 -0.4351 -0.5922  1.6088
  179SLPC  H10Y20429   7.082   4.653   3.785 -0.4941  0.1293 -0.8996
  179SLPC  C31120430   6.984   4.635   3.951 -0.0772  0.3270 -0.5098
  179SLPC  H11X20431   7.057   4.712   3.985  1.1863 -0.8109 -0.5552
  179SLPC  H11Y20432   7.026   4.537   3.983  0.6941  0.8579  0.1203
  179SLPC  C31220433   6.853   4.659   4.032 -0.2857 -0.2013  0.3521
  179SLPC  H12X20434   6.761   4.606   4.002  0.1980 -2.0701  1.9802
  179SLPC  H12Y20435   6.822   4.763   4.006  0.5021  0.1129  0.6391
  179SLPC  C31320436   6.872   4.644   4.184 -0.6496 -0.7203  0.1078
  179SLPC  H13X20437   6.790   4.696   4.238 -0.5106 -0.4580  0.0725
  179SLPC  H13Y20438   6.965   4.701   4.207  0.3920 -0.3307 -4.1306
  179SLPC  C31420439   6.870   4.500   4.242  0.4111 -0.4984 -0.0498
  179SLPC  H14X20440   6.950   4.442   4.191  1.4718 -0.1280  1.1419
  179SLPC  H14Y20441   6.776   4.455   4.202 -0.2742  1.0459 -0.2369
  179SLPC  C31520442   6.890   4.501   4.391 -0.0362 -0.6963 -0.2108
  179SLPC  H15X20443   6.813   4.569   4.434  1.3088  1.3461 -0.8952
  179SLPC  H15Y20444   6.992   4.540   4.415 -0.1649  0.1260 -0.9403
  179SLPC  C31620445   6.890   4.361   4.448 -0.5588 -0.0507 -0.0758
  179SLPC  H16X20446   6.968   4.305   4.392 -0.9987  1.3407 -2.1653
  179SLPC  H16Y20447   6.791   4.314   4.433 -0.7630  0.6057 -0.7966
  179SLPC  C31720448   6.908   4.364   4.602 -0.6402  0.1128 -0.1708
  179SLPC  H17X20449   6.901   4.261   4.644  2.1878  0.2235  0.7556
  179SLPC  H17Y20450   6.822   4.417   4.648  0.1817  0.9983  0.3780
  179SLPC  C31820451   7.042   4.424   4.659  0.1200 -0.7016  0.0152
  179SLPC  H18X20452   7.039   4.449   4.767  0.5940 -2.7214  0.5423
  179SLPC  H18Y20453   7.053   4.522   4.608 -1.0101 -1.6869 -2.2551
  179SLPC  H18Z20454   7.131   4.358   4.651 -0.0951 -0.7451 -2.7112
  180SLPC     N20455   1.593   0.771   1.777 -0.3046  0.1617 -0.2010
  180SLPC   C1320456   1.652   0.909   1.785 -0.4473  0.0725 -0.6703
  180SLPC  H13A20457   1.623   0.979   1.707 -2.2245  0.8569  0.6375
  180SLPC  H13B20458   1.636   0.958   1.880  3.1726 -0.1872  0.2026
  180SLPC  H13C20459   1.760   0.914   1.788 -0.4714  0.0224  1.2598
  180SLPC   C1420460   1.610   0.724   1.638 -0.0541 -0.3653 -0.5270
  180SLPC  H14A20461   1.718   0.713   1.633  0.0404 -0.2152  0.8547
  180SLPC  H14B20462   1.561   0.628   1.635  0.5034 -0.9059  3.2102
  180SLPC  H14C20463   1.581   0.786   1.555  0.5878 -1.2920 -1.4806
  180SLPC   C1520464   1.446   0.782   1.802 -0.5172 -1.0540 -0.0132
  180SLPC  H15A20465   1.431   0.795   1.908 -1.4955 -0.5284 -0.2059
  180SLPC  H15B20466   1.405   0.866   1.748 -1.8811 -0.9542  1.1321
  180SLPC  H15C20467   1.389   0.694   1.776  0.5161 -1.5469 -0.6865
  180SLPC   C1220468   1.660   0.685   1.883  0.7002 -0.4199 -0.0655
  180SLPC  H12A20469   1.762   0.683   1.845 -0.2222  0.2420 -2.7866
  180SLPC  H12B20470   1.627   0.584   1.871  1.9680 -0.6676 -1.9296
  180SLPC   C1120471   1.665   0.735   2.029 -0.0254 -0.2999 -0.1901
  180SLPC  H11A20472   1.708   0.837   2.024 -0.9939  0.1293 -0.1116
  180SLPC  H11B20473   1.731   0.678   2.097 -0.1502  0.7794  0.8596
  180SLPC     P20474   1.464   0.614   2.137 -0.1614 -0.3581  0.3644
  180SLPC   O1320475   1.330   0.656   2.176 -0.3494  0.0354  0.2229
  180SLPC   O1420476   1.479   0.508   2.037  0.0289 -0.0908  0.0837
  180SLPC   O1220477   1.533   0.747   2.081  0.5408 -0.2820  0.0292
  180SLPC   O1120478   1.558   0.587   2.267  0.3976 -0.9905  0.5996
  180SLPC    C120479   1.570   0.685   2.375 -0.0980  0.3824  0.1090
  180SLPC    HA20480   1.657   0.751   2.355 -2.0116  3.8926  2.3908
  180SLPC    HB20481   1.490   0.762   2.368  2.2531  2.8189 -2.1153
  180SLPC    C220482   1.572   0.611   2.514  1.2199 -0.7061  0.2716
  180SLPC    HS20483   1.589   0.696   2.584  1.1434 -0.0534 -0.4820
  180SLPC   O2120484   1.686   0.522   2.513  0.1090  0.0211 -0.9359
  180SLPC   C2120485   1.737   0.499   2.631 -0.3967  1.1773 -0.7042
  180SLPC   O2220486   1.704   0.546   2.737  0.6301 -0.5927  0.6892
  180SLPC   C2220487   1.852   0.398   2.610  0.2779 -0.2030  0.3745
  180SLPC   H2R20488   1.812   0.295   2.616  0.0332 -0.1053  0.4410
  180SLPC   H2S20489   1.898   0.413   2.511 -0.4345  0.5558  0.1440
  180SLPC    C320490   1.436   0.533   2.543 -0.2314  0.0707 -0.3158
  180SLPC    HX20491   1.426   0.446   2.475  0.5767 -1.3850  1.3544
  180SLPC    HY20492   1.347   0.590   2.508 -1.4568 -2.0920 -0.8423
  180SLPC   O3120493   1.436   0.488   2.684 -0.0448 -0.3807 -0.3972
  180SLPC   C3120494   1.414   0.594   2.767  0.9552  0.1336  0.5313
  180SLPC   O3220495   1.372   0.703   2.721 -0.1909 -0.3007 -0.4743
  180SLPC   C3220496   1.402   0.548   2.911  0.0824  0.0034  0.4027
  180SLPC   H2X20497   1.383   0.635   2.978  2.4926  1.9062 -1.1979
  180SLPC   H2Y20498   1.498   0.499   2.940 -1.0599 -2.6811 -0.0348
  180SLPC   C2320499   1.969   0.418   2.712  1.0630  0.0624  0.2264
  180SLPC   H3R20500   1.923   0.420   2.813 -0.8662 -1.7437 -0.5441
  180SLPC   H3S20501   2.010   0.521   2.702  0.0347  0.5805  1.2014
  180SLPC   C2420502   2.071   0.311   2.720  0.3288 -0.2533 -0.6812
  180SLPC   H4R20503   2.139   0.307   2.632 -2.0341  0.3697 -2.6404
  180SLPC   H4S20504   2.038   0.207   2.737  2.7261 -1.0858 -0.7159
  180SLPC   C2520505   2.177   0.325   2.826 -0.6429 -0.1089  0.1328
  180SLPC   H5R20506   2.218   0.424   2.796 -0.0619 -0.1435  0.8070
  180SLPC   H5S20507   2.263   0.256   2.816 -0.4276 -0.4233  3.1935
  180SLPC   C2620508   2.120   0.323   2.967  0.1207 -0.7429  0.0762
  180SLPC   H6R20509   2.081   0.221   2.988 -0.4210 -0.9573 -1.8038
  180SLPC   H6S20510   2.035   0.394   2.972 -0.5267 -1.1376 -2.9791
  180SLPC   C2720511   2.216   0.347   3.083 -0.2673 -0.9126 -0.0909
  180SLPC   H7R20512   2.276   0.438   3.060 -1.0071 -0.3709  0.0505
  180SLPC   H7S20513   2.300   0.276   3.091  0.6569  0.2054  0.3363
  180SLPC   C2820514   2.152   0.338   3.224  0.0992 -0.6541 -0.6781
  180SLPC   H8R20515   2.125   0.231   3.241  2.6038 -1.1886  0.3726
  180SLPC   H8S20516   2.064   0.405   3.228 -1.1931 -2.3098 -0.2856
  180SLPC   C2920517   2.246   0.387   3.334  0.4637  0.2895  0.2958
  180SLPC   H9R20518   2.332   0.442   3.293  1.3931 -3.2042 -3.1553
  180SLPC  C21020519   2.249   0.350   3.465  0.2599  0.6842 -0.0126
  180SLPC  H10R20520   2.334   0.389   3.523  2.2457 -0.5077 -1.9851
  180SLPC  C21120521   2.153   0.270   3.545 -0.2998 -0.4832 -0.6660
  180SLPC  H11R20522   2.205   0.180   3.583  0.5654  0.3266  0.1272
  180SLPC  H11S20523   2.064   0.249   3.482 -3.6588  1.3918  2.9257
  180SLPC  C21220524   2.091   0.356   3.652 -0.0514 -0.7744 -0.7427
  180SLPC  H12R20525   2.012   0.423   3.615 -0.7125  0.2072  2.1444
  180SLPC  C21320526   2.122   0.366   3.789  0.4092  0.9206 -1.1074
  180SLPC  H13R20527   2.078   0.438   3.859 -1.8829 -0.7797 -0.6989
  180SLPC  C21420528   2.225   0.278   3.849  0.3949  0.5973 -0.1685
  180SLPC  H14R20529   2.278   0.334   3.929  0.0951  0.9408 -0.2062
  180SLPC  H14S20530   2.298   0.244   3.774 -1.2607  1.3738 -2.2285
  180SLPC  C21520531   2.148   0.165   3.918 -0.2943  0.8504  0.1435
  180SLPC  H15R20532   2.079   0.113   3.848  1.1792 -2.5128  1.0077
  180SLPC  H15S20533   2.087   0.202   4.002 -1.3812  1.4826 -0.8973
  180SLPC  C21620534   2.236   0.050   3.976 -0.9164  0.2164 -0.0276
  180SLPC  H16R20535   2.280  -0.016   3.897  0.1953 -1.5329  1.9374
  180SLPC  H16S20536   2.174  -0.023   4.031  0.6038 -0.3528  1.0031
  180SLPC  C21720537   2.330   0.108   4.085 -0.1485 -0.3189 -0.2874
  180SLPC  H17R20538   2.268   0.157   4.163 -0.4791  0.2671 -0.9055
  180SLPC  H17S20539   2.389   0.186   4.031 -1.6071  0.6237 -0.5798
  180SLPC  C21820540   2.416   0.002   4.150  0.3192 -0.2253  0.0203
  180SLPC  H18R20541   2.464  -0.072   4.082  3.0727  1.3093  0.1619
  180SLPC  H18S20542   2.344  -0.062   4.205 -0.1782 -0.0577 -0.4298
  180SLPC  H18T20543   2.491   0.044   4.220  0.8897  0.7965 -1.1610
  180SLPC   C3320544   1.291   0.437   2.923  0.4865 -0.5629  0.1653
  180SLPC   H3X20545   1.274   0.411   3.030  1.8698  1.1478  0.8522
  180SLPC   H3Y20546   1.308   0.344   2.865 -1.1416 -0.8718  0.1409
  180SLPC   C3420547   1.149   0.486   2.874 -0.0472 -0.4135  0.1028
  180SLPC   H4X20548   1.159   0.498   2.764 -3.1760 -1.8199 -0.4409
  180SLPC   H4Y20549   1.131   0.582   2.926  0.2382 -0.3373  0.0629
  180SLPC   C3520550   1.035   0.381   2.899 -0.5140  0.6373  0.4653
  180SLPC   H5X20551   1.047   0.311   2.814  3.8673  0.3736  1.0758
  180SLPC   H5Y20552   0.944   0.445   2.901 -0.3196  0.9039  0.9210
  180SLPC   C3620553   1.039   0.311   3.039 -0.0492  0.2389  0.3904
  180SLPC   H6X20554   1.036   0.391   3.116 -0.5430 -0.0611  0.6855
  180SLPC   H6Y20555   1.130   0.248   3.039  0.0229  0.1900  3.6606
  180SLPC   C3720556   0.913   0.231   3.073  0.2546 -0.6982  0.7107
  180SLPC   H7X20557   0.870   0.174   2.988  0.4220 -0.6221  0.5764
  180SLPC   H7Y20558   0.840   0.309   3.102 -0.0740 -0.6203 -0.2901
  180SLPC   C3820559   0.929   0.146   3.197  0.0032  0.0050 -0.6171
  180SLPC   H8X20560   0.950   0.209   3.287 -0.1231  0.1093 -0.6599
  180SLPC   H8Y20561   1.022   0.089   3.180 -0.4086 -0.0581 -3.0458
  180SLPC   C3920562   0.806   0.058   3.232 -0.4101 -0.6015 -0.4345
  180SLPC   H9X20563   0.795  -0.027   3.161  2.0826 -1.3891 -0.0023
  180SLPC   H9Y20564   0.721   0.128   3.220 -0.3463 -0.5593 -0.6497
  180SLPC  C31020565   0.808   0.014   3.376 -0.5272  0.2683  0.3454
  180SLPC  H10X20566   0.843   0.097   3.441  1.1143 -0.6372  0.6765
  180SLPC  H10Y20567   0.891  -0.058   3.393 -1.7212 -1.0436  0.7138
  180SLPC  C31120568   0.673  -0.038   3.424  0.4804 -0.5591  0.3681
  180SLPC  H11X20569   0.597   0.017   3.364  1.7436 -0.5779 -1.3029
  180SLPC  H11Y20570   0.647  -0.019   3.531  0.5011 -0.6507  0.3896
  180SLPC  C31220571   0.661  -0.186   3.398  0.6799  0.6394  0.6791
  180SLPC  H12X20572   0.701  -0.205   3.296 -1.9173  1.6533 -0.6145
  180SLPC  H12Y20573   0.555  -0.215   3.381  0.6861  1.6220 -1.2173
  180SLPC  C31320574   0.730  -0.277   3.500  0.1254  0.1436  0.3619
  180SLPC  H13X20575   0.831  -0.238   3.528 -0.0833  2.2343 -1.4629
  180SLPC  H13Y20576   0.740  -0.374   3.448 -2.1274  0.4578 -0.7512
  180SLPC  C31420577   0.636  -0.308   3.620  0.5053  0.1315 -0.1235
  180SLPC  H14X20578   0.541  -0.353   3.585  0.6823 -1.0402  0.8664
  180SLPC  H14Y20579   0.609  -0.208   3.661 -1.1414 -0.4799  0.3332
  180SLPC  C31520580   0.697  -0.407   3.719 -0.6034  0.1918 -0.2729
  180SLPC  H15X20581   0.703  -0.510   3.676  2.6929  0.9478 -1.9625
  180SLPC  H15Y20582   0.622  -0.414   3.801 -1.0102  1.9044 -0.4581
  180SLPC  C31620583   0.831  -0.379   3.787  0.9261  0.2028  0.4888
  180SLPC  H16X20584   0.910  -0.342   3.718 -0.0703  2.2377  0.3575
  180SLPC  H16Y20585   0.855  -0.476   3.835  0.1078  0.1236  0.7480
  180SLPC  C31720586   0.823  -0.258   3.880  0.2521 -0.1364 -0.2147
  180SLPC  H17X20587   0.792  -0.181   3.806  1.1384 -1.6590 -2.2808
  180SLPC  H17Y20588   0.925  -0.248   3.921  0.1302 -2.4485  0.8148
  180SLPC  C31820589   0.719  -0.264   3.991 -0.1145  0.4010  0.4185
  180SLPC  H18X20590   0.623  -0.224   3.954 -1.0690  0.5587  2.8720
  180SLPC  H18Y20591   0.748  -0.195   4.074  0.5050 -0.2710  0.7804
  180SLPC  H18Z20592   0.710  -0.369   4.026  1.5368  0.6292  1.7051
  181SLPC     N20593   2.868   4.277   2.280 -0.1129  0.1154 -0.1646
  181SLPC   C1320594   2.880   4.180   2.171  0.0136  0.7175  0.4899
  181SLPC  H13A20595   2.933   4.095   2.212 -0.0672  0.5456  0.2407
  181SLPC  H13B20596   2.783   4.144   2.141  1.7757 -1.4658 -3.4009
  181SLPC  H13C20597   2.940   4.217   2.090  0.0390  0.1426  0.2355
  181SLPC   C1420598   2.780   4.390   2.238  0.0339 -0.1354  0.0490
  181SLPC  H14A20599   2.756   4.459   2.319  1.9848 -0.7356  1.1908
  181SLPC  H14B20600   2.831   4.444   2.160 -0.7942 -0.9365 -1.0853
  181SLPC  H14C20601   2.689   4.364   2.186 -1.7702 -1.0408  3.3154
  181SLPC   C1520602   3.000   4.333   2.321 -0.2616 -0.0246 -0.3558
  181SLPC  H15A20603   2.994   4.406   2.400 -0.4932 -0.0638 -0.3378
  181SLPC  H15B20604   3.065   4.252   2.350  0.4936 -0.0059 -1.8995
  181SLPC  H15C20605   3.050   4.391   2.245  0.5512 -0.0029  0.1834
  181SLPC   C1220606   2.817   4.201   2.407  0.2549 -0.4492 -0.1106
  181SLPC  H12A20607   2.731   4.146   2.371  0.1416 -0.8708  0.7830
  181SLPC  H12B20608   2.804   4.277   2.483  0.8357  0.4463 -0.8837
  181SLPC   C1120609   2.910   4.091   2.470 -0.1328 -0.0750  0.8908
  181SLPC  H11A20610   2.861   4.066   2.566 -0.7504  0.8389  0.8226
  181SLPC  H11B20611   3.009   4.133   2.496 -0.9174  2.1466  0.4511
  181SLPC     P20612   2.797   3.863   2.380  0.2530  0.0705 -0.3095
  181SLPC   O1320613   2.676   3.942   2.341 -0.2973 -0.0819 -0.5848
  181SLPC   O1420614   2.841   3.753   2.294  0.4342 -0.0734  0.1689
  181SLPC   O1220615   2.913   3.967   2.397 -0.3305  0.3655  0.0643
  181SLPC   O1120616   2.770   3.794   2.516  0.3586  0.2137 -1.1784
  181SLPC    C120617   2.874   3.748   2.608 -0.3482 -0.1977  0.1137
  181SLPC    HA20618   2.972   3.752   2.556 -1.1456 -0.7364 -1.5121
  181SLPC    HB20619   2.892   3.815   2.695  4.3214 -2.2937  1.1345
  181SLPC    C220620   2.855   3.596   2.644  0.7648  0.2577  0.0051
  181SLPC    HS20621   2.845   3.534   2.552  0.2344 -0.9277  0.8432
  181SLPC   O2120622   2.735   3.585   2.717 -0.3392  0.6904  0.2173
  181SLPC   C2120623   2.684   3.465   2.736 -0.3514  0.2559  0.5952
  181SLPC   O2220624   2.725   3.365   2.676  0.1270  0.8467 -1.0546
  181SLPC   C2220625   2.567   3.469   2.827  0.3481  0.3862 -0.2223
  181SLPC   H2R20626   2.607   3.489   2.928  1.4541  4.6111 -1.2859
  181SLPC   H2S20627   2.501   3.554   2.798  0.9010  1.2916  1.0815
  181SLPC    C320628   2.973   3.525   2.720  0.0212  0.3685  0.1680
  181SLPC    HX20629   3.071   3.549   2.673  0.6822 -1.7518  0.3792
  181SLPC    HY20630   2.956   3.416   2.723 -1.4839  0.5414 -1.0505
  181SLPC   O3120631   2.986   3.587   2.845  0.7553  0.3372 -0.0843
  181SLPC   C3120632   2.934   3.525   2.958  0.3178 -0.6765  1.1368
  181SLPC   O3220633   2.880   3.415   2.962 -0.0660 -0.4124  0.1957
  181SLPC   C3220634   2.956   3.621   3.068 -0.1745  0.2984  0.4092
  181SLPC   H2X20635   2.989   3.717   3.023  3.7556 -1.5226 -1.1297
  181SLPC   H2Y20636   3.030   3.580   3.140 -1.1777 -1.0144  0.7213
  181SLPC   C2320637   2.482   3.341   2.823 -0.0509 -0.1266  0.1076
  181SLPC   H3R20638   2.537   3.246   2.838 -1.5329 -0.6604  2.7390
  181SLPC   H3S20639   2.445   3.337   2.718  1.9335  1.9312 -0.7590
  181SLPC   C2420640   2.363   3.347   2.914  0.1001  0.0572  0.2673
  181SLPC   H4R20641   2.324   3.245   2.896  1.2181 -0.7542  2.1778
  181SLPC   H4S20642   2.293   3.420   2.867 -0.5663 -0.7051  0.0608
  181SLPC   C2520643   2.364   3.366   3.066 -0.5490 -0.2125 -0.6382
  181SLPC   H5R20644   2.466   3.334   3.099 -0.3466  0.7685 -0.2698
  181SLPC   H5S20645   2.288   3.297   3.108  0.0087 -1.7585 -2.0433
  181SLPC   C2620646   2.336   3.522   3.100 -0.5574  0.4061 -0.4385
  181SLPC   H6R20647   2.239   3.558   3.060  0.4651  0.7821 -2.7596
  181SLPC   H6S20648   2.412   3.593   3.060  0.0648 -0.2529 -0.4578
  181SLPC   C2720649   2.362   3.548   3.248  0.5810 -0.6306 -0.2794
  181SLPC   H7R20650   2.367   3.657   3.268 -1.1955 -1.0136  2.7165
  181SLPC   H7S20651   2.459   3.509   3.287  1.3856  1.1767 -0.3819
  181SLPC   C2820652   2.252   3.493   3.338  0.4199  0.1385 -0.1252
  181SLPC   H8R20653   2.274   3.386   3.358 -0.0563  0.0820  0.1084
  181SLPC   H8S20654   2.159   3.509   3.280  0.3524  1.0182  0.1991
  181SLPC   C2920655   2.240   3.572   3.466  0.5006  0.0374  0.4668
  181SLPC   H9R20656   2.193   3.670   3.452 -2.0097 -1.1991 -0.2799
  181SLPC  C21020657   2.279   3.530   3.590 -0.3194 -0.2436 -0.5895
  181SLPC  H10R20658   2.263   3.606   3.667  1.1499 -0.5632  0.0743
  181SLPC  C21120659   2.346   3.394   3.630  0.1238  0.4832 -0.2979
  181SLPC  H11R20660   2.315   3.316   3.557 -0.5815  0.9403 -0.5091
  181SLPC  H11S20661   2.325   3.358   3.733  0.0703 -2.6796 -1.3322
  181SLPC  C21220662   2.498   3.392   3.612  0.2348  0.2148 -0.4650
  181SLPC  H12R20663   2.520   3.379   3.505 -2.2393 -1.7099 -0.8461
  181SLPC  C21320664   2.595   3.450   3.685 -0.6850 -0.5085 -0.3028
  181SLPC  H13R20665   2.694   3.449   3.637 -0.9758 -0.8985 -0.9030
  181SLPC  C21420666   2.585   3.511   3.827 -0.3357 -0.1760  0.2089
  181SLPC  H14R20667   2.480   3.529   3.860  0.1886  1.3639  1.1625
  181SLPC  H14S20668   2.623   3.615   3.818 -0.2106 -0.3655 -2.1328
  181SLPC  C21520669   2.653   3.434   3.941  0.1400 -0.4618 -0.1868
  181SLPC  H15R20670   2.763   3.422   3.928  0.7449  0.1664  3.3345
  181SLPC  H15S20671   2.611   3.332   3.950 -3.9792  1.0529 -0.0328
  181SLPC  C21620672   2.643   3.494   4.084 -0.1786  0.0028  0.3865
  181SLPC  H16R20673   2.537   3.478   4.112 -0.5856  0.9921 -0.5224
  181SLPC  H16S20674   2.686   3.597   4.086  1.1051 -0.4713 -0.8664
  181SLPC  C21720675   2.726   3.414   4.186 -0.0336  0.4995  0.1295
  181SLPC  H17R20676   2.813   3.373   4.131 -0.1460  1.1086 -0.5163
  181SLPC  H17S20677   2.659   3.329   4.208  1.1989  0.0025  2.2975
  181SLPC  C21820678   2.764   3.491   4.307  0.3473 -0.2711 -0.0991
  181SLPC  H18R20679   2.830   3.574   4.274 -0.5909  0.3504 -0.4514
  181SLPC  H18S20680   2.831   3.433   4.375  0.8368  1.0144  0.5548
  181SLPC  H18T20681   2.686   3.536   4.371  1.0627  1.6788 -0.5380
  181SLPC   C3320682   2.820   3.628   3.148 -0.2676  0.0156 -0.3890
  181SLPC   H3X20683   2.759   3.539   3.176 -1.7457  1.0764 -0.1014
  181SLPC   H3Y20684   2.745   3.681   3.085  1.6526  3.4132 -0.0374
  181SLPC   C3420685   2.829   3.709   3.280  0.3418 -0.3884 -0.3901
  181SLPC   H4X20686   2.727   3.737   3.311  0.1353 -0.0758 -1.3019
  181SLPC   H4Y20687   2.883   3.802   3.250 -0.6494  0.0016 -0.9946
  181SLPC   C3520688   2.897   3.637   3.396  0.5107  0.3820  0.2789
  181SLPC   H5X20689   3.000   3.605   3.368 -0.5990 -2.2019 -1.1800
  181SLPC   H5Y20690   2.838   3.549   3.430  1.1643  1.7026  5.9487
  181SLPC   C3620691   2.888   3.723   3.523 -0.3505 -0.0454 -0.0255
  181SLPC   H6X20692   2.783   3.750   3.549 -0.0064  1.8376 -0.4443
  181SLPC   H6Y20693   2.945   3.816   3.500 -0.4423  0.2492  0.8794
  181SLPC   C3720694   2.957   3.675   3.648 -0.0895 -0.0399 -0.0930
  181SLPC   H7X20695   3.058   3.639   3.617 -0.5864  0.0126 -1.9156
  181SLPC   H7Y20696   2.898   3.589   3.686  0.3670 -0.5158 -0.4467
  181SLPC   C3820697   2.954   3.769   3.768 -0.3814  0.4869  0.1978
  181SLPC   H8X20698   2.853   3.782   3.811  0.3946  1.2492  1.8603
  181SLPC   H8Y20699   3.000   3.866   3.738  0.5217 -0.0610 -0.2390
  181SLPC   C3920700   3.041   3.709   3.877  0.3617 -0.6099 -1.0863
  181SLPC   H9X20701   3.144   3.692   3.838  0.3535  0.5123 -1.6339
  181SLPC   H9Y20702   2.992   3.612   3.902 -0.4336  0.0947  0.2017
  181SLPC  C31020703   3.052   3.798   4.009 -0.0481  0.2111  0.0174
  181SLPC  H10X20704   3.103   3.894   3.988  2.6105 -0.6846  1.9068
  181SLPC  H10Y20705   3.119   3.738   4.074 -0.0486  0.5876  0.3712
  181SLPC  C31120706   2.926   3.821   4.089 -0.1754  0.4941 -0.7094
  181SLPC  H11X20707   2.947   3.852   4.194 -2.0830  0.0069 -0.1300
  181SLPC  H11Y20708   2.877   3.721   4.101 -0.6836  0.7198 -0.8701
  181SLPC  C31220709   2.852   3.939   4.043  0.3773  0.0304  0.2173
  181SLPC  H12X20710   2.797   3.920   3.948 -0.3817 -1.6875  0.9458
  181SLPC  H12Y20711   2.932   4.014   4.026  0.4844 -0.1668 -0.1598
  181SLPC  C31320712   2.747   3.990   4.140 -0.5899 -0.3688  0.0357
  181SLPC  H13X20713   2.700   4.075   4.086  0.1772 -0.8312 -1.4012
  181SLPC  H13Y20714   2.796   4.024   4.234  1.9744 -1.7243 -0.7422
  181SLPC  C31420715   2.651   3.882   4.192  0.8226 -0.4569 -0.0603
  181SLPC  H14X20716   2.711   3.807   4.249  0.2831 -1.0221 -0.2289
  181SLPC  H14Y20717   2.600   3.834   4.107 -0.1414  0.2972  0.0782
  181SLPC  C31520718   2.558   3.956   4.296 -0.1185  0.3065 -0.7466
  181SLPC  H15X20719   2.493   4.035   4.254 -1.5557  0.3913  1.4755
  181SLPC  H15Y20720   2.627   4.006   4.367  0.7854 -1.9103  0.0315
  181SLPC  C31620721   2.454   3.862   4.367  0.2366 -0.2927 -0.1772
  181SLPC  H16X20722   2.392   3.931   4.428 -0.8075 -0.7706 -0.6777
  181SLPC  H16Y20723   2.512   3.803   4.441  1.3597  2.3462  1.2055
  181SLPC  C31720724   2.366   3.766   4.284 -0.4754  0.4607  0.2012
  181SLPC  H17X20725   2.429   3.699   4.221  0.9053  1.1995  0.7762
  181SLPC  H17Y20726   2.298   3.816   4.212  1.2705 -0.3214 -2.1104
  181SLPC  C31820727   2.277   3.677   4.367  0.0923 -0.1688 -0.0362
  181SLPC  H18X20728   2.342   3.608   4.425  0.5124  0.3892  0.1578
  181SLPC  H18Y20729   2.192   3.632   4.310  0.3531 -2.5899  1.3645
  181SLPC  H18Z20730   2.227   3.758   4.425  0.0383  1.8130 -2.6480
  182SLPC     N20731   3.438   0.783   2.135 -0.4162  0.6356  0.7824
  182SLPC   C1320732   3.340   0.806   2.024 -0.2391 -0.3521  0.5539
  182SLPC  H13A20733   3.384   0.815   1.926 -0.9124 -1.6685  0.1020
  182SLPC  H13B20734   3.274   0.722   2.005  0.2920 -0.5539 -0.4902
  182SLPC  H13C20735   3.267   0.880   2.053 -1.0212  0.1618 -2.3248
  182SLPC   C1420736   3.483   0.636   2.107 -0.5236 -1.3057 -0.7925
  182SLPC  H14A20737   3.524   0.628   2.008 -0.7153  0.3093 -1.0308
  182SLPC  H14B20738   3.553   0.596   2.179 -0.8728 -2.4924 -1.0855
  182SLPC  H14C20739   3.394   0.575   2.106 -1.1184 -0.4771 -0.1606
  182SLPC   C1520740   3.371   0.789   2.267 -0.1437  0.0276  0.9427
  182SLPC  H15A20741   3.282   0.727   2.270 -1.3741  1.4571 -1.7504
  182SLPC  H15B20742   3.435   0.771   2.352 -0.4491  0.9980  1.4027
  182SLPC  H15C20743   3.335   0.890   2.283  0.7566  0.9959 -2.3846
  182SLPC   C1220744   3.563   0.874   2.132 -0.1296 -0.1718  0.3150
  182SLPC  H12A20745   3.634   0.867   2.050  0.1150  1.3789  0.3663
  182SLPC  H12B20746   3.619   0.852   2.222  0.2212 -0.2189  0.0905
  182SLPC   C1120747   3.522   1.024   2.135 -0.3812  0.0833 -0.0971
  182SLPC  H11A20748   3.443   1.046   2.210 -0.5235  1.5067 -0.6439
  182SLPC  H11B20749   3.478   1.059   2.040  0.6050 -0.0451 -0.6112
  182SLPC     P20750   3.735   1.151   2.059  0.1174 -0.0758 -0.4084
  182SLPC   O1320751   3.670   1.171   1.925  0.4661  0.3128  0.4101
  182SLPC   O1420752   3.822   1.262   2.107  0.3092  0.8579 -0.7453
  182SLPC   O1220753   3.632   1.108   2.174 -0.5492 -0.2593 -0.3912
  182SLPC   O1120754   3.832   1.023   2.052  0.3922 -0.3572  0.4260
  182SLPC    C120755   3.888   0.978   2.178  0.6681  0.1453 -0.1729
  182SLPC    HA20756   3.928   1.062   2.240  0.7633  0.4937 -0.7016
  182SLPC    HB20757   3.806   0.925   2.231  2.0804 -0.9922  0.9608
  182SLPC    C220758   4.000   0.878   2.174 -0.8287 -0.0220 -0.9528
  182SLPC    HS20759   3.991   0.805   2.091 -2.1249  0.9095 -1.6744
  182SLPC   O2120760   4.022   0.811   2.300 -0.2445 -0.0425 -0.1147
  182SLPC   C2120761   3.947   0.703   2.317  0.3248 -0.2798 -0.2504
  182SLPC   O2220762   3.860   0.663   2.239  1.0745  0.4180  0.4239
  182SLPC   C2220763   3.993   0.637   2.441  0.4133  0.9876 -0.0684
  182SLPC   H2R20764   3.950   0.535   2.437  0.1619  1.0798  0.2422
  182SLPC   H2S20765   4.104   0.636   2.444  0.4199 -0.8216  0.6656
  182SLPC    C320766   4.140   0.961   2.148 -0.3812  1.2745 -0.2476
  182SLPC    HX20767   4.126   1.028   2.060  2.1023  0.3529 -1.4562
  182SLPC    HY20768   4.217   0.890   2.111 -1.0452 -0.2506  1.1587
  182SLPC   O3120769   4.186   1.047   2.258 -0.1545  0.3214  0.0978
  182SLPC   C3120770   4.275   0.986   2.341 -0.3048 -0.4174 -0.2346
  182SLPC   O3220771   4.328   0.879   2.318  0.3684 -0.0109  0.8531
  182SLPC   C3220772   4.292   1.079   2.459  0.8957  0.2927  0.5774
  182SLPC   H2X20773   4.206   1.150   2.458  0.0996 -0.6382  1.0592
  182SLPC   H2Y20774   4.393   1.126   2.453  0.8574  0.2636 -0.4155
  182SLPC   C2320775   3.938   0.707   2.569  0.3654  0.3895 -0.7204
  182SLPC   H3R20776   3.827   0.706   2.565  0.3872  0.7354 -1.6548
  182SLPC   H3S20777   3.966   0.814   2.577  0.2746  0.3463  0.3170
  182SLPC   C2420778   3.996   0.641   2.700  0.1967 -0.2070  0.4803
  182SLPC   H4R20779   4.107   0.641   2.707  0.1854  2.0582  1.2566
  182SLPC   H4S20780   3.949   0.540   2.707 -1.4235  0.5267  0.5713
  182SLPC   C2520781   3.942   0.719   2.815  0.2832  0.3502 -0.3418
  182SLPC   H5R20782   3.832   0.706   2.803  0.4009 -0.1451 -0.9278
  182SLPC   H5S20783   3.956   0.829   2.824  0.7404  0.4860 -2.2336
  182SLPC   C2620784   3.990   0.659   2.951  0.1609  0.6550  0.6021
  182SLPC   H6R20785   4.098   0.637   2.940  0.2173  1.4496 -0.5694
  182SLPC   H6S20786   3.947   0.557   2.963  2.1542 -0.2911  0.1314
  182SLPC   C2720787   3.952   0.749   3.071  0.6561 -0.2659 -0.3518
  182SLPC   H7R20788   3.845   0.771   3.052  0.8878  2.3842  1.0137
  182SLPC   H7S20789   3.995   0.852   3.072 -1.0447  0.4902  1.8541
  182SLPC   C2820790   3.972   0.682   3.207 -0.3985  0.0976 -0.3246
  182SLPC   H8R20791   4.077   0.670   3.244 -1.3893 -1.2748  2.2969
  182SLPC   H8S20792   3.942   0.575   3.199  0.4572 -0.0577 -1.8872
  182SLPC   C2920793   3.890   0.751   3.309 -0.3297  0.4800 -0.6121
  182SLPC   H9R20794   3.827   0.834   3.273 -0.9093  0.6026  0.6282
  182SLPC  C21020795   3.898   0.739   3.443  0.1091  0.1333 -1.1404
  182SLPC  H10R20796   3.848   0.811   3.509  1.1054 -1.2797  1.3070
  182SLPC  C21120797   3.982   0.648   3.533  0.5439 -0.0897 -0.2316
  182SLPC  H11R20798   4.039   0.589   3.457  0.3532 -0.3312 -0.1884
  182SLPC  H11S20799   3.921   0.581   3.597 -1.0311  1.3759 -0.1568
  182SLPC  C21220800   4.092   0.717   3.616 -0.5146  0.7132 -0.6651
  182SLPC  H12R20801   4.190   0.698   3.570 -1.3178 -1.5307 -1.6054
  182SLPC  C21320802   4.086   0.762   3.741  0.2612  0.1489 -0.5486
  182SLPC  H13R20803   4.182   0.794   3.785 -0.0970 -1.1022  1.2689
  182SLPC  C21420804   3.959   0.787   3.821  0.3049  0.0253 -0.0345
  182SLPC  H14R20805   3.870   0.763   3.760  0.5603  0.3210 -0.5371
  182SLPC  H14S20806   3.957   0.894   3.851  0.1661  0.8547 -2.7429
  182SLPC  C21520807   3.952   0.682   3.932  0.1029 -0.1715 -0.2455
  182SLPC  H15R20808   4.039   0.709   3.996 -0.0499  0.0607 -0.1343
  182SLPC  H15S20809   3.963   0.578   3.895 -0.3225 -0.0827 -0.6244
  182SLPC  C21620810   3.830   0.691   4.026 -0.0603  0.2411 -0.1441
  182SLPC  H16R20811   3.822   0.605   4.095 -2.8000  1.0047  0.6496
  182SLPC  H16S20812   3.739   0.697   3.962 -1.5460 -1.3161  1.6875
  182SLPC  C21720813   3.819   0.815   4.115 -0.0049 -0.4333 -0.1101
  182SLPC  H17R20814   3.819   0.913   4.062  1.4664  0.3018  1.1864
  182SLPC  H17S20815   3.908   0.818   4.181 -0.4116  0.5660  0.4210
  182SLPC  C21820816   3.695   0.791   4.206  0.2133 -0.2404 -0.7867
  182SLPC  H18R20817   3.617   0.871   4.210  0.4126 -0.1040  0.5349
  182SLPC  H18S20818   3.730   0.776   4.310 -0.5759 -2.2381 -0.7577
  182SLPC  H18T20819   3.649   0.691   4.191 -0.8663 -0.1247  1.4076
  182SLPC   C3320820   4.275   1.004   2.593 -0.5610 -0.3394  0.5186
  182SLPC   H3X20821   4.374   0.959   2.614  0.1161  0.9665  0.2093
  182SLPC   H3Y20822   4.193   0.929   2.585 -0.6374 -0.0991 -1.8790
  182SLPC   C3420823   4.237   1.105   2.703  0.1414 -0.2488 -0.7962
  182SLPC   H4X20824   4.138   1.155   2.692  1.5321  2.5068 -1.7004
  182SLPC   H4Y20825   4.322   1.175   2.715  1.6294 -2.2442  1.0261
  182SLPC   C3520826   4.231   1.033   2.838  0.1186 -0.0106  0.5830
  182SLPC   H5X20827   4.323   0.971   2.846 -0.8027 -1.3971  0.9223
  182SLPC   H5Y20828   4.149   0.959   2.835 -0.2882  0.4351 -2.2551
  182SLPC   C3620829   4.208   1.129   2.950  0.0790  0.2030 -0.0816
  182SLPC   H6X20830   4.117   1.186   2.923  0.2110  0.2867 -0.3530
  182SLPC   H6Y20831   4.290   1.205   2.948  0.6418 -0.3927 -0.1900
  182SLPC   C3720832   4.193   1.071   3.092 -0.5830 -0.3467 -0.7954
  182SLPC   H7X20833   4.284   1.015   3.119 -1.1661 -0.3479  1.3786
  182SLPC   H7Y20834   4.105   1.004   3.100  0.9078 -2.2166  0.7575
  182SLPC   C3820835   4.175   1.168   3.211 -0.3969  0.2535  0.2595
  182SLPC   H8X20836   4.075   1.212   3.192  1.3490  3.8283 -1.6981
  182SLPC   H8Y20837   4.250   1.250   3.214 -1.4179  1.1904  0.8410
  182SLPC   C3920838   4.162   1.100   3.352 -0.4502 -0.1510 -0.4723
  182SLPC   H9X20839   4.250   1.034   3.365  1.6970  2.8568  1.7710
  182SLPC   H9Y20840   4.069   1.039   3.346  0.6346 -2.1567  1.5201
  182SLPC  C31020841   4.148   1.206   3.456  0.4396 -0.2668  0.0124
  182SLPC  H10X20842   4.062   1.273   3.434 -2.0823 -3.5227 -0.8041
  182SLPC  H10Y20843   4.237   1.272   3.463  0.9226 -0.9687  0.6677
  182SLPC  C31120844   4.109   1.152   3.592 -0.1380  0.0256 -0.4617
  182SLPC  H11X20845   4.198   1.093   3.624 -0.0284  0.4038 -0.0592
  182SLPC  H11Y20846   4.024   1.080   3.588  0.0627 -0.2063 -0.5956
  182SLPC  C31220847   4.081   1.253   3.708 -0.6722  0.2389  0.3027
  182SLPC  H12X20848   3.988   1.312   3.691 -1.5266  0.2412  4.0810
  182SLPC  H12Y20849   4.169   1.320   3.720 -0.5596  0.3560 -1.0950
  182SLPC  C31320850   4.063   1.198   3.847  0.7401 -0.0008 -0.7305
  182SLPC  H13X20851   3.979   1.126   3.857 -0.3296  1.4625  1.8408
  182SLPC  H13Y20852   4.042   1.282   3.916 -3.2024 -1.5992  0.3020
  182SLPC  C31420853   4.181   1.111   3.907 -0.2063 -0.5782 -0.1840
  182SLPC  H14X20854   4.271   1.175   3.894 -1.3527  1.5723  1.8180
  182SLPC  H14Y20855   4.193   1.020   3.845 -2.1624 -1.7317  1.0288
  182SLPC  C31520856   4.166   1.068   4.051 -0.2153  0.0054  0.3459
  182SLPC  H15X20857   4.081   1.001   4.071 -1.7144  1.6269 -0.3457
  182SLPC  H15Y20858   4.151   1.151   4.123 -1.8990 -0.2563  0.3161
  182SLPC  C31620859   4.284   0.988   4.092  0.6182  0.8665  0.1295
  182SLPC  H16X20860   4.371   1.055   4.104  0.7519  0.4538  1.6454
  182SLPC  H16Y20861   4.309   0.900   4.029 -2.1864  0.3561 -0.4101
  182SLPC  C31720862   4.253   0.939   4.232 -0.0832  0.1330  0.4923
  182SLPC  H17X20863   4.158   0.883   4.244 -0.1254 -0.0273 -0.5038
  182SLPC  H17Y20864   4.246   1.034   4.289  0.4672  0.5114 -0.0598
  182SLPC  C31820865   4.366   0.855   4.296 -0.6843 -0.5624 -0.3943
  182SLPC  H18X20866   4.344   0.836   4.404  3.1965  0.5603  0.7423
  182SLPC  H18Y20867   4.459   0.915   4.302 -0.3491 -0.8780 -2.0592
  182SLPC  H18Z20868   4.385   0.753   4.256 -1.6189 -0.2404 -1.7303
  183SLPC     N20869   1.797   5.128   1.806  0.0073 -0.0623  0.1615
  183SLPC   C1320870   1.650   5.127   1.761  0.0426 -0.0760  0.1236
  183SLPC  H13A20871   1.638   5.084   1.663 -1.9312 -2.8642  1.4661
  183SLPC  H13B20872   1.584   5.071   1.826  1.3131 -3.4142 -1.2580
  183SLPC  H13C20873   1.601   5.224   1.761 -0.3713 -0.2698  1.2942
  183SLPC   C1420874   1.882   5.188   1.699 -0.2985  0.0461  0.3403
  183SLPC  H14A20875   1.988   5.195   1.716  0.1071  2.1099 -2.3699
  183SLPC  H14B20876   1.869   5.122   1.614 -0.4442  0.0271  0.3765
  183SLPC  H14C20877   1.845   5.286   1.671 -0.5882 -0.8300 -2.6569
  183SLPC   C1520878   1.834   4.979   1.819 -0.1631 -0.6017 -0.0219
  183SLPC  H15A20879   1.804   4.925   1.730 -3.2593  0.2873  0.3548
  183SLPC  H15B20880   1.937   4.957   1.839  0.3636 -0.7784 -2.6001
  183SLPC  H15C20881   1.783   4.939   1.906  0.6344 -0.5625  0.4694
  183SLPC   C1220882   1.814   5.214   1.930  0.5687  0.6749 -0.6298
  183SLPC  H12A20883   1.913   5.218   1.971  1.0382  0.9741 -1.7566
  183SLPC  H12B20884   1.754   5.175   2.011  1.7325  1.0720  0.4591
  183SLPC   C1120885   1.775   5.363   1.920  0.1549 -0.1911  0.0146
  183SLPC  H11A20886   1.804   5.419   1.828 -0.7352  2.4457  1.2407
  183SLPC  H11B20887   1.829   5.412   2.004  0.2531 -1.6131  0.8017
  183SLPC     P20888   1.550   5.374   2.062 -0.2796  0.3478  0.1219
  183SLPC   O1320889   1.412   5.426   2.044 -0.2866 -0.2789 -0.1896
  183SLPC   O1420890   1.553   5.243   2.129 -0.9965  0.5528  0.1688
  183SLPC   O1220891   1.631   5.377   1.924 -0.1175 -1.1309 -0.0723
  183SLPC   O1120892   1.629   5.489   2.150 -0.1366  0.5381 -0.7359
  183SLPC    C120893   1.714   5.442   2.256 -0.4828  0.3724 -0.5942
  183SLPC    HA20894   1.748   5.337   2.243  0.2850  0.4662  0.4934
  183SLPC    HB20895   1.808   5.501   2.257  2.0179 -3.3008 -0.2222
  183SLPC    C220896   1.647   5.423   2.400 -0.5004  0.0505  0.4469
  183SLPC    HS20897   1.590   5.328   2.388 -1.4665  0.7106 -0.3617
  183SLPC   O2120898   1.565   5.527   2.444  0.7808  0.5564  0.1579
  183SLPC   C2120899   1.440   5.492   2.462  0.1509 -0.2454 -0.1672
  183SLPC   O2220900   1.387   5.383   2.437  0.2485 -1.1365 -0.3290
  183SLPC   C2220901   1.370   5.611   2.531 -0.5240  0.2662  0.5566
  183SLPC   H2R20902   1.441   5.685   2.572  0.1729  0.1768 -0.4558
  183SLPC   H2S20903   1.304   5.661   2.457  1.4477  1.0806 -0.7294
  183SLPC    C320904   1.758   5.384   2.500 -0.2813  0.0786 -0.1354
  183SLPC    HX20905   1.833   5.465   2.488  1.2808 -1.3889 -0.7527
  183SLPC    HY20906   1.803   5.286   2.469 -2.8463 -0.7715 -1.4279
  183SLPC   O3120907   1.707   5.375   2.636  0.4382 -0.4834  0.7321
  183SLPC   C3120908   1.793   5.384   2.732  0.0599 -0.1513  0.2193
  183SLPC   O3220909   1.913   5.398   2.720  0.4274 -0.3161  0.6143
  183SLPC   C3220910   1.722   5.366   2.866 -0.3902 -0.4111  0.4699
  183SLPC   H2X20911   1.667   5.270   2.857  0.1902 -0.5705 -2.0967
  183SLPC   H2Y20912   1.648   5.449   2.875  1.0974  1.2595 -1.5162
  183SLPC   C2320913   1.290   5.567   2.658  0.6015 -0.6360 -0.4424
  183SLPC   H3R20914   1.215   5.492   2.623 -0.9045  0.7990 -0.3956
  183SLPC   H3S20915   1.231   5.651   2.699 -0.3172 -1.4569 -0.0264
  183SLPC   C2420916   1.369   5.518   2.780 -0.0719  0.1723  0.0232
  183SLPC   H4R20917   1.419   5.599   2.837  0.8211  0.0090 -0.5122
  183SLPC   H4S20918   1.433   5.431   2.755 -1.3482 -0.5499 -0.8625
  183SLPC   C2520919   1.269   5.453   2.881 -0.9163  0.2468  0.4692
  183SLPC   H5R20920   1.211   5.369   2.837 -1.7773  0.9039  0.3288
  183SLPC   H5S20921   1.189   5.525   2.909 -0.3480  0.8213  0.6047
  183SLPC   C2620922   1.339   5.398   3.007  0.6647 -0.0910  0.1985
  183SLPC   H6R20923   1.412   5.473   3.043  0.3435  0.1097  0.4468
  183SLPC   H6S20924   1.395   5.312   2.966 -0.1066  0.5819 -2.4702
  183SLPC   C2720925   1.243   5.358   3.118 -0.4541  0.1497  0.0989
  183SLPC   H7R20926   1.164   5.285   3.088 -0.4685  0.2732 -0.1695
  183SLPC   H7S20927   1.186   5.448   3.149  1.1072  0.8486  1.0551
  183SLPC   C2820928   1.324   5.306   3.238  0.4182 -0.5059  0.7317
  183SLPC   H8R20929   1.378   5.387   3.292 -0.5173 -0.6445  1.9006
  183SLPC   H8S20930   1.408   5.249   3.192  0.7048 -1.7358  2.6729
  183SLPC   C2920931   1.246   5.216   3.324  0.0871  0.3543  0.1336
  183SLPC   H9R20932   1.137   5.227   3.311 -0.2714 -1.6232  1.0544
  183SLPC  C21020933   1.287   5.112   3.405 -0.4957 -0.8908  0.4690
  183SLPC  H10R20934   1.207   5.058   3.457  1.3335 -1.7387  2.5750
  183SLPC  C21120935   1.423   5.057   3.436 -0.9752 -0.6671  0.3459
  183SLPC  H11R20936   1.462   5.020   3.338 -2.2688 -2.8582  0.6130
  183SLPC  H11S20937   1.414   4.965   3.497 -0.9065 -0.4088  0.7469
  183SLPC  C21220938   1.516   5.162   3.496  0.6025  0.2864 -0.0832
  183SLPC  H12R20939   1.498   5.262   3.456 -2.4680 -0.4654 -0.8074
  183SLPC  C21320940   1.601   5.142   3.601  0.3001 -0.1492  0.4080
  183SLPC  H13R20941   1.657   5.227   3.642 -1.6921  0.7413  1.4374
  183SLPC  C21420942   1.619   5.010   3.677  0.1446  0.3301 -0.3760
  183SLPC  H14R20943   1.532   4.941   3.674  0.1256  0.3860 -1.8386
  183SLPC  H14S20944   1.643   5.040   3.781  0.7641 -0.8554 -0.1657
  183SLPC  C21520945   1.743   4.925   3.644 -0.3672  0.0806  0.2629
  183SLPC  H15R20946   1.826   4.999   3.644 -1.5117  1.4816 -1.5868
  183SLPC  H15S20947   1.737   4.888   3.539  1.9825  1.1184 -0.3038
  183SLPC  C21620948   1.786   4.819   3.742  0.0035  0.1861  0.5179
  183SLPC  H16R20949   1.861   4.753   3.694  1.2929 -0.1449  2.8117
  183SLPC  H16S20950   1.700   4.749   3.751  0.8613 -1.1094 -0.8877
  183SLPC  C21720951   1.841   4.862   3.876 -0.5443 -0.2544  0.0642
  183SLPC  H17R20952   1.783   4.940   3.931  1.3235  0.4348  1.1502
  183SLPC  H17S20953   1.942   4.904   3.860  0.1135 -0.5025  3.0921
  183SLPC  C21820954   1.864   4.747   3.978  0.0515 -0.3874  0.3642
  183SLPC  H18R20955   1.930   4.667   3.937 -0.2724 -1.1291  1.2618
  183SLPC  H18S20956   1.773   4.686   3.994 -0.4916  1.1454  4.3117
  183SLPC  H18T20957   1.889   4.790   4.077 -2.3196 -0.5241  1.0642
  183SLPC   C3320958   1.809   5.349   2.991  0.2561  0.7947 -0.3486
  183SLPC   H3X20959   1.870   5.439   3.013  0.1615  0.8349 -0.2498
  183SLPC   H3Y20960   1.884   5.270   2.973 -0.2830 -0.7888  3.3344
  183SLPC   C3420961   1.722   5.299   3.110  0.0176  0.4426 -0.4092
  183SLPC   H4X20962   1.619   5.339   3.116 -0.0741  0.3238 -1.1340
  183SLPC   H4Y20963   1.759   5.343   3.205 -4.9183 -0.9685  2.5185
  183SLPC   C3520964   1.720   5.146   3.122  0.6354  0.3012 -0.2162
  183SLPC   H5X20965   1.702   5.097   3.024 -0.2077  1.1269 -0.4883
  183SLPC   H5Y20966   1.635   5.118   3.188  1.7245 -0.9713  0.6980
  183SLPC   C3620967   1.844   5.074   3.177 -0.3651  0.1611  0.6589
  183SLPC   H6X20968   1.923   5.071   3.100 -1.2647  1.2976 -0.3399
  183SLPC   H6Y20969   1.809   4.975   3.214 -3.4132  0.9582  0.1688
  183SLPC   C3720970   1.905   5.139   3.303  0.3163 -0.0710  0.6212
  183SLPC   H7X20971   1.945   5.054   3.362  1.2807 -0.9658 -1.2451
  183SLPC   H7Y20972   1.824   5.188   3.362  0.6610 -0.3363  1.3246
  183SLPC   C3820973   2.032   5.230   3.275 -0.2969 -0.7187 -0.6650
  183SLPC   H8X20974   2.010   5.306   3.197  2.9114 -0.5885 -1.6078
  183SLPC   H8Y20975   2.115   5.178   3.222  0.9811 -0.1997  0.7591
  183SLPC   C3920976   2.085   5.284   3.403 -0.7083  0.4869 -0.3535
  183SLPC   H9X20977   2.112   5.192   3.460 -0.6416  0.9747  0.4110
  183SLPC   H9Y20978   2.011   5.348   3.454 -0.2150  1.6705 -1.0872
  183SLPC  C31020979   2.212   5.370   3.394 -0.2097 -0.2827 -0.3071
  183SLPC  H10X20980   2.196   5.433   3.303  0.1403 -3.0000 -2.3664
  183SLPC  H10Y20981   2.294   5.305   3.358  1.5125  2.1845 -1.1551
  183SLPC  C31120982   2.238   5.462   3.520  0.0869  0.1420 -0.3062
  183SLPC  H11X20983   2.140   5.503   3.552  0.3074  1.4105 -1.2022
  183SLPC  H11Y20984   2.302   5.547   3.489 -0.5451  1.3633  1.6071
  183SLPC  C31220985   2.297   5.389   3.647 -0.3950  0.0925  0.2004
  183SLPC  H12X20986   2.403   5.358   3.636 -0.5220  0.3091 -2.0846
  183SLPC  H12Y20987   2.249   5.289   3.655 -3.4983  1.2391 -2.2250
  183SLPC  C31320988   2.262   5.474   3.777  0.3219  0.3131 -0.3222
  183SLPC  H13X20989   2.158   5.511   3.791 -0.2739 -1.4142  0.0564
  183SLPC  H13Y20990   2.325   5.565   3.762 -1.0644  1.1761 -1.1621
  183SLPC  C31420991   2.301   5.399   3.909  0.5044 -0.0245  0.3836
  183SLPC  H14X20992   2.409   5.375   3.901 -0.0798 -3.3235  0.6669
  183SLPC  H14Y20993   2.249   5.301   3.899  1.0549 -0.2364 -0.6314
  183SLPC  C31520994   2.251   5.467   4.039 -0.6015  0.0088 -0.4852
  183SLPC  H15X20995   2.141   5.481   4.035 -1.0204 -2.2564  1.1865
  183SLPC  H15Y20996   2.295   5.569   4.034  2.5079 -1.2185 -0.3485
  183SLPC  C31620997   2.286   5.390   4.166  0.9665  0.0105 -0.1535
  183SLPC  H16X20998   2.241   5.288   4.165  2.8953 -0.8849 -0.6555
  183SLPC  H16Y20999   2.227   5.442   4.245 -1.3327  0.0052 -1.7386
  183SLPC  C31721000   2.441   5.380   4.187 -0.9006  0.3856  0.7691
  183SLPC  H17X21001   2.498   5.475   4.187  1.9676 -1.2397  0.2630
  183SLPC  H17Y21002   2.476   5.308   4.110  0.5606  1.7467  0.1077
  183SLPC  C31821003   2.485   5.314   4.327 -0.2133 -0.2556  0.2384
  183SLPC  H18X21004   2.421   5.225   4.346 -1.6593  0.1293 -2.3647
  183SLPC  H18Y21005   2.458   5.387   4.407 -0.0758 -0.8973  0.8793
  183SLPC  H18Z21006   2.591   5.281   4.323 -0.7760 -2.1440 -0.1117
  184SLPC     N21007   1.604   4.171   1.995  0.6409  0.6115 -0.4163
  184SLPC   C1321008   1.632   4.292   1.910 -0.4433  0.1513 -0.4501
  184SLPC  H13A21009   1.572   4.287   1.820 -0.3432 -3.7883 -0.4813
  184SLPC  H13B21010   1.594   4.370   1.974 -0.7525 -0.7742  0.5279
  184SLPC  H13C21011   1.739   4.302   1.902 -0.1484 -1.3463  1.1860
  184SLPC   C1421012   1.662   4.052   1.924 -0.0818  0.1081  0.2443
  184SLPC  H14A21013   1.612   4.027   1.832  2.3123  1.2576 -1.4772
  184SLPC  H14B21014   1.760   4.065   1.883 -0.3619 -0.5289 -0.6564
  184SLPC  H14C21015   1.648   3.961   1.980 -0.5641  0.3991  0.6160
  184SLPC   C1521016   1.460   4.146   1.999 -0.9523  0.4796 -0.1123
  184SLPC  H15A21017   1.429   4.154   1.896  0.6289  1.6221 -0.5272
  184SLPC  H15B21018   1.439   4.045   2.033 -1.0735  0.3631 -0.5241
  184SLPC  H15C21019   1.409   4.221   2.057  0.3640  0.3341  1.2717
  184SLPC   C1221020   1.663   4.184   2.142  0.1192 -0.1402 -0.2502
  184SLPC  H12A21021   1.764   4.219   2.126 -0.1097  1.9185  2.1497
  184SLPC  H12B21022   1.659   4.086   2.186 -0.1756 -0.1074 -0.2008
  184SLPC   C1121023   1.595   4.294   2.238 -0.2004  0.3589  0.0778
  184SLPC  H11A21024   1.648   4.296   2.336  0.8559  0.1160 -0.4732
  184SLPC  H11B21025   1.494   4.257   2.265  0.5584 -2.0507 -0.1837
  184SLPC     P21026   1.732   4.515   2.192 -0.2295  0.2372  0.3778
  184SLPC   O1321027   1.854   4.431   2.177  0.0358 -0.2428  0.3349
  184SLPC   O1421028   1.723   4.632   2.103 -0.0359 -0.2915 -0.2061
  184SLPC   O1221029   1.606   4.427   2.178  0.7884  0.9603 -0.6953
  184SLPC   O1121030   1.726   4.582   2.338  0.1082 -0.5616 -0.1852
  184SLPC    C121031   1.620   4.672   2.383 -0.3168  0.3348  0.5565
  184SLPC    HA21032   1.628   4.774   2.338 -0.9720 -0.8115 -2.4406
  184SLPC    HB21033   1.523   4.620   2.371  0.2345 -0.1640 -2.6751
  184SLPC    C221034   1.637   4.693   2.533 -0.1035  0.5406 -0.7243
  184SLPC    HS21035   1.606   4.601   2.587  0.5805 -0.7591 -2.4284
  184SLPC   O2121036   1.576   4.810   2.585  0.7561  0.5437  0.1083
  184SLPC   C2121037   1.457   4.850   2.541 -0.0086 -0.3856  0.2299
  184SLPC   O2221038   1.375   4.783   2.482  0.4519 -0.5371  0.0032
  184SLPC   C2221039   1.448   4.998   2.582  0.0152  0.2437 -1.0119
  184SLPC   H2R21040   1.520   5.056   2.520 -0.2904  0.8289 -0.8248
  184SLPC   H2S21041   1.348   5.034   2.548 -0.8194 -0.2913  0.7719
  184SLPC    C321042   1.791   4.711   2.569  0.2032  0.1066 -0.2915
  184SLPC    HX21043   1.822   4.813   2.536 -2.5069  0.7853 -0.9917
  184SLPC    HY21044   1.853   4.635   2.515  0.4729 -1.2770  1.8507
  184SLPC   O3121045   1.808   4.687   2.711  0.7023  0.2016  0.0971
  184SLPC   C3121046   1.802   4.785   2.789  0.1960  0.6614  0.0639
  184SLPC   O3221047   1.813   4.901   2.758 -0.3816  0.8404 -0.4104
  184SLPC   C3221048   1.793   4.740   2.930  0.1292 -0.5553  0.3694
  184SLPC   H2X21049   1.794   4.837   2.984  1.3218  1.1540 -2.4456
  184SLPC   H2Y21050   1.880   4.676   2.954  0.5680 -0.3530 -0.6383
  184SLPC   C2321051   1.451   5.029   2.738  0.1721 -0.8196 -0.0668
  184SLPC   H3R21052   1.440   5.139   2.741 -2.0280 -0.9586 -1.0892
  184SLPC   H3S21053   1.548   5.006   2.788  1.1462 -0.2997 -1.6042
  184SLPC   C2421054   1.334   4.969   2.806 -0.2570  0.1863  0.1272
  184SLPC   H4R21055   1.349   4.864   2.838 -1.0564 -0.2415 -0.8441
  184SLPC   H4S21056   1.252   4.969   2.731 -0.5663  2.2925  0.3991
  184SLPC   C2521057   1.297   5.047   2.941 -0.3400 -0.6710 -0.2573
  184SLPC   H5R21058   1.262   5.150   2.918  0.2896  0.1183  1.9643
  184SLPC   H5S21059   1.386   5.065   3.006 -0.2905 -1.7236 -0.0210
  184SLPC   C2621060   1.196   4.976   3.036 -0.2311 -0.3369  0.9555
  184SLPC   H6R21061   1.103   4.960   2.976 -0.2859  2.7614  0.0437
  184SLPC   H6S21062   1.171   5.056   3.109  0.5694 -2.0798  3.2319
  184SLPC   C2721063   1.248   4.841   3.096  0.2453 -0.2457  0.5603
  184SLPC   H7R21064   1.352   4.844   3.135  0.8102 -0.6980 -0.8647
  184SLPC   H7S21065   1.242   4.766   3.014  1.1980  0.1745  0.0966
  184SLPC   C2821066   1.164   4.777   3.209 -0.3173 -0.3642 -0.2771
  184SLPC   H8R21067   1.204   4.832   3.296 -0.0727  1.7654 -1.6525
  184SLPC   H8S21068   1.193   4.671   3.220 -0.9437 -0.5286 -0.1727
  184SLPC   C2921069   1.015   4.792   3.198 -0.8966  0.8927  1.3212
  184SLPC   H9R21070   0.979   4.776   3.096  1.5893  3.3670 -0.1015
  184SLPC  C21021071   0.931   4.798   3.301  0.2100 -0.3305  0.4932
  184SLPC  H10R21072   0.823   4.806   3.286  0.3413  0.6013 -0.0418
  184SLPC  C21121073   0.966   4.826   3.453  0.2358  0.1833  0.5288
  184SLPC  H11R21074   1.036   4.912   3.456  0.6737 -0.1905  1.9778
  184SLPC  H11S21075   1.017   4.741   3.502 -0.5581  0.0136  1.0833
  184SLPC  C21221076   0.847   4.859   3.532 -0.4064 -0.2364 -0.3091
  184SLPC  H12R21077   0.784   4.939   3.492 -0.1321 -0.4625 -1.2166
  184SLPC  C21321078   0.815   4.812   3.655  0.0242  0.1757 -0.2880
  184SLPC  H13R21079   0.712   4.821   3.693 -0.2424 -0.7872 -0.7619
  184SLPC  C21421080   0.895   4.711   3.737 -0.3243 -0.2198  0.3502
  184SLPC  H14R21081   1.001   4.707   3.706 -0.5593  0.8730 -0.6550
  184SLPC  H14S21082   0.860   4.607   3.718  1.4939 -0.6229 -1.0021
  184SLPC  C21521083   0.900   4.744   3.888  0.9128  0.2072 -0.1326
  184SLPC  H15R21084   0.964   4.829   3.920  1.9214 -0.2916 -0.8005
  184SLPC  H15S21085   0.950   4.654   3.928 -1.7510 -0.2084  2.6384
  184SLPC  C21621086   0.767   4.745   3.964 -0.3880 -0.0446 -0.2328
  184SLPC  H16R21087   0.697   4.691   3.897  0.1221 -0.1571 -0.6831
  184SLPC  H16S21088   0.724   4.846   3.981  0.5593  0.2904  0.2404
  184SLPC  C21721089   0.769   4.666   4.094 -0.2351 -0.9826 -0.0072
  184SLPC  H17R21090   0.666   4.662   4.135  0.1446  0.4279  1.1704
  184SLPC  H17S21091   0.832   4.704   4.177 -1.3880  3.7736 -0.9946
  184SLPC  C21821092   0.798   4.516   4.083  0.0492 -0.4154  0.0823
  184SLPC  H18R21093   0.765   4.453   4.168 -1.4314 -3.2982 -2.4141
  184SLPC  H18S21094   0.909   4.509   4.072  0.1355  1.2819 -0.3977
  184SLPC  H18T21095   0.747   4.477   3.992 -2.3369  2.7999 -0.1347
  184SLPC   C3321096   1.667   4.659   2.955 -0.0500 -0.1169  0.3107
  184SLPC   H3X21097   1.664   4.553   2.922  0.6614 -0.6518  1.8586
  184SLPC   H3Y21098   1.579   4.713   2.913  1.5766  2.2495 -0.2915
  184SLPC   C3421099   1.639   4.647   3.098 -0.7831  0.4939 -0.5918
  184SLPC   H4X21100   1.639   4.751   3.137 -2.1931  0.3863 -0.2551
  184SLPC   H4Y21101   1.728   4.600   3.145 -0.2021  1.7463 -0.3745
  184SLPC   C3521102   1.505   4.574   3.130  0.7818 -0.0905  0.3792
  184SLPC   H5X21103   1.503   4.477   3.078  2.6254  0.1762 -0.2601
  184SLPC   H5Y21104   1.420   4.631   3.086  1.0706  0.0745  0.0300
  184SLPC   C3621105   1.481   4.549   3.279 -0.9197  0.0341  0.0847
  184SLPC   H6X21106   1.562   4.480   3.311  0.4995  0.1493 -2.8906
  184SLPC   H6Y21107   1.382   4.498   3.282 -1.2619  0.7179  2.8962
  184SLPC   C3721108   1.488   4.671   3.369  0.3995  0.0513 -0.6377
  184SLPC   H7X21109   1.419   4.750   3.333 -0.2381 -0.5249 -0.6961
  184SLPC   H7Y21110   1.589   4.716   3.357  0.1447  0.6613 -0.5370
  184SLPC   C3821111   1.476   4.638   3.523 -0.1076  0.0538  0.1588
  184SLPC   H8X21112   1.523   4.713   3.590  1.6613  0.0255 -0.9849
  184SLPC   H8Y21113   1.533   4.544   3.540 -0.0310  0.1735  0.5700
  184SLPC   C3921114   1.328   4.620   3.556  0.3804 -0.0123  0.2314
  184SLPC   H9X21115   1.283   4.548   3.484  0.7662 -0.7705  0.7391
  184SLPC   H9Y21116   1.276   4.717   3.540  2.0871  1.1314  1.3054
  184SLPC  C31021117   1.299   4.585   3.700  0.0547  0.2041  0.3925
  184SLPC  H10X21118   1.348   4.486   3.712 -0.6053 -0.3402 -1.1630
  184SLPC  H10Y21119   1.192   4.559   3.719  0.5744 -0.2955  3.0310
  184SLPC  C31121120   1.355   4.674   3.809 -0.2876  0.5160  0.4542
  184SLPC  H11X21121   1.465   4.688   3.800 -0.3672  0.6703 -0.3575
  184SLPC  H11Y21122   1.329   4.630   3.908  1.8344  0.2031  0.9206
  184SLPC  C31221123   1.293   4.816   3.809 -0.1809  0.0520 -0.2958
  184SLPC  H12X21124   1.185   4.804   3.786  0.1356  2.7792 -4.2886
  184SLPC  H12Y21125   1.323   4.868   3.715  2.0122  1.7695  1.2568
  184SLPC  C31321126   1.309   4.906   3.931 -0.3177  0.1967  0.4922
  184SLPC  H13X21127   1.417   4.893   3.957  0.2516  0.8869 -1.3522
  184SLPC  H13Y21128   1.241   4.877   4.014  1.0458 -1.0036  1.2496
  184SLPC  C31421129   1.300   5.051   3.896  0.1435  0.4270  0.7386
  184SLPC  H14X21130   1.200   5.081   3.858  0.5592  0.8426 -0.0651
  184SLPC  H14Y21131   1.368   5.078   3.811 -2.8410  1.3172 -1.5450
  184SLPC  C31521132   1.349   5.146   4.009  0.5795 -0.2814  1.1526
  184SLPC  H15X21133   1.300   5.128   4.107 -0.2006 -1.2536  0.5997
  184SLPC  H15Y21134   1.308   5.244   3.976  0.7199 -0.5334  0.1888
  184SLPC  C31621135   1.496   5.173   4.034 -0.4797  0.1280  0.0440
  184SLPC  H16X21136   1.557   5.179   3.942 -0.5136 -1.7777 -0.1426
  184SLPC  H16Y21137   1.530   5.085   4.094 -0.6683 -0.2002 -0.3241
  184SLPC  C31721138   1.525   5.303   4.121  0.3309  0.5398  0.1066
  184SLPC  H17X21139   1.486   5.397   4.076  2.2974  1.6203  0.5360
  184SLPC  H17Y21140   1.636   5.315   4.124  0.3834  0.7013 -1.4094
  184SLPC  C31821141   1.467   5.289   4.267  0.9856  0.3790  0.2003
  184SLPC  H18X21142   1.477   5.376   4.335 -1.7845 -1.0257  2.6277
  184SLPC  H18Y21143   1.504   5.194   4.310  2.9744  1.6406  1.4697
  184SLPC  H18Z21144   1.357   5.276   4.265  0.8407  0.5286  2.9455
  185POPC     N21145   1.934   5.638   6.615 -0.3685  0.8123 -0.8186
  185POPC   C1221146   2.016   5.640   6.484  0.2339 -0.3093 -0.1893
  185POPC  H12A21147   2.119   5.672   6.494  0.2842  0.3814 -2.3038
  185POPC  H12B21148   1.971   5.721   6.428  1.0155  0.4718  0.2721
  185POPC   C1321149   1.783   5.651   6.599 -0.5666 -0.1784 -0.0094
  185POPC  H13A21150   1.745   5.726   6.531 -0.9570 -2.4380 -2.4818
  185POPC  H13B21151   1.743   5.557   6.565 -0.6306 -0.1152 -0.1095
  185POPC  H13C21152   1.731   5.667   6.692 -1.1710 -1.3283 -0.1326
  185POPC   C1421153   1.956   5.521   6.711 -0.1899 -0.3502 -0.4073
  185POPC  H14A21154   1.900   5.534   6.802 -0.9931 -2.2976 -0.5816
  185POPC  H14B21155   1.902   5.439   6.665 -1.7294  0.8468 -0.8254
  185POPC  H14C21156   2.060   5.499   6.731 -0.1078  0.8656  0.6339
  185POPC   C1521157   1.974   5.763   6.693  0.2911 -0.0513  0.4792
  185POPC  H15A21158   2.082   5.764   6.701  0.3700  0.7220 -0.4669
  185POPC  H15B21159   1.937   5.740   6.792 -1.4947  1.2846  0.1675
  185POPC  H15C21160   1.933   5.853   6.652 -0.7991 -0.4468  0.6660
  185POPC   C1121161   2.011   5.524   6.383 -0.1364  0.9095  0.1798
  185POPC  H11A21162   2.043   5.437   6.444  2.1186  2.1122  0.7962
  185POPC  H11B21163   2.093   5.530   6.309 -1.3034  1.4451 -1.1091
  185POPC     P21164   1.822   5.601   6.211  0.2606 -0.1088  0.6854
  185POPC   O1321165   1.831   5.742   6.239  0.1370  0.5966 -0.4298
  185POPC   O1421166   1.681   5.555   6.192  0.2258 -0.3813  0.5347
  185POPC   O1221167   1.886   5.507   6.326 -0.2324 -0.0674 -0.9401
  185POPC   O1121168   1.908   5.577   6.083  0.0370  0.0229 -0.1962
  185POPC    C121169   1.968   5.448   6.067  0.3141  0.0608 -0.0362
  185POPC    HA21170   1.911   5.362   6.110  0.6087 -0.3878 -0.5342
  185POPC    HB21171   2.068   5.443   6.114  0.9898 -1.2026 -1.4900
  185POPC    C221172   1.991   5.426   5.915  0.0194  0.4285  0.8242
  185POPC    HS21173   2.037   5.326   5.898 -1.9204 -0.2387 -1.1140
  185POPC   O2121174   2.082   5.528   5.873 -0.2033  0.1472 -0.5736
  185POPC   C2121175   2.210   5.524   5.909 -0.2180 -0.5848 -0.4527
  185POPC   O2221176   2.262   5.430   5.964 -0.1448  0.1706 -0.1864
  185POPC   C2221177   2.275   5.646   5.850  0.0327 -0.3762 -0.3621
  185POPC   H2R21178   2.343   5.680   5.931 -1.0293 -1.2350  0.9433
  185POPC   H2S21179   2.201   5.727   5.830  0.7562  0.4067  0.0877
  185POPC    C321180   1.857   5.431   5.836  0.1950  0.1740  0.9842
  185POPC    HX21181   1.796   5.511   5.885  0.3313  1.3616 -0.7022
  185POPC    HY21182   1.797   5.338   5.840 -0.3402  0.2766 -2.1832
  185POPC   O3121183   1.883   5.472   5.694  0.3676  0.3412  0.2944
  185POPC   C3121184   1.922   5.375   5.613  0.8889  0.4900 -0.3183
  185POPC   O3221185   1.930   5.256   5.647 -0.1270 -0.0174 -0.5007
  185POPC   C3221186   1.952   5.422   5.479  0.3266 -0.6633  0.3227
  185POPC   H2X21187   2.014   5.514   5.488  0.3278 -0.3626 -2.0966
  185POPC   H2Y21188   1.851   5.446   5.440  0.4906  0.1471  0.3801
  185POPC   C2321189   2.347   5.624   5.718 -0.1360  0.5639  0.6111
  185POPC   H3R21190   2.437   5.559   5.731 -1.2060 -1.6545 -1.9802
  185POPC   H3S21191   2.385   5.722   5.682  0.8805  0.0828  0.3411
  185POPC   C2421192   2.261   5.566   5.609 -0.9419 -0.4153  0.1747
  185POPC   H4R21193   2.176   5.635   5.591  0.0443  0.4429 -1.4094
  185POPC   H4S21194   2.221   5.466   5.634 -0.3883 -0.5789  0.4236
  185POPC   C2521195   2.336   5.549   5.472 -0.2848 -0.1813 -0.0673
  185POPC   H5R21196   2.272   5.519   5.386 -0.8340 -1.1394  0.6586
  185POPC   H5S21197   2.418   5.475   5.477  1.3737  1.4291 -1.5373
  185POPC   C2621198   2.420   5.674   5.428 -0.1275  0.3068  0.0647
  185POPC   H6R21199   2.506   5.697   5.495  0.7591  1.7984 -1.5044
  185POPC   H6S21200   2.351   5.761   5.434  0.7250  1.0171 -0.1917
  185POPC   C2721201   2.467   5.672   5.281  0.0940  0.5294  0.0200
  185POPC   H7R21202   2.531   5.756   5.245  0.3410 -0.3672 -1.7519
  185POPC   H7S21203   2.371   5.670   5.225  0.3635 -0.3044 -0.4359
  185POPC   C2821204   2.546   5.548   5.237 -0.5618 -1.1390  0.0123
  185POPC   H8R21205   2.552   5.537   5.126  0.9894 -3.6203  0.2513
  185POPC   H8S21206   2.492   5.457   5.271 -1.7048 -0.4293  0.1322
  185POPC   C2921207   2.680   5.547   5.310 -0.3953 -0.0366  0.9329
  185POPC   H9121208   2.678   5.564   5.418  1.3041 -0.2948  1.0400
  185POPC  C21021209   2.795   5.502   5.259 -0.2590 -0.2710 -0.3368
  185POPC  H10121210   2.886   5.500   5.321  1.1820 -0.9218 -2.3611
  185POPC  C21121211   2.822   5.449   5.117  0.2608  0.0671  0.7840
  185POPC  H11R21212   2.729   5.465   5.057 -0.1387  0.1027  1.4020
  185POPC  H11S21213   2.823   5.338   5.117 -0.6665  0.0150 -1.1448
  185POPC  C21221214   2.942   5.509   5.051 -0.1396 -0.2621 -0.7411
  185POPC  H12R21215   3.033   5.489   5.112 -2.3625  0.5110  3.1499
  185POPC  H12S21216   2.938   5.620   5.051  1.7234  0.0521  3.7970
  185POPC  C21321217   2.964   5.456   4.909  0.2416  0.2362  0.7548
  185POPC  H13R21218   2.860   5.440   4.874 -0.2667  3.2417  0.6729
  185POPC  H13S21219   3.009   5.355   4.924  0.0008 -0.0559 -0.4139
  185POPC  C21421220   3.054   5.537   4.814  0.3424 -0.1075 -0.0889
  185POPC  H14R21221   3.150   5.548   4.869  0.7242  1.0041 -0.9557
  185POPC  H14S21222   3.012   5.639   4.803 -1.2279 -0.1734  3.6386
  185POPC  C21521223   3.073   5.469   4.678  0.2464 -0.0832  0.3967
  185POPC  H15R21224   2.970   5.453   4.637 -0.8263  1.3933  2.3459
  185POPC  H15S21225   3.125   5.374   4.703 -0.4595  0.0506  2.5268
  185POPC  C21621226   3.140   5.552   4.569 -0.3497  0.5992  0.6114
  185POPC  H16R21227   3.188   5.479   4.501  0.7915  0.1406  1.8760
  185POPC  H16S21228   3.214   5.619   4.618 -2.0911  1.5013  2.1441
  185POPC  C21721229   3.046   5.643   4.490 -0.3631 -0.4372 -0.1094
  185POPC  H17R21230   3.002   5.717   4.560  0.6828  0.0261  0.0792
  185POPC  H17S21231   2.972   5.585   4.431  1.3086 -1.3522 -1.4094
  185POPC  C21821232   3.122   5.738   4.404 -0.4291 -0.0178  0.0585
  185POPC  H18R21233   3.183   5.680   4.332 -0.5923 -1.0501  0.7221
  185POPC  H18S21234   3.199   5.796   4.460 -0.0670 -0.0007 -0.4557
  185POPC  H18T21235   3.060   5.818   4.359  2.3352  2.6495  0.6748
  185POPC   C3321236   2.031   5.326   5.388  0.1751  0.0314  0.2180
  185POPC   H3X21237   1.990   5.224   5.408 -0.1396 -0.5085 -2.6506
  185POPC   H3Y21238   2.133   5.322   5.430 -1.1523  0.5283  3.8515
  185POPC   C3421239   2.027   5.362   5.240 -0.3332 -0.0386  0.5747
  185POPC   H4X21240   2.037   5.473   5.238  0.1542 -0.0810 -0.8147
  185POPC   H4Y21241   1.928   5.332   5.200  0.1816 -1.5312  0.3723
  185POPC   C3521242   2.130   5.308   5.141  0.5930 -0.1070  0.3981
  185POPC   H5X21243   2.119   5.198   5.137  2.1679 -0.4341  2.9991
  185POPC   H5Y21244   2.230   5.339   5.179  0.9666 -3.3050  2.3411
  185POPC   C3621245   2.124   5.377   5.006 -0.0457 -0.4159 -0.2431
  185POPC   H6X21246   2.108   5.486   5.019 -1.4822 -0.6631  0.2495
  185POPC   H6Y21247   2.027   5.346   4.963 -0.7345  1.0414  0.2126
  185POPC   C3721248   2.246   5.339   4.913  0.0427 -0.1296  0.5393
  185POPC   H7X21249   2.247   5.229   4.905 -4.1373 -0.2781 -0.2677
  185POPC   H7Y21250   2.343   5.381   4.948  0.4439  2.6862 -3.2601
  185POPC   C3821251   2.236   5.397   4.773  0.0447 -0.3619 -0.2040
  185POPC   H8X21252   2.327   5.372   4.714 -0.6988 -0.9900 -1.1360
  185POPC   H8Y21253   2.229   5.506   4.794 -2.0268 -1.0183  3.3313
  185POPC   C3921254   2.117   5.333   4.697 -0.8911 -0.0491 -0.1181
  185POPC   H9X21255   2.100   5.390   4.604 -2.7022  3.2483  2.0109
  185POPC   H9Y21256   2.023   5.350   4.755 -1.7735 -1.4825 -1.0528
  185POPC  C31021257   2.129   5.183   4.666  0.2484  0.0189 -0.2641
  185POPC  H10X21258   2.136   5.132   4.764  0.5177 -0.2032 -0.4009
  185POPC  H10Y21259   2.230   5.166   4.625  0.6703 -0.9773  1.1194
  185POPC  C31121260   2.015   5.118   4.575 -0.5059 -0.5703 -0.1021
  185POPC  H11X21261   1.920   5.116   4.632  0.1403  0.3156  1.0539
  185POPC  H11Y21262   2.044   5.013   4.551 -0.0591 -0.5418  0.3001
  185POPC  C31221263   1.990   5.194   4.440  0.2558  0.5150 -0.2493
  185POPC  H12X21264   2.085   5.201   4.383  0.1645  2.4181 -0.2527
  185POPC  H12Y21265   1.949   5.297   4.453  3.0090  2.3099 -3.9206
  185POPC  C31321266   1.900   5.111   4.352 -0.0527 -0.3445  0.2422
  185POPC  H13X21267   1.810   5.082   4.410 -0.5172 -0.4926 -0.5403
  185POPC  H13Y21268   1.950   5.018   4.315  0.9732  0.6591 -0.9810
  185POPC  C31421269   1.851   5.181   4.222  0.3807 -0.0574 -0.0856
  185POPC  H14X21270   1.831   5.289   4.243  2.0850  0.2375  0.1989
  185POPC  H14Y21271   1.749   5.142   4.208 -0.8761  1.5790  3.2729
  185POPC  C31521272   1.943   5.166   4.105 -0.2834 -0.5867  0.1786
  185POPC  H15X21273   1.968   5.059   4.095  1.1191 -0.4140  1.4550
  185POPC  H15Y21274   2.037   5.224   4.121  0.1076 -1.0399 -0.4318
  185POPC  C31621275   1.887   5.211   3.971 -0.2625 -0.6247 -0.8015
  185POPC  H16X21276   1.961   5.256   3.901 -0.1897  2.1580  0.9155
  185POPC  H16Y21277   1.816   5.292   3.998  1.0139 -0.6013  3.1106
  185POPC  H16Z21278   1.831   5.132   3.917  1.0871 -0.8640 -1.9298
  186POPC     N21279   4.297   1.185   7.020 -0.1767  1.0480  0.0001
  186POPC   C1221280   4.227   1.192   6.890 -0.1411  0.1995  0.7686
  186POPC  H12A21281   4.248   1.104   6.830 -1.5187  0.1785  0.3056
  186POPC  H12B21282   4.264   1.274   6.832  0.5287 -0.2903  0.4836
  186POPC   C1321283   4.265   1.309   7.101  0.0897 -0.0881 -0.2320
  186POPC  H13A21284   4.309   1.399   7.059 -0.6396  0.9218  1.0817
  186POPC  H13B21285   4.159   1.324   7.114  0.5668  1.2151  3.0219
  186POPC  H13C21286   4.298   1.312   7.203 -0.5738  0.3664 -0.0208
  186POPC   C1421287   4.256   1.064   7.106  0.3417  0.2893  0.3745
  186POPC  H14A21288   4.329   1.050   7.184 -1.0887  1.5577  2.0123
  186POPC  H14B21289   4.157   1.076   7.147  0.5243  1.5694  0.4756
  186POPC  H14C21290   4.248   0.973   7.049  1.3016  1.4275 -1.7089
  186POPC   C1521291   4.446   1.173   7.002 -0.3508 -0.7526  0.7003
  186POPC  H15A21292   4.482   1.255   6.941  2.0618 -0.7876  1.9624
  186POPC  H15B21293   4.464   1.081   6.948 -0.9069 -1.2741  1.3921
  186POPC  H15C21294   4.483   1.179   7.103 -0.7346 -0.0349  0.8057
  186POPC   C1121295   4.068   1.202   6.890  0.3118 -0.2382  0.4978
  186POPC  H11A21296   4.052   1.154   6.988 -0.3130  0.9163  0.9878
  186POPC  H11B21297   4.014   1.142   6.814  0.5806  0.4795 -0.2840
  186POPC     P21298   4.040   1.443   6.793 -0.3096  0.1581  0.0770
  186POPC   O1321299   4.182   1.476   6.780 -0.7676  0.1728 -0.2284
  186POPC   O1421300   3.947   1.553   6.822  0.0315  0.0689 -0.2978
  186POPC   O1221301   4.016   1.331   6.898 -0.3468 -0.6036 -0.2382
  186POPC   O1121302   3.996   1.380   6.659 -0.4180  0.7844 -0.0136
  186POPC    C121303   4.098   1.356   6.559  0.2426 -0.3748  0.6024
  186POPC    HA21304   4.059   1.274   6.494  1.5159  1.0291 -2.0960
  186POPC    HB21305   4.201   1.337   6.594  0.0515 -1.2563  0.7043
  186POPC    C221306   4.108   1.483   6.467  0.2701  0.1638  0.3764
  186POPC    HS21307   4.130   1.557   6.546 -0.7582  0.1564  0.6814
  186POPC   O2121308   3.978   1.504   6.402 -0.2276  0.3111 -0.9765
  186POPC   C2121309   3.958   1.629   6.361  0.2853 -0.3494 -0.0291
  186POPC   O2221310   4.034   1.720   6.382  0.0212  0.0469  0.2034
  186POPC   C2221311   3.840   1.627   6.266  0.5994 -0.3285  0.6712
  186POPC   H2R21312   3.810   1.733   6.255 -1.5246 -1.0667 -1.5301
  186POPC   H2S21313   3.757   1.560   6.297 -0.6425  0.4937 -0.7577
  186POPC    C321314   4.225   1.461   6.366  0.4095 -0.0316 -0.1755
  186POPC    HX21315   4.319   1.444   6.422 -0.2032 -2.3996  0.2599
  186POPC    HY21316   4.231   1.558   6.313 -4.1240  0.0984 -0.8819
  186POPC   O3121317   4.193   1.358   6.272  0.3120 -0.2202 -0.4659
  186POPC   C3121318   4.299   1.294   6.221  0.3738  0.0671  0.1532
  186POPC   O3221319   4.414   1.317   6.253 -0.0848  0.4652 -0.2868
  186POPC   C3221320   4.245   1.212   6.108 -0.5309  0.6798  0.2295
  186POPC   H2X21321   4.157   1.259   6.058 -1.2775 -1.6867 -0.8441
  186POPC   H2Y21322   4.210   1.114   6.149 -1.6072  0.9149 -0.0775
  186POPC   C2321323   3.888   1.572   6.132 -0.2312 -0.4919  0.2513
  186POPC   H3R21324   3.807   1.535   6.065 -0.8976  1.8123 -0.3198
  186POPC   H3S21325   3.952   1.483   6.150  0.8708  0.1502 -0.4011
  186POPC   C2421326   3.951   1.681   6.044  0.4959 -0.2676 -0.7317
  186POPC   H4R21327   4.039   1.733   6.087  0.9136 -0.9419 -0.7720
  186POPC   H4S21328   3.882   1.768   6.031  2.2397  0.8784 -3.0589
  186POPC   C2521329   3.985   1.637   5.896  0.6304  0.0871 -0.3479
  186POPC   H5R21330   3.885   1.631   5.848  0.2662 -1.0339  0.5118
  186POPC   H5S21331   4.042   1.541   5.893 -0.4962 -0.7683  2.4059
  186POPC   C2621332   4.068   1.732   5.809 -0.1760 -0.0759  0.0800
  186POPC   H6R21333   4.171   1.710   5.845  0.5085 -1.1460 -2.3249
  186POPC   H6S21334   4.046   1.836   5.843  1.4606  0.1312  0.5891
  186POPC   C2721335   4.056   1.720   5.660  0.1104 -0.3262 -0.0847
  186POPC   H7R21336   4.102   1.815   5.626 -0.0271  0.0478  0.7568
  186POPC   H7S21337   3.952   1.712   5.620 -0.1343  0.8700  0.2494
  186POPC   C2821338   4.130   1.602   5.600  0.6737 -0.5178 -0.9027
  186POPC   H8R21339   4.086   1.510   5.645  1.0269  0.0247  0.5753
  186POPC   H8S21340   4.236   1.597   5.633 -0.2951  0.8211  2.8286
  186POPC   C2921341   4.121   1.608   5.455 -0.0368 -0.4279  0.8096
  186POPC   H9121342   4.042   1.552   5.402 -1.9364  1.0463  1.9471
  186POPC  C21021343   4.211   1.679   5.380  0.6236 -0.0752 -0.7423
  186POPC  H10121344   4.197   1.692   5.272 -0.8609 -0.7216 -0.6496
  186POPC  C21121345   4.311   1.777   5.430  0.7149  0.0932 -0.5702
  186POPC  H11R21346   4.279   1.814   5.530  0.6899 -1.0447 -0.1467
  186POPC  H11S21347   4.307   1.852   5.347 -1.5399  0.6820 -0.0133
  186POPC  C21221348   4.455   1.726   5.453  0.1238  0.6061 -0.6179
  186POPC  H12R21349   4.490   1.672   5.363 -0.9618  0.5608 -1.0318
  186POPC  H12S21350   4.464   1.652   5.535  1.7773 -0.0941 -1.3906
  186POPC  C21321351   4.556   1.834   5.492 -0.2396  0.2744 -0.7151
  186POPC  H13R21352   4.639   1.785   5.548 -0.7289  1.1436  0.8609
  186POPC  H13S21353   4.506   1.886   5.577  1.9401 -0.6896  1.2889
  186POPC  C21421354   4.609   1.915   5.373  0.4028  0.4231  0.3185
  186POPC  H14R21355   4.631   2.020   5.400  1.3524  0.4188 -0.3609
  186POPC  H14S21356   4.532   1.908   5.293  0.9358  0.8841 -0.2438
  186POPC  C21521357   4.738   1.865   5.302 -0.0315 -0.2277 -0.1330
  186POPC  H15R21358   4.835   1.889   5.351  0.6163 -2.0209 -0.4676
  186POPC  H15S21359   4.747   1.930   5.213  1.2332  1.7022  1.3172
  186POPC  C21621360   4.730   1.716   5.258  0.1079 -0.1268 -0.0579
  186POPC  H16R21361   4.640   1.703   5.194 -1.2962 -1.8174  2.1022
  186POPC  H16S21362   4.703   1.651   5.344 -3.8444  1.5523  0.1940
  186POPC  C21721363   4.850   1.680   5.177 -0.4279 -0.1976 -0.0896
  186POPC  H17R21364   4.932   1.693   5.251 -0.6979 -0.7840  0.3185
  186POPC  H17S21365   4.858   1.755   5.095 -0.9918  0.0006  0.0366
  186POPC  C21821366   4.864   1.534   5.128 -0.3483  0.5461 -0.3563
  186POPC  H18R21367   4.824   1.472   5.211 -0.4783 -0.0035 -0.8274
  186POPC  H18S21368   4.971   1.512   5.111 -0.4662  1.6377 -2.9047
  186POPC  H18T21369   4.803   1.512   5.038  0.3735 -1.6427 -0.3699
  186POPC   C3321370   4.350   1.211   5.995 -0.6612  0.0119  0.2379
  186POPC   H3X21371   4.324   1.128   5.925 -0.4387  0.5076 -0.4365
  186POPC   H3Y21372   4.444   1.176   6.044 -0.2600  1.9531  0.9388
  186POPC   C3421373   4.377   1.331   5.906  0.3269  0.2570 -0.2317
  186POPC   H4X21374   4.408   1.410   5.978 -1.1600 -0.6715  1.5052
  186POPC   H4Y21375   4.280   1.361   5.862  1.4351  1.9997 -1.6156
  186POPC   C3521376   4.472   1.306   5.790 -0.1288 -0.0687 -0.0493
  186POPC   H5X21377   4.431   1.225   5.726 -1.4762  1.1455 -0.7991
  186POPC   H5Y21378   4.576   1.273   5.811  0.8253 -0.1094 -4.0926
  186POPC   C3621379   4.475   1.423   5.687 -0.5411 -0.2733 -0.3476
  186POPC   H6X21380   4.520   1.510   5.739 -0.9344  0.0331 -0.5174
  186POPC   H6Y21381   4.376   1.439   5.641 -0.5986 -1.3145 -0.6149
  186POPC   C3721382   4.578   1.388   5.581 -0.6206 -0.7934  0.3763
  186POPC   H7X21383   4.680   1.408   5.619  0.2161 -0.0699 -2.0075
  186POPC   H7Y21384   4.563   1.468   5.505  1.0324 -0.7577  0.0551
  186POPC   C3821385   4.559   1.253   5.517  0.1446 -0.4953 -0.2208
  186POPC   H8X21386   4.450   1.246   5.495 -0.4707  3.1285  1.0360
  186POPC   H8Y21387   4.593   1.173   5.586  2.0231  0.1988 -0.2807
  186POPC   C3921388   4.642   1.235   5.388 -0.5932 -0.2724 -0.0317
  186POPC   H9X21389   4.751   1.240   5.410 -0.7865 -2.3807  1.7106
  186POPC   H9Y21390   4.619   1.326   5.329  2.9900  1.9499  1.6615
  186POPC  C31021391   4.612   1.111   5.304  0.2266  0.5338  0.6476
  186POPC  H10X21392   4.505   1.104   5.273  0.8198 -4.0448 -1.2498
  186POPC  H10Y21393   4.617   1.023   5.371 -2.4215 -0.3764 -0.1968
  186POPC  C31121394   4.719   1.093   5.191  0.0719  0.1540 -0.7665
  186POPC  H11X21395   4.701   0.995   5.142  0.7420  0.3280 -1.3754
  186POPC  H11Y21396   4.821   1.088   5.234  0.3502  1.2735 -1.2411
  186POPC  C31221397   4.724   1.210   5.084  0.1155  0.6081 -0.1471
  186POPC  H12X21398   4.763   1.303   5.129 -0.6118  1.7308 -1.7554
  186POPC  H12Y21399   4.620   1.241   5.058 -0.1820 -1.0422 -1.0512
  186POPC  C31321400   4.801   1.166   4.962 -0.2882  0.5069 -0.2060
  186POPC  H13X21401   4.776   1.063   4.926 -0.2761  0.1914  0.6763
  186POPC  H13Y21402   4.908   1.161   4.989 -0.3642 -0.1355 -0.0008
  186POPC  C31421403   4.768   1.265   4.842  0.5259  0.0274 -0.7522
  186POPC  H14X21404   4.776   1.372   4.871 -1.1995  0.6476 -2.3821
  186POPC  H14Y21405   4.660   1.245   4.823  0.2171  0.3989  0.4793
  186POPC  C31521406   4.850   1.241   4.711 -0.0047  0.4029 -0.0126
  186POPC  H15X21407   4.816   1.138   4.687  2.1539 -0.1521 -0.9504
  186POPC  H15Y21408   4.957   1.261   4.735  0.5544 -0.2140 -1.8057
  186POPC  C31621409   4.809   1.339   4.607  0.5777 -0.1854  0.0644
  186POPC  H16X21410   4.845   1.439   4.641 -0.8780  1.4402 -2.7154
  186POPC  H16Y21411   4.698   1.338   4.604  0.3650  2.0368  3.0313
  186POPC  H16Z21412   4.857   1.332   4.507  0.9809  1.2307  0.1373
  187POPC     N21413   6.837   2.291   1.573  0.6191  0.2737  0.1606
  187POPC   C1221414   6.747   2.350   1.686 -0.2250  0.0913 -0.0872
  187POPC  H12A21415   6.646   2.313   1.671 -0.0148 -0.1121 -1.0580
  187POPC  H12B21416   6.746   2.456   1.664  1.3620  0.0678 -0.3755
  187POPC   C1321417   6.809   2.142   1.558 -0.7477 -0.1135  0.4055
  187POPC  H13A21418   6.869   2.104   1.477 -0.3802 -1.3319  1.2214
  187POPC  H13B21419   6.842   2.101   1.652 -0.5745  0.9171  0.8170
  187POPC  H13C21420   6.705   2.117   1.543 -0.5368 -0.8985  0.2497
  187POPC   C1421421   6.787   2.354   1.450 -0.1253 -0.5291  0.2516
  187POPC  H14A21422   6.833   2.307   1.365 -0.2067  0.7375 -0.5229
  187POPC  H14B21423   6.679   2.347   1.443 -0.0882 -1.0515  0.1323
  187POPC  H14C21424   6.830   2.451   1.434  0.1582 -0.9005 -1.3495
  187POPC   C1521425   6.981   2.321   1.598  0.3478 -0.7279 -0.8307
  187POPC  H15A21426   6.993   2.325   1.705  1.8169  0.0972 -1.0071
  187POPC  H15B21427   7.006   2.419   1.560 -0.0422 -0.6910 -1.0079
  187POPC  H15C21428   7.046   2.252   1.547  2.8506 -0.3728  1.6359
  187POPC   C1121429   6.787   2.337   1.837 -0.3899 -0.6245  0.1124
  187POPC  H11A21430   6.699   2.386   1.885 -0.5317  0.4784 -1.2249
  187POPC  H11B21431   6.885   2.385   1.856  0.1070 -0.7920 -1.8358
  187POPC     P21432   6.675   2.116   1.913  0.0649 -0.0215 -0.2875
  187POPC   O1321433   6.699   1.973   1.900  0.8070  0.2783 -0.5955
  187POPC   O1421434   6.558   2.163   1.844  0.3566 -0.1053  0.1957
  187POPC   O1221435   6.802   2.201   1.867  0.0901  0.0850 -0.6405
  187POPC   O1121436   6.653   2.149   2.067 -0.1244  0.5532  0.1389
  187POPC    C121437   6.763   2.214   2.141 -0.7002  0.1095 -0.3335
  187POPC    HA21438   6.769   2.322   2.119  1.8265 -0.3842 -2.5849
  187POPC    HB21439   6.864   2.177   2.115 -0.6191 -0.6325  0.9236
  187POPC    C221440   6.740   2.199   2.298  0.7388  0.6651  0.0402
  187POPC    HS21441   6.828   2.247   2.346  0.3506  0.6409  0.7963
  187POPC   O2121442   6.739   2.053   2.329  0.2045  0.4725 -0.4869
  187POPC   C2121443   6.753   2.023   2.457  1.0102  0.4330  0.0984
  187POPC   O2221444   6.797   2.091   2.543 -0.0460  0.6975 -0.0690
  187POPC   C2221445   6.667   1.902   2.495  0.1587 -0.0363  0.1239
  187POPC   H2R21446   6.561   1.903   2.459 -0.0431 -1.6479  0.6024
  187POPC   H2S21447   6.664   1.901   2.606 -2.1242 -3.3728  0.1833
  187POPC    C321448   6.614   2.273   2.341 -0.5260 -0.0119  0.2405
  187POPC    HX21449   6.514   2.237   2.309 -1.8203  3.4742 -0.0850
  187POPC    HY21450   6.622   2.371   2.291  2.4640  0.8235  2.0661
  187POPC   O3121451   6.616   2.305   2.484  0.3979 -0.2370  0.0740
  187POPC   C3121452   6.528   2.240   2.562  0.1509  0.4030 -0.6475
  187POPC   O3221453   6.449   2.149   2.537 -0.0938 -0.6532  0.4247
  187POPC   C3221454   6.522   2.305   2.698 -0.0381 -0.4013 -0.9378
  187POPC   H2X21455   6.434   2.268   2.755  0.3719 -0.1731 -0.1433
  187POPC   H2Y21456   6.498   2.414   2.696  1.0125 -0.1355  0.1682
  187POPC   C2321457   6.745   1.777   2.471 -0.3368 -0.2713  1.0163
  187POPC   H3R21458   6.853   1.805   2.475 -1.0376  3.4705 -1.2665
  187POPC   H3S21459   6.720   1.752   2.366  0.7977  1.0584  0.3976
  187POPC   C2421460   6.708   1.646   2.544 -0.1050 -0.1538 -0.0533
  187POPC   H4R21461   6.600   1.627   2.523 -0.1977  1.9611 -1.8954
  187POPC   H4S21462   6.727   1.672   2.650 -0.3676  0.8178 -0.2283
  187POPC   C2521463   6.785   1.520   2.498 -0.3100 -0.5509 -0.5370
  187POPC   H5R21464   6.879   1.547   2.445 -1.5802  2.1530 -1.6164
  187POPC   H5S21465   6.722   1.453   2.437  0.1750 -1.7572  0.2543
  187POPC   C2621466   6.810   1.417   2.613 -0.7417 -0.2675  0.4353
  187POPC   H6R21467   6.890   1.454   2.681 -1.0113 -2.6186  2.1660
  187POPC   H6S21468   6.853   1.324   2.568 -0.6041  0.5548 -1.2009
  187POPC   C2721469   6.690   1.384   2.698  0.0230  0.4360 -0.1855
  187POPC   H7R21470   6.604   1.363   2.632  2.1555 -3.4008 -2.0724
  187POPC   H7S21471   6.659   1.469   2.762 -1.9306 -1.4024  1.4728
  187POPC   C2821472   6.710   1.256   2.781 -0.2773  0.7544 -0.1815
  187POPC   H8R21473   6.759   1.172   2.727 -0.1980  0.6106  0.1086
  187POPC   H8S21474   6.604   1.226   2.795  0.5672 -2.7390 -0.3277
  187POPC   C2921475   6.779   1.267   2.914 -0.5434  0.0116 -0.4194
  187POPC   H9121476   6.887   1.248   2.912 -0.4991  0.3132 -0.9749
  187POPC  C21021477   6.715   1.293   3.031  0.1088  0.4792 -0.0677
  187POPC  H10121478   6.774   1.271   3.121  0.4002 -1.5193 -0.7157
  187POPC  C21121479   6.571   1.325   3.048 -0.4280  0.6741 -0.2294
  187POPC  H11R21480   6.533   1.239   3.108  0.4881 -0.2053 -0.8790
  187POPC  H11S21481   6.521   1.313   2.950 -0.6189  1.9570 -0.3034
  187POPC  C21221482   6.553   1.471   3.093 -0.5578 -0.0626  0.0250
  187POPC  H12R21483   6.451   1.502   3.063 -0.2505  1.1884  0.1910
  187POPC  H12S21484   6.612   1.526   3.017  0.3180 -2.5547 -1.2013
  187POPC  C21321485   6.592   1.505   3.235  0.3684 -0.3943 -0.2717
  187POPC  H13R21486   6.595   1.616   3.249  0.3585 -0.3436 -0.6739
  187POPC  H13S21487   6.696   1.471   3.250  0.8449  0.4529 -1.4920
  187POPC  C21421488   6.513   1.445   3.352 -0.3927  1.0518  1.1384
  187POPC  H14R21489   6.488   1.338   3.333 -0.5172  1.3685 -0.6559
  187POPC  H14S21490   6.414   1.495   3.350 -0.5850  0.6622 -0.1322
  187POPC  C21521491   6.577   1.476   3.486  0.0782 -0.1422  0.9864
  187POPC  H15R21492   6.601   1.584   3.493 -5.2089  1.5896 -1.7675
  187POPC  H15S21493   6.665   1.409   3.487  0.8736  0.8890  1.6415
  187POPC  C21621494   6.470   1.434   3.594 -0.6689 -1.2589 -0.4072
  187POPC  H16R21495   6.513   1.434   3.697  1.5671  0.4298 -1.2496
  187POPC  H16S21496   6.433   1.333   3.568 -0.8616 -1.1692 -0.4817
  187POPC  C21721497   6.349   1.531   3.601  0.3042  0.6566  0.4582
  187POPC  H17R21498   6.277   1.505   3.520  0.1449  1.5748  0.2989
  187POPC  H17S21499   6.386   1.635   3.600 -0.1904  0.8855 -2.6127
  187POPC  C21821500   6.273   1.504   3.734 -0.3606  0.3408 -0.0523
  187POPC  H18R21501   6.189   1.574   3.747 -1.7472 -1.3005  0.1365
  187POPC  H18S21502   6.337   1.510   3.825  0.1648 -0.1738 -0.3784
  187POPC  H18T21503   6.224   1.405   3.723  0.0853  0.3180 -2.6421
  187POPC   C3321504   6.645   2.275   2.785  0.4513 -0.1501 -0.0733
  187POPC   H3X21505   6.738   2.309   2.735 -0.1916  1.3187 -0.3060
  187POPC   H3Y21506   6.650   2.164   2.779 -0.0164 -0.2246  0.8391
  187POPC   C3421507   6.631   2.312   2.930  0.6723 -0.7766  0.0360
  187POPC   H4X21508   6.533   2.282   2.973  1.4242 -4.5807 -0.5809
  187POPC   H4Y21509   6.642   2.423   2.931 -1.6761 -0.4700 -0.3733
  187POPC   C3521510   6.729   2.241   3.021 -0.5913  0.5032 -0.0866
  187POPC   H5X21511   6.828   2.234   2.971  0.4888  0.1040  1.9714
  187POPC   H5Y21512   6.706   2.133   3.038  1.6995 -0.0401 -0.1093
  187POPC   C3621513   6.739   2.311   3.162  0.6330 -0.7426  0.8959
  187POPC   H6X21514   6.635   2.323   3.200  0.4653  0.8756 -0.0064
  187POPC   H6Y21515   6.789   2.409   3.152  1.2547 -1.2009 -1.0872
  187POPC   C3721516   6.820   2.232   3.257 -0.5854 -0.0447 -0.4791
  187POPC   H7X21517   6.926   2.237   3.224  0.0696  2.2407  1.6524
  187POPC   H7Y21518   6.780   2.130   3.276 -1.3376  0.3735  0.2170
  187POPC   C3821519   6.827   2.278   3.401  0.6528 -0.5635  0.2888
  187POPC   H8X21520   6.724   2.286   3.443 -0.0420  3.0952 -1.6514
  187POPC   H8Y21521   6.867   2.381   3.409 -0.2469 -0.2424  0.7780
  187POPC   C3921522   6.910   2.187   3.494 -0.1593  0.8533  0.3970
  187POPC   H9X21523   7.020   2.195   3.488  0.2546 -0.4003  3.8080
  187POPC   H9Y21524   6.883   2.081   3.474  0.4774  0.9388 -1.0250
  187POPC  C31021525   6.885   2.218   3.643 -0.5927 -0.5263 -0.3331
  187POPC  H10X21526   6.787   2.172   3.669  0.0793 -0.8850  1.7403
  187POPC  H10Y21527   6.868   2.326   3.668 -1.4572 -0.9815  1.2328
  187POPC  C31121528   6.991   2.173   3.736 -0.2257 -0.0026 -0.2503
  187POPC  H11X21529   7.088   2.190   3.684  0.3496 -0.0929  0.7588
  187POPC  H11Y21530   6.984   2.067   3.766  2.8409 -0.3832 -0.6239
  187POPC  C31221531   6.984   2.246   3.869  0.3462  0.0228  0.0313
  187POPC  H12X21532   6.882   2.251   3.913  0.3845  0.2908  0.0921
  187POPC  H12Y21533   7.015   2.350   3.844 -1.8881  1.5355  2.9192
  187POPC  C31321534   7.069   2.170   3.972 -0.1280 -0.4438 -0.0464
  187POPC  H13X21535   7.172   2.158   3.933 -0.2308 -0.6936 -0.2380
  187POPC  H13Y21536   7.037   2.065   3.985  0.3248 -0.6429 -0.4868
  187POPC  C31421537   7.079   2.245   4.107 -0.1932  0.5809 -0.2466
  187POPC  H14X21538   7.052   2.351   4.087 -1.0110  0.6385  1.0105
  187POPC  H14Y21539   7.183   2.241   4.146 -0.0085  2.9243 -0.3701
  187POPC  C31521540   6.989   2.197   4.221 -0.4871  0.6109 -0.5098
  187POPC  H15X21541   6.881   2.196   4.197 -0.5920 -0.5350 -0.0493
  187POPC  H15Y21542   6.997   2.287   4.286 -0.7068 -0.2554  0.7675
  187POPC  C31621543   7.031   2.060   4.276 -0.1000 -0.4551  0.3581
  187POPC  H16X21544   7.140   2.078   4.288 -0.1371  1.0358 -1.1413
  187POPC  H16Y21545   7.010   1.970   4.215  3.0472 -2.3882  1.8658
  187POPC  H16Z21546   6.977   2.032   4.369 -2.1727 -0.0902 -0.6776
  188POPC     N21547   6.573   6.617   2.282  0.1271  0.4789  0.5186
  188POPC   C1221548   6.511   6.550   2.410 -0.7275 -0.1085  1.1866
  188POPC  H12A21549   6.407   6.531   2.389 -0.2008 -1.0298 -0.8069
  188POPC  H12B21550   6.519   6.621   2.491 -0.4549 -0.5187  1.5244
  188POPC   C1321551   6.556   6.514   2.172 -0.1799  0.2281  0.1192
  188POPC  H13A21552   6.607   6.533   2.079 -0.0331  2.2499  0.5469
  188POPC  H13B21553   6.588   6.418   2.208 -0.2791 -0.3278 -1.2207
  188POPC  H13C21554   6.452   6.500   2.147  0.2997 -1.3960 -1.1259
  188POPC   C1421555   6.500   6.741   2.241 -0.2264  0.0284 -0.0306
  188POPC  H14A21556   6.396   6.714   2.241 -0.1859 -0.1289 -0.2052
  188POPC  H14B21557   6.517   6.825   2.306  0.9850  0.8828 -1.3749
  188POPC  H14C21558   6.536   6.773   2.144  0.3913 -2.1886 -0.5968
  188POPC   C1521559   6.719   6.648   2.300 -0.8060  0.1665  0.7435
  188POPC  H15A21560   6.762   6.688   2.210  0.4450 -0.8500  0.8580
  188POPC  H15B21561   6.780   6.561   2.320  1.3934  1.2296 -0.9479
  188POPC  H15C21562   6.725   6.721   2.379 -1.0907  0.3844  0.5656
  188POPC   C1121563   6.571   6.415   2.464  0.6797 -0.2406  0.0335
  188POPC  H11A21564   6.531   6.408   2.567 -2.4440  1.1264 -0.9703
  188POPC  H11B21565   6.681   6.432   2.469  0.8575 -1.0776 -0.9012
  188POPC     P21566   6.403   6.242   2.365  0.0498  0.0104  0.5183
  188POPC   O1321567   6.413   6.131   2.270  0.8070 -0.1038 -1.1709
  188POPC   O1421568   6.308   6.346   2.328 -0.0964  0.6687  0.3059
  188POPC   O1221569   6.545   6.308   2.379  1.0158  0.0158 -0.4947
  188POPC   O1121570   6.377   6.196   2.516  0.0785 -0.5145  0.0305
  188POPC    C121571   6.471   6.115   2.587  0.1561  0.1811 -0.3476
  188POPC    HA21572   6.575   6.118   2.547  0.9660  0.8304  1.6838
  188POPC    HB21573   6.438   6.010   2.576 -1.1480  0.6577 -1.1318
  188POPC    C221574   6.487   6.161   2.729  1.1626 -0.1322  0.2540
  188POPC    HS21575   6.567   6.238   2.724  0.5483  0.4283 -1.1675
  188POPC   O2121576   6.507   6.046   2.815  0.0361 -0.7179 -0.2042
  188POPC   C2121577   6.626   6.012   2.842 -0.9823  0.8597 -0.0355
  188POPC   O2221578   6.728   6.061   2.791  0.0242 -0.3429 -0.1087
  188POPC   C2221579   6.623   5.903   2.956 -0.0718  0.3199 -0.2668
  188POPC   H2R21580   6.601   5.805   2.909 -0.7777 -0.4217  1.5241
  188POPC   H2S21581   6.542   5.915   3.031 -0.0311 -0.9462 -0.0052
  188POPC    C321582   6.363   6.235   2.776 -0.0168  0.3664  0.0705
  188POPC    HX21583   6.277   6.172   2.744  0.2200  1.6538 -3.4481
  188POPC    HY21584   6.345   6.328   2.718  1.4172 -0.4804 -1.8314
  188POPC   O3121585   6.360   6.252   2.915 -0.5604 -0.2354  0.4416
  188POPC   C3121586   6.248   6.219   2.990 -0.0092  0.4791  0.4708
  188POPC   O3221587   6.147   6.173   2.947  0.5825 -0.4664 -0.5185
  188POPC   C3221588   6.275   6.265   3.127 -0.1746  0.5330 -0.2496
  188POPC   H2X21589   6.246   6.372   3.136  0.8504  0.7698  0.3196
  188POPC   H2Y21590   6.384   6.258   3.148 -0.5442  0.4077  1.8175
  188POPC   C2321591   6.767   5.879   3.015  0.4740 -0.0231 -0.0555
  188POPC   H3R21592   6.798   5.970   3.070 -2.2610  1.1471 -0.2735
  188POPC   H3S21593   6.845   5.858   2.939 -2.0459  0.1187 -2.8857
  188POPC   C2421594   6.777   5.765   3.118 -0.0721 -0.7486 -0.4571
  188POPC   H4R21595   6.882   5.729   3.115  0.0756 -0.3025 -1.2965
  188POPC   H4S21596   6.711   5.687   3.075 -0.6920 -0.1802 -0.5569
  188POPC   C2521597   6.721   5.807   3.251  0.5379  0.0992 -0.1660
  188POPC   H5R21598   6.697   5.717   3.311  1.7610  1.2150  2.1332
  188POPC   H5S21599   6.632   5.873   3.244  0.5008  0.2805  1.5587
  188POPC   C2621600   6.819   5.884   3.343  0.0906  0.2527 -0.4167
  188POPC   H6R21601   6.858   5.975   3.292  2.0042 -0.2588  0.0574
  188POPC   H6S21602   6.913   5.826   3.356 -0.7031 -0.5680  2.1666
  188POPC   C2721603   6.747   5.932   3.478  0.6494 -0.1706 -0.3005
  188POPC   H7R21604   6.696   5.844   3.523 -1.7068  0.3224 -1.8631
  188POPC   H7S21605   6.678   6.010   3.441 -0.0877 -1.0929 -0.9106
  188POPC   C2821606   6.852   5.997   3.571  0.7888 -0.5013  0.0231
  188POPC   H8R21607   6.882   6.088   3.514 -2.3684  1.4003  1.0830
  188POPC   H8S21608   6.941   5.931   3.580  0.8787 -0.6267 -1.6150
  188POPC   C2921609   6.790   6.034   3.705  0.2279  0.1522 -0.0168
  188POPC   H9121610   6.787   5.948   3.774 -2.5139  0.2367  0.0780
  188POPC  C21021611   6.733   6.152   3.742 -0.4380  0.2352 -0.4273
  188POPC  H10121612   6.698   6.150   3.846  1.0257 -3.8459  0.1820
  188POPC  C21121613   6.739   6.284   3.665  0.2295  0.0093  0.0535
  188POPC  H11R21614   6.774   6.254   3.564 -0.2352 -2.2129  0.4958
  188POPC  H11S21615   6.812   6.359   3.701 -2.0867  1.8762  1.1781
  188POPC  C21221616   6.607   6.358   3.649 -0.4509 -0.1935 -0.0658
  188POPC  H12R21617   6.522   6.292   3.623 -0.8208 -0.4550  1.7072
  188POPC  H12S21618   6.617   6.439   3.573 -0.7058  0.9096  1.0397
  188POPC  C21321619   6.581   6.436   3.779 -0.1737  0.1545  0.5314
  188POPC  H13R21620   6.672   6.494   3.805  0.2473  0.6307 -1.7318
  188POPC  H13S21621   6.570   6.360   3.859  1.2936 -2.1602 -1.3232
  188POPC  C21421622   6.463   6.541   3.769 -0.3128 -0.5424  0.3370
  188POPC  H14R21623   6.450   6.581   3.872 -3.4786  1.1423 -0.5930
  188POPC  H14S21624   6.367   6.491   3.743 -1.1389  0.8175  0.6911
  188POPC  C21521625   6.481   6.666   3.680 -0.2046 -0.2908 -0.0854
  188POPC  H15R21626   6.390   6.731   3.686 -0.9805 -1.4517  2.1286
  188POPC  H15S21627   6.500   6.626   3.579 -2.1126  1.3048 -1.1449
  188POPC  C21621628   6.601   6.755   3.729  0.1729  0.5742 -0.9328
  188POPC  H16R21629   6.606   6.736   3.839  0.7187  2.2878 -0.6260
  188POPC  H16S21630   6.577   6.863   3.717  2.2497  1.3144  0.8714
  188POPC  C21721631   6.733   6.745   3.648 -0.4042  0.2983  0.2426
  188POPC  H17R21632   6.692   6.759   3.546  1.4928 -1.2559 -0.8089
  188POPC  H17S21633   6.762   6.639   3.668  2.2345  1.4568  3.4603
  188POPC  C21821634   6.841   6.845   3.674 -0.5526  0.8529  0.3539
  188POPC  H18R21635   6.814   6.951   3.658 -2.1574  0.6883  1.6982
  188POPC  H18S21636   6.918   6.830   3.594 -1.1283  2.3771 -0.5237
  188POPC  H18T21637   6.890   6.838   3.773 -0.9963  4.2687  0.9384
  188POPC   C3321638   6.203   6.186   3.232  0.0521  0.0438 -0.2452
  188POPC   H3X21639   6.221   6.076   3.223 -1.5344 -0.1769 -0.9493
  188POPC   H3Y21640   6.093   6.191   3.225 -0.0823 -1.2266  0.5811
  188POPC   C3421641   6.255   6.218   3.375 -0.3693 -0.1047  0.2332
  188POPC   H4X21642   6.252   6.328   3.384 -1.2502 -0.0230 -0.8107
  188POPC   H4Y21643   6.361   6.184   3.379  0.4833  2.2574 -0.6413
  188POPC   C3521644   6.176   6.137   3.482 -0.2501  0.2759  0.3136
  188POPC   H5X21645   6.184   6.032   3.446 -0.9423 -0.4170  2.0765
  188POPC   H5Y21646   6.072   6.176   3.480 -0.8809 -1.3545 -0.8796
  188POPC   C3621647   6.236   6.138   3.627  0.0622 -0.0501  0.2855
  188POPC   H6X21648   6.157   6.128   3.705  0.6407  0.1508  0.9041
  188POPC   H6Y21649   6.282   6.239   3.636 -1.1498  0.7003 -1.3156
  188POPC   C3721650   6.341   6.030   3.641  0.1967  0.1539 -0.6717
  188POPC   H7X21651   6.429   6.050   3.575 -0.4827 -1.1234 -2.0286
  188POPC   H7Y21652   6.306   5.927   3.620  0.5720  0.2525 -1.8710
  188POPC   C3821653   6.400   6.024   3.781 -0.2571 -0.6763 -0.7849
  188POPC   H8X21654   6.457   6.117   3.803  0.0739 -0.7256 -1.4334
  188POPC   H8Y21655   6.484   5.952   3.777  0.7376  0.4522 -0.6188
  188POPC   C3921656   6.302   6.002   3.895 -0.1363 -1.0725 -0.1069
  188POPC   H9X21657   6.236   6.091   3.897  0.5819 -0.5423  0.3677
  188POPC   H9Y21658   6.354   6.021   3.992 -1.7325  2.1779  0.2497
  188POPC  C31021659   6.232   5.871   3.899 -0.2512 -0.1236 -0.4765
  188POPC  H10X21660   6.301   5.785   3.915 -2.5231 -1.9467  0.1249
  188POPC  H10Y21661   6.168   5.848   3.811 -0.1271 -1.9028 -0.1542
  188POPC  C31121662   6.134   5.859   4.025  0.7381  0.6731 -0.1551
  188POPC  H11X21663   6.125   5.748   4.026  2.0025  0.5019 -1.9321
  188POPC  H11Y21664   6.036   5.906   4.003 -0.4209 -1.0260  1.0841
  188POPC  C31221665   6.175   5.895   4.164  0.3906 -0.4102  0.0265
  188POPC  H12X21666   6.159   6.002   4.190 -1.6154 -0.4372 -0.8611
  188POPC  H12Y21667   6.279   5.856   4.166  1.1067  1.4028 -0.3934
  188POPC  C31321668   6.110   5.817   4.282  0.0755  0.2799  0.4282
  188POPC  H13X21669   6.137   5.710   4.271  1.0024  0.2003  2.9073
  188POPC  H13Y21670   5.999   5.815   4.283  0.0821 -0.0670  0.9089
  188POPC  C31421671   6.161   5.861   4.417 -0.3757 -0.1744 -0.5241
  188POPC  H14X21672   6.127   5.966   4.407 -0.4327 -0.2456 -1.1548
  188POPC  H14Y21673   6.272   5.870   4.408 -0.4038 -0.7143 -1.5709
  188POPC  C31521674   6.102   5.804   4.548  0.5341  0.4163  0.2565
  188POPC  H15X21675   6.144   5.860   4.634  0.6061  0.3061  0.2944
  188POPC  H15Y21676   6.129   5.697   4.565 -1.2158 -0.0614  0.2097
  188POPC  C31621677   5.952   5.821   4.552 -0.8299 -0.2690 -0.5559
  188POPC  H16X21678   5.904   5.742   4.490  2.8197 -3.1366 -0.0517
  188POPC  H16Y21679   5.913   5.914   4.505  1.3063 -0.4370 -2.8750
  188POPC  H16Z21680   5.913   5.814   4.656  0.4871  2.0030  0.1579
  189SAPI   C1221681   1.999   0.173   6.591  1.2120 -0.7315 -0.3644
  189SAPI    H221682   2.014   0.094   6.513  0.7100  0.1147 -1.3459
  189SAPI    O221683   1.859   0.189   6.602 -0.2776 -0.1814  0.0309
  189SAPI   HO221684   1.829   0.229   6.520  0.6485 -0.1021 -0.2805
  189SAPI   C1321685   2.062   0.131   6.717 -0.0848 -0.6142 -0.1491
  189SAPI    H321686   2.173   0.128   6.710  0.1503  1.7627  1.4781
  189SAPI    O321687   2.017   0.002   6.755 -0.1068 -0.1112 -0.0256
  189SAPI   HO321688   1.926  -0.010   6.727  0.2318 -0.7777 -0.8960
  189SAPI   C1421689   2.040   0.246   6.820 -0.3934 -0.3200 -0.8037
  189SAPI    H421690   1.935   0.217   6.842  0.4777 -1.3693  2.4725
  189SAPI    O421691   2.113   0.223   6.938 -0.1579  0.0113  0.0684
  189SAPI   HO421692   2.059   0.201   7.014  0.3829 -1.4691  0.0568
  189SAPI   C1521693   2.048   0.393   6.778 -0.4884  0.6919 -0.6547
  189SAPI    H521694   2.151   0.430   6.796 -0.3542  0.2076 -0.4086
  189SAPI    O521695   1.964   0.484   6.851  0.3876  1.1699 -0.1040
  189SAPI   HO521696   2.006   0.488   6.937  0.8324 -0.9016 -0.1711
  189SAPI   C1621697   2.035   0.418   6.627  0.5525 -0.0865 -0.4955
  189SAPI    H621698   1.927   0.431   6.609  0.6742  0.9824 -0.4917
  189SAPI    O621699   2.112   0.534   6.587  0.2019  0.6430  0.0500
  189SAPI   HO621700   2.069   0.569   6.508  0.4161 -0.1294 -0.4112
  189SAPI   C1121701   2.068   0.298   6.541 -0.1313 -0.7427 -0.1852
  189SAPI    H121702   2.177   0.276   6.538 -0.2482 -1.5141  0.6427
  189SAPI     P21703   2.109   0.371   6.282  0.6091 -0.1440  0.7337
  189SAPI   O1321704   2.205   0.469   6.334 -0.2350  0.1306  0.3835
  189SAPI   O1421705   2.024   0.410   6.159 -0.2550  0.1174 -0.1558
  189SAPI   O1221706   2.018   0.320   6.408 -0.1464  0.6357  0.1851
  189SAPI   O1121707   2.187   0.244   6.247  0.1082  0.4079  0.1074
  189SAPI    C121708   2.126   0.116   6.216 -0.1734  0.0617 -0.1878
  189SAPI    HA21709   2.113   0.055   6.308  0.9660  1.2707  0.8228
  189SAPI    HB21710   2.020   0.132   6.188 -0.6021  0.8800  1.7358
  189SAPI    C221711   2.211   0.050   6.107  0.4959 -0.5236  0.3145
  189SAPI    HS21712   2.307   0.016   6.150  0.5569 -0.3849  0.2849
  189SAPI   O2121713   2.214   0.134   5.990  0.2015 -0.0042  0.1387
  189SAPI   C2121714   2.316   0.127   5.920  0.3603 -0.0945 -0.0086
  189SAPI   O2221715   2.414   0.057   5.938  0.1413  0.4245 -0.3868
  189SAPI   C2221716   2.302   0.218   5.796 -0.0287 -0.4198  0.1844
  189SAPI   H2R21717   2.402   0.251   5.762  0.0463 -0.3847  0.4349
  189SAPI   H2S21718   2.247   0.155   5.723  2.1001 -1.9892 -0.1546
  189SAPI    C321719   2.146  -0.096   6.060 -0.4888  0.0788  0.0736
  189SAPI    HX21720   2.056  -0.073   5.999  1.6116 -2.1596 -4.3382
  189SAPI    HY21721   2.119  -0.162   6.145 -1.4482  0.2124 -0.1184
  189SAPI   O3121722   2.235  -0.165   5.972 -0.5829 -0.8198 -0.2418
  189SAPI   C3121723   2.335  -0.233   6.040  0.1181 -0.3278 -0.1700
  189SAPI   O3221724   2.335  -0.241   6.163 -0.3915 -0.5301  0.0799
  189SAPI   C3221725   2.434  -0.288   5.941 -0.0005  0.1580  0.2123
  189SAPI   H2X21726   2.483  -0.196   5.902 -3.0051  1.6572 -0.2818
  189SAPI   H2Y21727   2.368  -0.332   5.863 -1.7518 -0.4502  1.9613
  189SAPI   C2321728   2.215   0.342   5.810 -0.7988  0.2685 -0.3533
  189SAPI   H3R21729   2.261   0.436   5.771 -1.1242  0.5625 -0.0370
  189SAPI   H3S21730   2.205   0.363   5.918  0.1609 -1.6889  0.1503
  189SAPI   C2421731   2.072   0.337   5.739 -0.3497  0.2529  0.0057
  189SAPI   H4R21732   2.094   0.305   5.635 -2.1599  1.9692 -0.9642
  189SAPI   H4S21733   2.033   0.440   5.731  0.0399  0.3643 -0.4841
  189SAPI   C2521734   1.974   0.251   5.821  0.5155 -0.6256  0.6253
  189SAPI   H5R21735   2.019   0.182   5.895  0.0424  1.8073  3.3517
  189SAPI   C2621736   1.838   0.264   5.810 -0.4224  0.6696 -1.2600
  189SAPI   H6R21737   1.774   0.188   5.857 -1.4323 -0.3034 -4.0322
  189SAPI   C2721738   1.772   0.351   5.703 -0.2014 -0.6491 -0.4198
  189SAPI   H7R21739   1.843   0.364   5.619 -0.7296 -0.8950 -0.9121
  189SAPI   H7S21740   1.770   0.448   5.757 -0.8850 -0.5349 -0.6363
  189SAPI   C2821741   1.634   0.311   5.649  0.3595  0.3290 -0.0481
  189SAPI   H8R21742   1.575   0.258   5.725  1.0409 -1.1702 -0.5423
  189SAPI   C2921743   1.599   0.302   5.520 -0.6288 -0.3981  0.2253
  189SAPI   H9R21744   1.506   0.253   5.487 -0.1696 -0.6105 -0.7861
  189SAPI  C21021745   1.675   0.380   5.411  0.1099 -0.2397  0.0567
  189SAPI  H10R21746   1.730   0.312   5.342  1.3582  0.7631  0.0224
  189SAPI  H10S21747   1.748   0.449   5.460 -1.4150  0.4563  1.4499
  189SAPI  C21121748   1.570   0.443   5.326  1.1365 -0.5287 -0.1534
  189SAPI  H11R21749   1.525   0.533   5.372 -1.2597 -0.7957 -1.7769
  189SAPI  C21221750   1.515   0.390   5.215 -0.3237 -0.1868 -0.0531
  189SAPI  H12R21751   1.447   0.454   5.156 -0.5391 -0.6512 -0.3170
  189SAPI  C21321752   1.544   0.258   5.152  0.3110  0.1867 -0.0120
  189SAPI  H13R21753   1.646   0.218   5.170 -0.4262 -0.4673  3.3320
  189SAPI  H13S21754   1.528   0.273   5.043  0.7804 -0.0601 -0.1164
  189SAPI  C21421755   1.442   0.161   5.207 -0.1481 -0.4766 -0.0021
  189SAPI  H14R21756   1.339   0.178   5.173 -0.1633  2.4563  1.2067
  189SAPI  C21521757   1.478   0.051   5.283  0.1920 -0.0382  0.2752
  189SAPI  H15R21758   1.392  -0.000   5.329 -1.4198  0.1934 -2.2272
  189SAPI  C21621759   1.614   0.017   5.334 -0.5180 -0.2006 -0.3455
  189SAPI  H16R21760   1.610  -0.009   5.442  2.3143 -1.6306 -0.4846
  189SAPI  H16S21761   1.685   0.102   5.331  1.3070 -1.6366 -0.1511
  189SAPI  C21721762   1.689  -0.097   5.265 -0.1937 -0.1611 -0.0406
  189SAPI  H17R21763   1.620  -0.183   5.259 -1.1845  0.6866 -1.7089
  189SAPI  H17S21764   1.775  -0.123   5.330  0.9794 -1.3333 -1.9389
  189SAPI  C21821765   1.730  -0.066   5.118  0.1292 -0.9457 -0.0478
  189SAPI  H18R21766   1.801   0.019   5.130  1.6343 -2.2824  1.0858
  189SAPI  H18S21767   1.640  -0.038   5.061  0.6485 -0.5877 -0.7034
  189SAPI  C21921768   1.804  -0.190   5.062  0.5244  0.6211 -0.3767
  189SAPI  H19R21769   1.807  -0.167   4.953 -0.9256  0.6469 -0.4311
  189SAPI  H19S21770   1.736  -0.275   5.081  0.2675  1.3101  2.2055
  189SAPI  C22021771   1.944  -0.218   5.110  0.0841  0.2746 -0.1738
  189SAPI  H20R21772   1.993  -0.281   5.034 -0.7160  0.9767 -1.2978
  189SAPI  H20S21773   1.973  -0.239   5.215  2.0095  0.1174 -0.7162
  189SAPI  H20T21774   2.002  -0.124   5.098  0.7157 -0.0515  0.3108
  189SAPI   C3321775   2.539  -0.377   6.007  0.8358  0.0342  0.0416
  189SAPI   H3X21776   2.494  -0.462   6.063 -1.8908  0.9559 -0.5989
  189SAPI   H3Y21777   2.588  -0.313   6.083  0.1384  0.9915 -0.3034
  189SAPI   C3421778   2.639  -0.428   5.902 -0.2874 -0.4808 -0.8938
  189SAPI   H4X21779   2.570  -0.463   5.822 -0.6995  1.1990 -1.3051
  189SAPI   H4Y21780   2.701  -0.511   5.941 -0.0484  0.5402  1.0009
  189SAPI   C3521781   2.729  -0.318   5.842 -0.1318 -0.1893 -0.2960
  189SAPI   H5X21782   2.774  -0.256   5.923 -0.8105 -0.1582  0.0646
  189SAPI   H5Y21783   2.676  -0.247   5.776 -0.1188  0.7036  0.6181
  189SAPI   C3621784   2.845  -0.383   5.764  0.0934 -0.0226  0.0066
  189SAPI   H6X21785   2.901  -0.451   5.832 -1.5846 -1.9837 -0.4890
  189SAPI   H6Y21786   2.925  -0.309   5.741  1.1676 -1.0983  0.1736
  189SAPI   C3721787   2.797  -0.460   5.635  0.3778 -0.7218 -0.7828
  189SAPI   H7X21788   2.725  -0.539   5.662 -0.1331  0.1280  0.4598
  189SAPI   H7Y21789   2.879  -0.517   5.586  1.2579  0.2788 -0.5218
  189SAPI   C3821790   2.743  -0.367   5.532  0.2954 -0.1387  0.3891
  189SAPI   H8X21791   2.794  -0.268   5.531  0.6053 -0.2659 -1.7038
  189SAPI   H8Y21792   2.639  -0.336   5.554  0.4372  1.2975 -0.7957
  189SAPI   C3921793   2.754  -0.414   5.388  0.0605 -0.6967  0.3396
  189SAPI   H9X21794   2.713  -0.517   5.372 -2.3274  0.2842 -0.2626
  189SAPI   H9Y21795   2.862  -0.415   5.362  0.1823  2.7149  0.2862
  189SAPI  C31021796   2.681  -0.321   5.297  0.0479 -0.1405  0.4846
  189SAPI  H10X21797   2.700  -0.219   5.338 -0.5215  0.4025 -0.5692
  189SAPI  H10Y21798   2.572  -0.339   5.311  0.1507 -0.4146  0.9565
  189SAPI  C31121799   2.720  -0.309   5.155  0.6152 -0.5014  0.9325
  189SAPI  H11X21800   2.821  -0.266   5.136  0.7518 -1.3966 -0.4780
  189SAPI  H11Y21801   2.656  -0.236   5.102  2.1571  0.2691  0.0378
  189SAPI  C31221802   2.713  -0.454   5.093 -0.5492 -0.4435  0.3910
  189SAPI  H12X21803   2.608  -0.489   5.103 -1.0735  0.7062 -0.7871
  189SAPI  H12Y21804   2.777  -0.524   5.151  0.3466  0.0282 -0.0029
  189SAPI  C31321805   2.755  -0.451   4.942 -0.3009 -0.0910  0.0712
  189SAPI  H13X21806   2.863  -0.430   4.940  0.2826 -2.6945 -0.5875
  189SAPI  H13Y21807   2.691  -0.376   4.891  0.9212  1.6976  1.0864
  189SAPI  C31421808   2.732  -0.589   4.884  0.3199 -0.6370  0.0599
  189SAPI  H14X21809   2.629  -0.618   4.911 -0.9767  2.1021 -1.5073
  189SAPI  H14Y21810   2.798  -0.668   4.925 -0.5267 -1.1366  0.4711
  189SAPI  C31521811   2.743  -0.583   4.734  0.7061 -0.2673 -0.0628
  189SAPI  H15X21812   2.834  -0.527   4.706  0.9353 -1.5183 -1.9846
  189SAPI  H15Y21813   2.662  -0.523   4.686 -0.6747 -2.6563 -0.9066
  189SAPI  C31621814   2.737  -0.722   4.664 -0.2469 -0.0806 -0.3865
  189SAPI  H16X21815   2.639  -0.764   4.694  0.5499 -1.0800  0.9179
  189SAPI  H16Y21816   2.824  -0.781   4.699  0.4369 -1.0268 -3.3985
  189SAPI  C31721817   2.733  -0.717   4.511  0.2934  0.3321 -0.2591
  189SAPI  H17X21818   2.634  -0.668   4.503  1.0094  1.9998  0.6015
  189SAPI  H17Y21819   2.735  -0.825   4.485  0.2035 -0.3563  2.2605
  189SAPI  C31821820   2.856  -0.636   4.457  0.0090 -0.1257  0.1519
  189SAPI  H18X21821   2.849  -0.623   4.347  0.0923  0.0615  0.1692
  189SAPI  H18Y21822   2.952  -0.691   4.471 -0.8179 -0.8635  4.2377
  189SAPI  H18Z21823   2.867  -0.536   4.504  2.6863 -0.3032  0.0143
  190SAPI   C1221824   2.010   2.575   6.829  0.2761  0.0492  0.1745
  190SAPI    H221825   2.110   2.600   6.788  1.6505 -0.2834  3.0877
  190SAPI    O221826   2.035   2.487   6.937  0.4143 -0.4340  0.5607
  190SAPI   HO221827   2.110   2.429   6.924  0.8248  0.6999 -3.0881
  190SAPI   C1321828   1.950   2.710   6.872  0.2749  0.4464  0.4323
  190SAPI    H321829   1.925   2.758   6.776  0.0597 -1.3951 -0.4863
  190SAPI    O321830   2.049   2.784   6.944  0.0238 -0.1163 -0.0144
  190SAPI   HO321831   2.095   2.725   7.004 -0.2407 -0.9036 -0.5717
  190SAPI   C1421832   1.822   2.696   6.949 -0.4140 -0.6531  0.1993
  190SAPI    H421833   1.848   2.663   7.052  1.4426 -2.7410 -0.8542
  190SAPI    O421834   1.761   2.831   6.955 -0.4789  0.0251 -0.1986
  190SAPI   HO421835   1.797   2.889   7.022  0.7132  1.3727 -1.9261
  190SAPI   C1521836   1.718   2.595   6.898 -0.8201 -0.0082  0.6323
  190SAPI    H521837   1.646   2.653   6.836  0.1086  0.2440 -0.2379
  190SAPI    O521838   1.645   2.538   7.002 -0.3019 -1.0325  0.4976
  190SAPI   HO521839   1.707   2.491   7.059 -1.7534 -2.1286  1.2461
  190SAPI   C1621840   1.777   2.490   6.795 -1.0569 -0.9174 -0.0517
  190SAPI    H621841   1.803   2.400   6.853  0.7361 -0.2700  0.2248
  190SAPI    O621842   1.688   2.448   6.701 -0.1894  0.4235  0.4044
  190SAPI   HO621843   1.652   2.520   6.650 -0.1583  0.8622  0.9959
  190SAPI   C1121844   1.917   2.516   6.724  0.0181  0.2168 -0.4396
  190SAPI    H121845   1.899   2.589   6.642 -0.7251  1.2227  0.5771
  190SAPI     P21846   2.069   2.405   6.541  0.2096 -0.2596  0.2612
  190SAPI   O1321847   2.116   2.275   6.500  0.1601 -0.0551  1.2425
  190SAPI   O1421848   2.168   2.509   6.565 -0.0721  0.0763  0.4227
  190SAPI   O1221849   1.974   2.391   6.676 -0.1556 -0.0401 -0.3252
  190SAPI   O1121850   1.971   2.464   6.429 -0.6305  1.0010  0.6273
  190SAPI    C121851   1.900   2.382   6.337 -1.1277  0.3618 -0.1292
  190SAPI    HA21852   1.969   2.304   6.298  2.0892  2.7339  0.4063
  190SAPI    HB21853   1.815   2.331   6.389 -1.5321  2.6845  1.6310
  190SAPI    C221854   1.852   2.468   6.225  0.4173 -0.1903 -0.0965
  190SAPI    HS21855   1.821   2.408   6.136  2.4678 -3.6251  1.2849
  190SAPI   O2121856   1.953   2.557   6.185 -0.6212  0.8415  0.3863
  190SAPI   C2121857   2.052   2.503   6.115  0.4262  1.0630  0.3689
  190SAPI   O2221858   2.057   2.381   6.088 -0.0574  0.5205 -0.4815
  190SAPI   C2221859   2.152   2.602   6.065  0.7259  0.0812  0.0637
  190SAPI   H2R21860   2.161   2.686   6.137  1.9401 -0.3260  0.4165
  190SAPI   H2S21861   2.253   2.556   6.060  1.3353  1.0873  2.1190
  190SAPI    C321862   1.735   2.544   6.283  0.1859  0.2722  0.0462
  190SAPI    HX21863   1.767   2.574   6.385  1.4431  0.5007 -0.4022
  190SAPI    HY21864   1.653   2.474   6.311  0.5579  0.3534  1.4061
  190SAPI   O3121865   1.697   2.656   6.204  0.8671  0.2916 -0.0299
  190SAPI   C3121866   1.621   2.634   6.101 -0.1273  0.0855 -0.0767
  190SAPI   O3221867   1.565   2.532   6.077 -0.0970 -0.3092  0.4152
  190SAPI   C3221868   1.600   2.771   6.030 -0.0692 -0.0728 -0.5380
  190SAPI   H2X21869   1.691   2.832   6.049  0.8207 -1.8146  1.1536
  190SAPI   H2Y21870   1.523   2.820   6.094  2.8788  1.0119  2.4422
  190SAPI   C2321871   2.114   2.671   5.937 -0.0444  0.3724 -0.7175
  190SAPI   H3R21872   2.187   2.740   5.889 -0.8328  0.6604 -1.5223
  190SAPI   H3S21873   2.029   2.737   5.968 -0.5352 -0.3759 -0.4578
  190SAPI   C2421874   2.063   2.586   5.824 -0.2429 -0.0662 -0.4794
  190SAPI   H4R21875   2.034   2.658   5.743 -1.6593 -0.7702 -0.6178
  190SAPI   H4S21876   1.974   2.535   5.866  0.0411  1.1338  1.7370
  190SAPI   C2521877   2.166   2.490   5.766 -0.1102  0.1827  0.0415
  190SAPI   H5R21878   2.211   2.423   5.840  0.5819 -1.5723 -1.8609
  190SAPI   C2621879   2.216   2.485   5.634 -0.0182  0.2229 -0.0854
  190SAPI   H6R21880   2.280   2.396   5.622  0.0773  0.1580  0.8035
  190SAPI   C2721881   2.183   2.572   5.512 -0.0513 -0.0071  0.0404
  190SAPI   H7R21882   2.188   2.679   5.543 -0.4010 -0.3978  1.5650
  190SAPI   H7S21883   2.078   2.552   5.482 -0.1155  0.5976 -0.1370
  190SAPI   C2821884   2.284   2.554   5.403  0.1036 -0.0608  0.0505
  190SAPI   H8R21885   2.389   2.564   5.436 -0.1703  0.2779  0.8515
  190SAPI   C2921886   2.258   2.546   5.268 -0.4204 -0.6243 -0.1088
  190SAPI   H9R21887   2.346   2.527   5.205 -0.5935  0.9182 -0.8620
  190SAPI  C21021888   2.117   2.550   5.207 -0.2721  0.1954  0.3022
  190SAPI  H10R21889   2.100   2.638   5.142 -0.1529 -0.4625 -0.6342
  190SAPI  H10S21890   2.042   2.569   5.287 -2.1633  0.1053 -1.3885
  190SAPI  C21121891   2.101   2.419   5.134 -0.4562 -0.8918  0.4999
  190SAPI  H11R21892   2.103   2.335   5.204 -0.6871 -0.9887  0.3912
  190SAPI  C21221893   2.101   2.404   5.003  0.3161 -0.0425  0.7584
  190SAPI  H12R21894   2.076   2.300   4.976 -1.3310  0.5550 -0.1532
  190SAPI  C21321895   2.086   2.511   4.898  0.1828  0.3504 -0.3702
  190SAPI  H13R21896   2.053   2.603   4.951 -1.5225 -1.3347  1.6259
  190SAPI  H13S21897   2.008   2.486   4.822  0.5374  1.7219 -1.2410
  190SAPI  C21421898   2.218   2.537   4.833  0.4176 -0.0090  0.6119
  190SAPI  H14R21899   2.290   2.572   4.908 -0.1000  0.0171  1.0968
  190SAPI  C21521900   2.254   2.513   4.702  0.1314  0.0028 -0.0476
  190SAPI  H15R21901   2.355   2.537   4.666  0.1226 -1.8673 -1.4836
  190SAPI  C21621902   2.161   2.446   4.600  0.0903 -0.3516 -0.0607
  190SAPI  H16R21903   2.073   2.511   4.581 -0.9635 -0.3712  3.9225
  190SAPI  H16S21904   2.110   2.360   4.647 -1.5118  1.9367  2.7338
  190SAPI  C21721905   2.238   2.407   4.473  0.5331 -0.0687 -0.0251
  190SAPI  H17R21906   2.169   2.374   4.392 -1.5583  1.8079  0.8854
  190SAPI  H17S21907   2.310   2.329   4.507 -0.3400 -0.5730  0.7056
  190SAPI  C21821908   2.305   2.531   4.401  0.5697  0.4802  0.0677
  190SAPI  H18R21909   2.399   2.565   4.449 -0.4770  0.5146  2.2297
  190SAPI  H18S21910   2.227   2.609   4.397 -0.8018 -0.8628 -0.5827
  190SAPI  C21921911   2.334   2.492   4.257  0.1249 -0.6278  0.6689
  190SAPI  H19R21912   2.237   2.485   4.205  1.4106  1.7815 -2.4102
  190SAPI  H19S21913   2.376   2.389   4.265 -0.7751 -1.0310  0.2045
  190SAPI  C22021914   2.434   2.571   4.180 -0.6880  0.2283 -0.3467
  190SAPI  H20R21915   2.468   2.528   4.084  2.4229 -0.5576  0.9787
  190SAPI  H20S21916   2.517   2.588   4.252 -3.1982 -1.8585  3.3918
  190SAPI  H20T21917   2.390   2.672   4.167 -0.7123  0.1220 -1.1012
  190SAPI   C3321918   1.544   2.763   5.884 -0.1854  0.0866  0.4365
  190SAPI   H3X21919   1.532   2.869   5.851 -1.1165  0.0719  0.7123
  190SAPI   H3Y21920   1.445   2.714   5.883 -0.3349  0.2666 -2.9007
  190SAPI   C3421921   1.627   2.680   5.786  0.2706  0.9315  0.2080
  190SAPI   H4X21922   1.614   2.574   5.815 -0.0575  0.5353 -1.2664
  190SAPI   H4Y21923   1.735   2.705   5.799  0.3748  0.8827 -0.5097
  190SAPI   C3521924   1.590   2.716   5.640 -0.1459  0.2652 -0.0765
  190SAPI   H5X21925   1.590   2.826   5.629 -2.9297  0.2678 -0.7054
  190SAPI   H5Y21926   1.487   2.679   5.626  0.7007 -3.2938  1.7641
  190SAPI   C3621927   1.679   2.670   5.520  0.1993  0.1608 -0.2272
  190SAPI   H6X21928   1.650   2.567   5.488 -0.7853 -0.4257  2.2946
  190SAPI   H6Y21929   1.783   2.690   5.553 -1.0340  1.4879  3.3501
  190SAPI   C3721930   1.646   2.757   5.400  0.3712  0.0367 -0.6423
  190SAPI   H7X21931   1.692   2.858   5.413  1.1980 -0.1665 -1.8501
  190SAPI   H7Y21932   1.536   2.772   5.390  0.6670  1.6243 -1.8339
  190SAPI   C3821933   1.694   2.710   5.264 -0.1684 -0.1905 -0.4244
  190SAPI   H8X21934   1.655   2.606   5.254  0.7199 -0.4978 -0.8187
  190SAPI   H8Y21935   1.803   2.693   5.276 -0.5614 -1.2445  2.7369
  190SAPI   C3921936   1.645   2.791   5.146 -0.2040 -0.7379  1.3776
  190SAPI   H9X21937   1.697   2.890   5.146  1.0572 -1.3711  0.3883
  190SAPI   H9Y21938   1.542   2.827   5.168  0.5609  2.4697  0.2626
  190SAPI  C31021939   1.652   2.723   5.010 -0.7415  0.1371  0.0560
  190SAPI  H10X21940   1.549   2.683   5.001 -0.9083 -0.1038  2.4732
  190SAPI  H10Y21941   1.725   2.640   5.026  0.1389  0.8631 -0.0839
  190SAPI  C31121942   1.686   2.795   4.880  0.2060  0.2216  0.5308
  190SAPI  H11X21943   1.782   2.850   4.889  0.1568  0.4031 -0.0165
  190SAPI  H11Y21944   1.606   2.866   4.852  0.9404  1.4802  1.5125
  190SAPI  C31221945   1.697   2.704   4.761  0.1403 -0.2595  0.1679
  190SAPI  H12X21946   1.610   2.638   4.738 -0.4652  0.4724  0.3306
  190SAPI  H12Y21947   1.782   2.636   4.784 -0.6119 -0.6125  2.0701
  190SAPI  C31321948   1.730   2.775   4.630  0.7165 -0.5907 -0.0242
  190SAPI  H13X21949   1.662   2.860   4.607  0.7282 -0.6542 -0.2953
  190SAPI  H13Y21950   1.707   2.711   4.542  0.7920 -1.0157  0.2627
  190SAPI  C31421951   1.881   2.826   4.621 -0.9646 -0.3771 -0.5454
  190SAPI  H14X21952   1.955   2.746   4.638  0.5694  1.0869 -0.0475
  190SAPI  H14Y21953   1.881   2.896   4.708  1.4395 -0.5698 -0.3311
  190SAPI  C31521954   1.922   2.899   4.486  0.0886  0.0343  0.5633
  190SAPI  H15X21955   2.006   2.968   4.509 -0.9970  0.9671  1.8975
  190SAPI  H15Y21956   1.842   2.959   4.437 -0.6882 -1.3560  0.0724
  190SAPI  C31621957   1.986   2.804   4.386 -0.3040  0.3654  0.5165
  190SAPI  H16X21958   1.905   2.730   4.373  0.9451 -1.2292  1.3959
  190SAPI  H16Y21959   2.075   2.750   4.426 -1.0577 -0.4632  1.1117
  190SAPI  C31721960   2.014   2.889   4.255  0.2353 -0.5089  0.1330
  190SAPI  H17X21961   2.071   2.978   4.288  0.6593 -1.0187  0.8225
  190SAPI  H17Y21962   1.915   2.920   4.216  0.7109  2.2625  0.9157
  190SAPI  C31821963   2.090   2.813   4.145 -0.1026  0.2168 -0.1307
  190SAPI  H18X21964   2.039   2.717   4.125  0.0800 -0.3324  1.8715
  190SAPI  H18Y21965   2.195   2.791   4.176 -0.0898  0.5135  0.0416
  190SAPI  H18Z21966   2.093   2.879   4.055 -3.3425  0.2191 -0.3418
  191SAPI   C1221967   6.074   5.466   2.104  0.5516 -0.2630  0.3119
  191SAPI    H221968   5.976   5.487   2.152  0.5109  0.5384 -0.1063
  191SAPI    O221969   6.149   5.382   2.187  0.2144  0.0407  0.2414
  191SAPI   HO221970   6.094   5.322   2.238  1.2247 -1.8573 -0.7861
  191SAPI   C1321971   6.044   5.403   1.970 -0.4705  0.4167  0.0103
  191SAPI    H321972   5.992   5.482   1.912  0.3966  2.9600  2.4643
  191SAPI    O321973   5.959   5.288   1.978  0.3095  0.4405  0.0119
  191SAPI   HO321974   5.995   5.223   2.038 -0.7121  0.3209  0.5162
  191SAPI   C1421975   6.173   5.368   1.899 -1.2538 -0.0924  0.6382
  191SAPI    H421976   6.201   5.271   1.947 -1.5282 -0.7066 -0.4140
  191SAPI    O421977   6.153   5.320   1.764 -0.1375  0.3809 -0.7379
  191SAPI   HO421978   6.106   5.391   1.719 -1.9153  0.2522  0.8116
  191SAPI   C1521979   6.286   5.464   1.915 -0.0385 -0.5917 -0.0212
  191SAPI    H521980   6.284   5.530   1.826 -0.0682 -1.4534 -0.6651
  191SAPI    O521981   6.413   5.401   1.904  0.8989 -0.1707  0.1862
  191SAPI   HO521982   6.465   5.411   1.985  0.9626  1.3107 -0.0057
  191SAPI   C1621983   6.277   5.572   2.028 -0.8156 -0.8508  0.3875
  191SAPI    H621984   6.339   5.533   2.111  0.3923  0.4224  0.1095
  191SAPI    O621985   6.344   5.694   1.999 -0.2255 -1.1368  0.1068
  191SAPI   HO621986   6.282   5.761   2.027  0.4951  0.7103 -2.3941
  191SAPI   C1121987   6.144   5.602   2.094 -0.2827 -0.3627 -0.4043
  191SAPI    H121988   6.091   5.668   2.022  0.9152  2.1026  0.8616
  191SAPI     P21989   6.107   5.835   2.235  0.4342  0.2833 -0.3747
  191SAPI   O1321990   6.144   5.889   2.101  0.3020 -0.1003 -0.3766
  191SAPI   O1421991   6.187   5.890   2.346  0.0435  0.5725  0.8823
  191SAPI   O1221992   6.136   5.671   2.223  0.6284 -0.1950 -0.3209
  191SAPI   O1121993   5.950   5.852   2.250  0.1676 -0.1685  0.1451
  191SAPI    C121994   5.865   5.758   2.308  1.1091 -0.2080 -0.3943
  191SAPI    HA21995   5.767   5.769   2.257  0.6970 -1.8520 -0.0289
  191SAPI    HB21996   5.894   5.653   2.286  2.3108  0.2552 -1.0723
  191SAPI    C221997   5.840   5.788   2.458  0.6433  0.5437  0.3126
  191SAPI    HS21998   5.802   5.892   2.453  0.1625  0.4619  1.7370
  191SAPI   O2121999   5.961   5.775   2.537 -0.3639  0.5512  0.6902
  191SAPI   C2122000   5.970   5.854   2.643  0.1761 -0.4988  1.1010
  191SAPI   O2222001   5.884   5.938   2.663  0.2355  0.0802 -0.3846
  191SAPI   C2222002   6.104   5.837   2.714 -0.3253  0.3438 -0.0745
  191SAPI   H2R22003   6.188   5.883   2.657 -1.0390  3.1904  1.0297
  191SAPI   H2S22004   6.088   5.885   2.813 -0.6048  0.5808 -0.2320
  191SAPI    C322005   5.734   5.690   2.516 -0.0676 -0.0659  0.1516
  191SAPI    HX22006   5.779   5.589   2.511 -1.0888 -0.4946 -0.9126
  191SAPI    HY22007   5.649   5.690   2.445 -1.0274 -0.4829  1.2770
  191SAPI   O3122008   5.706   5.720   2.656 -0.4483  0.7075 -0.6313
  191SAPI   C3122009   5.612   5.813   2.685 -0.2800  0.0338 -0.2513
  191SAPI   O3222010   5.543   5.871   2.606 -0.0829  0.1634  0.0461
  191SAPI   C3222011   5.601   5.834   2.841 -0.4825 -0.6192  0.1641
  191SAPI   H2X22012   5.545   5.930   2.847  1.6098  0.8044 -1.2695
  191SAPI   H2Y22013   5.705   5.846   2.878 -0.8659  2.6534  0.4956
  191SAPI   C2322014   6.132   5.690   2.745 -0.4064  0.7550  0.6492
  191SAPI   H3R22015   6.233   5.668   2.703 -0.7903  1.6180 -0.7647
  191SAPI   H3S22016   6.064   5.618   2.696  0.6207  0.9968 -1.2209
  191SAPI   C2422017   6.119   5.652   2.893  0.8260  0.0178 -0.5077
  191SAPI   H4R22018   6.196   5.712   2.946 -0.0415  1.8797 -1.2750
  191SAPI   H4S22019   6.138   5.543   2.903  0.2745 -0.2470 -2.0052
  191SAPI   C2522020   5.974   5.688   2.933 -0.6130 -0.5549 -0.3008
  191SAPI   H5R22021   5.896   5.695   2.856 -1.6955  2.5815  0.9074
  191SAPI   C2622022   5.941   5.714   3.062  0.0313 -0.1868 -0.2324
  191SAPI   H6R22023   5.842   5.753   3.090 -1.0015 -1.9262 -1.3142
  191SAPI   C2722024   6.032   5.706   3.182  0.3073  0.0532 -0.4783
  191SAPI   H7R22025   6.012   5.794   3.246 -1.5084 -1.2821  0.8597
  191SAPI   H7S22026   6.138   5.703   3.147  0.8497  0.2748  1.0994
  191SAPI   C2822027   6.010   5.588   3.273  0.1666 -0.4777 -0.0076
  191SAPI   H8R22028   5.936   5.513   3.241 -0.0286 -0.2434 -0.1068
  191SAPI   C2922029   6.071   5.585   3.392 -0.5065 -0.1165  0.1866
  191SAPI   H9R22030   6.040   5.499   3.453  0.2733 -1.4420 -1.2122
  191SAPI  C21022031   6.169   5.683   3.459  0.1201  0.4883 -0.0954
  191SAPI  H10R22032   6.135   5.713   3.560 -2.1828  0.4986 -0.8138
  191SAPI  H10S22033   6.189   5.776   3.402 -0.0172  0.3721 -0.3343
  191SAPI  C21122034   6.299   5.608   3.474  0.8146 -0.6013  0.2051
  191SAPI  H11R22035   6.361   5.622   3.384 -1.3526 -1.7754 -1.5524
  191SAPI  C21222036   6.343   5.538   3.577 -0.8932  0.0335  0.1638
  191SAPI  H12R22037   6.439   5.488   3.560 -0.1442  1.1878  0.8665
  191SAPI  C21322038   6.283   5.517   3.710  0.4141  0.3856 -0.4965
  191SAPI  H13R22039   6.175   5.495   3.691 -0.0733  1.8012  0.5181
  191SAPI  H13S22040   6.289   5.612   3.765 -2.6975 -0.0031  0.6866
  191SAPI  C21422041   6.328   5.399   3.800  0.0877 -0.3796  0.4034
  191SAPI  H14R22042   6.305   5.300   3.759 -1.9738  0.6607 -1.1560
  191SAPI  C21522043   6.406   5.410   3.910 -0.1808  0.4689  1.0355
  191SAPI  H15R22044   6.435   5.313   3.953 -0.3110 -0.9493 -1.8305
  191SAPI  C21622045   6.469   5.534   3.974  0.0379  0.2499 -0.2407
  191SAPI  H16R22046   6.389   5.607   4.000 -0.9245 -1.3152  1.3852
  191SAPI  H16S22047   6.550   5.585   3.916 -0.3949 -0.1115 -1.1805
  191SAPI  C21722048   6.538   5.514   4.113  1.0449  0.7849  0.4619
  191SAPI  H17R22049   6.636   5.466   4.094  0.9788  1.2442 -1.1413
  191SAPI  H17S22050   6.477   5.440   4.169  1.2459  0.4738  0.2714
  191SAPI  C21822051   6.566   5.637   4.204  0.1805  0.0677  0.2747
  191SAPI  H18R22052   6.481   5.709   4.208  0.4420  0.3271  1.4998
  191SAPI  H18S22053   6.645   5.700   4.159  0.2337 -0.5011 -0.4395
  191SAPI  C21922054   6.598   5.599   4.349  0.0201  0.0434  0.1404
  191SAPI  H19R22055   6.696   5.547   4.345 -0.1889 -0.4561  1.0548
  191SAPI  H19S22056   6.520   5.527   4.382  0.9072 -0.8635  0.3005
  191SAPI  C22022057   6.596   5.716   4.447  0.3413 -0.2666  0.2105
  191SAPI  H20R22058   6.660   5.799   4.410 -0.1776 -0.7119 -1.8388
  191SAPI  H20S22059   6.636   5.669   4.539  2.3775  0.4851 -0.2215
  191SAPI  H20T22060   6.492   5.749   4.468  0.6873  0.6291  0.5577
  191SAPI   C3322061   5.539   5.707   2.900 -1.0909  0.0631 -0.4894
  191SAPI   H3X22062   5.597   5.616   2.871 -1.0457  0.0984 -0.5096
  191SAPI   H3Y22063   5.436   5.688   2.864 -0.2594 -3.6573 -1.3335
  191SAPI   C3422064   5.543   5.709   3.058  0.2506 -0.7340 -0.0250
  191SAPI   H4X22065   5.519   5.809   3.100  0.2418 -1.7217  2.4763
  191SAPI   H4Y22066   5.649   5.693   3.088  0.2450  0.9382  0.9943
  191SAPI   C3522067   5.447   5.595   3.106 -0.1198  1.0214 -0.6512
  191SAPI   H5X22068   5.405   5.538   3.021 -0.6676 -1.0797  0.9386
  191SAPI   H5Y22069   5.359   5.634   3.161 -0.7284 -4.4084  3.0529
  191SAPI   C3622070   5.520   5.498   3.203  0.7100  0.2825 -0.1105
  191SAPI   H6X22071   5.607   5.453   3.150 -0.4545 -1.2385 -0.8388
  191SAPI   H6Y22072   5.448   5.415   3.221 -2.1241  1.4257 -4.4286
  191SAPI   C3722073   5.564   5.570   3.333  0.3216  0.1973  0.5065
  191SAPI   H7X22074   5.481   5.629   3.378 -1.1762 -1.1479 -0.3941
  191SAPI   H7Y22075   5.657   5.627   3.312 -1.4998  2.3303 -2.6382
  191SAPI   C3822076   5.630   5.469   3.424  0.9955 -0.3468  0.7365
  191SAPI   H8X22077   5.699   5.408   3.362  0.2883 -0.7715  0.3547
  191SAPI   H8Y22078   5.556   5.397   3.466  1.5046 -0.6594  1.1268
  191SAPI   C3922079   5.695   5.530   3.539 -0.5406 -0.6772  0.6635
  191SAPI   H9X22080   5.628   5.607   3.584  0.4875  1.7829 -1.7261
  191SAPI   H9Y22081   5.781   5.591   3.504 -0.6818  0.1079  1.6207
  191SAPI  C31022082   5.749   5.428   3.644 -0.3774  0.3142 -0.5535
  191SAPI  H10X22083   5.806   5.358   3.579 -0.7757  1.1474 -1.8532
  191SAPI  H10Y22084   5.670   5.365   3.690 -2.2885  1.1493 -2.4659
  191SAPI  C31122085   5.827   5.490   3.762  0.1683  0.7594  0.4328
  191SAPI  H11X22086   5.770   5.571   3.812  0.2013  0.9653  0.1368
  191SAPI  H11Y22087   5.923   5.529   3.721  0.7521  0.6472  1.6451
  191SAPI  C31222088   5.875   5.387   3.866  0.5236  0.1545  0.1732
  191SAPI  H12X22089   5.937   5.314   3.809 -1.1009 -0.6841 -0.5883
  191SAPI  H12Y22090   5.786   5.330   3.902 -1.5194  2.2096 -1.3465
  191SAPI  C31322091   5.938   5.456   3.988 -0.2117  0.6844  0.1220
  191SAPI  H13X22092   5.860   5.518   4.037 -1.8695 -2.0514  1.1950
  191SAPI  H13Y22093   6.017   5.524   3.949 -1.6541  1.0075 -2.4829
  191SAPI  C31422094   6.010   5.366   4.092  0.1849  0.0227  0.4495
  191SAPI  H14X22095   6.069   5.293   4.033 -0.2054  0.5888 -0.6566
  191SAPI  H14Y22096   5.935   5.311   4.153 -0.3074 -0.8115 -0.8702
  191SAPI  C31522097   6.102   5.440   4.188 -0.0967  0.7986  0.2325
  191SAPI  H15X22098   6.053   5.529   4.234  0.4109  2.4878 -2.3008
  191SAPI  H15Y22099   6.187   5.486   4.133 -1.5147  2.5754 -0.5823
  191SAPI  C31622100   6.180   5.345   4.284 -0.7370 -0.6493 -0.3720
  191SAPI  H16X22101   6.267   5.403   4.322  0.8018 -1.7532 -2.0024
  191SAPI  H16Y22102   6.219   5.262   4.221  0.3869 -2.0398  1.9732
  191SAPI  C31722103   6.089   5.291   4.402 -0.3743 -0.2089  0.0345
  191SAPI  H17X22104   6.140   5.202   4.444 -0.3264 -1.4136 -2.3958
  191SAPI  H17Y22105   6.000   5.239   4.360  0.7110 -1.2413 -1.0742
  191SAPI  C31822106   6.055   5.402   4.502  0.1659  0.6967  0.5602
  191SAPI  H18X22107   6.140   5.423   4.569  0.0572 -0.4385  1.0887
  191SAPI  H18Y22108   5.967   5.374   4.564  0.6872  1.4078  1.6461
  191SAPI  H18Z22109   6.022   5.492   4.446 -1.3388  1.0158  1.8713
  192SAPI   C1222110   3.347   5.150   2.221  0.2250 -0.3417  0.5271
  192SAPI    H222111   3.277   5.097   2.289  0.0884 -1.2013 -0.2697
  192SAPI    O222112   3.283   5.147   2.091 -0.5236  0.2326 -0.1184
  192SAPI   HO222113   3.265   5.054   2.081 -0.9000  0.3895 -1.0365
  192SAPI   C1322114   3.355   5.291   2.270 -0.1346  0.0164 -0.7600
  192SAPI    H322115   3.397   5.295   2.373 -1.2336 -0.9668 -0.2443
  192SAPI    O322116   3.231   5.360   2.261 -0.1453 -0.4272  0.3044
  192SAPI   HO322117   3.211   5.353   2.167 -0.9404  0.4388  0.3981
  192SAPI   C1422118   3.459   5.373   2.190  0.2636 -0.1094 -0.8270
  192SAPI    H422119   3.401   5.398   2.099  0.2907  0.5149 -0.6759
  192SAPI    O422120   3.483   5.499   2.253  0.4597 -0.0667 -0.1735
  192SAPI   HO422121   3.466   5.570   2.191  1.3433 -0.6685 -1.1316
  192SAPI   C1522122   3.585   5.298   2.142 -0.1715  0.0114 -0.0597
  192SAPI    H522123   3.660   5.291   2.223 -1.6387  0.5399  1.4063
  192SAPI    O522124   3.643   5.375   2.033 -0.0493 -0.0824 -0.2095
  192SAPI   HO522125   3.628   5.470   2.043 -1.1512 -0.1315 -1.2468
  192SAPI   C1622126   3.564   5.159   2.101 -0.3714 -0.2935  0.0227
  192SAPI    H622127   3.512   5.167   2.003 -1.3281  2.4941  0.6687
  192SAPI    O622128   3.689   5.086   2.084 -0.3745 -0.0666 -0.0450
  192SAPI   HO622129   3.657   4.996   2.077 -2.3616  0.3281  2.5007
  192SAPI   C1122130   3.479   5.087   2.211 -0.3302  0.0798 -0.2385
  192SAPI    H122131   3.535   5.096   2.307 -1.2129  0.3326  0.2702
  192SAPI     P22132   3.470   4.835   2.283 -0.1712 -0.3154  0.1882
  192SAPI   O1322133   3.587   4.860   2.371  0.8514 -0.9172  0.1448
  192SAPI   O1422134   3.467   4.701   2.216 -0.0778 -0.1265  0.6726
  192SAPI   O1222135   3.470   4.951   2.162  0.3952 -0.6513 -0.4635
  192SAPI   O1122136   3.338   4.849   2.364  0.1934  0.6306  0.4522
  192SAPI    C122137   3.347   4.909   2.502 -0.3540  0.2547 -0.3026
  192SAPI    HA22138   3.412   4.999   2.501  1.0078 -0.6673  0.5881
  192SAPI    HB22139   3.245   4.934   2.538 -0.7292 -1.9528  0.3495
  192SAPI    C222140   3.392   4.805   2.614 -0.0574  0.0284  0.4336
  192SAPI    HS22141   3.475   4.755   2.561 -1.0885  1.0250 -2.3055
  192SAPI   O2122142   3.278   4.716   2.623  0.0612 -0.2482  0.4479
  192SAPI   C2122143   3.309   4.596   2.680  0.8200 -0.1281  0.8302
  192SAPI   O2222144   3.418   4.557   2.713  0.1997 -0.6868  0.4527
  192SAPI   C2222145   3.176   4.513   2.711  0.1071 -0.3280  0.1321
  192SAPI   H2R22146   3.150   4.507   2.818  1.3343  0.1613  0.4701
  192SAPI   H2S22147   3.093   4.559   2.652  0.7178  0.7149  0.0751
  192SAPI    C322148   3.435   4.859   2.753  0.0879  0.8786  0.3851
  192SAPI    HX22149   3.488   4.780   2.810 -0.2409  0.5204  0.2004
  192SAPI    HY22150   3.347   4.894   2.810  0.1006  1.5307  0.0132
  192SAPI   O3122151   3.526   4.967   2.727 -0.3047  0.3673 -0.1705
  192SAPI   C3122152   3.655   4.954   2.761  0.1579 -0.5627 -0.2571
  192SAPI   O3222153   3.706   4.857   2.808  0.2466  0.1825  0.1049
  192SAPI   C3222154   3.714   5.096   2.739 -1.3851 -0.3287 -0.2389
  192SAPI   H2X22155   3.653   5.178   2.782 -0.1906  0.6484 -0.3501
  192SAPI   H2Y22156   3.707   5.111   2.630 -1.7280  2.4034  0.1058
  192SAPI   C2322157   3.190   4.371   2.659 -0.2374  0.4657 -0.3162
  192SAPI   H3R22158   3.288   4.355   2.610 -0.9840  0.7447 -1.9759
  192SAPI   H3S22159   3.122   4.367   2.571  0.2260  0.1335 -0.6646
  192SAPI   C2422160   3.152   4.261   2.748  0.3507 -0.1367  0.4975
  192SAPI   H4R22161   3.186   4.172   2.690 -0.3319 -0.3453  0.4035
  192SAPI   H4S22162   3.043   4.249   2.765  0.8136 -2.7233  2.2863
  192SAPI   C2522163   3.230   4.265   2.879  0.4237 -0.4142  0.5074
  192SAPI   H5R22164   3.338   4.249   2.867  1.1216  3.2369  0.6839
  192SAPI   C2622165   3.179   4.274   3.008 -0.2650 -0.5727  0.2877
  192SAPI   H6R22166   3.242   4.247   3.094 -1.1104  1.2792  1.5459
  192SAPI   C2722167   3.041   4.307   3.050  0.7106 -0.0518  0.2467
  192SAPI   H7R22168   2.989   4.211   3.065 -0.2982  0.7283  2.0065
  192SAPI   H7S22169   2.990   4.368   2.973 -0.8697 -0.9429  0.5526
  192SAPI   C2822170   3.026   4.387   3.173 -0.4036 -0.3475  0.4711
  192SAPI   H8R22171   3.042   4.494   3.156  0.3940 -0.4781  0.3385
  192SAPI   C2922172   3.015   4.330   3.300 -0.3406  0.0913 -0.2678
  192SAPI   H9R22173   3.008   4.402   3.383 -2.5884  1.7969 -1.8054
  192SAPI  C21022174   3.014   4.176   3.330 -0.5211 -0.6698  0.4528
  192SAPI  H10R22175   3.088   4.155   3.410 -0.9694 -1.3579  0.7016
  192SAPI  H10S22176   3.047   4.113   3.245  1.3354 -0.8177  1.2496
  192SAPI  C21122177   2.880   4.102   3.358  0.1140 -0.2675 -0.3354
  192SAPI  H11R22178   2.823   4.068   3.270  0.6688 -2.8815  0.2303
  192SAPI  C21222179   2.821   4.080   3.480 -0.6937  0.0256  1.3770
  192SAPI  H12R22180   2.734   4.014   3.492  0.6719 -1.5735  3.0456
  192SAPI  C21322181   2.861   4.116   3.621 -0.3618 -0.5830  0.6121
  192SAPI  H13R22182   2.972   4.109   3.625 -0.2775  0.7896  1.4932
  192SAPI  H13S22183   2.825   4.041   3.694  1.1053 -1.8881  0.0325
  192SAPI  C21422184   2.803   4.253   3.660 -0.8665 -0.2221 -0.1554
  192SAPI  H14R22185   2.702   4.269   3.619 -1.0336 -2.8768 -1.0192
  192SAPI  C21522186   2.872   4.342   3.728 -0.2866 -0.4927 -0.1786
  192SAPI  H15R22187   2.828   4.441   3.744 -1.5711 -1.2222  1.0329
  192SAPI  C21622188   3.010   4.329   3.778 -0.3338  0.5729  0.1285
  192SAPI  H16R22189   3.055   4.431   3.780 -1.7102  1.1858  1.4423
  192SAPI  H16S22190   3.078   4.266   3.717 -0.7201 -0.9162  1.2064
  192SAPI  C21722191   3.017   4.279   3.918 -0.0556  0.6737  0.3154
  192SAPI  H17R22192   3.119   4.251   3.950  0.6574  2.7151 -0.0148
  192SAPI  H17S22193   2.958   4.185   3.926 -1.5283  1.6094  0.8637
  192SAPI  C21822194   2.967   4.376   4.025  0.0952 -0.3319  0.1543
  192SAPI  H18R22195   2.865   4.409   3.994 -0.9244  0.0345  3.4956
  192SAPI  H18S22196   3.037   4.463   4.030 -1.3008  0.7537  2.8355
  192SAPI  C21922197   2.962   4.317   4.170 -0.3021 -0.7833  0.6178
  192SAPI  H19R22198   3.057   4.346   4.218  0.7543 -0.1399 -1.7393
  192SAPI  H19S22199   2.959   4.206   4.170  1.7014 -0.8965  2.0233
  192SAPI  C22022200   2.840   4.363   4.246  0.5046 -0.4267 -0.0282
  192SAPI  H20R22201   2.834   4.304   4.340  0.3040 -0.1088  0.1628
  192SAPI  H20S22202   2.748   4.344   4.186 -0.6059 -0.8348  1.7281
  192SAPI  H20T22203   2.842   4.471   4.271 -2.2300  0.0636 -1.5611
  192SAPI   C3322204   3.855   5.107   2.805  0.7396  0.0676 -0.0400
  192SAPI   H3X22205   3.891   5.212   2.800  1.7868 -0.3280 -1.2240
  192SAPI   H3Y22206   3.926   5.040   2.752 -1.8879 -3.1281  0.1170
  192SAPI   C3422207   3.850   5.085   2.963  0.0647  1.0387 -0.3420
  192SAPI   H4X22208   3.956   5.082   2.996  0.5559  0.9424 -1.8419
  192SAPI   H4Y22209   3.798   4.989   2.983  2.5175 -0.0351  1.4603
  192SAPI   C3522210   3.779   5.190   3.042 -0.2157 -1.0680 -0.2836
  192SAPI   H5X22211   3.670   5.183   3.021  0.1712  0.8955 -3.6342
  192SAPI   H5Y22212   3.808   5.290   3.002 -1.7886 -0.8068 -0.8594
  192SAPI   C3622213   3.804   5.201   3.188  0.3106  0.2920  0.4260
  192SAPI   H6X22214   3.730   5.276   3.222  0.1907  0.7344 -0.7431
  192SAPI   H6Y22215   3.902   5.252   3.201 -0.3072  0.9228  3.1521
  192SAPI   C3722216   3.797   5.069   3.269  0.7456  0.5553 -0.2521
  192SAPI   H7X22217   3.883   5.005   3.240 -0.6745 -1.1539 -0.9296
  192SAPI   H7Y22218   3.703   5.020   3.235  0.1680  2.2352 -1.1749
  192SAPI   C3822219   3.788   5.105   3.418 -0.3288  0.3572  0.7366
  192SAPI   H8X22220   3.711   5.182   3.440 -0.6853 -0.3461  2.1226
  192SAPI   H8Y22221   3.888   5.146   3.443 -0.0622  0.3135 -0.2552
  192SAPI   C3922222   3.763   4.971   3.493 -0.2138  0.0237 -0.5754
  192SAPI   H9X22223   3.832   4.898   3.447  1.4838  1.5469 -0.5613
  192SAPI   H9Y22224   3.653   4.956   3.501 -0.8636  3.7976 -0.4552
  192SAPI  C31022225   3.804   4.987   3.643  0.9485 -0.5180  0.7122
  192SAPI  H10X22226   3.913   5.005   3.651  0.7136  0.5934  1.8028
  192SAPI  H10Y22227   3.779   4.894   3.698  3.8009 -1.6908  0.2024
  192SAPI  C31122228   3.724   5.096   3.710  0.2507 -0.4832 -0.9738
  192SAPI  H11X22229   3.625   5.049   3.729  0.4115 -0.0819  1.1554
  192SAPI  H11Y22230   3.711   5.196   3.663  1.0905  0.1487  0.0833
  192SAPI  C31222231   3.770   5.142   3.847 -0.6112  0.4243  0.8889
  192SAPI  H12X22232   3.690   5.199   3.898 -0.4382 -0.3235  2.0243
  192SAPI  H12Y22233   3.848   5.221   3.835  1.1928 -1.1982  1.3837
  192SAPI  C31322234   3.810   5.033   3.935 -0.2325  0.1546 -0.6788
  192SAPI  H13X22235   3.876   4.958   3.885 -0.6884 -1.1466  0.5937
  192SAPI  H13Y22236   3.721   4.973   3.963 -0.3674  1.0192  0.8650
  192SAPI  C31422237   3.881   5.080   4.066  0.3112  0.7281 -0.0485
  192SAPI  H14X22238   3.976   5.133   4.046  2.0313 -1.0672  2.6814
  192SAPI  H14Y22239   3.910   4.987   4.121  0.9529 -0.6578 -2.5542
  192SAPI  C31522240   3.801   5.174   4.153  0.4896 -0.6749 -0.3241
  192SAPI  H15X22241   3.710   5.129   4.198 -0.2958 -0.0807 -1.2913
  192SAPI  H15Y22242   3.771   5.269   4.103  2.1676  0.0042 -0.1144
  192SAPI  C31622243   3.888   5.210   4.277  0.1873  0.7173 -0.3797
  192SAPI  H16X22244   3.986   5.251   4.242  0.4377  0.0521 -0.4676
  192SAPI  H16Y22245   3.909   5.117   4.334  1.3961  1.7846  0.9894
  192SAPI  C31722246   3.831   5.310   4.380  0.3772 -0.2045  0.3827
  192SAPI  H17X22247   3.732   5.280   4.420 -0.8945  1.1352 -1.5928
  192SAPI  H17Y22248   3.822   5.406   4.325  2.1715  0.5763  1.3446
  192SAPI  C31822249   3.934   5.338   4.490  0.0066 -0.1314 -0.0553
  192SAPI  H18X22250   3.903   5.425   4.553 -1.5760 -0.7195  0.0220
  192SAPI  H18Y22251   4.027   5.378   4.444 -0.4591  1.9945  0.7483
  192SAPI  H18Z22252   3.943   5.248   4.556  1.4281 -0.6802 -0.9536
  193SOD    SOD22253   3.743   6.757   0.161 -0.5184  0.3213 -0.0089
  194SOD    SOD22254   3.506   0.957   7.711  0.0065 -0.4776  0.1651
  195SOD    SOD22255   4.377   2.871   7.535 -0.0869 -0.0689  0.0095
  196SOD    SOD22256   6.836   0.803   6.249 -0.1462 -0.4625  0.1455
  197SOD    SOD22257   4.579   4.006   7.284  0.0142  0.0836 -0.1100
  198SOD    SOD22258   0.910   6.797   6.714 -0.0244 -0.0226  0.5364
  199SOD    SOD22259   0.798   6.033   1.913 -0.1053  0.5071  0.2401
  200SOD    SOD22260   4.700   2.923   1.952  0.0201  0.3419  0.1134
  201SOD    SOD22261   5.905   6.254   2.507  0.1379  0.0630 -0.4288
  202SOD    SOD22262   0.467   6.345   0.598 -0.2715 -0.3324  0.0679
  203SOD    SOD22263   2.176   3.549   2.079  0.2092 -0.1207 -0.1637
  204SOD    SOD22264   4.165   6.428   1.508 -0.1487  0.5855 -0.2247
  205SOD    SOD22265   4.012   4.901   6.913 -0.4349 -0.3542 -0.2949
  206SOD    SOD22266   6.681   4.208   7.007 -0.0767  0.0232  0.2937
  207SOD    SOD22267   3.273   1.404   0.783 -0.0893  0.0836 -0.1456
  208SOD    SOD22268   1.706   3.040   7.837  0.3435 -0.1634  0.0164
  209SOD    SOD22269   3.164   6.226   7.036 -0.5304 -0.1309 -0.1681
  210SOD    SOD22270   0.692   5.182   1.288  0.3067 -0.4869  0.2633
  211SOD    SOD22271   5.617   5.889   6.587 -0.4810 -0.3305  0.1595
  212SOD    SOD22272   6.686   2.991   7.553 -0.3477  0.6626 -0.0087
  213SOD    SOD22273   2.333   0.548   6.518 -0.2734 -0.4737 -0.1020
  214SOD    SOD22274   3.795   2.844   2.328 -0.3450 -0.4115 -0.4481
  215SOD    SOD22275   0.588   4.406   1.918  0.1968  0.3382  1.2283
  216SOD    SOD22276   6.809   3.969   1.708  0.1902  0.2233  0.5039
  217SOD    SOD22277   2.630   1.128   0.294  0.0592 -0.4545 -0.1726
  218SOD    SOD22278   4.709   6.485   6.674 -0.0926 -0.1701  0.1225
  219SOD    SOD22279   4.801   5.342   8.532 -0.0838  0.2517 -0.2417
  220SOD    SOD22280   5.074   4.272   1.198  0.6249  0.1523  0.5390
  221SOD    SOD22281   5.135   2.569   7.279 -0.0343 -0.2772 -0.2000
  222SOD    SOD22282   1.477   6.264   1.248 -0.0726 -0.1910  0.0335
  223SOD    SOD22283   4.962   5.733   1.794 -0.2658 -0.1076  0.5886
  224SOD    SOD22284   1.022   4.221   2.408  0.2484 -0.5305  0.0552
  225SOD    SOD22285   1.253   1.215   0.137 -0.0209 -0.0955  0.8748
  226SOD    SOD22286   5.256   6.819   1.016 -0.2075 -0.1660 -0.1604
  227SOD    SOD22287   3.250   4.416   1.993  0.3608  0.3323 -0.4486
  228SOD    SOD22288   1.805   4.901   8.489  0.5700  0.7003  0.2063
  229SOD    SOD22289   4.181   5.426   7.498  0.1981  0.3878 -0.0332
  230SOD    SOD22290   6.362   5.786   1.399 -0.3415 -0.0984  0.1130
  231SOD    SOD22291   5.391   6.470   7.293  0.4942  0.6160  0.6025
  232SOD    SOD22292   6.519   4.719   1.823  0.0327 -0.5478  0.1425
  233SOD    SOD22293   6.108   2.645   0.843  0.3654 -0.0546 -0.1149
  234CLA    CLA22294   4.584   5.928   0.560 -0.1151 -0.0998  0.0737
  235CLA    CLA22295   4.641   6.709   8.600  0.0902  0.0448  0.1822
  236CLA    CLA22296   2.892   2.587   0.228  0.1913  0.0055  0.0569
  237CLA    CLA22297   4.899   1.751   7.613  0.0650 -0.1642 -0.1760
  238CLA    CLA22298   0.108   4.761   2.450  0.3253  0.0607  0.1128
  239CLA    CLA22299   2.698   3.676   7.925  0.0656  0.2951  0.7011
  240CLA    CLA22300   4.536   4.141   0.302  0.1371  0.4090  0.1960
  241CLA    CLA22301   1.168   4.554   7.158 -0.0435  0.2131  0.2397
  242CLA    CLA22302   0.485   3.780   1.305  0.0788  0.0339 -0.2037
  243CLA    CLA22303   3.160   6.837   0.481 -0.3449  0.0171  0.3485
  244CLA    CLA22304   2.770   4.540   1.853  0.0593 -0.4988  0.5020
  245CLA    CLA22305   4.551   3.419   8.143  0.0094 -0.0483  0.1620
  246CLA    CLA22306   2.454   1.249   0.819 -0.1622  0.0426 -0.1304
  247CLA    CLA22307   6.252   2.684   8.495  0.0335 -0.0548  0.0115
  248CLA    CLA22308   2.904   5.821   1.287  0.2729  0.0764 -0.2032
  249CLA    CLA22309   1.641   0.731   7.914 -0.0430  0.0762  0.1348
  250CLA    CLA22310   4.095   4.928   0.552 -0.1669 -0.4530  0.1974
  251TIP3   OH222311   4.638   3.484   0.417 -0.3031 -0.3444 -0.0427
  251TIP3    H122312   4.728   3.514   0.407 -1.3720  3.0626 -0.6133
  251TIP3    H222313   4.605   3.476   0.327 -0.6688 -1.3137  0.1680
  252TIP3   OH222314   6.638   2.920   1.625 -0.4535 -0.1433 -0.2071
  252TIP3    H122315   6.694   2.925   1.702 -0.8564  1.6439 -0.0036
  252TIP3    H222316   6.689   2.867   1.563  1.1311  0.7479  0.2650
  253TIP3   OH222317   6.292   1.028   7.910  0.5520  0.4105  0.1907
  253TIP3    H122318   6.218   1.080   7.878  0.1404  0.3212  0.9757
  253TIP3    H222319   6.357   1.034   7.840 -0.5951 -0.3778 -1.0043
  254TIP3   OH222320   1.116   5.286   5.786  0.0076 -0.4141 -0.3653
  254TIP3    H122321   1.079   5.346   5.721  0.9312 -1.9790 -2.4474
  254TIP3    H222322   1.210   5.290   5.771  0.2141 -1.0526  0.6869
  255TIP3   OH222323   6.324   5.598   7.498  0.1211 -0.5128  0.0980
  255TIP3    H122324   6.406   5.558   7.526 -1.1941 -1.5700  2.7995
  255TIP3    H222325   6.260   5.526   7.502 -1.0938  0.4213 -1.3337
  256TIP3   OH222326   0.200   1.908   1.177  0.1884  0.2734 -0.6560
  256TIP3    H122327   0.216   1.881   1.087 -4.3112  0.5995 -1.8185
  256TIP3    H222328   0.204   1.826   1.227 -0.5325 -0.5151 -1.8161
  257TIP3   OH222329   3.628   6.039   8.509  0.5102 -0.1173 -0.2397
  257TIP3    H122330   3.677   6.088   8.575  0.2014  0.7143 -0.6089
  257TIP3    H222331   3.679   6.049   8.429 -0.3325  0.9257 -0.6741
  258TIP3   OH222332   6.503   6.176   0.141  0.4145  0.1867 -0.0940
  258TIP3    H122333   6.527   6.177   0.049  2.3920 -3.5259  0.1974
  258TIP3    H222334   6.450   6.097   0.152 -0.6025  1.0445  1.8456
  259TIP3   OH222335   6.835   3.856   0.940 -0.7129  0.0561 -0.3117
  259TIP3    H122336   6.773   3.920   0.975  0.9303  0.9858  1.1024
  259TIP3    H222337   6.856   3.801   1.015  0.2737 -0.1354 -0.7188
  260TIP3   OH222338   6.419   0.440   8.202  0.7880 -0.1352 -0.4196
  260TIP3    H122339   6.352   0.500   8.235  2.0371  1.6285 -0.9673
  260TIP3    H222340   6.379   0.353   8.211 -0.9925  0.7253  0.6126
  261TIP3   OH222341   6.104   5.446   7.541  0.2925 -0.2206  0.0354
  261TIP3    H122342   6.080   5.494   7.620  1.6854  0.7366 -0.0715
  261TIP3    H222343   6.152   5.370   7.573  1.6654  0.6494  0.1259
  262TIP3   OH222344   0.404   4.958   8.411  0.1729  0.1657 -0.2071
  262TIP3    H122345   0.431   5.043   8.377 -1.8893  0.5819 -0.9743
  262TIP3    H222346   0.463   4.896   8.369  1.4049  1.1590 -0.0022
  263TIP3   OH222347   6.666   1.047   0.009  0.0873  0.1229  0.5150
  263TIP3    H122348   6.760   1.065   0.005  0.5465 -1.9611 -3.0682
  263TIP3    H222349   6.635   1.065  -0.080 -2.1459 -2.6476  0.6046
  264TIP3   OH222350   5.786   1.777   1.104 -0.7038  0.0915 -0.1394
  264TIP3    H122351   5.718   1.786   1.037 -0.8123  2.1424  0.1895
  264TIP3    H222352   5.852   1.843   1.080  0.6624 -1.0965  0.1768
  265TIP3   OH222353   5.969   4.487   7.504  0.1303 -0.2901 -0.4386
  265TIP3    H122354   6.062   4.508   7.503  0.1026 -0.1193  0.0811
  265TIP3    H222355   5.964   4.393   7.486  0.3117 -0.0345 -1.9196
  266TIP3   OH222356   5.571   4.753   0.776 -0.4541  0.5338  0.0679
  266TIP3    H122357   5.572   4.726   0.868 -1.0856  1.1150  0.2529
  266TIP3    H222358   5.659   4.788   0.760 -0.3185  0.3553  0.4294
  267TIP3   OH222359   3.044   6.056   7.593  0.5087 -0.0537  0.0535
  267TIP3    H122360   3.025   6.136   7.642  0.5635 -0.2248  0.3587
  267TIP3    H222361   3.083   6.086   7.511 -0.9706  0.3094 -0.5477
  268TIP3   OH222362   0.838   3.630   8.445  0.1218  0.1927 -0.4005
  268TIP3    H122363   0.793   3.706   8.481 -0.7137 -1.1047  1.4538
  268TIP3    H222364   0.903   3.666   8.385 -0.2028  2.3475  0.4798
  269TIP3   OH222365   3.045   2.502   2.116  0.1038  0.2850 -0.7738
  269TIP3    H122366   3.087   2.554   2.047  2.1109 -1.2953 -0.8527
  269TIP3    H222367   3.055   2.411   2.087  0.6919 -0.4041  1.3792
  270TIP3   OH222368   6.147   4.501   0.863  0.5115 -0.7965  0.4005
  270TIP3    H122369   6.083   4.431   0.876  0.5190 -0.9294 -0.2790
  270TIP3    H222370   6.161   4.505   0.769  3.0833 -2.1834  0.6356
  271TIP3   OH222371   5.200   0.129   1.118  0.1614 -0.0469 -0.1426
  271TIP3    H122372   5.231   0.214   1.087  0.2166 -0.1885 -0.4826
  271TIP3    H222373   5.120   0.149   1.166  0.4671  0.2546  0.2413
  272TIP3   OH222374   3.634   2.836   7.390 -0.2695 -0.7098 -0.5000
  272TIP3    H122375   3.695   2.869   7.324 -2.6351  0.7398 -2.1283
  272TIP3    H222376   3.599   2.755   7.353  1.9479 -2.6771  1.3274
  273TIP3   OH222377   4.607   5.497   7.532  0.5341 -0.3904  0.0019
  273TIP3    H122378   4.527   5.455   7.564  1.5580 -1.9396  0.6116
  273TIP3    H222379   4.660   5.512   7.610  1.1282 -0.0012 -0.4642
  274TIP3   OH222380   4.484   4.441   0.263 -0.0002 -0.1098 -0.1309
  274TIP3    H122381   4.459   4.418   0.174 -2.2266  0.5273  0.2611
  274TIP3    H222382   4.532   4.365   0.296  1.4359 -0.0932 -2.0461
  275TIP3   OH222383   3.825   4.938   2.458  0.0602  0.5398 -0.2871
  275TIP3    H122384   3.741   4.898   2.436 -0.1281 -0.1153  1.4474
  275TIP3    H222385   3.884   4.864   2.472  1.0931  0.9912 -1.8933
  276TIP3   OH222386   4.338   3.855   1.960 -0.4019  0.2247  0.2969
  276TIP3    H122387   4.259   3.878   1.912  0.2858 -1.7848 -2.0254
  276TIP3    H222388   4.395   3.931   1.950 -1.3900  1.0173  0.5346
  277TIP3   OH222389   1.206   6.719   7.004  0.4264  0.5939 -0.0707
  277TIP3    H122390   1.185   6.687   6.916 -0.6636 -0.5909  0.5672
  277TIP3    H222391   1.149   6.667   7.061  1.5649  0.8984  1.3811
  278TIP3   OH222392   0.868   1.857   1.365 -0.3166 -0.0931  0.4901
  278TIP3    H122393   0.836   1.793   1.302  0.1056  1.9587 -1.9600
  278TIP3    H222394   0.963   1.854   1.357 -0.2745  0.4514  0.7556
  279TIP3   OH222395   6.198   1.261   7.653  0.1707  0.0676 -0.1151
  279TIP3    H122396   6.160   1.327   7.711  1.1138 -1.0128  1.8768
  279TIP3    H222397   6.138   1.187   7.657 -0.7480  0.6486 -2.1251
  280TIP3   OH222398   0.565   5.379   1.916 -0.0560  0.1083  0.4551
  280TIP3    H122399   0.539   5.405   1.828 -2.2745  0.6911  1.1993
  280TIP3    H222400   0.654   5.413   1.927  0.7711 -1.0975 -1.9634
  281TIP3   OH222401   6.571   3.289   1.786  0.0490  0.7797 -0.5471
  281TIP3    H122402   6.624   3.227   1.836  1.6369  1.4601 -1.3279
  281TIP3    H222403   6.496   3.238   1.757  0.2641 -0.2171  0.5765
  282TIP3   OH222404   3.827   3.275   1.505  0.1985 -0.1536 -0.4894
  282TIP3    H122405   3.802   3.199   1.558 -2.0669  1.0532  0.2912
  282TIP3    H222406   3.803   3.251   1.415 -1.3659 -0.0492 -0.1204
  283TIP3   OH222407   5.867   4.577   1.239 -0.4607 -0.6753  0.3875
  283TIP3    H122408   5.896   4.486   1.243 -0.5824 -0.6930  0.8948
  283TIP3    H222409   5.870   4.607   1.329  0.0259 -0.0305  0.1636
  284TIP3   OH222410   4.886   6.390   0.541 -0.2640 -0.5146  0.2775
  284TIP3    H122411   4.795   6.365   0.552 -0.5989  0.7653  0.5391
  284TIP3    H222412   4.899   6.390   0.446 -1.0543  1.0034  0.1416
  285TIP3   OH222413   4.585   5.607   7.281  0.1408 -0.3382 -1.0327
  285TIP3    H122414   4.609   5.524   7.240  0.6014 -0.3740 -0.7052
  285TIP3    H222415   4.570   5.584   7.373  0.0606 -0.0930 -0.9856
  286TIP3   OH222416   3.621   2.313   1.382  0.7086  0.0590  1.3053
  286TIP3    H122417   3.537   2.357   1.373  1.1240  1.6232  3.9016
  286TIP3    H222418   3.610   2.254   1.458  1.4775 -1.0138  0.6206
  287TIP3   OH222419   2.870   0.194   1.261  0.1576  0.6576  0.2802
  287TIP3    H122420   2.935   0.161   1.322 -0.0055 -0.6525 -0.2185
  287TIP3    H222421   2.797   0.223   1.316  1.2282  2.3881  0.8547
  288TIP3   OH222422   5.973   0.294   2.228 -0.1334 -0.1007  0.5154
  288TIP3    H122423   5.936   0.296   2.140 -0.2020 -0.9978  0.5173
  288TIP3    H222424   5.911   0.243   2.280  1.0153 -1.5272  0.5481
  289TIP3   OH222425   1.652   4.902   8.082  0.6649  0.7237 -0.2546
  289TIP3    H122426   1.690   4.909   8.170 -0.5557  1.5215  0.2493
  289TIP3    H222427   1.564   4.940   8.092  0.6071  1.0762 -1.8870
  290TIP3   OH222428   2.509   6.793   8.462  0.4286 -0.5411  0.5173
  290TIP3    H122429   2.465   6.774   8.546 -1.3283  2.0675  0.3143
  290TIP3    H222430   2.456   6.748   8.397 -0.4651  0.4733  0.5152
  291TIP3   OH222431   5.567   1.271   0.981  0.0513  0.7079 -0.2589
  291TIP3    H122432   5.494   1.209   0.980  0.1648  0.5734 -0.9683
  291TIP3    H222433   5.532   1.349   1.024 -0.5341  0.6695 -0.6492
  292TIP3   OH222434   5.550   5.101   2.429 -0.0154 -0.0310 -0.6535
  292TIP3    H122435   5.509   5.053   2.357 -0.7548  0.2632 -0.4403
  292TIP3    H222436   5.636   5.126   2.395  1.3245 -3.2799 -0.0661
  293TIP3   OH222437   5.313   5.207   7.287 -0.4527 -0.1292  0.4552
  293TIP3    H122438   5.248   5.256   7.338  1.4894 -1.3023  4.4728
  293TIP3    H222439   5.319   5.123   7.333  1.9193 -1.1089 -1.4815
  294TIP3   OH222440   2.371   4.596   7.485  0.2610 -0.1426 -0.4000
  294TIP3    H122441   2.407   4.632   7.566 -1.1161  0.8343 -0.1974
  294TIP3    H222442   2.314   4.525   7.514  0.6261 -0.5294 -0.6073
  295TIP3   OH222443   3.271   6.197   0.007  0.1965  0.2706  0.8619
  295TIP3    H122444   3.220   6.118  -0.013 -1.7081  1.2180  1.6812
  295TIP3    H222445   3.205   6.263   0.027  1.7559  1.9614  0.6636
  296TIP3   OH222446   1.125   4.079   7.265 -0.3709 -0.2270  0.1612
  296TIP3    H122447   1.112   4.144   7.195  0.4177  0.3398  0.5269
  296TIP3    H222448   1.190   4.018   7.229  0.7772  0.6134  0.7299
  297TIP3   OH222449   3.963   6.679   0.995 -0.5606 -0.0147  0.0357
  297TIP3    H122450   4.041   6.628   1.020  0.1918  0.5877 -1.0117
  297TIP3    H222451   3.911   6.619   0.942 -0.5212 -0.2300  0.2369
  298TIP3   OH222452   4.258   2.120   2.175 -0.4001 -0.0849 -0.1832
  298TIP3    H122453   4.202   2.196   2.159  0.7303  0.6549 -0.7514
  298TIP3    H222454   4.320   2.149   2.242  2.0356  0.6021 -2.5870
  299TIP3   OH222455   5.425   5.490   1.363 -0.0699  0.5316 -0.8432
  299TIP3    H122456   5.393   5.420   1.306 -1.4567  0.5526 -0.1310
  299TIP3    H222457   5.515   5.465   1.384 -0.7184 -1.3534 -0.1394
  300TIP3   OH222458   3.452   0.893   8.350  0.1924 -0.1509 -0.2317
  300TIP3    H122459   3.509   0.969   8.337  0.2871 -0.4367 -1.6126
  300TIP3    H222460   3.364   0.926   8.332  0.2577 -0.4077 -1.0551
  301TIP3   OH222461   2.119   0.281   0.111  0.0330 -0.3217  0.0141
  301TIP3    H122462   2.086   0.228   0.184 -0.0641 -1.5567 -0.8964
  301TIP3    H222463   2.208   0.250   0.097  0.5044  0.8213  0.4425
  302TIP3   OH222464   4.290   6.590   7.491 -0.2434 -0.8124 -0.3291
  302TIP3    H122465   4.345   6.512   7.488  1.4140  0.2987 -0.1562
  302TIP3    H222466   4.222   6.570   7.555  1.0121 -1.5822  0.7980
  303TIP3   OH222467   6.296   5.974   0.221  0.3195  1.0334 -0.0787
  303TIP3    H122468   6.334   5.971   0.309  0.5161  0.1930 -0.1864
  303TIP3    H222469   6.219   5.918   0.227  0.6760  0.4841 -0.6041
  304TIP3   OH222470   1.063   4.421   7.994  0.1372 -0.4526 -0.5275
  304TIP3    H122471   1.089   4.343   7.946  0.1505 -1.2852  0.7737
  304TIP3    H222472   1.008   4.387   8.066  2.3390  0.3867  1.6966
  305TIP3   OH222473   1.043   1.712   5.957  0.1587 -0.6746 -0.1553
  305TIP3    H122474   1.112   1.712   6.023 -0.9294 -0.8827  1.0218
  305TIP3    H222475   0.962   1.701   6.006 -0.7835  0.1089 -1.4453
  306TIP3   OH222476   0.484   4.182   1.052 -0.3739  0.0701  0.2354
  306TIP3    H122477   0.406   4.226   1.019 -0.2688  0.6875  0.7758
  306TIP3    H222478   0.530   4.249   1.102 -0.0151 -0.5625  0.7769
  307TIP3   OH222479   5.723   5.888   1.971 -0.0030 -0.8850 -0.7123
  307TIP3    H122480   5.674   5.916   1.894 -0.6911 -0.0316  0.0219
  307TIP3    H222481   5.679   5.809   2.001  0.2259 -1.1809 -1.1473
  308TIP3   OH222482   2.996   2.526   7.631  0.3527  0.2570 -0.0175
  308TIP3    H122483   2.916   2.567   7.665 -0.1477 -1.2433  0.6959
  308TIP3    H222484   3.040   2.596   7.583 -0.4125  1.6510  1.2235
  309TIP3   OH222485   0.995   2.017   6.221 -0.1713  0.3164  0.2806
  309TIP3    H122486   0.921   2.011   6.282 -0.7420  0.8169 -0.3442
  309TIP3    H222487   0.975   1.952   6.154 -0.6322  1.2226 -0.4874
  310TIP3   OH222488   5.689   1.755   0.299 -0.0397  0.2928 -0.1629
  310TIP3    H122489   5.762   1.705   0.336 -0.3663 -0.1798 -0.1608
  310TIP3    H222490   5.648   1.696   0.237  0.2123  0.9168 -0.9526
  311TIP3   OH222491   6.042   5.326   7.926 -0.4790  0.4316 -0.4385
  311TIP3    H122492   5.999   5.386   7.865  1.3420  1.5203 -0.7181
  311TIP3    H222493   5.972   5.269   7.955 -1.6938  0.7334 -2.5116
  312TIP3   OH222494   3.407   5.821   0.551 -0.1236  0.0990 -0.0352
  312TIP3    H122495   3.435   5.731   0.561  0.2043  0.2215  0.1561
  312TIP3    H222496   3.312   5.816   0.540 -0.3625 -0.1359  1.8928
  313TIP3   OH222497   6.253   4.915   1.005  0.4498  0.1545  0.5213
  313TIP3    H122498   6.221   5.002   1.026 -2.0577 -0.3305 -0.8446
  313TIP3    H222499   6.196   4.856   1.055  1.3022 -0.7071  0.4972
  314TIP3   OH222500   2.002   1.456   8.364 -0.0044  0.1818  0.3132
  314TIP3    H122501   1.922   1.467   8.311 -0.7922 -1.6041  1.0641
  314TIP3    H222502   1.973   1.409   8.442  1.9470 -1.3395  0.1857
  315TIP3   OH222503   5.635   0.957   7.678  0.0078  0.0946 -0.1118
  315TIP3    H122504   5.555   0.938   7.726 -1.3285  2.4008 -1.2650
  315TIP3    H222505   5.685   1.015   7.735  0.9121 -1.3018  0.5858
  316TIP3   OH222506   5.351   3.436   8.321 -0.1260  0.6584  0.5611
  316TIP3    H122507   5.271   3.485   8.339 -0.3973 -0.0202  1.3011
  316TIP3    H222508   5.320   3.354   8.283  0.1675  0.1609  1.3567
  317TIP3   OH222509   0.657   0.595   6.597  0.2808 -0.7874 -0.3163
  317TIP3    H122510   0.651   0.639   6.512  0.5047 -0.6460 -0.2587
  317TIP3    H222511   0.587   0.635   6.649 -0.8185 -1.9045 -0.8897
  318TIP3   OH222512   1.074   0.558   2.185  0.1204  0.0333  0.6045
  318TIP3    H122513   1.158   0.603   2.188 -0.7610  1.7621  0.3833
  318TIP3    H222514   1.049   0.558   2.093 -1.4164  2.1255  0.9574
  319TIP3   OH222515   2.769   0.583   0.886  0.2395  0.1533  0.3268
  319TIP3    H122516   2.831   0.642   0.843 -0.0194 -0.2080 -0.5503
  319TIP3    H222517   2.782   0.499   0.843 -1.7334  0.3511 -0.7551
  320TIP3   OH222518   1.265   5.088   7.098  0.4778  0.2808  0.3143
  320TIP3    H122519   1.263   5.023   7.027 -1.2494 -2.1035  2.3466
  320TIP3    H222520   1.356   5.090   7.125  0.5328 -1.6902  0.4432
  321TIP3   OH222521   5.858   0.294   6.983 -0.0363 -0.6495  0.3531
  321TIP3    H122522   5.940   0.339   7.004 -1.0313  1.2791  0.3609
  321TIP3    H222523   5.805   0.361   6.939 -1.1715 -2.1925 -0.7436
  322TIP3   OH222524   0.234   5.000   0.085 -0.4917  0.4763  0.2796
  322TIP3    H122525   0.164   5.030   0.027 -0.0525  0.5763 -0.2034
  322TIP3    H222526   0.194   4.928   0.135 -1.3987  1.5172  1.1039
  323TIP3   OH222527   3.957   3.983   7.146  0.5385  0.2378 -0.4493
  323TIP3    H122528   4.030   3.952   7.093  0.0644 -0.6592 -0.5945
  323TIP3    H222529   3.983   3.965   7.236  1.2479  1.5568 -0.3627
  324TIP3   OH222530   2.854   6.785   6.959 -0.0026 -0.1666  0.1037
  324TIP3    H122531   2.791   6.797   6.887 -1.5720 -1.6365  1.1622
  324TIP3    H222532   2.922   6.729   6.922  0.1977  0.6121 -0.7620
  325TIP3   OH222533   3.163   3.731   0.272  0.1213  0.5204 -0.1764
  325TIP3    H122534   3.258   3.724   0.269  0.1618  0.3944  1.0457
  325TIP3    H222535   3.145   3.790   0.346 -0.7304  1.0589 -0.7828
  326TIP3   OH222536   2.269   0.740   2.008 -0.8077  0.2139  0.1805
  326TIP3    H122537   2.267   0.756   1.914 -0.7723 -1.3859 -0.1325
  326TIP3    H222538   2.178   0.750   2.036 -0.8687  0.4017 -0.0844
  327TIP3   OH222539   5.143   4.494   1.628  0.1121  0.1714 -0.1959
  327TIP3    H122540   5.237   4.476   1.629 -0.0880 -1.2989  2.7352
  327TIP3    H222541   5.137   4.589   1.629  1.5392  0.3019 -0.9380
  328TIP3   OH222542   1.940   2.186   7.827  0.0432  0.0204 -0.5945
  328TIP3    H122543   2.020   2.237   7.832 -0.3463  0.4966  1.2670
  328TIP3    H222544   1.870   2.251   7.830 -0.4682 -0.5558  2.1498
  329TIP3   OH222545   5.782   2.420   8.158 -0.2673 -0.5010  0.1860
  329TIP3    H122546   5.861   2.419   8.103  1.4640 -1.4897  2.5185
  329TIP3    H222547   5.792   2.499   8.212 -0.1642 -1.3336  1.4106
  330TIP3   OH222548   6.692   0.776   7.195  0.3515  0.3301 -1.0798
  330TIP3    H122549   6.732   0.830   7.126 -0.9059  0.7885 -1.4758
  330TIP3    H222550   6.657   0.839   7.258  1.9279 -0.0836  0.2946
  331TIP3   OH222551   5.139   4.230   0.115 -0.7108  0.4060  0.5685
  331TIP3    H122552   5.156   4.173   0.190  0.9568  1.4736  1.0552
  331TIP3    H222553   5.217   4.224   0.061 -0.9456  1.4048  0.0880
  332TIP3   OH222554   4.427   6.829   7.584 -0.2163  0.3965 -0.0233
  332TIP3    H122555   4.404   6.740   7.559  1.6558  0.1131 -0.9469
  332TIP3    H222556   4.454   6.823   7.676  1.3410 -0.3420 -0.4841
  333TIP3   OH222557   1.181   0.883   0.431 -0.0383  0.5179 -0.4040
  333TIP3    H122558   1.095   0.852   0.402  0.5604 -0.7400 -0.9120
  333TIP3    H222559   1.242   0.816   0.400  1.2380  1.8627 -0.8783
  334TIP3   OH222560   5.652   2.698   7.934  0.2064 -0.5935 -0.2757
  334TIP3    H122561   5.724   2.695   7.997 -0.4243 -0.9721  0.4521
  334TIP3    H222562   5.573   2.700   7.989 -0.3455  2.6685 -0.9421
  335TIP3   OH222563   3.519   2.595   1.995  0.3184 -0.1290  0.1125
  335TIP3    H122564   3.507   2.666   1.932 -1.6582 -1.0393 -0.6311
  335TIP3    H222565   3.484   2.629   2.077  1.7789  0.6341  0.4471
  336TIP3   OH222566   3.715   1.149   2.455  0.0356  0.2288  0.1437
  336TIP3    H122567   3.694   1.137   2.362  0.2931  1.2511 -0.0518
  336TIP3    H222568   3.647   1.208   2.488 -0.0674 -0.1457  0.6170
  337TIP3   OH222569   5.930   4.245   7.836 -0.0971 -0.4614 -0.0663
  337TIP3    H122570   5.889   4.215   7.917  1.9345 -0.5325  1.0209
  337TIP3    H222571   5.944   4.166   7.785 -0.0557 -0.6128  0.1766
  338TIP3   OH222572   1.616   5.722   7.595  0.1369 -0.1754 -0.0439
  338TIP3    H122573   1.563   5.717   7.515  0.6898 -1.0305 -0.3730
  338TIP3    H222574   1.608   5.636   7.635  2.0867 -0.7145 -0.6648
  339TIP3   OH222575   3.884   6.101   1.344  0.7519 -0.0268 -0.0173
  339TIP3    H122576   3.801   6.148   1.340  0.5542 -0.3756  0.0254
  339TIP3    H222577   3.863   6.011   1.319  1.4106  0.2412 -1.6713
  340TIP3   OH222578   3.175   5.553   6.291 -0.0722  0.2999  0.9831
  340TIP3    H122579   3.129   5.631   6.260  1.0459  1.5652  2.3694
  340TIP3    H222580   3.162   5.488   6.222  1.4013  2.5959 -1.6064
  341TIP3   OH222581   1.942   1.392   7.708 -0.5122  0.1459 -0.4163
  341TIP3    H122582   1.922   1.408   7.616 -3.1266 -1.2163 -0.1907
  341TIP3    H222583   1.857   1.397   7.752  0.3021 -1.5739  1.5150
  342TIP3   OH222584   2.538   0.824   0.829  0.2491  0.2640  0.1961
  342TIP3    H122585   2.543   0.740   0.875  0.8060 -0.6441 -1.4550
  342TIP3    H222586   2.535   0.801   0.737  0.5839  2.0741 -0.3090
  343TIP3   OH222587   3.410   4.821   0.569  0.0665  0.0157  0.0464
  343TIP3    H122588   3.401   4.727   0.588 -2.6218  0.2409  0.2679
  343TIP3    H222589   3.425   4.861   0.654 -2.5750  0.0690  0.5999
  344TIP3   OH222590   2.633   2.638   1.596  0.0977  0.4629  0.2538
  344TIP3    H122591   2.700   2.618   1.530  0.0876  1.5442 -0.1162
  344TIP3    H222592   2.627   2.559   1.650 -0.0162 -0.5073 -1.1352
  345TIP3   OH222593   5.702   4.975   6.549  0.0035  0.6305  0.5597
  345TIP3    H122594   5.611   4.956   6.523 -0.2550  0.0038  1.8265
  345TIP3    H222595   5.751   4.975   6.467 -0.3510 -3.4685  0.1370
  346TIP3   OH222596   1.407   4.050   1.706 -0.2842 -0.3865 -0.1257
  346TIP3    H122597   1.342   4.070   1.638  1.4351 -0.5051 -1.8847
  346TIP3    H222598   1.450   3.970   1.675  1.1732  0.0830  0.6108
  347TIP3   OH222599   1.640   0.315   8.407 -0.0671  0.2510 -0.7412
  347TIP3    H122600   1.545   0.321   8.398 -0.0375  0.5139 -0.9022
  347TIP3    H222601   1.672   0.314   8.317  0.1017  0.5295 -0.6869
  348TIP3   OH222602   2.139   3.353   1.937 -0.1648  0.1093  0.5906
  348TIP3    H122603   2.100   3.303   1.866  0.9168  0.9075 -0.6155
  348TIP3    H222604   2.128   3.298   2.014 -0.6832 -1.1240 -0.3282
  349TIP3   OH222605   3.875   4.793   7.315 -0.6259  0.3480  0.1358
  349TIP3    H122606   3.967   4.789   7.291 -0.9427 -0.6632 -1.0195
  349TIP3    H222607   3.836   4.855   7.253 -1.3062 -1.7196 -1.6505
  350TIP3   OH222608   3.254   3.208   8.134  0.1192 -0.4737 -0.0256
  350TIP3    H122609   3.310   3.268   8.184  1.5968 -0.4390 -1.6522
  350TIP3    H222610   3.207   3.265   8.073  1.7600 -0.9151 -1.7913
  351TIP3   OH222611   5.991   4.689   7.049  0.1300  0.4426  0.2807
  351TIP3    H122612   5.921   4.688   7.114 -0.7590 -1.0696 -0.6497
  351TIP3    H222613   5.961   4.630   6.980  2.1982 -0.0276 -0.2880
  352TIP3   OH222614   1.118   2.600   7.630 -0.3006 -0.2013  0.3501
  352TIP3    H122615   1.049   2.542   7.662 -1.8241 -0.8595 -3.6714
  352TIP3    H222616   1.081   2.688   7.638 -1.2152 -0.4657 -0.8191
  353TIP3   OH222617   5.696   2.674   6.968 -0.2389  0.0547 -0.4165
  353TIP3    H122618   5.790   2.692   6.971 -0.0468 -0.9750  0.1326
  353TIP3    H222619   5.683   2.629   6.885 -0.5214  1.5736 -1.2246
  354TIP3   OH222620   5.374   3.251   0.235  0.2194 -0.3997  0.0665
  354TIP3    H122621   5.355   3.344   0.243 -1.8498 -0.6670 -0.9494
  354TIP3    H222622   5.411   3.226   0.320 -0.3857  1.0782  0.7963
  355TIP3   OH222623   3.667   5.475   0.815  0.5154  0.0447  0.2977
  355TIP3    H122624   3.747   5.502   0.769  0.9181  0.6996  1.3666
  355TIP3    H222625   3.696   5.409   0.878  0.1418 -0.0354  0.3902
  356TIP3   OH222626   3.287   4.686   7.602  0.2135 -0.1690  0.2424
  356TIP3    H122627   3.307   4.778   7.616 -0.7218 -0.1311  1.5058
  356TIP3    H222628   3.334   4.663   7.522 -1.5503  2.0346 -1.5330
  357TIP3   OH222629   6.293   0.245   1.520 -0.4688 -0.1724 -0.8727
  357TIP3    H122630   6.215   0.255   1.465 -1.3617  0.4342  0.4437
  357TIP3    H222631   6.341   0.327   1.509 -0.0162 -0.5420 -1.6767
  358TIP3   OH222632   5.100   2.128   0.983 -0.2066 -0.0519  0.3677
  358TIP3    H122633   5.033   2.100   0.920 -1.6270  3.0192  0.3317
  358TIP3    H222634   5.050   2.150   1.062  0.9290  0.9081  0.8443
  359TIP3   OH222635   6.213   3.075   0.723 -0.0400  0.0603 -0.2444
  359TIP3    H122636   6.260   3.151   0.690 -1.1199  1.3442  1.0636
  359TIP3    H222637   6.272   3.001   0.706  2.6606  1.6073  1.6708
  360TIP3   OH222638   6.543   6.521   0.863 -0.5348  0.3354 -0.1937
  360TIP3    H122639   6.545   6.425   0.871 -0.6811  0.3672  0.2766
  360TIP3    H222640   6.607   6.540   0.795 -1.3110 -0.1728 -1.0885
  361TIP3   OH222641   4.502   6.318   5.861  0.2086  0.5469  0.1257
  361TIP3    H122642   4.407   6.317   5.873  0.4099 -0.2011  1.9877
  361TIP3    H222643   4.535   6.256   5.927  1.8254 -1.0789 -2.0461
  362TIP3   OH222644   3.053   3.488   1.543  0.8615  0.0894  0.3380
  362TIP3    H122645   3.047   3.400   1.581  1.4004 -0.1795 -0.1848
  362TIP3    H222646   3.146   3.510   1.548  0.9555  0.0325 -0.8212
  363TIP3   OH222647   5.354   0.260   7.130 -0.1162 -0.3059 -0.3000
  363TIP3    H122648   5.442   0.227   7.116 -0.2620 -1.4016  1.1989
  363TIP3    H222649   5.318   0.206   7.200 -1.8021  0.4530 -0.5195
  364TIP3   OH222650   5.253   6.313   0.788  0.3638 -0.2868  0.2995
  364TIP3    H122651   5.209   6.316   0.873  1.5590 -1.1299  0.9769
  364TIP3    H222652   5.186   6.279   0.728 -1.1942  2.4093  0.3757
  365TIP3   OH222653   1.863   0.576   7.336  0.0487  0.5785 -0.0447
  365TIP3    H122654   1.800   0.512   7.369  1.0425 -0.4342 -0.0416
  365TIP3    H222655   1.876   0.636   7.409  0.3066 -0.1558  0.5274
  366TIP3   OH222656   2.713   2.361   1.665  0.2235  0.0673  0.5397
  366TIP3    H122657   2.677   2.331   1.748  1.8412 -0.1747  1.1906
  366TIP3    H222658   2.773   2.432   1.689  0.3524  0.3111 -0.4602
  367TIP3   OH222659   0.358   5.398   6.788  0.1779  0.6322  0.7060
  367TIP3    H122660   0.272   5.441   6.795  1.8271  4.0913  2.3339
  367TIP3    H222661   0.404   5.448   6.720  0.7809 -1.6254 -0.6645
  368TIP3   OH222662   4.825   5.805   7.377 -0.6420  0.2730 -0.2817
  368TIP3    H122663   4.751   5.749   7.354 -1.0741  0.9156 -0.4694
  368TIP3    H222664   4.876   5.811   7.296 -0.2888 -0.3073 -0.1064
  369TIP3   OH222665   5.056   0.210   8.557  0.2776  0.1318  0.7222
  369TIP3    H122666   5.137   0.222   8.507 -0.2378  0.6805 -0.0071
  369TIP3    H222667   5.026   0.122   8.533  0.2290  0.2474  0.3516
  370TIP3   OH222668   4.824   6.688   8.125 -0.2128  0.3302  0.0687
  370TIP3    H122669   4.905   6.708   8.077 -0.4987 -0.9323 -0.9952
  370TIP3    H222670   4.773   6.769   8.121  0.0326  0.4364 -1.2572
  371TIP3   OH222671   6.000   3.695   1.770 -0.6945  0.0308  0.2860
  371TIP3    H122672   5.922   3.713   1.822 -0.4433  0.3795  0.5474
  371TIP3    H222673   6.067   3.672   1.835 -0.9755 -1.8301 -0.0165
  372TIP3   OH222674   5.318   5.687   8.552  0.7426 -0.3952  0.0625
  372TIP3    H122675   5.299   5.605   8.598 -0.5736 -0.9919 -1.4526
  372TIP3    H222676   5.413   5.689   8.545  0.8941 -0.9508  1.5776
  373TIP3   OH222677   3.200   1.007   8.300 -0.1726 -0.1211  0.2110
  373TIP3    H122678   3.115   0.970   8.323 -0.2859  0.1561  0.2451
  373TIP3    H222679   3.182   1.099   8.282  0.4330  0.4341  2.1625
  374TIP3   OH222680   3.597   6.648   8.608  0.0774  0.1746 -0.6139
  374TIP3    H122681   3.562   6.561   8.590  1.3643 -0.3103 -0.8533
  374TIP3    H222682   3.520   6.699   8.637 -0.3942 -1.5088  1.3657
  375TIP3   OH222683   2.787   4.501   0.871 -0.1755  0.0663  0.0247
  375TIP3    H122684   2.836   4.506   0.953 -0.6634  0.3549  0.3057
  375TIP3    H222685   2.752   4.412   0.870 -1.9877  0.6940  1.2254
  376TIP3   OH222686   6.531   2.994   0.124  0.0332 -0.0010  0.1179
  376TIP3    H122687   6.503   3.038   0.043 -0.6335 -0.3246  0.1643
  376TIP3    H222688   6.623   2.972   0.109  0.1310  0.6247 -0.2490
  377TIP3   OH222689   0.640   2.992   1.670 -0.1421  0.0974  0.0852
  377TIP3    H122690   0.652   2.933   1.744  0.5617  0.4633  0.2633
  377TIP3    H222691   0.604   2.937   1.601 -0.8903 -0.2298  0.7167
  378TIP3   OH222692   1.084   6.154   0.838  0.0319  0.1854  0.4177
  378TIP3    H122693   1.042   6.232   0.801 -0.0534  0.1104  0.3550
  378TIP3    H222694   1.093   6.094   0.764 -0.1188  0.0438  0.5136
  379TIP3   OH222695   4.439   3.853   0.837  0.2532 -0.4108 -0.1812
  379TIP3    H122696   4.436   3.937   0.791  0.3677 -0.4311 -0.2266
  379TIP3    H222697   4.532   3.839   0.854  0.1936 -0.3141  0.2195
  380TIP3   OH222698   0.137   0.539   7.562 -0.0771  0.4377  0.4557
  380TIP3    H122699   0.079   0.592   7.509 -1.3760  0.1629  1.5553
  380TIP3    H222700   0.168   0.470   7.503 -1.2551  0.3033 -0.0176
  381TIP3   OH222701   3.213   3.800   8.068  0.7637 -0.0241  0.2462
  381TIP3    H122702   3.154   3.736   8.108  0.1970  0.1898 -0.2302
  381TIP3    H222703   3.225   3.867   8.134  0.3446  0.0105  0.2874
  382TIP3   OH222704   5.781   1.972   0.755  0.5608  0.4240 -0.2163
  382TIP3    H122705   5.816   1.899   0.704 -0.3604  0.3351 -0.7504
  382TIP3    H222706   5.711   1.932   0.807  2.1194  0.3018  1.9125
  383TIP3   OH222707   0.981   2.195   0.164 -0.7703  0.3652 -0.1327
  383TIP3    H122708   0.956   2.114   0.208 -1.6448  1.4975  1.5605
  383TIP3    H222709   1.025   2.247   0.232  1.5368  0.5680 -1.6754
  384TIP3   OH222710   3.657   5.843   0.286  0.2070  0.4525  0.0527
  384TIP3    H122711   3.582   5.822   0.231  1.0211 -0.8084 -0.6230
  384TIP3    H222712   3.628   5.918   0.338 -1.3065  0.3601 -0.5980
  385TIP3   OH222713   3.727   1.637   2.035 -0.7736 -0.2451  0.0788
  385TIP3    H122714   3.636   1.647   2.008 -1.4782 -1.3595  1.8352
  385TIP3    H222715   3.723   1.581   2.113  1.4186 -0.3257  0.2057
  386TIP3   OH222716   5.176   2.290   7.905  0.1809  0.4020  0.4166
  386TIP3    H122717   5.203   2.225   7.971  1.5293  1.4364  0.9268
  386TIP3    H222718   5.239   2.279   7.834 -0.1558  0.5368  0.0961
  387TIP3   OH222719   5.822   4.569   7.282 -0.2995  0.3126  0.0532
  387TIP3    H122720   5.745   4.514   7.269 -0.2907  0.7748 -2.6547
  387TIP3    H222721   5.871   4.526   7.352 -1.1350 -2.1873 -0.7843
  388TIP3   OH222722   2.694   4.847   8.484  0.0144 -0.0326 -0.3990
  388TIP3    H122723   2.664   4.838   8.574  2.3398  0.1151  0.4461
  388TIP3    H222724   2.700   4.757   8.451  0.8999 -0.2059  0.2170
  389TIP3   OH222725   4.990   1.337   0.648  0.1905 -0.0818 -0.2904
  389TIP3    H122726   4.938   1.322   0.727  1.6319 -0.8844  0.5472
  389TIP3    H222727   5.064   1.391   0.678  0.9139 -0.6525 -1.0078
  390TIP3   OH222728   6.220   0.191   7.153  0.7342 -0.0598  0.0579
  390TIP3    H122729   6.281   0.180   7.225  0.3204 -1.4029  0.2360
  390TIP3    H222730   6.186   0.279   7.163  1.7444  0.2741  0.6571
  391TIP3   OH222731   6.531   4.333   7.734 -0.1782 -0.5492  0.4019
  391TIP3    H122732   6.523   4.243   7.701 -0.8735 -1.0317  1.8396
  391TIP3    H222733   6.558   4.323   7.825 -1.7453  0.6532  1.0216
  392TIP3   OH222734   6.061   0.281   8.219  0.0206  0.4031  0.3193
  392TIP3    H122735   6.025   0.311   8.302  1.0901 -0.1979  1.0226
  392TIP3    H222736   5.985   0.256   8.167 -0.8002  2.6394  0.3485
  393TIP3   OH222737   0.851   5.562   8.084 -0.1083  0.2873  0.3570
  393TIP3    H122738   0.803   5.546   8.003  0.2557 -4.1271  0.7843
  393TIP3    H222739   0.815   5.499   8.147  3.0707 -0.0860  2.0485
  394TIP3   OH222740   1.406   4.418   7.306  0.1355 -0.1852  0.1701
  394TIP3    H122741   1.324   4.455   7.275  0.4132 -0.2162 -0.6121
  394TIP3    H222742   1.416   4.337   7.256  1.3545  0.5362 -0.7868
  395TIP3   OH222743   1.263   4.655   1.673 -0.3128  0.0943 -0.3365
  395TIP3    H122744   1.339   4.689   1.719 -0.3842  0.6265 -0.5931
  395TIP3    H222745   1.298   4.598   1.605 -0.2521 -1.8648  1.2438
  396TIP3   OH222746   5.708   1.324   0.030 -0.1378  0.1734  0.0715
  396TIP3    H122747   5.625   1.349  -0.010  0.1478  0.4305 -0.3661
  396TIP3    H222748   5.711   1.229   0.021  0.7420  0.3491 -2.1930
  397TIP3   OH222749   4.701   4.328   6.637  0.4338 -0.4431 -0.2549
  397TIP3    H122750   4.745   4.400   6.681 -1.1747 -0.0599  0.8179
  397TIP3    H222751   4.623   4.367   6.598  0.3972 -1.3089 -1.0982
  398TIP3   OH222752   3.280   3.610   1.774  0.2736  0.1699  0.3084
  398TIP3    H122753   3.292   3.574   1.862 -1.3033 -2.4915 -0.4718
  398TIP3    H222754   3.208   3.672   1.783  2.0742  2.2936  1.3730
  399TIP3   OH222755   1.372   3.133   0.473  0.6364 -0.2312 -0.2318
  399TIP3    H122756   1.374   3.156   0.566  0.6485 -2.2571  0.3136
  399TIP3    H222757   1.422   3.203   0.430 -0.9144  1.7778  0.9935
  400TIP3   OH222758   2.288   6.479   8.475  0.2219  0.3262  0.4024
  400TIP3    H122759   2.297   6.393   8.515  0.0435 -0.4807 -1.2416
  400TIP3    H222760   2.226   6.525   8.532  1.3448 -0.1146  2.0623
  401TIP3   OH222761   5.488   1.504   1.121  0.2125 -0.3397  0.5907
  401TIP3    H122762   5.415   1.509   1.183  0.3745  0.4566  0.7375
  401TIP3    H222763   5.490   1.591   1.081  1.8663  0.0904  1.5111
  402TIP3   OH222764   5.874   6.183   7.906  0.6414 -0.1092  0.3099
  402TIP3    H122765   5.857   6.092   7.927  1.2557 -0.7677 -1.7734
  402TIP3    H222766   5.964   6.198   7.936  0.8943 -0.5098 -0.2262
  403TIP3   OH222767   0.532   5.897   6.945  0.8675  0.5857  0.6468
  403TIP3    H122768   0.464   5.935   6.889 -0.7013 -2.5167  0.2565
  403TIP3    H222769   0.584   5.973   6.973 -2.7834  3.2060  1.1301
  404TIP3   OH222770   2.465   3.566   2.369 -0.3726  0.2541  0.2925
  404TIP3    H122771   2.509   3.492   2.411 -1.2679 -1.2004 -1.1845
  404TIP3    H222772   2.529   3.637   2.370  0.4728 -0.5003  1.8642
  405TIP3   OH222773   3.971   1.289   7.650 -0.4272 -0.4568  0.0338
  405TIP3    H122774   3.972   1.322   7.740 -1.1378  1.2457 -0.5351
  405TIP3    H222775   3.932   1.360   7.599  0.1753 -1.2868 -1.6669
  406TIP3   OH222776   6.101   4.695   6.684  0.3743  0.0802  0.2865
  406TIP3    H122777   6.086   4.710   6.590  1.0905  2.5087  0.4758
  406TIP3    H222778   6.027   4.739   6.726  1.0046  0.5960  0.8744
  407TIP3   OH222779   6.137   5.129   1.422  0.2795  0.6651  0.2341
  407TIP3    H122780   6.135   5.100   1.514 -0.6412  1.5754  0.5259
  407TIP3    H222781   6.050   5.168   1.408  0.1320 -0.1381 -1.2603
  408TIP3   OH222782   1.845   3.210   1.263 -0.1928 -0.2064 -0.1265
  408TIP3    H122783   1.862   3.124   1.302  0.9075 -0.6232 -1.4456
  408TIP3    H222784   1.880   3.272   1.328 -0.3762 -0.7736  0.5293
  409TIP3   OH222785   4.778   4.288   7.928 -0.1244  0.2542  0.3362
  409TIP3    H122786   4.683   4.274   7.936 -0.3433  1.8683  1.0851
  409TIP3    H222787   4.817   4.211   7.968 -1.0815 -1.0621 -1.1534
  410TIP3   OH222788   3.926   0.919   1.832  0.4447  0.1700  0.1122
  410TIP3    H122789   3.903   0.959   1.916  1.9454 -0.1215  0.6921
  410TIP3    H222790   3.858   0.853   1.818  0.3743 -0.0352  1.3019
  411TIP3   OH222791   1.506   2.811   0.244 -0.3088 -0.3357 -0.0841
  411TIP3    H122792   1.522   2.877   0.177 -0.5210 -0.4582 -0.2532
  411TIP3    H222793   1.513   2.727   0.198  0.7473 -0.4648  0.2815
  412TIP3   OH222794   2.748   6.064   0.382 -0.2740  0.0709  0.1617
  412TIP3    H122795   2.765   5.989   0.325 -0.4533 -0.7181  1.1287
  412TIP3    H222796   2.653   6.068   0.389 -0.4441  2.0908 -2.0818
  413TIP3   OH222797   3.516   2.977   7.570  0.1447  0.3884 -0.1985
  413TIP3    H122798   3.570   2.978   7.649  0.9164  1.5517 -0.7205
  413TIP3    H222799   3.568   2.929   7.506  0.6467  1.6353 -0.7448
  414TIP3   OH222800   6.551   4.899   1.097 -0.0388 -0.1269 -0.3881
  414TIP3    H122801   6.489   4.834   1.066 -1.8245  1.3938 -0.1917
  414TIP3    H222802   6.501   4.953   1.158  1.3189  1.4914 -0.6281
  415TIP3   OH222803   6.058   4.019   8.111  0.5266 -0.2540 -0.1675
  415TIP3    H122804   6.035   3.933   8.147  0.3731 -0.1610 -0.0468
  415TIP3    H222805   6.138   4.002   8.060  0.7432 -0.3840  0.2144
  416TIP3   OH222806   0.714   3.139   8.078  0.3209  0.3532  0.5506
  416TIP3    H122807   0.692   3.216   8.131  1.5407  0.6509  0.6556
  416TIP3    H222808   0.668   3.153   7.995  0.8108  1.3954  0.4348
  417TIP3   OH222809   3.899   2.217   1.657  0.0587  0.0461 -0.4763
  417TIP3    H122810   3.859   2.180   1.578 -1.4679 -1.4041  0.8964
  417TIP3    H222811   3.827   2.261   1.702  0.2889 -1.3176  1.3258
  418TIP3   OH222812   1.279   2.700   7.364  0.2588  0.1796 -0.4949
  418TIP3    H122813   1.289   2.606   7.381 -0.0565  0.6743  3.3749
  418TIP3    H222814   1.342   2.719   7.295  2.5907 -2.3528  0.7563
  419TIP3   OH222815   2.176   0.594   2.333  0.2070  0.4269  0.2956
  419TIP3    H122816   2.092   0.634   2.354 -0.5133  0.0446 -1.6507
  419TIP3    H222817   2.154   0.511   2.292  1.5764 -0.1587  0.6898
  420TIP3   OH222818   2.531   4.891   1.752 -0.5808 -0.1459 -0.1837
  420TIP3    H122819   2.520   4.961   1.816  1.3111 -0.3353  0.4266
  420TIP3    H222820   2.459   4.903   1.691 -2.1572  0.3579  1.6792
  421TIP3   OH222821   1.155   0.773   6.573 -0.0085 -0.1968 -0.3651
  421TIP3    H122822   1.217   0.846   6.569  1.0115 -1.0560 -0.6414
  421TIP3    H222823   1.207   0.695   6.555 -0.9825 -1.0615  0.3677
  422TIP3   OH222824   4.853   1.821   0.002  0.0634  0.0416 -0.0565
  422TIP3    H122825   4.934   1.852  -0.040 -0.9815  2.7208 -0.2757
  422TIP3    H222826   4.790   1.814  -0.069 -0.1218 -1.3982  0.2162
  423TIP3   OH222827   2.731   1.929   0.778 -0.2689 -0.5117 -0.2220
  423TIP3    H122828   2.661   1.864   0.779 -1.1985  0.4685  0.8015
  423TIP3    H222829   2.746   1.950   0.870 -0.5894  1.3043 -0.5387
  424TIP3   OH222830   4.060   6.220   2.039 -0.3815  0.4084 -0.2220
  424TIP3    H122831   4.073   6.157   2.110 -1.9428  0.8025  0.4622
  424TIP3    H222832   4.133   6.282   2.049 -0.1186 -0.0001  0.5252
  425TIP3   OH222833   0.593   4.671   0.430 -0.2486 -0.3030 -0.3786
  425TIP3    H122834   0.644   4.607   0.479  0.8374  0.5315 -0.3927
  425TIP3    H222835   0.655   4.741   0.409 -0.8611 -0.2793 -2.3105
  426TIP3   OH222836   3.184   2.301   1.978 -0.5766  0.2377 -0.4075
  426TIP3    H122837   3.277   2.325   1.981 -0.6893  0.8708  3.4286
  426TIP3    H222838   3.170   2.269   1.889  3.2887  0.1264 -1.1385
  427TIP3   OH222839   1.184   4.419   2.258  0.1715 -0.0079 -0.0993
  427TIP3    H122840   1.242   4.465   2.197 -1.2875  0.8048 -0.9557
  427TIP3    H222841   1.184   4.473   2.337  0.3180  0.1768 -0.2258
  428TIP3   OH222842   6.504   1.916   0.652  0.3987  0.1807 -0.1438
  428TIP3    H122843   6.524   1.962   0.734  1.7187 -0.1759 -0.2327
  428TIP3    H222844   6.563   1.957   0.588  0.5990 -0.6880 -0.5247
  429TIP3   OH222845   1.649   1.001   0.632  0.0410 -0.3211 -0.0199
  429TIP3    H122846   1.642   1.077   0.689  0.4003  0.0046 -0.4016
  429TIP3    H222847   1.699   0.937   0.683 -0.2986 -0.3238  0.3176
  430TIP3   OH222848   4.751   5.885   6.813  0.1544  0.1607  0.2593
  430TIP3    H122849   4.822   5.832   6.850 -0.0687  0.0269  0.4956
  430TIP3    H222850   4.774   5.893   6.720 -0.3662 -1.2717 -0.0298
  431TIP3   OH222851   5.732   2.932   8.301  0.7304 -0.8363 -0.1053
  431TIP3    H122852   5.806   2.979   8.339 -1.3630  1.7605  1.0355
  431TIP3    H222853   5.713   2.862   8.364  0.6411  0.0939  0.9318
  432TIP3   OH222854   1.919   3.361   6.777  0.6731 -0.3382 -0.2605
  432TIP3    H122855   1.830   3.332   6.757  0.2722  0.8918 -0.3926
  432TIP3    H222856   1.974   3.285   6.761  0.0649 -0.2491 -3.5091
  433TIP3   OH222857   5.240   0.261   8.318  0.2508  0.2350  0.0066
  433TIP3    H122858   5.231   0.293   8.228 -3.7878 -1.4349 -0.4316
  433TIP3    H222859   5.236   0.165   8.310 -0.4836  0.0571  1.9395
  434TIP3   OH222860   5.538   0.963   1.797  0.0077  0.3400  0.0216
  434TIP3    H122861   5.580   0.943   1.880 -0.8488 -2.3591 -0.0987
  434TIP3    H222862   5.604   0.942   1.731 -0.2704 -0.3219 -0.0522
  435TIP3   OH222863   4.464   6.404   6.341 -0.3791 -0.7314 -0.2058
  435TIP3    H122864   4.511   6.412   6.258  0.1665 -0.1445  0.1492
  435TIP3    H222865   4.373   6.418   6.318 -0.2051 -0.3374 -0.6780
  436TIP3   OH222866   6.671   3.534   1.794 -0.2056 -0.2724 -0.1325
  436TIP3    H122867   6.635   3.445   1.787  0.6718 -0.5644 -1.1103
  436TIP3    H222868   6.747   3.524   1.852 -1.4639  0.2954  1.7097
  437TIP3   OH222869   0.639   0.925   7.217  0.3851 -0.9381  0.2466
  437TIP3    H122870   0.662   0.853   7.276  0.8904 -0.7374  0.2959
  437TIP3    H222871   0.666   1.004   7.264  0.0998 -0.7334  0.0678
  438TIP3   OH222872   5.840   1.206   7.063  0.3342  0.7875 -0.6943
  438TIP3    H122873   5.774   1.221   7.130  0.2266 -1.4454 -0.2313
  438TIP3    H222874   5.921   1.243   7.099  0.0147  0.6877  0.1320
  439TIP3   OH222875   1.006   0.331   6.020 -0.8436  0.0065  0.0929
  439TIP3    H122876   0.947   0.307   6.091  1.2973 -0.7894  1.7151
  439TIP3    H222877   1.024   0.424   6.034  1.2621 -0.6012  2.0543
  440TIP3   OH222878   0.695   1.440   0.901  0.1185  0.0458  0.9778
  440TIP3    H122879   0.626   1.506   0.897  0.5153  0.4173 -1.3343
  440TIP3    H222880   0.776   1.491   0.911  0.4954  0.0295 -1.5203
  441TIP3   OH222881   4.552   3.703   2.539 -0.0780 -0.4790  0.1081
  441TIP3    H122882   4.489   3.655   2.484  1.6034 -2.0888 -0.5193
  441TIP3    H222883   4.617   3.736   2.477  0.1998  0.3825  0.8377
  442TIP3   OH222884   2.168   1.889   0.423 -0.2796  0.0250  0.3934
  442TIP3    H122885   2.167   1.799   0.392  0.5819  0.3065 -0.5206
  442TIP3    H222886   2.098   1.894   0.487 -0.6136 -1.1807  0.1361
  443TIP3   OH222887   2.014   5.846   1.518  0.3021 -0.1972  0.0177
  443TIP3    H122888   1.990   5.818   1.430 -0.6910  0.6383  0.0104
  443TIP3    H222889   1.949   5.806   1.575  0.4917 -0.1234  0.2892
  444TIP3   OH222890   3.537   1.343   1.362 -0.3210  0.4436  0.3853
  444TIP3    H122891   3.485   1.273   1.401  3.0192 -2.3640  0.3231
  444TIP3    H222892   3.559   1.400   1.436 -1.6645  0.4663  0.7863
  445TIP3   OH222893   4.577   2.728   1.853 -0.4683  0.1332  1.0104
  445TIP3    H122894   4.571   2.669   1.778  0.7188  2.9722 -1.5579
  445TIP3    H222895   4.486   2.748   1.875 -0.8717  0.2621 -0.6370
  446TIP3   OH222896   4.436   5.815   8.289  0.6532  0.3116 -0.4821
  446TIP3    H122897   4.512   5.838   8.236  1.0756  2.2105  0.8255
  446TIP3    H222898   4.410   5.898   8.331 -2.4196 -0.1388 -1.2139
  447TIP3   OH222899   5.675   3.043   0.950 -0.5367 -0.1935 -0.8685
  447TIP3    H122900   5.754   2.999   0.919 -0.1754 -0.3166  0.1752
  447TIP3    H222901   5.708   3.117   1.002 -1.0626 -0.8124  0.4002
  448TIP3   OH222902   1.465   3.018   1.105  0.1027  0.5683 -0.0952
  448TIP3    H122903   1.371   3.033   1.112 -0.2327 -1.1451 -0.5232
  448TIP3    H222904   1.504   3.081   1.166 -1.2525  1.8441 -0.4950
  449TIP3   OH222905   0.032   3.080   1.744 -0.0875 -0.1351 -0.2199
  449TIP3    H122906   0.052   3.162   1.698 -0.7046  0.1638  0.0306
  449TIP3    H222907   0.046   3.101   1.837  0.0902 -0.4174 -0.1819
  450TIP3   OH222908   0.349   1.963   7.701  0.4363  0.2461  0.1974
  450TIP3    H122909   0.410   1.920   7.641  1.5803  0.4824  1.1411
  450TIP3    H222910   0.393   2.045   7.724 -0.4323  0.6109  0.5901
  451TIP3   OH222911   5.471   2.542   8.598 -0.3943  0.2917 -0.4629
  451TIP3    H122912   5.518   2.612   8.644 -1.8865  0.5919  0.6731
  451TIP3    H222913   5.399   2.586   8.553 -0.1567 -0.2697 -1.4111
  452TIP3   OH222914   2.556   4.960   0.620  0.0282 -0.2867 -0.5029
  452TIP3    H122915   2.574   4.963   0.526  0.6307 -1.6502 -0.4574
  452TIP3    H222916   2.580   5.047   0.652 -0.0633  0.1504 -1.5791
  453TIP3   OH222917   6.560   3.133   7.694 -0.6623 -0.0068 -0.5358
  453TIP3    H122918   6.599   3.219   7.681  1.5047 -1.1535 -2.4443
  453TIP3    H222919   6.466   3.148   7.690 -0.4175  2.4530  0.8647
  454TIP3   OH222920   1.404   6.577   7.528  0.8469 -0.0645  0.6127
  454TIP3    H122921   1.365   6.576   7.615 -0.3464  1.9568  0.1542
  454TIP3    H222922   1.489   6.620   7.541 -0.1439  2.0661  0.5532
  455TIP3   OH222923   3.832   6.701   8.178 -0.3415 -0.3644 -0.5581
  455TIP3    H122924   3.923   6.714   8.153  0.2887 -0.1397  1.6575
  455TIP3    H222925   3.796   6.790   8.186  0.0265 -0.3154  1.0480
  456TIP3   OH222926   3.565   0.436   8.173  0.1135 -0.1009 -0.0858
  456TIP3    H122927   3.488   0.408   8.124 -0.3836  1.3323 -0.1912
  456TIP3    H222928   3.530   0.496   8.239  1.1513  0.7691 -0.3015
  457TIP3   OH222929   0.395   0.710   8.374 -0.1618  0.0025 -0.4658
  457TIP3    H122930   0.438   0.787   8.336 -1.9512  1.1587 -0.2388
  457TIP3    H222931   0.303   0.719   8.351 -0.6041 -1.5228  0.5014
  458TIP3   OH222932   3.333   1.880   0.813  0.2620 -0.5350  0.5270
  458TIP3    H122933   3.373   1.912   0.894 -1.2168  2.9424  0.1002
  458TIP3    H222934   3.388   1.916   0.743 -1.1102  0.6909  0.0103
  459TIP3   OH222935   0.755   2.758   7.541  0.3520  0.3685  0.6896
  459TIP3    H122936   0.813   2.833   7.528  1.0678 -0.3993 -0.7517
  459TIP3    H222937   0.789   2.691   7.482 -0.5289 -0.9560  1.6317
  460TIP3   OH222938   1.416   4.235   8.168 -0.3434  0.3558  0.1011
  460TIP3    H122939   1.367   4.205   8.091 -1.3415 -1.3065  1.3455
  460TIP3    H222940   1.378   4.322   8.187 -1.1001  0.1552 -0.4170
  461TIP3   OH222941   0.501   1.860   6.678  0.2449 -0.0580  0.4377
  461TIP3    H122942   0.554   1.782   6.695 -0.3962 -0.4978  0.4272
  461TIP3    H222943   0.565   1.932   6.677  0.6569 -0.3737  1.8966
  462TIP3   OH222944   0.534   5.234   7.713  0.0043 -0.0333  0.0520
  462TIP3    H122945   0.604   5.169   7.712 -1.2896 -1.4875  0.0260
  462TIP3    H222946   0.458   5.186   7.747 -1.4050  1.0147 -1.4773
  463TIP3   OH222947   3.182   2.681   1.558  0.4162 -0.2179 -0.0577
  463TIP3    H122948   3.193   2.717   1.470 -3.0025 -0.5896 -0.7738
  463TIP3    H222949   3.248   2.612   1.565  2.1954  1.2495 -1.4358
  464TIP3   OH222950   2.898   6.046   2.031  0.8331 -0.5415 -0.3856
  464TIP3    H122951   2.891   6.135   1.997  3.2374 -0.4902 -0.9076
  464TIP3    H222952   2.951   6.055   2.110  0.2709 -1.4027  0.1055
  465TIP3   OH222953   3.777   4.028   1.683  0.3417 -0.6193 -0.7647
  465TIP3    H122954   3.828   4.057   1.607 -0.4883 -0.3960 -1.2515
  465TIP3    H222955   3.731   4.107   1.713  0.1906 -0.8368 -0.4093
  466TIP3   OH222956   3.353   1.730   0.476 -0.4355 -0.3049 -0.0596
  466TIP3    H122957   3.342   1.676   0.554 -0.5485 -0.2161 -0.0141
  466TIP3    H222958   3.448   1.730   0.460 -0.6005 -2.5631 -1.5280
  467TIP3   OH222959   3.116   3.134   0.991  0.4384 -0.2816 -0.1479
  467TIP3    H122960   3.100   3.079   0.914 -2.0571  0.1679 -0.0469
  467TIP3    H222961   3.031   3.176   1.009  1.6701  1.8975  1.1042
  468TIP3   OH222962   0.526   3.203   0.872 -0.3731 -0.1804 -0.4095
  468TIP3    H122963   0.593   3.212   0.940  0.9601 -1.4923 -1.4959
  468TIP3    H222964   0.489   3.291   0.863  0.7121  0.4201  0.7018
  469TIP3   OH222965   5.209   3.500   7.411  0.3566  0.2922 -0.1010
  469TIP3    H122966   5.232   3.534   7.324  1.1585 -0.1396 -0.0723
  469TIP3    H222967   5.293   3.470   7.447  0.3283  1.9209  1.4760
  470TIP3   OH222968   1.967   4.729   8.631  0.2623  0.1346 -0.3615
  470TIP3    H122969   1.920   4.672   8.691  0.5894  0.6117  0.3696
  470TIP3    H222970   2.056   4.693   8.628  1.4957  2.4750  2.8223
  471TIP3   OH222971   2.478   5.413   0.115 -0.4043 -0.0591  0.5996
  471TIP3    H122972   2.553   5.429   0.058 -1.9492 -1.8001 -2.1034
  471TIP3    H222973   2.463   5.497   0.158  2.1718  0.7245  0.1344
  472TIP3   OH222974   3.704   3.933   7.082  0.3687 -0.2589 -0.3865
  472TIP3    H122975   3.712   3.845   7.045  1.4400 -0.2679 -0.1779
  472TIP3    H222976   3.791   3.951   7.118 -0.4092  0.0838  1.4114
  473TIP3   OH222977   3.969   1.970   1.838  0.1955 -0.2270 -0.7051
  473TIP3    H122978   3.968   2.059   1.803  0.9031  0.9598  2.0142
  473TIP3    H222979   4.061   1.947   1.845  0.0634 -0.6118 -0.1127
  474TIP3   OH222980   2.832   6.471   8.125 -0.4213 -0.6309  0.3353
  474TIP3    H122981   2.780   6.398   8.159 -1.4574 -0.9920 -1.8862
  474TIP3    H222982   2.831   6.459   8.030  1.9920  0.5608  0.1052
  475TIP3   OH222983   3.503   5.451   7.073 -0.2908 -0.1552  0.4998
  475TIP3    H122984   3.427   5.435   7.017 -1.4112 -0.0467  1.9110
  475TIP3    H222985   3.501   5.545   7.090  0.5985 -0.0308 -0.0235
  476TIP3   OH222986   4.185   2.867   0.047 -0.1182 -0.1878 -0.0581
  476TIP3    H122987   4.244   2.858  -0.028  0.7767  0.7013  0.5207
  476TIP3    H222988   4.121   2.933   0.020  0.5104  0.5115  0.1387
  477TIP3   OH222989   4.099   2.699   7.934 -0.2128 -0.2862 -0.7027
  477TIP3    H122990   4.032   2.729   7.995  0.5407 -1.9173  1.0443
  477TIP3    H222991   4.069   2.613   7.905  0.7911 -0.7765 -0.3585
  478TIP3   OH222992   4.073   0.587   1.444  0.0717  0.6102  0.5191
  478TIP3    H122993   4.163   0.555   1.448 -0.5051 -1.4173 -1.0695
  478TIP3    H222994   4.081   0.680   1.425  1.8353  0.4318  0.2782
  479TIP3   OH222995   4.091   4.448   2.153  0.0212 -0.2429 -0.4246
  479TIP3    H122996   4.113   4.424   2.063  0.8019  0.9175 -0.5637
  479TIP3    H222997   4.085   4.544   2.152  0.1438 -0.2020  0.7833
  480TIP3   OH222998   4.752   6.717   6.766 -0.4401 -1.0480 -0.4898
  480TIP3    H122999   4.793   6.783   6.710  1.0926 -0.9010  0.7302
  480TIP3    H223000   4.765   6.750   6.855 -1.7872 -1.8464  0.0303
  481TIP3   OH223001   6.651   3.741   0.785  0.1095  0.1124 -0.7174
  481TIP3    H123002   6.706   3.793   0.843 -0.3021  1.3380 -1.3888
  481TIP3    H223003   6.588   3.698   0.843  0.3684  0.4794 -0.1602
  482TIP3   OH223004   5.985   1.466   0.694 -0.3584 -0.2690  0.4915
  482TIP3    H123005   5.912   1.406   0.678 -0.4169 -0.3435  1.0187
  482TIP3    H223006   5.944   1.548   0.722 -0.3785  0.6290 -1.8898
  483TIP3   OH223007   4.706   0.570   1.250  0.6789 -0.2104 -0.3640
  483TIP3    H123008   4.701   0.478   1.274  1.2896 -1.0387 -3.0820
  483TIP3    H223009   4.688   0.572   1.156  1.4927  2.3604 -0.5576
  484TIP3   OH223010   1.676   3.003   8.306 -0.5325 -0.3468  0.0967
  484TIP3    H123011   1.705   3.037   8.222  0.2550 -0.6380  0.2405
  484TIP3    H223012   1.618   2.929   8.283 -0.3884 -0.3722 -0.1879
  485TIP3   OH223013   2.575   6.863   6.146  0.0539 -0.1602 -0.1281
  485TIP3    H123014   2.517   6.916   6.200 -0.2240  0.2036 -0.7760
  485TIP3    H223015   2.538   6.868   6.058  1.9036  1.3576 -0.9035
  486TIP3   OH223016   3.958   1.000   7.232  0.4232 -0.3133  0.3575
  486TIP3    H123017   3.885   1.060   7.217  0.1557 -0.9749 -1.1012
  486TIP3    H223018   4.008   1.042   7.303 -1.6490 -0.1425  1.8129
  487TIP3   OH223019   1.379   0.130   7.435  0.4199  0.2755  0.3436
  487TIP3    H123020   1.382   0.059   7.371 -0.5734  0.0252  0.5610
  487TIP3    H223021   1.413   0.091   7.515 -0.4490 -0.0560  0.5530
  488TIP3   OH223022   3.222   1.703   7.747 -0.0902  0.3976  0.8574
  488TIP3    H123023   3.232   1.797   7.764 -1.8371  0.3961  2.1403
  488TIP3    H223024   3.191   1.698   7.657 -0.0006  1.0483  0.7838
  489TIP3   OH223025   6.553   4.837   6.459  0.3454 -0.0226 -0.6960
  489TIP3    H123026   6.581   4.918   6.415 -0.1736  0.8080  0.4378
  489TIP3    H223027   6.629   4.812   6.512 -0.3823  1.3510  1.1477
  490TIP3   OH223028   3.713   1.878   8.131 -0.5822  0.3138 -0.3246
  490TIP3    H123029   3.789   1.893   8.075 -1.5569  2.0681 -1.2461
  490TIP3    H223030   3.727   1.936   8.206 -0.7299  0.1931 -0.2012
  491TIP3   OH223031   5.163   4.485   1.217  0.3543  0.1259  0.2205
  491TIP3    H123032   5.154   4.537   1.137 -0.4492  0.1516  0.3283
  491TIP3    H223033   5.122   4.538   1.285  1.1360  0.1566  0.6823
  492TIP3   OH223034   1.217   1.031   0.974 -0.9212  0.1953  0.2374
  492TIP3    H123035   1.209   1.091   0.900  1.2619  0.4344  0.1152
  492TIP3    H223036   1.128   1.000   0.990 -1.6472  1.1591 -1.6241
  493TIP3   OH223037   0.426   4.077   7.068  0.4649 -0.2967  0.0604
  493TIP3    H123038   0.516   4.047   7.087 -0.3047 -2.3891  0.6870
  493TIP3    H223039   0.427   4.170   7.094  2.6665 -0.0048 -0.7941
  494TIP3   OH223040   2.306   5.818   0.826  0.2744  0.4918 -0.2960
  494TIP3    H123041   2.387   5.774   0.799 -1.0072 -1.2932 -1.4532
  494TIP3    H223042   2.269   5.852   0.744 -1.1198 -0.4812 -0.1105
  495TIP3   OH223043   4.994   5.883   7.134  0.0347 -0.1878  0.2154
  495TIP3    H123044   4.993   5.908   7.041  0.1703  0.1572  0.3029
  495TIP3    H223045   5.029   5.794   7.135 -1.7996 -0.9580 -0.2343
  496TIP3   OH223046   0.435   6.073   7.185  0.1592  0.0027 -0.7438
  496TIP3    H123047   0.343   6.065   7.161  0.0362 -2.4421  0.2503
  496TIP3    H223048   0.436   6.140   7.253 -1.4037 -1.8679  1.2724
  497TIP3   OH223049   4.727   4.054   6.602 -0.0782  0.5619  0.0008
  497TIP3    H123050   4.705   4.146   6.610 -1.3630  0.2402  0.3646
  497TIP3    H223051   4.656   4.008   6.646 -0.6133 -0.7086 -2.0543
  498TIP3   OH223052   1.014   6.388   0.744  0.6439  0.8191 -0.1387
  498TIP3    H123053   0.998   6.455   0.811  1.7024  1.8766 -0.8965
  498TIP3    H223054   1.088   6.422   0.694  0.0176 -0.0423 -1.7178
  499TIP3   OH223055   5.314   3.554   0.720 -0.1681  1.0136 -0.5030
  499TIP3    H123056   5.269   3.565   0.804  0.8644  0.1247  0.1881
  499TIP3    H223057   5.406   3.541   0.743 -0.1199 -1.0777 -1.6200
  500TIP3   OH223058   2.527   0.483   0.629  0.4031  0.4233 -0.0063
  500TIP3    H123059   2.572   0.450   0.552  0.5344 -2.1638  1.0659
  500TIP3    H223060   2.592   0.477   0.699 -0.0356  1.7022  0.5399
  501TIP3   OH223061   1.671   6.618   7.507  0.0968 -0.0120  0.0105
  501TIP3    H123062   1.663   6.640   7.414  1.1147 -0.8400 -0.2883
  501TIP3    H223063   1.680   6.523   7.508 -0.5387 -0.0697  1.0136
  502TIP3   OH223064   1.018   5.760   1.504 -0.2701  0.4273 -0.7976
  502TIP3    H123065   0.960   5.689   1.528  0.3759  0.2581  0.3311
  502TIP3    H223066   0.980   5.796   1.424 -1.7704  0.1623 -0.2319
  503TIP3   OH223067   4.916   5.050   8.004  0.1723  0.4178 -0.4933
  503TIP3    H123068   4.936   4.956   8.008  0.7971  0.4551 -2.0376
  503TIP3    H223069   4.821   5.054   8.014 -0.1991 -0.6343 -2.8690
  504TIP3   OH223070   5.042   2.199   0.594  0.0514 -0.4194  0.1158
  504TIP3    H123071   4.977   2.204   0.523 -2.4597  1.0096  2.3161
  504TIP3    H223072   4.991   2.173   0.671  2.6803 -2.0567  1.4302
  505TIP3   OH223073   0.322   0.049   8.241  0.1060  0.1143 -0.6322
  505TIP3    H123074   0.384  -0.021   8.257 -0.0254 -0.1920 -1.4330
  505TIP3    H223075   0.351   0.120   8.299  0.6257 -0.3588 -0.2993
  506TIP3   OH223076   1.716   2.287   1.756 -0.0221 -0.4114 -0.0804
  506TIP3    H123077   1.750   2.278   1.845 -0.3863  0.1477  0.1161
  506TIP3    H223078   1.684   2.377   1.751 -1.5513 -0.9380 -0.2391
  507TIP3   OH223079   4.681   2.223   0.658  0.9112 -0.2916 -0.1380
  507TIP3    H123080   4.590   2.248   0.677  0.8061  0.2611 -1.2515
  507TIP3    H223081   4.690   2.237   0.564  2.1262 -0.4425 -0.0590
  508TIP3   OH223082   6.872   4.732   7.497  0.1170 -0.7255  0.0536
  508TIP3    H123083   6.890   4.714   7.590 -1.6235 -0.9786  0.3682
  508TIP3    H223084   6.958   4.728   7.456  1.1642  0.8690  1.8870
  509TIP3   OH223085   5.920   2.647   7.391 -0.2443 -0.1654 -0.1819
  509TIP3    H123086   5.898   2.591   7.466 -2.7384  2.0490  0.8862
  509TIP3    H223087   5.897   2.735   7.419  0.0271  0.9419 -3.1114
  510TIP3   OH223088   6.215   0.985   0.171  0.0070  0.1872  0.0087
  510TIP3    H123089   6.287   1.047   0.172  0.2613  0.0004 -2.3351
  510TIP3    H223090   6.246   0.912   0.117 -1.7949 -0.0246 -0.8343
  511TIP3   OH223091   2.047   4.499   1.412 -0.4861 -0.3673 -0.2857
  511TIP3    H123092   2.028   4.562   1.343 -0.6805 -2.2956 -2.0947
  511TIP3    H223093   2.113   4.541   1.466 -1.0315  1.5873 -1.0614
  512TIP3   OH223094   4.634   0.139   0.043  0.3967 -0.8560 -0.3894
  512TIP3    H123095   4.540   0.158   0.035  0.2004 -1.5589  0.1049
  512TIP3    H223096   4.645   0.055  -0.001  0.8534 -0.6446 -0.6915
  513TIP3   OH223097   5.186   0.765   1.478  0.1405 -0.3312  0.3633
  513TIP3    H123098   5.273   0.730   1.462  0.3342 -0.1539  1.0192
  513TIP3    H223099   5.135   0.738   1.402 -0.0694 -3.1421  1.4167
  514TIP3   OH223100   2.114   4.867   0.250 -0.3735  0.1004 -0.5423
  514TIP3    H123101   2.039   4.860   0.190 -1.2425  0.3720  0.4700
  514TIP3    H223102   2.080   4.918   0.324  0.8115  0.1888 -0.0426
  515TIP3   OH223103   1.930   0.096   7.674  0.2042 -0.4320 -0.0925
  515TIP3    H123104   2.018   0.109   7.639 -0.2988 -0.6391 -1.4805
  515TIP3    H223105   1.901   0.013   7.638 -0.9589  0.1355 -0.5157
  516TIP3   OH223106   3.880   3.640   8.317  0.0953  0.3928 -0.0036
  516TIP3    H123107   3.973   3.651   8.296  0.3075  0.5035  0.9491
  516TIP3    H223108   3.868   3.688   8.399 -0.6331 -0.2594  0.2830
  517TIP3   OH223109   4.266   3.689   1.723 -0.0895 -0.3437  0.1545
  517TIP3    H123110   4.274   3.755   1.792 -2.5655 -0.5625  0.7406
  517TIP3    H223111   4.229   3.612   1.767  0.7868 -1.4155 -0.9197
  518TIP3   OH223112   3.781   5.757   6.074 -0.4043 -0.0081 -0.0859
  518TIP3    H123113   3.691   5.746   6.042  0.5743 -0.7614 -2.8050
  518TIP3    H223114   3.802   5.673   6.115  0.0715 -1.0706 -2.3520
  519TIP3   OH223115   0.013   2.214   0.605  0.3914  0.1262 -0.2454
  519TIP3    H123116  -0.022   2.284   0.550 -1.9418 -0.3543  0.5180
  519TIP3    H223117   0.015   2.137   0.547  2.2686  0.5875 -0.8745
  520TIP3   OH223118   0.101   2.330   0.898 -0.1280 -0.3633  0.8263
  520TIP3    H123119   0.108   2.262   0.831  1.8680  0.0594  0.5579
  520TIP3    H223120   0.183   2.324   0.947 -0.2511  1.3453  1.2927
  521TIP3   OH223121   5.373   1.869   0.716  0.0083 -0.1404  0.5498
  521TIP3    H123122   5.343   1.911   0.636  1.5306 -1.2704 -0.6737
  521TIP3    H223123   5.350   1.931   0.786 -2.8879  0.1138 -0.5146
  522TIP3   OH223124   3.371   6.307   1.824 -0.3266  0.0948 -0.4956
  522TIP3    H123125   3.423   6.329   1.900 -1.3870 -0.4658  0.4242
  522TIP3    H223126   3.432   6.264   1.764  0.2891 -0.4502  0.5038
  523TIP3   OH223127   1.004   1.829   6.445 -0.0883  0.8749 -0.2553
  523TIP3    H123128   1.061   1.765   6.487 -0.8740  1.2341  1.4492
  523TIP3    H223129   1.050   1.913   6.457 -0.9904  1.1847  1.2430
  524TIP3   OH223130   0.370   4.945   1.758  0.3043 -0.1553 -0.5639
  524TIP3    H123131   0.302   4.907   1.813 -1.2658 -0.3327 -2.4933
  524TIP3    H223132   0.429   4.990   1.818 -1.3298 -0.3072  1.2169
  525TIP3   OH223133   3.075   5.392   2.033  0.1046 -0.6875 -0.2035
  525TIP3    H123134   3.005   5.382   1.969 -1.4904 -1.5174  1.6003
  525TIP3    H223135   3.153   5.361   1.988 -0.5408  0.5990 -2.3961
  526TIP3   OH223136   1.896   5.305   7.245  0.4331  0.2137  0.6000
  526TIP3    H123137   1.902   5.394   7.210 -2.0052 -0.7570 -2.7688
  526TIP3    H223138   1.985   5.270   7.236  0.8759  1.5294 -0.4045
  527TIP3   OH223139   2.149   6.102   7.634 -0.0992 -0.1123  1.0469
  527TIP3    H123140   2.180   6.127   7.547 -0.9397  1.3385  1.1333
  527TIP3    H223141   2.115   6.013   7.623  0.1924 -0.1017 -0.0066
  528TIP3   OH223142   0.228   1.778   6.758 -0.2898  0.2990 -0.5306
  528TIP3    H123143   0.308   1.790   6.707 -0.8568 -0.8525 -1.7870
  528TIP3    H223144   0.163   1.752   6.693 -1.2705 -0.3911  0.6854
  529TIP3   OH223145   4.693   6.045   7.464 -0.0217  0.2593 -0.0325
  529TIP3    H123146   4.721   6.022   7.553  0.8421  0.0810 -0.3397
  529TIP3    H223147   4.737   5.981   7.408 -1.3285 -0.2288 -0.5190
  530TIP3   OH223148   6.174   4.666   6.356  0.0522  0.4906  0.1956
  530TIP3    H123149   6.177   4.762   6.353 -1.4115  0.5313 -0.9537
  530TIP3    H223150   6.259   4.639   6.322 -0.0887  1.3903 -0.9587
  531TIP3   OH223151   5.381   4.294   0.969 -0.1483 -0.3123 -0.0660
  531TIP3    H123152   5.336   4.228   1.022 -0.6868  0.5213  0.5520
  531TIP3    H223153   5.331   4.298   0.888 -1.6438  1.0727  0.8721
  532TIP3   OH223154   5.257   0.506   7.565 -0.4684 -0.6499  0.4413
  532TIP3    H123155   5.344   0.478   7.535 -0.4138  0.5476 -0.6417
  532TIP3    H223156   5.233   0.577   7.505 -1.9578 -0.5751  1.0775
  533TIP3   OH223157   0.568   0.060   8.037  0.2345 -0.3440 -0.3295
  533TIP3    H123158   0.641   0.084   8.095  0.8633  0.3591 -1.3810
  533TIP3    H223159   0.541   0.143   7.997  0.2399 -0.9005 -1.5226
  534TIP3   OH223160   4.745   4.037   1.038 -0.1099 -0.2480  0.0502
  534TIP3    H123161   4.678   4.074   0.981  0.6477  1.2859  0.0842
  534TIP3    H223162   4.788   4.114   1.077  1.5160 -1.1748  0.1883
  535TIP3   OH223163   3.620   1.707   1.018  0.0394 -0.6184  0.2151
  535TIP3    H123164   3.573   1.789   0.999  0.2479 -0.0279  2.0876
  535TIP3    H223165   3.712   1.731   1.013  0.1155 -0.2419  2.5581
  536TIP3   OH223166   0.336   6.723   8.591 -0.1183  0.2157 -0.0716
  536TIP3    H123167   0.299   6.671   8.521  0.0735 -0.6742  0.4660
  536TIP3    H223168   0.319   6.814   8.566 -3.3216 -0.1314  0.5136
  537TIP3   OH223169   0.690   0.092   6.734 -0.0818 -0.5496  0.3907
  537TIP3    H123170   0.703   0.151   6.660  1.2057 -1.8494 -0.4987
  537TIP3    H223171   0.625   0.135   6.789 -1.0880  0.4521 -1.5043
  538TIP3   OH223172   4.494   5.734   1.741  0.4224 -0.0463  0.1449
  538TIP3    H123173   4.419   5.776   1.782 -0.6143 -0.7607 -0.9358
  538TIP3    H223174   4.470   5.727   1.648  2.7589  1.6994 -0.6789
  539TIP3   OH223175   0.681   2.613   0.917  0.3973  0.6254  0.4288
  539TIP3    H123176   0.731   2.557   0.976  0.6664  0.6794  0.2509
  539TIP3    H223177   0.744   2.642   0.852  0.2621  1.1402  0.5233
  540TIP3   OH223178   3.287   5.422   0.859  0.0816  0.3603 -0.3938
  540TIP3    H123179   3.290   5.475   0.939 -0.9802 -0.0912 -0.0304
  540TIP3    H223180   3.243   5.341   0.886 -0.2244  0.1672 -1.4228
  541TIP3   OH223181   3.181   5.591   5.806 -0.1342  0.3925 -0.3608
  541TIP3    H123182   3.133   5.580   5.724  1.4895  0.6894 -1.3871
  541TIP3    H223183   3.272   5.598   5.779  0.3448  1.3505  1.4243
  542TIP3   OH223184   3.414   1.928   1.337 -0.4238  0.1708  0.1989
  542TIP3    H123185   3.491   1.875   1.318 -0.4843  0.1325  0.0549
  542TIP3    H223186   3.344   1.888   1.285 -0.1566  1.2117 -1.0266
  543TIP3   OH223187   6.399   2.813   7.864  0.0808  0.5122  0.0574
  543TIP3    H123188   6.389   2.725   7.828  0.2337  1.0822 -1.4515
  543TIP3    H223189   6.313   2.835   7.899 -0.3339  0.2671 -0.7801
  544TIP3   OH223190   4.926   2.253   2.397 -0.2974  0.2373 -0.6767
  544TIP3    H123191   4.956   2.294   2.478 -0.2349 -0.0616 -0.5483
  544TIP3    H223192   4.968   2.304   2.328 -0.7985  0.8473 -0.5395
  545TIP3   OH223193   6.401   4.201   6.708 -0.1078 -0.1943  0.0703
  545TIP3    H123194   6.419   4.163   6.622 -2.3423  0.6009 -0.8261
  545TIP3    H223195   6.401   4.295   6.694 -1.4688 -0.0743  0.6925
  546TIP3   OH223196   5.755   5.586   1.659 -0.3055  0.5633  0.3254
  546TIP3    H123197   5.672   5.579   1.706  0.1993  1.5134  1.4149
  546TIP3    H223198   5.781   5.677   1.670  0.9398  0.2533  0.1037
  547TIP3   OH223199   1.368   4.271   6.741  0.5646  0.1752  0.4191
  547TIP3    H123200   1.350   4.320   6.821  0.9554 -0.9639  1.2365
  547TIP3    H223201   1.446   4.313   6.704  0.8383  0.2395  1.0519
  548TIP3   OH223202   0.862   1.593   0.410  0.1313  0.1819  0.3804
  548TIP3    H123203   0.804   1.632   0.345 -0.7663 -1.2978  0.2579
  548TIP3    H223204   0.804   1.553   0.474  0.9686  2.1559  2.5532
  549TIP3   OH223205   0.569   6.772   6.373 -0.4890  0.5882 -0.2397
  549TIP3    H123206   0.622   6.708   6.421 -1.4210 -1.1347 -1.3983
  549TIP3    H223207   0.629   6.845   6.357  1.2817 -0.8590 -0.6641
  550TIP3   OH223208   2.339   4.852   6.893  0.2961 -0.7516  0.2753
  550TIP3    H123209   2.415   4.810   6.933  0.2274 -1.4623 -0.3220
  550TIP3    H223210   2.374   4.930   6.851  0.7020 -1.0930 -0.0239
  551TIP3   OH223211   6.197   1.216   8.562  0.8030 -0.6925  0.1588
  551TIP3    H123212   6.140   1.195   8.636 -0.6048  0.5445 -0.5352
  551TIP3    H223213   6.167   1.158   8.492  0.2094  0.1221 -0.2774
  552TIP3   OH223214   6.180   5.164   0.574  0.0783  0.6340  0.4932
  552TIP3    H123215   6.204   5.200   0.489 -0.0768  0.3438  0.3243
  552TIP3    H223216   6.213   5.074   0.572  0.3837  0.7355  0.8760
  553TIP3   OH223217   2.708   2.935   6.229  0.1129  0.0361 -0.6777
  553TIP3    H123218   2.798   2.927   6.199 -0.7526 -1.5327 -3.1199
  553TIP3    H223219   2.711   2.911   6.322  1.8513 -2.7263 -1.3359
  554TIP3   OH223220   3.900   6.593   0.075 -0.8400 -0.2220 -0.1074
  554TIP3    H123221   3.856   6.508   0.070 -0.0740 -0.5860 -1.0611
  554TIP3    H223222   3.901   6.624  -0.015  0.9204 -0.2748 -0.1301
  555TIP3   OH223223   4.443   2.322   6.930  0.3111  0.2079 -0.0633
  555TIP3    H123224   4.529   2.364   6.930  0.4905 -0.1281  1.2662
  555TIP3    H223225   4.457   2.237   6.888  0.0326  1.2133 -2.3752
  556TIP3   OH223226   4.624   2.581   8.552 -0.5675 -0.3540  0.3512
  556TIP3    H123227   4.590   2.582   8.642  0.6423  2.0134  0.8485
  556TIP3    H223228   4.704   2.529   8.557  0.3937  1.1393  1.0521
  557TIP3   OH223229   2.328   5.263   1.750  0.3095  0.8952 -0.1050
  557TIP3    H123230   2.333   5.212   1.831  1.6026 -1.9678 -1.8107
  557TIP3    H223231   2.275   5.209   1.691  1.5471  1.5804 -1.9426
  558TIP3   OH223232   5.214   5.176   6.877  0.1595  0.2340 -0.5980
  558TIP3    H123233   5.161   5.242   6.833 -0.5313  0.3645  0.4005
  558TIP3    H223234   5.156   5.100   6.886 -0.5105  0.9686  2.0788
  559TIP3   OH223235   3.217   6.499   1.049  0.4040  0.1640  0.8214
  559TIP3    H123236   3.233   6.417   1.097 -0.5676 -0.8212 -0.4505
  559TIP3    H223237   3.132   6.485   1.006  0.5235  1.6035  0.0632
  560TIP3   OH223238   6.320   3.913   2.251  0.0158 -0.4079  0.1406
  560TIP3    H123239   6.348   3.947   2.335  0.5064  1.2972 -0.6717
  560TIP3    H223240   6.245   3.856   2.271  0.1142 -0.0159  1.7028
  561TIP3   OH223241   0.781   0.925   8.454 -0.0956  0.2670 -0.4644
  561TIP3    H123242   0.738   0.844   8.479 -0.3694  0.1760 -1.2016
  561TIP3    H223243   0.836   0.948   8.529  0.0103 -0.6127 -0.2705
  562TIP3   OH223244   1.123   0.417   0.216  0.2589  0.2990  0.0962
  562TIP3    H123245   1.212   0.386   0.196  0.0784 -1.1073  1.2679
  562TIP3    H223246   1.115   0.408   0.311 -0.2261  3.0485  0.3826
  563TIP3   OH223247   4.424   2.125   0.770 -0.1281 -0.0393 -0.2293
  563TIP3    H123248   4.404   2.049   0.715 -0.1648  0.5767 -1.0806
  563TIP3    H223249   4.463   2.087   0.849 -2.4429 -1.1353  0.4738
  564TIP3   OH223250   4.764   3.768   0.885 -0.5204 -0.6388  0.3494
  564TIP3    H123251   4.750   3.754   0.791  2.3567 -0.4466 -0.1996
  564TIP3    H223252   4.789   3.860   0.892  0.3024 -0.9078  1.1420
  565TIP3   OH223253   1.966   5.083   8.505  0.4054  0.9240  0.2509
  565TIP3    H123254   1.938   5.164   8.549  0.0730  0.6338  0.5742
  565TIP3    H223255   2.045   5.056   8.553 -1.4987 -0.9452  2.5912
  566TIP3   OH223256   4.028   2.429   1.499 -0.2650  0.4674  0.2028
  566TIP3    H123257   3.988   2.404   1.582 -1.0642  1.9716  0.3022
  566TIP3    H223258   3.955   2.432   1.437  0.0089  1.2169 -0.1005
  567TIP3   OH223259   6.162   0.350   0.441 -0.0034 -0.2038 -0.4531
  567TIP3    H123260   6.215   0.297   0.501 -0.0803  0.4661  0.2306
  567TIP3    H223261   6.072   0.339   0.473 -0.1116 -0.2446 -0.7649
  568TIP3   OH223262   1.721   0.068   7.252 -0.0555 -0.3785  0.5950
  568TIP3    H123263   1.668   0.138   7.215 -1.8655 -1.3395  1.1769
  568TIP3    H223264   1.718   0.084   7.347  1.5440  0.0812  0.5886
  569TIP3   OH223265   3.881   4.581   7.817 -0.1159 -0.3763  0.1958
  569TIP3    H123266   3.810   4.606   7.877 -0.9910 -0.2440 -0.8558
  569TIP3    H223267   3.842   4.516   7.759  0.4834  0.0469 -0.7060
  570TIP3   OH223268   3.500   0.284   1.649  0.3401  0.1569 -0.4396
  570TIP3    H123269   3.412   0.284   1.687 -0.3289 -0.9527 -1.8865
  570TIP3    H223270   3.488   0.316   1.560  1.6286  1.2305 -0.2564
  571TIP3   OH223271   5.607   6.004   1.019 -0.6535 -0.3318  0.1823
  571TIP3    H123272   5.571   5.918   1.044 -0.4903 -1.2831 -2.5116
  571TIP3    H223273   5.612   6.001   0.923  0.1609  2.4007  0.0554
  572TIP3   OH223274   3.936   5.264   1.295 -0.6958  0.1517 -0.0321
  572TIP3    H123275   4.004   5.265   1.228 -0.6257 -0.3422  0.0233
  572TIP3    H223276   3.979   5.229   1.373 -1.2909 -1.3601 -0.3409
  573TIP3   OH223277   6.128   4.729   7.747  0.7253  0.3252 -0.2770
  573TIP3    H123278   6.147   4.741   7.840  0.7554  2.0170 -0.4801
  573TIP3    H223279   6.054   4.668   7.745  0.7142  0.2914  0.8506
  574TIP3   OH223280   4.694   0.369   7.466  0.2140  0.5684 -0.0991
  574TIP3    H123281   4.616   0.393   7.418 -0.2275 -0.6031 -0.0185
  574TIP3    H223282   4.671   0.383   7.558 -0.4113 -1.0276  0.0233
  575TIP3   OH223283   6.456   0.511   1.424  0.4662  0.3432  0.4052
  575TIP3    H123284   6.397   0.566   1.374 -0.0189 -1.1817 -0.7766
  575TIP3    H223285   6.544   0.537   1.395  0.2610  0.8140  0.2045
  576TIP3   OH223286   1.039   4.272   7.055 -0.0325  0.4911  0.2798
  576TIP3    H123287   0.987   4.269   6.975  3.2240  0.1255 -2.0213
  576TIP3    H223288   1.060   4.364   7.067 -0.1109  0.4929  0.4006
  577TIP3   OH223289   2.687   2.150   0.622 -0.0223 -0.4088 -0.0313
  577TIP3    H123290   2.700   2.229   0.674  2.3544  0.3236 -1.5756
  577TIP3    H223291   2.714   2.078   0.679  1.5620  0.2921  0.1601
  578TIP3   OH223292   0.197   1.822   0.306 -0.6740 -0.0015 -0.1086
  578TIP3    H123293   0.162   1.782   0.226  1.3375 -0.2204 -0.9216
  578TIP3    H223294   0.227   1.748   0.358  1.0126  0.2862 -0.6306
  579TIP3   OH223295   3.625   2.839   0.482  0.3049 -0.1465 -0.8079
  579TIP3    H123296   3.555   2.776   0.498  0.1188  0.0828 -0.7208
  579TIP3    H223297   3.624   2.896   0.559 -0.4777  0.8530 -1.5377
  580TIP3   OH223298   3.212   3.706   6.743  0.6072  0.4197  0.0672
  580TIP3    H123299   3.243   3.774   6.683 -1.0768  2.0678  0.9649
  580TIP3    H223300   3.239   3.738   6.830  1.4064 -1.0121  0.3707
  581TIP3   OH223301   3.710   5.036   8.242 -0.2010  0.0846  0.3238
  581TIP3    H123302   3.698   4.941   8.234 -0.4271  0.2078 -1.0437
  581TIP3    H223303   3.636   5.073   8.194  0.2706  0.9468  0.2534
  582TIP3   OH223304   6.296   3.995   8.557  0.2091 -0.9248  0.2730
  582TIP3    H123305   6.212   4.027   8.589 -1.2835 -2.5297 -1.7805
  582TIP3    H223306   6.337   4.070   8.514 -1.1167 -0.6091 -0.4657
  583TIP3   OH223307   5.870   0.310   0.119 -0.5388 -0.5320 -0.5202
  583TIP3    H123308   5.958   0.303   0.154  0.2366  0.9159 -1.9920
  583TIP3    H223309   5.853   0.225   0.078 -0.5960 -1.4509  1.3186
  584TIP3   OH223310   2.934   3.660   6.193 -0.0174 -0.3480 -0.0666
  584TIP3    H123311   2.960   3.748   6.222  1.0356 -0.3123 -1.0365
  584TIP3    H223312   3.004   3.603   6.225  0.0325 -0.6220 -0.6490
  585TIP3   OH223313   3.758   1.981   6.977 -0.0478 -0.0810  0.1390
  585TIP3    H123314   3.768   2.075   6.962  0.1266 -0.0521  0.4308
  585TIP3    H223315   3.822   1.941   6.917 -1.2045 -0.0948 -1.1336
  586TIP3   OH223316   3.315   5.273   1.521  0.0123  0.0450 -0.8092
  586TIP3    H123317   3.315   5.180   1.503 -1.1519 -0.3301  0.8671
  586TIP3    H223318   3.223   5.295   1.537  0.2911  1.4347 -0.9511
  587TIP3   OH223319   2.378   1.809   7.186  0.1192 -0.1690 -0.6352
  587TIP3    H123320   2.433   1.794   7.263 -1.1710  0.5279  0.4572
  587TIP3    H223321   2.413   1.890   7.147  0.6299 -0.4010 -0.6689
  588TIP3   OH223322   6.387   2.547   7.820 -0.9186  0.3441 -0.3483
  588TIP3    H123323   6.404   2.522   7.910 -2.1781  1.2794  0.1938
  588TIP3    H223324   6.465   2.520   7.771  1.2166  2.6612  1.5452
  589TIP3   OH223325   5.202   6.351   7.380 -0.0311 -0.3333  0.0486
  589TIP3    H123326   5.181   6.279   7.321 -1.3205 -0.4632  0.6309
  589TIP3    H223327   5.120   6.399   7.390  0.8475  1.3988 -0.5301
  590TIP3   OH223328   2.754   3.507   2.246 -0.2621  0.3916  0.2757
  590TIP3    H123329   2.786   3.585   2.292  0.5987 -0.5067  1.2733
  590TIP3    H223330   2.718   3.452   2.316  0.1332 -0.5652 -0.2640
  591TIP3   OH223331   0.391   0.423   6.717 -0.5766  0.0464  0.5723
  591TIP3    H123332   0.297   0.431   6.727 -0.6089 -0.9227  1.1706
  591TIP3    H223333   0.414   0.487   6.649 -1.8296 -0.5284 -0.4278
  592TIP3   OH223334   1.360   5.436   6.877  0.0591 -0.0064 -0.3708
  592TIP3    H123335   1.403   5.355   6.906  0.5559 -0.3594 -2.0121
  592TIP3    H223336   1.330   5.417   6.789  2.0292  2.2103 -1.6490
  593TIP3   OH223337   2.304   5.653   6.285 -0.0934  0.0355  0.2503
  593TIP3    H123338   2.249   5.718   6.241 -0.1323 -1.0576 -1.3583
  593TIP3    H223339   2.393   5.688   6.277 -0.3083  0.8665  1.1966
  594TIP3   OH223340   0.192   0.648   8.560  0.4835 -0.2499 -0.4877
  594TIP3    H123341   0.169   0.564   8.521  0.7142  0.3737 -2.0337
  594TIP3    H223342   0.281   0.666   8.530  0.3595  0.6443 -0.3631
  595TIP3   OH223343   2.452   1.209   0.141  0.1398 -0.2966 -0.0580
  595TIP3    H123344   2.369   1.187   0.183  0.0672  0.4546  0.2085
  595TIP3    H223345   2.460   1.147   0.069  0.4730 -1.9128  1.3020
  596TIP3   OH223346   2.158   6.127   8.117  0.4269  0.5951 -0.2785
  596TIP3    H123347   2.063   6.136   8.110  0.1089 -1.5754  0.3388
  596TIP3    H223348   2.187   6.207   8.161 -1.2070  0.9813  0.1647
  597TIP3   OH223349   0.293   6.142   8.429 -0.2914  0.0250 -0.3604
  597TIP3    H123350   0.373   6.154   8.378  0.2538 -1.3479  0.1003
  597TIP3    H223351   0.323   6.138   8.519 -0.7811 -1.0999 -0.2280
  598TIP3   OH223352   4.274   5.909   8.582  0.0379  0.0952  0.4123
  598TIP3    H123353   4.341   5.841   8.592 -0.2480 -0.1308  0.8396
  598TIP3    H223354   4.314   5.989   8.615  0.5008  0.2186 -0.4157
  599TIP3   OH223355   3.490   2.621   0.793  0.5079  0.0596 -0.1325
  599TIP3    H123356   3.488   2.693   0.856 -1.5512  0.6754 -0.8422
  599TIP3    H223357   3.465   2.544   0.843  0.1673  0.3067  0.0767
  600TIP3   OH223358   5.933   1.079   1.573  0.5117 -0.5902 -0.6087
  600TIP3    H123359   5.948   1.046   1.662  0.5508  0.4672 -0.2034
  600TIP3    H223360   5.995   1.031   1.518  0.7439 -0.9857 -0.0088
  601TIP3   OH223361   1.076   0.196   2.017 -0.1149  0.3498  0.1940
  601TIP3    H123362   1.051   0.138   2.089  2.6828  0.7830  1.6680
  601TIP3    H223363   1.128   0.140   1.959  0.1289  0.7032  0.0724
  602TIP3   OH223364   2.063   0.619   5.946  0.3385 -0.1259 -0.3981
  602TIP3    H123365   2.159   0.612   5.953  0.3592  0.0393 -0.5222
  602TIP3    H223366   2.030   0.552   6.006  0.5300  0.1191 -0.0162
  603TIP3   OH223367   4.593   2.736   0.691 -0.6149 -0.2676  0.1658
  603TIP3    H123368   4.526   2.760   0.627  0.1147  0.3262 -0.3866
  603TIP3    H223369   4.671   2.716   0.639 -0.4989 -1.4731  0.7661
  604TIP3   OH223370   1.084   6.643   7.229 -0.6550  0.2903 -0.0938
  604TIP3    H123371   0.992   6.670   7.222 -0.7505  0.2914  1.0614
  604TIP3    H223372   1.080   6.553   7.261 -0.2693 -0.1033 -1.1182
  605TIP3   OH223373   2.649   2.270   8.217  0.4754  1.0529  0.0064
  605TIP3    H123374   2.670   2.206   8.148 -1.2772 -0.9402  1.2014
  605TIP3    H223375   2.710   2.250   8.287 -1.6268 -1.1844  1.3827
  606TIP3   OH223376   4.523   1.306   7.824 -0.2925 -0.4464  0.4672
  606TIP3    H123377   4.547   1.398   7.819 -2.6442  0.1656 -0.9954
  606TIP3    H223378   4.593   1.260   7.779  0.9388  0.5766  1.2654
  607TIP3   OH223379   1.111   5.041   1.824 -0.2414  0.1430  0.7505
  607TIP3    H123380   1.189   5.062   1.876 -0.0332  0.6224  0.2459
  607TIP3    H223381   1.039   5.046   1.887  0.0873  0.0945  1.1351
  608TIP3   OH223382   4.384   0.862   1.081 -0.0726  0.2068  0.4059
  608TIP3    H123383   4.381   0.958   1.074 -0.1546  0.2362  0.8479
  608TIP3    H223384   4.475   0.843   1.103 -0.2748  0.2505  1.3053
  609TIP3   OH223385   0.327   1.032   1.796  0.2184  0.0853 -0.3567
  609TIP3    H123386   0.286   0.980   1.865 -0.1102  0.1682 -0.4882
  609TIP3    H223387   0.400   0.978   1.766 -1.2224 -1.1856 -1.7897
  610TIP3   OH223388   2.556   0.166   8.309  0.1318 -1.1011 -0.4920
  610TIP3    H123389   2.465   0.144   8.326  0.5899 -2.1801  0.8022
  610TIP3    H223390   2.596   0.083   8.283  0.4637 -0.3663 -2.4812
  611TIP3   OH223391   0.488   5.074   1.394 -0.1813 -0.2367 -0.0568
  611TIP3    H123392   0.452   5.134   1.460 -1.6145 -0.8955 -0.2216
  611TIP3    H223393   0.414   5.049   1.340  0.5627 -1.4700 -0.5496
  612TIP3   OH223394   2.790   6.596   0.077  0.2212  0.1760  0.7526
  612TIP3    H123395   2.830   6.620  -0.006 -0.9971  2.7234  0.8275
  612TIP3    H223396   2.852   6.627   0.143  0.2352 -0.0055  0.8259
  613TIP3   OH223397   0.873   4.873   6.468  0.8478  0.0032 -0.0510
  613TIP3    H123398   0.917   4.954   6.443  1.6563  0.0763  1.4599
  613TIP3    H223399   0.787   4.902   6.498  0.3556  0.0491 -1.4405
  614TIP3   OH223400   2.279   3.585   7.571  0.1066 -0.4150  0.1201
  614TIP3    H123401   2.364   3.606   7.533  0.5859 -0.3710  1.1604
  614TIP3    H223402   2.244   3.515   7.517 -0.2205  1.0486 -1.6662
  615TIP3   OH223403   3.438   5.224   7.222 -0.4622  0.0907 -0.3870
  615TIP3    H123404   3.439   5.159   7.151 -2.8304 -1.0889  0.5584
  615TIP3    H223405   3.461   5.306   7.179 -1.0764 -0.7203 -2.3893
  616TIP3   OH223406   4.103   3.399   0.695  0.7462 -0.1967  0.0436
  616TIP3    H123407   4.089   3.319   0.644 -2.1108  0.5986 -0.5805
  616TIP3    H223408   4.129   3.465   0.630  1.0015 -0.1142  0.2290
  617TIP3   OH223409   6.663   4.645   0.676 -0.3954  0.5067 -0.3243
  617TIP3    H123410   6.706   4.691   0.604  0.4054  0.5537  0.1688
  617TIP3    H223411   6.600   4.708   0.710 -0.0891  0.8417 -0.3645
  618TIP3   OH223412   5.150   1.017   7.882 -0.2955  0.2608  0.0736
  618TIP3    H123413   5.225   1.005   7.824  1.3809  0.8803  1.9872
  618TIP3    H223414   5.113   1.101   7.856 -0.4367 -0.1064 -0.9755
  619TIP3   OH223415   5.239   4.145   2.276  0.1793  0.2757  0.7492
  619TIP3    H123416   5.151   4.144   2.239  0.8462  0.6183 -0.9255
  619TIP3    H223417   5.235   4.210   2.346 -0.4631  1.6416 -0.5036
  620TIP3   OH223418   1.991   2.534   8.309 -0.0581 -0.6170 -0.4106
  620TIP3    H123419   1.920   2.545   8.247 -0.1046 -1.7152 -0.5712
  620TIP3    H223420   1.968   2.455   8.358  0.0896  0.1013  0.8568
  621TIP3   OH223421   6.426   3.657   2.946  0.0683  0.0864  0.0681
  621TIP3    H123422   6.492   3.655   3.016  1.3086  0.4874 -1.0443
  621TIP3    H223423   6.418   3.750   2.923  1.4773 -0.2217 -1.9089
  622TIP3   OH223424   0.044   3.494   0.138 -0.4314  0.1514 -0.3484
  622TIP3    H123425   0.026   3.400   0.144  1.7636 -0.3651 -0.8766
  622TIP3    H223426   0.018   3.529   0.223  1.8195 -1.5712  1.1549
  623TIP3   OH223427   0.173   6.661   6.979  0.2008  0.2977  0.5225
  623TIP3    H123428   0.111   6.637   7.048  0.2439  0.5382  0.6469
  623TIP3    H223429   0.160   6.595   6.910 -0.2437  0.3957  0.5142
  624TIP3   OH223430   2.435   3.662   0.043 -0.9875 -0.1126  0.2342
  624TIP3    H123431   2.454   3.626  -0.044  0.7016  1.6252 -0.1918
  624TIP3    H223432   2.385   3.741   0.025 -0.8704  0.1102  0.8667
  625TIP3   OH223433   0.709   1.210   7.081  0.4751 -0.4542  0.1266
  625TIP3    H123434   0.768   1.146   7.042  1.3102  0.9415 -1.0343
  625TIP3    H223435   0.743   1.295   7.052 -2.1829  0.4254 -0.7549
  626TIP3   OH223436   0.055   3.360   6.964 -0.6359 -0.1687  0.5774
  626TIP3    H123437  -0.023   3.385   7.015 -0.3849  0.5499  0.6091
  626TIP3    H223438   0.084   3.441   6.922 -0.4363 -0.6185 -0.1706
  627TIP3   OH223439   4.158   4.728   7.277 -0.1279  0.3933 -0.3342
  627TIP3    H123440   4.154   4.656   7.340  3.5753  0.9536  0.8165
  627TIP3    H223441   4.198   4.690   7.199  0.6268  0.8778 -0.1984
  628TIP3   OH223442   4.407   6.544   8.328 -0.3349 -0.5121 -0.1602
  628TIP3    H123443   4.364   6.459   8.328 -1.2964 -0.0476 -0.2515
  628TIP3    H223444   4.500   6.525   8.329 -0.5424 -1.5503  1.3863
  629TIP3   OH223445   3.965   6.079   6.690  0.1949  0.4035  0.3289
  629TIP3    H123446   3.986   6.108   6.601 -0.3886  1.2519  0.4560
  629TIP3    H223447   4.034   6.016   6.711  0.2829  0.1136 -0.7591
  630TIP3   OH223448   4.116   3.246   1.753  0.4889 -0.9452  0.2773
  630TIP3    H123449   4.088   3.164   1.712  0.8077 -0.4158 -1.0820
  630TIP3    H223450   4.151   3.297   1.680 -0.2395  0.6245  0.9813
  631TIP3   OH223451   3.428   6.091   6.607  0.1632 -0.4570  0.0805
  631TIP3    H123452   3.516   6.116   6.580 -0.0107 -0.7221 -0.7605
  631TIP3    H223453   3.433   5.996   6.622  0.8189 -0.0526  3.2556
  632TIP3   OH223454   2.242   3.635   2.585  0.0122 -0.2022  0.0515
  632TIP3    H123455   2.329   3.649   2.547  0.3351  2.5621  1.5819
  632TIP3    H223456   2.223   3.715   2.633 -2.7981 -1.2981  0.9921
  633TIP3   OH223457   3.967   5.722   8.118  0.2670  0.1040 -0.9197
  633TIP3    H123458   3.961   5.814   8.146  2.1605  0.1466 -0.5265
  633TIP3    H223459   4.060   5.700   8.128 -0.2494 -2.0499 -0.4468
  634TIP3   OH223460   6.349   0.845   7.339  0.1192 -0.2417  0.6979
  634TIP3    H123461   6.337   0.893   7.256 -1.9042  0.7768  1.4945
  634TIP3    H223462   6.384   0.760   7.313 -0.5397  0.0232 -1.2260
  635TIP3   OH223463   1.106   6.729   1.805 -0.6394 -0.5838 -0.0989
  635TIP3    H123464   1.120   6.813   1.762 -0.0244 -0.4151  0.4191
  635TIP3    H223465   1.185   6.715   1.857 -0.4929 -1.7445 -0.6062
  636TIP3   OH223466   2.504   3.671   7.443  0.2460  0.3070  0.4882
  636TIP3    H123467   2.473   3.761   7.433 -2.0194 -0.5780 -1.3545
  636TIP3    H223468   2.543   3.650   7.358 -0.8944 -0.9909  0.2454
  637TIP3   OH223469   4.311   6.251   1.052 -0.1353  0.3018 -0.3763
  637TIP3    H123470   4.319   6.201   0.971  0.7907  1.9884 -1.3901
  637TIP3    H223471   4.391   6.233   1.101 -0.3904 -0.2018 -0.1444
  638TIP3   OH223472   0.700   1.567   0.094  0.2974  0.4344 -0.0663
  638TIP3    H123473   0.734   1.480   0.112 -0.8970 -0.0177  0.1027
  638TIP3    H223474   0.672   1.601   0.179  0.9503  1.0896 -0.0951
  639TIP3   OH223475   4.748   4.652   2.572 -0.1329 -0.0631 -0.3462
  639TIP3    H123476   4.702   4.673   2.491 -0.7039  1.2455  0.2807
  639TIP3    H223477   4.680   4.653   2.640  0.4282 -0.5292  0.2379
  640TIP3   OH223478   5.852   0.595   0.857 -0.4626  0.0822 -0.4521
  640TIP3    H123479   5.757   0.593   0.871 -0.5201 -2.2899 -0.7241
  640TIP3    H223480   5.886   0.640   0.934 -1.8687  2.7116 -1.2305
  641TIP3   OH223481   4.644   6.069   7.019  0.2390  0.1683  0.1259
  641TIP3    H123482   4.637   5.982   7.058  1.8554  0.1239  0.3912
  641TIP3    H223483   4.652   6.052   6.925  1.8979 -0.1024  0.2765
  642TIP3   OH223484   1.953   0.240   0.792  0.3603  0.2313  0.4229
  642TIP3    H123485   1.996   0.261   0.875  1.2246 -0.1909  0.0834
  642TIP3    H223486   1.923   0.325   0.759 -0.7776  0.3168  1.5768
  643TIP3   OH223487   2.333   1.821   1.150  0.1067 -0.1382 -0.1397
  643TIP3    H123488   2.346   1.727   1.138 -0.7357 -0.2386 -0.2989
  643TIP3    H223489   2.334   1.833   1.245 -1.4847 -0.5729 -0.0403
  644TIP3   OH223490   4.021   1.313   0.162 -0.0654 -0.3192 -0.1787
  644TIP3    H123491   4.073   1.336   0.239  1.5541 -1.0333 -0.9962
  644TIP3    H223492   3.958   1.248   0.193  0.2618 -0.2597  0.6344
  645TIP3   OH223493   4.961   6.559   0.132 -0.2598 -0.2221  0.2735
  645TIP3    H123494   4.960   6.636   0.188  1.0171 -1.0614  1.5313
  645TIP3    H223495   4.915   6.586   0.053 -0.1420  1.7076  0.8131
  646TIP3   OH223496   1.932   6.440   6.378 -0.1977 -0.4897  0.6569
  646TIP3    H123497   1.886   6.472   6.300  0.9211  1.7128  0.8249
  646TIP3    H223498   2.015   6.405   6.344 -0.6220 -1.5417  0.6706
  647TIP3   OH223499   2.980   1.540   6.989 -0.0358 -0.0971  0.4214
  647TIP3    H123500   2.979   1.616   6.930 -1.2395 -0.1368  0.3561
  647TIP3    H223501   2.894   1.543   7.032 -0.5542 -2.0364 -0.3871
  648TIP3   OH223502   4.996   2.864   0.720 -0.5581 -0.5504  0.3741
  648TIP3    H123503   4.982   2.880   0.626  0.8375 -0.0671  0.2372
  648TIP3    H223504   5.073   2.808   0.724 -0.2635 -0.0986  1.2583
  649TIP3   OH223505   5.523   4.365   1.934  0.1193 -0.3785 -0.4947
  649TIP3    H123506   5.555   4.409   1.855 -0.0251  1.3681  0.3705
  649TIP3    H223507   5.464   4.298   1.902 -1.0282  1.1936 -1.8551
  650TIP3   OH223508   3.088   4.330   7.839 -0.2563 -0.2560  0.5218
  650TIP3    H123509   3.062   4.398   7.776 -0.2411 -0.8371 -0.1215
  650TIP3    H223510   3.015   4.269   7.840  0.3583 -1.0071 -0.0175
  651TIP3   OH223511   1.322   2.143   1.973  0.6612 -0.1804 -0.4942
  651TIP3    H123512   1.366   2.202   2.034  0.1497  1.5298 -1.7062
  651TIP3    H223513   1.229   2.157   1.987  0.5335  0.1126 -1.5245
  652TIP3   OH223514   1.521   1.247   1.460 -0.5198  0.4500  0.0764
  652TIP3    H123515   1.478   1.194   1.393 -0.8829  0.1981  0.4949
  652TIP3    H223516   1.448   1.283   1.511 -0.2884  1.7793 -0.5198
  653TIP3   OH223517   6.186   4.479   2.054  0.3542 -0.4830  0.1406
  653TIP3    H123518   6.164   4.401   2.003 -1.5841  0.3880 -0.4666
  653TIP3    H223519   6.121   4.482   2.123 -0.4067  1.2231 -0.5843
  654TIP3   OH223520   4.537   0.094   0.393  0.0139  0.4238  0.3040
  654TIP3    H123521   4.480   0.149   0.340  0.0763  1.6411  1.4444
  654TIP3    H223522   4.625   0.127   0.375  0.1771 -0.1156  0.0858
  655TIP3   OH223523   3.822   2.732   6.351 -0.3883  0.0390  0.0803
  655TIP3    H123524   3.740   2.755   6.396 -0.7018 -0.4499 -0.2233
  655TIP3    H223525   3.891   2.753   6.414 -0.8239 -0.7686  0.8663
  656TIP3   OH223526   2.252   0.802   1.722  1.4968  0.9257  0.2745
  656TIP3    H123527   2.287   0.728   1.671 -1.7265 -0.8194  0.3138
  656TIP3    H223528   2.187   0.842   1.664  1.4330  2.1863  1.1849
  657TIP3   OH223529   0.126   1.231   2.389 -0.1260  0.2815  0.2033
  657TIP3    H123530   0.170   1.153   2.423 -2.3097 -0.5359  1.3164
  657TIP3    H223531   0.035   1.205   2.379 -0.8489  2.6022  0.2233
  658TIP3   OH223532   4.977   1.345   1.266  0.0452 -0.0882  0.1046
  658TIP3    H123533   4.906   1.387   1.314  0.6400  1.4344 -0.3155
  658TIP3    H223534   5.056   1.365   1.316  0.5609  0.7872 -1.0285
  659TIP3   OH223535   3.013   1.206   6.696  0.3960 -0.0259 -0.0202
  659TIP3    H123536   3.097   1.217   6.740  0.9296 -1.1546 -0.7137
  659TIP3    H223537   3.023   1.251   6.612  0.0653  0.4160  0.1711
  660TIP3   OH223538   4.394   3.021   1.030 -0.3251  0.1617  0.1568
  660TIP3    H123539   4.343   3.101   1.022  2.0688  1.7167 -0.4056
  660TIP3    H223540   4.376   2.972   0.950  0.8954  1.8619 -1.2333
  661TIP3   OH223541   3.733   1.444   2.290  0.0430 -0.1814  0.2048
  661TIP3    H123542   3.664   1.417   2.351 -0.6086 -0.0558 -0.4609
  661TIP3    H223543   3.739   1.371   2.227  0.8427 -0.3968  0.5238
  662TIP3   OH223544   1.074   4.516   1.843 -0.1942 -0.3545 -0.5101
  662TIP3    H123545   1.033   4.552   1.764 -0.6936  1.3383  0.4712
  662TIP3    H223546   1.015   4.542   1.914  0.6789 -1.1329  0.5268
  663TIP3   OH223547   3.510   4.279   1.092  0.1128 -0.3243 -0.1416
  663TIP3    H123548   3.465   4.266   1.176 -1.0464  1.1057 -0.4984
  663TIP3    H223549   3.564   4.357   1.106  1.0165 -0.9008 -0.3196
  664TIP3   OH223550   0.865   1.948   7.104  0.5804 -0.2752 -0.2698
  664TIP3    H123551   0.800   1.909   7.162 -0.3352  0.8234 -0.5125
  664TIP3    H223552   0.891   1.877   7.046  0.3696 -0.9943  0.4990
  665TIP3   OH223553   1.878   0.748   0.585  0.6410 -0.2345  0.1679
  665TIP3    H123554   1.969   0.755   0.614  0.9334 -0.7072 -0.6254
  665TIP3    H223555   1.878   0.783   0.496  0.5414 -2.5285 -0.7845
  666TIP3   OH223556   0.044   4.442   1.571  0.1628 -0.4817 -0.0450
  666TIP3    H123557   0.049   4.352   1.604  1.6833 -0.0853  0.8977
  666TIP3    H223558   0.013   4.433   1.481 -0.8461 -1.8492  0.3969
  667TIP3   OH223559   4.275   4.234   0.154 -0.1843  0.6992  0.2945
  667TIP3    H123560   4.219   4.253   0.230  1.4436  0.5913  1.5773
  667TIP3    H223561   4.356   4.201   0.192  1.0753  1.6216 -1.4647
  668TIP3   OH223562   1.359   3.638   1.267 -0.1810  0.1780  0.1305
  668TIP3    H123563   1.305   3.568   1.232 -0.9173  0.9559 -0.3542
  668TIP3    H223564   1.409   3.670   1.192  0.3007  0.0326  0.3897
  669TIP3   OH223565   5.673   1.124   8.441  0.1339 -0.1106  0.0643
  669TIP3    H123566   5.670   1.160   8.353  0.2072 -0.9069 -0.2784
  669TIP3    H223567   5.583   1.096   8.459  0.2400 -0.5086 -0.0070
  670TIP3   OH223568   5.481   6.248   7.257  0.0622 -0.5060 -0.2446
  670TIP3    H123569   5.493   6.182   7.326  1.6104  1.4387  1.4831
  670TIP3    H223570   5.562   6.244   7.206 -0.4585 -0.9194 -1.0557
  671TIP3   OH223571   4.639   5.058   8.036 -0.2207 -0.3810 -0.2391
  671TIP3    H123572   4.551   5.090   8.057  0.7115  0.6550  2.5454
  671TIP3    H223573   4.637   4.965   8.060 -0.6228 -0.4432 -0.4971
  672TIP3   OH223574   1.917   2.982   8.480 -0.3666 -0.1773  0.7085
  672TIP3    H123575   1.844   2.971   8.419  0.1593  0.8441 -0.1276
  672TIP3    H223576   1.989   3.015   8.427  0.3108  0.0936  1.7577
  673TIP3   OH223577   3.376   2.924   0.689  0.6847  0.2018  0.1743
  673TIP3    H123578   3.335   2.999   0.646  1.9127 -0.2300 -1.8978
  673TIP3    H223579   3.456   2.959   0.729 -0.8416  0.7614  2.9764
  674TIP3   OH223580   4.049   3.137   7.655 -0.5372 -0.4155 -1.0485
  674TIP3    H123581   4.126   3.193   7.646 -0.5339 -0.5745 -2.2093
  674TIP3    H223582   4.046   3.113   7.747  0.3425  0.2478 -0.8423
  675TIP3   OH223583   3.217   3.802   0.694 -0.2406  0.3009 -0.6262
  675TIP3    H123584   3.299   3.835   0.658  0.0843  0.3085  0.1013
  675TIP3    H223585   3.241   3.765   0.779 -0.1737 -3.5893 -2.1256
  676TIP3   OH223586   2.022   1.459   7.157  0.1929  0.1704 -0.0807
  676TIP3    H123587   2.075   1.431   7.083  2.9568  1.0360  1.4409
  676TIP3    H223588   2.048   1.550   7.173 -1.6357  0.5843  0.8747
  677TIP3   OH223589   5.172   4.511   6.555 -0.2060 -0.6187 -0.3434
  677TIP3    H123590   5.256   4.480   6.521 -0.6551 -1.8679 -0.3588
  677TIP3    H223591   5.143   4.577   6.492  1.0893  0.3801  0.0487
  678TIP3   OH223592   4.430   1.160   0.407 -0.2820 -0.4282  0.6243
  678TIP3    H123593   4.500   1.157   0.472 -0.0591 -2.5420  0.3575
  678TIP3    H223594   4.354   1.124   0.453 -0.2490 -1.4771 -0.1160
  679TIP3   OH223595   6.306   3.302   1.005 -0.1020 -0.8315 -0.1565
  679TIP3    H123596   6.222   3.320   0.962 -1.8484 -1.3316  2.7909
  679TIP3    H223597   6.293   3.328   1.096  3.9162  1.7105 -0.0548
  680TIP3   OH223598   6.574   4.535   1.168  0.2278  0.0875  0.5604
  680TIP3    H123599   6.663   4.508   1.191  0.3203 -0.4759 -0.3876
  680TIP3    H223600   6.552   4.603   1.231  0.7948 -0.7606  1.7165
  681TIP3   OH223601   0.133   4.650   0.611 -0.4823  0.4968 -0.0749
  681TIP3    H123602   0.111   4.700   0.690  0.3564  2.7492 -1.1822
  681TIP3    H223603   0.065   4.672   0.548 -0.3031 -0.0735 -0.4816
  682TIP3   OH223604   0.678   4.294   8.528 -0.2070 -0.0009  0.6120
  682TIP3    H123605   0.605   4.332   8.576 -0.2545 -0.7317  1.1457
  682TIP3    H223606   0.744   4.363   8.524 -0.5076  0.3144  1.0739
  683TIP3   OH223607   0.576   4.300   6.729 -0.4605 -0.7688  0.1629
  683TIP3    H123608   0.655   4.321   6.678  0.3137  0.1516  1.6797
  683TIP3    H223609   0.526   4.381   6.731 -1.4172 -1.3093 -0.6674
  684TIP3   OH223610   1.187   6.810   1.385  0.0966 -0.3753  0.1216
  684TIP3    H123611   1.104   6.843   1.421  1.1515 -0.0578  2.3886
  684TIP3    H223612   1.229   6.888   1.347 -0.4638 -0.4773 -0.7442
  685TIP3   OH223613   3.729   1.845   1.269 -0.2889 -0.4044  0.1210
  685TIP3    H123614   3.791   1.862   1.198  1.4366 -0.7099  1.4819
  685TIP3    H223615   3.736   1.750   1.284 -1.4964 -0.5323 -0.0482
  686TIP3   OH223616   6.348   3.307   0.321  0.3553 -0.4962 -0.3965
  686TIP3    H123617   6.253   3.294   0.320  0.3143 -0.2010 -0.1863
  686TIP3    H223618   6.362   3.388   0.271  0.5103 -0.6135 -0.5485
  687TIP3   OH223619   5.109   5.930   6.873 -0.3599 -0.5072 -0.0430
  687TIP3    H123620   5.163   5.907   6.797 -0.5846 -0.9453 -0.0746
  687TIP3    H223621   5.038   5.983   6.837 -1.0172 -1.5317 -0.2992
  688TIP3   OH223622   5.051   0.902   7.274 -0.9956  0.1631 -0.2294
  688TIP3    H123623   5.028   0.958   7.200  0.9512 -0.6661 -1.5256
  688TIP3    H223624   5.070   0.964   7.345  1.3269  1.2605 -1.6909
  689TIP3   OH223625   4.379   3.886   7.708  0.8499 -0.1292 -0.6315
  689TIP3    H123626   4.404   3.798   7.678 -0.3239 -1.3596  1.6987
  689TIP3    H223627   4.283   3.885   7.706  0.8103  0.8556  0.0850
  690TIP3   OH223628   2.262   4.804   7.877  1.0925 -0.1534 -0.0992
  690TIP3    H123629   2.289   4.884   7.832  0.4035 -0.6218 -1.4247
  690TIP3    H223630   2.295   4.733   7.822  0.0623 -0.7532  0.0177
  691TIP3   OH223631   4.973   3.120   0.241 -0.0467 -0.6276 -0.3644
  691TIP3    H123632   4.897   3.090   0.191  0.4726 -0.9843 -0.9639
  691TIP3    H223633   4.993   3.206   0.204 -2.2282  1.0887  2.1178
  692TIP3   OH223634   6.349   2.399   1.172  0.2108  0.0785  0.4048
  692TIP3    H123635   6.307   2.322   1.210  0.3420 -0.8448 -1.2362
  692TIP3    H223636   6.373   2.372   1.083  2.4214  1.2253  0.5801
  693TIP3   OH223637   6.306   4.814   1.803 -0.3272 -0.3040 -0.1847
  693TIP3    H123638   6.248   4.814   1.727 -1.3431 -2.2928  0.5259
  693TIP3    H223639   6.251   4.784   1.875  1.4131 -1.5784  0.6742
  694TIP3   OH223640   1.340   4.754   5.988 -0.2419 -0.0774  0.0179
  694TIP3    H123641   1.356   4.837   6.033 -0.0293 -0.0605 -0.0853
  694TIP3    H223642   1.260   4.768   5.938  1.5201  1.1835 -2.6597
  695TIP3   OH223643   4.080   3.524   8.632 -0.1381  0.0865  0.1477
  695TIP3    H123644   4.001   3.578   8.635  0.6451  1.3030 -0.0003
  695TIP3    H223645   4.090   3.501   8.540 -0.5241 -0.3903  0.2240
  696TIP3   OH223646   4.532   5.156   1.641 -0.3363 -0.4434  0.0587
  696TIP3    H123647   4.588   5.226   1.675  0.7088 -1.8969  1.4561
  696TIP3    H223648   4.492   5.194   1.562  2.5611  0.7053 -0.9981
  697TIP3   OH223649   2.392   2.820   7.719 -0.1655  0.1275 -0.2495
  697TIP3    H123650   2.473   2.867   7.742 -0.9881  1.3553  0.2559
  697TIP3    H223651   2.359   2.787   7.803 -0.1656 -0.4298 -0.4635
  698TIP3   OH223652   0.645   6.798   1.409 -0.5115  0.6314  0.1553
  698TIP3    H123653   0.584   6.846   1.353  0.3520  1.4007 -0.1694
  698TIP3    H223654   0.594   6.725   1.445 -1.4629  0.9557 -0.5056
  699TIP3   OH223655   4.597   2.672   7.882 -0.5398 -0.0950 -0.1159
  699TIP3    H123656   4.524   2.673   7.944 -1.5553 -0.9017 -1.2455
  699TIP3    H223657   4.586   2.591   7.833 -0.3391  0.9516 -1.9924
  700TIP3   OH223658   5.002   4.629   1.386  0.2106 -0.0883  0.6167
  700TIP3    H123659   5.018   4.718   1.353 -0.1844 -0.3797 -0.3965
  700TIP3    H223660   4.957   4.642   1.470  1.7735  0.6825  1.3855
  701TIP3   OH223661   0.141   6.801   7.356 -0.3377  0.1821  0.4252
  701TIP3    H123662   0.128   6.709   7.379 -2.5246 -0.0044 -1.2030
  701TIP3    H223663   0.154   6.845   7.440  0.0969 -1.5012  1.2846
  702TIP3   OH223664   2.498   4.908   8.301 -0.2357 -0.0563 -0.4687
  702TIP3    H123665   2.481   4.827   8.253 -0.3088 -0.9143  0.9271
  702TIP3    H223666   2.569   4.885   8.361  0.4297  1.2174 -0.7300
  703TIP3   OH223667   5.777   3.506   1.483 -0.1297 -0.4863  0.5534
  703TIP3    H123668   5.750   3.494   1.574  0.7509 -0.9153  0.7661
  703TIP3    H223669   5.730   3.438   1.435 -2.2705  1.0721  0.3273
  704TIP3   OH223670   0.461   0.803   2.040  0.2009  0.0441 -0.2745
  704TIP3    H123671   0.461   0.718   2.085 -0.4647  1.5778  2.9644
  704TIP3    H223672   0.534   0.851   2.080 -0.7490  1.6958 -0.4323
  705TIP3   OH223673   1.678   3.688   7.843 -0.5769 -0.2353  0.1807
  705TIP3    H123674   1.757   3.639   7.819 -0.4024 -0.5710  1.3652
  705TIP3    H223675   1.608   3.647   7.793  0.3972  2.2857 -3.7148
  706TIP3   OH223676   1.968   4.942   7.332 -0.5768 -0.1735 -0.2850
  706TIP3    H123677   1.874   4.960   7.323 -0.1601  1.9258 -1.0345
  706TIP3    H223678   1.990   4.890   7.255 -1.3825 -2.1813  0.7497
  707TIP3   OH223679   2.127   4.083   8.361 -0.3746  0.2909  0.1753
  707TIP3    H123680   2.093   4.159   8.314 -1.1537  0.9744  1.7541
  707TIP3    H223681   2.155   4.022   8.293  3.0143  3.1085 -1.2858
  708TIP3   OH223682   3.612   2.587   7.316 -0.2699  0.0882 -0.6207
  708TIP3    H123683   3.564   2.539   7.249 -0.8801  1.2208 -1.0121
  708TIP3    H223684   3.687   2.530   7.337 -1.8239 -1.7983  0.1338
  709TIP3   OH223685   5.168   2.798   7.312 -0.1007 -0.0815 -0.9101
  709TIP3    H123686   5.246   2.850   7.329 -0.3329  0.4189 -1.3339
  709TIP3    H223687   5.095   2.854   7.339 -0.3839  0.0423 -1.8845
  710TIP3   OH223688   2.647   3.948   1.610  0.2090 -0.2452 -0.5015
  710TIP3    H123689   2.586   3.966   1.682  1.6635 -2.0219  1.3145
  710TIP3    H223690   2.592   3.909   1.542 -1.1874  1.3099 -0.3419
  711TIP3   OH223691   1.564   3.322   7.663 -0.5885  0.5970 -0.1104
  711TIP3    H123692   1.577   3.303   7.570 -0.4085 -2.7293  0.4717
  711TIP3    H223693   1.508   3.251   7.695 -0.5136  1.5449  2.3553
  712TIP3   OH223694   4.274   6.337   7.330 -0.6986 -0.2070  0.3301
  712TIP3    H123695   4.243   6.380   7.251 -0.3693  0.4118  0.5238
  712TIP3    H223696   4.363   6.308   7.308  0.2126  1.7751  1.0691
  713TIP3   OH223697   3.841   1.015   8.172  0.1709 -0.9180  0.0170
  713TIP3    H123698   3.773   1.076   8.200  0.0533  1.0762 -3.9117
  713TIP3    H223699   3.910   1.025   8.237 -0.5654  2.2177  0.4891
  714TIP3   OH223700   0.722   0.643   7.086  0.1062  0.6970 -0.6249
  714TIP3    H123701   0.762   0.583   7.023 -0.7627 -0.2441 -0.3161
  714TIP3    H223702   0.655   0.689   7.035 -0.8809 -0.3611 -0.3363
  715TIP3   OH223703   5.513   5.159   0.812 -0.0290 -0.2532  0.3554
  715TIP3    H123704   5.459   5.127   0.885 -1.8468  0.8326 -0.4292
  715TIP3    H223705   5.508   5.088   0.747 -3.7767  1.1786 -1.2454
  716TIP3   OH223706   2.074   0.530   0.897 -0.5982 -0.2857  0.0112
  716TIP3    H123707   2.007   0.576   0.946 -1.1986 -1.1660  0.0390
  716TIP3    H223708   2.066   0.564   0.808 -1.0993 -0.4126  0.0072
  717TIP3   OH223709   6.294   0.696   1.257 -0.3126  0.5548  0.0177
  717TIP3    H123710   6.203   0.707   1.231  0.1139  0.5549 -1.5818
  717TIP3    H223711   6.338   0.775   1.224  0.5078 -0.1037 -0.5118
  718TIP3   OH223712   1.176   5.257   1.353 -0.0439  0.2070  0.9100
  718TIP3    H123713   1.135   5.250   1.439  0.1845 -0.4564  0.9673
  718TIP3    H223714   1.200   5.349   1.345  0.2079  0.2151  1.6868
  719TIP3   OH223715   4.892   6.460   1.682 -0.3493  0.2757  0.1257
  719TIP3    H123716   4.889   6.537   1.738  0.8599 -0.4678  1.2704
  719TIP3    H223717   4.984   6.453   1.656 -0.3119 -1.1054  0.5440
  720TIP3   OH223718   0.316   4.195   7.747 -0.1262 -0.0888 -0.1260
  720TIP3    H123719   0.382   4.215   7.681 -0.3966  0.4571 -0.2410
  720TIP3    H223720   0.235   4.182   7.697 -0.4155  0.7025  0.1066
  721TIP3   OH223721   3.020   1.534   7.834  0.3679 -0.7435  0.0330
  721TIP3    H123722   2.939   1.535   7.782  0.5442 -0.0740 -0.2314
  721TIP3    H223723   3.059   1.619   7.819  0.8270 -0.8442  0.6453
  722TIP3   OH223724   5.441   3.199   8.614 -0.0049  0.2251 -0.1189
  722TIP3    H123725   5.461   3.285   8.577  0.4047 -0.6361 -2.0322
  722TIP3    H223726   5.413   3.218   8.704 -1.1289  2.4696 -0.8422
  723TIP3   OH223727   2.798   6.307   1.408 -0.3139  0.1926 -0.2181
  723TIP3    H123728   2.890   6.294   1.387 -0.0495  0.6761  0.6107
  723TIP3    H223729   2.788   6.402   1.413 -0.8176  0.1378 -0.1422
  724TIP3   OH223730   5.630   4.537   1.714 -0.6812 -0.4834  0.0932
  724TIP3    H123731   5.667   4.576   1.793 -1.0024 -0.8489  0.4229
  724TIP3    H223732   5.665   4.591   1.643 -0.9028  0.2549  0.5235
  725TIP3   OH223733   5.577   4.274   8.156 -0.3405 -0.0782  0.0712
  725TIP3    H123734   5.537   4.194   8.122  0.1374 -0.2045 -0.1960
  725TIP3    H223735   5.511   4.309   8.217 -0.8963 -0.2285 -0.4333
  726TIP3   OH223736   2.352   2.974   0.563 -0.3087  0.6200  0.1457
  726TIP3    H123737   2.297   2.954   0.488 -0.8875  1.0427  0.4446
  726TIP3    H223738   2.423   3.026   0.527  0.4998 -0.8226 -0.4178
  727TIP3   OH223739   4.521   6.527   7.144  0.2303 -0.3945  0.0071
  727TIP3    H123740   4.611   6.532   7.111 -0.0488 -0.2009 -0.7329
  727TIP3    H223741   4.520   6.447   7.197  0.6598 -0.7607 -0.5250
  728TIP3   OH223742   0.448   3.617   7.670  0.2030  0.2003  0.5758
  728TIP3    H123743   0.450   3.626   7.765  0.6608 -0.2525  0.6079
  728TIP3    H223744   0.468   3.705   7.638  1.8447 -0.0272  0.9000
  729TIP3   OH223745   4.668   2.575   7.187  0.3808 -0.5382 -0.4333
  729TIP3    H123746   4.673   2.480   7.177  0.3041 -0.4842 -1.0307
  729TIP3    H223747   4.758   2.603   7.201  1.1285 -0.2618 -4.5523
  730TIP3   OH223748   3.703   4.554   6.953 -0.2271 -0.2931 -0.7400
  730TIP3    H123749   3.610   4.558   6.977 -0.0736  1.7890 -0.3732
  730TIP3    H223750   3.704   4.558   6.858 -0.4907  1.1956 -0.7010
  731TIP3   OH223751   1.433   3.376   6.923 -0.2217  0.4817 -0.0919
  731TIP3    H123752   1.463   3.309   6.862  2.3615  1.3835  0.0869
  731TIP3    H223753   1.412   3.451   6.868 -2.7356 -0.2381 -0.2516
  732TIP3   OH223754   4.114   5.301   7.962 -0.1784 -0.6036 -0.5360
  732TIP3    H123755   4.084   5.215   7.991 -0.4653 -0.4035 -0.2281
  732TIP3    H223756   4.035   5.356   7.964 -0.8223 -1.1334 -3.9868
  733TIP3   OH223757   2.146   6.286   6.773 -0.3500  0.7261  0.2456
  733TIP3    H123758   2.066   6.304   6.723 -0.7458  0.8575  0.9159
  733TIP3    H223759   2.209   6.351   6.740 -0.3213  0.2324 -0.7159
  734TIP3   OH223760   5.976   3.850   1.533  0.3723  0.3940 -0.1002
  734TIP3    H123761   5.994   3.843   1.627  2.6034 -1.3125 -0.5787
  734TIP3    H223762   5.921   3.775   1.514 -0.2585  0.8601 -0.1535
  735TIP3   OH223763   0.527   4.401   1.201 -0.0584  0.1880 -0.4916
  735TIP3    H123764   0.588   4.459   1.247 -0.1617  0.8911 -1.2271
  735TIP3    H223765   0.457   4.384   1.265 -0.6643  1.8753 -0.6571
  736TIP3   OH223766   3.623   1.747   7.442 -0.1286  0.1227 -0.0169
  736TIP3    H123767   3.598   1.724   7.531 -0.9262  1.2407  0.0755
  736TIP3    H223768   3.541   1.775   7.400  0.4963  1.2015 -0.5763
  737TIP3   OH223769   3.202   0.019   1.725 -0.2153  0.1448  0.0529
  737TIP3    H123770   3.224   0.112   1.725  1.5964 -0.0719 -4.1448
  737TIP3    H223771   3.110   0.016   1.699 -1.0148  0.6910  2.5377
  738TIP3   OH223772   1.196   3.506   2.162 -0.4789 -0.3358  0.2255
  738TIP3    H123773   1.275   3.551   2.193 -0.2305 -0.2341 -0.5320
  738TIP3    H223774   1.190   3.428   2.217  1.6738 -1.7701 -1.4088
  739TIP3   OH223775   6.284   6.765   6.516 -0.2883  0.2782  0.4726
  739TIP3    H123776   6.345   6.691   6.515  0.1521  0.6379  0.7316
  739TIP3    H223777   6.281   6.796   6.426 -1.8895 -1.2033 -0.0480
  740TIP3   OH223778   4.034   0.285   7.260  0.1013  0.8770  0.4218
  740TIP3    H123779   3.972   0.292   7.187 -1.9039 -1.1243  1.7952
  740TIP3    H223780   4.095   0.217   7.234 -1.0225 -0.3270  0.7987
  741TIP3   OH223781   2.693   0.345   7.710 -0.0557 -0.4729  0.2219
  741TIP3    H123782   2.631   0.315   7.643  0.7838  0.9863 -1.2777
  741TIP3    H223783   2.777   0.309   7.683  0.4449  0.8277 -0.0080
  742TIP3   OH223784   2.698   4.239   0.887 -0.3170  0.4838  0.6116
  742TIP3    H123785   2.628   4.267   0.946  0.9140 -0.1189  2.4425
  742TIP3    H223786   2.655   4.181   0.825 -1.1917 -1.5774  2.9708
  743TIP3   OH223787   2.954   3.569   0.353 -0.0915 -0.1180  0.2038
  743TIP3    H123788   2.987   3.479   0.358 -1.2320 -0.7767 -2.2015
  743TIP3    H223789   3.032   3.622   0.336  0.9883 -0.1646  4.1805
  744TIP3   OH223790   4.348   3.613   0.027  0.1518 -0.1864  0.1732
  744TIP3    H123791   4.276   3.557  -0.000 -0.0216  0.0175  0.2082
  744TIP3    H223792   4.308   3.676   0.087  0.3830 -0.1538  0.2936
  745TIP3   OH223793   0.859   6.410   0.022 -0.2737 -0.1924 -0.1870
  745TIP3    H123794   0.916   6.390  -0.052  0.5610 -1.7553  0.8230
  745TIP3    H223795   0.909   6.472   0.075 -0.5553  0.3370 -0.5317
  746TIP3   OH223796   0.786   3.095   1.916  0.7788  0.2062 -0.0021
  746TIP3    H123797   0.722   3.077   1.846 -1.4034 -0.1198  1.9432
  746TIP3    H223798   0.844   3.019   1.915 -0.4974 -0.8039 -0.1348
  747TIP3   OH223799   0.481   1.097   2.820 -0.0298 -0.2129  0.0504
  747TIP3    H123800   0.505   1.188   2.803 -0.4911 -0.4554 -2.2581
  747TIP3    H223801   0.396   1.086   2.776 -0.3322 -1.5746  0.9015
  748TIP3   OH223802   1.181   5.925   7.658 -0.2126 -0.3345 -0.5394
  748TIP3    H123803   1.141   5.900   7.741 -1.2368  1.3893 -0.4833
  748TIP3    H223804   1.233   6.003   7.679  1.4302 -1.2315 -1.0729
  749TIP3   OH223805   1.512   4.931   6.145 -0.1869  0.3568 -0.0017
  749TIP3    H123806   1.597   4.970   6.167 -1.1831  2.1247  0.9036
  749TIP3    H223807   1.462   4.934   6.226 -1.5894  0.6498 -0.8443
  750TIP3   OH223808   0.365   0.892   8.062 -0.1100 -0.0678  0.5037
  750TIP3    H123809   0.307   0.967   8.049 -0.7963 -0.8269 -1.0830
  750TIP3    H223810   0.438   0.927   8.113 -0.8317  1.4575  0.5597
  751TIP3   OH223811   0.152   2.230   7.319 -0.6697  0.1513  0.2542
  751TIP3    H123812   0.116   2.248   7.406 -1.6605 -0.8619  0.0889
  751TIP3    H223813   0.145   2.313   7.272 -2.7380  0.0402  0.2756
  752TIP3   OH223814   1.179   4.010   7.626 -0.4317 -0.2653  0.6009
  752TIP3    H123815   1.256   4.062   7.646 -1.1589  0.0688  2.8134
  752TIP3    H223816   1.173   4.012   7.531  1.1630  1.3212  0.4754
  753TIP3   OH223817   1.289   0.538   8.586  0.0115  0.9047  0.9762
  753TIP3    H123818   1.373   0.582   8.575  0.6340 -0.7044 -1.8299
  753TIP3    H223819   1.225   0.599   8.549  0.9098 -0.3996 -3.2682
  754TIP3   OH223820   2.316   1.984   0.771 -0.0639 -0.2393  0.0464
  754TIP3    H123821   2.369   2.035   0.710 -0.6509  0.3283 -0.0017
  754TIP3    H223822   2.380   1.946   0.832  0.2680  2.5674  1.6165
  755TIP3   OH223823   3.367   0.477   8.630  0.3925 -0.3736  0.3363
  755TIP3    H123824   3.437   0.484   8.565 -1.7582  2.5822 -1.9663
  755TIP3    H223825   3.322   0.396   8.608 -0.1183  0.4115 -1.8424
  756TIP3   OH223826   0.906   3.191   1.643 -0.1280  0.1896  0.0176
  756TIP3    H123827   0.955   3.260   1.597 -0.7944 -0.1926 -1.3281
  756TIP3    H223828   0.814   3.211   1.625 -0.3533 -0.6463  0.1949
  757TIP3   OH223829   6.682   2.501   8.295 -0.0760 -0.7605 -0.0188
  757TIP3    H123830   6.595   2.511   8.332 -0.7611 -2.2446 -1.0835
  757TIP3    H223831   6.713   2.418   8.330  1.6434  0.5278  1.6568
  758TIP3   OH223832   3.616   6.096   7.545  0.1238  0.3012 -0.9575
  758TIP3    H123833   3.640   6.151   7.470 -0.8942  3.1729  0.6551
  758TIP3    H223834   3.698   6.086   7.594  0.3295  0.2958 -1.2952
  759TIP3   OH223835   0.611   4.547   7.031  0.1351 -0.2113 -0.8844
  759TIP3    H123836   0.610   4.567   7.124  2.7188  0.2665 -0.8776
  759TIP3    H223837   0.669   4.613   6.993 -1.1437 -0.1662 -2.9182
  760TIP3   OH223838   4.659   0.151   0.760  0.3591  0.7491  0.3019
  760TIP3    H123839   4.575   0.189   0.734  1.0818  2.2227  0.0009
  760TIP3    H223840   4.650   0.057   0.743 -0.9555  0.9934 -0.4433
  761TIP3   OH223841   6.708   4.184   8.467 -0.2135  0.5874  0.1136
  761TIP3    H123842   6.779   4.132   8.429 -0.7478  0.6940 -1.0932
  761TIP3    H223843   6.664   4.124   8.528 -1.3147 -0.7148 -1.8402
  762TIP3   OH223844   1.663   5.538   0.171 -0.1725  0.2050  0.1562
  762TIP3    H123845   1.683   5.618   0.121 -2.0367  0.1515 -0.7677
  762TIP3    H223846   1.594   5.496   0.121 -2.4419  0.3328  2.9607
  763TIP3   OH223847   6.129   5.585   8.224 -0.1449  0.2125 -0.5421
  763TIP3    H123848   6.062   5.537   8.273  0.0317  1.4072  0.9291
  763TIP3    H223849   6.206   5.528   8.227  0.1729  0.6864  1.5039
  764TIP3   OH223850   0.520   5.538   6.618  0.1758 -0.5820 -0.2705
  764TIP3    H123851   0.470   5.605   6.570 -0.9577 -1.5509 -0.5004
  764TIP3    H223852   0.600   5.527   6.567 -0.4351 -0.6703 -1.2470
  765TIP3   OH223853   6.533   0.109   1.451  0.3742 -0.5010  0.1978
  765TIP3    H123854   6.446   0.149   1.460  0.6431  0.7477 -1.9636
  765TIP3    H223855   6.517   0.015   1.452 -0.9725 -0.2921  0.1540
  766TIP3   OH223856   5.899   3.957   0.775 -0.4163  0.0866 -0.1377
  766TIP3    H123857   5.955   3.951   0.852 -0.0473  3.5564 -0.0111
  766TIP3    H223858   5.922   3.879   0.723  3.9499  0.8135  0.3070
  767TIP3   OH223859   2.976   6.716   7.496  0.3080 -0.0464 -0.5324
  767TIP3    H123860   2.953   6.695   7.405  1.2201 -1.8419 -0.3922
  767TIP3    H223861   3.041   6.785   7.489  1.0090 -0.7626 -1.3093
  768TIP3   OH223862   0.141   5.394   2.315 -0.4844  0.0163  1.2044
  768TIP3    H123863   0.050   5.422   2.313 -1.2681 -2.3739 -0.0989
  768TIP3    H223864   0.188   5.460   2.264 -1.7938  0.2655  0.2875
  769TIP3   OH223865   4.933   6.075   2.139 -0.0480  0.4586 -0.0720
  769TIP3    H123866   4.954   6.010   2.072  1.5430  0.8809 -0.0294
  769TIP3    H223867   4.936   6.027   2.222  1.9522  0.6894  0.0426
  770TIP3   OH223868   2.905   4.586   7.104 -0.1011  0.0095  0.8339
  770TIP3    H123869   2.848   4.630   7.041 -3.0519 -2.9855  1.1464
  770TIP3    H223870   2.980   4.558   7.052 -1.0810  0.1211 -0.7086
  771TIP3   OH223871   6.073   2.592   1.318  0.0714  0.1176  0.0545
  771TIP3    H123872   6.056   2.668   1.374 -2.0661  1.5585 -2.3497
  771TIP3    H223873   6.030   2.519   1.364 -1.5236  1.2305  0.4423
  772TIP3   OH223874   6.072   1.230   8.246  0.1601  0.3138  0.2425
  772TIP3    H123875   6.119   1.312   8.239  0.4681  0.7036  4.2450
  772TIP3    H223876   6.003   1.247   8.311  0.0421 -2.4520  0.9991
  773TIP3   OH223877   0.763   6.160   8.614 -0.3233  0.0075  0.4221
  773TIP3    H123878   0.729   6.103   8.683 -1.0244  0.2655  0.2965
  773TIP3    H223879   0.778   6.244   8.658  2.0858 -0.6083  0.9644
  774TIP3   OH223880   3.279   6.246   7.261 -0.2371 -0.6802  0.4356
  774TIP3    H123881   3.368   6.282   7.257 -0.0686 -1.0719  0.6154
  774TIP3    H223882   3.252   6.262   7.352 -0.0731 -1.2073  0.5824
  775TIP3   OH223883   4.546   4.450   1.602 -0.0101 -0.2753 -0.2224
  775TIP3    H123884   4.543   4.482   1.693  0.5237  0.2093 -0.3695
  775TIP3    H223885   4.543   4.529   1.549  2.7289 -0.3256 -0.5748
  776TIP3   OH223886   6.289   5.414   0.728 -0.4714  0.4151 -0.4170
  776TIP3    H123887   6.295   5.432   0.634 -0.5657 -0.3832 -0.5816
  776TIP3    H223888   6.318   5.324   0.737 -1.1800  0.2448  0.2310
  777TIP3   OH223889   1.672   5.127   7.895  0.1837 -0.5034 -0.0830
  777TIP3    H123890   1.609   5.100   7.828 -1.3652 -0.2519  1.2046
  777TIP3    H223891   1.684   5.049   7.949 -1.3337  0.2091  1.3843
  778TIP3   OH223892   3.815   2.388   7.358  0.0246 -0.0472 -0.3661
  778TIP3    H123893   3.888   2.445   7.383  1.5622 -2.3880  0.8395
  778TIP3    H223894   3.841   2.353   7.273 -0.9293  0.9614 -1.1137
  779TIP3   OH223895   6.841   4.440   8.469  0.4802  0.4063  0.1763
  779TIP3    H123896   6.877   4.420   8.383 -0.3167  1.0500 -0.3179
  779TIP3    H223897   6.796   4.360   8.495 -0.6098  0.7149 -0.7081
  780TIP3   OH223898   2.430   0.147   6.320 -0.0776 -0.0325 -0.8742
  780TIP3    H123899   2.345   0.158   6.276 -0.3426 -0.6189 -0.5253
  780TIP3    H223900   2.415   0.178   6.409 -0.2514 -1.1712 -0.4858
  781TIP3   OH223901   2.383   5.731   6.987  0.0998  0.4273  0.0189
  781TIP3    H123902   2.388   5.708   7.079  0.0050  1.0543  0.1870
  781TIP3    H223903   2.291   5.717   6.963  0.2446 -0.3050 -0.1425
  782TIP3   OH223904   3.189   6.303   7.504  0.3675 -0.1211 -0.3542
  782TIP3    H123905   3.095   6.320   7.504  0.4500  0.3471 -0.4775
  782TIP3    H223906   3.225   6.370   7.562  1.0327  2.0402 -3.0873
  783TIP3   OH223907   3.620   0.196   0.387 -0.6601  0.3106 -0.2805
  783TIP3    H123908   3.539   0.184   0.436 -0.1458 -0.5038  0.3734
  783TIP3    H223909   3.661   0.273   0.426 -1.3717  1.0656 -0.9795
  784TIP3   OH223910   2.170   3.083   1.257 -0.9946 -0.5272 -0.7623
  784TIP3    H123911   2.086   3.070   1.301 -0.6874 -2.2811 -0.6255
  784TIP3    H223912   2.232   3.100   1.328 -0.7673 -1.8992 -0.6097
  785TIP3   OH223913   5.935   4.607   1.503  0.5740 -0.2845 -0.2890
  785TIP3    H123914   6.003   4.667   1.534  1.2834 -1.6803  1.0122
  785TIP3    H223915   5.962   4.521   1.536 -0.7341 -1.2368 -1.5379
  786TIP3   OH223916   0.341   4.032   0.757  0.7759 -0.0842 -0.2617
  786TIP3    H123917   0.349   4.092   0.832  0.8227 -1.2522  0.7097
  786TIP3    H223918   0.424   3.985   0.755  1.5324  1.2556 -2.2692
  787TIP3   OH223919   1.303   3.697   0.766 -0.1343 -0.7804 -0.1050
  787TIP3    H123920   1.350   3.675   0.686 -0.9446 -0.4623 -0.6779
  787TIP3    H223921   1.345   3.776   0.799 -0.7809 -0.0175 -1.0645
  788TIP3   OH223922   6.773   4.026   7.382 -0.3156 -0.0315 -0.5532
  788TIP3    H123923   6.843   4.049   7.321 -0.6610 -0.7262 -1.2447
  788TIP3    H223924   6.783   3.931   7.394 -0.2152  0.1111  0.5296
  789TIP3   OH223925   0.983   0.959   7.615  0.3721  0.5513 -0.0041
  789TIP3    H123926   1.028   1.043   7.629  1.5966 -0.0653 -0.1147
  789TIP3    H223927   0.983   0.947   7.520  0.8951  0.0697  0.0508
  790TIP3   OH223928   1.471   0.925   0.880 -0.3990  0.3305 -0.3314
  790TIP3    H123929   1.526   0.916   0.958 -0.1567 -0.1800 -0.5587
  790TIP3    H223930   1.383   0.942   0.915 -0.6313 -1.5475  0.1274
  791TIP3   OH223931   5.843   5.954   8.066 -0.4700  0.1874 -0.2293
  791TIP3    H123932   5.885   5.876   8.104  1.6384  0.7835 -1.1784
  791TIP3    H223933   5.831   6.013   8.140  0.4087 -0.0114  0.0847
  792TIP3   OH223934   0.109   4.177   6.874  0.0254  0.2388 -0.1451
  792TIP3    H123935   0.065   4.170   6.789 -1.5352  1.8825  0.4489
  792TIP3    H223936   0.167   4.253   6.865 -0.5265  0.7330  0.3897
  793TIP3   OH223937   4.681   6.412   1.504 -0.4931 -0.0533  0.3047
  793TIP3    H123938   4.728   6.389   1.424 -1.7800  0.5272 -0.6572
  793TIP3    H223939   4.749   6.440   1.564  0.7184 -2.3535  0.1296
  794TIP3   OH223940   2.854   0.825   7.288 -0.2929 -0.6874  0.2324
  794TIP3    H123941   2.916   0.817   7.215 -0.6258 -2.8777  0.1187
  794TIP3    H223942   2.775   0.861   7.249  0.3105  0.4696  0.0313
  795TIP3   OH223943   5.956   5.519   8.568  0.6396 -0.4115  0.1647
  795TIP3    H123944   6.010   5.465   8.626  0.3794 -3.5394 -2.2447
  795TIP3    H223945   5.936   5.462   8.494 -1.1559  2.5313 -1.8175
  796TIP3   OH223946   6.248   6.625   8.487  0.2462 -0.0930 -0.0583
  796TIP3    H123947   6.191   6.655   8.417 -1.8332 -0.7814  1.2339
  796TIP3    H223948   6.188   6.595   8.555  2.1684 -1.9250  0.9508
  797TIP3   OH223949   5.517   3.089   0.724 -0.3375  0.2781  0.5498
  797TIP3    H123950   5.599   3.077   0.772 -0.5877 -0.9984  0.6891
  797TIP3    H223951   5.451   3.049   0.780 -0.5954 -1.5801 -0.9909
  798TIP3   OH223952   0.776   5.499   6.535  0.2302  0.5183  0.4108
  798TIP3    H123953   0.842   5.511   6.467 -0.3117 -0.2908 -0.2789
  798TIP3    H223954   0.817   5.532   6.615  1.5917 -0.2879  0.0645
  799TIP3   OH223955   1.149   3.135   0.145  0.0799 -0.3660 -0.3120
  799TIP3    H123956   1.069   3.150   0.094  0.4797 -0.0116 -0.8470
  799TIP3    H223957   1.219   3.172   0.091  0.7372 -1.5628 -0.2961
  800TIP3   OH223958   0.946   0.092   0.343  0.3207  0.1324 -0.5762
  800TIP3    H123959   0.869   0.121   0.293 -0.9672  0.1579  1.2942
  800TIP3    H223960   0.988   0.173   0.372 -0.6155  0.1740  0.7623
  801TIP3   OH223961   6.489   0.110   2.441 -0.0960 -0.5731 -0.4454
  801TIP3    H123962   6.441   0.037   2.481 -0.9675  0.3515  0.2569
  801TIP3    H223963   6.581   0.089   2.456 -0.3443 -1.3934 -0.0114
  802TIP3   OH223964   0.333   2.047   0.594  0.9007  0.0489 -0.4474
  802TIP3    H123965   0.404   2.067   0.655  1.4773 -1.2495 -0.6409
  802TIP3    H223966   0.299   2.132   0.567  1.5656  0.6682  0.6057
  803TIP3   OH223967   2.479   4.788   1.134 -0.0628  0.4940 -0.4811
  803TIP3    H123968   2.398   4.741   1.115  1.1146 -1.4831 -0.8898
  803TIP3    H223969   2.541   4.758   1.068  1.7766 -0.2137  1.4506
  804TIP3   OH223970   0.114   4.736   0.250 -0.6383 -0.7075  0.3928
  804TIP3    H123971   0.106   4.714   0.157  1.7676  1.3209 -0.4041
  804TIP3    H223972   0.201   4.706   0.275  0.6039  2.7324  0.6594
  805TIP3   OH223973   6.693   4.399   6.879  0.0434 -0.3073 -0.4544
  805TIP3    H123974   6.622   4.463   6.877  0.7085  0.5960  1.7774
  805TIP3    H223975   6.754   4.427   6.810  0.1865  1.3244  0.3070
  806TIP3   OH223976   3.939   6.435   7.256 -0.6851  0.5819 -0.2206
  806TIP3    H123977   3.878   6.370   7.292 -0.5613 -0.5581 -1.9239
  806TIP3    H223978   4.004   6.447   7.325 -0.0673 -2.0202 -0.2166
  807TIP3   OH223979   2.155   3.268   0.169 -0.1800  0.2395  0.7200
  807TIP3    H123980   2.113   3.260   0.083  2.3922 -0.2057 -0.5864
  807TIP3    H223981   2.196   3.354   0.168  2.1651 -0.8302  0.3409
  808TIP3   OH223982   1.909   1.659   0.815 -0.2067  0.6815 -0.3929
  808TIP3    H123983   1.869   1.653   0.902 -0.8452  1.1652 -0.6528
  808TIP3    H223984   1.993   1.702   0.831 -0.2444  0.6142  0.0096
  809TIP3   OH223985   0.408   4.146   2.129 -0.3995 -0.0460 -0.2387
  809TIP3    H123986   0.423   4.053   2.115  1.3354  0.5277 -2.9245
  809TIP3    H223987   0.482   4.175   2.182 -0.0933  0.0674 -0.7228
  810TIP3   OH223988   3.391   3.274   1.196  0.2103  0.5477 -0.2770
  810TIP3    H123989   3.348   3.358   1.176  1.1604  0.9276 -0.7775
  810TIP3    H223990   3.388   3.268   1.291 -1.2702  0.3889 -0.3088
  811TIP3   OH223991   5.234   1.523   6.768  0.0381 -0.2546  0.2221
  811TIP3    H123992   5.228   1.544   6.674 -1.9909 -1.6771 -0.0203
  811TIP3    H223993   5.274   1.436   6.770 -2.6443 -1.5701  0.4214
  812TIP3   OH223994   5.462   0.789   7.403 -0.2060 -0.1214 -0.0389
  812TIP3    H123995   5.482   0.708   7.449  0.2325  0.5868  1.0482
  812TIP3    H223996   5.373   0.776   7.370  1.0165 -2.4166 -2.9400
  813TIP3   OH223997   4.685   6.523   5.845 -0.2592  0.1744 -0.0544
  813TIP3    H123998   4.631   6.475   5.783  0.2464  1.0009 -1.1808
  813TIP3    H223999   4.632   6.530   5.924 -0.7284 -1.3332 -0.2192
  814TIP3   OH224000   2.449   2.834   1.264 -0.5778 -0.2985 -0.1928
  814TIP3    H124001   2.405   2.891   1.201  0.4951  1.1016  0.2697
  814TIP3    H224002   2.403   2.849   1.347  0.0384  0.3318  0.0476
  815TIP3   OH224003   5.837   6.369   7.481  0.5960 -0.3186 -0.0229
  815TIP3    H124004   5.768   6.344   7.541  0.8014  0.0120  0.3515
  815TIP3    H224005   5.840   6.298   7.417  1.1130 -1.2318  0.9776
  816TIP3   OH224006   5.335   6.112   6.707 -0.0733  0.1139  0.2870
  816TIP3    H124007   5.406   6.159   6.663 -0.1810  0.0693  0.0615
  816TIP3    H224008   5.332   6.027   6.663  0.0468 -0.0613  0.6170
  817TIP3   OH224009   4.351   3.106   7.585 -0.1634  0.1564 -0.4934
  817TIP3    H124010   4.341   3.079   7.676  0.1353  0.1466 -0.4635
  817TIP3    H224011   4.418   3.174   7.588  0.3012 -0.2872 -0.7907
  818TIP3   OH224012   3.372   1.190   7.297  0.0910  0.1516  0.6260
  818TIP3    H124013   3.417   1.122   7.247  0.5855  1.2691 -0.5109
  818TIP3    H224014   3.353   1.149   7.382 -0.0636 -1.5406 -0.1859
  819TIP3   OH224015   2.252   6.055   6.644  0.0617  0.5368 -0.1160
  819TIP3    H124016   2.330   6.077   6.593 -0.2913  1.3582 -0.3158
  819TIP3    H224017   2.232   6.134   6.694  0.3515 -0.2305  1.2662
  820TIP3   OH224018   1.904   0.928   0.884  0.3555 -0.6526 -0.0719
  820TIP3    H124019   1.924   0.835   0.879 -0.5236 -0.8158 -0.7870
  820TIP3    H224020   1.927   0.962   0.798 -1.1243 -0.5864 -0.4535
  821TIP3   OH224021   6.452   1.075   8.170  0.9917  0.3740  0.2920
  821TIP3    H124022   6.503   1.155   8.179 -1.4035  2.0584 -0.1990
  821TIP3    H224023   6.409   1.084   8.084  0.5968 -1.4040  0.2683
  822TIP3   OH224024   3.432   5.791   0.897  0.1355  0.4033  0.1839
  822TIP3    H124025   3.371   5.736   0.946  0.9174  0.1588  0.9029
  822TIP3    H224026   3.443   5.745   0.814  0.0470 -0.0328  0.4078
  823TIP3   OH224027   4.922   4.697   8.268 -0.0552 -0.5103  0.0256
  823TIP3    H124028   4.859   4.628   8.246 -1.1326 -0.2241  1.9622
  823TIP3    H224029   4.869   4.766   8.309  1.4511 -0.1561  1.5132
  824TIP3   OH224030   1.708   1.041   6.276 -0.2626  0.3479 -0.4099
  824TIP3    H124031   1.699   1.021   6.183 -0.0206 -0.6076 -0.2442
  824TIP3    H224032   1.619   1.060   6.305 -0.4152  0.1358 -0.7336
  825TIP3   OH224033   1.286   0.373   7.194  0.5861 -0.2624 -0.2061
  825TIP3    H124034   1.313   0.287   7.227 -0.1818  0.2651  1.9770
  825TIP3    H224035   1.320   0.435   7.259 -0.6159  0.9054 -0.6451
  826TIP3   OH224036   1.851   2.435   8.582 -0.4527  0.0835  0.7278
  826TIP3    H124037   1.839   2.529   8.583 -2.7363 -0.1515  1.3394
  826TIP3    H224038   1.877   2.413   8.672  0.3629  0.1379  0.5137
  827TIP3   OH224039   6.213   0.063   0.822 -0.2456  0.0173 -0.3577
  827TIP3    H124040   6.144  -0.004   0.828  0.3641 -0.6079 -0.1550
  827TIP3    H224041   6.294   0.013   0.808  0.5904  0.5335  2.1836
  828TIP3   OH224042   2.277   4.578   0.398  0.6040 -0.1496  0.0348
  828TIP3    H124043   2.195   4.570   0.348  0.6927 -3.0496  0.1731
  828TIP3    H224044   2.274   4.505   0.460  2.5770  0.6543  1.1545
  829TIP3   OH224045   5.421   4.132   6.527  0.1905 -0.6209  0.9640
  829TIP3    H124046   5.382   4.106   6.611  0.6238 -0.3790  1.2442
  829TIP3    H224047   5.348   4.168   6.477 -0.1901 -1.3241  1.0064
  830TIP3   OH224048   6.665   4.168   1.728  0.1384  0.4978  0.3345
  830TIP3    H124049   6.654   4.246   1.673 -1.0691  0.6357  0.7396
  830TIP3    H224050   6.616   4.188   1.808  0.1700 -0.5071  0.6174
  831TIP3   OH224051   4.862   3.284   2.675 -0.2967  0.4557  0.1757
  831TIP3    H124052   4.919   3.329   2.611 -1.3176  0.8302 -0.4938
  831TIP3    H224053   4.826   3.355   2.728 -1.2259  0.3487 -0.3082
  832TIP3   OH224054   1.211   0.699   0.219  0.2521 -0.3816  0.1547
  832TIP3    H124055   1.302   0.667   0.228  0.8498  1.1142 -0.3422
  832TIP3    H224056   1.159   0.619   0.218  1.3621 -1.2514  2.3841
  833TIP3   OH224057   3.429   5.198   0.615  0.0275  0.7532 -0.2551
  833TIP3    H124058   3.442   5.279   0.566 -1.0652  0.3018 -1.3417
  833TIP3    H224059   3.481   5.133   0.569 -0.9529  0.3386 -0.8076
  834TIP3   OH224060   2.293   1.207   6.910 -0.5213  0.4492 -0.0829
  834TIP3    H124061   2.200   1.185   6.921 -0.6504  1.0641  0.0811
  834TIP3    H224062   2.294   1.302   6.897  0.2161  0.6846  1.4846
  835TIP3   OH224063   0.570   6.644   1.084  0.9227 -0.6280 -0.4538
  835TIP3    H124064   0.648   6.624   1.136  1.0406  0.4035 -0.2165
  835TIP3    H224065   0.497   6.639   1.146  1.1295  1.2001 -0.0187
  836TIP3   OH224066   4.852   2.194   7.258 -0.4442  0.0400 -0.1999
  836TIP3    H124067   4.849   2.239   7.173  0.5010 -2.8485 -1.9171
  836TIP3    H224068   4.765   2.156   7.268 -0.3265 -0.2495 -0.2674
  837TIP3   OH224069   6.233   1.617   0.789 -0.4266  0.2109 -0.6216
  837TIP3    H124070   6.156   1.576   0.750 -0.4521  0.0158 -0.3675
  837TIP3    H224071   6.307   1.578   0.742 -0.3470 -1.4565  0.7976
  838TIP3   OH224072   1.221   4.163   1.021  0.0977  0.2232  0.3411
  838TIP3    H124073   1.167   4.103   0.969 -1.1099  0.4890  1.2605
  838TIP3    H224074   1.177   4.248   1.013  0.6225  0.5382  0.7618
  839TIP3   OH224075   3.948   1.871   0.524  0.8019  0.2722 -0.5964
  839TIP3    H124076   3.992   1.947   0.487 -0.3518  1.7081  0.8670
  839TIP3    H224077   4.011   1.799   0.512  2.0619  1.4937 -1.6784
  840TIP3   OH224078   3.806   0.167   1.527  0.1581  0.3927 -0.4113
  840TIP3    H124079   3.872   0.164   1.596 -0.7236 -0.0344  0.4564
  840TIP3    H224080   3.758   0.248   1.544  0.5063  0.7408 -1.0813
  841TIP3   OH224081   4.394   4.469   0.741  0.0077  0.9003 -0.1120
  841TIP3    H124082   4.428   4.405   0.677 -1.2130  0.8456 -0.7355
  841TIP3    H224083   4.302   4.480   0.717 -0.0415  2.1884  0.5816
  842TIP3   OH224084   6.131   1.469   7.821 -0.4861  0.0996  0.0156
  842TIP3    H124085   6.088   1.549   7.790 -0.0823  0.7595  1.1150
  842TIP3    H224086   6.184   1.497   7.895  1.3536 -0.8051 -0.9010
  843TIP3   OH224087   2.223   0.289   7.363  0.2547 -0.4525  0.3514
  843TIP3    H124088   2.206   0.230   7.289  1.2715 -0.5218  0.1539
  843TIP3    H224089   2.202   0.237   7.441 -1.1119 -0.2783  0.1223
  844TIP3   OH224090   2.638   4.709   0.920 -0.0896  0.0950  0.2266
  844TIP3    H124091   2.678   4.623   0.904  0.3344 -0.0704  2.0360
  844TIP3    H224092   2.590   4.728   0.839 -1.4935 -2.5647  0.3056
  845TIP3   OH224093   3.533   0.649   0.277  0.4370 -0.2340 -0.3082
  845TIP3    H124094   3.504   0.678   0.364  0.1574 -0.5286 -0.3006
  845TIP3    H224095   3.568   0.561   0.292 -0.1328 -0.5147 -0.5849
  846TIP3   OH224096   0.678   6.156   6.953 -0.3418 -0.6869  0.0655
  846TIP3    H124097   0.601   6.213   6.945  1.6731  2.2202 -0.5605
  846TIP3    H224098   0.753   6.216   6.943  2.0229 -3.4033  0.1150
  847TIP3   OH224099   4.962   3.234   0.512  0.3794 -0.1043 -0.2284
  847TIP3    H124100   4.880   3.189   0.532  1.4830 -2.5018 -0.8085
  847TIP3    H224101   4.987   3.202   0.425  1.4802  1.3040 -0.4719
  848TIP3   OH224102   4.016   2.177   1.275 -0.4363 -0.2961  0.2389
  848TIP3    H124103   4.066   2.134   1.344 -0.2486 -1.8331 -0.8094
  848TIP3    H224104   3.931   2.132   1.275 -0.8379  0.4453  0.1940
  849TIP3   OH224105   3.787   0.200   0.833 -0.0744 -0.2891 -0.6374
  849TIP3    H124106   3.693   0.209   0.816 -0.1411 -1.5041 -0.9977
  849TIP3    H224107   3.818   0.290   0.846 -1.3402  0.0999 -0.2068
  850TIP3   OH224108   5.159   1.597   6.495 -0.5223  0.2148 -0.2448
  850TIP3    H124109   5.186   1.683   6.464 -1.6636  0.3144 -1.0313
  850TIP3    H224110   5.104   1.562   6.424 -0.0850 -1.1631  0.0493
  851TIP3   OH224111   0.616   3.024   7.692  0.4012  0.0176  1.1893
  851TIP3    H124112   0.634   2.977   7.774  1.6131 -0.2766  0.7736
  851TIP3    H224113   0.696   3.012   7.640 -0.4095  0.0724 -0.0959
  852TIP3   OH224114   1.146   6.798   0.037 -0.2697 -0.4958 -0.6412
  852TIP3    H124115   1.093   6.825  -0.038  1.3081  0.3766 -1.5148
  852TIP3    H224116   1.216   6.746  -0.002 -0.9908 -2.4635  0.5858
  853TIP3   OH224117   3.726   4.946   0.222 -0.1205 -0.1373  0.1583
  853TIP3    H124118   3.652   4.964   0.280 -2.0711 -1.6570 -1.6915
  853TIP3    H224119   3.739   4.852   0.228  0.2718 -0.1912 -1.0904
  854TIP3   OH224120   5.740   2.218   8.607 -0.0845 -0.0534 -0.5516
  854TIP3    H124121   5.833   2.221   8.585  0.3387 -2.3078  0.6123
  854TIP3    H224122   5.721   2.125   8.620 -2.5040  0.3427 -0.6660
  855TIP3   OH224123   6.469   5.252   7.763 -0.0002 -0.7860  0.3768
  855TIP3    H124124   6.490   5.188   7.696 -2.0298 -0.6502 -0.4518
  855TIP3    H224125   6.374   5.260   7.761  0.0976  1.4404  1.2054
  856TIP3   OH224126   1.156   1.186   0.745 -0.1272 -0.7591 -0.7147
  856TIP3    H124127   1.114   1.272   0.743 -0.2394 -0.6655  2.0407
  856TIP3    H224128   1.238   1.199   0.697 -0.1238  0.9005 -0.3304
  857TIP3   OH224129   2.822   2.601   1.408 -0.4009  0.0643 -0.5023
  857TIP3    H124130   2.777   2.633   1.330  0.6231 -0.9248 -1.5300
  857TIP3    H224131   2.879   2.531   1.376  1.7298  1.1293  0.7763
  858TIP3   OH224132   5.680   3.494   1.769  0.0077 -0.2384 -0.0337
  858TIP3    H124133   5.764   3.508   1.812  0.8357 -0.7090 -1.4489
  858TIP3    H224134   5.663   3.400   1.781 -0.7431 -0.0042  0.9404
  859TIP3   OH224135   3.346   2.149   2.165 -0.3307 -0.3294  0.1120
  859TIP3    H124136   3.439   2.158   2.144 -0.0934 -1.6993  0.4497
  859TIP3    H224137   3.314   2.238   2.176  0.8820  0.1641 -0.2761
  860TIP3   OH224138   6.693   1.144   1.968  1.0326 -0.4311  0.4059
  860TIP3    H124139   6.732   1.080   2.028 -1.7528  0.6962  3.7037
  860TIP3    H224140   6.706   1.229   2.011 -0.9385  0.4690 -0.6526
  861TIP3   OH224141   3.688   5.572   1.661  0.5981  0.1248  0.0263
  861TIP3    H124142   3.617   5.515   1.689  0.5502 -0.1035 -0.5593
  861TIP3    H224143   3.659   5.609   1.578  1.5756 -0.7318 -0.7099
  862TIP3   OH224144   3.142   2.942   1.881 -0.3533 -0.2901  0.0625
  862TIP3    H124145   3.139   2.949   1.976  0.2121 -0.6164  0.1143
  862TIP3    H224146   3.180   2.855   1.865 -0.5083 -0.2652 -0.4574
  863TIP3   OH224147   3.674   5.661   2.051 -0.0052  0.0100 -1.1769
  863TIP3    H124148   3.580   5.675   2.051 -0.0571 -0.1156  0.5880
  863TIP3    H224149   3.711   5.742   2.085  0.3623 -0.6453  0.0439
  864TIP3   OH224150   3.378   4.639   1.968  0.1847  0.2847  0.0236
  864TIP3    H124151   3.417   4.633   2.055 -0.6380  2.2324  0.5763
  864TIP3    H224152   3.440   4.693   1.918  0.2388 -0.1138 -0.3374
  865TIP3   OH224153   2.360   2.224   0.955  0.9677 -0.1445 -0.3899
  865TIP3    H124154   2.419   2.150   0.965  0.3313 -0.5759  0.2313
  865TIP3    H224155   2.325   2.215   0.866 -0.1616 -1.4017  0.1449
  866TIP3   OH224156   2.859   5.071   8.473  0.2211  0.2515  0.1403
  866TIP3    H124157   2.769   5.037   8.475 -0.1312  1.1704  1.5926
  866TIP3    H224158   2.908   5.006   8.423 -0.9293 -1.1047  0.6999
  867TIP3   OH224159   2.510   5.809   0.074  0.1546 -0.6165 -0.2716
  867TIP3    H124160   2.483   5.767  -0.008 -3.1728 -0.5897  0.6558
  867TIP3    H224161   2.444   5.782   0.138  1.8679  0.4446  2.1142
  868TIP3   OH224162   1.582   5.009   2.274  0.0766 -0.5950  0.2039
  868TIP3    H124163   1.570   5.086   2.218  0.8800 -2.1187 -2.2526
  868TIP3    H224164   1.676   5.009   2.294  0.1772 -1.1860 -0.2422
  869TIP3   OH224165   4.209   3.532   0.478 -0.2736 -0.1452 -0.0391
  869TIP3    H124166   4.287   3.587   0.468 -0.1220 -0.1538  1.0407
  869TIP3    H224167   4.214   3.470   0.405 -0.0185  0.7401 -0.7976
  870TIP3   OH224168   3.432   4.656   0.222 -0.3653  0.4032  0.2213
  870TIP3    H124169   3.418   4.746   0.250 -1.6744  0.3195 -0.1334
  870TIP3    H224170   3.398   4.602   0.294  1.4923  0.1504  0.9755
  871TIP3   OH224171   6.836   1.618   1.921 -0.3502  0.4980 -0.1269
  871TIP3    H124172   6.813   1.677   1.993 -1.0443  1.7014 -1.3021
  871TIP3    H224173   6.757   1.613   1.867  0.0915 -0.5525 -0.7046
  872TIP3   OH224174   3.227   2.740   2.105 -1.0007 -0.0730  0.5163
  872TIP3    H124175   3.184   2.820   2.136 -1.1137 -0.3376  1.0493
  872TIP3    H224176   3.241   2.688   2.184  0.6663  0.1775  0.4048
  873TIP3   OH224177   1.184   1.748   0.743 -0.0371 -0.0676 -0.0874
  873TIP3    H124178   1.215   1.800   0.668  1.3046 -0.8927 -0.1244
  873TIP3    H224179   1.237   1.669   0.742  0.0702 -0.0704  1.7928
  874TIP3   OH224180   1.656   5.858   0.209 -0.3863 -0.0153  0.2084
  874TIP3    H124181   1.686   5.945   0.238 -0.7945  0.5026 -0.8457
  874TIP3    H224182   1.729   5.823   0.158 -0.4539 -0.0132  0.1082
  875TIP3   OH224183   6.065   3.210   0.024  0.1715 -0.2622 -0.0396
  875TIP3    H124184   6.025   3.276   0.081  0.5775 -0.7625  0.8379
  875TIP3    H224185   6.144   3.253  -0.010 -0.7588  0.5118 -1.3022
  876TIP3   OH224186   4.836   2.463   1.985 -0.3910  0.1161 -0.3066
  876TIP3    H124187   4.890   2.422   2.053 -0.8023  0.4777  0.2436
  876TIP3    H224188   4.758   2.409   1.980 -0.1383 -0.2062 -0.8595
  877TIP3   OH224189   3.794   2.773   6.873  0.3017 -0.4589  0.7463
  877TIP3    H124190   3.787   2.772   6.777 -1.2100  0.9221  0.8047
  877TIP3    H224191   3.862   2.709   6.892  1.3629 -0.0285 -1.3035
  878TIP3   OH224192   2.943   4.028   8.581  0.3876  0.4312 -0.2668
  878TIP3    H124193   2.972   3.949   8.536  1.3431 -0.4213  1.7353
  878TIP3    H224194   2.979   4.020   8.670 -1.2131  2.1346  0.5999
  879TIP3   OH224195   5.319   2.075   7.648  0.6136  0.3530 -0.0240
  879TIP3    H124196   5.335   2.057   7.741 -0.2283  0.6632  0.1939
  879TIP3    H224197   5.236   2.032   7.629 -0.1789  1.8579 -0.1302
  880TIP3   OH224198   1.688   2.477   0.651  0.2115  0.1324  0.1071
  880TIP3    H124199   1.771   2.524   0.644  1.0335 -1.0459  1.2780
  880TIP3    H224200   1.699   2.400   0.596  0.2072 -0.3982  0.8225
  881TIP3   OH224201   1.581   5.180   1.018 -0.1019 -0.2828 -0.2586
  881TIP3    H124202   1.533   5.213   1.094 -0.3967  1.0960 -1.0019
  881TIP3    H224203   1.576   5.251   0.954  2.2717 -0.3753 -0.6490
  882TIP3   OH224204   3.376   2.514   2.541 -0.0870 -0.6578  0.3786
  882TIP3    H124205   3.302   2.484   2.488 -2.3106 -0.2437  3.0710
  882TIP3    H224206   3.393   2.442   2.602 -0.0311  0.2782  1.5004
  883TIP3   OH224207   1.686   0.500   6.983  0.4348  0.3230 -0.1423
  883TIP3    H124208   1.766   0.476   7.030  0.5423  0.1818 -0.3963
  883TIP3    H224209   1.630   0.423   6.990 -0.0459  0.7388  0.8089
  884TIP3   OH224210   3.775   4.188   0.985 -0.1050 -0.5295  0.6159
  884TIP3    H124211   3.704   4.125   0.972 -0.9799  0.3782  0.9156
  884TIP3    H224212   3.788   4.190   1.080  1.2162 -1.6240  0.5028
  885TIP3   OH224213   0.700   1.075   7.462 -0.9569 -0.2361  0.2718
  885TIP3    H124214   0.655   1.147   7.507  0.1135  0.7804 -0.2179
  885TIP3    H224215   0.793   1.099   7.466 -0.7269 -0.7708 -1.3032
  886TIP3   OH224216   4.846   3.627   1.619 -0.0277  0.4422 -0.1041
  886TIP3    H124217   4.909   3.666   1.679 -0.1139  0.8942 -0.3002
  886TIP3    H224218   4.818   3.546   1.662 -1.1336  1.4295  1.1095
  887TIP3   OH224219   1.311   5.863   6.221 -0.7459 -0.3635  0.3403
  887TIP3    H124220   1.383   5.918   6.189 -0.4944 -0.5464  0.5856
  887TIP3    H224221   1.300   5.888   6.312 -0.7288 -0.6163  0.4125
  888TIP3   OH224222   5.937   3.735   7.700  0.0597 -0.2012 -0.1136
  888TIP3    H124223   5.953   3.648   7.662  0.6160 -0.0431 -0.2609
  888TIP3    H224224   5.917   3.718   7.792 -0.3041 -0.5188 -0.2494
  889TIP3   OH224225   6.637   5.410   1.638  0.0009 -0.6431  0.0683
  889TIP3    H124226   6.578   5.343   1.604 -0.3483 -0.6423  0.6446
  889TIP3    H224227   6.697   5.428   1.567 -0.8794 -0.4380 -0.6431
  890TIP3   OH224228   1.019   0.366   0.459 -0.5766  0.3236  1.1034
  890TIP3    H124229   1.045   0.339   0.547  0.5053  1.9566  1.3447
  890TIP3    H224230   0.942   0.421   0.473 -0.1962  0.8724  1.0916
  891TIP3   OH224231   6.340   3.484   0.093 -0.1224  0.2675 -0.8640
  891TIP3    H124232   6.313   3.415   0.033 -0.3906  0.2076 -0.6778
  891TIP3    H224233   6.321   3.565   0.045 -2.0984  0.2707 -0.1635
  892TIP3   OH224234   6.471   4.569   6.892 -0.0040 -0.5530  0.2633
  892TIP3    H124235   6.384   4.532   6.874 -0.4179  0.2689  0.4678
  892TIP3    H224236   6.475   4.575   6.987 -0.1719  0.3758  0.2301
  893TIP3   OH224237   2.530   1.965   7.932  0.0651  0.3571  0.7085
  893TIP3    H124238   2.516   2.037   7.870 -0.4044 -2.3978 -2.7159
  893TIP3    H224239   2.622   1.943   7.923 -0.1861 -0.5950  0.2698
  894TIP3   OH224240   1.396   4.625   8.411 -0.5390 -0.3959  0.0449
  894TIP3    H124241   1.390   4.567   8.486 -1.1121 -0.6815 -0.2193
  894TIP3    H224242   1.406   4.567   8.336  0.0103 -0.1126 -0.1065
  895TIP3   OH224243   6.378   6.705   7.072  0.1695  0.2086  0.3773
  895TIP3    H124244   6.473   6.711   7.070  0.1425  3.2938  1.7817
  895TIP3    H224245   6.359   6.642   7.141  1.1899  0.0832  0.5532
  896TIP3   OH224246   0.398   0.560   6.465  0.2264 -0.0156 -0.3593
  896TIP3    H124247   0.383   0.655   6.464 -0.2670 -0.0605  0.8693
  896TIP3    H224248   0.331   0.525   6.406 -0.9575  0.2480  0.7851
  897TIP3   OH224249   0.184   1.635   7.182  0.0847  0.1903 -0.3615
  897TIP3    H124250   0.259   1.685   7.148  0.3722 -0.3670 -0.5561
  897TIP3    H224251   0.169   1.568   7.116 -0.2453 -0.0380 -0.0546
  898TIP3   OH224252   6.714   5.072   0.905 -0.1635  0.5903 -0.0528
  898TIP3    H124253   6.689   5.020   0.982  1.3682 -0.9867 -0.5602
  898TIP3    H224254   6.720   5.162   0.938 -2.0493  0.3801  1.0511
  899TIP3   OH224255   2.859   6.051   8.060  0.2593  0.0464  0.5519
  899TIP3    H124256   2.921   5.988   8.023 -0.9387 -1.1527  0.4927
  899TIP3    H224257   2.774   6.006   8.057 -0.5466  1.4583  1.0437
  900TIP3   OH224258   5.330   4.117   1.420 -0.3344  0.0622  0.0687
  900TIP3    H124259   5.250   4.169   1.432  1.0870  2.2632  0.5303
  900TIP3    H224260   5.351   4.086   1.508 -0.9610 -0.9877 -0.1421
  901TIP3   OH224261   1.886   2.175   6.958  0.6401  0.6398  0.7183
  901TIP3    H124262   1.940   2.184   6.880  0.4631  0.1135  0.5339
  901TIP3    H224263   1.948   2.153   7.028  0.6070 -0.5385  0.3939
  902TIP3   OH224264   0.919   1.219   7.343 -0.4280  0.2660 -0.1408
  902TIP3    H124265   0.997   1.215   7.287 -0.6762  0.4845 -0.5001
  902TIP3    H224266   0.846   1.227   7.283 -0.7476 -0.0759  0.1909
  903TIP3   OH224267   5.734   3.929   7.589  0.0523 -0.1721  0.3131
  903TIP3    H124268   5.801   3.861   7.590  0.9199  0.5044 -2.3391
  903TIP3    H224269   5.705   3.932   7.498 -2.2088  0.8879  1.0091
  904TIP3   OH224270   3.970   0.720   7.200  0.1022  0.0925 -0.0566
  904TIP3    H124271   4.065   0.712   7.188  0.1621 -0.3657  0.6498
  904TIP3    H224272   3.955   0.814   7.210  0.2295  0.3665 -2.0072
  905TIP3   OH224273   1.933   1.897   0.631  0.1336  0.4941  0.3774
  905TIP3    H124274   1.922   1.827   0.696  0.9017  0.0168  0.0173
  905TIP3    H224275   1.921   1.978   0.680 -2.8468  0.1509  0.4329
  906TIP3   OH224276   1.856   0.351   8.142  0.5683  0.0910  0.3652
  906TIP3    H124277   1.784   0.410   8.166 -0.9238 -0.9600 -1.2826
  906TIP3    H224278   1.884   0.383   8.056  0.5909 -0.8158  0.0296
  907TIP3   OH224279   4.862   6.588   6.515 -0.4393  0.4486 -0.0558
  907TIP3    H124280   4.940   6.614   6.467 -0.6741  0.5926 -0.3616
  907TIP3    H224281   4.792   6.592   6.451 -0.5409 -0.6021 -0.0195
  908TIP3   OH224282   4.523   1.888   7.375  0.8428  0.4140  0.0554
  908TIP3    H124283   4.547   1.874   7.284  0.3345  0.2185 -0.0499
  908TIP3    H224284   4.431   1.914   7.372  0.7583  0.1830  0.5255
  909TIP3   OH224285   3.453   2.985   8.519 -0.0772  0.1099 -0.1885
  909TIP3    H124286   3.458   2.892   8.540 -0.0938  0.1567  0.0185
  909TIP3    H224287   3.364   3.011   8.543  0.2242  0.3981  0.6495
  910TIP3   OH224288   6.571   4.787   1.606  0.1696 -0.4424  0.1101
  910TIP3    H124289   6.666   4.797   1.595  0.3740  0.5191  2.3117
  910TIP3    H224290   6.533   4.837   1.533  1.3469  0.3338  0.0018
  911TIP3   OH224291   4.498   0.098   1.296 -0.1647  0.3826  0.6002
  911TIP3    H124292   4.525   0.178   1.252  0.6420 -0.2112 -0.0434
  911TIP3    H224293   4.403   0.102   1.299 -0.4702 -0.5497 -3.2905
  912TIP3   OH224294   6.595   1.690   7.518  0.1420  0.5945  0.0357
  912TIP3    H124295   6.663   1.635   7.558 -0.6823 -0.4284  0.0567
  912TIP3    H224296   6.529   1.699   7.586 -0.9935 -0.6666 -0.8468
  913TIP3   OH224297   3.062   2.155   0.690  0.9877  0.1842 -0.3668
  913TIP3    H124298   3.115   2.075   0.682  2.0833  0.6060  2.0211
  913TIP3    H224299   3.009   2.141   0.768 -0.3970  0.9499 -1.1415
  914TIP3   OH224300   1.941   5.192   0.179 -0.3871 -0.0265  0.0744
  914TIP3    H124301   2.034   5.177   0.163 -0.7519 -1.8444 -0.5110
  914TIP3    H224302   1.922   5.139   0.256 -1.2115 -0.6879 -0.5742
  915TIP3   OH224303   3.693   5.154   1.277  0.4507  0.0986  0.0942
  915TIP3    H124304   3.654   5.156   1.365  0.4682 -2.7145  0.2851
  915TIP3    H224305   3.772   5.207   1.285 -1.3755  2.9597  0.6848
  916TIP3   OH224306   3.315   4.048   0.043  0.1908  0.6520  0.1727
  916TIP3    H124307   3.383   4.082  -0.015 -1.4541  3.7616 -0.1867
  916TIP3    H224308   3.338   4.083   0.129  0.9309 -1.3618  0.8588
  917TIP3   OH224309   0.794   0.161   6.388 -0.1428 -0.4062 -0.2564
  917TIP3    H124310   0.872   0.208   6.358 -0.4052 -0.1309 -0.5095
  917TIP3    H224311   0.738   0.229   6.425 -0.0082 -0.6826  0.4756
  918TIP3   OH224312   5.581   0.261   0.367 -0.3480  0.2173 -0.0170
  918TIP3    H124313   5.631   0.323   0.314  1.1358  0.4685  1.6033
  918TIP3    H224314   5.634   0.181   0.368 -0.9429 -0.1856  0.1095
  919TIP3   OH224315   1.760   5.287   6.395 -0.1397 -0.1296  0.3241
  919TIP3    H124316   1.774   5.252   6.307 -2.0034  0.8136 -0.4106
  919TIP3    H224317   1.833   5.347   6.409  1.1192 -1.5577  0.1681
  920TIP3   OH224318   4.335   3.064   1.730  0.1365  0.5802  0.0431
  920TIP3    H124319   4.329   3.149   1.774 -0.3437  0.0467  1.0382
  920TIP3    H224320   4.260   3.015   1.763 -0.6023  0.3509 -1.8474
  921TIP3   OH224321   5.527   1.346   2.458  0.2470  0.3365  0.1829
  921TIP3    H124322   5.464   1.372   2.391 -0.2206  0.1253  0.5409
  921TIP3    H224323   5.588   1.420   2.462  0.2874  0.3489 -0.4798
  922TIP3   OH224324   4.324   4.694   0.905  0.4294 -0.0571  0.5561
  922TIP3    H124325   4.352   4.606   0.882 -0.3783 -0.3392  0.6250
  922TIP3    H224326   4.360   4.709   0.992  1.0962 -0.0689  0.2914
  923TIP3   OH224327   1.753   6.368   1.765 -0.0280  0.7554  0.2728
  923TIP3    H124328   1.804   6.343   1.688  0.3733 -0.2268  0.8383
  923TIP3    H224329   1.668   6.328   1.751  0.3516 -0.2711  0.7808
  924TIP3   OH224330   2.494   4.326   1.123 -0.1509  0.4990  0.1899
  924TIP3    H124331   2.433   4.259   1.153  0.2887 -0.1394 -0.3029
  924TIP3    H224332   2.451   4.365   1.046  0.6751 -0.9860 -1.0898
  925TIP3   OH224333   2.602   5.465   0.827 -0.1578  0.3153 -0.3993
  925TIP3    H124334   2.607   5.482   0.921 -7.6138 -0.1912  0.6866
  925TIP3    H224335   2.601   5.553   0.787 -2.2362  0.8692  0.7621
  926TIP3   OH224336   3.533   5.743   1.398 -0.3895  0.2856  0.3133
  926TIP3    H124337   3.497   5.805   1.335  0.4223  0.4668  0.0141
  926TIP3    H224338   3.491   5.659   1.376 -0.8893  0.5643  0.2053
  927TIP3   OH224339   0.957   0.619   0.072 -0.0112 -0.6755 -0.1196
  927TIP3    H124340   1.015   0.693   0.053 -0.9519 -0.1518 -1.0557
  927TIP3    H224341   1.017   0.547   0.096  0.9456  0.1987  0.1887
  928TIP3   OH224342   1.097   2.354   8.164  0.2361  0.5519 -0.0426
  928TIP3    H124343   1.112   2.444   8.133 -0.9779  0.7696 -0.0345
  928TIP3    H224344   1.044   2.313   8.096  0.1352  0.0769  0.3156
  929TIP3   OH224345   4.495   1.024   6.720 -0.0437 -0.3780  0.2887
  929TIP3    H124346   4.408   0.986   6.733 -0.3312  0.3596  0.5741
  929TIP3    H224347   4.480   1.102   6.667  0.3279  0.2319  1.0657
  930TIP3   OH224348   5.181   2.531   1.232  0.2586 -0.1145 -0.0634
  930TIP3    H124349   5.226   2.603   1.277  0.4793 -1.0902  1.3445
  930TIP3    H224350   5.100   2.570   1.200  0.9034  1.0413 -0.3940
  931TIP3   OH224351   4.819   5.141   0.245 -0.2321  0.2345 -0.4420
  931TIP3    H124352   4.848   5.131   0.336  0.2053  0.9910 -0.4890
  931TIP3    H224353   4.739   5.089   0.240  1.1691 -2.0653 -0.3465
  932TIP3   OH224354   4.924   4.062   7.965 -0.2746 -0.2057 -0.1450
  932TIP3    H124355   4.876   3.981   7.947 -0.8891  0.1880 -0.2821
  932TIP3    H224356   4.994   4.035   8.025 -2.0242 -0.3893  1.9160
  933TIP3   OH224357   1.926   2.586   1.896  0.0500 -0.2309  0.4010
  933TIP3    H124358   1.899   2.674   1.922 -1.2173 -0.3575 -0.4208
  933TIP3    H224359   2.019   2.595   1.874 -0.0661  0.9099  0.3264
  934TIP3   OH224360   1.276   6.743   8.040  0.3562  0.0461  0.0782
  934TIP3    H124361   1.251   6.836   8.046 -0.7317 -0.2441  0.2917
  934TIP3    H224362   1.325   6.726   8.120 -0.1129  0.2467  0.4134
  935TIP3   OH224363   3.284   3.690   0.943 -0.8916 -0.3078 -0.5832
  935TIP3    H124364   3.253   3.619   0.998 -0.3047  0.0284  0.1889
  935TIP3    H224365   3.244   3.769   0.980  0.2460  0.0329 -0.0546
  936TIP3   OH224366   6.241   5.535   7.961  0.3868  0.5552 -0.0183
  936TIP3    H124367   6.179   5.605   7.941 -0.9523 -0.5617  0.0894
  936TIP3    H224368   6.187   5.456   7.969  1.7901 -0.4067  0.3808
  937TIP3   OH224369   6.383   3.131   7.474 -0.2943  0.4717 -0.2085
  937TIP3    H124370   6.405   3.056   7.419  0.8223  0.2521  0.5001
  937TIP3    H224371   6.290   3.122   7.492 -0.4896  0.0760 -1.3388
  938TIP3   OH224372   2.597   4.965   0.341  0.7792 -0.3931 -0.6569
  938TIP3    H124373   2.540   4.892   0.317 -0.9396  0.5200  0.4564
  938TIP3    H224374   2.577   5.033   0.276  1.5941 -0.5164 -1.0514
  939TIP3   OH224375   0.831   3.137   0.119 -0.4620  0.0284  0.3623
  939TIP3    H124376   0.787   3.216   0.087 -0.6854  0.0167  0.6389
  939TIP3    H224377   0.804   3.130   0.210 -2.6059 -1.8192 -0.3218
  940TIP3   OH224378   6.514   6.411   8.323 -0.3297  0.0282 -0.2335
  940TIP3    H124379   6.482   6.411   8.233 -0.3686 -0.0888 -0.2203
  940TIP3    H224380   6.519   6.503   8.347 -1.6895  0.0393  0.1182
  941TIP3   OH224381   2.926   1.099   8.041  0.3953  0.0262  0.0472
  941TIP3    H124382   2.978   1.046   8.101  1.3174  1.8349  0.9537
  941TIP3    H224383   2.980   1.108   7.963  0.6918  0.4285  0.2913
  942TIP3   OH224384   0.974   0.908   1.296 -0.6843 -0.0821 -0.0170
  942TIP3    H124385   1.017   0.880   1.376  0.6015 -0.2437 -0.7394
  942TIP3    H224386   0.885   0.931   1.323 -0.0060  0.7785  1.6232
  943TIP3   OH224387   3.476   4.010   6.928 -0.5699 -0.6596  0.3255
  943TIP3    H124388   3.502   4.102   6.915  1.2191 -1.4389 -2.8092
  943TIP3    H224389   3.539   3.976   6.991 -0.6098  0.0154  0.7413
  944TIP3   OH224390   1.866   0.759   7.530  0.0316 -0.0127  0.2255
  944TIP3    H124391   1.932   0.750   7.598 -0.7898  2.1904  1.4303
  944TIP3    H224392   1.859   0.854   7.516 -4.1400  0.0741  1.5615
  945TIP3   OH224393   4.238   4.074   1.509  0.1654 -0.2691 -0.5265
  945TIP3    H124394   4.332   4.089   1.502  0.0784  0.0348 -1.0561
  945TIP3    H224395   4.229   3.979   1.518  0.6254 -0.1820  1.2587
  946TIP3   OH224396   5.576   0.517   1.346 -0.5648  0.0352  0.3185
  946TIP3    H124397   5.601   0.460   1.419  0.8290  1.6446  1.1401
  946TIP3    H224398   5.484   0.540   1.364 -0.7378 -0.8831  0.6606
  947TIP3   OH224399   3.466   4.318   2.417 -0.5590 -0.5526 -0.3301
  947TIP3    H124400   3.506   4.271   2.344 -3.6297 -0.2775 -2.3728
  947TIP3    H224401   3.485   4.411   2.400  1.6394 -0.6454  1.2196
  948TIP3   OH224402   6.042   1.228   7.951  0.1370 -0.1515  0.4234
  948TIP3    H124403   6.073   1.251   8.039 -0.8756 -0.8837  0.9845
  948TIP3    H224404   6.007   1.310   7.916  0.5184  0.1384  0.7012
  949TIP3   OH224405   2.103   2.698   6.382 -0.2833 -0.9543 -0.4632
  949TIP3    H124406   2.124   2.662   6.469 -1.6235  1.0101  0.7606
  949TIP3    H224407   2.045   2.633   6.343 -0.5400 -1.3855  0.5845
  950TIP3   OH224408   4.743   6.826   1.143 -0.3000 -0.3028 -0.1281
  950TIP3    H124409   4.674   6.878   1.102  1.2793  1.7926 -0.2654
  950TIP3    H224410   4.824   6.859   1.105  0.9706 -0.9537  1.8689
  951TIP3   OH224411   4.736   0.430   1.514 -0.5507  0.0854 -0.1385
  951TIP3    H124412   4.676   0.398   1.582  0.4509 -1.3447  0.1045
  951TIP3    H224413   4.712   0.382   1.435  0.7761 -1.1312  0.1583
  952TIP3   OH224414   0.747   2.365   1.873 -0.5450  0.2337 -0.1157
  952TIP3    H124415   0.784   2.318   1.948 -0.0955 -1.6721 -1.4546
  952TIP3    H224416   0.734   2.454   1.905 -0.6335 -0.5628  2.2998
  953TIP3   OH224417   3.744   2.053   6.651 -0.3874  0.1571 -0.0593
  953TIP3    H124418   3.757   2.055   6.557 -1.2130  2.0785 -0.1704
  953TIP3    H224419   3.729   1.961   6.671  1.6431 -0.5622 -1.5075
  954TIP3   OH224420   0.126   3.090   7.837 -0.2914  0.2367  0.4887
  954TIP3    H124421   0.037   3.058   7.824  0.6624 -2.8836  0.8269
  954TIP3    H224422   0.142   3.148   7.762 -1.4069 -2.0725 -1.7006
  955TIP3   OH224423   3.478   6.663   1.437  0.4021  0.4342 -0.0234
  955TIP3    H124424   3.545   6.610   1.482  1.1525 -0.5758 -2.1567
  955TIP3    H224425   3.494   6.752   1.466  0.4449 -0.2129  2.1167
  956TIP3   OH224426   5.160   2.792   8.276 -0.1556  0.5562 -0.2157
  956TIP3    H124427   5.112   2.873   8.292 -0.1772  0.4431  0.3065
  956TIP3    H224428   5.211   2.779   8.356  0.0655  0.2066 -0.4141
  957TIP3   OH224429   4.387   2.353   1.800 -0.2037 -0.5617  0.1949
  957TIP3    H124430   4.320   2.284   1.796 -1.0289  0.2612 -0.2985
  957TIP3    H224431   4.428   2.352   1.714 -1.4891  0.7888 -0.4819
  958TIP3   OH224432   5.845   0.605   7.543 -0.3418 -0.2088  0.2802
  958TIP3    H124433   5.916   0.628   7.483  0.6095  0.9014  1.7856
  958TIP3    H224434   5.783   0.556   7.488  0.5453  0.6450 -1.5735
  959TIP3   OH224435   4.230   2.859   0.321 -0.2204 -0.1160 -0.1153
  959TIP3    H124436   4.134   2.855   0.318 -0.1831 -0.3058 -1.7920
  959TIP3    H224437   4.257   2.858   0.229  1.4009 -0.1359  0.3362
  960TIP3   OH224438   3.041   5.548   7.964  0.3445 -0.2765 -0.6139
  960TIP3    H124439   2.988   5.497   8.026  1.4829 -0.8509 -0.0843
  960TIP3    H224440   3.072   5.484   7.900  1.2022 -0.1388 -0.3496
  961TIP3   OH224441   3.318   5.564   8.063  0.2730  0.0943  0.5497
  961TIP3    H124442   3.353   5.520   7.985 -0.8015  2.0026 -1.0800
  961TIP3    H224443   3.237   5.605   8.034  0.2944  1.6168  2.4483
  962TIP3   OH224444   4.797   2.745   1.366  0.1315  0.1816  0.7581
  962TIP3    H124445   4.755   2.740   1.281 -0.1259 -1.5890  0.9493
  962TIP3    H224446   4.736   2.796   1.420 -0.9388 -0.8599  0.5578
  963TIP3   OH224447   0.575   3.958   0.875  0.4111  0.1274 -0.4110
  963TIP3    H124448   0.559   4.030   0.935  2.3492 -1.6046  2.4389
  963TIP3    H224449   0.664   3.930   0.894 -0.0300 -2.5862 -1.8236
  964TIP3   OH224450   5.217   4.115   1.117  0.4918 -0.0192  0.3024
  964TIP3    H124451   5.291   4.072   1.161  1.2172 -1.5224 -2.2037
  964TIP3    H224452   5.167   4.044   1.078 -2.2504  0.9825  1.7371
  965TIP3   OH224453   6.175   3.312   7.632 -0.6845  0.6913 -0.0875
  965TIP3    H124454   6.091   3.336   7.671 -1.0627 -1.2391  0.3907
  965TIP3    H224455   6.225   3.273   7.704 -0.3817 -0.5278 -0.9192
  966TIP3   OH224456   4.475   6.806   8.351 -0.2252 -0.3209  0.6087
  966TIP3    H124457   4.487   6.829   8.444  1.3629 -1.7502  0.7945
  966TIP3    H224458   4.454   6.713   8.352  0.0816 -0.4135 -0.4848
  967TIP3   OH224459   1.485   1.502   1.216  0.3677 -0.4028 -0.3676
  967TIP3    H124460   1.398   1.493   1.177  0.3988  0.0917 -0.5586
  967TIP3    H224461   1.476   1.575   1.278  1.4212  1.9396 -2.7427
  968TIP3   OH224462   4.405   4.674   0.387  0.1131  0.0650 -0.1258
  968TIP3    H124463   4.469   4.673   0.458 -0.2956  0.8056  0.2681
  968TIP3    H224464   4.432   4.603   0.329  2.0710  1.1686 -0.6567
  969TIP3   OH224465   5.437   5.016   1.756 -0.0905  0.9332  0.4064
  969TIP3    H124466   5.344   5.038   1.745 -0.5300 -1.5524 -2.0003
  969TIP3    H224467   5.452   5.022   1.850 -2.8385  0.9160  0.9404
  970TIP3   OH224468   6.292   6.163   8.540  0.5708  0.0535 -0.5676
  970TIP3    H124469   6.381   6.127   8.544  0.6144  0.2270  0.0593
  970TIP3    H224470   6.304   6.258   8.541  0.3082  0.1427  2.2995
  971TIP3   OH224471   2.953   2.211   0.135  0.0917  0.5086  0.3384
  971TIP3    H124472   2.966   2.222   0.229  1.7402  1.3189  0.0564
  971TIP3    H224473   2.984   2.294   0.097 -0.3135  0.0972 -0.9290
  972TIP3   OH224474   4.611   1.979   8.053  0.0747 -0.5847 -0.0011
  972TIP3    H124475   4.704   1.995   8.064 -0.0013  0.8432 -1.1478
  972TIP3    H224476   4.573   2.065   8.037 -1.4542 -1.1327  0.4568
  973TIP3   OH224477   2.117   3.183   2.134 -0.3353 -0.0889  0.0774
  973TIP3    H124478   2.133   3.129   2.211  0.9063  0.6560  0.3667
  973TIP3    H224479   2.053   3.133   2.083 -1.3959 -0.4699  1.7058
  974TIP3   OH224480   5.868   5.830   1.400  0.0605 -0.1813  0.0200
  974TIP3    H124481   5.830   5.911   1.367  1.5253  0.3148 -0.5452
  974TIP3    H224482   5.880   5.846   1.494  0.9666  0.5427 -0.2039
  975TIP3   OH224483   4.475   3.849   0.260  0.4057  0.2602  0.2007
  975TIP3    H124484   4.488   3.941   0.283  0.8987  0.1089  0.5264
  975TIP3    H224485   4.557   3.822   0.221  0.6753 -0.3647  1.1791
  976TIP3   OH224486   6.322   6.450   7.518  0.0655  0.2349 -0.5368
  976TIP3    H124487   6.383   6.459   7.591  0.3250 -1.4163 -0.5245
  976TIP3    H224488   6.299   6.358   7.516 -0.7429  0.4289 -1.9149
  977TIP3   OH224489   5.067   1.031   1.027  0.1998  1.0943  0.5533
  977TIP3    H124490   4.995   1.018   0.965  0.5082  1.6541  0.0657
  977TIP3    H224491   5.120   0.952   1.018 -0.0384  0.9388  0.4904
  978TIP3   OH224492   5.770   6.540   1.339 -0.4601  0.0062  1.0234
  978TIP3    H124493   5.806   6.629   1.345 -1.3460  0.3069  2.1799
  978TIP3    H224494   5.694   6.549   1.282  0.2945 -0.3303 -0.0945
  979TIP3   OH224495   3.743   1.064   0.944  0.4121  0.2612  0.4041
  979TIP3    H124496   3.720   1.125   1.014  0.8454  0.6534  0.2105
  979TIP3    H224497   3.722   1.111   0.863  1.0324  0.2818  0.2441
  980TIP3   OH224498   5.581   2.704   0.408  0.8001  0.1885  0.9212
  980TIP3    H124499   5.669   2.667   0.417  0.6457  0.3045  3.6833
  980TIP3    H224500   5.527   2.655   0.469 -1.4026 -0.6279 -1.4854
  981TIP3   OH224501   6.764   0.514   2.467  0.7067  0.2052  0.0930
  981TIP3    H124502   6.701   0.559   2.523  0.7404  0.9811 -0.4751
  981TIP3    H224503   6.814   0.585   2.425  0.4407 -0.3356 -1.1868
  982TIP3   OH224504   3.213   1.162   0.700  0.4248 -0.7883 -0.0312
  982TIP3    H124505   3.301   1.128   0.712  0.3173 -0.9299  0.3748
  982TIP3    H224506   3.156   1.099   0.745  0.2285 -0.0490  0.7874
  983TIP3   OH224507   0.878   2.761   6.663  0.5079 -0.1399  0.4965
  983TIP3    H124508   0.859   2.727   6.575 -0.4696 -0.0748  0.6718
  983TIP3    H224509   0.972   2.748   6.674  0.2556 -2.4783  0.4196
  984TIP3   OH224510   0.083   3.388   2.140  0.1295 -0.2099  0.4713
  984TIP3    H124511   0.101   3.301   2.104  0.1514 -0.5477  1.2894
  984TIP3    H224512   0.162   3.411   2.189  0.8608  1.0565 -1.2075
  985TIP3   OH224513   3.481   1.374   8.328 -0.6543  0.1581 -0.2877
  985TIP3    H124514   3.542   1.447   8.340 -2.5682  1.8073 -0.1306
  985TIP3    H224515   3.407   1.412   8.282 -0.8693 -2.1832 -2.0627
  986TIP3   OH224516   0.244   4.269   8.382 -0.0510  0.5646  0.2245
  986TIP3    H124517   0.170   4.282   8.323 -0.6621  0.2638  0.9007
  986TIP3    H224518   0.211   4.207   8.447  0.9573  0.0540  0.2606
  987TIP3   OH224519   5.695   6.782   7.296 -0.1584  0.0630 -0.4037
  987TIP3    H124520   5.766   6.813   7.240 -0.2035 -0.2510 -0.6341
  987TIP3    H224521   5.681   6.854   7.358  0.3282  0.1475 -0.3863
  988TIP3   OH224522   5.217   4.673   8.284 -0.2085  0.2958  0.1835
  988TIP3    H124523   5.245   4.663   8.193  0.1226  0.4368  0.2679
  988TIP3    H224524   5.125   4.645   8.284 -0.8466  2.1829 -0.6053
  989TIP3   OH224525   3.793   3.187   0.098  0.5496 -0.6804  0.0122
  989TIP3    H124526   3.792   3.204   0.004  0.7688 -1.2621 -0.1031
  989TIP3    H224527   3.765   3.269   0.138 -0.8832 -0.8388 -0.6170
  990TIP3   OH224528   4.635   0.824   0.288  0.2843 -0.1469 -0.4740
  990TIP3    H124529   4.639   0.810   0.383  0.9377  0.2635 -0.4386
  990TIP3    H224530   4.547   0.795   0.263  0.4353 -1.1632  0.1123
  991TIP3   OH224531   2.766   1.842   7.876  0.0542 -0.2429 -0.3143
  991TIP3    H124532   2.822   1.873   7.804  0.2735  1.3892  0.5023
  991TIP3    H224533   2.734   1.758   7.846 -1.3080  1.1296 -3.1298
  992TIP3   OH224534   0.007   2.712   8.346 -0.5167 -0.0735 -0.7255
  992TIP3    H124535  -0.071   2.658   8.330 -0.0687 -0.8363 -0.4130
  992TIP3    H224536   0.027   2.749   8.260 -0.2477 -1.2328 -1.1844
  993TIP3   OH224537   4.306   4.368   8.052 -0.4248  0.0885 -0.3043
  993TIP3    H124538   4.265   4.428   7.989  1.5164  1.9216  0.0781
  993TIP3    H224539   4.256   4.380   8.133  0.0309  1.3698 -0.1858
  994TIP3   OH224540   6.569   4.885   0.758  0.2306  0.1233 -0.6039
  994TIP3    H124541   6.626   4.941   0.811  1.1172  0.5095 -1.9161
  994TIP3    H224542   6.541   4.942   0.685 -1.4548 -0.2037 -0.2492
  995TIP3   OH224543   1.227   0.236   8.614 -0.3045 -0.4948 -0.1117
  995TIP3    H124544   1.318   0.212   8.597 -0.1353  0.7527 -1.1687
  995TIP3    H224545   1.228   0.332   8.621 -1.4311 -0.5099  0.5688
  996TIP3   OH224546   1.836   1.584   0.530  0.0587  0.0702  0.0435
  996TIP3    H124547   1.751   1.548   0.556 -0.0208  0.3154  0.1290
  996TIP3    H224548   1.898   1.513   0.545 -0.0180  0.1347  0.7012
  997TIP3   OH224549   3.643   0.809   8.131  0.3051  0.0532  0.0575
  997TIP3    H124550   3.585   0.790   8.204 -0.2207 -1.2438 -0.6692
  997TIP3    H224551   3.704   0.874   8.165 -1.3739  1.2461  0.9320
  998TIP3   OH224552   3.456   0.550   7.874  0.4993 -0.1304 -0.7562
  998TIP3    H124553   3.407   0.577   7.951  0.2915 -0.9126 -0.6027
  998TIP3    H224554   3.523   0.617   7.862 -1.3070  1.6213 -1.6553
  999TIP3   OH224555   3.196   6.033   1.403 -0.1220 -0.0478  0.1121
  999TIP3    H124556   3.123   5.975   1.382  0.5468 -0.1134 -2.4563
  999TIP3    H224557   3.269   5.973   1.421 -0.3535  0.0156  1.2851
 1000TIP3   OH224558   0.893   2.158   1.546 -0.1334  0.6676  0.0391
 1000TIP3    H124559   0.803   2.188   1.563 -0.6284 -0.4694 -0.4336
 1000TIP3    H224560   0.929   2.143   1.633 -1.1984 -1.0195  0.2460
 1001TIP3   OH224561   2.555   2.907   1.525  0.4788  0.2894 -0.1921
 1001TIP3    H124562   2.628   2.937   1.471  0.4866 -0.6357 -0.7327
 1001TIP3    H224563   2.576   2.815   1.544 -0.1367  0.2555  0.3475
 1002TIP3   OH224564   2.262   2.213   6.282 -0.3962 -0.1511 -0.1418
 1002TIP3    H124565   2.208   2.254   6.215 -1.5106 -0.4651  0.5382
 1002TIP3    H224566   2.228   2.247   6.365  0.5964 -0.1944  0.3003
 1003TIP3   OH224567   0.110   6.071   6.058  0.0357  0.3951  0.4469
 1003TIP3    H124568   0.166   6.121   6.117  1.6464  0.0345 -0.6881
 1003TIP3    H224569   0.150   5.984   6.055 -0.0838  0.3674 -1.0266
 1004TIP3   OH224570   3.107   4.673   0.990 -0.0477 -0.1265  0.1263
 1004TIP3    H124571   3.042   4.628   1.044  1.2437 -0.1909  1.7210
 1004TIP3    H224572   3.069   4.676   0.903 -1.5939 -1.3409  0.7208
 1005TIP3   OH224573   1.158   3.686   0.330 -0.1396 -0.4301 -0.2930
 1005TIP3    H124574   1.124   3.686   0.241  0.7510  1.8258 -0.6987
 1005TIP3    H224575   1.203   3.601   0.339 -0.9146 -1.0147 -1.6907
 1006TIP3   OH224576   5.319   3.770   8.459 -0.1249 -0.4801  0.4441
 1006TIP3    H124577   5.373   3.735   8.389 -0.1597  0.7532 -0.2239
 1006TIP3    H224578   5.244   3.809   8.414 -0.5098 -0.3131  1.2177
 1007TIP3   OH224579   4.872   1.731   0.480  0.4138 -0.1050 -0.0976
 1007TIP3    H124580   4.845   1.794   0.413 -1.2125  0.2119  0.8198
 1007TIP3    H224581   4.935   1.675   0.435  1.5687  1.8669 -1.0645
 1008TIP3   OH224582   4.737   1.139   7.712  0.2032 -0.2326  0.1100
 1008TIP3    H124583   4.717   1.096   7.795  1.9743  2.1226  1.8775
 1008TIP3    H224584   4.803   1.082   7.671 -1.2810 -1.8384 -0.1720
 1009TIP3   OH224585   5.864   0.304   1.486  0.5881  0.3220 -0.2150
 1009TIP3    H124586   5.874   0.222   1.535 -0.9421 -0.2194 -0.7741
 1009TIP3    H224587   5.771   0.325   1.491  0.6758  1.1393 -1.4851
 1010TIP3   OH224588   0.041   2.135   1.240  0.3181 -0.2530 -0.4506
 1010TIP3    H124589  -0.051   2.116   1.224 -0.4291  0.1673  2.6708
 1010TIP3    H224590   0.084   2.050   1.240 -0.5493 -0.7056  0.4822
 1011TIP3   OH224591   1.290   2.580   0.925  0.4459  0.1137 -0.0825
 1011TIP3    H124592   1.354   2.565   0.856  0.5357  0.5268 -0.0933
 1011TIP3    H224593   1.213   2.531   0.898  1.6310 -2.7946  1.3013
 1012TIP3   OH224594   1.300   4.953   0.777 -0.7179  0.3692 -0.5484
 1012TIP3    H124595   1.331   4.926   0.690  2.4530 -0.4549  0.7002
 1012TIP3    H224596   1.282   4.870   0.822  1.2241  0.5311  0.6743
 1013TIP3   OH224597   5.930   4.945   0.167  0.5445 -0.0249  0.0482
 1013TIP3    H124598   5.847   4.926   0.122 -0.7993  1.6782  1.6816
 1013TIP3    H224599   5.963   5.022   0.122 -1.0659  2.0052  2.1328
 1014TIP3   OH224600   0.377   5.465   2.141 -0.5124  0.1620 -0.3510
 1014TIP3    H124601   0.444   5.426   2.085 -0.0278  0.9911 -0.3594
 1014TIP3    H224602   0.394   5.559   2.138 -1.9202  0.4282 -0.6699
 1015TIP3   OH224603   4.572   0.635   7.417 -0.3432  0.2318  0.0623
 1015TIP3    H124604   4.544   0.551   7.382  0.7571 -0.2241  0.2197
 1015TIP3    H224605   4.666   0.639   7.399  0.5612 -0.5215  3.7633
 1016TIP3   OH224606   3.547   2.785   7.901  0.0010  0.1440 -0.4949
 1016TIP3    H124607   3.484   2.735   7.954  0.1090  1.6307  1.1128
 1016TIP3    H224608   3.555   2.869   7.946  0.3872  1.3733 -2.6998
 1017TIP3   OH224609   0.024   0.238   1.001 -0.1023  0.1082 -0.0607
 1017TIP3    H124610   0.052   0.185   1.075  0.9825  2.3075  1.1701
 1017TIP3    H224611  -0.070   0.218   0.992 -0.4955  0.4814  2.5133
 1018TIP3   OH224612   6.273   3.379   1.261 -0.1812  0.7387 -0.8560
 1018TIP3    H124613   6.259   3.471   1.284  0.0888  0.9719 -1.6113
 1018TIP3    H224614   6.250   3.331   1.341  0.3219  1.4985 -0.2368
 1019TIP3   OH224615   3.333   5.761   6.136 -0.2062 -0.0470 -0.5092
 1019TIP3    H124616   3.293   5.701   6.199 -1.9622  1.0411 -0.5098
 1019TIP3    H224617   3.324   5.847   6.178 -0.8639  0.6220 -1.9567
 1020TIP3   OH224618   1.596   1.355   6.402 -0.6015 -0.4709  0.1712
 1020TIP3    H124619   1.559   1.274   6.437 -2.5065 -0.7725 -2.2128
 1020TIP3    H224620   1.682   1.330   6.368 -0.6415 -1.1955  0.5901
 1021TIP3   OH224621   3.857   1.121   1.534  0.4086 -0.0501 -0.0826
 1021TIP3    H124622   3.764   1.100   1.541 -0.2311  2.3461 -0.5687
 1021TIP3    H224623   3.873   1.183   1.605  2.6784 -3.2827  2.5788
 1022TIP3   OH224624   3.566   6.177   8.198  0.3489  0.4011  0.2534
 1022TIP3    H124625   3.639   6.117   8.211  0.2089  0.0199 -0.6540
 1022TIP3    H224626   3.562   6.228   8.280  1.5016  0.3053  0.3897
 1023TIP3   OH224627   3.416   2.720   8.588 -0.0572  0.5022 -0.3007
 1023TIP3    H124628   3.434   2.643   8.534  0.7380  0.5621 -0.1326
 1023TIP3    H224629   3.404   2.685   8.676 -1.2288  0.4183 -0.4703
 1024TIP3   OH224630   2.264   0.582   0.594  0.1226 -0.5340  0.3273
 1024TIP3    H124631   2.225   0.542   0.516  0.1121 -0.0941  0.1031
 1024TIP3    H224632   2.338   0.526   0.615  1.2861  0.3729 -1.1242
 1025TIP3   OH224633   6.238   4.846   0.484 -0.5231 -0.5676 -0.3241
 1025TIP3    H124634   6.332   4.844   0.465 -0.1139  1.0802  1.1824
 1025TIP3    H224635   6.231   4.818   0.575 -1.1456  1.7424  0.4157
 1026TIP3   OH224636   4.796   3.634   8.189 -0.2884  0.2925 -0.8263
 1026TIP3    H124637   4.864   3.598   8.246 -0.3628  1.3004 -0.0650
 1026TIP3    H224638   4.737   3.561   8.173  0.0722 -0.1738 -0.0971
 1027TIP3   OH224639   3.396   4.884   8.435 -0.3892 -0.0573  0.3846
 1027TIP3    H124640   3.456   4.959   8.439  1.1182 -1.1970  0.0601
 1027TIP3    H224641   3.339   4.895   8.511  0.9147  0.5296  1.3200
 1028TIP3   OH224642   3.197   4.849   1.990 -0.2449 -0.1293 -0.4589
 1028TIP3    H124643   3.237   4.883   1.910  0.7027  1.0603  0.4808
 1028TIP3    H224644   3.197   4.754   1.978 -1.3140  0.0671 -2.4020
 1029TIP3   OH224645   2.899   0.864   0.410 -0.1067  0.0484 -0.6214
 1029TIP3    H124646   2.919   0.771   0.394  0.9395  0.2368 -0.5062
 1029TIP3    H224647   2.969   0.911   0.365 -0.9918  0.8173 -1.2228
 1030TIP3   OH224648   2.342   0.249   2.309 -0.3291  0.2556  0.1345
 1030TIP3    H124649   2.261   0.299   2.320 -0.7545 -0.4161  0.1292
 1030TIP3    H224650   2.396   0.275   2.384 -0.8309  0.1871  0.5271
 1031TIP3   OH224651   0.073   0.583   7.079  0.4593 -0.0875 -0.1180
 1031TIP3    H124652   0.103   0.642   7.009  1.2481 -0.4776 -0.1150
 1031TIP3    H224653  -0.004   0.627   7.116  1.8577  1.6611  0.8386
 1032TIP3   OH224654   4.639   6.576   7.693  0.2033  0.1773 -0.0818
 1032TIP3    H124655   4.682   6.609   7.614 -0.4584  0.1680 -0.4469
 1032TIP3    H224656   4.599   6.493   7.666 -0.3150  0.3430  0.1759
 1033TIP3   OH224657   2.254   6.788   6.416 -0.2174  0.1794 -0.3422
 1033TIP3    H124658   2.191   6.734   6.463 -0.4446 -0.1765 -1.0390
 1033TIP3    H224659   2.315   6.726   6.377  1.6596  0.5756  1.7757
 1034TIP3   OH224660   1.227   5.541   1.373 -0.1919 -0.0126  0.2859
 1034TIP3    H124661   1.270   5.551   1.458  0.6055  4.3271 -0.3895
 1034TIP3    H224662   1.143   5.586   1.383 -0.4509 -0.1663 -0.9944
 1035TIP3   OH224663   3.259   2.061   0.246  0.0380 -0.3494  0.4281
 1035TIP3    H124664   3.272   2.111   0.165 -0.9389 -0.2016  0.3519
 1035TIP3    H224665   3.183   2.006   0.228 -1.7712  1.4606  2.0527
 1036TIP3   OH224666   5.109   4.705   1.828  0.4826 -0.1721  0.6525
 1036TIP3    H124667   5.018   4.730   1.838  0.4044 -0.2826  0.2539
 1036TIP3    H224668   5.118   4.623   1.877  0.3854 -0.1207  0.7536
 1037TIP3   OH224669   0.775   1.629   1.197  0.6981 -0.1346  0.5486
 1037TIP3    H124670   0.702   1.568   1.197  0.3477  0.2644 -0.3620
 1037TIP3    H224671   0.848   1.580   1.158  0.3080  0.1291 -0.5564
 1038TIP3   OH224672   5.318   0.545   6.848  0.1416 -0.4923  0.4862
 1038TIP3    H124673   5.316   0.603   6.771  1.6743 -0.7714  0.2175
 1038TIP3    H224674   5.263   0.471   6.824  1.4326 -1.0852 -0.7935
 1039TIP3   OH224675   2.321   4.144   1.209  0.1176 -0.5436  0.2144
 1039TIP3    H124676   2.382   4.085   1.254  0.5331 -0.2285  0.0763
 1039TIP3    H224677   2.234   4.113   1.235  0.3465  0.0210  1.7436
 1040TIP3   OH224678   6.059   6.714   0.880 -0.9114  0.1275 -0.5120
 1040TIP3    H124679   6.038   6.667   0.961  1.4148  0.2234  0.1939
 1040TIP3    H224680   6.067   6.644   0.815 -2.5169  0.0288 -0.6595
 1041TIP3   OH224681   3.199   5.555   0.573  0.0549  0.5270 -0.3141
 1041TIP3    H124682   3.263   5.535   0.641 -0.5906 -0.5743 -0.0131
 1041TIP3    H224683   3.238   5.520   0.493  0.2222  0.6461 -0.2864
 1042TIP3   OH224684   1.245   3.525   6.499 -0.5244 -0.1124  0.4987
 1042TIP3    H124685   1.253   3.433   6.523  2.7308  0.1150  0.7454
 1042TIP3    H224686   1.262   3.528   6.405  0.8328  0.3302  0.7381
 1043TIP3   OH224687   5.942   4.303   0.824  0.0588  0.2064  0.4514
 1043TIP3    H124688   5.928   4.294   0.729  3.6387 -1.7091 -0.0556
 1043TIP3    H224689   5.872   4.250   0.863  0.5414 -1.9095 -1.3433
 1044TIP3   OH224690   4.556   4.817   1.121 -0.2924 -0.2187 -1.1002
 1044TIP3    H124691   4.489   4.821   1.188  1.5092 -1.4348  0.9020
 1044TIP3    H224692   4.603   4.901   1.128 -0.3669 -0.1719 -1.1546
 1045TIP3   OH224693   4.525   1.653   0.947  0.3722 -0.1049  0.3801
 1045TIP3    H124694   4.442   1.647   0.900  0.1541 -0.7234  0.8315
 1045TIP3    H224695   4.573   1.574   0.922  1.5226  1.0269 -1.1548
 1046TIP3   OH224696   0.181   2.871   1.647  0.2554 -0.1806  0.9110
 1046TIP3    H124697   0.168   2.818   1.726 -2.0438 -1.1764 -0.0604
 1046TIP3    H224698   0.121   2.944   1.658  0.5139  0.1041  0.4282
 1047TIP3   OH224699   1.308   0.456   6.793  0.0230 -0.3790 -0.2382
 1047TIP3    H124700   1.361   0.526   6.831 -3.1757  1.9587  0.3261
 1047TIP3    H224701   1.280   0.491   6.708 -2.2887 -0.5203  0.4023
 1048TIP3   OH224702   5.544   1.933   7.800 -0.3886 -0.5195  0.0500
 1048TIP3    H124703   5.600   1.981   7.861 -3.2381  0.6298  1.9697
 1048TIP3    H224704   5.503   1.865   7.853 -0.7227 -1.4199 -1.3092
 1049TIP3   OH224705   1.170   4.381   8.526  0.0362  0.0254  0.3009
 1049TIP3    H124706   1.245   4.419   8.572  1.3999 -2.2640  0.1446
 1049TIP3    H224707   1.102   4.373   8.593  0.7713 -0.0467  1.0620
 1050TIP3   OH224708   4.568   3.005   6.727  0.0076 -0.1304  0.6605
 1050TIP3    H124709   4.551   3.051   6.809 -0.6138  2.9777 -1.0338
 1050TIP3    H224710   4.496   3.031   6.670  1.6346 -0.2585 -1.5851
 1051TIP3   OH224711   0.339   0.469   0.298  0.0789 -0.4458 -0.1473
 1051TIP3    H124712   0.358   0.546   0.352 -0.1873  0.1631 -0.9119
 1051TIP3    H224713   0.245   0.454   0.310 -0.0038 -0.2431 -0.5123
 1052TIP3   OH224714   0.566   0.121   0.693 -0.4108 -0.3328  0.6545
 1052TIP3    H124715   0.485   0.081   0.723 -0.7797 -0.2393 -0.1818
 1052TIP3    H224716   0.584   0.079   0.609 -0.1208  0.3555  0.3633
 1053TIP3   OH224717   1.115   4.627   7.779  0.9473  0.1632  0.4176
 1053TIP3    H124718   1.031   4.603   7.819  0.9855 -0.7348 -0.0205
 1053TIP3    H224719   1.174   4.556   7.804  0.9011 -0.5949 -1.4778
 1054TIP3   OH224720   1.188   0.736   8.125  0.1428 -0.3700  0.3457
 1054TIP3    H124721   1.217   0.683   8.050 -0.4896 -1.4385  0.8224
 1054TIP3    H224722   1.116   0.789   8.091  1.4784  1.0217 -0.4091
 1055TIP3   OH224723   2.922   0.439   6.284 -0.4540 -0.3752 -0.3116
 1055TIP3    H124724   2.840   0.392   6.265 -0.7645 -0.2704  0.7282
 1055TIP3    H224725   2.986   0.370   6.300 -0.3188 -0.4583 -1.1609
 1056TIP3   OH224726   0.509   3.057   2.122  0.3258 -0.5618 -0.0252
 1056TIP3    H124727   0.453   3.078   2.047 -0.2814 -2.1643 -0.0471
 1056TIP3    H224728   0.577   3.001   2.086  0.2426 -1.0423  0.5501
 1057TIP3   OH224729   1.570   5.312   1.373 -0.7511 -0.0741  0.5603
 1057TIP3    H124730   1.634   5.356   1.429 -1.0694 -0.0255  0.8847
 1057TIP3    H224731   1.533   5.383   1.319  1.7584 -0.4860 -1.9667
 1058TIP3   OH224732   5.781   1.574   8.584  0.5876  0.1390 -0.1435
 1058TIP3    H124733   5.754   1.492   8.625  1.3970  0.2835  0.7244
 1058TIP3    H224734   5.872   1.585   8.611  2.0327 -0.9530 -3.8850
 1059TIP3   OH224735   1.796   3.400   0.030  0.4370  0.1628 -0.1999
 1059TIP3    H124736   1.822   3.481   0.075 -0.7626  0.7993 -0.6031
 1059TIP3    H224737   1.758   3.430  -0.053  0.1339 -0.8331 -0.4364
 1060TIP3   OH224738   4.977   2.094   1.316 -0.0387  0.6651  0.8392
 1060TIP3    H124739   4.929   2.084   1.398 -2.9431  0.2460 -0.7871
 1060TIP3    H224740   5.050   2.152   1.338  0.4170 -0.9277  4.0765
 1061TIP3   OH224741   5.069   0.606   1.053 -0.0428  0.0572  0.1561
 1061TIP3    H124742   5.021   0.524   1.039  0.9188 -1.0289  2.5665
 1061TIP3    H224743   5.031   0.643   1.132  2.6139 -0.6051  1.8947
 1062TIP3   OH224744   6.813   5.803   6.893  0.3547 -0.2705  0.7780
 1062TIP3    H124745   6.794   5.884   6.941  0.4410  0.2765 -0.0955
 1062TIP3    H224746   6.731   5.753   6.897 -0.3936  0.7912 -0.4638
 1063TIP3   OH224747   5.567   0.539   6.950  0.0210  0.5218  0.6043
 1063TIP3    H124748   5.476   0.518   6.926  0.1662  0.0529  0.4568
 1063TIP3    H224749   5.620   0.494   6.885  0.3849  0.1821  1.1244
 1064TIP3   OH224750   3.725   6.378   0.017 -0.3145 -0.2039  0.3340
 1064TIP3    H124751   3.796   6.315   0.008  0.1431  0.2350  0.8505
 1064TIP3    H224752   3.645   6.326   0.007  0.0425 -0.9592  1.3188
 1065TIP3   OH224753   2.121   1.892   6.864 -0.4247 -0.0677  0.3879
 1065TIP3    H124754   2.139   1.955   6.795 -2.1312  0.6754  0.5649
 1065TIP3    H224755   2.138   1.939   6.945 -2.6117  0.5715  0.5543
 1066TIP3   OH224756   0.316   4.057   1.763  0.6073 -0.3915  0.2893
 1066TIP3    H124757   0.387   4.116   1.786  2.0637 -2.2225  0.7861
 1066TIP3    H224758   0.360   3.976   1.735 -1.2739 -1.3536 -0.0917
 1067TIP3   OH224759   5.655   5.877   0.775  0.1381  0.3220  0.2475
 1067TIP3    H124760   5.602   5.845   0.702  1.4075 -1.0362 -0.1108
 1067TIP3    H224761   5.730   5.818   0.778  1.0450  1.4886  1.4874
 1068TIP3   OH224762   4.094   5.226   8.475  0.0614  0.5566  0.1251
 1068TIP3    H124763   4.070   5.314   8.505 -2.4509 -0.2090  0.6156
 1068TIP3    H224764   4.095   5.233   8.379  1.6715  1.4762  0.1620
 1069TIP3   OH224765   6.459   2.960   1.392 -0.1887 -0.0022  0.3476
 1069TIP3    H124766   6.519   2.916   1.331  0.4555  2.2044 -0.6957
 1069TIP3    H224767   6.503   2.954   1.476 -0.6250 -2.2167  0.4979
 1070TIP3   OH224768   3.561   6.158   1.690 -0.2599 -1.0370  0.3494
 1070TIP3    H124769   3.547   6.067   1.665  0.5495 -1.2963  0.8119
 1070TIP3    H224770   3.594   6.201   1.611 -0.2563 -1.2301  0.2470
 1071TIP3   OH224771   4.695   3.665   7.616  0.0220 -0.3230  0.3739
 1071TIP3    H124772   4.774   3.717   7.607 -0.8864  1.1678  0.6431
 1071TIP3    H224773   4.726   3.579   7.645  1.7754 -0.8129 -2.5685
 1072TIP3   OH224774   2.899   3.442   1.212 -0.0539  0.1578  0.4324
 1072TIP3    H124775   2.851   3.522   1.188 -0.0941  0.4081  1.3090
 1072TIP3    H224776   2.852   3.408   1.288  0.3110 -0.3819  0.4189
 1073TIP3   OH224777   3.515   6.579   1.087 -0.7985 -0.6517 -0.1166
 1073TIP3    H124778   3.488   6.656   1.037  0.3652 -1.5947 -2.3450
 1073TIP3    H224779   3.604   6.599   1.115 -0.7406 -0.9147 -0.1115
 1074TIP3   OH224780   6.402   2.855   1.802 -0.2784  0.1110 -0.5178
 1074TIP3    H124781   6.351   2.783   1.764 -0.7816 -0.3289  0.9322
 1074TIP3    H224782   6.481   2.858   1.749 -1.2216 -0.0453 -1.9963
 1075TIP3   OH224783   2.432   1.003   1.685 -0.4219  0.4376  0.3559
 1075TIP3    H124784   2.366   0.940   1.714 -0.4596 -0.5484 -1.6971
 1075TIP3    H224785   2.492   1.011   1.759 -0.4867 -1.9463  0.7434
 1076TIP3   OH224786   1.380   3.426   6.268  0.1899 -0.6470 -0.0937
 1076TIP3    H124787   1.342   3.359   6.211 -0.8493 -0.5337  0.4262
 1076TIP3    H224788   1.458   3.456   6.222 -1.0617  0.0429 -1.9016
 1077TIP3   OH224789   2.108   2.741   0.495 -0.0596  0.8509 -0.3789
 1077TIP3    H124790   2.097   2.647   0.481 -0.2892  0.9994 -1.2830
 1077TIP3    H224791   2.018   2.775   0.492 -0.0368  1.0163  0.6261
 1078TIP3   OH224792   3.758   2.947   1.124 -0.1846  0.2014  0.0597
 1078TIP3    H124793   3.755   2.998   1.043 -1.2732 -1.3902 -0.9584
 1078TIP3    H224794   3.847   2.959   1.156  0.6697 -0.0788 -2.0339
 1079TIP3   OH224795   4.784   4.552   6.756 -1.0573  0.8573  0.3774
 1079TIP3    H124796   4.874   4.535   6.783 -0.3094 -0.5208 -2.5346
 1079TIP3    H224797   4.776   4.647   6.757  2.2268  1.4678 -3.9359
 1080TIP3   OH224798   5.261   4.608   7.621  0.3029  0.1894 -0.2232
 1080TIP3    H124799   5.230   4.541   7.683 -1.0597  0.6005 -0.4290
 1080TIP3    H224800   5.356   4.604   7.628  0.2101 -0.5395  1.0899
 1081TIP3   OH224801   5.877   6.530   7.167  0.8261  0.1945 -0.1457
 1081TIP3    H124802   5.967   6.532   7.198  1.0373  0.9450 -0.7882
 1081TIP3    H224803   5.831   6.592   7.224  0.7708  0.0325 -0.0106
 1082TIP3   OH224804   6.105   1.146   2.141  0.1146 -1.0184  0.3214
 1082TIP3    H124805   6.158   1.167   2.063 -1.6402 -1.3048 -1.0024
 1082TIP3    H224806   6.158   1.178   2.214  2.2409 -1.5515 -0.8942
 1083TIP3   OH224807   6.608   4.157   7.228  0.3076 -0.1460  0.1765
 1083TIP3    H124808   6.562   4.217   7.287 -0.4101  1.3178 -1.7545
 1083TIP3    H224809   6.667   4.108   7.285 -0.1111  1.4048  2.0606
 1084TIP3   OH224810   1.421   3.059   8.130  0.2929 -1.0249 -1.3234
 1084TIP3    H124811   1.452   3.088   8.216  1.4552 -2.5082 -1.2156
 1084TIP3    H224812   1.456   2.971   8.120 -2.6364 -2.2141 -1.8967
 1085TIP3   OH224813   5.763   3.703   6.748  0.1730 -0.0611 -0.7507
 1085TIP3    H124814   5.737   3.645   6.676  0.9557  0.6916 -1.6626
 1085TIP3    H224815   5.720   3.786   6.728 -1.2986 -0.4071  0.7772
 1086TIP3   OH224816   5.028   2.950   7.687 -0.3336  0.1619 -0.3238
 1086TIP3    H124817   4.975   2.975   7.763 -0.1647  0.2653 -0.2395
 1086TIP3    H224818   4.964   2.925   7.621 -0.4707 -1.2556  0.2990
 1087TIP3   OH224819   5.633   1.768   0.872  0.2084  0.0764 -0.4811
 1087TIP3    H124820   5.545   1.789   0.903  0.1211  0.7301 -1.1364
 1087TIP3    H224821   5.625   1.680   0.835  0.3232 -0.7341  1.3294
 1088TIP3   OH224822   0.321   2.580   8.301 -1.1771  0.3050  0.5964
 1088TIP3    H124823   0.397   2.528   8.277 -0.8750  0.8580  0.3389
 1088TIP3    H224824   0.357   2.663   8.334 -1.6498  0.3688  0.9644
 1089TIP3   OH224825   6.110   6.707   6.720 -0.5101 -0.1457  0.0335
 1089TIP3    H124826   6.020   6.726   6.695 -1.1047  0.0415  2.1298
 1089TIP3    H224827   6.161   6.727   6.642 -2.1272  1.0937 -0.7760
 1090TIP3   OH224828   5.522   2.122   2.123 -0.0786 -0.2471  0.4230
 1090TIP3    H124829   5.562   2.145   2.039 -1.2232 -0.5932 -0.2527
 1090TIP3    H224830   5.592   2.081   2.173  0.8085  0.5854 -0.0892
 1091TIP3   OH224831   5.741   4.524   0.620  1.1603  0.3057  0.1434
 1091TIP3    H124832   5.689   4.514   0.700 -0.5781  1.0066 -0.8387
 1091TIP3    H224833   5.803   4.451   0.622  0.7798 -0.0113  1.8454
 1092TIP3   OH224834   2.023   3.904   6.731 -0.6315  0.2430 -0.0825
 1092TIP3    H124835   1.996   3.969   6.795  0.3717 -0.0567  0.6703
 1092TIP3    H224836   2.038   3.953   6.650  0.2963  0.9859  0.5274
 1093TIP3   OH224837   2.600   2.916   7.874 -0.1672 -0.1549  0.5724
 1093TIP3    H124838   2.611   2.860   7.952  1.5488 -0.2176  0.3272
 1093TIP3    H224839   2.660   2.989   7.889 -2.0008  1.3872  0.6356
 1094TIP3   OH224840   0.862   0.598   2.330  0.4644  0.2641  0.3593
 1094TIP3    H124841   0.875   0.693   2.322  0.9848  0.0511 -1.7226
 1094TIP3    H224842   0.940   0.559   2.291  0.2423 -1.0404  1.1543
 1095TIP3   OH224843   0.018   0.554   7.846  0.2117 -0.3775 -0.1653
 1095TIP3    H124844  -0.027   0.636   7.827  2.2669  0.6826 -0.8609
 1095TIP3    H224845   0.035   0.516   7.760 -1.5038 -2.0397  0.1804
 1096TIP3   OH224846   5.275   6.521   6.682 -0.4693 -0.0975 -0.3270
 1096TIP3    H124847   5.280   6.574   6.762  0.8634  0.9119 -1.0506
 1096TIP3    H224848   5.365   6.497   6.663 -0.9612 -1.9297 -0.5183
 1097TIP3   OH224849   2.631   0.761   1.432  0.3477 -0.0344  0.0776
 1097TIP3    H124850   2.654   0.714   1.512  1.0291 -1.5439 -0.9485
 1097TIP3    H224851   2.536   0.769   1.435  0.4815  1.3778  1.7825
 1098TIP3   OH224852   1.876   2.980   0.231 -0.4439 -0.0606 -0.1908
 1098TIP3    H124853   1.885   3.056   0.289  0.3446 -0.0510 -0.3208
 1098TIP3    H224854   1.842   2.910   0.288  1.1929 -0.3174  0.5243
 1099TIP3   OH224855   3.957   1.629   1.830  0.0791  0.2530  0.3620
 1099TIP3    H124856   3.980   1.541   1.861 -1.0720  0.1334  0.9047
 1099TIP3    H224857   3.871   1.646   1.867  0.0939  1.4390 -0.1147
 1100TIP3   OH224858   0.565   1.474   8.344  0.0350 -0.4108  0.2376
 1100TIP3    H124859   0.497   1.439   8.286 -1.3150 -0.2008  1.6149
 1100TIP3    H224860   0.614   1.396   8.373 -1.6456 -1.0070  1.6659
 1101TIP3   OH224861   3.910   4.890   1.318 -0.1906  0.4589 -0.1175
 1101TIP3    H124862   3.906   4.795   1.317  1.4459  0.3283  0.8963
 1101TIP3    H224863   3.961   4.913   1.240  0.3374  0.4090  0.2043
 1102TIP3   OH224864   0.255   1.173   0.189 -0.2469  0.2326  0.2831
 1102TIP3    H124865   0.296   1.207   0.268  1.0841 -3.1748  1.2379
 1102TIP3    H224866   0.251   1.079   0.202 -1.9742 -0.2912 -2.8542
 1103TIP3   OH224867   5.357   4.951   7.403  0.0802  0.0049 -0.0825
 1103TIP3    H124868   5.404   4.963   7.486  1.6894  0.0248 -0.9620
 1103TIP3    H224869   5.383   4.863   7.374  1.4090  0.8688 -1.6741
 1104TIP3   OH224870   5.779   1.816   1.411 -0.3305  0.0998 -0.0990
 1104TIP3    H124871   5.699   1.868   1.408 -0.0816  0.5517  0.7229
 1104TIP3    H224872   5.802   1.802   1.320 -0.4115  1.4252 -0.3351
 1105TIP3   OH224873   2.439   5.206   6.543 -0.1064  0.5674 -0.1862
 1105TIP3    H124874   2.403   5.168   6.463 -2.1666 -1.6312  1.6258
 1105TIP3    H224875   2.420   5.300   6.536 -1.3288  0.2491 -1.7390
 1106TIP3   OH224876   0.824   3.111   0.387  0.0125  1.1407 -0.0072
 1106TIP3    H124877   0.758   3.126   0.455  0.9856  1.8154  0.8077
 1106TIP3    H224878   0.892   3.175   0.405  0.9840  0.3369 -0.7174
 1107TIP3   OH224879   1.998   0.844   6.689 -0.2370  0.0860 -0.0825
 1107TIP3    H124880   1.959   0.833   6.775 -0.5068 -1.4658 -0.3732
 1107TIP3    H224881   2.052   0.766   6.677 -0.1786  0.2945 -1.2928
 1108TIP3   OH224882   6.742   0.437   8.347  0.3072  0.2420 -0.2819
 1108TIP3    H124883   6.667   0.380   8.358  0.2556  0.4203  0.3279
 1108TIP3    H224884   6.710   0.509   8.292 -0.1746  0.6802  0.5508
 1109TIP3   OH224885   2.697   2.714   0.042  0.0095  0.2771 -0.5355
 1109TIP3    H124886   2.675   2.648  -0.024 -1.5599  1.2394 -1.0153
 1109TIP3    H224887   2.756   2.668   0.102 -0.6231 -1.4049 -1.1280
 1110TIP3   OH224888   2.497   5.158   1.039 -0.8518  0.6790 -0.5597
 1110TIP3    H124889   2.441   5.235   1.053 -0.3678  0.9767 -0.2301
 1110TIP3    H224890   2.456   5.112   0.966 -2.1869  0.2523  0.4240
 1111TIP3   OH224891   0.997   4.012   2.276  0.4161  0.2144  0.2778
 1111TIP3    H124892   1.007   3.922   2.306 -0.0908 -0.2661 -0.9158
 1111TIP3    H224893   0.953   4.004   2.191 -1.0290  1.6610  0.8390
 1112TIP3   OH224894   4.569   2.427   7.710 -0.3588  0.1405 -0.3054
 1112TIP3    H124895   4.642   2.374   7.742 -0.0855  0.7664  0.1360
 1112TIP3    H224896   4.565   2.408   7.617  0.2625 -0.0345 -0.3033
 1113TIP3   OH224897   3.202   2.382   7.235  0.3510  0.3817  0.1170
 1113TIP3    H124898   3.255   2.448   7.189 -0.9147  1.3960  0.0548
 1113TIP3    H224899   3.123   2.375   7.182  1.4562 -3.1012 -1.3220
 1114TIP3   OH224900   4.350   3.156   6.626  0.3526  0.0484  0.0200
 1114TIP3    H124901   4.363   3.240   6.581  1.8407 -1.0693 -1.7903
 1114TIP3    H224902   4.271   3.120   6.586  0.8232 -0.2599 -0.6654
 1115TIP3   OH224903   6.804   2.720   1.541  0.5542  0.2308 -0.2897
 1115TIP3    H124904   6.878   2.696   1.486 -0.0239 -0.4621 -0.8006
 1115TIP3    H224905   6.828   2.691   1.629  1.0030  0.2571 -0.4053
 1116TIP3   OH224906   4.407   0.320   1.161 -0.2546 -0.2687 -0.4592
 1116TIP3    H124907   4.400   0.401   1.211  0.0843 -1.1075  0.9979
 1116TIP3    H224908   4.317   0.298   1.137 -0.2780  0.9958 -1.6834
 1117TIP3   OH224909   5.722   1.337   1.823  0.3367 -0.8653 -0.5384
 1117TIP3    H124910   5.781   1.388   1.768 -0.6192  0.0221 -0.7716
 1117TIP3    H224911   5.780   1.282   1.876  1.3903  0.2675 -0.4642
 1118TIP3   OH224912   0.810   1.982   0.351  0.3820 -0.2154  0.1325
 1118TIP3    H124913   0.715   1.973   0.353  0.5701 -2.8061  0.6000
 1118TIP3    H224914   0.831   2.035   0.428 -0.6078 -0.7128  0.7602
 1119TIP3   OH224915   0.515   1.111   5.955 -0.2518  0.0355 -0.2434
 1119TIP3    H124916   0.450   1.153   6.011 -0.2529 -0.3100  0.0186
 1119TIP3    H224917   0.555   1.183   5.906  0.9042  0.5802  1.3957
 1120TIP3   OH224918   0.212   1.497   2.313 -0.6048 -0.0536  0.1075
 1120TIP3    H124919   0.194   1.406   2.336  0.4387 -0.1835  0.4995
 1120TIP3    H224920   0.298   1.514   2.352 -0.0723  0.6115 -1.3222
 1121TIP3   OH224921   3.173   1.057   2.288  0.1392  0.0488  0.1397
 1121TIP3    H124922   3.177   1.124   2.220  1.0445 -0.4583 -0.3165
 1121TIP3    H224923   3.081   1.032   2.291 -0.0596  0.7027 -0.2781
 1122TIP3   OH224924   5.331   1.927   1.757 -0.0332 -0.1078 -0.6001
 1122TIP3    H124925   5.381   1.856   1.717 -0.9258  0.2518 -2.4502
 1122TIP3    H224926   5.312   1.896   1.846  1.6810 -1.1029 -0.5530
 1123TIP3   OH224927   3.717   1.186   0.679  0.1034  0.5877 -0.0389
 1123TIP3    H124928   3.719   1.249   0.606 -0.5406  0.4202 -0.2042
 1123TIP3    H224929   3.778   1.117   0.652 -0.8442  0.0442 -0.8742
 1124TIP3   OH224930   6.649   3.812   1.771 -0.4379 -0.3265  0.1630
 1124TIP3    H124931   6.568   3.795   1.820  0.8466 -0.9243  2.2014
 1124TIP3    H224932   6.681   3.725   1.747 -0.6899 -0.0666 -1.2394
 1125TIP3   OH224933   1.198   5.849   1.254 -0.5512  0.3477  0.0489
 1125TIP3    H124934   1.114   5.806   1.236 -0.9490  0.9879  0.3783
 1125TIP3    H224935   1.175   5.927   1.304  0.0112  1.7834 -1.8324
 1126TIP3   OH224936   1.539   4.531   7.861  0.3035  0.1936  0.5341
 1126TIP3    H124937   1.478   4.566   7.796  0.8883 -0.2502 -0.2648
 1126TIP3    H224938   1.488   4.528   7.942 -1.1056 -1.1849 -0.3387
 1127TIP3   OH224939   4.415   5.113   8.197 -0.2480 -0.9783 -0.1151
 1127TIP3    H124940   4.425   5.128   8.291 -0.7440  2.0345 -0.4273
 1127TIP3    H224941   4.347   5.046   8.191 -0.3037 -1.1404  1.6582
 1128TIP3   OH224942   3.489   4.211   8.524  0.2531 -0.2462 -0.2364
 1128TIP3    H124943   3.571   4.244   8.561  1.0059 -1.3735 -0.8657
 1128TIP3    H224944   3.487   4.247   8.436  0.2153 -0.4699 -0.3259
 1129TIP3   OH224945   6.588   1.898   8.010  0.1974 -0.3195 -0.0637
 1129TIP3    H124946   6.615   1.989   8.023  3.0204 -1.3882  2.9162
 1129TIP3    H224947   6.629   1.872   7.928 -0.5092  0.9897 -0.8630
 1130TIP3   OH224948   3.494   5.182   0.919 -0.0716  0.1048 -0.1898
 1130TIP3    H124949   3.460   5.231   0.844 -2.0882  0.7107  1.0323
 1130TIP3    H224950   3.478   5.240   0.994 -3.3082 -2.6275  1.4553
 1131TIP3   OH224951   2.919   6.618   7.256  0.4753  0.4546 -0.1607
 1131TIP3    H124952   2.941   6.683   7.190 -0.6388  2.0606  0.9853
 1131TIP3    H224953   2.855   6.561   7.214  0.3507  0.9981 -0.7071
 1132TIP3   OH224954   0.742   6.014   0.456  0.6271 -0.1751  0.6068
 1132TIP3    H124955   0.802   6.065   0.402  1.0878 -0.6687  0.6436
 1132TIP3    H224956   0.790   5.934   0.476 -1.0094 -1.8604 -1.6655
 1133TIP3   OH224957   2.311   3.023   1.490 -0.4400  0.5857  0.6523
 1133TIP3    H124958   2.396   2.979   1.489 -0.2275  0.7486 -3.1416
 1133TIP3    H224959   2.269   2.993   1.571  2.9315  0.0756  2.3809
 1134TIP3   OH224960   2.589   4.316   7.287  0.6637 -0.2400  0.1114
 1134TIP3    H124961   2.610   4.253   7.217  1.3433  0.9383 -0.7757
 1134TIP3    H224962   2.526   4.270   7.342 -0.2382 -1.0586 -1.5235
 1135TIP3   OH224963   3.076   2.968   0.769 -0.5932 -0.1724  0.0670
 1135TIP3    H124964   2.988   3.003   0.780  0.3585  1.9999  1.5356
 1135TIP3    H224965   3.100   2.990   0.679 -1.4791 -0.6448 -0.2890
 1136TIP3   OH224966   6.045   2.883   0.908 -0.1438 -0.0123  0.1278
 1136TIP3    H124967   6.094   2.937   0.847  0.0204 -0.3041 -0.0014
 1136TIP3    H224968   6.077   2.908   0.994  0.2279 -0.1957  0.0443
 1137TIP3   OH224969   6.677   6.000   0.914  0.0441  0.4306  0.5985
 1137TIP3    H124970   6.689   6.075   0.971  0.0630 -0.0638  1.2587
 1137TIP3    H224971   6.629   5.937   0.967 -2.0254  0.8365 -0.6681
 1138TIP3   OH224972   1.748   6.778   1.350  0.5622  0.5313 -0.0464
 1138TIP3    H124973   1.778   6.687   1.356  0.4931  0.5218  0.1818
 1138TIP3    H224974   1.751   6.810   1.440  1.1316  0.9324 -0.2002
 1139TIP3   OH224975   0.304   6.220   6.234 -0.6357 -0.1443 -0.1974
 1139TIP3    H124976   0.310   6.295   6.292 -1.8912 -0.3330  0.2171
 1139TIP3    H224977   0.354   6.244   6.156 -0.2164  0.7231  0.3379
 1140TIP3   OH224978   6.367   1.703   1.908  0.3510  0.5062 -0.2614
 1140TIP3    H124979   6.309   1.775   1.934 -0.0591  0.3970 -0.8632
 1140TIP3    H224980   6.320   1.658   1.838  0.9513  0.1226 -0.4263
 1141TIP3   OH224981   2.588   4.094   0.665  0.0363 -0.2726 -0.4643
 1141TIP3    H124982   2.570   4.005   0.636 -1.1281 -0.6375  1.2438
 1141TIP3    H224983   2.538   4.149   0.605 -2.0114 -0.9833  0.4840
 1142TIP3   OH224984   2.559   3.806   2.127  0.3787 -0.1898  0.3383
 1142TIP3    H124985   2.470   3.839   2.124 -0.2575 -1.5511  2.1872
 1142TIP3    H224986   2.602   3.862   2.193  0.8142  0.2540 -0.3118
 1143TIP3   OH224987   3.269   4.854   8.194 -0.1228  0.5731  0.2265
 1143TIP3    H124988   3.324   4.787   8.155 -0.2416 -0.5824  1.9541
 1143TIP3    H224989   3.311   4.875   8.277  0.2123  3.0826 -0.4932
 1144TIP3   OH224990   6.721   1.770   7.802 -0.1130  0.2328  0.1410
 1144TIP3    H124991   6.786   1.828   7.762  1.4500  0.3993  2.6851
 1144TIP3    H224992   6.729   1.688   7.754  0.7471  0.8054 -0.7249
 1145TIP3   OH224993   6.667   0.214   0.041  0.1549  0.4827  0.1919
 1145TIP3    H124994   6.647   0.293  -0.010  0.4387 -0.1877 -0.9840
 1145TIP3    H224995   6.615   0.145   0.000  1.7490 -0.4396 -0.3645
 1146TIP3   OH224996   5.667   6.695   1.666  0.3464  0.1187 -0.4366
 1146TIP3    H124997   5.673   6.742   1.749 -0.7509  0.8822 -0.7632
 1146TIP3    H224998   5.601   6.744   1.616 -1.1478 -1.9796 -0.6444
 1147TIP3   OH224999   2.283   5.630   1.348  0.0897 -0.1820 -0.1298
 1147TIP3    H125000   2.313   5.581   1.271 -1.6601  0.6138 -1.3939
 1147TIP3    H225001   2.302   5.721   1.327  1.5148 -0.1028  1.3430
 1148TIP3   OH225002   0.491   2.485   0.254  0.6667 -0.1329  0.1882
 1148TIP3    H125003   0.547   2.489   0.332  2.5651 -0.9420 -1.0684
 1148TIP3    H225004   0.502   2.570   0.212  1.2346 -0.3950 -0.2139
 1149TIP3   OH225005   6.116   3.706   8.105 -0.0954  0.1233 -0.2882
 1149TIP3    H125006   6.144   3.615   8.116 -0.5482  0.1584  1.5642
 1149TIP3    H225007   6.198   3.755   8.094  0.1666 -0.4618 -1.0293
 1150TIP3   OH225008   2.938   3.407   8.464  0.3592  0.3334  0.3818
 1150TIP3    H125009   2.960   3.314   8.467 -3.4342 -0.8956 -2.3588
 1150TIP3    H225010   2.989   3.442   8.392 -1.5463 -0.9166 -1.7066
 1151TIP3   OH225011   6.646   1.805   6.798 -0.3924 -0.5969 -0.6258
 1151TIP3    H125012   6.706   1.869   6.759 -2.0148  0.2113 -1.8954
 1151TIP3    H225013   6.559   1.838   6.778 -1.3544 -1.0379  2.3029
 1152TIP3   OH225014   0.200   3.030   0.471 -0.4104 -0.0490 -0.2858
 1152TIP3    H125015   0.117   2.987   0.494  0.2306 -0.4577  1.3764
 1152TIP3    H225016   0.238   3.054   0.555  0.1525  2.1142 -1.0989
 1153TIP3   OH225017   2.840   3.550   0.825 -0.4906 -0.7269  0.5205
 1153TIP3    H125018   2.877   3.604   0.895  0.9675 -1.7079  0.5548
 1153TIP3    H225019   2.913   3.495   0.796  0.0621  1.8887 -4.1383
 1154TIP3   OH225020   6.343   5.906   7.137  0.2512 -0.0165  0.2494
 1154TIP3    H125021   6.364   5.893   7.229  3.4389  2.4110  0.0364
 1154TIP3    H225022   6.405   5.850   7.090  0.1583  0.4368 -0.4292
 1155TIP3   OH225023   2.947   5.671   2.497 -0.2822 -0.4379 -0.4360
 1155TIP3    H125024   2.900   5.598   2.538  1.6438 -1.2425  0.4839
 1155TIP3    H225025   2.906   5.749   2.534 -0.1698 -1.1264  1.2390
 1156TIP3   OH225026   3.189   2.118   8.563  0.0742 -0.0345 -0.3733
 1156TIP3    H125027   3.162   2.174   8.636 -1.6538 -1.3499  0.0653
 1156TIP3    H225028   3.189   2.176   8.487  0.1144  0.9477  0.3521
 1157TIP3   OH225029   4.025   3.047   7.406 -0.4958  0.0584  0.4965
 1157TIP3    H125030   4.042   3.080   7.495 -1.1396  1.9982 -0.0421
 1157TIP3    H225031   4.093   2.981   7.392  0.5427  0.7492  1.9049
 1158TIP3   OH225032   0.309   6.019   6.804 -0.1795  0.2102  0.0231
 1158TIP3    H125033   0.256   5.964   6.746 -0.7040  1.3362 -0.6088
 1158TIP3    H225034   0.249   6.044   6.874  0.4614 -1.1681  1.0913
 1159TIP3   OH225035   1.994   6.730   0.851 -0.4542  1.0413 -0.3563
 1159TIP3    H125036   2.088   6.730   0.834 -0.4641 -1.5689 -0.8817
 1159TIP3    H225037   1.956   6.772   0.773  0.2695  2.9775  0.2831
 1160TIP3   OH225038   5.123   5.354   7.409  0.4952 -0.1946 -0.3133
 1160TIP3    H125039   5.079   5.346   7.494 -0.5427 -0.9749 -0.9034
 1160TIP3    H225040   5.053   5.341   7.345  0.8615  2.3930 -1.3421
 1161TIP3   OH225041   0.995   6.859   6.500 -0.0204 -0.0453 -0.6151
 1161TIP3    H125042   0.939   6.905   6.438  0.3739  0.7145 -0.4233
 1161TIP3    H225043   1.076   6.911   6.503 -0.3634  0.4569  1.2156
 1162TIP3   OH225044   4.110   4.124   1.105 -0.6342 -0.0805 -0.2047
 1162TIP3    H125045   4.197   4.093   1.130 -1.3182 -0.3494  2.0525
 1162TIP3    H225046   4.121   4.155   1.015  1.2572 -2.1694 -0.7898
 1163TIP3   OH225047   4.527   2.886   7.726 -0.5096  0.5493 -0.2317
 1163TIP3    H125048   4.611   2.905   7.684 -0.8838  1.8114 -0.4392
 1163TIP3    H225049   4.545   2.810   7.781  0.2936 -0.3871 -1.7265
 1164TIP3   OH225050   1.108   0.377   1.829  0.4382  0.1882  0.3565
 1164TIP3    H125051   1.064   0.457   1.855 -1.3913 -0.2337 -1.2275
 1164TIP3    H225052   1.081   0.312   1.894 -0.4796  0.1843 -0.0133
 1165TIP3   OH225053   1.461   1.161   0.077 -0.3874  0.0170  0.1753
 1165TIP3    H125054   1.473   1.075   0.038 -2.2318 -0.9225  1.5198
 1165TIP3    H225055   1.535   1.171   0.137  0.9023  0.2653 -1.3937
 1166TIP3   OH225056   1.715   3.571   8.476 -0.2970 -0.1592 -0.0569
 1166TIP3    H125057   1.746   3.661   8.471 -1.2420  0.1686 -0.1782
 1166TIP3    H225058   1.644   3.566   8.412 -0.6221 -0.8390  0.3415
 1167TIP3   OH225059   3.194   5.900   7.802  0.0918 -0.8062 -0.4939
 1167TIP3    H125060   3.249   5.976   7.782 -0.4273 -0.1863  0.3761
 1167TIP3    H225061   3.112   5.918   7.756 -0.2662 -0.5143  0.2523
 1168TIP3   OH225062   6.629   0.469   6.598 -0.3330  0.2860 -0.4938
 1168TIP3    H125063   6.723   0.457   6.585 -0.1452  0.5343  0.5911
 1168TIP3    H225064   6.589   0.395   6.551  0.3746  0.3207 -1.1754
 1169TIP3   OH225065   6.101   5.804   7.908  0.3046  0.5521 -0.2780
 1169TIP3    H125066   6.150   5.854   7.843 -0.0551  2.2815  0.7123
 1169TIP3    H225067   6.148   5.818   7.990  0.0234 -0.5288  0.0954
 1170TIP3   OH225068   3.912   2.946   1.927 -0.3533 -0.3299 -0.1117
 1170TIP3    H125069   4.005   2.945   1.948 -0.7079 -1.8873  1.7067
 1170TIP3    H225070   3.909   2.954   1.831  1.5569  1.5688 -0.0849
 1171TIP3   OH225071   5.197   2.505   8.192 -0.2854 -0.4691  0.3928
 1171TIP3    H125072   5.244   2.516   8.275 -2.3079 -1.8921  1.8330
 1171TIP3    H225073   5.126   2.569   8.196 -0.4408 -0.5915 -0.2568
 1172TIP3   OH225074   1.767   4.664   7.353 -0.2285  0.2908 -0.8118
 1172TIP3    H125075   1.677   4.685   7.376  0.2745  0.6876  0.9098
 1172TIP3    H225076   1.784   4.716   7.274 -0.3364  3.2477  0.9661
 1173TIP3   OH225077   1.356   1.820   7.277  0.3477 -0.3875 -0.3477
 1173TIP3    H125078   1.319   1.874   7.347  1.0765 -1.1084  0.6394
 1173TIP3    H225079   1.312   1.850   7.197  0.2387  1.1722  0.2554
 1174TIP3   OH225080   4.933   4.081   1.237  0.3428 -0.0744 -0.4051
 1174TIP3    H125081   4.841   4.053   1.242  0.6772 -1.3869 -1.1416
 1174TIP3    H225082   4.983   3.999   1.239  1.5309  0.6387  0.4119
 1175TIP3   OH225083   6.511   2.428   7.463 -0.4303 -0.3153 -0.0552
 1175TIP3    H125084   6.441   2.379   7.421 -0.8064  0.0315  0.1532
 1175TIP3    H225085   6.471   2.512   7.485 -0.7575 -1.0331  2.4653
 1176TIP3   OH225086   1.851   4.189   0.767  0.6706 -0.0311 -0.2336
 1176TIP3    H125087   1.786   4.120   0.758 -0.3309  0.9615 -0.8869
 1176TIP3    H225088   1.923   4.149   0.815 -1.1617 -0.6936  2.1256
 1177TIP3   OH225089   6.283   2.099   8.573 -0.5222  0.3059 -0.6371
 1177TIP3    H125090   6.325   2.161   8.632 -0.0013 -0.2744 -0.3896
 1177TIP3    H225091   6.342   2.095   8.497  0.4897 -1.3251  0.1699
 1178TIP3   OH225092   4.172   2.986   2.173  0.1835  0.0195  0.1353
 1178TIP3    H125093   4.220   2.980   2.255  2.0783 -1.5061 -1.0044
 1178TIP3    H225094   4.183   3.077   2.146  1.0954  0.0938  0.7022
 1179TIP3   OH225095   2.691   6.854   6.417 -0.1701  0.7110  0.1582
 1179TIP3    H125096   2.781   6.823   6.427 -0.7835 -0.6470  1.9990
 1179TIP3    H225097   2.667   6.827   6.329  0.3249 -1.5363  0.6350
 1180TIP3   OH225098   4.182   4.950   8.162 -0.3165 -0.1825 -0.2376
 1180TIP3    H125099   4.118   5.021   8.170  0.4252  0.3386  1.7379
 1180TIP3    H225100   4.130   4.870   8.173 -1.0311  0.0514 -1.6375
 1181TIP3   OH225101   5.796   1.599   1.635 -0.1834  0.1477  0.0804
 1181TIP3    H125102   5.866   1.534   1.641  1.4780  1.9763  3.4106
 1181TIP3    H225103   5.821   1.653   1.560 -0.5985 -1.8265 -1.5810
 1182TIP3   OH225104   2.000   0.595   7.744  0.1013 -0.9106 -0.0696
 1182TIP3    H125105   1.979   0.634   7.829  1.0109  1.1762 -0.7522
 1182TIP3    H225106   1.990   0.501   7.759 -1.4489 -0.5190  1.8657
 1183TIP3   OH225107   0.571   1.779   6.160 -0.1581 -0.1986  0.2239
 1183TIP3    H125108   0.634   1.768   6.089 -0.1659 -1.0540  0.3310
 1183TIP3    H225109   0.591   1.865   6.197 -0.5259  0.5097 -1.1643
 1184TIP3   OH225110   4.923   4.296   2.503  0.7125  0.3014 -0.4656
 1184TIP3    H125111   5.001   4.254   2.465  0.7702  1.2627 -1.4377
 1184TIP3    H225112   4.950   4.386   2.520 -0.1952  0.6613 -0.8682
 1185TIP3   OH225113   6.341   4.872   1.306  0.5196  0.3900 -0.3468
 1185TIP3    H125114   6.251   4.886   1.277  0.3247 -0.2861 -0.0795
 1185TIP3    H225115   6.340   4.786   1.348  1.2650  0.4271 -0.2377
 1186TIP3   OH225116   2.183   3.626   0.482  0.4992  0.5911 -0.1347
 1186TIP3    H125117   2.179   3.556   0.418  2.5802  0.0452  0.2348
 1186TIP3    H225118   2.185   3.706   0.430  1.5397  0.1878 -0.7512
 1187TIP3   OH225119   2.455   4.496   0.088  0.1123  0.0006 -0.0433
 1187TIP3    H125120   2.489   4.468   0.173  0.5432  2.0974  0.5314
 1187TIP3    H225121   2.486   4.429   0.026  1.7570 -0.3474  1.0973
 1188TIP3   OH225122   1.647   6.281   6.189 -0.3308 -0.1111  0.3316
 1188TIP3    H125123   1.616   6.363   6.150 -0.1062 -1.6620 -3.6134
 1188TIP3    H225124   1.722   6.256   6.135  1.2680 -1.6781  3.0702
 1189TIP3   OH225125   1.711   2.888   0.927 -0.0915 -0.4145 -0.0126
 1189TIP3    H125126   1.638   2.917   0.981 -1.0053 -0.7836 -1.0180
 1189TIP3    H225127   1.766   2.966   0.917 -1.0560  0.2335 -0.3713
 1190TIP3   OH225128   4.244   2.617   7.201 -0.4500  0.2730 -0.0395
 1190TIP3    H125129   4.317   2.669   7.167  0.1312  0.1409  0.9650
 1190TIP3    H225130   4.230   2.551   7.134 -0.0573  0.6780 -0.5375
 1191TIP3   OH225131   1.245   6.592   5.819  0.5234 -0.2893  0.5823
 1191TIP3    H125132   1.163   6.636   5.841  0.7885  0.0016  1.0198
 1191TIP3    H225133   1.311   6.662   5.822  0.6501 -0.3314 -0.7133
 1192TIP3   OH225134   4.219   2.853   7.713 -0.3563 -0.3430 -0.4263
 1192TIP3    H125135   4.193   2.769   7.750 -0.5239 -0.4238 -0.7265
 1192TIP3    H225136   4.137   2.893   7.685 -0.6109  1.0437  2.0273
 1193TIP3   OH225137   6.832   2.815   0.217 -0.2657  0.1508  0.2531
 1193TIP3    H125138   6.773   2.799   0.291  1.1783 -1.0384  1.2339
 1193TIP3    H225139   6.919   2.820   0.258  0.6190 -0.9770 -1.4122
 1194TIP3   OH225140   5.917   0.899   1.805  0.1801  0.7499  0.2015
 1194TIP3    H125141   5.999   0.854   1.821 -0.3892 -0.2036  0.4797
 1194TIP3    H225142   5.849   0.836   1.827 -0.6395  1.1782 -0.9502
 1195TIP3   OH225143   6.629   1.174   0.678 -0.0658  0.5404  0.5848
 1195TIP3    H125144   6.708   1.222   0.705  0.8746 -1.8672  2.4719
 1195TIP3    H225145   6.563   1.197   0.744  0.5224 -0.9680  1.7644
 1196TIP3   OH225146   1.387   5.922   0.277  0.4945  0.0933 -0.1018
 1196TIP3    H125147   1.480   5.915   0.258  0.8556  0.0893  1.5197
 1196TIP3    H225148   1.380   5.906   0.371 -1.1045  0.4318 -0.1278
 1197TIP3   OH225149   0.515   1.959   0.373  0.0571 -0.3690  0.1795
 1197TIP3    H125150   0.481   2.004   0.450  0.9631  0.6550 -0.0051
 1197TIP3    H225151   0.491   2.015   0.299 -1.4908 -1.7216 -0.4149
 1198TIP3   OH225152   0.194   2.634   8.543 -0.0095 -0.5836 -0.0951
 1198TIP3    H125153   0.111   2.661   8.504  0.1632 -0.1118 -0.1488
 1198TIP3    H225154   0.245   2.600   8.470 -0.3321 -1.3194  0.0201
 1199TIP3   OH225155   0.967   2.418   1.667  0.0986 -0.8209 -0.0717
 1199TIP3    H125156   1.038   2.357   1.686 -0.4090 -0.7526  2.4743
 1199TIP3    H225157   0.923   2.430   1.752 -1.6792  0.7247 -1.1372
 1200TIP3   OH225158   1.636   4.710   8.511  0.8590 -0.9054  0.1381
 1200TIP3    H125159   1.548   4.686   8.481 -0.1434 -0.0244  2.1568
 1200TIP3    H225160   1.692   4.638   8.481 -0.2311 -0.7688 -2.4822
 1201TIP3   OH225161   2.862   2.696   7.328 -0.0680  0.1643 -0.2550
 1201TIP3    H125162   2.920   2.735   7.263  1.9025 -0.5048  1.0218
 1201TIP3    H225163   2.809   2.633   7.277  1.8255 -0.7808 -1.1776
 1202TIP3   OH225164   3.160   5.170   0.609 -0.2703 -0.1737 -0.0716
 1202TIP3    H125165   3.255   5.170   0.619 -0.3398  1.8266  1.1512
 1202TIP3    H225166   3.126   5.158   0.698 -1.1898 -0.9774 -0.5004
 1203TIP3   OH225167   4.798   4.827   0.264  0.7609 -0.4271 -0.2673
 1203TIP3    H125168   4.822   4.822   0.171  1.8185 -0.3121 -0.0175
 1203TIP3    H225169   4.712   4.868   0.264  0.5153 -0.9212 -1.2279
 1204TIP3   OH225170   3.171   1.949   2.027 -0.3978  0.3945 -0.5230
 1204TIP3    H125171   3.252   1.990   2.057 -0.3998 -0.3684  0.5892
 1204TIP3    H225172   3.114   2.022   2.003 -0.6235  1.1195  1.9977
 1205TIP3   OH225173   4.367   5.190   7.883 -0.4421  0.4461 -0.5326
 1205TIP3    H125174   4.272   5.194   7.873 -0.3844  1.5972 -0.7642
 1205TIP3    H225175   4.382   5.123   7.950 -1.4523  0.6869 -0.0495
 1206TIP3   OH225176   2.613   6.676   7.365 -0.0671  0.0581 -0.1465
 1206TIP3    H125177   2.534   6.730   7.365 -0.7048 -0.8279 -1.1651
 1206TIP3    H225178   2.610   6.629   7.448  0.9835  2.2014  1.1958
 1207TIP3   OH225179   4.473   1.742   7.614  0.5976  0.2927  0.0304
 1207TIP3    H125180   4.508   1.769   7.529 -0.2454 -0.5489 -0.6066
 1207TIP3    H225181   4.463   1.647   7.606 -2.3023  0.5293 -0.0447
 1208TIP3   OH225182   1.000   6.433   6.630 -0.1187  0.7552  0.4848
 1208TIP3    H125183   0.940   6.449   6.557 -0.2400 -1.1749  0.1098
 1208TIP3    H225184   1.048   6.355   6.605  1.3165  1.2382  1.5807
 1209TIP3   OH225185   4.950   1.280   1.662  0.4185 -0.2874  0.4586
 1209TIP3    H125186   5.037   1.241   1.667 -0.5546 -2.6616  0.1201
 1209TIP3    H225187   4.965   1.368   1.627  2.7169 -0.3841  1.0539
 1210TIP3   OH225188   6.723   1.230   1.510  0.1943 -0.3999 -0.3379
 1210TIP3    H125189   6.754   1.268   1.592  0.4493  0.7222 -0.9356
 1210TIP3    H225190   6.629   1.249   1.508 -0.0444 -1.4544  0.2244
 1211TIP3   OH225191   3.449   4.090   0.294  0.2167 -0.7055  0.1453
 1211TIP3    H125192   3.402   4.072   0.376  0.2574 -0.7393  0.1615
 1211TIP3    H225193   3.401   4.163   0.255  0.7142 -0.1039  0.6295
 1212TIP3   OH225194   2.502   6.225   0.658  0.1532 -0.1596  0.6537
 1212TIP3    H125195   2.484   6.189   0.745  0.3577 -0.0690  0.7323
 1212TIP3    H225196   2.508   6.148   0.601 -1.1085 -0.1777  0.5029
 1213TIP3   OH225197   0.391   4.912   2.628 -0.2860 -0.1042 -0.1336
 1213TIP3    H125198   0.342   4.925   2.547 -1.7829  2.4792  1.0518
 1213TIP3    H225199   0.334   4.857   2.682 -1.0095  1.2464  0.5059
 1214TIP3   OH225200   2.911   4.730   7.855 -0.4370 -0.1874  0.2137
 1214TIP3    H125201   2.845   4.767   7.797 -1.9799 -0.3536  1.7689
 1214TIP3    H225202   2.939   4.803   7.911  0.7752 -0.1054 -0.4566
 1215TIP3   OH225203   0.523   1.069   0.037 -0.3668  0.2395  0.1285
 1215TIP3    H125204   0.437   1.107   0.058 -0.8354 -0.7763  0.0734
 1215TIP3    H225205   0.514   1.035  -0.052 -0.0797 -0.3374  0.3136
 1216TIP3   OH225206   0.437   5.799   0.099  0.3177  0.0583  0.0431
 1216TIP3    H125207   0.392   5.724   0.061  2.6151 -1.4284  0.0704
 1216TIP3    H225208   0.373   5.870   0.097 -1.3180 -1.3937 -1.7026
 1217TIP3   OH225209   2.762   4.693   0.611  0.0565  0.1471 -0.2633
 1217TIP3    H125210   2.748   4.787   0.626 -0.2027 -0.2104  2.0842
 1217TIP3    H225211   2.765   4.685   0.516 -3.3495  2.0724 -0.6982
 1218TIP3   OH225212   0.944   0.661   8.345 -0.1979 -0.1428 -0.2915
 1218TIP3    H125213   0.921   0.634   8.256 -0.6647 -0.4497 -0.0799
 1218TIP3    H225214   0.861   0.656   8.394 -0.2948  1.5479 -0.2153
 1219TIP3   OH225215   5.892   6.167   2.288 -0.9875 -0.0057 -0.0643
 1219TIP3    H125216   5.802   6.143   2.264 -1.4752 -0.9679  2.3697
 1219TIP3    H225217   5.946   6.097   2.252 -1.3489 -0.0182 -0.5871
 1220TIP3   OH225218   4.773   3.444   7.731 -0.1175  0.2774 -0.3377
 1220TIP3    H125219   4.758   3.414   7.821 -0.2340  0.1519 -0.3992
 1220TIP3    H225220   4.866   3.425   7.715 -0.7185 -2.3055 -1.2216
 1221TIP3   OH225221   0.827   4.523   8.458  0.0614  0.2491  0.0253
 1221TIP3    H125222   0.878   4.584   8.405 -0.9674  0.4071 -0.8287
 1221TIP3    H225223   0.777   4.578   8.517 -0.0731  0.1768 -0.0196
 1222TIP3   OH225224   1.097   2.288   6.169 -0.0089  0.5637 -0.3484
 1222TIP3    H125225   1.113   2.280   6.075  2.4183  0.8840 -0.0308
 1222TIP3    H225226   1.054   2.206   6.193 -0.2545  0.2897 -1.6578
 1223TIP3   OH225227   3.614   3.682   7.027 -0.5057  0.2733 -0.1247
 1223TIP3    H125228   3.527   3.705   6.994 -2.4649 -4.0845  1.2779
 1223TIP3    H225229   3.637   3.602   6.980  2.8763  1.2282 -0.4092
 1224TIP3   OH225230   2.001   2.055   7.567 -0.8926 -0.1057 -0.4088
 1224TIP3    H125231   1.943   1.997   7.617 -0.9317 -0.2014 -0.5671
 1224TIP3    H225232   2.046   2.106   7.635  1.3607 -2.3646 -0.0408
 1225TIP3   OH225233   2.760   0.959   8.409 -0.3467  0.9357  0.8672
 1225TIP3    H125234   2.690   1.000   8.358 -0.8018 -0.7985  0.0216
 1225TIP3    H225235   2.714   0.900   8.469  0.3707 -0.9666 -0.3674
 1226TIP3   OH225236   6.446   3.082   8.247 -0.4431  0.4257  0.0783
 1226TIP3    H125237   6.477   2.993   8.228  1.0684  1.3222 -2.0085
 1226TIP3    H225238   6.350   3.074   8.249 -0.3569 -1.1644 -0.5885
 1227TIP3   OH225239   2.720   5.332   6.892  0.1512 -0.0635 -0.5958
 1227TIP3    H125240   2.785   5.278   6.848  1.0683  0.5665 -0.0436
 1227TIP3    H225241   2.746   5.331   6.984 -2.1725 -2.0118  0.1487
 1228TIP3   OH225242   5.931   3.021   0.659 -0.0981 -0.1862  0.0824
 1228TIP3    H125243   5.913   3.052   0.570 -2.7697 -0.6865  0.3869
 1228TIP3    H225244   6.021   3.050   0.675 -0.0320  1.2314 -2.2124
 1229TIP3   OH225245   1.177   0.956   1.497  0.0210 -0.0897 -0.5475
 1229TIP3    H125246   1.219   0.975   1.413  0.8497 -4.1014 -1.2561
 1229TIP3    H225247   1.238   0.991   1.563  2.2178 -1.6266 -1.6286
 1230TIP3   OH225248   6.042   4.740   0.336 -0.5901 -0.0300  0.0466
 1230TIP3    H125249   6.008   4.795   0.265 -0.9585 -0.5635 -0.1989
 1230TIP3    H225250   6.116   4.788   0.370  0.3274 -0.2942 -1.4856
 1231TIP3   OH225251   0.473   2.068   7.969  0.4161 -0.5508  0.0220
 1231TIP3    H125252   0.466   2.130   7.896  3.0213 -0.5520 -0.3171
 1231TIP3    H225253   0.565   2.071   7.994 -0.4126 -0.4552  3.4723
 1232TIP3   OH225254   3.893   4.312   2.300  0.1170  0.1199  0.3459
 1232TIP3    H125255   3.904   4.311   2.396  1.1408 -0.7122  0.2447
 1232TIP3    H225256   3.979   4.341   2.267 -0.1469  0.1413 -0.3301
 1233TIP3   OH225257   6.434   4.179   0.904 -0.3416  0.3398 -0.3484
 1233TIP3    H125258   6.343   4.168   0.879 -0.9291  3.4239 -0.0197
 1233TIP3    H225259   6.466   4.249   0.847  0.4600  2.3734  2.3906
 1234TIP3   OH225260   1.436   5.347   7.551  0.4713 -0.7321  0.2697
 1234TIP3    H125261   1.373   5.401   7.597 -0.0140  0.1037 -1.3040
 1234TIP3    H225262   1.521   5.371   7.589  0.1210  0.1484  0.5104
 1235TIP3   OH225263   1.369   3.653   6.864 -0.5632  0.4683  0.5138
 1235TIP3    H125264   1.297   3.687   6.810 -1.3182 -0.6265  0.7934
 1235TIP3    H225265   1.325   3.621   6.943  0.3684  0.7770  1.1628
 1236TIP3   OH225266   1.129   5.308   7.161  0.0159  0.1315  0.3429
 1236TIP3    H125267   1.177   5.227   7.143 -0.3684 -0.0903  0.2846
 1236TIP3    H225268   1.165   5.340   7.244  0.4734  0.1357  0.1443
 1237TIP3   OH225269   2.492   5.404   7.322 -0.1214 -0.0626 -0.4227
 1237TIP3    H125270   2.573   5.413   7.273  0.0395 -0.0522 -0.1570
 1237TIP3    H225271   2.469   5.311   7.316  0.3901 -0.2406  0.2520
 1238TIP3   OH225272   1.884   2.892   7.192 -0.0758  0.1400  0.1271
 1238TIP3    H125273   1.886   2.798   7.210  1.9555 -0.0121 -0.5984
 1238TIP3    H225274   1.969   2.923   7.223 -0.5275  1.6605 -0.0902
 1239TIP3   OH225275   6.338   1.550   7.937  0.3582 -0.4178  0.0064
 1239TIP3    H125276   6.413   1.507   7.978  0.0610 -0.1236  0.9042
 1239TIP3    H225277   6.348   1.642   7.959 -1.3044 -0.6186  1.9415
 1240TIP3   OH225278   5.195   0.660   7.345  0.0489  0.5866 -0.2087
 1240TIP3    H125279   5.182   0.595   7.276  0.0763 -0.3032  0.6033
 1240TIP3    H225280   5.153   0.739   7.312 -2.1208 -0.5154 -0.2075
 1241TIP3   OH225281   2.171   0.983   0.479  0.5511 -0.4194 -0.4837
 1241TIP3    H125282   2.134   1.011   0.563  1.4208  2.0792 -0.8642
 1241TIP3    H225283   2.241   0.923   0.503  0.0520 -0.6258  0.5209
 1242TIP3   OH225284   6.027   5.483   0.259  0.5016 -0.0218  0.1432
 1242TIP3    H125285   5.932   5.475   0.255  0.4975  0.4393 -0.9913
 1242TIP3    H225286   6.043   5.540   0.335 -0.2251  1.0847 -0.4981
 1243TIP3   OH225287   1.375   4.535   2.115  0.2652 -0.1803  0.5341
 1243TIP3    H125288   1.384   4.499   2.027  0.7829  1.1768 -0.0015
 1243TIP3    H225289   1.465   4.557   2.141 -0.0090  0.5232  0.9107
 1244TIP3   OH225290   5.945   6.641   8.000  0.6069  0.3552 -0.3265
 1244TIP3    H125291   5.921   6.720   7.951 -2.2993 -0.1206  0.1237
 1244TIP3    H225292   5.876   6.578   7.977  0.5608 -0.7030  2.4049
 1245TIP3   OH225293   1.391   6.272   1.996  0.6531 -0.5298 -0.1105
 1245TIP3    H125294   1.311   6.324   1.992 -0.0844 -1.7030 -1.5449
 1245TIP3    H225295   1.414   6.255   1.905  1.7342 -1.4073  0.2936
 1246TIP3   OH225296   3.159   3.181   7.268 -0.5805 -0.0436 -0.0130
 1246TIP3    H125297   3.233   3.137   7.310 -2.2222 -0.8907  2.1582
 1246TIP3    H225298   3.082   3.142   7.308 -2.2087  1.5878 -1.3973
 1247TIP3   OH225299   2.452   2.619   8.360  0.4791  0.3525  0.1171
 1247TIP3    H125300   2.430   2.586   8.273  2.2927  0.2247 -0.3322
 1247TIP3    H225301   2.402   2.700   8.368 -1.3245 -0.6975 -0.1764
 1248TIP3   OH225302   2.187   0.735   8.244  0.1379  0.0478  0.5973
 1248TIP3    H125303   2.095   0.747   8.267  0.3894  0.2171  1.5690
 1248TIP3    H225304   2.197   0.640   8.234  0.2199 -0.1406  2.1896
 1249TIP3   OH225305   2.037   3.933   7.129 -0.4787  0.0294 -0.0402
 1249TIP3    H125306   2.017   4.003   7.068  0.7307  1.2882  0.9373
 1249TIP3    H225307   2.128   3.909   7.109 -0.6886 -0.8633  0.0265
 1250TIP3   OH225308   1.878   0.777   5.828  0.1331 -0.4345  0.2324
 1250TIP3    H125309   1.892   0.825   5.747  1.8885 -3.8272 -1.6612
 1250TIP3    H225310   1.961   0.734   5.846 -0.7606 -1.3144  2.8386
 1251TIP3   OH225311   0.074   3.209   0.158  0.1887  0.4028  0.0769
 1251TIP3    H125312   0.066   3.164   0.242 -0.0086 -0.3798 -0.3421
 1251TIP3    H225313   0.033   3.149   0.095  1.0893  0.5780 -0.7090
 1252TIP3   OH225314   1.703   3.977   8.451  0.4134  0.0511 -0.4929
 1252TIP3    H125315   1.789   3.945   8.427  0.8049  1.1145 -0.5618
 1252TIP3    H225316   1.642   3.912   8.415  1.1409 -0.1835 -1.3264
 1253TIP3   OH225317   4.475   0.326   8.245  0.2093 -0.0281  0.0269
 1253TIP3    H125318   4.548   0.377   8.207 -0.1239  1.3806  1.1733
 1253TIP3    H225319   4.397   0.372   8.215 -0.1199 -0.2168  0.5889
 1254TIP3   OH225320   3.298   0.858   7.658  0.3606  0.1394 -0.2618
 1254TIP3    H125321   3.283   0.772   7.618 -0.3225  0.4597 -0.6946
 1254TIP3    H225322   3.219   0.875   7.708  0.3308  0.6990 -0.4974
 1255TIP3   OH225323   6.225   1.166   6.854  0.0937  0.1394  0.1218
 1255TIP3    H125324   6.240   1.074   6.873 -1.0312 -0.5278 -1.9224
 1255TIP3    H225325   6.244   1.211   6.937  1.4177 -1.8017  0.9592
 1256TIP3   OH225326   0.898   5.192   5.957  0.0510 -0.0553  0.0417
 1256TIP3    H125327   0.960   5.216   5.888 -0.3331  0.1191 -0.2489
 1256TIP3    H225328   0.921   5.249   6.030 -0.3885  0.7051 -0.3982
 1257TIP3   OH225329   3.369   2.365   1.317  0.0038 -0.0017  0.5316
 1257TIP3    H125330   3.325   2.442   1.280 -0.6940  0.8040  2.8863
 1257TIP3    H225331   3.337   2.292   1.264 -1.9612  0.9244  0.3580
 1258TIP3   OH225332   4.216   0.898   7.609  0.1818  0.6106 -0.1071
 1258TIP3    H125333   4.278   0.950   7.558  0.5448  0.1061 -0.1838
 1258TIP3    H225334   4.253   0.809   7.609 -0.5397  0.2996 -0.1692
 1259TIP3   OH225335   1.120   1.836   8.641  0.5862 -0.5366 -0.2527
 1259TIP3    H125336   1.049   1.884   8.683  1.0115 -0.1129 -0.0037
 1259TIP3    H225337   1.198   1.890   8.656  0.9323 -0.9076 -0.6666
 1260TIP3   OH225338   4.630   1.230   2.440 -0.0072 -0.9920 -0.7184
 1260TIP3    H125339   4.658   1.317   2.412  1.1084 -1.7553 -2.0946
 1260TIP3    H225340   4.698   1.202   2.501 -0.7895 -0.6067  0.3664
 1261TIP3   OH225341   1.722   1.260   6.854 -0.8970  0.1289  0.1633
 1261TIP3    H125342   1.663   1.185   6.846 -0.6811 -0.0631  0.3618
 1261TIP3    H225343   1.736   1.289   6.764 -1.1081  0.0324  0.0975
 1262TIP3   OH225344   2.737   1.542   0.890 -0.5808  0.6454 -0.6468
 1262TIP3    H125345   2.787   1.512   0.966 -0.3069 -0.9673 -1.4093
 1262TIP3    H225346   2.707   1.461   0.848 -1.5609  1.5238 -1.7077
 1263TIP3   OH225347   1.060   1.772   8.334  0.8515  0.3331 -0.6470
 1263TIP3    H125348   1.037   1.679   8.338  3.6949 -0.4792 -1.2036
 1263TIP3    H225349   1.033   1.806   8.419  1.8197 -1.5479  0.4771
 1264TIP3   OH225350   2.277   0.543   7.493  0.1464 -0.1298 -0.1672
 1264TIP3    H125351   2.181   0.541   7.487  0.0856  0.3067  0.5841
 1264TIP3    H225352   2.298   0.484   7.565  0.3857  0.4089  0.2134
 1265TIP3   OH225353   1.889   2.662   7.353 -0.0892  0.4384 -0.1804
 1265TIP3    H125354   1.877   2.711   7.434 -0.6569  0.8000 -0.4820
 1265TIP3    H225355   1.881   2.570   7.380 -3.5259  0.5913 -0.3011
 1266TIP3   OH225356   0.783   5.229   6.273 -0.0096 -0.2297  0.1413
 1266TIP3    H125357   0.832   5.281   6.210  1.6192 -1.2172  0.5165
 1266TIP3    H225358   0.693   5.232   6.243  0.1046  2.3347 -0.1236
 1267TIP3   OH225359   1.657   3.207   7.019 -0.2197  0.0342 -0.2124
 1267TIP3    H125360   1.653   3.293   6.977  1.5902  0.1016 -0.3227
 1267TIP3    H225361   1.678   3.146   6.948 -2.1944 -0.6619 -0.2722
 1268TIP3   OH225362   5.079   6.133   7.220  0.3283 -0.0776 -0.2152
 1268TIP3    H125363   5.070   6.041   7.195 -0.7544 -0.8162  2.5890
 1268TIP3    H225364   5.019   6.180   7.161  0.6216 -1.1697 -1.4321
 1269TIP3   OH225365   5.175   0.832   0.647 -0.4200 -0.1618 -0.6493
 1269TIP3    H125366   5.172   0.736   0.656  0.2150 -0.0414  1.1852
 1269TIP3    H225367   5.203   0.846   0.557 -1.6384 -1.6823 -1.3173
 1270TIP3   OH225368   0.333   1.629   2.089 -0.0969  0.2610  0.1897
 1270TIP3    H125369   0.283   1.598   2.164 -0.1686  2.1496  0.9703
 1270TIP3    H225370   0.411   1.669   2.127 -0.5012  1.9439 -0.6534
 1271TIP3   OH225371   1.945   1.037   7.527 -0.4075  0.5664 -0.3261
 1271TIP3    H125372   1.953   1.008   7.618 -1.3947  0.8638 -0.1291
 1271TIP3    H225373   2.013   1.104   7.517 -0.8021  1.0988  0.4400
 1272TIP3   OH225374   2.036   2.445   7.965  0.1445 -0.2281  0.1988
 1272TIP3    H125375   1.956   2.477   8.007 -0.9456 -1.9811 -0.4398
 1272TIP3    H225376   2.104   2.452   8.033 -0.6007  0.9959  0.8420
 1273TIP3   OH225377   6.657   6.794   7.451  0.0252 -0.2986  0.5001
 1273TIP3    H125378   6.695   6.856   7.514  1.5009  0.0407 -0.6574
 1273TIP3    H225379   6.694   6.710   7.477  0.4698 -0.1922  0.2207
 1274TIP3   OH225380   6.181   1.838   8.578 -0.0513 -0.1121 -0.4623
 1274TIP3    H125381   6.201   1.931   8.587 -0.2002  0.0716 -1.7379
 1274TIP3    H225382   6.188   1.822   8.483 -0.7242 -1.2330 -0.3335
 1275TIP3   OH225383   0.127   3.962   1.262 -0.2439  0.3316  0.6622
 1275TIP3    H125384   0.112   3.905   1.337  0.4074 -0.1180  0.4628
 1275TIP3    H225385   0.143   3.902   1.189  1.5652  0.7385  0.6839
 1276TIP3   OH225386   4.069   0.173   0.311 -0.4475  0.6007  0.4743
 1276TIP3    H125387   4.038   0.178   0.402 -3.8469 -2.6094 -0.2548
 1276TIP3    H225388   4.149   0.120   0.316 -1.7945 -1.5067  1.5433
 1277TIP3   OH225389   0.624   2.482   8.141  0.2945  0.2551  0.2319
 1277TIP3    H125390   0.644   2.402   8.188 -1.0286 -1.5221 -2.0322
 1277TIP3    H225391   0.687   2.546   8.175  1.8905 -1.8985  1.6087
 1278TIP3   OH225392   0.677   5.428   1.336 -0.2941 -0.1548 -0.0120
 1278TIP3    H125393   0.686   5.470   1.250  2.8864  2.1652  1.2389
 1278TIP3    H225394   0.617   5.485   1.384 -0.1986 -0.0817  0.0217
 1279TIP3   OH225395   6.148   2.597   2.019 -0.5711 -0.1846  0.0640
 1279TIP3    H125396   6.062   2.638   2.006  0.2565  1.9442  0.9378
 1279TIP3    H225397   6.154   2.582   2.113  0.0847 -0.1795  0.0249
 1280TIP3   OH225398   1.292   6.313   8.348 -0.3187  0.1603  0.1026
 1280TIP3    H125399   1.366   6.257   8.368 -0.6995 -0.6578 -0.6743
 1280TIP3    H225400   1.255   6.337   8.433  0.0888 -0.4466  0.4522
 1281TIP3   OH225401   6.392   3.456   0.649 -0.1441 -0.1250  0.0074
 1281TIP3    H125402   6.311   3.423   0.609 -0.2100  0.5212 -0.4036
 1281TIP3    H225403   6.461   3.429   0.587 -0.2335  0.7740 -0.4959
 1282TIP3   OH225404   3.279   4.097   0.499  0.0654 -0.0451  0.3799
 1282TIP3    H125405   3.289   4.150   0.579  0.9898 -2.2277  1.7969
 1282TIP3    H225406   3.205   4.040   0.518  1.6237 -2.0874  0.6344
 1283TIP3   OH225407   3.325   3.520   1.519  0.7171  0.4286 -0.3337
 1283TIP3    H125408   3.347   3.428   1.530 -0.7231  0.2435  1.4507
 1283TIP3    H225409   3.329   3.556   1.608 -3.2552  0.9535 -0.1917
 1284TIP3   OH225410   6.243   6.186   7.437 -0.4234  0.4083 -0.1806
 1284TIP3    H125411   6.187   6.133   7.381 -1.3321  1.4593 -0.2970
 1284TIP3    H225412   6.298   6.235   7.375  0.8890 -0.8327 -0.0671
 1285TIP3   OH225413   2.140   1.408   6.406  0.0544  0.1992  0.1142
 1285TIP3    H125414   2.200   1.441   6.473 -1.1861  0.5011  1.1299
 1285TIP3    H225415   2.193   1.402   6.327  1.3144  0.8172  0.8746
 1286TIP3   OH225416   5.618   1.051   1.282 -0.1809 -0.0272 -0.1461
 1286TIP3    H125417   5.649   1.090   1.200  0.4356  0.8021  0.4623
 1286TIP3    H225418   5.540   1.102   1.304  1.0570  1.4727  1.0521
 1287TIP3   OH225419   3.760   0.434   1.581 -0.2157 -0.6914  0.1086
 1287TIP3    H125420   3.667   0.433   1.604  0.0512  0.7064  1.3661
 1287TIP3    H225421   3.783   0.526   1.577  0.9658 -1.0128 -0.9188
 1288TIP3   OH225422   0.755   1.138   1.167  0.7018  0.5836 -0.5368
 1288TIP3    H125423   0.735   1.076   1.237  2.8623 -0.3991 -0.7270
 1288TIP3    H225424   0.683   1.201   1.170 -0.7483 -1.0304  0.6905
 1289TIP3   OH225425   5.929   3.938   8.421 -0.2435  0.0756 -0.1224
 1289TIP3    H125426   5.869   4.013   8.428 -1.5360 -0.8467 -0.8327
 1289TIP3    H225427   5.973   3.935   8.506  0.7347  2.3249 -0.4701
 1290TIP3   OH225428   2.453   5.350   6.829 -0.4135 -0.3846 -0.1402
 1290TIP3    H125429   2.443   5.420   6.765  0.8182  0.2480  0.3385
 1290TIP3    H225430   2.544   5.356   6.858 -0.5101 -1.6729  0.5049
 1291TIP3   OH225431   1.932   6.311   6.621  0.0577  0.0037  0.1671
 1291TIP3    H125432   1.955   6.339   6.532 -2.0492 -0.2019 -0.5004
 1291TIP3    H225433   1.862   6.371   6.647  0.2805 -0.2786  1.4935
 1292TIP3   OH225434   5.047   4.923   7.559 -0.2002  0.3701  0.1537
 1292TIP3    H125435   5.025   5.016   7.553 -1.0783  0.0733 -2.1581
 1292TIP3    H225436   5.142   4.922   7.574  0.1913  1.6790 -1.8640
 1293TIP3   OH225437   4.436   1.133   1.139 -0.0214 -0.3539 -0.1334
 1293TIP3    H125438   4.397   1.215   1.167  0.9591 -0.2419  0.9609
 1293TIP3    H225439   4.528   1.153   1.123 -0.1369 -0.8567 -1.6052
 1294TIP3   OH225440   0.374   1.573   0.179  1.1574 -0.3828 -0.6372
 1294TIP3    H125441   0.375   1.525   0.262 -0.7482  2.9430  1.5526
 1294TIP3    H225442   0.439   1.642   0.190 -1.2036  1.9695 -0.5149
 1295TIP3   OH225443   6.770   0.113   7.616 -0.0949  0.5222 -0.3228
 1295TIP3    H125444   6.865   0.113   7.623 -0.1311 -0.1353  0.2857
 1295TIP3    H225445   6.739   0.146   7.700 -0.4132 -0.0014 -0.2267
 1296TIP3   OH225446   5.908   1.850   0.083  0.7527 -0.2248 -0.7786
 1296TIP3    H125447   5.976   1.786   0.059  1.8030 -0.9096  3.1888
 1296TIP3    H225448   5.923   1.866   0.176 -1.5695  3.3960 -0.8405
 1297TIP3   OH225449   0.317   1.586   0.503 -0.1613  0.0239 -0.3363
 1297TIP3    H125450   0.227   1.590   0.471  0.2938 -2.3078 -2.1759
 1297TIP3    H225451   0.335   1.493   0.515  1.5174  0.5164  1.5876
 1298TIP3   OH225452   6.467   0.012   0.389  0.4863  0.2971  0.0741
 1298TIP3    H125453   6.504   0.099   0.405 -1.1947  1.4962 -2.0248
 1298TIP3    H225454   6.388   0.010   0.443  0.5837  0.0134  0.2084
 1299TIP3   OH225455   1.633   2.221   7.547 -0.2343 -0.2676  0.0645
 1299TIP3    H125456   1.685   2.180   7.478 -1.0726 -0.5005 -0.4317
 1299TIP3    H225457   1.562   2.160   7.565 -2.3304  1.4751 -1.6699
 1300TIP3   OH225458   0.945   6.741   8.393  1.0013 -0.1478  0.0313
 1300TIP3    H125459   0.937   6.658   8.345  1.2630 -0.2189  0.1086
 1300TIP3    H225460   1.038   6.762   8.389  0.8740  0.3679 -0.3631
 1301TIP3   OH225461   4.679   2.620   8.230  0.1668  0.7526 -0.0591
 1301TIP3    H125462   4.612   2.602   8.296  1.2079 -1.5746  0.4724
 1301TIP3    H225463   4.665   2.552   8.163  2.2451 -0.1297  0.3253
 1302TIP3   OH225464   4.619   3.201   0.970  0.8903  0.6404 -0.0460
 1302TIP3    H125465   4.576   3.210   1.056  2.4789 -0.4266  0.9223
 1302TIP3    H225466   4.585   3.119   0.935  2.9556 -0.9005  1.3118
 1303TIP3   OH225467   4.395   0.173   7.446 -0.2191  0.6133  0.1149
 1303TIP3    H125468   4.301   0.190   7.454 -0.8426 -1.2782 -2.0449
 1303TIP3    H225469   4.409   0.093   7.495  0.2322  0.7455  0.2068
 1304TIP3   OH225470   2.316   6.641   1.581  0.3537  0.2425  0.4315
 1304TIP3    H125471   2.255   6.580   1.622  2.6064 -2.3282  0.3150
 1304TIP3    H225472   2.261   6.707   1.539 -2.2528 -1.3639  1.1133
 1305TIP3   OH225473   6.439   0.186   7.778  0.0368  0.3062 -0.1428
 1305TIP3    H125474   6.465   0.265   7.731 -2.1771  0.7871 -0.6586
 1305TIP3    H225475   6.512   0.168   7.838  0.5604  2.7730  0.0477
 1306TIP3   OH225476   0.447   4.850   7.715 -0.2679  0.1125  0.0471
 1306TIP3    H125477   0.398   4.930   7.733 -2.3424 -1.6302  3.0680
 1306TIP3    H225478   0.504   4.839   7.791 -0.1112 -1.3579 -0.2579
 1307TIP3   OH225479   5.259   5.978   8.603 -0.0278  0.1118  0.3326
 1307TIP3    H125480   5.292   6.008   8.518 -0.6706  0.6877  0.2800
 1307TIP3    H225481   5.260   5.882   8.596 -0.6839  0.1525 -0.5678
 1308TIP3   OH225482   3.212   4.399   8.287 -0.2838  0.1351 -0.1555
 1308TIP3    H125483   3.208   4.368   8.196  0.0243 -0.0606 -0.1070
 1308TIP3    H225484   3.166   4.332   8.337 -2.2521  1.2450 -0.3970
 1309TIP3   OH225485   5.511   6.569   0.812  0.7241 -0.3003 -0.3556
 1309TIP3    H125486   5.519   6.478   0.784  3.0184 -0.7783  1.5689
 1309TIP3    H225487   5.416   6.585   0.815  0.2692 -1.5209 -3.8560
 1310TIP3   OH225488   0.398   1.838   8.126  0.1483  0.2335  0.2981
 1310TIP3    H125489   0.489   1.818   8.150  0.0901 -0.0265  0.2976
 1310TIP3    H225490   0.405   1.919   8.075  0.6059 -0.9162 -1.5200
 1311TIP3   OH225491   0.317   0.219   7.062 -0.3491 -0.0144 -0.0984
 1311TIP3    H125492   0.319   0.130   7.095  0.1471  0.6538  1.7945
 1311TIP3    H225493   0.224   0.241   7.059 -0.4554 -0.4768 -0.2822
 1312TIP3   OH225494   6.736   3.909   0.184 -0.1965 -0.0541  0.3460
 1312TIP3    H125495   6.718   3.818   0.161 -0.8482 -0.2897  1.6769
 1312TIP3    H225496   6.815   3.904   0.239  0.6726  0.3698 -0.8184
 1313TIP3   OH225497   1.395   6.067   1.583  0.4004 -0.3634  0.1213
 1313TIP3    H125498   1.424   5.979   1.605  0.6511 -0.3160 -0.0050
 1313TIP3    H225499   1.437   6.086   1.499 -0.0437 -0.3074 -0.0909
 1314TIP3   OH225500   6.313   2.633   7.465 -0.6843 -0.5166  0.3625
 1314TIP3    H125501   6.269   2.710   7.501 -0.5441 -0.8159  1.1993
 1314TIP3    H225502   6.259   2.607   7.390 -0.7175  0.4024  0.0513
 1315TIP3   OH225503   2.756   2.211   7.022  0.0466 -0.5447 -0.2615
 1315TIP3    H125504   2.790   2.187   6.936 -0.8996 -1.1974 -0.4675
 1315TIP3    H225505   2.691   2.279   7.004  0.2285 -0.3040 -0.0116
 1316TIP3   OH225506   2.759   3.335   7.719  0.2564  0.4826  0.1088
 1316TIP3    H125507   2.715   3.270   7.665 -1.8128  0.6930  1.4011
 1316TIP3    H225508   2.739   3.419   7.678 -2.0226  0.7165  1.5149
 1317TIP3   OH225509   4.970   4.778   2.388  0.1052 -0.4120 -0.3723
 1317TIP3    H125510   4.939   4.693   2.420 -0.8701  0.3702  0.8210
 1317TIP3    H225511   5.003   4.759   2.300  1.6147 -2.3655  0.5198
 1318TIP3   OH225512   1.846   1.162   1.030  0.1137 -0.4748 -0.2496
 1318TIP3    H125513   1.856   1.083   0.976  2.9165 -0.4085  0.0281
 1318TIP3    H225514   1.900   1.145   1.107 -0.4673  1.1256  0.5483
 1319TIP3   OH225515   6.595   6.495   0.053 -0.0694  0.3393  0.1574
 1319TIP3    H125516   6.527   6.439   0.016  0.8678  0.5027 -1.9248
 1319TIP3    H225517   6.549   6.577   0.075 -0.7655  0.0130 -0.0661
 1320TIP3   OH225518   3.887   3.977   0.183 -0.3374  0.0699 -0.3854
 1320TIP3    H125519   3.914   4.026   0.106 -0.0145  0.0112 -0.3119
 1320TIP3    H225520   3.798   3.947   0.163 -0.4583  0.5071 -0.5117
 1321TIP3   OH225521   2.396   3.355   1.564  0.5405 -0.1112 -0.1022
 1321TIP3    H125522   2.308   3.384   1.587  0.1968 -0.6621 -0.6914
 1321TIP3    H225523   2.397   3.262   1.588  1.6005  0.3136  1.7056
 1322TIP3   OH225524   0.111   2.588   1.383  0.1940  0.1702 -0.3700
 1322TIP3    H125525   0.176   2.657   1.369 -0.2449  0.2159 -2.5361
 1322TIP3    H225526   0.132   2.521   1.319 -0.9937 -0.4886 -0.1078
 1323TIP3   OH225527   2.020   5.655   7.453 -0.0107  0.6549 -0.4894
 1323TIP3    H125528   2.067   5.583   7.494 -1.0930  1.1401  1.7590
 1323TIP3    H225529   2.028   5.639   7.359 -0.4453 -2.5434 -0.0805
 1324TIP3   OH225530   6.804   4.432   1.326 -0.7364 -0.4913 -0.2712
 1324TIP3    H125531   6.792   4.349   1.280  0.0654  0.0873 -1.5824
 1324TIP3    H225532   6.860   4.484   1.268  0.6576  0.1436  1.5251
 1325TIP3   OH225533   0.155   2.078   1.878  0.3473 -0.0510  0.0432
 1325TIP3    H125534   0.076   2.131   1.884 -0.3616 -1.0778 -0.0581
 1325TIP3    H225535   0.226   2.140   1.897 -0.3078  1.3158 -1.6508
 1326TIP3   OH225536   0.498   0.228   6.856  0.9140  0.6163  0.6414
 1326TIP3    H125537   0.458   0.235   6.942  0.7813 -0.6917  0.7103
 1326TIP3    H225538   0.468   0.306   6.809 -0.0219  0.7108  1.3717
 1327TIP3   OH225539   3.937   6.167   0.874  0.3106 -0.2511  0.5410
 1327TIP3    H125540   3.846   6.182   0.849  0.0828 -0.4205  1.2523
 1327TIP3    H225541   3.986   6.174   0.792 -0.4168 -0.8113  0.0520
 1328TIP3   OH225542   6.541   0.343   0.717  0.0184  0.0914  0.5309
 1328TIP3    H125543   6.559   0.397   0.795  0.7175  0.9150 -0.1750
 1328TIP3    H225544   6.612   0.364   0.657 -0.2978 -0.8306 -0.1941
 1329TIP3   OH225545   6.594   2.571   1.592 -0.2089  0.5599 -0.5574
 1329TIP3    H125546   6.573   2.530   1.508  1.1848  1.5432 -1.4197
 1329TIP3    H225547   6.660   2.638   1.571  0.6648  0.3869  1.4089
 1330TIP3   OH225548   5.120   0.538   8.526  0.0835 -0.1722 -0.0317
 1330TIP3    H125549   5.044   0.585   8.490  0.2426 -1.4203 -2.1699
 1330TIP3    H225550   5.081   0.472   8.584 -0.3624  0.2991  0.2131
 1331TIP3   OH225551   0.494   5.435   0.379  0.0004 -0.5532 -0.1573
 1331TIP3    H125552   0.558   5.426   0.308 -0.3343 -1.9299 -0.3103
 1331TIP3    H225553   0.546   5.465   0.454  0.7233 -1.0340 -0.4535
 1332TIP3   OH225554   4.542   3.286   0.585 -0.1402  0.0705 -0.2809
 1332TIP3    H125555   4.611   3.220   0.582 -0.1800  0.0590 -1.1286
 1332TIP3    H225556   4.573   3.356   0.528  0.0487  0.9404  0.8621
 1333TIP3   OH225557   2.766   1.030   0.138  0.1059  0.1321  0.3961
 1333TIP3    H125558   2.815   1.079   0.073  0.4817  0.3187  0.8090
 1333TIP3    H225559   2.795   0.939   0.127  0.8421  0.2935  0.8812
 1334TIP3   OH225560   1.903   0.846   1.576 -0.1590 -0.0749 -0.8218
 1334TIP3    H125561   1.870   0.913   1.515  0.4892  0.5340 -0.5172
 1334TIP3    H225562   1.906   0.890   1.661 -1.0339 -0.9155 -0.3382
 1335TIP3   OH225563   6.132   6.088   2.507  0.1504  0.8709  0.0939
 1335TIP3    H125564   6.216   6.128   2.530  0.8524 -1.3546  1.7084
 1335TIP3    H225565   6.151   6.031   2.432  0.8560 -1.8659  2.2069
 1336TIP3   OH225566   1.617   5.551   0.650  0.1421  0.0225 -0.6821
 1336TIP3    H125567   1.546   5.580   0.593 -0.5476 -2.0179 -0.9413
 1336TIP3    H225568   1.585   5.567   0.738 -1.7125 -2.9020 -0.6961
 1337TIP3   OH225569   0.755   0.860   7.753 -0.4469  0.0879  0.6168
 1337TIP3    H125570   0.741   0.767   7.735 -1.0461  0.4181 -0.8176
 1337TIP3    H225571   0.824   0.886   7.691 -3.2880  1.5088 -2.2500
 1338TIP3   OH225572   2.513   3.208   8.527 -0.0811  0.3244 -0.0773
 1338TIP3    H125573   2.511   3.114   8.512  2.2838  0.3118 -0.7323
 1338TIP3    H225574   2.480   3.219   8.616  1.2964 -1.3439  0.7118
 1339TIP3   OH225575   1.019   5.304   8.049 -0.3054 -0.5077 -0.1638
 1339TIP3    H125576   0.936   5.286   8.004 -0.8403  2.3503 -0.5265
 1339TIP3    H225577   1.024   5.399   8.050  2.8741 -0.6021  0.1003
 1340TIP3   OH225578   5.003   0.204   7.622 -0.1826 -0.3672  0.0863
 1340TIP3    H125579   5.066   0.201   7.695  1.8489  0.1699 -1.5258
 1340TIP3    H225580   4.926   0.247   7.659  0.4851 -0.7607  2.0931
 1341TIP3   OH225581   6.873   3.389   1.377 -0.2861 -0.1336  0.3534
 1341TIP3    H125582   6.945   3.380   1.315  0.3690 -2.1179  1.3058
 1341TIP3    H225583   6.828   3.470   1.351  0.9893  0.0138 -1.5794
 1342TIP3   OH225584   3.447   3.568   1.982  0.1344  0.1784  0.6073
 1342TIP3    H125585   3.509   3.635   2.012  0.5705  1.0203 -1.9015
 1342TIP3    H225586   3.499   3.512   1.924 -0.7650 -0.9691  0.8852
 1343TIP3   OH225587   4.029   4.269   7.825  0.0050  0.7029 -0.3370
 1343TIP3    H125588   3.992   4.300   7.907  0.1953 -0.2869  0.1423
 1343TIP3    H225589   3.956   4.274   7.762 -0.3533  0.7605  0.0770
 1344TIP3   OH225590   0.430   5.909   1.243 -0.4039  0.4040  0.3169
 1344TIP3    H125591   0.510   5.945   1.282 -1.0399  1.6253  0.5648
 1344TIP3    H225592   0.362   5.930   1.307 -0.7710 -1.5961  0.6234
 1345TIP3   OH225593   3.506   0.842   6.872  0.3240 -0.5285 -0.4337
 1345TIP3    H125594   3.490   0.913   6.809  1.1837  1.0378  1.0542
 1345TIP3    H225595   3.565   0.782   6.826 -0.1030 -0.1036 -1.5736
 1346TIP3   OH225596   4.919   2.469   0.777  0.1182 -0.6159 -0.1898
 1346TIP3    H125597   4.897   2.449   0.686 -1.2734 -0.4266  0.0822
 1346TIP3    H225598   5.013   2.490   0.775 -0.2941  1.4260 -1.9299
 1347TIP3   OH225599   2.349   4.192   8.144  0.1109 -0.0754 -0.4134
 1347TIP3    H125600   2.259   4.221   8.132  0.8322  2.6874  0.1937
 1347TIP3    H225601   2.343   4.122   8.209 -1.6254 -0.3725 -0.8505
 1348TIP3   OH225602   3.625   6.605   0.321  0.2843 -0.1590 -0.2900
 1348TIP3    H125603   3.561   6.539   0.294 -0.3045  0.5773 -0.7365
 1348TIP3    H225604   3.574   6.671   0.368  0.8403  0.0560  0.0238
 1349TIP3   OH225605   5.648   2.254   7.710 -0.2205  0.1081  0.0684
 1349TIP3    H125606   5.684   2.166   7.703 -0.8143 -0.0424 -1.9288
 1349TIP3    H225607   5.631   2.266   7.803 -2.1518 -2.7499  0.2263
 1350TIP3   OH225608   3.969   6.767   7.252  0.3085  0.2637 -0.2890
 1350TIP3    H125609   3.915   6.834   7.211 -1.8072  0.6443  2.7578
 1350TIP3    H225610   3.909   6.693   7.266  2.0302 -1.4981 -1.6252
 1351TIP3   OH225611   0.351   4.436   7.005  0.1294 -0.3762  0.3290
 1351TIP3    H125612   0.320   4.412   6.918 -0.1657  0.2628  0.2550
 1351TIP3    H225613   0.446   4.437   6.998  0.1224 -0.8286  0.1509
 1352TIP3   OH225614   6.246   3.450   8.161  0.6988  0.4413 -0.2258
 1352TIP3    H125615   6.177   3.385   8.175  0.2625  1.1730  1.2516
 1352TIP3    H225616   6.309   3.407   8.103 -0.3643 -0.7071 -0.5500
 1353TIP3   OH225617   5.590   1.390   7.002 -0.0641 -0.0380  0.0536
 1353TIP3    H125618   5.627   1.422   7.084 -0.0019  0.3044 -0.1043
 1353TIP3    H225619   5.531   1.459   6.974  0.4158  0.1483 -0.5258
 1354TIP3   OH225620   1.036   5.678   0.087  0.2477 -0.5317 -0.1367
 1354TIP3    H125621   1.130   5.671   0.106  0.2479 -0.5938 -0.1582
 1354TIP3    H225622   1.023   5.618   0.013  0.1518 -0.6803 -0.0013
 1355TIP3   OH225623   3.677   6.755   6.245 -0.1303 -0.0529  0.4198
 1355TIP3    H125624   3.601   6.812   6.254  0.1930  0.2161  1.5444
 1355TIP3    H225625   3.702   6.764   6.153 -0.3949  1.2315  0.4469
 1356TIP3   OH225626   6.638   1.647   0.146 -0.1634 -0.1228  0.0785
 1356TIP3    H125627   6.682   1.651   0.061 -1.4192 -1.1630 -0.6589
 1356TIP3    H225628   6.551   1.683   0.129 -0.4515 -0.4080  0.9109
 1357TIP3   OH225629   0.587   2.930   1.361 -0.0790  0.1434  0.9585
 1357TIP3    H125630   0.508   2.973   1.394  0.3359  0.5437  1.4441
 1357TIP3    H225631   0.596   2.961   1.271 -0.9213 -0.5380  0.6293
 1358TIP3   OH225632   5.177   6.461   1.743 -0.2264  0.1740  0.3431
 1358TIP3    H125633   5.269   6.440   1.723 -0.3569  0.5893 -0.7350
 1358TIP3    H225634   5.182   6.542   1.793 -0.0537  0.8207 -0.6941
 1359TIP3   OH225635   6.674   4.187   7.986  0.0999  0.0334  0.4856
 1359TIP3    H125636   6.751   4.208   7.934 -1.3017  0.3116 -1.5526
 1359TIP3    H225637   6.689   4.096   8.014  1.8110  0.5477  1.4228
 1360TIP3   OH225638   0.387   3.276   1.553  0.4773 -0.5119  0.2336
 1360TIP3    H125639   0.345   3.330   1.620  0.4963 -1.7134  1.2425
 1360TIP3    H225640   0.381   3.187   1.586  3.8474 -0.7844  0.4822
 1361TIP3   OH225641   4.343   3.797   7.333 -0.1962 -0.2155  0.3862
 1361TIP3    H125642   4.265   3.852   7.339  0.2755  0.4982 -0.0059
 1361TIP3    H225643   4.356   3.783   7.239 -0.1746 -0.8077  0.4697
 1362TIP3   OH225644   5.062   0.378   1.863  0.2637 -0.2028 -0.1398
 1362TIP3    H125645   5.155   0.400   1.861  0.4129 -0.8632 -1.7694
 1362TIP3    H225646   5.035   0.380   1.771 -1.2183 -0.4817  0.2709
 1363TIP3   OH225647   6.219   4.233   2.479 -0.1342 -0.3443  0.3835
 1363TIP3    H125648   6.237   4.235   2.573  0.7805 -2.9503  0.3464
 1363TIP3    H225649   6.266   4.156   2.447 -0.3694  0.4960 -2.2488
 1364TIP3   OH225650   1.507   4.652   7.378  0.0122 -0.1655  0.4529
 1364TIP3    H125651   1.472   4.568   7.350  1.4537 -0.0209 -2.0177
 1364TIP3    H225652   1.446   4.717   7.343 -0.5915 -0.0981  1.5647
 1365TIP3   OH225653   1.317   6.383   1.104  0.0519 -0.0047 -0.0696
 1365TIP3    H125654   1.296   6.355   1.015  0.6506  0.1871 -0.2779
 1365TIP3    H225655   1.344   6.474   1.095  0.8428 -0.2015  0.1976
 1366TIP3   OH225656   3.113   4.775   2.240 -0.2155  0.8184 -0.2222
 1366TIP3    H125657   3.191   4.795   2.293  0.6244 -1.0398 -0.6603
 1366TIP3    H225658   3.134   4.810   2.153  0.4093 -0.1580 -0.4848
 1367TIP3   OH225659   6.067   0.442   7.158  0.5113 -0.6323  0.9614
 1367TIP3    H125660   6.101   0.469   7.072  0.5507 -2.3771  0.3756
 1367TIP3    H225661   6.134   0.468   7.220  1.0453 -0.4303  0.3111
 1368TIP3   OH225662   5.325   2.753   8.492  0.4168  0.1028 -0.9299
 1368TIP3    H125663   5.284   2.776   8.575  0.9372 -0.1546 -0.5905
 1368TIP3    H225664   5.384   2.826   8.474  2.3324 -1.0315  0.3245
 1369TIP3   OH225665   2.002   3.661   1.973 -0.4653 -0.2174 -0.3989
 1369TIP3    H125666   2.021   3.754   1.958  1.0274 -0.2464  1.0443
 1369TIP3    H225667   1.921   3.645   1.924 -1.7727  2.3017  0.7384
 1370TIP3   OH225668   5.194   1.259   6.348  0.3298 -0.2064 -0.2727
 1370TIP3    H125669   5.121   1.215   6.392  0.7338  0.6935  1.4087
 1370TIP3    H225670   5.270   1.239   6.404  0.7768  1.4145 -0.2525
 1371TIP3   OH225671   3.705   1.394   0.141 -0.3209 -0.3876  0.1071
 1371TIP3    H125672   3.736   1.432   0.223 -1.0877  1.2431 -0.3139
 1371TIP3    H225673   3.620   1.434   0.127  0.0168 -0.2269 -1.7384
 1372TIP3   OH225674   3.712   5.292   8.374  0.0515 -0.3336  0.5048
 1372TIP3    H125675   3.619   5.308   8.391  0.1216 -0.1429  0.7098
 1372TIP3    H225676   3.720   5.196   8.373 -0.2490 -0.3607 -0.0839
 1373TIP3   OH225677   5.453   1.260   1.841  0.2122 -0.4551 -0.3136
 1373TIP3    H125678   5.546   1.283   1.838  0.1874 -0.4265 -1.0056
 1373TIP3    H225679   5.452   1.164   1.837  0.2342 -0.4947  0.4537
 1374TIP3   OH225680   2.396   2.511   7.513  0.3833 -0.1463  0.1942
 1374TIP3    H125681   2.401   2.573   7.440  0.7381  0.2239  0.5283
 1374TIP3    H225682   2.434   2.430   7.478 -1.0006 -0.5117 -0.5671
 1375TIP3   OH225683   4.128   4.462   0.708  0.4365 -0.5029 -0.3739
 1375TIP3    H125684   4.081   4.419   0.636  0.0952 -1.0972  0.1931
 1375TIP3    H225685   4.082   4.434   0.787 -1.0762  2.4842 -0.0677
 1376TIP3   OH225686   1.452   3.581   1.520  0.3436  0.2053 -0.0261
 1376TIP3    H125687   1.446   3.593   1.425 -0.7002 -0.2989 -0.0396
 1376TIP3    H225688   1.361   3.578   1.550  0.6552 -0.1174  0.9293
 1377TIP3   OH225689   5.360   1.977   8.543 -0.3194  0.5673 -1.0046
 1377TIP3    H125690   5.374   2.015   8.630 -1.1936 -0.5829 -0.3426
 1377TIP3    H225691   5.435   1.919   8.530  0.8938  2.2386 -1.9185
 1378TIP3   OH225692   0.745   6.675   6.576 -0.2203 -0.3433  0.1735
 1378TIP3    H125693   0.694   6.625   6.640  0.0638 -0.9778 -0.0952
 1378TIP3    H225694   0.808   6.613   6.540 -0.8534 -0.2012 -1.2621
 1379TIP3   OH225695   6.533   6.546   1.436 -0.6770  0.0199 -0.0808
 1379TIP3    H125696   6.540   6.458   1.473 -0.8203  0.5511  1.2993
 1379TIP3    H225697   6.458   6.541   1.377  0.4960 -1.2550 -1.5489
 1380TIP3   OH225698   6.052   0.606   2.121 -0.4158  0.3164  0.7009
 1380TIP3    H125699   6.052   0.657   2.041  0.1443 -0.7426 -0.0004
 1380TIP3    H225700   5.972   0.633   2.168 -0.8160  0.8412 -0.2689
 1381TIP3   OH225701   1.837   3.890   1.294  0.1690  0.2512  0.4172
 1381TIP3    H125702   1.767   3.946   1.262 -1.6755 -0.7669  2.3757
 1381TIP3    H225703   1.805   3.801   1.280  1.5402 -0.2709  0.4142
 1382TIP3   OH225704   0.152   5.884   8.379  0.6392  0.2283 -0.3293
 1382TIP3    H125705   0.087   5.883   8.449 -0.0046 -0.7218 -0.9137
 1382TIP3    H225706   0.213   5.953   8.404  2.1399 -1.9549  2.7158
 1383TIP3   OH225707   0.348   2.434   0.914  0.1824 -0.0986  0.5622
 1383TIP3    H125708   0.367   2.500   0.980 -2.8601  1.3539  0.1902
 1383TIP3    H225709   0.369   2.477   0.831 -0.0944 -0.2595  0.4059
 1384TIP3   OH225710   1.284   6.018   7.228 -0.0267  1.1499  0.1601
 1384TIP3    H125711   1.247   5.972   7.303 -0.2336 -0.7372 -1.0450
 1384TIP3    H225712   1.344   6.082   7.267  1.5636 -1.2144  1.9263
 1385TIP3   OH225713   3.386   1.941   8.286 -0.4969 -0.2027 -0.1347
 1385TIP3    H125714   3.412   1.933   8.378  0.5776 -0.0086 -0.4083
 1385TIP3    H225715   3.427   1.866   8.243 -1.4687 -0.6135 -0.3663
 1386TIP3   OH225716   0.950   0.470   8.123  0.9375  0.0488  0.6186
 1386TIP3    H125717   1.018   0.476   8.055 -0.1070  0.1052 -0.4523
 1386TIP3    H225718   0.997   0.438   8.200  2.0085 -0.8285 -0.3509
 1387TIP3   OH225719   5.992   2.776   0.006  0.1455 -0.4861  0.3075
 1387TIP3    H125720   6.074   2.743  -0.032  1.2585  0.8264  1.4560
 1387TIP3    H225721   5.966   2.848  -0.051  0.6439  0.0864  0.7881
 1388TIP3   OH225722   2.204   0.194   7.614  0.0583 -0.0031 -0.1691
 1388TIP3    H125723   2.223   0.273   7.664 -2.1525  0.1689  0.5286
 1388TIP3    H225724   2.241   0.123   7.665  1.6800  0.5194 -0.5770
 1389TIP3   OH225725   1.918   3.103   7.748 -0.2316  0.2341  0.6053
 1389TIP3    H125726   1.941   3.159   7.674  0.7162 -0.6577  0.1945
 1389TIP3    H225727   1.995   3.108   7.806 -1.2939  1.5801  1.9602
 1390TIP3   OH225728   6.698   0.165   7.859  0.3135 -0.0855  0.1062
 1390TIP3    H125729   6.721   0.241   7.912 -1.8774  0.3808  0.4823
 1390TIP3    H225730   6.711   0.090   7.917 -0.0508  0.2398  0.6120
 1391TIP3   OH225731   3.628   4.170   2.229 -0.3775 -0.7107 -0.2679
 1391TIP3    H125732   3.715   4.200   2.257 -1.1007  0.6302  0.6874
 1391TIP3    H225733   3.632   4.075   2.236  1.0224 -0.6791 -0.2713
 1392TIP3   OH225734   3.334   2.162   0.495  0.5803  0.0796  0.0488
 1392TIP3    H125735   3.299   2.146   0.407  0.2644  0.8396  0.0250
 1392TIP3    H225736   3.278   2.110   0.553  0.5495 -0.1254 -0.1617
 1393TIP3   OH225737   5.472   1.723   8.468 -0.3186  0.3756 -0.4375
 1393TIP3    H125738   5.552   1.766   8.496 -1.0056  1.0043  0.6539
 1393TIP3    H225739   5.501   1.640   8.429  0.8294  0.3234  0.4649
 1394TIP3   OH225740   4.286   2.087   1.906  0.2612 -0.0713  0.0530
 1394TIP3    H125741   4.364   2.035   1.889  1.1963  1.6472 -1.2673
 1394TIP3    H225742   4.288   2.103   2.001  0.7617 -1.1617  0.2353
 1395TIP3   OH225743   6.387   1.962   1.759 -0.2352  0.2772 -0.4818
 1395TIP3    H125744   6.452   2.025   1.790  1.2253 -1.7451  0.7425
 1395TIP3    H225745   6.336   1.940   1.836 -0.6957 -0.1091 -0.8904
 1396TIP3   OH225746   2.234   3.420   6.146 -0.3790  0.2621  0.1937
 1396TIP3    H125747   2.233   3.326   6.129 -0.1642  0.5648 -1.6756
 1396TIP3    H225748   2.326   3.440   6.164 -0.2338  0.3032 -0.5895
 1397TIP3   OH225749   6.266   4.789   0.755  0.7039 -0.2719 -0.1642
 1397TIP3    H125750   6.360   4.770   0.749  1.0603  1.4158 -0.4959
 1397TIP3    H225751   6.255   4.826   0.842  0.3745 -0.3273 -0.1828
 1398TIP3   OH225752   4.211   5.934   7.885 -0.0650 -0.2780  0.4195
 1398TIP3    H125753   4.231   6.028   7.887  0.4425 -0.3448 -0.7387
 1398TIP3    H225754   4.210   5.908   7.977 -0.5953  0.9368  0.7791
 1399TIP3   OH225755   0.249   5.252   0.981  0.0494  0.0362  0.0565
 1399TIP3    H125756   0.258   5.180   1.043 -0.3729 -0.8050 -0.8358
 1399TIP3    H225757   0.158   5.248   0.952  0.1845  0.5422 -0.4685
 1400TIP3   OH225758   6.081   5.985   0.431  0.6199 -0.6111  0.5340
 1400TIP3    H125759   6.064   6.072   0.468 -0.0853 -0.1681 -0.7488
 1400TIP3    H225760   6.053   5.993   0.340 -0.8111 -2.6050  0.7489
 1401TIP3   OH225761   6.841   6.183   8.550 -0.0981  0.4943 -0.2249
 1401TIP3    H125762   6.934   6.166   8.543 -0.1923  0.1786 -0.7151
 1401TIP3    H225763   6.817   6.224   8.467 -0.3122  0.9848  0.0678
 1402TIP3   OH225764   0.553   4.192   1.905  0.7831  0.9802 -0.6162
 1402TIP3    H125765   0.514   4.157   1.985  1.2695  1.7885 -0.0173
 1402TIP3    H225766   0.597   4.117   1.865  0.4538  0.5498 -0.1844
 1403TIP3   OH225767   6.699   2.154   8.065 -0.2612  0.0748  0.2463
 1403TIP3    H125768   6.715   2.247   8.081 -0.5912  0.0618  0.6622
 1403TIP3    H225769   6.750   2.109   8.133  1.5423 -0.1329 -1.1854
 1404TIP3   OH225770   5.910   0.828   1.053 -0.4234  0.2985 -0.3511
 1404TIP3    H125771   5.922   0.922   1.070 -1.2201  0.3178  0.1532
 1404TIP3    H225772   5.839   0.802   1.111 -1.7209 -0.1426 -2.0462
 1405TIP3   OH225773   1.615   5.071   6.671 -0.5316  0.2641 -0.4651
 1405TIP3    H125774   1.675   5.008   6.633  0.2997  1.1733 -0.7100
 1405TIP3    H225775   1.555   5.094   6.600  0.9665  1.8966 -1.2613
 1406TIP3   OH225776   5.541   5.380   2.769  0.2055  0.1097  0.0867
 1406TIP3    H125777   5.490   5.373   2.851 -0.7356  0.3432 -0.4576
 1406TIP3    H225778   5.629   5.352   2.793 -0.1891 -0.3529  1.0570
 1407TIP3   OH225779   1.083   2.872   7.436 -0.3462 -0.6254  0.1440
 1407TIP3    H125780   1.086   2.939   7.368 -0.8605 -1.1193 -0.3777
 1407TIP3    H225781   1.146   2.806   7.407  0.0770 -0.4285  0.5986
 1408TIP3   OH225782   5.012   5.279   7.868  0.5315  0.0627 -0.1897
 1408TIP3    H125783   4.943   5.212   7.872 -0.3584  0.8298 -1.6912
 1408TIP3    H225784   5.086   5.233   7.827 -0.1981  0.0545 -1.5585
 1409TIP3   OH225785   5.785   3.179   0.442  0.2969  0.4520  0.2262
 1409TIP3    H125786   5.791   3.270   0.411  1.1298  0.4802  0.4594
 1409TIP3    H225787   5.813   3.126   0.368 -0.7745  0.3425 -0.1146
 1410TIP3   OH225788   4.572   2.115   6.769 -0.1470 -0.0761  0.4383
 1410TIP3    H125789   4.520   2.174   6.716 -1.0850 -0.4620  0.9135
 1410TIP3    H225790   4.607   2.051   6.706  0.7224  0.8532 -0.0450
 1411TIP3   OH225791   1.644   4.269   1.456 -0.4746 -0.4299  0.5519
 1411TIP3    H125792   1.671   4.177   1.464  0.6087 -0.0874  1.0505
 1411TIP3    H225793   1.583   4.270   1.382  0.7082 -1.3122 -0.4924
 1412TIP3   OH225794   1.137   4.733   8.035  0.0809  0.0762 -0.2433
 1412TIP3    H125795   1.153   4.662   7.973  2.5276 -0.9849  1.4284
 1412TIP3    H225796   1.147   4.813   7.983  0.6984 -0.7692 -1.4787
 1413TIP3   OH225797   3.861   0.471   6.821 -0.5692  0.2858 -0.6351
 1413TIP3    H125798   3.875   0.564   6.834  0.2388  0.3348 -1.7405
 1413TIP3    H225799   3.941   0.430   6.854 -0.5366  0.0607 -0.9847
 1414TIP3   OH225800   1.270   1.155   8.142 -0.0238  0.0276 -0.4074
 1414TIP3    H125801   1.248   1.084   8.082  0.0280  0.7370 -1.2920
 1414TIP3    H225802   1.308   1.223   8.085 -1.4109  1.3505  0.1956
 1415TIP3   OH225803   0.644   6.443   8.043  0.2083  0.2204 -0.0881
 1415TIP3    H125804   0.605   6.466   7.958 -0.7885 -0.4629  0.1741
 1415TIP3    H225805   0.717   6.385   8.020 -2.0965 -2.7962 -0.3800
 1416TIP3   OH225806   1.937   2.352   2.278 -0.1487 -0.1488  0.0862
 1416TIP3    H125807   2.019   2.397   2.259  1.1640 -2.5094 -0.1406
 1416TIP3    H225808   1.962   2.276   2.330 -2.3196 -0.4480  0.8106
 1417TIP3   OH225809   0.972   6.001   0.137  0.0682  0.2192 -0.2864
 1417TIP3    H125810   0.886   5.998   0.096  0.1198  1.3191 -0.4959
 1417TIP3    H225811   1.013   6.080   0.102  1.3369 -0.5110 -0.5180
 1418TIP3   OH225812   5.289   2.012   1.408  0.4292 -0.0002 -0.4872
 1418TIP3    H125813   5.228   2.030   1.479 -0.3046 -1.0565 -0.8238
 1418TIP3    H225814   5.327   2.098   1.387  0.6264  0.3472  1.1156
 1419TIP3   OH225815   5.622   2.562   7.678  0.1508 -0.2599 -0.4144
 1419TIP3    H125816   5.688   2.501   7.644  0.4119  0.5162 -1.3464
 1419TIP3    H225817   5.657   2.592   7.762  1.5059  0.9134 -1.3554
 1420TIP3   OH225818   0.188   1.770   7.436  0.2710  0.0304 -0.3385
 1420TIP3    H125819   0.197   1.729   7.350  0.7326 -0.3424 -0.1190
 1420TIP3    H225820   0.123   1.840   7.423 -0.1031 -0.4024 -0.8494
 1421TIP3   OH225821   5.352   4.626   8.047  0.2037  0.3436  0.3195
 1421TIP3    H125822   5.368   4.551   7.989 -0.1646  0.0373  0.6045
 1421TIP3    H225823   5.429   4.681   8.037  0.4679 -0.0634  0.0877
 1422TIP3   OH225824   6.811   0.660   6.782 -0.6545  0.0489 -0.1340
 1422TIP3    H125825   6.729   0.709   6.776 -1.2373 -0.6893  1.2778
 1422TIP3    H225826   6.869   0.718   6.831 -1.4720 -0.7239  1.8979
 1423TIP3   OH225827   2.129   5.821   6.199  0.2648 -0.8536  0.1257
 1423TIP3    H125828   2.042   5.791   6.174 -0.1296 -0.0181  0.4498
 1423TIP3    H225829   2.112   5.894   6.259  1.1750  0.3448 -1.0150
 1424TIP3   OH225830   4.182   4.662   1.574 -0.0164 -0.2267 -0.0202
 1424TIP3    H125831   4.175   4.572   1.544 -2.5430  0.2583 -1.1504
 1424TIP3    H225832   4.273   4.671   1.602  1.0307 -2.3584 -2.3281
 1425TIP3   OH225833   1.563   3.688   6.498 -0.0058  0.6470 -0.3831
 1425TIP3    H125834   1.608   3.728   6.573  0.5872  0.2889 -0.5464
 1425TIP3    H225835   1.558   3.595   6.520  1.8602  0.2077 -1.6032
 1426TIP3   OH225836   3.024   5.035   0.266  0.0816 -0.0032 -0.6196
 1426TIP3    H125837   3.000   5.079   0.184  0.5877  1.3647 -0.0543
 1426TIP3    H225838   3.075   5.100   0.314 -2.3768  0.2401  1.9452
 1427TIP3   OH225839   3.584   5.001   0.463 -0.3904 -0.0402  0.8616
 1427TIP3    H125840   3.518   4.933   0.478 -1.6097  0.9153  0.1409
 1427TIP3    H225841   3.660   4.973   0.512 -0.6985 -2.1428  0.2439
 1428TIP3   OH225842   2.368   6.140   8.478  0.1037 -0.0812  0.0858
 1428TIP3    H125843   2.400   6.182   8.557 -0.3124  0.4864 -0.0423
 1428TIP3    H225844   2.421   6.178   8.408 -0.0404 -0.0179  0.0101
 1429TIP3   OH225845   3.768   2.739   1.750  0.2013 -0.2880 -0.0812
 1429TIP3    H125846   3.676   2.737   1.778  0.9348 -0.2587  2.5920
 1429TIP3    H225847   3.818   2.745   1.832  2.6532 -1.4862 -1.3898
 1430TIP3   OH225848   3.614   4.205   7.379 -0.2689 -0.4755 -0.1054
 1430TIP3    H125849   3.666   4.124   7.382  0.0968 -0.2036  1.4393
 1430TIP3    H225850   3.634   4.242   7.293 -0.5137 -2.0644 -0.8902
 1431TIP3   OH225851   6.096   3.807   2.386  0.6382 -0.0804 -0.2387
 1431TIP3    H125852   6.085   3.840   2.475  0.2691 -0.1875 -0.2410
 1431TIP3    H225853   6.060   3.718   2.389 -3.2238  1.2107 -1.4084
 1432TIP3   OH225854   2.495   2.009   1.010 -0.1068  0.6908  0.5922
 1432TIP3    H125855   2.583   1.990   1.042  0.3364  0.1323 -0.8734
 1432TIP3    H225856   2.444   1.930   1.030  0.1968  0.2993 -0.1451
 1433TIP3   OH225857   6.658   4.756   1.308 -0.6537 -0.2995  0.0509
 1433TIP3    H125858   6.650   4.814   1.232  0.5069  0.3190  0.3756
 1433TIP3    H225859   6.738   4.785   1.351 -3.2443  2.1412  3.8371
 1434TIP3   OH225860   2.111   1.512   0.603 -0.1925 -0.2124  0.1679
 1434TIP3    H125861   2.051   1.584   0.625  0.7619  0.8619 -0.6077
 1434TIP3    H225862   2.181   1.518   0.669 -1.5386 -2.3077  1.9100
 1435TIP3   OH225863   0.012   5.388   6.695 -0.5347 -0.2146 -0.0400
 1435TIP3    H125864   0.062   5.449   6.641 -0.5594 -0.7294 -0.6543
 1435TIP3    H225865  -0.053   5.351   6.635  1.0754 -2.7488 -0.3635
 1436TIP3   OH225866   1.001   1.503   8.161  0.0405 -0.5002 -0.1528
 1436TIP3    H125867   1.003   1.412   8.190  0.3349 -0.4725 -0.0816
 1436TIP3    H225868   0.908   1.525   8.157 -0.0349 -0.8416 -0.2923
 1437TIP3   OH225869   3.492   0.708   1.267  0.6755 -0.2334  0.0991
 1437TIP3    H125870   3.587   0.700   1.278  0.7069  0.2137  0.1564
 1437TIP3    H225871   3.476   0.686   1.175  0.8890  0.1863 -0.0374
 1438TIP3   OH225872   3.732   0.416   6.594 -0.3380  0.0627  0.1627
 1438TIP3    H125873   3.790   0.405   6.669 -0.6111 -2.1981  0.1146
 1438TIP3    H225874   3.673   0.487   6.620  0.7422  0.5852  1.3004
 1439TIP3   OH225875   5.921   2.441   7.216  0.2659  0.2923  0.0220
 1439TIP3    H125876   5.927   2.522   7.266 -1.4595  1.7724 -2.0275
 1439TIP3    H225877   5.867   2.383   7.270  1.0748  0.6610  1.2631
 1440TIP3   OH225878   1.094   0.178   0.667 -0.7748  0.3741  0.1194
 1440TIP3    H125879   1.168   0.130   0.706 -1.0297  0.1069  0.2801
 1440TIP3    H225880   1.028   0.111   0.651 -1.2142  0.6959  0.5273
 1441TIP3   OH225881   4.816   6.484   7.894  0.1498  0.3736  0.2752
 1441TIP3    H125882   4.771   6.530   7.964  0.5306 -0.2303  0.9382
 1441TIP3    H225883   4.773   6.512   7.814 -1.3930 -0.1793  0.8799
 1442TIP3   OH225884   6.639   6.865   8.161  0.4299 -0.1186  0.4677
 1442TIP3    H125885   6.716   6.913   8.192 -1.3154  2.2058  1.4072
 1442TIP3    H225886   6.667   6.829   8.076  1.9563  2.3703 -0.2063
 1443TIP3   OH225887   3.794   0.675   7.484 -0.1891  0.1632 -0.4113
 1443TIP3    H125888   3.836   0.760   7.498 -0.5415  0.1627  0.6986
 1443TIP3    H225889   3.776   0.642   7.572  0.8242 -1.5104 -0.7799
 1444TIP3   OH225890   1.970   6.565   8.005 -0.0664  0.3791  0.3220
 1444TIP3    H125891   1.987   6.660   8.005 -0.1307  0.4092  1.6526
 1444TIP3    H225892   1.968   6.541   8.097  0.8817 -1.1074  0.0018
 1445TIP3   OH225893   5.532   5.858   6.262 -0.0205 -0.0893 -0.2969
 1445TIP3    H125894   5.627   5.861   6.276 -0.3512  0.6733  2.4104
 1445TIP3    H225895   5.514   5.765   6.244  1.0493 -0.6736  1.3407
 1446TIP3   OH225896   2.350   3.016   1.054 -0.0723 -0.2394 -0.1315
 1446TIP3    H125897   2.321   3.046   0.968 -0.4311 -1.3154 -0.4054
 1446TIP3    H225898   2.281   3.045   1.114 -0.4997 -0.6527 -0.4147
 1447TIP3   OH225899   3.826   2.491   1.056  0.4303  0.5552  0.8737
 1447TIP3    H125900   3.826   2.508   1.150  0.7209  0.0827  0.9604
 1447TIP3    H225901   3.769   2.559   1.020  1.1389  1.3843  1.2699
 1448TIP3   OH225902   2.416   5.331   0.566  0.2867  0.2368  0.2320
 1448TIP3    H125903   2.479   5.377   0.511  0.4818 -0.0406  0.2248
 1448TIP3    H225904   2.366   5.276   0.505  2.0343 -1.8626  0.5819
 1449TIP3   OH225905   5.290   4.597   0.134  0.0048  0.4997  0.2755
 1449TIP3    H125906   5.351   4.583   0.206  0.9973  1.2343 -0.3956
 1449TIP3    H225907   5.271   4.509   0.101  1.2675  0.3055  0.0449
 1450TIP3   OH225908   6.203   1.053   0.497  0.0579 -0.7124  0.1268
 1450TIP3    H125909   6.208   0.998   0.575  0.2221 -1.7532 -0.5836
 1450TIP3    H225910   6.286   1.036   0.452  0.1265  0.1638 -0.0833
 1451TIP3   OH225911   5.696   0.946   8.124 -0.4953  0.1136  0.0213
 1451TIP3    H125912   5.731   0.965   8.037  0.0525  1.2112  0.4670
 1451TIP3    H225913   5.773   0.943   8.181 -0.8632 -0.4245  0.5080
 1452TIP3   OH225914   6.816   0.573   1.453 -0.6336 -0.0024 -0.4385
 1452TIP3    H125915   6.879   0.598   1.385 -0.7935  2.0466  0.1051
 1452TIP3    H225916   6.806   0.478   1.443  2.3212 -0.3896 -0.7352
 1453TIP3   OH225917   1.678   5.953   7.306  0.3504  1.6822  1.2389
 1453TIP3    H125918   1.618   5.889   7.344  1.1629  0.0858 -0.0291
 1453TIP3    H225919   1.625   6.031   7.293 -1.3809  0.4382  0.4503
 1454TIP3   OH225920   2.708   6.617   0.682  0.3230 -0.0831 -0.2125
 1454TIP3    H125921   2.622   6.659   0.684  0.0968 -0.5400  0.0030
 1454TIP3    H225922   2.764   6.672   0.736  0.8001  1.5357 -2.2386
 1455TIP3   OH225923   6.663   2.925   0.829  0.2704 -0.3748 -0.0259
 1455TIP3    H125924   6.577   2.911   0.868  0.4064 -0.0375  0.4000
 1455TIP3    H225925   6.713   2.973   0.896  0.5285  0.1464 -0.5838
 1456TIP3   OH225926   5.525   2.990   1.314 -0.4544  0.2567 -0.3939
 1456TIP3    H125927   5.511   3.084   1.309  0.1813  0.3040 -2.0195
 1456TIP3    H225928   5.606   2.975   1.265 -1.0286 -1.2155 -0.9803
 1457TIP3   OH225929   5.276   5.932   8.007  0.2226  0.4296 -0.4563
 1457TIP3    H125930   5.347   5.995   7.991  0.6178  0.7343  2.1371
 1457TIP3    H225931   5.256   5.941   8.100 -0.4304 -2.5393 -0.2020
 1458TIP3   OH225932   3.707   2.324   0.146 -0.1057 -0.3836 -0.1545
 1458TIP3    H125933   3.719   2.262   0.219  0.7943  0.1937  0.2009
 1458TIP3    H225934   3.635   2.287   0.095 -0.3736 -1.0957  0.7178
 1459TIP3   OH225935   0.902   4.162   0.327  0.5601  0.0976  0.1271
 1459TIP3    H125936   0.875   4.070   0.320 -0.0542  0.3123 -0.3904
 1459TIP3    H225937   0.826   4.206   0.366  0.7692  0.4274  0.1607
 1460TIP3   OH225938   5.491   5.672   0.287  0.1985 -0.0242 -0.0700
 1460TIP3    H125939   5.538   5.701   0.209 -0.3508 -0.4181 -0.5527
 1460TIP3    H225940   5.432   5.603   0.256  0.3496 -0.5576  0.7837
 1461TIP3   OH225941   0.516   4.298   7.571 -0.1710  0.1711 -0.0219
 1461TIP3    H125942   0.579   4.357   7.613  1.6101 -0.9896 -0.9276
 1461TIP3    H225943   0.529   4.313   7.477 -0.7890 -0.5902 -0.2356
 1462TIP3   OH225944   3.275   4.951   0.037  0.4419  0.3635 -0.1307
 1462TIP3    H125945   3.301   4.899   0.113 -0.1312 -0.0310 -0.1961
 1462TIP3    H225946   3.199   5.000   0.067 -0.2231 -0.3221 -0.6394
 1463TIP3   OH225947   5.030   6.702   6.796  0.3524  0.1751 -0.3204
 1463TIP3    H125948   5.075   6.736   6.719 -0.1232  0.4817 -0.4672
 1463TIP3    H225949   4.949   6.664   6.762  1.2873 -1.9565 -0.2778
 1464TIP3   OH225950   3.983   1.006   8.418 -0.2899  0.0662  0.1177
 1464TIP3    H125951   3.934   1.070   8.470 -0.5901  0.3586 -0.5144
 1464TIP3    H225952   4.074   1.019   8.445 -0.4518  0.1301  0.6577
 1465TIP3   OH225953   0.235   1.047   2.697 -0.2145 -0.0216 -0.2517
 1465TIP3    H125954   0.254   1.036   2.603  2.1739 -0.4518  0.2298
 1465TIP3    H225955   0.151   1.003   2.709 -0.8489  0.5227 -2.2798
 1466TIP3   OH225956   6.205   2.231   6.926  0.0045 -0.1916  0.2800
 1466TIP3    H125957   6.270   2.297   6.903  0.1813  0.8253  3.2826
 1466TIP3    H225958   6.246   2.148   6.902  2.1242  0.4713  1.3572
 1467TIP3   OH225959   4.996   1.087   7.068 -0.5501 -0.5674  0.2149
 1467TIP3    H125960   5.072   1.078   7.010 -1.7292  1.0434 -1.6833
 1467TIP3    H225961   5.015   1.165   7.120 -0.4817 -0.7390  0.4513
 1468TIP3   OH225962   6.661   1.558   1.161 -0.6107  0.1766 -0.3340
 1468TIP3    H125963   6.704   1.505   1.228 -1.1020 -0.7316 -0.7304
 1468TIP3    H225964   6.665   1.647   1.195 -0.3771 -0.2025  0.6482
 1469TIP3   OH225965   2.713   3.290   8.321  0.0788  0.4779 -0.2342
 1469TIP3    H125966   2.633   3.271   8.372  0.3072  1.4119  0.5032
 1469TIP3    H225967   2.778   3.313   8.387  0.3478  1.8727 -0.9565
 1470TIP3   OH225968   0.045   2.506   7.677  0.0054  0.2519 -0.0465
 1470TIP3    H125969   0.107   2.578   7.671  0.9331 -0.6280 -1.6474
 1470TIP3    H225970   0.098   2.427   7.662 -1.2177 -0.6432  0.1847
 1471TIP3   OH225971   6.184   4.181   0.555 -0.3723  0.8498  0.2449
 1471TIP3    H125972   6.133   4.147   0.629 -0.2017 -0.1383 -0.0680
 1471TIP3    H225973   6.271   4.144   0.567 -0.3421  0.6798 -0.4444
 1472TIP3   OH225974   5.678   4.814   1.221  0.2077 -0.0023  0.3283
 1472TIP3    H125975   5.736   4.814   1.297 -0.4404 -2.8759  0.9353
 1472TIP3    H225976   5.730   4.853   1.151  1.7303  0.3368  1.5922
 1473TIP3   OH225977   3.829   1.139   0.317  0.3614 -0.1588 -0.2916
 1473TIP3    H125978   3.807   1.194   0.392 -1.0530  0.7085 -1.2976
 1473TIP3    H225979   3.868   1.061   0.355  1.3253  1.0266  1.2368
 1474TIP3   OH225980   4.161   1.284   1.743  0.2035  0.2334 -0.0779
 1474TIP3    H125981   4.116   1.316   1.821 -1.2100 -2.5210  0.3760
 1474TIP3    H225982   4.152   1.354   1.679 -1.0758  1.4463  1.3629
 1475TIP3   OH225983   3.080   1.163   1.270 -0.2832  0.2891 -0.3422
 1475TIP3    H125984   2.985   1.172   1.267 -0.4375 -0.8164  0.4392
 1475TIP3    H225985   3.111   1.247   1.304 -1.0840  0.2446  0.5363
 1476TIP3   OH225986   5.721   4.972   2.060 -0.0260  0.2229  0.3353
 1476TIP3    H125987   5.711   5.051   2.112  1.6756  1.2562 -0.8220
 1476TIP3    H225988   5.738   4.903   2.124 -0.8823  0.9066  1.3173
 1477TIP3   OH225989   6.691   2.202   8.386  0.1940 -0.0266 -0.5166
 1477TIP3    H125990   6.679   2.237   8.474 -3.3635 -0.6039 -0.6224
 1477TIP3    H225991   6.741   2.121   8.398 -0.9498 -0.5402  1.1323
 1478TIP3   OH225992   0.382   0.989   6.264 -0.5157 -0.2465 -0.1552
 1478TIP3    H125993   0.297   0.952   6.285 -1.4326  0.8784 -1.7161
 1478TIP3    H225994   0.364   1.054   6.196  1.3841  1.0667  0.5177
 1479TIP3   OH225995   2.554   6.487   0.029 -0.0909  0.4959  0.3441
 1479TIP3    H125996   2.596   6.479  -0.057 -0.8875 -1.4122  0.0749
 1479TIP3    H225997   2.625   6.514   0.087  0.7025  0.7912 -0.7251
 1480TIP3   OH225998   6.138   1.565   6.715  0.2026  0.1520 -0.0527
 1480TIP3    H125999   6.174   1.640   6.762  0.5414 -0.5450  0.8373
 1480TIP3    H226000   6.044   1.584   6.707 -0.0484 -0.1301  1.7708
 1481TIP3   OH226001   3.319   0.293   1.457  0.0936  0.2007  0.2569
 1481TIP3    H126002   3.307   0.366   1.396  0.9593  0.3182  0.2166
 1481TIP3    H226003   3.345   0.219   1.402  0.0695  0.0872  0.3959
 1482TIP3   OH226004   4.471   1.568   7.228 -0.1047  0.5397  0.4358
 1482TIP3    H126005   4.556   1.610   7.212 -1.0906  2.6773  0.4833
 1482TIP3    H226006   4.438   1.546   7.141  0.0031  0.7343  0.3465
 1483TIP3   OH226007   3.885   5.494   7.068  0.0580  0.3365 -0.0261
 1483TIP3    H126008   3.955   5.551   7.036  1.3073 -0.4468  1.1932
 1483TIP3    H226009   3.804   5.533   7.033  1.1564  0.4882 -2.6383
 1484TIP3   OH226010   4.987   0.961   1.553 -0.1420 -0.5503  0.9552
 1484TIP3    H126011   5.025   1.040   1.592  0.4132  0.0811 -0.7359
 1484TIP3    H226012   5.058   0.897   1.555 -0.2203 -0.6244  1.2881
 1485TIP3   OH226013   4.748   6.023   1.276  0.0788  0.2652 -0.3431
 1485TIP3    H126014   4.753   5.942   1.226  2.0215  0.0237  0.1818
 1485TIP3    H226015   4.831   6.028   1.323 -1.0164  1.3177  1.6037
 1486TIP3   OH226016   2.044   4.463   0.285  0.1675 -0.2647  0.4307
 1486TIP3    H126017   1.969   4.484   0.229  0.9147  0.7088 -0.2563
 1486TIP3    H226018   2.007   4.414   0.358 -1.2046  0.6170  0.3574
 1487TIP3   OH226019   3.300   2.313   6.563 -0.2290  0.0395 -0.1506
 1487TIP3    H126020   3.299   2.363   6.645  0.8702  0.2692 -0.2698
 1487TIP3    H226021   3.348   2.233   6.584 -0.9487 -0.4334 -0.2790
 1488TIP3   OH226022   3.611   0.573   6.988  0.4876  0.1899 -0.5602
 1488TIP3    H126023   3.677   0.526   6.938 -0.7287 -0.7512 -1.3678
 1488TIP3    H226024   3.610   0.661   6.950  1.0807  0.1298 -0.7173
 1489TIP3   OH226025   2.835   6.847   0.789  0.1708 -0.2198 -0.1033
 1489TIP3    H126026   2.829   6.886   0.701  0.7915 -2.6033 -1.2964
 1489TIP3    H226027   2.927   6.853   0.812  0.4452 -1.6332 -0.6913
 1490TIP3   OH226028   1.807   2.901   6.301  0.1806  0.4372 -0.2773
 1490TIP3    H126029   1.779   2.814   6.273  1.2301 -0.1905  0.5176
 1490TIP3    H226030   1.726   2.947   6.321 -0.3718 -0.5621 -0.1418
 1491TIP3   OH226031   0.685   1.658   2.444  0.4986 -0.1560  0.2777
 1491TIP3    H126032   0.669   1.725   2.511 -0.0528  1.4992 -1.4305
 1491TIP3    H226033   0.777   1.670   2.421  0.4424 -0.0952  0.0852
 1492TIP3   OH226034   1.940   3.025   6.820  0.1071  0.2522 -0.2550
 1492TIP3    H126035   1.970   2.948   6.870  0.9614  1.3457  0.9969
 1492TIP3    H226036   1.921   2.991   6.733 -1.4206 -1.7472  0.7740
 1493TIP3   OH226037   0.603   2.490   7.863  0.4593 -0.6734 -0.3686
 1493TIP3    H126038   0.628   2.442   7.942 -0.1602 -1.2979 -0.5400
 1493TIP3    H226039   0.518   2.528   7.884  0.8523  0.1876 -0.3090
 1494TIP3   OH226040   1.522   2.200   8.351 -0.2457 -0.1803 -0.2260
 1494TIP3    H126041   1.539   2.292   8.330 -0.5909  0.0412  0.4328
 1494TIP3    H226042   1.606   2.156   8.337  0.4362  0.5727  1.2752
 1495TIP3   OH226043   0.946   4.737   0.593 -0.1076  0.0599 -0.0453
 1495TIP3    H126044   0.947   4.731   0.498 -0.1596  0.8146 -0.0988
 1495TIP3    H226045   0.915   4.826   0.611  0.5534  0.1566  0.6599
 1496TIP3   OH226046   0.228   0.542   8.050  0.5468 -0.2912  0.3561
 1496TIP3    H126047   0.311   0.585   8.030  0.2321  0.9521  1.5712
 1496TIP3    H226048   0.162   0.595   8.006  0.1937  0.2451  1.4897
 1497TIP3   OH226049   3.502   5.544   8.598 -0.4171 -0.3124 -0.1136
 1497TIP3    H126050   3.572   5.598   8.636  2.3649 -1.5147 -3.0794
 1497TIP3    H226051   3.481   5.587   8.515 -2.3205 -0.7199  0.1200
 1498TIP3   OH226052   4.836   6.763   0.459 -0.2427 -0.1556 -0.0521
 1498TIP3    H126053   4.908   6.795   0.405 -0.7029 -0.1374 -0.6663
 1498TIP3    H226054   4.764   6.750   0.397 -0.7793 -0.1270  0.5572
 1499TIP3   OH226055   0.806   3.908   0.588  0.1335 -0.4738  0.2685
 1499TIP3    H126056   0.752   3.840   0.548  0.7545  0.0200 -1.4952
 1499TIP3    H226057   0.893   3.868   0.595  0.7278  0.3978 -1.6418
 1500TIP3   OH226058   3.465   2.409   0.963  0.7037  0.1548 -0.1741
 1500TIP3    H126059   3.409   2.346   0.918 -0.0410 -0.2939  1.3471
 1500TIP3    H226060   3.553   2.371   0.958  0.6568  0.1528 -1.2798
 1501TIP3   OH226061   5.164   0.346   6.766  0.0078 -0.3931  0.4645
 1501TIP3    H126062   5.089   0.286   6.772 -2.0087  1.8574 -0.5472
 1501TIP3    H226063   5.177   0.358   6.673  1.7958 -0.8703  0.6305
 1502TIP3   OH226064   2.094   6.633   0.224  0.7364 -0.7627 -0.0580
 1502TIP3    H126065   2.188   6.615   0.215  1.5042  1.5755  2.0327
 1502TIP3    H226066   2.085   6.667   0.313 -1.8167  0.7069 -0.7828
 1503TIP3   OH226067   1.733   1.584   7.559 -0.8704 -0.1052 -0.4182
 1503TIP3    H126068   1.695   1.660   7.515  1.4987  0.4297 -1.6685
 1503TIP3    H226069   1.712   1.510   7.501 -1.2924 -0.0776 -0.3085
 1504TIP3   OH226070   4.147   3.310   0.244 -0.0072 -0.0945  0.1811
 1504TIP3    H126071   4.125   3.329   0.153 -1.9921 -2.4233  0.0783
 1504TIP3    H226072   4.212   3.241   0.240 -1.8197 -1.9182  0.4212
 1505TIP3   OH226073   4.122   0.345   8.587 -0.1706 -0.7540  0.1301
 1505TIP3    H126074   4.150   0.255   8.570  0.5111 -0.4762 -0.2466
 1505TIP3    H226075   4.063   0.366   8.514 -1.2856 -1.2948  0.8565
 1506TIP3   OH226076   1.738   1.916   7.291  0.4874 -0.2167 -0.5803
 1506TIP3    H126077   1.793   1.844   7.261  2.3346  0.1916  1.5623
 1506TIP3    H226078   1.686   1.878   7.362  0.0595  0.1108 -0.7142
 1507TIP3   OH226079   5.520   0.578   1.781  0.1342 -0.1226  0.2871
 1507TIP3    H126080   5.457   0.539   1.841  1.1000  0.7835  1.9680
 1507TIP3    H226081   5.590   0.611   1.838  0.2205  2.4137 -1.1504
 1508TIP3   OH226082   2.855   4.228   8.241  0.0670 -0.2280  0.7175
 1508TIP3    H126083   2.892   4.149   8.201  0.4984  0.5338 -0.4393
 1508TIP3    H226084   2.805   4.269   8.171 -0.6102  0.2494  1.4668
 1509TIP3   OH226085   4.172   1.339   1.385  0.0557  0.1143  0.2354
 1509TIP3    H126086   4.173   1.294   1.469 -0.3341 -0.2676  0.0418
 1509TIP3    H226087   4.086   1.381   1.381 -0.6325 -1.2830 -0.6852
 1510TIP3   OH226088   0.671   0.390   8.603 -0.9293  0.0630 -0.2648
 1510TIP3    H126089   0.758   0.392   8.643 -1.4900  2.6308  1.0760
 1510TIP3    H226090   0.687   0.387   8.509  0.6575  0.7863 -0.0528
 1511TIP3   OH226091   0.628   1.112   6.256  0.0169  0.0326  0.5679
 1511TIP3    H126092   0.558   1.056   6.291  0.5642 -0.5475  0.7390
 1511TIP3    H226093   0.638   1.083   6.165  0.6263 -0.4746  0.7940
 1512TIP3   OH226094   5.648   2.032   1.192 -0.1657  0.6428  0.0469
 1512TIP3    H126095   5.688   2.004   1.110 -0.3676 -2.2441  0.8410
 1512TIP3    H226096   5.598   1.956   1.222  1.0496  1.0625  3.5868
 1513TIP3   OH226097   6.494   4.376   7.400  0.1127 -0.3126 -0.3536
 1513TIP3    H126098   6.524   4.320   7.472 -0.8682  1.0471  1.1808
 1513TIP3    H226099   6.497   4.464   7.435  0.0002  0.4539 -2.1532
 1514TIP3   OH226100   2.678   0.312   1.422  0.3211 -0.2752 -0.0230
 1514TIP3    H126101   2.673   0.396   1.469  2.8642  0.3322 -0.6973
 1514TIP3    H226102   2.654   0.247   1.488 -0.8947  0.9025  0.7522
 1515TIP3   OH226103   5.675   0.634   7.169  0.1422 -0.1557 -0.5312
 1515TIP3    H126104   5.649   0.588   7.090 -0.8913  0.7979 -0.7768
 1515TIP3    H226105   5.633   0.720   7.162  0.6929  0.2418  0.6640
 1516TIP3   OH226106   0.083   0.512   0.188 -0.4281 -0.4905  0.2537
 1516TIP3    H126107   0.145   0.521   0.116  0.5058  2.1727  1.2912
 1516TIP3    H226108   0.030   0.591   0.185  0.3135  0.2387  3.0110
 1517TIP3   OH226109   1.572   0.558   0.450 -1.1170 -0.3958  1.0895
 1517TIP3    H126110   1.594   0.631   0.509 -1.9007  0.2006  0.6581
 1517TIP3    H226111   1.481   0.574   0.425 -0.2825  0.4454 -1.7841
 1518TIP3   OH226112   5.152   5.840   1.728  0.2914  0.2243 -0.0270
 1518TIP3    H126113   5.154   5.934   1.711 -1.0877  0.1124 -1.0240
 1518TIP3    H226114   5.240   5.810   1.708  0.8981  1.3742  0.8142
 1519TIP3   OH226115   0.176   5.158   2.193  0.6014  0.3690  0.4738
 1519TIP3    H126116   0.099   5.119   2.235 -0.1663 -0.7732 -1.8517
 1519TIP3    H226117   0.181   5.246   2.230 -1.6849  0.3836  0.8829
 1520TIP3   OH226118   5.251   2.739   0.121  0.5742 -0.0001  0.2938
 1520TIP3    H126119   5.263   2.813   0.180 -1.9670  0.7709 -0.0533
 1520TIP3    H226120   5.244   2.663   0.179  1.7947  0.1814  0.7224
 1521TIP3   OH226121   2.504   5.979   1.054  0.2128 -0.0764  0.3420
 1521TIP3    H126122   2.544   5.906   1.006  0.2162 -0.1122  0.3997
 1521TIP3    H226123   2.570   6.048   1.052 -0.4537  0.5588 -1.2421
 1522TIP3   OH226124   3.014   4.604   6.748 -0.3509  0.6985  0.8605
 1522TIP3    H126125   3.036   4.536   6.812 -0.5123  0.8740  1.1066
 1522TIP3    H226126   2.934   4.645   6.783 -0.7983  0.3889  0.2301
 1523TIP3   OH226127   3.746   0.674   1.907 -0.1093 -0.2767 -0.4597
 1523TIP3    H126128   3.755   0.591   1.954 -3.1328 -0.0233  0.7802
 1523TIP3    H226129   3.682   0.656   1.839 -2.0435  1.3131  0.8145
 1524TIP3   OH226130   6.821   1.263   1.764 -0.8949 -0.3755  0.2511
 1524TIP3    H126131   6.746   1.240   1.819 -0.9275  1.1557  0.9100
 1524TIP3    H226132   6.837   1.355   1.784  1.0179 -0.6087 -0.0627
 1525TIP3   OH226133   6.871   0.653   6.478  0.7058 -0.4312 -0.0821
 1525TIP3    H126134   6.834   0.698   6.554 -0.3937  0.6197 -1.1919
 1525TIP3    H226135   6.857   0.560   6.497 -0.4805 -0.1480  0.5610
 1526TIP3   OH226136   5.497   4.966   0.604  0.1716 -0.4479  0.3300
 1526TIP3    H126137   5.568   4.964   0.540 -0.0223  1.0268  0.0410
 1526TIP3    H226138   5.519   4.897   0.667  0.3706 -1.9464 -1.3044
 1527TIP3   OH226139   1.707   4.990   7.260 -0.0681  0.4255 -0.5609
 1527TIP3    H126140   1.687   4.905   7.219  1.6261 -0.1613 -0.2456
 1527TIP3    H226141   1.683   5.055   7.193 -2.8076 -0.1534 -0.2604
 1528TIP3   OH226142   6.475   5.317   7.211 -0.0361 -0.0903  0.1237
 1528TIP3    H126143   6.386   5.322   7.245  0.5964  0.8319  1.7161
 1528TIP3    H226144   6.480   5.386   7.145 -0.8724 -1.0489 -1.0011
 1529TIP3   OH226145   6.521   4.937   8.116 -0.5036 -0.6725  0.2057
 1529TIP3    H126146   6.543   4.953   8.207 -0.1484  0.0422  0.0052
 1529TIP3    H226147   6.425   4.938   8.113 -0.5603 -2.1517  0.8085
 1530TIP3   OH226148   5.296   2.596   7.105 -0.0414 -0.1787 -0.1003
 1530TIP3    H126149   5.367   2.651   7.139 -1.5264  0.6844  1.8073
 1530TIP3    H226150   5.242   2.656   7.053  0.0801 -0.6203 -0.7592
 1531TIP3   OH226151   4.596   6.072   0.949  0.5193  0.4335 -0.2391
 1531TIP3    H126152   4.542   5.997   0.972 -0.1053  0.2922 -2.0161
 1531TIP3    H226153   4.673   6.033   0.907 -0.8276  0.7321 -3.2727
 1532TIP3   OH226154   5.696   6.157   2.525 -0.1890 -0.5151 -0.3558
 1532TIP3    H126155   5.604   6.167   2.502 -0.1464 -0.0432 -0.3274
 1532TIP3    H226156   5.700   6.073   2.572 -0.4850 -0.8656 -0.9508
 1533TIP3   OH226157   3.577   2.800   8.202  0.4892  0.1286 -0.4707
 1533TIP3    H126158   3.636   2.790   8.277 -1.2097 -1.3959  0.7561
 1533TIP3    H226159   3.616   2.745   8.134  0.8547 -0.3234  0.0909
 1534TIP3   OH226160   2.728   2.982   0.443 -0.5575 -0.5167 -0.4301
 1534TIP3    H126161   2.807   2.929   0.456 -0.4177 -0.0557  0.8385
 1534TIP3    H226162   2.679   2.937   0.375  1.1355 -0.4226 -1.7619
 1535TIP3   OH226163   0.881   4.605   1.077 -0.9275  0.5373 -0.1880
 1535TIP3    H126164   0.977   4.606   1.085 -0.9870 -1.2573  1.9094
 1535TIP3    H226165   0.854   4.695   1.093  0.3194  0.6220  1.7019
 1536TIP3   OH226166   6.246   6.515   0.177 -0.2686 -0.2869 -0.2141
 1536TIP3    H126167   6.200   6.588   0.219  0.4572  0.4953 -0.7448
 1536TIP3    H226168   6.273   6.458   0.249 -0.1445  0.3895  0.2822
 1537TIP3   OH226169   0.990   3.402   8.464 -0.4041  0.1451  0.0134
 1537TIP3    H126170   1.035   3.390   8.380  1.8297  0.5406  1.0549
 1537TIP3    H226171   0.945   3.486   8.455 -0.7215 -0.1289 -1.0068
 1538TIP3   OH226172   6.430   0.162   5.633 -0.4929  0.7804  0.0235
 1538TIP3    H126173   6.370   0.144   5.705 -0.0670 -1.1222 -0.0442
 1538TIP3    H226174   6.517   0.164   5.673 -0.3616  0.9780 -0.2618
 1539TIP3   OH226175   5.940   5.970   6.888 -0.0997 -0.1363  0.0446
 1539TIP3    H126176   5.887   5.950   6.965  0.0655 -1.9057 -0.2696
 1539TIP3    H226177   6.024   6.001   6.924 -0.4556  0.2616  0.5478
 1540TIP3   OH226178   3.883   0.015   2.548  0.4603 -0.0471  0.1185
 1540TIP3    H126179   3.972   0.040   2.571  1.1800 -2.7238  0.4767
 1540TIP3    H226180   3.860   0.075   2.476  1.6606  2.1532  1.4532
 1541TIP3   OH226181   0.329   6.582   8.348  0.1737  0.2648 -0.4647
 1541TIP3    H126182   0.287   6.505   8.311 -0.7272  0.7602 -0.4901
 1541TIP3    H226183   0.389   6.612   8.280 -1.2530  0.9965 -1.4590
 1542TIP3   OH226184   3.031   3.532   7.799  0.1489  0.2701 -0.1920
 1542TIP3    H126185   2.985   3.507   7.719 -0.4376  2.2060 -0.5119
 1542TIP3    H226186   2.960   3.553   7.861  0.6008  0.3963  0.2889
 1543TIP3   OH226187   3.597   1.772   6.902  0.0514 -0.0031  0.0145
 1543TIP3    H126188   3.571   1.754   6.811  0.6335  0.7692 -0.3170
 1543TIP3    H226189   3.616   1.866   6.903 -0.2796  0.0608  1.0288
 1544TIP3   OH226190   4.481   5.398   1.903 -0.4079  0.7688  0.3447
 1544TIP3    H126191   4.437   5.410   1.987 -0.0351  2.6612  0.3152
 1544TIP3    H226192   4.565   5.360   1.925 -0.3229  1.2263  0.8447
 1545TIP3   OH226193   5.555   3.740   0.282  0.1169 -0.0812  0.0375
 1545TIP3    H126194   5.481   3.715   0.226  1.8273 -0.6829 -2.1236
 1545TIP3    H226195   5.515   3.762   0.366 -2.6596  1.0335 -1.4142
 1546TIP3   OH226196   3.466   3.676   0.259  0.6203  0.6706 -0.2245
 1546TIP3    H126197   3.503   3.674   0.348 -1.2585  0.2604  0.5956
 1546TIP3    H226198   3.491   3.591   0.221 -0.3878 -0.0810  0.7299
 1547TIP3   OH226199   1.828   3.654   7.200 -0.0800 -0.6950 -0.0957
 1547TIP3    H126200   1.843   3.563   7.223  1.6745 -0.2857  0.4902
 1547TIP3    H226201   1.841   3.703   7.281 -2.9529 -0.0413  0.0914
 1548TIP3   OH226202   1.924   2.230   0.788  1.2956 -0.0816 -0.2638
 1548TIP3    H126203   1.856   2.163   0.794  0.8581  0.5078  2.9387
 1548TIP3    H226204   1.992   2.191   0.733  0.3101 -2.4760  0.1186
 1549TIP3   OH226205   6.597   2.456   0.337 -0.4141 -1.2742  0.2439
 1549TIP3    H126206   6.683   2.415   0.332 -0.2212 -0.7776 -0.7711
 1549TIP3    H226207   6.594   2.515   0.262 -1.0684 -0.1569  1.1256
 1550TIP3   OH226208   0.488   6.291   1.839  0.3612  0.3716  0.2239
 1550TIP3    H126209   0.393   6.283   1.840  0.2952  0.3272 -1.8712
 1550TIP3    H226210   0.505   6.375   1.796  1.2788  0.7561  1.2848
 1551TIP3   OH226211   6.298   3.929   0.746  0.2787  0.3897 -0.2781
 1551TIP3    H126212   6.292   3.845   0.792 -0.4793  0.3865 -0.3554
 1551TIP3    H226213   6.239   3.987   0.795 -0.1535  0.5275 -0.9404
 1552TIP3   OH226214   0.286   3.375   7.264 -0.6949  0.0860 -0.1169
 1552TIP3    H126215   0.225   3.303   7.284  0.3484 -0.4555  1.2161
 1552TIP3    H226216   0.309   3.411   7.349  0.8300  0.2941 -0.5927
 1553TIP3   OH226217   4.009   3.793   0.929 -0.3972 -0.0777 -0.0406
 1553TIP3    H126218   4.084   3.763   0.876  1.0470  0.9087  1.3394
 1553TIP3    H226219   4.049   3.839   1.002 -2.2823 -1.5906  2.0949
 1554TIP3   OH226220   6.432   4.492   8.334  0.4057 -0.5621 -0.1991
 1554TIP3    H126221   6.497   4.545   8.380 -0.4688  0.9811 -0.6664
 1554TIP3    H226222   6.364   4.554   8.308  0.5155 -1.4675 -2.9754
 1555TIP3   OH226223   2.067   0.299   8.351 -0.0905 -0.0922 -0.1027
 1555TIP3    H126224   2.142   0.262   8.305  0.4147  0.0378  0.5953
 1555TIP3    H226225   1.994   0.291   8.289  0.8439  1.3371 -1.4798
 1556TIP3   OH226226   2.749   5.666   6.785 -0.0768  0.0879  0.4665
 1556TIP3    H126227   2.792   5.624   6.860  0.1830  2.4714  1.7681
 1556TIP3    H226228   2.821   5.692   6.728 -0.1338  0.0498  0.3765
 1557TIP3   OH226229   2.793   0.352   0.757  0.4975  0.3456  0.0045
 1557TIP3    H126230   2.811   0.377   0.666 -0.4602 -0.6169 -0.4717
 1557TIP3    H226231   2.758   0.263   0.751  0.5044  0.2350  1.3349
 1558TIP3   OH226232   4.961   3.481   0.673  0.2810 -0.2924  0.2726
 1558TIP3    H126233   4.965   3.400   0.622  2.3270 -1.2249  1.7775
 1558TIP3    H226234   4.916   3.456   0.754 -0.2110  0.4000  0.2176
 1559TIP3   OH226235   6.648   3.015   7.336 -0.0639 -0.3313  0.4484
 1559TIP3    H126236   6.570   2.990   7.286 -0.3928 -1.3077  1.4069
 1559TIP3    H226237   6.667   3.104   7.308 -2.4969  0.5416  1.3568
 1560TIP3   OH226238   2.740   2.111   8.604 -0.0951 -0.6412 -0.2721
 1560TIP3    H126239   2.659   2.070   8.632 -1.4344  1.4547 -0.8848
 1560TIP3    H226240   2.798   2.104   8.680 -0.3276 -3.3015 -0.2577
 1561TIP3   OH226241   3.250   2.424   2.292 -0.5192 -0.1207  0.2477
 1561TIP3    H126242   3.161   2.450   2.266 -0.4975 -0.8771 -0.6191
 1561TIP3    H226243   3.304   2.501   2.274 -0.7881 -0.0805 -0.4032
 1562TIP3   OH226244   4.510   2.909   8.132  0.0229 -0.1020 -0.6664
 1562TIP3    H126245   4.471   2.996   8.137  1.2726  0.4150  1.5164
 1562TIP3    H226246   4.596   2.923   8.092 -0.4102 -0.6247 -1.8281
 1563TIP3   OH226247   0.003   5.209   7.606 -0.9080  0.0224  0.2304
 1563TIP3    H126248   0.068   5.157   7.558 -0.6925 -0.3251  0.8729
 1563TIP3    H226249  -0.071   5.150   7.618 -0.2432 -0.5599  1.9075
 1564TIP3   OH226250   4.039   3.778   7.935  0.2783  0.3820  0.1532
 1564TIP3    H126251   4.063   3.778   7.842 -0.2879 -0.7481 -0.0129
 1564TIP3    H226252   3.945   3.797   7.935 -0.4860 -2.7436  0.2044
 1565TIP3   OH226253   3.221   3.473   8.399 -0.1879  0.0982 -0.2758
 1565TIP3    H126254   3.183   3.533   8.334 -1.6637  1.2921  1.5842
 1565TIP3    H226255   3.225   3.525   8.479 -1.5505 -2.2891  1.4380
 1566TIP3   OH226256   4.718   4.764   7.736 -0.5234 -0.6227  0.3005
 1566TIP3    H126257   4.689   4.776   7.826  0.3164 -0.3147  0.5368
 1566TIP3    H226258   4.639   4.735   7.689 -1.8422  2.4035  0.4228
 1567TIP3   OH226259   5.662   2.996   0.120  0.1985 -0.1941 -0.0446
 1567TIP3    H126260   5.613   2.917   0.096 -1.7288  0.9871 -0.1598
 1567TIP3    H226261   5.625   3.024   0.203  1.5775  0.0416  0.5195
 1568TIP3   OH226262   2.150   5.775   1.055  0.2686  0.1268 -0.0334
 1568TIP3    H126263   2.207   5.781   0.978  0.6247 -0.3502  0.1872
 1568TIP3    H226264   2.204   5.808   1.127  0.5388 -1.0551  0.3132
 1569TIP3   OH226265   5.732   4.781   1.559 -1.0952 -0.4647  0.2091
 1569TIP3    H126266   5.767   4.862   1.524 -1.6940 -0.4239 -0.3203
 1569TIP3    H226267   5.790   4.713   1.525 -1.2963 -0.3653 -0.3355
 1570TIP3   OH226268   4.016   6.327   7.870  0.4010  0.0128  0.1605
 1570TIP3    H126269   3.926   6.300   7.852 -0.4030  2.8455 -0.5912
 1570TIP3    H226270   4.008   6.409   7.918  2.5543  1.1384 -1.2161
 1571TIP3   OH226271   0.444   2.921   8.298 -0.0439  0.0802 -0.2018
 1571TIP3    H126272   0.449   3.004   8.251 -0.4126  0.7681  0.9325
 1571TIP3    H226273   0.436   2.946   8.390  0.3413 -1.2242  0.2085
 1572TIP3   OH226274   6.636   0.511   0.172  0.9594  0.1764  0.2884
 1572TIP3    H126275   6.552   0.548   0.200  0.5774 -0.1556 -0.3717
 1572TIP3    H226276   6.619   0.478   0.084  1.0498 -2.3352  1.1346
 1573TIP3   OH226277   2.733   4.963   2.357  0.0709  0.3064  0.2522
 1573TIP3    H126278   2.682   4.959   2.439  2.5473  0.6979  1.9061
 1573TIP3    H226279   2.728   5.055   2.330 -0.6112  0.2096  0.0187
 1574TIP3   OH226280   1.082   6.602   6.349 -0.3359  0.1762 -0.1324
 1574TIP3    H126281   1.005   6.573   6.400 -0.4207  0.1484 -0.2749
 1574TIP3    H226282   1.049   6.611   6.260 -0.1590  0.1094 -0.2048
 1575TIP3   OH226283   0.219   3.899   8.512  0.0988  0.3193 -0.1198
 1575TIP3    H126284   0.203   3.989   8.541 -0.1146  0.3242 -0.2533
 1575TIP3    H226285   0.207   3.846   8.591 -0.0365  0.3813 -0.0988
 1576TIP3   OH226286   4.638   4.634   0.572  0.5410  0.0965  0.0415
 1576TIP3    H126287   4.705   4.585   0.524  0.9895 -0.3531  1.1031
 1576TIP3    H226288   4.564   4.574   0.576 -0.3713  0.9826 -2.0691
 1577TIP3   OH226289   2.907   4.065   0.955  0.8213  0.0994 -0.3257
 1577TIP3    H126290   2.922   4.092   1.046 -0.1481 -0.9799  0.1854
 1577TIP3    H226291   2.840   4.125   0.923  2.3437  1.5664 -0.9164
 1578TIP3   OH226292   2.550   1.424   8.086  0.3140  0.9390  0.0211
 1578TIP3    H126293   2.557   1.510   8.127  0.1093  1.0912 -0.2575
 1578TIP3    H226294   2.615   1.371   8.131  0.4642  1.2482  0.1745
 1579TIP3   OH226295   0.468   4.633   0.801  0.0176  0.1218  0.1547
 1579TIP3    H126296   0.463   4.692   0.726  1.1793  0.9457  0.6966
 1579TIP3    H226297   0.559   4.605   0.804 -0.3213 -0.9965  0.4484
 1580TIP3   OH226298   1.924   0.074   7.091 -0.0369  0.1754 -0.0983
 1580TIP3    H126299   1.876   0.058   7.009 -0.5963 -1.8037  0.5411
 1580TIP3    H226300   1.859   0.059   7.159  0.5372  1.3791  0.7349
 1581TIP3   OH226301   5.524   3.857   7.870 -0.3321  0.0272  0.1005
 1581TIP3    H126302   5.455   3.867   7.804 -1.1330  0.5196  0.9821
 1581TIP3    H226303   5.556   3.947   7.885  1.0245 -0.2706 -0.8184
 1582TIP3   OH226304   2.680   5.269   7.630 -0.1571  0.1635 -0.1796
 1582TIP3    H126305   2.603   5.303   7.676  0.8617  2.1057  0.1714
 1582TIP3    H226306   2.737   5.238   7.700  0.6280  1.4769 -0.2086
 1583TIP3   OH226307   5.437   3.794   7.538  0.2099 -0.4925 -0.3970
 1583TIP3    H126308   5.468   3.859   7.475 -1.2305 -1.3349 -2.0514
 1583TIP3    H226309   5.389   3.844   7.603  1.4498  0.3631 -0.0963
 1584TIP3   OH226310   2.252   3.125   6.112  0.0402 -0.4548  0.0249
 1584TIP3    H126311   2.204   3.055   6.157 -0.2735 -1.0059 -1.1331
 1584TIP3    H226312   2.339   3.088   6.098  1.2619  0.9379  3.1016
 1585TIP3   OH226313   3.205   0.064   7.451 -0.9028 -0.2895  0.2697
 1585TIP3    H126314   3.282   0.049   7.505  0.4230 -1.4948 -1.8043
 1585TIP3    H226315   3.205   0.158   7.435  0.9425 -0.4081 -0.7189
 1586TIP3   OH226316   1.266   2.649   0.082  0.2111  0.0405 -0.1950
 1586TIP3    H126317   1.360   2.635   0.076  0.1293 -1.3014  1.1728
 1586TIP3    H226318   1.228   2.561   0.084 -1.1481  0.5420 -1.3841
 1587TIP3   OH226319   3.498   1.358   1.826  0.6962  0.0897  0.3163
 1587TIP3    H126320   3.415   1.336   1.868  0.2102 -0.2338 -0.7619
 1587TIP3    H226321   3.563   1.303   1.869  0.5589  1.1092  1.9152
 1588TIP3   OH226322   2.292   2.776   8.630 -0.4283  0.4498  0.0381
 1588TIP3    H126323   2.289   2.680   8.625  1.2384  0.1844  2.5914
 1588TIP3    H226324   2.202   2.801   8.650 -0.4704 -0.8154  1.6474
 1589TIP3   OH226325   4.827   4.038   1.601  0.4469  0.1429  0.2002
 1589TIP3    H126326   4.922   4.054   1.606  0.5392 -0.6850  1.7895
 1589TIP3    H226327   4.789   4.123   1.581  1.4976  0.5747 -0.0219
 1590TIP3   OH226328   2.760   5.746   7.917  0.4467 -0.2187 -0.1557
 1590TIP3    H126329   2.848   5.752   7.953 -0.2819  2.8197  1.4734
 1590TIP3    H226330   2.751   5.824   7.861 -1.4856  0.1452  0.5583
 1591TIP3   OH226331   5.385   6.255   8.279  0.5013  0.2894  1.0286
 1591TIP3    H126332   5.433   6.302   8.211 -0.8122  0.9578  0.5374
 1591TIP3    H226333   5.366   6.322   8.345  0.6926 -0.0829  1.4664
 1592TIP3   OH226334   6.801   4.347   7.422 -0.1507 -0.5066  0.0923
 1592TIP3    H126335   6.807   4.441   7.437 -1.4106 -0.6497  1.7095
 1592TIP3    H226336   6.820   4.337   7.328 -1.3886  1.4888 -0.4395
 1593TIP3   OH226337   4.382   3.142   8.165 -0.9041 -0.0862 -0.3714
 1593TIP3    H126338   4.428   3.225   8.164 -0.4554 -0.3191  0.2829
 1593TIP3    H226339   4.295   3.163   8.200 -0.0293 -0.2501  2.0370
 1594TIP3   OH226340   6.129   6.190   0.109  0.0215 -0.2155 -0.2942
 1594TIP3    H126341   6.178   6.181   0.027  2.3566  0.5340  0.9327
 1594TIP3    H226342   6.185   6.149   0.175 -0.7440  1.1472  1.2858
 1595TIP3   OH226343   5.024   0.306   0.824 -0.0737 -0.0795  0.5124
 1595TIP3    H126344   4.992   0.342   0.907  0.7231  0.6642  0.5081
 1595TIP3    H226345   5.116   0.330   0.821  0.3942 -1.8361  0.3248
 1596TIP3   OH226346   1.816   2.875   0.543  0.1453  0.2427 -0.0682
 1596TIP3    H126347   1.721   2.886   0.548  0.1276 -0.2000  0.8315
 1596TIP3    H226348   1.841   2.842   0.630  0.9334 -1.0650 -0.7556
 1597TIP3   OH226349   4.980   3.606   1.033 -0.4646 -0.0110 -0.3213
 1597TIP3    H126350   4.952   3.601   1.124 -0.6227  0.3375 -0.3467
 1597TIP3    H226351   4.922   3.672   0.994 -2.7369 -2.5248 -1.5147
 1598TIP3   OH226352   4.696   2.220   2.259  0.7639  0.5143 -0.0928
 1598TIP3    H126353   4.618   2.260   2.296 -0.1696  0.2269 -1.6611
 1598TIP3    H226354   4.764   2.233   2.325 -0.4140  1.4466  0.9700
 1599TIP3   OH226355   2.925   0.988   7.501 -0.4046 -0.1835 -0.1662
 1599TIP3    H126356   2.890   0.917   7.447  0.5599 -0.0984 -0.9329
 1599TIP3    H226357   2.892   1.068   7.459 -0.9979 -0.1549  0.3447
 1600TIP3   OH226358   5.892   3.383   7.786  0.4810  0.1052 -0.2956
 1600TIP3    H126359   5.928   3.435   7.858  2.6570 -0.1194 -1.1245
 1600TIP3    H226360   5.831   3.443   7.742  1.8784  1.5253 -0.4018
 1601TIP3   OH226361   3.273   0.821   0.771 -0.3847  0.3044 -0.0374
 1601TIP3    H126362   3.179   0.803   0.765 -0.2832 -0.0065 -0.7173
 1601TIP3    H226363   3.297   0.792   0.860 -0.6822 -0.7806 -0.2959
 1602TIP3   OH226364   6.231   5.357   1.251 -0.4481  0.6246 -1.1119
 1602TIP3    H126365   6.240   5.440   1.298  0.2217  0.2746 -0.6020
 1602TIP3    H226366   6.198   5.296   1.316  1.0485 -0.0103 -0.9098
 1603TIP3   OH226367   4.746   3.098   0.066  0.1200 -0.1863  0.1645
 1603TIP3    H126368   4.741   3.019   0.013 -1.4898  0.4214 -0.6655
 1603TIP3    H226369   4.655   3.121   0.084  0.5848  0.2755  2.2529
 1604TIP3   OH226370   4.365   2.247   7.221  0.5892  0.7377  0.0340
 1604TIP3    H126371   4.343   2.308   7.291 -1.1164 -1.1060  1.2078
 1604TIP3    H226372   4.305   2.269   7.150 -1.2748 -0.5841  1.1046
 1605TIP3   OH226373   4.754   5.660   8.620  0.0927 -0.9147  0.4674
 1605TIP3    H126374   4.687   5.597   8.596  0.9838 -2.0574  0.8735
 1605TIP3    H226375   4.773   5.708   8.539 -0.2814 -1.4670  0.0505
 1606TIP3   OH226376   1.291   5.076   1.190  0.9814 -0.4877 -0.4379
 1606TIP3    H126377   1.259   5.147   1.246  0.2481 -1.5730  0.5668
 1606TIP3    H226378   1.378   5.055   1.224  1.1633 -0.1424 -0.6817
 1607TIP3   OH226379   2.158   6.342   7.086  0.1911 -0.0543  0.5438
 1607TIP3    H126380   2.200   6.274   7.033  0.7831  0.1093  0.8013
 1607TIP3    H226381   2.220   6.414   7.088 -1.6444  1.8342 -2.3335
 1608TIP3   OH226382   1.454   4.813   6.870  0.0455  0.1918  0.3002
 1608TIP3    H126383   1.477   4.821   6.778 -0.2742  0.0952  0.2091
 1608TIP3    H226384   1.448   4.719   6.886  0.4208  0.2029  0.5013
 1609TIP3   OH226385   0.961   3.729   7.760  0.1779 -0.3337 -0.1510
 1609TIP3    H126386   0.919   3.740   7.675 -2.3775  0.9509  1.1696
 1609TIP3    H226387   1.024   3.802   7.765 -0.9714  0.6935 -0.2411
 1610TIP3   OH226388   1.784   6.292   0.736  0.2710 -1.0974 -0.6053
 1610TIP3    H126389   1.757   6.219   0.681  0.2053 -1.9198  0.4973
 1610TIP3    H226390   1.706   6.315   0.786  0.7918 -1.5614  0.4571
 1611TIP3   OH226391   3.442   2.350   1.889 -1.0738  0.3336  0.0799
 1611TIP3    H126392   3.492   2.295   1.949 -1.4158 -0.9308 -0.7477
 1611TIP3    H226393   3.469   2.439   1.910 -0.1384 -0.1714  1.1381
 1612TIP3   OH226394   3.296   2.754   8.175 -0.4944  0.1954 -0.1799
 1612TIP3    H126395   3.376   2.799   8.203 -0.8364  0.4040  0.4823
 1612TIP3    H226396   3.226   2.817   8.192 -0.9869 -0.5766  0.8003
 1613TIP3   OH226397   4.700   2.002   7.587  0.5650  0.4852  0.0722
 1613TIP3    H126398   4.772   1.942   7.610 -0.3152 -0.1518  1.3100
 1613TIP3    H226399   4.651   1.955   7.520  0.5254  0.3252  0.2128
 1614TIP3   OH226400   4.557   2.222   0.411 -0.1056  0.7187  0.1009
 1614TIP3    H126401   4.553   2.137   0.366 -1.1088  2.3620 -3.2446
 1614TIP3    H226402   4.480   2.222   0.468  1.5934 -1.7303  2.6459
 1615TIP3   OH226403   6.683   6.030   6.997 -0.2318 -0.3502 -0.0955
 1615TIP3    H126404   6.642   6.049   6.912  0.1980 -0.9707 -0.4530
 1615TIP3    H226405   6.645   6.094   7.057 -0.8833 -0.1953 -0.6586
 1616TIP3   OH226406   5.457   6.742   2.388  0.1562 -0.4314  1.0647
 1616TIP3    H126407   5.377   6.794   2.394  0.7316  0.7703 -0.7950
 1616TIP3    H226408   5.427   6.652   2.375 -0.8757 -0.1706  1.5569
 1617TIP3   OH226409   6.438   0.711   7.888 -0.2739 -0.4390 -0.2034
 1617TIP3    H126410   6.391   0.778   7.938  0.1645 -0.3632  0.1078
 1617TIP3    H226411   6.530   0.737   7.893 -0.1161 -0.9895 -0.1956
 1618TIP3   OH226412   3.904   6.531   7.015  0.3077  0.3494 -0.1381
 1618TIP3    H126413   3.939   6.619   7.002  0.2100  0.2527 -1.1810
 1618TIP3    H226414   3.914   6.514   7.108  1.9599  0.7721 -0.2177
 1619TIP3   OH226415   5.712   1.193   6.555  0.1246  0.3836  1.0388
 1619TIP3    H126416   5.803   1.215   6.534  0.1947  0.3683  1.3190
 1619TIP3    H226417   5.702   1.220   6.647  0.1888 -0.6593  1.3694
 1620TIP3   OH226418   4.590   2.318   1.627  0.0496 -0.1666 -0.4001
 1620TIP3    H126419   4.654   2.364   1.682 -0.4419 -0.7550  0.7074
 1620TIP3    H226420   4.613   2.343   1.538  1.5184  0.0190 -0.0073
 1621TIP3   OH226421   3.425   6.412   0.838 -0.7010 -0.8219  0.3595
 1621TIP3    H126422   3.371   6.444   0.911 -0.6491 -0.1037  0.0922
 1621TIP3    H226423   3.419   6.317   0.844  0.6076 -0.8610  2.3201
 1622TIP3   OH226424   4.261   5.962   1.435  0.0444  0.1049 -0.6645
 1622TIP3    H126425   4.331   5.897   1.440  1.1858  1.2813 -0.5713
 1622TIP3    H226426   4.193   5.930   1.494  0.5125 -1.0711 -0.7517
 1623TIP3   OH226427   4.845   4.500   0.419  0.3356  0.0202  0.0731
 1623TIP3    H126428   4.821   4.446   0.344  0.0573  1.0703 -0.6161
 1623TIP3    H226429   4.926   4.544   0.392  0.9097 -0.5106  0.8703
 1624TIP3   OH226430   5.479   1.660   0.575 -0.9482  0.1516 -0.2535
 1624TIP3    H126431   5.555   1.692   0.526 -0.8193 -0.2792 -0.3340
 1624TIP3    H226432   5.481   1.710   0.657  0.1174 -0.6993  0.2585
 1625TIP3   OH226433   2.897   5.458   1.564 -0.0324 -0.3304  0.1550
 1625TIP3    H126434   2.951   5.498   1.496  0.6651 -0.3313  0.6895
 1625TIP3    H226435   2.943   5.478   1.646 -1.7562  1.1851  0.8227
 1626TIP3   OH226436   2.650   5.730   7.513  0.5555 -0.1398 -0.0481
 1626TIP3    H126437   2.616   5.709   7.600  0.6977 -0.7355 -0.1292
 1626TIP3    H226438   2.732   5.681   7.507  1.1029  0.7595 -0.1060
 1627TIP3   OH226439   0.036   5.484   8.244 -0.2286  0.3462  0.3112
 1627TIP3    H126440  -0.002   5.527   8.321 -2.8477 -0.5275 -0.3771
 1627TIP3    H226441  -0.039   5.470   8.185  1.5222  0.0959 -1.9826
 1628TIP3   OH226442   2.569   3.199   8.115 -0.4020  0.1562  0.2039
 1628TIP3    H126443   2.630   3.232   8.181 -1.4676  0.8341  0.8804
 1628TIP3    H226444   2.529   3.277   8.078 -0.4393 -0.2587 -0.6515
 1629TIP3   OH226445   1.427   1.117   7.379  0.1948 -0.0811  0.3292
 1629TIP3    H126446   1.514   1.096   7.413 -0.9521 -0.9556  2.9820
 1629TIP3    H226447   1.412   1.207   7.406  0.1537 -0.0260  0.1246
 1630TIP3   OH226448   4.146   5.690   0.809  0.3359 -0.0245  0.0549
 1630TIP3    H126449   4.088   5.712   0.881  0.1113  0.7997 -0.3606
 1630TIP3    H226450   4.107   5.733   0.733  1.3364  0.3219 -0.2806
 1631TIP3   OH226451   3.629   0.301   7.179  0.0729 -0.3618  0.8270
 1631TIP3    H126452   3.664   0.387   7.202  0.0009 -0.1237  0.0624
 1631TIP3    H226453   3.599   0.310   7.088  2.3891 -1.8917 -0.1843
 1632TIP3   OH226454   1.351   1.866   8.275  0.1104  1.4188  0.5661
 1632TIP3    H126455   1.283   1.934   8.278 -0.6779  0.6022  1.6723
 1632TIP3    H226456   1.386   1.864   8.364 -0.0585  0.1951  0.6112
 1633TIP3   OH226457   1.242   5.067   5.931 -0.0252  0.2800  0.3061
 1633TIP3    H126458   1.171   5.120   5.894 -0.7980 -1.5566 -0.9744
 1633TIP3    H226459   1.322   5.102   5.891 -0.3906  1.1981  0.3624
 1634TIP3   OH226460   1.407   2.153   0.655 -0.5495 -0.6832 -0.2897
 1634TIP3    H126461   1.354   2.203   0.718 -0.7939  0.3647 -1.2989
 1634TIP3    H226462   1.440   2.218   0.594 -0.7030 -1.7238 -1.5345
 1635TIP3   OH226463   2.882   3.199   0.709 -0.1545 -0.2589  0.9400
 1635TIP3    H126464   2.837   3.201   0.793 -1.1568 -1.6083  0.4709
 1635TIP3    H226465   2.817   3.167   0.647  0.2551  1.6772 -0.5868
 1636TIP3   OH226466   3.187   3.921   7.362 -0.2235  0.1282  0.4828
 1636TIP3    H126467   3.280   3.921   7.339  0.0669  2.6865  1.3689
 1636TIP3    H226468   3.142   3.927   7.278  0.5326  1.5481  0.1492
 1637TIP3   OH226469   0.499   6.547   7.756 -0.3030  0.7274  0.2402
 1637TIP3    H126470   0.542   6.615   7.703 -0.4548  1.1268  0.6216
 1637TIP3    H226471   0.408   6.546   7.725 -0.2814  0.6475  0.1809
 1638TIP3   OH226472   0.368   4.579   7.969  0.2296 -0.1894 -0.0736
 1638TIP3    H126473   0.346   4.569   7.877  1.8377  0.1688 -0.5262
 1638TIP3    H226474   0.441   4.520   7.984  0.0968 -0.1278  0.9371
 1639TIP3   OH226475   0.333   1.048   2.423  0.1956  0.2974 -0.1516
 1639TIP3    H126476   0.413   1.009   2.458 -0.0957  1.2622  1.7659
 1639TIP3    H226477   0.291   0.977   2.375  1.2890 -0.7793  0.4131
 1640TIP3   OH226478   0.838   6.264   8.010 -0.1679  0.0679  0.0627
 1640TIP3    H126479   0.818   6.172   7.992  2.5865 -0.5506 -0.3803
 1640TIP3    H226480   0.866   6.265   8.102  0.0110  0.4283  0.0060
 1641TIP3   OH226481   1.247   6.382   1.561  0.1897 -0.3905 -0.4831
 1641TIP3    H126482   1.165   6.426   1.536  0.4523 -0.4755 -1.5449
 1641TIP3    H226483   1.302   6.451   1.597 -0.5370 -0.4274  0.7838
 1642TIP3   OH226484   4.580   5.455   8.519 -0.4697  0.2565  0.2414
 1642TIP3    H126485   4.522   5.388   8.554 -2.3929  1.5447 -0.3236
 1642TIP3    H226486   4.534   5.490   8.443  1.4205  0.8216 -0.7082
 1643TIP3   OH226487   1.918   6.716   7.522 -0.1067  0.1849  0.0597
 1643TIP3    H126488   1.826   6.705   7.544 -0.6651 -1.2177 -2.5287
 1643TIP3    H226489   1.956   6.629   7.533  0.5498  0.4063 -0.3660
 1644TIP3   OH226490   4.390   0.245   0.135 -0.0742 -0.6149 -0.0961
 1644TIP3    H126491   4.301   0.273   0.113 -0.0776  0.2055  0.8747
 1644TIP3    H226492   4.445   0.319   0.109 -0.1319  0.6439  2.9357
 1645TIP3   OH226493   3.059   2.757   0.939 -0.1818  0.8285 -0.7171
 1645TIP3    H126494   3.074   2.834   0.885  0.7208  0.8179 -0.5035
 1645TIP3    H226495   3.098   2.685   0.889 -0.2225  0.6627 -0.5140
 1646TIP3   OH226496   0.431   2.171   7.379 -0.0649 -0.2132 -0.0714
 1646TIP3    H126497   0.341   2.198   7.362 -0.4078 -0.6130  1.0371
 1646TIP3    H226498   0.431   2.077   7.365  0.0140 -0.3161  0.5886
 1647TIP3   OH226499   3.994   1.478   1.121 -0.1116  0.5947  0.3263
 1647TIP3    H126500   3.983   1.546   1.187 -0.5944 -0.3378  1.2226
 1647TIP3    H226501   4.015   1.399   1.171  0.6284  0.1188 -0.7077
 1648TIP3   OH226502   0.531   2.700   8.405  1.1583 -0.2376  0.0246
 1648TIP3    H126503   0.535   2.783   8.358  0.7241 -0.3888 -0.2804
 1648TIP3    H226504   0.622   2.669   8.405  1.3819  0.3942  0.4361
 1649TIP3   OH226505   5.457   0.529   8.088  0.4053  0.4215 -0.0136
 1649TIP3    H126506   5.451   0.584   8.010  1.6681  1.4995  0.6180
 1649TIP3    H226507   5.436   0.587   8.161 -1.0171 -0.6324  0.4773
 1650TIP3   OH226508   2.561   1.635   8.248 -0.5134 -0.3231 -0.1832
 1650TIP3    H126509   2.647   1.669   8.223 -0.4693 -0.1816  0.1597
 1650TIP3    H226510   2.499   1.685   8.195 -0.2842 -1.9420 -2.1264
 1651TIP3   OH226511   2.623   5.691   1.057 -0.2099 -0.1118 -0.5398
 1651TIP3    H126512   2.568   5.674   1.134  0.4502 -0.5662 -0.1630
 1651TIP3    H226513   2.711   5.666   1.084 -0.1988 -1.7007 -1.9172
 1652TIP3   OH226514   5.861   3.958   1.241  0.5079  0.6542 -0.5265
 1652TIP3    H126515   5.837   3.920   1.156 -1.1151  0.3124  0.0524
 1652TIP3    H226516   5.827   3.896   1.305  0.4112  1.6396  0.4020
 1653TIP3   OH226517   3.213   0.304   1.187  0.5849  0.3196 -0.0502
 1653TIP3    H126518   3.145   0.369   1.205  1.1076  1.0348 -0.6319
 1653TIP3    H226519   3.168   0.237   1.135 -0.0900 -0.0793  1.0027
 1654TIP3   OH226520   3.101   5.683   7.144  0.4350 -0.0626 -0.0751
 1654TIP3    H126521   3.050   5.622   7.197  0.9030 -0.4174 -0.0208
 1654TIP3    H226522   3.073   5.770   7.173 -1.0062 -0.2211 -0.8830
 1655TIP3   OH226523   6.338   3.841   6.913  0.1922  0.3469 -0.0642
 1655TIP3    H126524   6.289   3.813   6.835 -1.4897  1.8141  0.3956
 1655TIP3    H226525   6.333   3.765   6.972 -1.3302  0.3241 -0.1613
 1656TIP3   OH226526   0.609   4.853   6.905  0.2300  0.3401  0.6571
 1656TIP3    H126527   0.605   4.885   6.995  0.9882  0.0241  0.8141
 1656TIP3    H226528   0.535   4.895   6.861  0.6056  1.5280  1.1009
 1657TIP3   OH226529   5.615   0.161   2.044  0.5137  0.5823  0.3164
 1657TIP3    H126530   5.678   0.159   2.117  0.6031  1.0770  0.2557
 1657TIP3    H226531   5.559   0.237   2.062 -1.4706 -1.0823  1.5192
 1658TIP3   OH226532   2.834   1.121   1.165 -0.4253 -0.1688 -0.2662
 1658TIP3    H126533   2.754   1.136   1.215 -0.8120  0.4513 -1.0414
 1658TIP3    H226534   2.803   1.103   1.076  0.3220  2.0731 -1.0500
 1659TIP3   OH226535   3.599   4.823   1.282 -0.1159 -0.3660  0.0838
 1659TIP3    H126536   3.680   4.872   1.295 -0.2350 -0.1282 -0.0646
 1659TIP3    H226537   3.548   4.877   1.221 -0.1286 -0.8156 -0.2985
 1660TIP3   OH226538   0.586   4.858   1.576  0.2993  0.2283 -0.7396
 1660TIP3    H126539   0.571   4.914   1.500  0.2116  0.1647 -0.7693
 1660TIP3    H226540   0.524   4.888   1.642 -0.7184 -0.7241 -1.2287
 1661TIP3   OH226541   0.644   5.118   2.232  0.5305  0.3315 -0.2684
 1661TIP3    H126542   0.597   5.133   2.314 -1.2209 -4.0776 -0.1888
 1661TIP3    H226543   0.735   5.104   2.259  0.6516  2.1951  0.4287
 1662TIP3   OH226544   4.619   4.713   1.506 -0.3817  0.7108  0.8264
 1662TIP3    H126545   4.547   4.750   1.557  0.1512  2.0621  0.6197
 1662TIP3    H226546   4.652   4.786   1.453  1.1838  0.1354  0.9545
 1663TIP3   OH226547   6.441   1.619   8.499 -0.6095  0.0526  0.2140
 1663TIP3    H126548   6.369   1.649   8.444 -0.6399 -0.5863 -0.1063
 1663TIP3    H226549   6.411   1.534   8.533  1.2534 -1.8906 -2.5402
 1664TIP3   OH226550   0.570   1.742   2.214  0.8589  0.4325 -0.0050
 1664TIP3    H126551   0.589   1.689   2.292  0.9329 -0.8462 -0.8714
 1664TIP3    H226552   0.615   1.825   2.231  0.2769  0.4610  1.6317
 1665TIP3   OH226553   1.124   3.185   0.983 -0.7347  0.6444 -0.1590
 1665TIP3    H126554   1.113   3.237   0.903 -0.3797 -0.6814 -1.1074
 1665TIP3    H226555   1.182   3.113   0.956 -0.9213 -0.0314  1.2027
 1666TIP3   OH226556   1.100   2.894   8.142  0.1571  0.1701  0.0052
 1666TIP3    H126557   1.087   2.987   8.120  0.9283  0.0455 -1.0269
 1666TIP3    H226558   1.119   2.852   8.058  0.1417 -0.8748  0.5159
 1667TIP3   OH226559   0.917   1.077   0.016  0.3970  0.2597 -0.5547
 1667TIP3    H126560   0.881   1.078   0.104 -0.9981  0.4528 -1.1051
 1667TIP3    H226561   0.902   1.165  -0.018 -2.7878 -0.8196 -2.3729
 1668TIP3   OH226562   6.638   0.606   8.157 -0.1701 -0.2958  0.3675
 1668TIP3    H126563   6.634   0.694   8.119  0.0897 -0.2122  0.5331
 1668TIP3    H226564   6.549   0.572   8.149 -0.1511 -0.2204 -0.1757
 1669TIP3   OH226565   3.886   2.339   7.103  0.4417 -0.3796 -0.3153
 1669TIP3    H126566   3.877   2.310   7.012  1.9267 -0.4764 -0.4592
 1669TIP3    H226567   3.976   2.372   7.108  0.0083  0.7080  0.8226
 1670TIP3   OH226568   0.514   0.798   6.123 -0.0650 -0.1154  0.1206
 1670TIP3    H126569   0.441   0.840   6.169 -0.3043 -0.7180  0.2907
 1670TIP3    H226570   0.509   0.833   6.034  0.8036  1.5909  0.6823
 1671TIP3   OH226571   6.308   4.863   7.570 -0.0263 -0.3060 -0.3713
 1671TIP3    H126572   6.243   4.796   7.592  0.2223 -0.4756 -0.1493
 1671TIP3    H226573   6.382   4.814   7.534  0.3310 -0.1898  0.1956
 1672TIP3   OH226574   6.126   2.171   7.747 -0.3118  0.0930 -0.2267
 1672TIP3    H126575   6.191   2.168   7.817  0.6453 -4.2148 -1.0043
 1672TIP3    H226576   6.157   2.240   7.688  2.4468 -0.4754  0.4338
 1673TIP3   OH226577   2.808   2.123   7.983  0.1674  0.3165 -0.3171
 1673TIP3    H126578   2.792   2.191   7.918  2.7902  0.7617 -0.6105
 1673TIP3    H226579   2.876   2.068   7.945 -0.0850 -0.9577  0.9785
 1674TIP3   OH226580   4.032   1.524   7.230  0.1285  0.2223 -0.2555
 1674TIP3    H126581   3.954   1.577   7.246  1.4774  1.6701  2.0260
 1674TIP3    H226582   4.082   1.530   7.311  2.4455 -0.9715 -1.5117
 1675TIP3   OH226583   1.066   0.319   1.093 -0.4057  0.1706 -0.2202
 1675TIP3    H126584   0.991   0.336   1.036 -1.2094  0.5694  0.9087
 1675TIP3    H226585   1.027   0.285   1.174  0.6994 -0.4017  0.0904
 1676TIP3   OH226586   1.017   2.348   8.426  0.3689  0.3890  0.6106
 1676TIP3    H126587   1.010   2.436   8.463 -3.5603  0.7052 -0.4788
 1676TIP3    H226588   1.035   2.363   8.333 -2.3712  0.2615 -0.0136
 1677TIP3   OH226589   0.466   0.874   6.990 -0.1892 -0.1803  0.2040
 1677TIP3    H126590   0.518   0.899   7.067 -1.1148 -0.2683  0.8796
 1677TIP3    H226591   0.391   0.933   6.992 -1.2011 -1.4295  0.4809
 1678TIP3   OH226592   0.208   5.360   1.366  0.5967  0.4598 -0.3307
 1678TIP3    H126593   0.155   5.386   1.441  0.0696 -0.7363 -0.2722
 1678TIP3    H226594   0.201   5.265   1.363 -0.2393  0.5226 -2.4768
 1679TIP3   OH226595   1.626   1.649   0.735 -0.0595 -0.4405  0.2837
 1679TIP3    H126596   1.584   1.734   0.734  0.2922 -0.2328  1.4340
 1679TIP3    H226597   1.710   1.664   0.779  1.1290 -0.8952 -1.7297
 1680TIP3   OH226598   5.135   3.171   8.310 -0.0943  0.2206 -0.2558
 1680TIP3    H126599   5.042   3.157   8.327 -0.3573  2.8376  0.9108
 1680TIP3    H226600   5.180   3.114   8.372 -0.9712  0.7114  0.8615
 1681TIP3   OH226601   1.162   6.433   8.567  0.2468 -0.3412  0.2517
 1681TIP3    H126602   1.100   6.447   8.495  1.1426  0.1057 -0.4581
 1681TIP3    H226603   1.186   6.521   8.596 -1.2791 -0.5087  2.1768
 1682TIP3   OH226604   3.452   1.415   0.414  0.9442 -0.0978 -0.1339
 1682TIP3    H126605   3.370   1.366   0.409 -0.5552  2.3391 -0.7222
 1682TIP3    H226606   3.472   1.439   0.324  2.3390 -0.6331  0.0005
 1683TIP3   OH226607   5.434   4.001   2.407 -0.4059  0.3316  0.2008
 1683TIP3    H126608   5.408   3.913   2.436 -1.4635  0.0340 -1.5057
 1683TIP3    H226609   5.380   4.018   2.330 -0.1557  2.4626  0.4322
 1684TIP3   OH226610   4.714   0.056   7.824 -0.0693  0.5268  0.7538
 1684TIP3    H126611   4.771   0.126   7.793 -1.4860  1.1612 -0.5646
 1684TIP3    H226612   4.665   0.095   7.897 -1.3095  1.1760 -0.3792
 1685TIP3   OH226613   5.682   1.903   8.546 -0.3722 -0.5456  0.6951
 1685TIP3    H126614   5.719   1.942   8.467 -2.1575  1.6988  0.8743
 1685TIP3    H226615   5.757   1.893   8.605  0.7195 -0.7817 -0.6890
 1686TIP3   OH226616   4.809   4.010   2.478  0.0752  0.3012 -0.1675
 1686TIP3    H126617   4.892   3.965   2.460 -0.5537 -1.1232  0.3338
 1686TIP3    H226618   4.834   4.101   2.495  1.9451 -0.5984  2.8629
 1687TIP3   OH226619   6.617   6.337   7.365 -0.4035 -0.0153 -0.1591
 1687TIP3    H126620   6.631   6.324   7.271  1.3718  2.8540 -0.4061
 1687TIP3    H226621   6.538   6.392   7.370 -0.3929 -0.0170  0.0170
 1688TIP3   OH226622   1.354   0.963   7.656 -0.2575 -0.2193  0.2630
 1688TIP3    H126623   1.389   0.878   7.681 -0.3548 -0.3086  0.0940
 1688TIP3    H226624   1.339   0.957   7.562  1.2059  0.5067 -0.0504
 1689TIP3   OH226625   1.213   6.589   0.527 -0.3106  0.2699  0.4312
 1689TIP3    H126626   1.281   6.646   0.562 -0.0126 -0.0807  0.4384
 1689TIP3    H226627   1.161   6.645   0.469 -0.8128  0.8483  1.4337
 1690TIP3   OH226628   6.656   1.904   7.312 -0.4212 -0.2600  0.5711
 1690TIP3    H126629   6.748   1.930   7.307 -0.8826  1.5866  0.8829
 1690TIP3    H226630   6.655   1.831   7.373  0.8247 -0.2721  0.6072
 1691TIP3   OH226631   2.426   4.575   7.754  0.1276 -0.0158 -0.0368
 1691TIP3    H126632   2.483   4.499   7.739  0.1678  0.0490 -0.2149
 1691TIP3    H226633   2.358   4.543   7.812  0.5419 -0.0034  0.4599
 1692TIP3   OH226634   5.406   6.831   1.617 -0.2380  0.0562 -0.1829
 1692TIP3    H126635   5.393   6.858   1.526  1.0215  0.2773 -0.3136
 1692TIP3    H226636   5.336   6.875   1.665  1.0354  2.6514 -0.5486
 1693TIP3   OH226637   3.457   6.380   0.268 -0.2262 -0.1436  0.2837
 1693TIP3    H126638   3.473   6.338   0.184  3.6269  1.2462  0.1231
 1693TIP3    H226639   3.392   6.448   0.248  0.3502 -0.0614 -1.5015
 1694TIP3   OH226640   1.144   4.694   1.181  0.0272 -0.0983 -0.2847
 1694TIP3    H126641   1.147   4.610   1.225 -2.3641 -0.1536 -0.0958
 1694TIP3    H226642   1.116   4.756   1.249  0.1933  0.5519 -0.7944
 1695TIP3   OH226643   4.781   2.495   1.722  0.3006  0.4260  0.1046
 1695TIP3    H126644   4.862   2.495   1.671  1.1951  0.5877  1.4702
 1695TIP3    H226645   4.810   2.508   1.812 -1.1716 -0.5946  0.7569
 1696TIP3   OH226646   5.853   5.975   6.627 -0.4998 -0.4019  0.4061
 1696TIP3    H126647   5.930   5.939   6.583  0.5425  1.2968  0.7543
 1696TIP3    H226648   5.875   5.973   6.720 -0.2133  1.5177  0.4047
 1697TIP3   OH226649   3.208   2.894   8.638  0.0196  0.5433  0.1959
 1697TIP3    H126650   3.144   2.851   8.693  0.7545  0.1127  0.7289
 1697TIP3    H226651   3.247   2.823   8.586 -1.3239  1.0401 -1.6212
 1698TIP3   OH226652   5.235   0.826   0.935 -0.1765 -0.1283 -0.5235
 1698TIP3    H126653   5.203   0.735   0.939  1.6654 -0.8045 -0.5070
 1698TIP3    H226654   5.305   0.824   0.871  3.5603  0.0408  3.1408
 1699TIP3   OH226655   5.977   4.136   2.362 -0.5876 -0.6815 -0.2390
 1699TIP3    H126656   6.049   4.178   2.411 -1.0191 -0.6936  0.4162
 1699TIP3    H226657   5.932   4.082   2.428 -0.3616 -1.7744 -0.9494
 1700TIP3   OH226658   1.184   6.812   0.309  0.2718  0.5801  0.1190
 1700TIP3    H126659   1.114   6.874   0.328  0.6357  1.2436 -0.6305
 1700TIP3    H226660   1.168   6.785   0.219  1.3538  1.2866 -0.3163
 1701TIP3   OH226661   3.184   1.945   1.036 -0.2444  0.1632 -0.0955
 1701TIP3    H126662   3.221   1.872   1.086  1.0774  0.6511 -0.3292
 1701TIP3    H226663   3.193   1.919   0.945  1.9906  1.3831 -0.2733
 1702TIP3   OH226664   3.806   4.497   1.796 -0.0559  0.2965  0.6854
 1702TIP3    H126665   3.829   4.574   1.847 -0.2298  0.6912  0.1834
 1702TIP3    H226666   3.824   4.423   1.854  0.5143  0.6895  1.0239
 1703TIP3   OH226667   4.203   2.420   7.025 -0.6881  0.0463 -0.1581
 1703TIP3    H126668   4.170   2.378   6.946  0.2357 -0.7831 -0.1279
 1703TIP3    H226669   4.297   2.404   7.023 -0.7160 -0.4646  1.3768
 1704TIP3   OH226670   5.890   6.486   6.874  0.1607  0.3048  0.1257
 1704TIP3    H126671   5.969   6.533   6.847 -0.0960  0.5995 -0.1275
 1704TIP3    H226672   5.885   6.499   6.969 -0.6893  2.0406 -0.1168
 1705TIP3   OH226673   1.675   1.393   1.936  0.1674  0.4034 -0.3658
 1705TIP3    H126674   1.758   1.438   1.919  0.0235  0.2025 -1.7007
 1705TIP3    H226675   1.652   1.419   2.025  2.6889 -1.1461  0.8650
 1706TIP3   OH226676   4.870   3.839   0.320 -0.1700  0.4906 -0.3576
 1706TIP3    H126677   4.821   3.759   0.299  1.8795 -1.2507  1.0011
 1706TIP3    H226678   4.881   3.836   0.415  1.0737  1.7202 -0.4279
 1707TIP3   OH226679   2.374   5.470   6.503 -0.0035  0.1050 -0.0820
 1707TIP3    H126680   2.330   5.542   6.548  1.2110 -0.1506  1.5810
 1707TIP3    H226681   2.374   5.497   6.411  0.0729  2.0600  0.4405
 1708TIP3   OH226682   0.877   0.002   0.661  0.2345 -0.1191 -0.0515
 1708TIP3    H126683   0.798  -0.026   0.708  0.2740  1.7021  1.2196
 1708TIP3    H226684   0.844   0.032   0.576 -0.1926 -1.0225 -0.2166
 1709TIP3   OH226685   1.797   3.109   7.378 -0.2670  0.1237  0.2757
 1709TIP3    H126686   1.889   3.123   7.400 -0.2246 -1.8902  1.6681
 1709TIP3    H226687   1.797   3.032   7.322 -1.1587 -0.7553  1.4257
 1710TIP3   OH226688   5.456   1.154   6.420  0.2078  0.7318 -0.4014
 1710TIP3    H126689   5.468   1.060   6.406 -1.8339  0.6632 -2.2125
 1710TIP3    H226690   5.544   1.186   6.442  0.8407 -1.6639  1.0779
 1711TIP3   OH226691   6.285   5.803   0.480  0.5080 -0.3091  0.2753
 1711TIP3    H126692   6.356   5.865   0.495  2.0142 -2.2065  1.3620
 1711TIP3    H226693   6.208   5.859   0.463  2.6634  1.8584 -3.9373
 1712TIP3   OH226694   4.227   6.413   6.808 -0.1872  0.0737 -0.2133
 1712TIP3    H126695   4.221   6.328   6.763 -0.7727  0.5699 -1.1052
 1712TIP3    H226696   4.205   6.477   6.741  1.7718  1.0716  0.0336
 1713TIP3   OH226697   4.370   3.643   8.275 -0.0548 -0.7030  0.2787
 1713TIP3    H126698   4.444   3.600   8.234 -0.5637 -1.0163 -0.3283
 1713TIP3    H226699   4.409   3.705   8.337  0.8383  1.4025 -2.2170
 1714TIP3   OH226700   5.735   4.762   2.210 -0.1826 -0.4138 -0.2125
 1714TIP3    H126701   5.678   4.760   2.287 -0.4634 -1.2059 -0.4285
 1714TIP3    H226702   5.791   4.685   2.221  0.7211  0.2481 -0.1053
 1715TIP3   OH226703   6.120   5.983   7.302 -0.5447 -0.5113  0.0678
 1715TIP3    H126704   6.115   5.906   7.358 -1.1717 -0.4256  0.1347
 1715TIP3    H226705   6.148   5.949   7.217 -0.5449 -0.7761  0.1725
 1716TIP3   OH226706   2.513   0.202   7.217  0.0832  0.1443  0.3817
 1716TIP3    H126707   2.454   0.179   7.146  0.2776  1.8708 -0.3951
 1716TIP3    H226708   2.584   0.138   7.211 -0.3339 -0.2575 -0.4218
 1717TIP3   OH226709   0.001   0.629   0.839 -0.4971  0.0371 -0.0195
 1717TIP3    H126710  -0.082   0.587   0.858 -0.4218 -0.4562 -0.7268
 1717TIP3    H226711   0.067   0.567   0.869 -0.3855  0.0871 -0.1607
 1718TIP3   OH226712   0.856   6.792   7.171 -0.1794  0.7168 -0.9630
 1718TIP3    H126713   0.874   6.881   7.142  0.1291  0.9472 -0.0919
 1718TIP3    H226714   0.817   6.802   7.258 -0.4852  0.0168 -1.0069
 1719TIP3   OH226715   5.533   6.064   0.189 -0.0434 -0.6702  0.2025
 1719TIP3    H126716   5.586   6.116   0.249 -0.6515  0.2275 -0.0200
 1719TIP3    H226717   5.444   6.096   0.202 -0.2605 -0.8445 -0.7844
 1720TIP3   OH226718   5.227   0.107   1.765  0.4557 -0.7346 -1.1342
 1720TIP3    H126719   5.162   0.054   1.812  2.2539 -2.2998 -0.2342
 1720TIP3    H226720   5.245   0.181   1.823 -0.3129 -0.4444 -1.2647
 1721TIP3   OH226721   0.664   4.888   0.821  0.1176 -0.7649 -0.3565
 1721TIP3    H126722   0.631   4.950   0.756 -0.7040  1.6141  2.1285
 1721TIP3    H226723   0.603   4.896   0.894  2.2856 -1.5408  1.6468
 1722TIP3   OH226724   2.457   0.484   7.262  0.1960 -0.1213 -0.2721
 1722TIP3    H126725   2.385   0.487   7.325 -0.1727  1.1229 -0.7164
 1722TIP3    H226726   2.490   0.394   7.268 -0.3778 -0.2807  1.0624
 1723TIP3   OH226727   4.180   5.168   0.783  0.0764  0.4275 -0.9119
 1723TIP3    H126728   4.137   5.242   0.741 -1.5622 -0.6955 -1.3271
 1723TIP3    H226729   4.167   5.095   0.722  0.1778 -0.5704  0.2163
 1724TIP3   OH226730   5.206   0.377   8.079  0.4863 -0.9419  0.2709
 1724TIP3    H126731   5.146   0.451   8.088  0.6074 -1.0294  2.0650
 1724TIP3    H226732   5.292   0.417   8.067  0.2379 -0.8179 -1.2602
 1725TIP3   OH226733   5.833   6.676   0.370 -0.1939 -0.1952 -0.0938
 1725TIP3    H126734   5.763   6.640   0.423  1.1188  0.2843  2.0791
 1725TIP3    H226735   5.852   6.608   0.305 -1.0466 -1.3183  0.8083
 1726TIP3   OH226736   0.902   4.320   1.586  0.1694 -0.0382 -0.6995
 1726TIP3    H126737   0.860   4.241   1.619  1.1005  0.5943  2.3818
 1726TIP3    H226738   0.833   4.367   1.540 -1.3940 -0.9584  0.5813
 1727TIP3   OH226739   1.959   3.299   7.996 -0.2690  0.0438 -0.0432
 1727TIP3    H126740   1.895   3.328   7.930 -0.3790  0.4948  0.2562
 1727TIP3    H226741   2.021   3.245   7.947 -2.4649 -2.8673  0.1544
 1728TIP3   OH226742   4.411   3.485   1.019  0.3295  0.2150  0.0320
 1728TIP3    H126743   4.336   3.441   1.058 -0.1330  1.9397  1.2024
 1728TIP3    H226744   4.400   3.473   0.925 -2.0319  1.3364  0.1024
 1729TIP3   OH226745   2.385   4.444   8.308  0.1939  0.5883 -0.0385
 1729TIP3    H126746   2.409   4.363   8.262  0.6629  0.0232  1.1304
 1729TIP3    H226747   2.405   4.514   8.247  1.2939 -0.1009 -0.4975
 1730TIP3   OH226748   3.752   1.839   8.527  0.0168 -0.0973  0.2471
 1730TIP3    H126749   3.740   1.933   8.520 -1.5409 -0.3095 -0.5421
 1730TIP3    H226750   3.832   1.820   8.479 -0.6576  0.6378 -1.2379
 1731TIP3   OH226751   1.548   0.646   8.519 -0.2998 -0.5198  0.1314
 1731TIP3    H126752   1.623   0.658   8.460  0.5235 -0.5318  1.1374
 1731TIP3    H226753   1.564   0.561   8.560 -0.8627 -0.5157  0.3593
 1732TIP3   OH226754   5.098   3.210   7.496 -0.3521 -0.1558 -0.2046
 1732TIP3    H126755   5.062   3.155   7.566  0.2395 -0.2490  0.0344
 1732TIP3    H226756   5.192   3.215   7.515 -0.1910 -0.1301 -0.9556
 1733TIP3   OH226757   6.409   0.445   2.419 -0.6557 -0.5433 -0.0979
 1733TIP3    H126758   6.488   0.488   2.453 -0.1738 -1.5337  0.0587
 1733TIP3    H226759   6.364   0.412   2.497 -0.2387 -1.6384 -0.3027
 1734TIP3   OH226760   5.543   5.513   1.841  0.4761 -0.3094 -0.0064
 1734TIP3    H126761   5.569   5.434   1.889 -1.4615  0.2601  2.1541
 1734TIP3    H226762   5.447   5.510   1.841  0.3938  0.5440 -2.5799
 1735TIP3   OH226763   5.024   5.563   1.600  0.5659 -0.1731  0.4195
 1735TIP3    H126764   4.951   5.535   1.545  0.1163  0.9283  0.4110
 1735TIP3    H226765   5.102   5.550   1.546  1.1435 -6.0138  2.0633
 1736TIP3   OH226766   6.613   3.397   7.728 -0.0237 -0.3813 -0.0259
 1736TIP3    H126767   6.643   3.453   7.656  1.1399 -0.6053  0.2678
 1736TIP3    H226768   6.583   3.457   7.796 -0.7561 -0.1632 -0.5245
 1737TIP3   OH226769   2.481   2.480   0.948 -0.7771  0.1988  0.6205
 1737TIP3    H126770   2.528   2.465   1.029 -0.7884  1.0508  0.7974
 1737TIP3    H226771   2.423   2.405   0.939  0.1955 -0.5874  0.6875
 1738TIP3   OH226772   3.682   4.748   8.332  0.1363 -0.2354 -0.9063
 1738TIP3    H126773   3.626   4.807   8.382  0.7251  0.0550 -0.5830
 1738TIP3    H226774   3.702   4.676   8.391  1.7389  0.6529 -0.3137
 1739TIP3   OH226775   2.724   5.792   0.277 -1.0837  0.5213 -0.5168
 1739TIP3    H126776   2.655   5.824   0.218 -0.2881  1.3812 -1.0044
 1739TIP3    H226777   2.688   5.712   0.315 -1.2286 -0.6858 -3.0057
 1740TIP3   OH226778   0.139   6.042   0.928  0.4751  0.2509 -0.1236
 1740TIP3    H126779   0.092   5.968   0.966  0.3232  0.6601  0.5071
 1740TIP3    H226780   0.210   6.002   0.877 -0.4303 -0.3565 -0.9231
 1741TIP3   OH226781   4.745   1.384   8.401  0.1015 -0.0041 -0.5320
 1741TIP3    H126782   4.707   1.304   8.438  0.7265 -0.9682 -1.8922
 1741TIP3    H226783   4.707   1.455   8.454  0.3882 -1.2296  1.4441
 1742TIP3   OH226784   0.469   3.009   8.577 -0.5127  0.5882  0.3179
 1742TIP3    H126785   0.519   2.950   8.634 -0.9133 -0.2974 -0.2175
 1742TIP3    H226786   0.417   3.063   8.637 -0.6445 -0.0714  0.8073
 1743TIP3   OH226787   4.425   4.131   1.765 -0.2024  0.3494  0.0558
 1743TIP3    H126788   4.439   4.141   1.671  0.2846  0.2029  0.1119
 1743TIP3    H226789   4.384   4.213   1.792  0.5092  0.7766 -0.1227
 1744TIP3   OH226790   5.380   6.640   1.213 -0.5544 -0.2932 -0.2781
 1744TIP3    H126791   5.410   6.552   1.192  1.7800 -0.0560  1.5913
 1744TIP3    H226792   5.344   6.633   1.301 -0.2279  0.6218 -0.0591
 1745TIP3   OH226793   6.669   0.769   1.099  0.3667  0.3787  0.6978
 1745TIP3    H126794   6.700   0.688   1.059 -0.3223  0.5168 -0.1683
 1745TIP3    H226795   6.604   0.802   1.037  0.2784  1.3358  1.2817
 1746TIP3   OH226796   6.577   5.792   2.609 -0.0715 -0.0014  0.1736
 1746TIP3    H126797   6.625   5.718   2.646 -0.2183  0.2502  0.8819
 1746TIP3    H226798   6.644   5.855   2.586  0.1259 -0.6895 -1.2294
 1747TIP3   OH226799   1.267   0.015   6.227 -0.2371  0.0415 -0.1896
 1747TIP3    H126800   1.272  -0.079   6.214  1.4875  0.2120 -1.0796
 1747TIP3    H226801   1.235   0.049   6.143 -0.2116  0.3024 -0.0935
 1748TIP3   OH226802   2.820   3.772   8.240  0.0350  0.0246 -0.1338
 1748TIP3    H126803   2.747   3.752   8.181 -0.7003  0.8543  0.4593
 1748TIP3    H226804   2.857   3.854   8.205 -0.5958  0.6850  0.7017
 1749TIP3   OH226805   6.835   4.014   7.050  0.5102 -0.3270 -0.1025
 1749TIP3    H126806   6.911   4.046   7.001  0.8822 -1.9118 -0.6318
 1749TIP3    H226807   6.823   3.924   7.019 -2.3404  0.2418 -0.9314
 1750TIP3   OH226808   0.765   6.420   1.175 -0.4819  0.4979  0.3395
 1750TIP3    H126809   0.742   6.372   1.254 -2.0901 -1.4339 -1.1731
 1750TIP3    H226810   0.809   6.498   1.206 -0.2690 -0.5982  3.0842
 1751TIP3   OH226811   2.407   6.601   8.256  1.0007  0.4747  0.0242
 1751TIP3    H126812   2.421   6.536   8.187 -0.1634  0.9050 -0.6620
 1751TIP3    H226813   2.378   6.550   8.331  1.6052  0.0638 -0.0132
 1752TIP3   OH226814   0.734   3.078   8.405 -0.0319  0.6384 -0.1040
 1752TIP3    H126815   0.648   3.091   8.444  0.4048  1.9744  0.4705
 1752TIP3    H226816   0.741   3.145   8.338  0.0956 -0.2402 -0.9917
 1753TIP3   OH226817   0.300   1.587   8.282 -0.0940 -0.0423  0.2306
 1753TIP3    H126818   0.244   1.609   8.357 -0.5714  1.6401 -0.5753
 1753TIP3    H226819   0.333   1.671   8.251  2.3288 -0.9161  0.2045
 1754TIP3   OH226820   4.814   0.302   7.804 -0.3114  0.8121  0.7905
 1754TIP3    H126821   4.864   0.382   7.792 -0.3615  0.5756 -1.4399
 1754TIP3    H226822   4.723   0.328   7.787 -0.5777  0.6371  1.8815
 1755TIP3   OH226823   3.628   4.689   7.723  0.1677 -0.2327 -0.1854
 1755TIP3    H126824   3.606   4.613   7.669 -0.4505 -0.5686  0.5196
 1755TIP3    H226825   3.678   4.746   7.665 -0.7879 -0.4154 -1.2171
 1756TIP3   OH226826   3.710   4.567   7.242 -0.5715  0.0649  0.1473
 1756TIP3    H126827   3.768   4.630   7.284 -0.0158  0.0916 -0.6404
 1756TIP3    H226828   3.731   4.573   7.149 -2.0526  0.2885 -0.1971
 1757TIP3   OH226829   5.951   4.911   8.290  0.2187 -0.3159  0.8275
 1757TIP3    H126830   5.922   4.823   8.269  0.2706 -0.6880  2.2511
 1757TIP3    H226831   5.989   4.943   8.209  0.5205 -1.7299  0.3861
 1758TIP3   OH226832   5.747   4.432   0.112  0.4027 -0.0530 -0.2371
 1758TIP3    H126833   5.823   4.453   0.059  0.8713  0.0066  0.4536
 1758TIP3    H226834   5.739   4.504   0.174  1.0173 -1.0278  1.0352
 1759TIP3   OH226835   1.896   0.019   0.661  0.3955  0.0419  0.4138
 1759TIP3    H126836   1.908   0.097   0.714  1.6591 -0.3950  0.8093
 1759TIP3    H226837   1.848   0.049   0.584  1.6405  1.3886  0.1286
 1760TIP3   OH226838   3.237   5.251   7.581 -0.1502  0.1872 -0.5547
 1760TIP3    H126839   3.233   5.211   7.668 -1.6984  1.0995 -0.1699
 1760TIP3    H226840   3.206   5.341   7.594  0.2250  0.5434 -1.9364
 1761TIP3   OH226841   1.686   0.907   5.994  0.1646 -0.2238  0.4689
 1761TIP3    H126842   1.748   0.883   5.925 -2.4487  0.6699 -2.4447
 1761TIP3    H226843   1.602   0.869   5.966 -1.1068  0.3500  3.0996
 1762TIP3   OH226844   6.035   1.930   0.313 -0.5099 -0.1664  0.2405
 1762TIP3    H126845   6.118   1.946   0.268  0.7372 -0.0626  2.4194
 1762TIP3    H226846   6.028   2.002   0.376 -1.5099 -0.9790  1.0940
 1763TIP3   OH226847   4.795   4.506   8.135 -0.8052  0.5039 -0.0177
 1763TIP3    H126848   4.778   4.546   8.050 -0.8037  1.8573  0.5817
 1763TIP3    H226849   4.811   4.414   8.116  0.5296  1.0065 -1.6513
 1764TIP3   OH226850   4.979   1.528   8.085 -0.3367 -0.7941 -0.7090
 1764TIP3    H126851   5.067   1.551   8.116 -0.3998  1.2806 -1.8763
 1764TIP3    H226852   4.982   1.543   7.991 -2.0915 -0.1165 -0.6870
 1765TIP3   OH226853   5.847   5.953   0.184 -0.7738  0.1578 -0.1164
 1765TIP3    H126854   5.816   5.873   0.227 -1.3522 -1.1461 -2.7733
 1765TIP3    H226855   5.784   5.969   0.114  0.8143  1.3651 -1.3545
 1766TIP3   OH226856   1.210   3.105   2.112 -0.7948  0.5021 -0.1137
 1766TIP3    H126857   1.192   3.172   2.178 -0.8296 -0.2982  0.7226
 1766TIP3    H226858   1.126   3.060   2.100 -0.4294 -0.3898  0.5117
 1767TIP3   OH226859   1.294   6.176   1.347 -0.0812  0.5380  0.0825
 1767TIP3    H126860   1.247   6.230   1.411  0.4854 -0.8932  1.8046
 1767TIP3    H226861   1.227   6.146   1.286 -0.6966  1.6925  0.1646
 1768TIP3   OH226862   5.042   5.097   0.077 -0.5239  0.0016  0.4484
 1768TIP3    H126863   4.970   5.102   0.140  2.2423  1.7094  3.8396
 1768TIP3    H226864   5.079   5.010   0.090  0.8181  0.7890  2.3037
 1769TIP3   OH226865   6.445   2.439   8.059 -0.1390 -0.0999 -0.3445
 1769TIP3    H126866   6.394   2.401   8.131 -0.8220  1.6926  0.1637
 1769TIP3    H226867   6.535   2.439   8.091 -0.3202 -0.0705  0.1772
 1770TIP3   OH226868   0.144   3.499   6.572 -0.1476  0.1760  0.2689
 1770TIP3    H126869   0.056   3.513   6.536 -0.0839  1.0991  0.4475
 1770TIP3    H226870   0.141   3.542   6.658  0.9897  1.7965 -0.4402
 1771TIP3   OH226871   0.184   4.850   1.062  0.2243  0.1394  0.0805
 1771TIP3    H126872   0.235   4.776   1.094 -0.0926  0.1181  0.5407
 1771TIP3    H226873   0.098   4.813   1.043  0.1671  0.3185 -0.0162
 1772TIP3   OH226874   0.953   2.243   7.958  0.1031  0.1188 -0.3638
 1772TIP3    H126875   0.863   2.220   7.982  0.6739 -1.5319  0.3219
 1772TIP3    H226876   0.980   2.174   7.897  1.3378 -0.1516  0.4547
 1773TIP3   OH226877   6.038   2.600   2.257 -0.5897  0.2535  0.0747
 1773TIP3    H126878   5.998   2.585   2.343  1.0196 -0.5804  0.7396
 1773TIP3    H226879   6.015   2.690   2.235 -1.9832  0.1131  0.8299
 1774TIP3   OH226880   3.614   5.433   1.281 -0.0179 -0.6965 -0.3188
 1774TIP3    H126881   3.625   5.485   1.201  0.5026 -1.3049 -0.6590
 1774TIP3    H226882   3.695   5.447   1.330 -0.8261  0.6404  0.7072
 1775TIP3   OH226883   4.124   4.424   1.834 -0.1121  0.2499  0.1475
 1775TIP3    H126884   4.193   4.421   1.768 -0.1912 -1.3938  0.1115
 1775TIP3    H226885   4.043   4.434   1.783 -0.2997 -2.2115 -0.1669
 1776TIP3   OH226886   2.788   6.097   1.119  0.5142  0.5147 -0.0614
 1776TIP3    H126887   2.791   6.017   1.172 -1.1209  1.0053  0.8440
 1776TIP3    H226888   2.869   6.143   1.141  2.2587 -1.5064 -1.7319
 1777TIP3   OH226889   0.936   5.475   7.700  0.3722  0.0399 -0.0418
 1777TIP3    H126890   0.938   5.386   7.666  0.2605  0.5801 -1.5635
 1777TIP3    H226891   1.019   5.485   7.746  0.1042 -1.0407  0.7005
 1778TIP3   OH226892   1.785   0.455   6.230  0.3372  0.1629  0.8745
 1778TIP3    H126893   1.757   0.483   6.143 -2.0139  1.1096  1.8230
 1778TIP3    H226894   1.876   0.429   6.220 -0.6771 -2.8460 -2.5284
 1779TIP3   OH226895   4.064   2.421   1.838 -0.0553  0.5003  0.5374
 1779TIP3    H126896   4.048   2.498   1.892 -0.0583  1.3360 -0.6194
 1779TIP3    H226897   4.131   2.449   1.775 -1.8577  0.3782 -1.5313
 1780TIP3   OH226898   2.503   0.690   7.581  0.3898  0.3719  0.9559
 1780TIP3    H126899   2.413   0.718   7.563  0.3162  0.9333  2.1003
 1780TIP3    H226900   2.514   0.610   7.529  0.2443  1.8868 -1.5502
 1781TIP3   OH226901   0.513   1.519   8.027  0.0999 -0.2211 -0.1243
 1781TIP3    H126902   0.444   1.517   8.094 -0.8757 -0.6001 -1.1193
 1781TIP3    H226903   0.518   1.428   7.996 -1.1758  0.3559 -2.2471
 1782TIP3   OH226904   5.730   4.116   0.011 -0.6309  0.6144 -0.6996
 1782TIP3    H126905   5.699   4.197  -0.029 -2.5980  0.2522 -0.0043
 1782TIP3    H226906   5.704   4.048  -0.051 -0.0096  0.4092 -0.7371
 1783TIP3   OH226907   1.263   1.354   8.585 -0.2017  0.1032  0.2571
 1783TIP3    H126908   1.265   1.448   8.567 -1.4183  0.2198  0.5963
 1783TIP3    H226909   1.324   1.316   8.522 -0.7135  0.9953 -0.8119
 1784TIP3   OH226910   0.191   2.730   0.334 -0.3385  0.1497  0.1525
 1784TIP3    H126911   0.248   2.781   0.277 -1.6823  0.3062 -1.1450
 1784TIP3    H226912   0.250   2.677   0.387  1.0161 -0.2425 -1.6291
 1785TIP3   OH226913   3.834   6.747   7.767 -0.1774  0.0830 -0.4765
 1785TIP3    H126914   3.748   6.761   7.807 -0.4709  0.0105 -1.0657
 1785TIP3    H226915   3.827   6.788   7.681  0.5225  0.4499 -0.3692
 1786TIP3   OH226916   1.660   4.158   7.617 -0.3539  0.4972 -0.1019
 1786TIP3    H126917   1.686   4.184   7.706 -1.8220  0.9931  0.2084
 1786TIP3    H226918   1.660   4.241   7.568  1.3900  0.1064 -0.8609
 1787TIP3   OH226919   0.809   0.591   1.707 -0.1432  0.3327 -0.5310
 1787TIP3    H126920   0.785   0.505   1.673 -2.9510  1.0686 -0.6260
 1787TIP3    H226921   0.891   0.613   1.661 -0.6002 -1.2863 -2.2332
 1788TIP3   OH226922   0.326   2.820   0.675  0.0431 -0.6898  0.3720
 1788TIP3    H126923   0.307   2.914   0.672  1.4690 -0.3815 -0.0010
 1788TIP3    H226924   0.389   2.810   0.747  0.4408 -1.2343 -0.0398
 1789TIP3   OH226925   4.830   3.317   8.558  0.3873 -0.6410  0.0026
 1789TIP3    H126926   4.818   3.299   8.465  0.0547  0.2029 -0.1234
 1789TIP3    H226927   4.793   3.240   8.602 -0.6459 -0.4686 -0.5260
 1790TIP3   OH226928   4.147   1.025   0.296  0.2849  0.0281 -0.0956
 1790TIP3    H126929   4.207   0.986   0.359  1.1249  1.3910  0.0019
 1790TIP3    H226930   4.179   1.115   0.285  0.4779 -0.2658 -2.7981
 1791TIP3   OH226931   0.975   5.952   6.467  0.7509 -0.4071  0.2272
 1791TIP3    H126932   0.909   5.996   6.519 -0.3685 -0.9378 -0.6977
 1791TIP3    H226933   0.965   5.859   6.488 -0.2860 -0.7342 -1.4606
 1792TIP3   OH226934   4.461   2.644   7.550 -0.2240  0.2814  0.1332
 1792TIP3    H126935   4.507   2.601   7.623 -0.1124  0.0399 -0.0760
 1792TIP3    H226936   4.372   2.609   7.554 -0.6065  1.2961  0.9842
 1793TIP3   OH226937   5.234   3.600   6.715 -0.2740  0.0622  0.1502
 1793TIP3    H126938   5.319   3.620   6.754  0.9302 -1.9409 -1.2771
 1793TIP3    H226939   5.208   3.681   6.672  1.7194  0.2741 -0.7751
 1794TIP3   OH226940   5.138   2.176   0.224  0.4177 -0.0988  0.4396
 1794TIP3    H126941   5.097   2.116   0.161  0.9470 -0.2566  0.2409
 1794TIP3    H226942   5.214   2.211   0.178  1.1001 -0.6023  1.1592
 1795TIP3   OH226943   5.632   4.309   2.192 -0.2031 -0.1889  0.7815
 1795TIP3    H126944   5.604   4.225   2.227 -0.8574  0.6267  2.3249
 1795TIP3    H226945   5.592   4.313   2.105 -1.5998 -0.7648  1.3606
 1796TIP3   OH226946   3.176   2.501   0.793  0.2831  0.2837  0.1320
 1796TIP3    H126947   3.227   2.421   0.801  0.0118  0.1772  0.7830
 1796TIP3    H226948   3.127   2.507   0.874 -0.0695  0.8548 -0.1189
 1797TIP3   OH226949   0.820   4.989   0.406  0.0760  0.1518 -0.2956
 1797TIP3    H126950   0.779   5.041   0.337 -0.0013  0.3795 -0.0766
 1797TIP3    H226951   0.815   5.044   0.484 -3.1150 -1.4659  0.8240
 1798TIP3   OH226952   1.392   5.697   0.638 -0.2846  0.3200  0.3463
 1798TIP3    H126953   1.423   5.728   0.723  0.4346  0.7266 -0.0613
 1798TIP3    H226954   1.300   5.675   0.653  0.4324 -1.9597  1.8662
 1799TIP3   OH226955   3.000   0.288   8.041  0.5860 -0.6639  0.1397
 1799TIP3    H126956   3.024   0.321   8.128  0.2299  1.5388 -0.5380
 1799TIP3    H226957   3.058   0.335   7.981 -1.2581  0.1844 -1.0457
 1800TIP3   OH226958   6.390   5.835   0.010  0.8271 -0.4354  0.0859
 1800TIP3    H126959   6.361   5.884   0.087  0.5901 -0.3531 -0.0523
 1800TIP3    H226960   6.319   5.773  -0.006 -0.6452  1.5588 -1.8757
 1801TIP3   OH226961   3.882   5.547   1.353  0.3415 -0.0224 -0.1424
 1801TIP3    H126962   3.915   5.457   1.349  0.3423  0.0082 -0.8081
 1801TIP3    H226963   3.903   5.576   1.442  0.0231 -0.8001  0.1872
 1802TIP3   OH226964   4.799   5.665   6.978 -0.2697 -0.3563 -0.1858
 1802TIP3    H126965   4.872   5.690   7.033  0.5411  0.1512 -1.4402
 1802TIP3    H226966   4.822   5.578   6.945 -0.6675 -0.5877  0.1450
 1803TIP3   OH226967   6.608   0.228   0.301 -0.4172  0.3593 -0.0858
 1803TIP3    H126968   6.641   0.317   0.311 -1.1707  0.7423 -0.9352
 1803TIP3    H226969   6.646   0.197   0.219  0.4281 -0.3824  0.5612
 1804TIP3   OH226970   6.012   2.178   8.364 -0.0426 -0.5409  0.2915
 1804TIP3    H126971   6.003   2.271   8.384 -0.3110 -0.2201 -1.1792
 1804TIP3    H226972   6.005   2.134   8.448 -0.2866  0.7471  0.9624
 1805TIP3   OH226973   6.740   4.888   8.532  0.0343 -0.2218 -0.4630
 1805TIP3    H126974   6.808   4.954   8.545 -0.1585 -0.3171  1.2659
 1805TIP3    H226975   6.788   4.811   8.499  0.6341  0.0102 -0.1572
 1806TIP3   OH226976   4.557   6.536   8.042  0.0259  0.0783  0.4037
 1806TIP3    H126977   4.507   6.610   8.077  0.1976  0.8210 -0.8584
 1806TIP3    H226978   4.500   6.499   7.974  0.2600 -0.4828  0.5094
 1807TIP3   OH226979   5.891   3.628   7.947 -0.0608  0.1063 -0.0424
 1807TIP3    H126980   5.835   3.683   8.002  0.8397  0.1896  0.8216
 1807TIP3    H226981   5.976   3.629   7.992  0.2352 -1.1749 -0.5537
 1808TIP3   OH226982   3.791   6.257   0.305 -0.4819  0.4078  0.7020
 1808TIP3    H126983   3.700   6.284   0.313 -0.3473  0.9659  0.3893
 1808TIP3    H226984   3.807   6.254   0.210 -0.1695  0.3310  0.7560
 1809TIP3   OH226985   5.464   0.791   0.698 -1.0235  0.2214  0.0116
 1809TIP3    H126986   5.418   0.708   0.685 -1.0689  0.2049  0.2780
 1809TIP3    H226987   5.480   0.823   0.609  0.2471 -0.7501 -0.1476
 1810TIP3   OH226988   2.540   1.103   8.293  0.3175 -0.1268  0.0455
 1810TIP3    H126989   2.456   1.060   8.278  0.4615  0.1911 -1.8678
 1810TIP3    H226990   2.518   1.182   8.343 -0.2648 -0.9968  1.2086
 1811TIP3   OH226991   6.423   1.037   1.830  0.0269 -0.4598  0.2522
 1811TIP3    H126992   6.406   0.959   1.883 -1.3389  0.4111  1.1672
 1811TIP3    H226993   6.514   1.059   1.848  0.9818 -2.7561 -1.3215
 1812TIP3   OH226994   0.634   2.838   0.610  0.2659 -0.3925 -0.0055
 1812TIP3    H126995   0.699   2.823   0.678  1.9465 -0.4007 -1.5147
 1812TIP3    H226996   0.626   2.933   0.605  1.1326 -0.3393 -0.6378
 1813TIP3   OH226997   4.422   4.455   6.640  0.7871  0.2355 -0.4671
 1813TIP3    H126998   4.471   4.527   6.680  0.1413  0.6667 -0.4500
 1813TIP3    H226999   4.331   4.473   6.660  0.6534 -0.9047  0.0578
 1814TIP3   OH227000   0.935   2.551   1.124  0.7657  0.6614 -0.0293
 1814TIP3    H127001   0.991   2.586   1.193  0.8125 -0.1101  0.3311
 1814TIP3    H227002   0.989   2.553   1.045  0.6731  1.6629 -0.0841
 1815TIP3   OH227003   4.081   5.240   1.046 -0.1675  0.5781  0.7119
 1815TIP3    H127004   4.128   5.317   1.079 -0.3188  1.5872 -1.2794
 1815TIP3    H227005   4.130   5.214   0.968 -1.1443 -0.2489  0.3582
 1816TIP3   OH227006   0.802   2.278   8.275 -0.6423  0.0166 -0.3699
 1816TIP3    H127007   0.744   2.275   8.351  0.0523  2.4061  0.3400
 1816TIP3    H227008   0.890   2.285   8.312 -0.3425  1.8717 -1.3371
 1817TIP3   OH227009   2.328   0.636   5.983 -0.7830 -0.8199 -0.1634
 1817TIP3    H127010   2.303   0.712   6.036 -0.5496 -0.6206 -0.3348
 1817TIP3    H227011   2.378   0.581   6.043  2.3679  0.9289 -0.9300
 1818TIP3   OH227012   3.994   6.799   1.617 -0.0614 -0.4915  0.2880
 1818TIP3    H127013   3.927   6.808   1.686 -0.2052 -1.6637  0.3333
 1818TIP3    H227014   4.066   6.854   1.647 -0.2225 -0.7743  1.2590
 1819TIP3   OH227015   6.591   0.863   8.082  0.0920 -0.1161 -0.6104
 1819TIP3    H127016   6.519   0.908   8.126 -0.0273 -1.3283  0.4953
 1819TIP3    H227017   6.662   0.928   8.080 -0.4418  0.4974 -0.1110
 1820TIP3   OH227018   6.155   0.702   7.710 -0.4588  0.6770  0.7803
 1820TIP3    H127019   6.103   0.762   7.763 -1.6244  0.6077 -0.2562
 1820TIP3    H227020   6.140   0.730   7.620 -0.3403 -0.6270  0.3393
 1821TIP3   OH227021   1.474   5.292   7.984  0.0377  0.2463 -0.2996
 1821TIP3    H127022   1.556   5.252   7.955 -0.1319 -0.9161  0.7245
 1821TIP3    H227023   1.420   5.297   7.906  1.0235  0.9270 -0.9702
 1822TIP3   OH227024   2.693   5.541   0.345 -0.7963 -0.6032  0.6430
 1822TIP3    H127025   2.700   5.446   0.358 -0.8968 -0.7905 -0.5796
 1822TIP3    H227026   2.761   5.577   0.402  0.9491 -1.5800 -0.7130
 1823TIP3   OH227027   5.771   2.943   1.505  0.1929  0.3472 -0.3944
 1823TIP3    H127028   5.775   2.971   1.414  0.1225  0.2785 -0.4187
 1823TIP3    H227029   5.689   2.980   1.539  0.1023  0.1772 -0.4251
 1824TIP3   OH227030   1.312   2.889   1.465 -0.2529 -0.5641 -0.2502
 1824TIP3    H127031   1.275   2.886   1.377 -0.6716  2.5980 -0.2762
 1824TIP3    H227032   1.406   2.899   1.451 -0.1254 -1.6518 -0.2714
 1825TIP3   OH227033   1.623   0.863   6.754  0.5055 -0.3344 -0.4078
 1825TIP3    H127034   1.601   0.950   6.722 -2.8949  0.1560  2.5496
 1825TIP3    H227035   1.714   0.871   6.783  0.3312  2.2551 -0.2804
 1826TIP3   OH227036   0.950   1.768   2.365  0.6782  0.1727  0.2732
 1826TIP3    H127037   0.950   1.857   2.330  0.1242 -0.0637 -0.3681
 1826TIP3    H227038   0.986   1.715   2.294  1.2501 -0.0860  0.7484
 1827TIP3   OH227039   2.776   3.416   1.805 -0.5520 -0.0520 -0.0156
 1827TIP3    H127040   2.717   3.444   1.875 -1.4767  0.6032 -1.0293
 1827TIP3    H227041   2.776   3.489   1.743  2.1911  0.4360  0.4557
 1828TIP3   OH227042   1.551   2.770   7.580  0.1232 -0.3686  0.2819
 1828TIP3    H127043   1.490   2.719   7.634  0.4284  0.0285  1.0210
 1828TIP3    H227044   1.585   2.707   7.516 -1.2669 -0.5346 -0.3400
 1829TIP3   OH227045   4.623   0.820   2.218 -0.5342  0.4881  0.4219
 1829TIP3    H127046   4.684   0.886   2.250 -1.6279  1.0318  1.4669
 1829TIP3    H227047   4.538   0.863   2.218 -0.9752 -0.3253 -0.7835
 1830TIP3   OH227048   6.495   2.140   1.534  0.6688 -0.4781 -0.3503
 1830TIP3    H127049   6.458   2.070   1.588  0.6304  0.3295  0.6972
 1830TIP3    H227050   6.440   2.216   1.553  1.1424  0.0193 -0.9394
 1831TIP3   OH227051   5.888   0.055   7.131 -0.4945 -0.1474 -0.6039
 1831TIP3    H127052   5.880   0.134   7.077 -1.1115 -0.7416 -1.4176
 1831TIP3    H227053   5.941  -0.005   7.078 -0.6914 -0.5673 -0.3299
 1832TIP3   OH227054   0.210   5.141   1.932 -0.5588  0.2870 -0.2295
 1832TIP3    H127055   0.188   5.151   2.024  0.7782 -0.3757  0.1923
 1832TIP3    H227056   0.298   5.178   1.924  0.9053 -2.8660 -0.3967
 1833TIP3   OH227057   4.503   1.455   2.206 -0.2132 -0.5000 -0.0735
 1833TIP3    H127058   4.492   1.526   2.269  0.0612 -0.6799  0.1774
 1833TIP3    H227059   4.446   1.386   2.238  0.7824 -1.0187  0.6139
 1834TIP3   OH227060   2.204   5.840   0.557  0.5614  0.1695 -0.3308
 1834TIP3    H127061   2.131   5.842   0.494  1.5041 -1.1764 -1.5298
 1834TIP3    H227062   2.228   5.747   0.562  2.5242  0.6418 -0.3536
 1835TIP3   OH227063   6.370   3.506   1.767 -0.1412 -0.0426 -0.0783
 1835TIP3    H127064   6.325   3.438   1.717 -0.8088  1.0208 -0.9795
 1835TIP3    H227065   6.462   3.480   1.766 -0.4558 -1.2291  0.1075
 1836TIP3   OH227066   1.279   4.062   6.586  0.1229  0.2896  0.2060
 1836TIP3    H127067   1.203   4.115   6.560  0.1809 -0.1790 -0.9821
 1836TIP3    H227068   1.337   4.124   6.630 -0.6755  0.7841  0.5920
 1837TIP3   OH227069   6.333   3.423   6.841 -0.0300 -0.4775 -0.4391
 1837TIP3    H127070   6.366   3.485   6.776 -3.8195  1.3808 -0.8358
 1837TIP3    H227071   6.249   3.394   6.806 -1.6963 -0.3422  2.9946
 1838TIP3   OH227072   4.186   6.573   0.114  0.2614  0.2422 -0.5439
 1838TIP3    H127073   4.185   6.511   0.187 -0.1935 -0.3728 -1.0637
 1838TIP3    H227074   4.098   6.568   0.078  0.2935  1.0290 -0.7345
 1839TIP3   OH227075   6.067   3.707   0.205  0.7621 -0.0151  0.2982
 1839TIP3    H127076   5.977   3.735   0.192  1.1176  0.8567 -0.3504
 1839TIP3    H227077   6.069   3.617   0.172  0.1484 -0.0175  0.2555
 1840TIP3   OH227078   5.392   2.626   0.595 -0.2869 -0.5230 -0.1165
 1840TIP3    H127079   5.304   2.596   0.618 -0.5575  0.4423  0.1454
 1840TIP3    H227080   5.386   2.721   0.598  0.9597 -0.4599  0.6085
 1841TIP3   OH227081   2.396   1.784   8.075 -0.3560  0.2086 -0.0329
 1841TIP3    H127082   2.324   1.846   8.085 -1.3925 -0.5668 -2.1034
 1841TIP3    H227083   2.451   1.822   8.006 -0.0675 -0.3351 -0.1090
 1842TIP3   OH227084   2.863   4.902   0.947 -0.3787 -0.0234 -0.1820
 1842TIP3    H127085   2.810   4.945   1.015 -0.8366 -0.7149 -0.0893
 1842TIP3    H227086   2.803   4.840   0.907  0.3539 -0.7688 -0.1298
 1843TIP3   OH227087   4.267   2.493   2.190 -0.3735 -0.0843 -0.4472
 1843TIP3    H127088   4.194   2.432   2.184  0.0180 -0.6972  0.7501
 1843TIP3    H227089   4.297   2.487   2.281  2.2513 -1.1122 -1.2830
 1844TIP3   OH227090   4.455   3.743   1.118  0.4291 -0.3690 -0.1995
 1844TIP3    H127091   4.364   3.768   1.103  0.7969  1.2991  0.1081
 1844TIP3    H227092   4.459   3.650   1.095 -1.1020 -0.2124 -1.2468
 1845TIP3   OH227093   6.221   1.463   8.178 -0.4211  0.8086  0.2315
 1845TIP3    H127094   6.209   1.547   8.135  3.3818  2.1445  1.3408
 1845TIP3    H227095   6.233   1.485   8.271  4.3890 -0.2579  0.1279
 1846TIP3   OH227096   4.633   0.546   8.160  0.3135  0.2897  0.3976
 1846TIP3    H127097   4.638   0.545   8.064  1.5569  1.5143  0.4316
 1846TIP3    H227098   4.638   0.638   8.184  1.5832 -0.0908  1.7145
 1847TIP3   OH227099   1.272   6.160   7.739 -0.1051 -0.0544 -0.0750
 1847TIP3    H127100   1.323   6.241   7.727  0.9529 -0.6057  0.5256
 1847TIP3    H227101   1.181   6.189   7.740  0.1463  0.9198 -1.5689
 1848TIP3   OH227102   3.461   5.881   7.000 -0.3776 -0.8159 -0.5168
 1848TIP3    H127103   3.490   5.849   6.915  0.0442 -1.2077 -0.2283
 1848TIP3    H227104   3.378   5.925   6.982  0.0164 -0.3429 -1.2315
 1849TIP3   OH227105   4.157   4.774   6.773 -0.1056 -0.3123  0.0801
 1849TIP3    H127106   4.179   4.681   6.783  1.3142 -0.0757 -0.6487
 1849TIP3    H227107   4.226   4.810   6.718  0.0814  1.4628  1.3709
 1850TIP3   OH227108   3.164   2.518   0.344  0.3337  0.1336  0.5340
 1850TIP3    H127109   3.120   2.506   0.429  1.9071 -1.0106  1.2396
 1850TIP3    H227110   3.092   2.524   0.281 -0.8633  0.0226  1.8144
 1851TIP3   OH227111   3.737   0.352   7.974  0.2176  0.5187 -0.1215
 1851TIP3    H127112   3.656   0.370   8.021  0.1377  0.7564 -0.3479
 1851TIP3    H227113   3.712   0.292   7.904  0.3379  0.1591  0.1411
 1852TIP3   OH227114   4.529   1.962   0.338  0.4236 -0.0554  0.0279
 1852TIP3    H127115   4.525   1.871   0.367 -1.5247 -0.3176 -0.9277
 1852TIP3    H227116   4.443   1.979   0.300  0.6991  2.2383  0.2992
 1853TIP3   OH227117   4.648   1.566   7.766 -0.1795  0.2055 -1.1459
 1853TIP3    H127118   4.620   1.644   7.813  0.9527 -0.3605  0.5603
 1853TIP3    H227119   4.699   1.600   7.692  0.9665  1.1152  0.0136
 1854TIP3   OH227120   2.095   1.820   6.293 -0.2019  0.6399 -0.2480
 1854TIP3    H127121   2.002   1.796   6.295 -0.1683  0.3458 -1.6559
 1854TIP3    H227122   2.141   1.737   6.293  0.0847  0.7865  0.3622
 1855TIP3   OH227123   2.848   2.305   8.407 -0.0253 -0.5331 -0.2391
 1855TIP3    H127124   2.827   2.257   8.487 -2.2900  1.8258  0.6939
 1855TIP3    H227125   2.944   2.309   8.406  0.0972  0.6190  3.2023
 1856TIP3   OH227126   1.701   6.725   6.855  0.0219  0.7741  0.0096
 1856TIP3    H127127   1.686   6.819   6.869  2.4934  0.9880  1.9420
 1856TIP3    H227128   1.691   6.686   6.942 -0.1014 -0.6547 -0.6117
 1857TIP3   OH227129   4.283   1.729   0.773  0.1184  0.2387  0.4294
 1857TIP3    H127130   4.193   1.697   0.768  0.7124 -1.4321 -0.0556
 1857TIP3    H227131   4.289   1.769   0.860 -0.8192 -0.5263  0.8659
 1858TIP3   OH227132   6.644   3.907   7.946  0.0150  0.3871 -0.0910
 1858TIP3    H127133   6.559   3.882   7.909  0.1681 -0.1240 -0.0968
 1858TIP3    H227134   6.644   3.870   8.034  0.2580  0.3312 -0.1143
 1859TIP3   OH227135   6.577   4.634   7.713 -0.0397 -0.0352 -0.0657
 1859TIP3    H127136   6.591   4.548   7.752  0.6910 -0.6511 -1.6247
 1859TIP3    H227137   6.623   4.694   7.772  2.6489 -1.1537 -0.8942
 1860TIP3   OH227138   1.700   0.488   1.327 -0.2227  0.1620 -1.0324
 1860TIP3    H127139   1.786   0.452   1.307  1.1043  1.5438  1.6405
 1860TIP3    H227140   1.654   0.418   1.372  0.3646  0.1335 -0.4753
 1861TIP3   OH227141   6.522   4.721   7.458  0.5840  0.8234 -0.0175
 1861TIP3    H127142   6.542   4.683   7.543  0.6054  1.5582  0.3104
 1861TIP3    H227143   6.587   4.790   7.445 -0.0360  1.4035 -0.1569
 1862TIP3   OH227144   3.043   5.568   1.347 -0.1561  0.0782 -0.3652
 1862TIP3    H127145   2.993   5.643   1.314  0.6474  1.0338  0.5287
 1862TIP3    H227146   3.107   5.607   1.407  0.8634 -1.2384 -0.5742
 1863TIP3   OH227147   5.204   6.819   7.115 -0.2997 -0.2763  0.0583
 1863TIP3    H127148   5.156   6.899   7.091 -1.0484 -1.0582 -1.1399
 1863TIP3    H227149   5.139   6.764   7.157  0.0164 -0.5989  0.1267
 1864TIP3   OH227150   1.708   4.517   7.062 -0.2870  0.0140  0.8598
 1864TIP3    H127151   1.673   4.433   7.093  2.4635 -1.9979 -1.0131
 1864TIP3    H227152   1.788   4.529   7.112  0.5169  0.3360 -0.4695
 1865TIP3   OH227153   3.578   0.006   1.580  0.5764  0.0771 -0.3064
 1865TIP3    H127154   3.512   0.061   1.622 -0.4178 -3.1036  2.7437
 1865TIP3    H227155   3.643   0.068   1.548 -1.4066  3.1062  1.0415
 1866TIP3   OH227156   6.049   1.227   0.372  0.3042  0.5179 -0.0905
 1866TIP3    H127157   6.114   1.157   0.381 -0.5160 -0.3629 -0.7938
 1866TIP3    H227158   6.093   1.293   0.318  0.5516 -0.1692 -0.7476
 1867TIP3   OH227159   1.579   6.097   5.819 -0.1189 -0.2872  0.0178
 1867TIP3    H127160   1.516   6.137   5.879  1.4176  0.7716  0.9948
 1867TIP3    H227161   1.583   6.157   5.745 -1.3698 -1.1508 -0.7842
 1868TIP3   OH227162   0.482   0.078   1.256 -0.5954  0.0909  0.4400
 1868TIP3    H127163   0.450   0.114   1.339  1.7006 -0.3179  1.5922
 1868TIP3    H227164   0.526   0.151   1.213 -1.5803  0.2418 -0.3604
 1869TIP3   OH227165   3.092   0.019   8.559  0.5431 -0.0062 -0.6847
 1869TIP3    H127166   3.002  -0.009   8.546  0.6583 -1.3050  0.9242
 1869TIP3    H227167   3.098   0.038   8.653  1.6760  1.1245 -0.9555
 1870TIP3   OH227168   4.464   0.844   7.263  0.2104 -0.2764  0.2546
 1870TIP3    H127169   4.511   0.916   7.307  1.0721 -0.3325 -0.5296
 1870TIP3    H227170   4.491   0.765   7.311 -1.1038 -0.0517  1.4139
 1871TIP3   OH227171   3.472   1.060   0.816 -0.2248  0.2664  0.0064
 1871TIP3    H127172   3.538   1.069   0.747 -1.9619 -0.3056 -1.8065
 1871TIP3    H227173   3.433   0.974   0.801 -0.7714  0.1921  1.6319
 1872TIP3   OH227174   0.068   4.735   8.416 -0.6161 -0.0735  0.0739
 1872TIP3    H127175   0.038   4.645   8.402 -0.5491 -0.0374 -0.3186
 1872TIP3    H227176   0.103   4.736   8.505  2.3571 -1.2873 -0.9262
 1873TIP3   OH227177   4.137   2.893   1.281  0.1067 -0.6444 -0.3826
 1873TIP3    H127178   4.117   2.828   1.348  0.7976 -1.0999 -0.6070
 1873TIP3    H227179   4.229   2.877   1.258 -0.0723 -0.3889 -1.3218
 1874TIP3   OH227180   0.454   6.451   6.577 -0.2856  0.3310  0.1938
 1874TIP3    H127181   0.389   6.478   6.512 -0.6437 -1.4965 -0.2535
 1874TIP3    H227182   0.530   6.426   6.525  0.4622  1.5358  0.6673
 1875TIP3   OH227183   6.620   6.724   6.551  0.3135 -0.7331 -0.0431
 1875TIP3    H127184   6.669   6.772   6.484  0.2654 -0.1856  0.3052
 1875TIP3    H227185   6.549   6.682   6.504  0.9170 -1.2574 -0.5064
 1876TIP3   OH227186   0.387   3.363   1.955 -0.4724  0.2536 -0.0705
 1876TIP3    H127187   0.358   3.388   1.867 -0.0604  0.4930 -0.1396
 1876TIP3    H227188   0.337   3.284   1.976 -0.8663  0.4258 -0.3574
 1877TIP3   OH227189   3.471   0.627   8.395 -0.3380 -0.3906  0.5519
 1877TIP3    H127190   3.468   0.721   8.375  0.6159 -0.5515 -0.4348
 1877TIP3    H227191   3.379   0.600   8.394 -0.7131  0.7056  1.8199
 1878TIP3   OH227192   6.087   5.786   0.170 -0.0903 -0.4146  0.0455
 1878TIP3    H127193   6.094   5.711   0.111 -0.7108 -0.7296  0.3611
 1878TIP3    H227194   5.995   5.812   0.165 -0.1820 -0.5352  0.9682
 1879TIP3   OH227195   4.942   3.380   6.870  0.1474 -0.2161  0.0672
 1879TIP3    H127196   4.866   3.418   6.913 -2.2805 -2.3528 -2.0190
 1879TIP3    H227197   4.927   3.394   6.777  2.8484  0.1321 -0.3932
 1880TIP3   OH227198   3.241   2.055   8.077  0.1228  0.0924  0.2294
 1880TIP3    H127199   3.300   1.993   8.033  1.4560  1.2285  0.3391
 1880TIP3    H227200   3.258   2.041   8.170  0.3408  0.5232  0.2566
 1881TIP3   OH227201   2.424   5.128   7.414  0.3606  0.5923 -0.9597
 1881TIP3    H127202   2.487   5.062   7.384  0.1162  0.4951 -1.2574
 1881TIP3    H227203   2.424   5.118   7.509 -0.2923 -0.4097 -1.0481
 1882TIP3   OH227204   0.766   6.025   7.912  0.5004 -0.2330  0.2838
 1882TIP3    H127205   0.730   5.963   7.975  0.7136 -0.4562  0.1893
 1882TIP3    H227206   0.704   6.024   7.839  0.2249  0.0664  0.5097
 1883TIP3   OH227207   3.649   3.213   8.470 -0.9800 -0.2157 -0.0380
 1883TIP3    H127208   3.709   3.221   8.395  1.3993 -1.3938  1.6166
 1883TIP3    H227209   3.596   3.136   8.450 -0.2325 -0.6448 -0.4281
 1884TIP3   OH227210   4.059   0.170   6.820 -0.1162  0.5306  0.2367
 1884TIP3    H127211   4.074   0.100   6.756 -1.2156 -0.5970  1.1568
 1884TIP3    H227212   3.964   0.182   6.821 -0.3513 -0.7062  2.8312
 1885TIP3   OH227213   0.641   3.374   6.654  0.2964  0.1325  0.6658
 1885TIP3    H127214   0.559   3.376   6.605  1.1060  0.8991 -0.7199
 1885TIP3    H227215   0.694   3.443   6.615  1.6337 -0.3818  1.5022
 1886TIP3   OH227216   4.276   4.136   0.873  0.5557  0.1186 -0.4765
 1886TIP3    H127217   4.229   4.121   0.791  0.1563  3.6194 -1.0564
 1886TIP3    H227218   4.267   4.054   0.921 -4.8309 -0.1180 -1.2045
 1887TIP3   OH227219   3.500   1.624   7.685 -0.1491 -0.2778 -0.1650
 1887TIP3    H127220   3.406   1.624   7.671 -0.1176  0.9564 -0.4835
 1887TIP3    H227221   3.511   1.607   7.778 -0.6519 -1.0998 -0.2490
 1888TIP3   OH227222   3.051   2.364   1.642 -0.5769  0.7045 -0.3162
 1888TIP3    H127223   3.136   2.383   1.682 -1.3719 -0.4882  2.1551
 1888TIP3    H227224   2.995   2.438   1.667 -0.2990  1.5610 -2.0585
 1889TIP3   OH227225   6.661   5.533   1.095  0.1414  0.3803 -0.1217
 1889TIP3    H127226   6.747   5.551   1.058  0.1324 -0.7963 -0.7744
 1889TIP3    H227227   6.619   5.475   1.031 -1.1874  1.0357  0.1247
 1890TIP3   OH227228   4.410   6.095   8.312  0.0307  0.0703 -0.0334
 1890TIP3    H127229   4.329   6.126   8.271  0.9753  2.1184 -0.4932
 1890TIP3    H227230   4.401   6.120   8.404 -0.5642 -1.2893  0.3032
 1891TIP3   OH227231   1.504   1.317   2.359  0.0370  0.2348  0.4142
 1891TIP3    H127232   1.558   1.263   2.416  0.6547 -0.6173 -0.9395
 1891TIP3    H227233   1.458   1.255   2.303 -0.7724  1.0436  0.1566
 1892TIP3   OH227234   1.895   1.013   8.464  0.2986 -0.0055  0.2535
 1892TIP3    H127235   1.929   1.030   8.376 -1.4612  0.9261 -0.2873
 1892TIP3    H227236   1.800   1.022   8.456 -0.2987 -3.6153  1.4478
 1893TIP3   OH227237   3.078   3.171   7.611 -0.0663  0.2341  0.5065
 1893TIP3    H127238   3.157   3.121   7.632 -1.2148 -1.0554  2.0047
 1893TIP3    H227239   3.030   3.177   7.694 -1.0643  1.9211 -0.1249
 1894TIP3   OH227240   5.671   2.928   7.803  0.4269 -0.2363 -0.1274
 1894TIP3    H127241   5.692   3.001   7.861 -1.4335 -1.4851  2.3158
 1894TIP3    H227242   5.679   2.850   7.858 -3.2888 -1.3571 -0.8665
 1895TIP3   OH227243   3.439   5.840   0.103 -0.0094 -0.5011 -0.3165
 1895TIP3    H127244   3.432   5.797   0.018  1.7524  0.1081 -0.8068
 1895TIP3    H227245   3.357   5.888   0.112 -0.8183 -1.6999 -1.0168
 1896TIP3   OH227246   0.194   6.267   1.828 -0.3653 -0.6054 -0.2534
 1896TIP3    H127247   0.140   6.306   1.759  1.7112  0.2356 -1.4673
 1896TIP3    H227248   0.141   6.194   1.860 -2.5434  0.6248 -0.8336
 1897TIP3   OH227249   3.267   0.274   1.800  0.0799  0.0458 -0.6265
 1897TIP3    H127250   3.209   0.350   1.807 -1.5438 -1.0597 -1.5113
 1897TIP3    H227251   3.317   0.274   1.882  0.9532  2.6739 -1.0561
 1898TIP3   OH227252   0.923   3.927   7.332 -0.7255 -0.4536 -0.5798
 1898TIP3    H127253   1.006   3.971   7.313  0.0646 -1.6045  0.0413
 1898TIP3    H227254   0.867   3.946   7.257 -0.7644  2.3218  0.0351
 1899TIP3   OH227255   3.827   2.749   0.884 -0.0943 -0.0745 -0.4648
 1899TIP3    H127256   3.905   2.782   0.929 -0.3691 -0.4425  0.2878
 1899TIP3    H227257   3.860   2.714   0.801  0.5915 -0.5853  0.0224
 1900TIP3   OH227258   6.305   2.274   8.225  0.8539 -0.1761 -0.1129
 1900TIP3    H127259   6.354   2.317   8.295  1.4861  1.7731 -1.6358
 1900TIP3    H227260   6.213   2.289   8.247  1.0146  3.3056 -1.1725
 1901TIP3   OH227261   0.849   3.178   6.974 -0.1580  0.4111  0.0924
 1901TIP3    H127262   0.755   3.185   6.955 -0.3518  0.3657  0.9747
 1901TIP3    H227263   0.891   3.235   6.910 -0.7993  0.5355 -0.2254
 1902TIP3   OH227264   4.817   1.236   6.680 -0.2017 -0.2771  0.1015
 1902TIP3    H127265   4.730   1.248   6.719  0.2311  0.3900  0.9016
 1902TIP3    H227266   4.878   1.254   6.752  0.6334  1.2745 -0.9299
 1903TIP3   OH227267   0.007   3.412   0.910  0.2946  0.2406 -0.2985
 1903TIP3    H127268  -0.035   3.334   0.875 -0.6654  1.0860 -1.0573
 1903TIP3    H227269   0.004   3.475   0.839  2.7062  0.4088 -0.3284
 1904TIP3   OH227270   0.223   5.862   7.187 -0.2422 -0.4592 -0.4028
 1904TIP3    H127271   0.263   5.798   7.128  0.4772 -0.3120 -0.0757
 1904TIP3    H227272   0.152   5.813   7.229  0.3160 -1.0518 -0.1362
 1905TIP3   OH227273   2.023   2.838   0.042  0.4527  0.0871  0.1320
 1905TIP3    H127274   1.991   2.897   0.110  2.0513 -0.6978  1.6675
 1905TIP3    H227275   1.987   2.873  -0.039  0.4192  2.5069  1.0900
 1906TIP3   OH227276   3.732   4.002   8.535 -1.3122  0.7669 -0.4065
 1906TIP3    H127277   3.664   4.037   8.478 -2.4717 -1.7953 -0.7230
 1906TIP3    H227278   3.684   3.953   8.602  0.1069 -3.0820 -1.9372
 1907TIP3   OH227279   2.002   3.786   0.216 -0.1725 -0.0350 -0.0465
 1907TIP3    H127280   1.951   3.818   0.291 -0.1369 -2.4077  1.0739
 1907TIP3    H227281   2.093   3.799   0.242 -0.1643 -0.4510  0.1350
 1908TIP3   OH227282   6.226   5.935   1.497  0.6417  0.1192 -0.3651
 1908TIP3    H127283   6.140   5.968   1.469 -0.8833 -0.6730  2.8611
 1908TIP3    H227284   6.227   5.948   1.592  3.3114 -1.6870 -0.0259
 1909TIP3   OH227285   2.508   2.270   7.426  0.1236 -0.4763  0.7102
 1909TIP3    H127286   2.445   2.214   7.472  1.2366 -0.4910  2.2823
 1909TIP3    H227287   2.566   2.210   7.381 -0.7376 -0.4690 -0.4633
 1910TIP3   OH227288   3.706   3.644   0.452  0.5597  0.1975  0.1719
 1910TIP3    H127289   3.746   3.606   0.531 -0.5308  0.3334  0.8079
 1910TIP3    H227290   3.768   3.710   0.423  0.6353  0.6680  1.3598
 1911TIP3   OH227291   4.896   5.939   7.676 -0.2515  0.9292  0.2180
 1911TIP3    H127292   4.965   5.968   7.616 -0.2000  0.6580  0.1427
 1911TIP3    H227293   4.943   5.912   7.755 -0.3466  1.6184  0.5150
 1912TIP3   OH227294   0.269   0.042   7.867 -0.0941 -0.2344  0.5542
 1912TIP3    H127295   0.250  -0.018   7.938  2.9189 -0.4318  1.3573
 1912TIP3    H227296   0.266   0.129   7.907 -0.6114 -0.1521  0.3460
 1913TIP3   OH227297   3.014   5.912   1.006  0.1236 -0.4197 -0.5590
 1913TIP3    H127298   3.100   5.900   1.046  1.0035  2.0531 -1.5169
 1913TIP3    H227299   2.952   5.898   1.077  1.5786  2.6750  1.5115
 1914TIP3   OH227300   3.775   0.522   7.270 -0.0417  0.3568 -0.0469
 1914TIP3    H127301   3.784   0.556   7.359 -1.5910  0.5678  0.0469
 1914TIP3    H227302   3.850   0.558   7.223 -0.3813  2.0134  0.6364
 1915TIP3   OH227303   0.978   4.919   6.128 -0.1718 -0.0290 -0.1266
 1915TIP3    H127304   1.014   4.834   6.105 -2.4764 -1.2243  0.3493
 1915TIP3    H227305   0.977   4.968   6.046  1.0483 -0.5094 -0.4412
 1916TIP3   OH227306   2.289   0.699   7.183  0.2560  1.2069 -0.0211
 1916TIP3    H127307   2.351   0.642   7.229 -1.2983 -0.7799 -0.2920
 1916TIP3    H227308   2.278   0.774   7.241 -1.0930 -0.8771  2.5716
 1917TIP3   OH227309   0.730   0.582   8.000 -0.3182 -0.0433  0.1514
 1917TIP3    H127310   0.749   0.676   8.012  1.4719  0.0470 -2.5940
 1917TIP3    H227311   0.799   0.538   8.050  0.0788  0.1382 -0.2306
 1918TIP3   OH227312   5.420   5.283   0.524  0.6215  0.2275  0.3153
 1918TIP3    H127313   5.376   5.203   0.495  1.8301 -0.0506 -0.8349
 1918TIP3    H227314   5.481   5.253   0.592  0.8701  0.2134  0.0867
 1919TIP3   OH227315   1.314   5.740   7.879 -0.8687  0.2178 -0.5368
 1919TIP3    H127316   1.344   5.799   7.809  1.4847  0.4991  0.6057
 1919TIP3    H227317   1.319   5.793   7.958 -0.2763 -1.0273  0.2888
 1920TIP3   OH227318   4.947   4.426   0.679 -0.0252  0.4694 -0.2350
 1920TIP3    H127319   4.877   4.378   0.723  0.2602 -0.3526 -0.6471
 1920TIP3    H227320   4.905   4.463   0.601  0.3730 -1.6581 -1.5522
 1921TIP3   OH227321   2.179   5.574   1.666 -0.6723 -0.5928  0.2502
 1921TIP3    H127322   2.169   5.658   1.621 -0.6798 -1.0462 -0.6055
 1921TIP3    H227323   2.167   5.508   1.598  1.4022 -1.2777  0.4824
 1922TIP3   OH227324   4.878   0.387   7.051  0.2600  0.0188 -0.5038
 1922TIP3    H127325   4.855   0.406   6.960 -0.6750 -3.1660 -1.0370
 1922TIP3    H227326   4.972   0.403   7.056  0.3200  0.2633 -2.0203
 1923TIP3   OH227327   0.158   0.817   7.666  0.4982 -0.4834  0.1507
 1923TIP3    H127328   0.216   0.848   7.596  0.6600 -1.0067  0.0518
 1923TIP3    H227329   0.186   0.727   7.683  0.3951 -0.3967  0.8205
 1924TIP3   OH227330   6.682   5.895   8.342 -0.2777 -0.3327 -0.6387
 1924TIP3    H127331   6.753   5.866   8.284  0.1428  1.3294 -1.0115
 1924TIP3    H227332   6.619   5.823   8.340  0.7741 -1.2731 -1.3659
 1925TIP3   OH227333   3.819   5.315   0.983  0.7320  0.0158 -0.0136
 1925TIP3    H127334   3.771   5.245   1.028  1.4053 -1.5495 -1.5996
 1925TIP3    H227335   3.912   5.294   0.999  0.9460  0.3644 -0.7734
 1926TIP3   OH227336   5.105   5.164   8.449  0.1924 -0.2834 -0.1846
 1926TIP3    H127337   5.087   5.160   8.543  2.7464 -0.1156  0.4007
 1926TIP3    H227338   5.138   5.078   8.427  0.4302 -0.0569 -0.7254
 1927TIP3   OH227339   3.881   1.989   0.762  0.7597  0.2904 -0.1547
 1927TIP3    H127340   3.970   2.023   0.775  0.9550  0.5423 -1.8214
 1927TIP3    H227341   3.892   1.920   0.696  0.1974 -2.2546  2.2547
 1928TIP3   OH227342   1.726   2.004   0.224  0.0467 -0.4143  0.3250
 1928TIP3    H127343   1.794   1.937   0.232  0.2771 -0.0954  1.1755
 1928TIP3    H227344   1.762   2.067   0.162  0.3436 -0.4707  0.4377
 1929TIP3   OH227345   6.192   0.655   0.396 -0.5906 -0.1897  0.0966
 1929TIP3    H127346   6.133   0.581   0.413 -0.1950 -0.5049  0.1391
 1929TIP3    H227347   6.271   0.633   0.446 -0.5246  0.3343  0.2218
 1930TIP3   OH227348   3.994   3.748   0.287  0.0620 -0.3927 -0.1095
 1930TIP3    H127349   4.087   3.769   0.276  0.1964  1.1443  2.8480
 1930TIP3    H227350   3.950   3.833   0.281 -1.0090 -0.9452 -0.2459
 1931TIP3   OH227351   4.895   3.494   0.331  0.1394  0.0290 -0.3465
 1931TIP3    H127352   4.888   3.422   0.394 -1.2738  1.2321  0.9256
 1931TIP3    H227353   4.948   3.458   0.260 -0.5436 -2.2798  0.2334
 1932TIP3   OH227354   1.326   5.591   7.176 -0.1380 -0.1866 -0.2640
 1932TIP3    H127355   1.290   5.533   7.109 -1.7223 -0.7179  1.0100
 1932TIP3    H227356   1.273   5.670   7.170  1.0013  0.5715 -0.9237
 1933TIP3   OH227357   4.490   2.366   1.226 -0.2949  0.1757  0.0405
 1933TIP3    H127358   4.580   2.341   1.208 -0.9091 -0.9573 -1.7243
 1933TIP3    H227359   4.449   2.287   1.260 -0.3429  1.0423  2.1660
 1934TIP3   OH227360   3.175   4.189   2.042 -0.3004 -0.2251 -0.0274
 1934TIP3    H127361   3.179   4.167   2.135 -0.7211  1.7408  0.5117
 1934TIP3    H227362   3.112   4.126   2.005 -1.0660 -0.2690  1.2806
 1935TIP3   OH227363   3.734   5.915   0.972 -0.2484  0.0510 -0.6755
 1935TIP3    H127364   3.739   5.911   0.876  1.0680 -0.0685 -0.6165
 1935TIP3    H227365   3.825   5.914   1.001 -0.3609  3.8609  0.4480
 1936TIP3   OH227366   2.323   1.315   7.917  0.1204 -0.5460  0.2559
 1936TIP3    H127367   2.281   1.393   7.953 -2.1465 -1.7516  0.3898
 1936TIP3    H227368   2.411   1.315   7.956  0.5723  2.3941 -0.4869
 1937TIP3   OH227369   5.765   3.127   6.675  0.1447  0.0051  0.1191
 1937TIP3    H127370   5.838   3.102   6.732  0.6956 -2.9576 -1.7048
 1937TIP3    H227371   5.688   3.090   6.717  0.7691 -3.9025 -1.7615
 1938TIP3   OH227372   0.317   5.903   7.418 -0.0368  0.3201  0.2233
 1938TIP3    H127373   0.381   5.972   7.436  2.9414 -2.5859  1.9902
 1938TIP3    H227374   0.278   5.927   7.334  3.3461  2.3688 -0.9402
 1939TIP3   OH227375   2.096   3.426   2.515  0.4905  0.1029 -0.4853
 1939TIP3    H127376   2.157   3.358   2.545  0.5869  0.4544  0.1302
 1939TIP3    H227377   2.141   3.508   2.531  0.8691  0.2893 -2.3638
 1940TIP3   OH227378   5.735   3.775   1.413 -0.0277  0.1219  0.4805
 1940TIP3    H127379   5.707   3.828   1.487  0.0602  0.8569  0.0071
 1940TIP3    H227380   5.732   3.685   1.444 -0.6124  0.3736  1.1670
 1941TIP3   OH227381   3.951   2.491   7.826 -0.0665  0.2479  0.0049
 1941TIP3    H127382   3.857   2.498   7.813 -0.0782  0.7576  0.3274
 1941TIP3    H227383   3.970   2.398   7.817 -0.6050  0.1390 -0.0288
 1942TIP3   OH227384   0.319   6.560   1.212  0.1943  0.2358  0.5951
 1942TIP3    H127385   0.228   6.577   1.235  0.1376 -1.8898  2.2240
 1942TIP3    H227386   0.345   6.487   1.267  2.8876  0.7063  0.1120
 1943TIP3   OH227387   0.639   4.645   1.934  0.6520 -0.5184  0.5287
 1943TIP3    H127388   0.697   4.707   1.890  0.2620 -1.5197 -1.5371
 1943TIP3    H227389   0.556   4.691   1.945  0.3519 -0.6480 -1.0252
 1944TIP3   OH227390   1.124   5.210   0.662  0.0708 -0.1174  0.2376
 1944TIP3    H127391   1.200   5.267   0.672 -0.1343 -0.1259  2.3375
 1944TIP3    H227392   1.072   5.225   0.741 -0.1939 -2.8603  0.7067
 1945TIP3   OH227393   0.091   6.545   0.482  0.6717  1.0944 -0.0736
 1945TIP3    H127394   0.151   6.515   0.414  0.2422 -2.6784  1.0099
 1945TIP3    H227395   0.005   6.546   0.440  0.5735 -0.1153  0.0671
 1946TIP3   OH227396   2.277   1.556   0.130  0.0784  0.2084  0.2828
 1946TIP3    H127397   2.257   1.593   0.044  0.5956  1.4135  0.6610
 1946TIP3    H227398   2.303   1.466   0.112  0.0945  0.4183 -0.8164
 1947TIP3   OH227399   2.971   4.428   0.340 -0.2765 -0.1781 -0.0188
 1947TIP3    H127400   2.986   4.341   0.302  1.3504 -0.1223  0.4247
 1947TIP3    H227401   2.898   4.415   0.401 -2.0927 -0.5416 -2.1212
 1948TIP3   OH227402   1.458   5.735   7.380  0.1773  0.0238  0.1699
 1948TIP3    H127403   1.382   5.784   7.349  0.2474  0.4775  0.6908
 1948TIP3    H227404   1.466   5.662   7.320  0.3663  0.9223 -0.9285
 1949TIP3   OH227405   6.356   2.016   0.308  0.1696  0.5290 -0.0506
 1949TIP3    H127406   6.436   2.023   0.360  0.3545  2.2568 -0.5254
 1949TIP3    H227407   6.321   2.104   0.305 -1.2278 -0.0180 -0.7067
 1950TIP3   OH227408   1.907   3.483   7.570 -0.1484  0.4271  0.9288
 1950TIP3    H127409   1.888   3.552   7.507  0.9089  1.1930  1.4218
 1950TIP3    H227410   1.960   3.420   7.523 -2.1829 -0.7629  0.0951
 1951TIP3   OH227411   5.592   0.648   0.501 -0.2375 -0.3679 -0.0006
 1951TIP3    H127412   5.616   0.564   0.541 -0.5716 -0.6708 -0.4156
 1951TIP3    H227413   5.658   0.710   0.532 -0.6925 -0.5028  1.3127
 1952TIP3   OH227414   3.073   3.423   6.326 -0.1132 -0.8497 -0.5195
 1952TIP3    H127415   3.019   3.452   6.399  0.0057 -0.7356 -0.4752
 1952TIP3    H227416   3.019   3.360   6.279 -0.9529  0.5471 -1.4909
 1953TIP3   OH227417   6.872   6.402   0.128 -0.2423 -0.2003 -0.2509
 1953TIP3    H127418   6.846   6.353   0.051 -0.8892  1.3077 -1.0405
 1953TIP3    H227419   6.792   6.446   0.156  0.0366 -0.5365  1.1491
 1954TIP3   OH227420   3.084   1.007   0.230  0.2568  0.2776 -0.0672
 1954TIP3    H127421   3.178   1.020   0.231  0.2235  1.1105 -2.2202
 1954TIP3    H227422   3.048   1.092   0.206 -1.1933  0.3631  2.0863
 1955TIP3   OH227423   2.508   0.383   2.510 -0.0711 -0.5950 -0.2096
 1955TIP3    H127424   2.594   0.369   2.470  1.0880  4.0739 -0.0267
 1955TIP3    H227425   2.528   0.410   2.600 -1.8817 -1.0150  0.3557
 1956TIP3   OH227426   0.360   5.722   6.449 -0.3915 -0.3228 -0.1079
 1956TIP3    H127427   0.404   5.701   6.367  2.0342  0.3654  0.9235
 1956TIP3    H227428   0.328   5.812   6.437  1.0429  0.2442  0.0615
 1957TIP3   OH227429   1.641   5.228   7.119  0.1526 -0.0733  0.7023
 1957TIP3    H127430   1.558   5.251   7.161 -0.0528  1.1181 -0.3138
 1957TIP3    H227431   1.708   5.271   7.172  0.1856 -1.3852  1.7737
 1958TIP3   OH227432   2.370   3.691   1.688  0.6660  0.4305  0.5406
 1958TIP3    H127433   2.422   3.641   1.626 -1.7898 -2.0990  0.3425
 1958TIP3    H227434   2.322   3.754   1.634 -2.2730 -2.4536 -0.5514
 1959TIP3   OH227435   5.424   5.607   7.873 -0.2900 -0.3676 -0.1892
 1959TIP3    H127436   5.436   5.607   7.778  0.4954  0.5511 -0.1029
 1959TIP3    H227437   5.494   5.663   7.906 -1.2227  0.2321  0.8460
 1960TIP3   OH227438   6.615   4.675   8.408  0.5172  0.1646 -0.0647
 1960TIP3    H127439   6.620   4.763   8.446  0.3708  0.9080 -1.6637
 1960TIP3    H227440   6.637   4.616   8.480 -1.0646  1.3841  1.5181
 1961TIP3   OH227441   5.752   0.317   7.845 -0.2109 -0.4093 -0.4403
 1961TIP3    H127442   5.833   0.367   7.841 -0.6802  0.3024 -1.3111
 1961TIP3    H227443   5.740   0.298   7.939 -0.7795  2.3703  0.1272
 1962TIP3   OH227444   4.705   3.701   0.625  0.1595 -0.1682 -0.2335
 1962TIP3    H127445   4.788   3.669   0.591 -1.4585 -2.2178 -2.6202
 1962TIP3    H227446   4.664   3.624   0.665 -0.7908  0.6850  0.4806
 1963TIP3   OH227447   1.687   2.676   1.556 -0.2837 -0.3807  0.3272
 1963TIP3    H127448   1.777   2.704   1.539 -0.0685 -0.6379  1.0401
 1963TIP3    H227449   1.688   2.581   1.542 -0.6511 -0.2748 -0.5141
 1964TIP3   OH227450   2.942   4.562   6.467 -0.1012  0.5208 -0.1098
 1964TIP3    H127451   2.925   4.542   6.559  0.0455  1.3639  0.1055
 1964TIP3    H227452   2.987   4.484   6.434 -0.9628 -0.1623  0.2885
 1965TIP3   OH227453   0.452   0.409   8.218 -0.4249  0.2824 -0.0096
 1965TIP3    H127454   0.435   0.365   8.301 -0.9348 -1.5918 -1.0293
 1965TIP3    H227455   0.377   0.467   8.204 -1.1915 -0.6671  0.0650
 1966TIP3   OH227456   4.629   0.526   0.986  0.1762  0.2913 -0.1039
 1966TIP3    H127457   4.675   0.554   0.907  0.1356  2.1327  0.4599
 1966TIP3    H227458   4.543   0.496   0.956 -0.3837  2.3168 -0.6814
 1967TIP3   OH227459   5.334   3.849   0.834 -0.2607  0.5522 -0.0852
 1967TIP3    H127460   5.411   3.873   0.886  0.4270 -2.5056  0.5336
 1967TIP3    H227461   5.303   3.768   0.874 -0.7288 -1.0587 -3.4102
 1968TIP3   OH227462   1.668   5.619   8.004  0.1698 -0.0629  0.0983
 1968TIP3    H127463   1.639   5.603   8.094 -1.1224 -0.0995 -0.3001
 1968TIP3    H227464   1.645   5.539   7.956 -1.2478  0.7803 -0.7183
 1969TIP3   OH227465   2.191   6.474   1.029  0.5342 -0.2067  0.1260
 1969TIP3    H127466   2.262   6.460   0.967 -0.5966 -2.5635 -0.7808
 1969TIP3    H227467   2.114   6.435   0.986 -1.1180  1.4570  1.4365
 1970TIP3   OH227468   0.868   6.020   0.917  0.2684 -0.4474 -0.6389
 1970TIP3    H127469   0.942   6.066   0.878  0.2666  0.3939  0.3057
 1970TIP3    H227470   0.805   6.089   0.940  0.0925 -0.9400  0.4455
 1971TIP3   OH227471   3.829   1.201   8.602 -0.1286 -0.3157  0.2815
 1971TIP3    H127472   3.739   1.173   8.618 -0.1288 -0.1745  0.5385
 1971TIP3    H227473   3.842   1.276   8.661  0.0401 -0.1074 -0.0168
 1972TIP3   OH227474   2.904   2.195   0.907 -0.1025 -0.1723 -0.2274
 1972TIP3    H127475   2.886   2.156   0.993 -0.4690 -0.3508 -0.3805
 1972TIP3    H227476   2.824   2.245   0.887  0.0734  0.0562 -0.3611
 1973TIP3   OH227477   3.792   6.806   1.817 -0.7361 -0.2722 -0.5391
 1973TIP3    H127478   3.741   6.881   1.848  0.8263  0.3005  0.7874
 1973TIP3    H227479   3.784   6.741   1.887  0.7581  0.0487 -0.0285
 1974TIP3   OH227480   6.609   1.034   8.399 -0.0421 -0.0044  0.2186
 1974TIP3    H127481   6.646   0.947   8.413  1.7366  0.6847  0.1391
 1974TIP3    H227482   6.559   1.026   8.318 -1.1410 -1.2932  0.9915
 1975TIP3   OH227483   5.710   2.741   8.502  0.2539  0.0413 -0.5224
 1975TIP3    H127484   5.762   2.662   8.493  1.8350  1.0839 -1.0924
 1975TIP3    H227485   5.689   2.747   8.595  0.6594 -0.7140 -0.3812
 1976TIP3   OH227486   2.583   6.383   1.230 -0.5681 -0.3860 -0.4158
 1976TIP3    H127487   2.660   6.350   1.274 -0.1646 -0.0921 -0.8879
 1976TIP3    H227488   2.583   6.477   1.248 -0.7727 -0.3720 -0.4795
 1977TIP3   OH227489   6.255   6.009   1.777  0.3173  0.7827  0.0230
 1977TIP3    H127490   6.210   6.088   1.806  1.6841  1.4158  0.5500
 1977TIP3    H227491   6.347   6.024   1.803  0.4264 -1.4540  1.1763
 1978TIP3   OH227492   4.632   5.876   1.521  0.0399  0.1221 -0.3651
 1978TIP3    H127493   4.623   5.783   1.501  2.5666 -0.3587  0.2864
 1978TIP3    H227494   4.653   5.917   1.437  0.0912 -0.1089 -0.4651
 1979TIP3   OH227495   0.130   2.242   0.007 -0.1232 -0.1901 -0.2457
 1979TIP3    H127496   0.165   2.195  -0.069 -0.9023  1.5894 -1.7875
 1979TIP3    H227497   0.202   2.299   0.035 -0.2955  0.2132 -0.6009
 1980TIP3   OH227498   4.158   2.393   1.131  0.5068 -0.0208 -0.2558
 1980TIP3    H127499   4.236   2.350   1.167  0.2974  0.7257  1.1423
 1980TIP3    H227500   4.086   2.361   1.185  0.1819  1.1614  0.0215
 1981TIP3   OH227501   1.311   6.092   5.965  0.4411  0.3811 -0.2296
 1981TIP3    H127502   1.350   6.110   6.050 -0.2341  0.3938  0.0809
 1981TIP3    H227503   1.309   6.177   5.921  0.9777  0.3407 -0.3518
 1982TIP3   OH227504   6.075   6.323   7.696 -0.1178  0.1862  0.5928
 1982TIP3    H127505   6.043   6.397   7.644 -0.3421  0.1185  0.6307
 1982TIP3    H227506   6.044   6.246   7.648 -0.1656  0.1215  0.7281
 1983TIP3   OH227507   3.072   4.234   0.118 -0.3391  0.3514  0.0233
 1983TIP3    H127508   3.062   4.143   0.146 -0.1768  0.7550  1.4819
 1983TIP3    H227509   3.166   4.245   0.108 -0.4082  0.1399 -1.0165
 1984TIP3   OH227510   2.555   1.384   6.649 -0.0630  1.0535 -0.1335
 1984TIP3    H127511   2.631   1.442   6.643  0.0980  0.8204 -0.4005
 1984TIP3    H227512   2.479   1.442   6.636 -0.1496  1.8297  3.1684
 1985TIP3   OH227513   5.191   1.679   0.542 -0.6638  0.2407 -0.0917
 1985TIP3    H127514   5.181   1.750   0.605  1.9833  0.6227 -0.0083
 1985TIP3    H227515   5.284   1.656   0.545 -1.2118 -2.4939 -0.9354
 1986TIP3   OH227516   4.627   0.459   8.454 -0.2418  0.1030 -0.3587
 1986TIP3    H127517   4.705   0.433   8.406  0.0666  1.0497 -0.3845
 1986TIP3    H227518   4.564   0.388   8.437 -0.6744  1.0649 -3.3918
 1987TIP3   OH227519   0.929   4.686   8.259  0.1685 -0.3093  0.5962
 1987TIP3    H127520   0.954   4.669   8.169 -1.7358 -1.5244  0.2299
 1987TIP3    H227521   1.007   4.725   8.299  0.5194  1.9366 -1.9756
 1988TIP3   OH227522   5.912   3.237   6.436  0.2692 -0.2648 -1.0990
 1988TIP3    H127523   6.000   3.201   6.425 -0.4335 -2.0578 -1.2922
 1988TIP3    H227524   5.868   3.173   6.492 -0.3170  1.6881  0.7865
 1989TIP3   OH227525   6.105   2.772   0.658  0.1205  0.4844 -0.1048
 1989TIP3    H127526   6.039   2.840   0.669 -0.0852  0.3176 -0.3131
 1989TIP3    H227527   6.112   2.761   0.563  0.3634  0.4182 -0.0800
 1990TIP3   OH227528   1.796   2.716   8.498  0.5465 -0.2073 -0.1615
 1990TIP3    H127529   1.806   2.717   8.403 -0.5377 -2.2792 -0.3653
 1990TIP3    H227530   1.742   2.793   8.517  1.0887  0.4439 -1.1679
 1991TIP3   OH227531   3.342   0.506   0.481  0.1854 -0.2502  0.5725
 1991TIP3    H127532   3.343   0.410   0.473 -0.1084 -0.1634 -0.7863
 1991TIP3    H227533   3.425   0.527   0.523  0.3920 -1.0944  0.6029
 1992TIP3   OH227534   4.832   2.334   6.434  0.5661 -0.2786 -0.2190
 1992TIP3    H127535   4.827   2.429   6.435 -0.6151 -0.3281  0.8761
 1992TIP3    H227536   4.862   2.310   6.521  2.9601 -0.8628 -1.1251
 1993TIP3   OH227537   3.038   2.177   7.785  0.1959 -0.2570 -0.5414
 1993TIP3    H127538   3.082   2.260   7.803  0.2877 -0.0876 -1.4549
 1993TIP3    H227539   2.945   2.198   7.789  0.1325 -0.7696  2.0863
 1994TIP3   OH227540   6.366   5.147   1.742  0.3648 -0.2012 -0.5784
 1994TIP3    H127541   6.427   5.212   1.776 -0.9228 -0.0153  1.5591
 1994TIP3    H227542   6.279   5.186   1.756 -0.3410 -1.4089 -1.3947
 1995TIP3   OH227543   6.365   3.918   2.868 -0.5090 -0.4006  0.1631
 1995TIP3    H127544   6.288   3.893   2.816 -0.7592 -0.2397  0.4533
 1995TIP3    H227545   6.431   3.941   2.803 -1.1385  0.7719 -0.0852
 1996TIP3   OH227546   1.615   0.416   0.008 -0.0309 -0.8060  0.0129
 1996TIP3    H127547   1.647   0.366  -0.067  0.6727  0.7404 -0.7552
 1996TIP3    H227548   1.683   0.407   0.074 -0.1509 -1.2855  0.0719
 1997TIP3   OH227549   2.173   5.069   1.662 -0.4288  0.1660 -0.0936
 1997TIP3    H127550   2.164   4.979   1.693  0.2151 -0.2594 -1.0981
 1997TIP3    H227551   2.138   5.067   1.573  0.1109  0.7828 -0.3230
 1998TIP3   OH227552   0.240   4.154   6.532  0.2831  0.1506 -0.4456
 1998TIP3    H127553   0.151   4.186   6.545  0.5301  0.6930 -0.0820
 1998TIP3    H227554   0.292   4.232   6.512  0.6115 -0.2038 -1.0430
 1999TIP3   OH227555   3.108   0.340   0.288  0.3927 -0.5107  0.2642
 1999TIP3    H127556   3.114   0.431   0.260 -2.4866 -0.8404 -1.8335
 1999TIP3    H227557   3.102   0.344   0.384 -1.0338  1.6358  0.1417
 2000TIP3   OH227558   6.673   2.400   7.720  0.6194 -0.5914 -0.3098
 2000TIP3    H127559   6.756   2.445   7.706  1.9680 -3.2343 -1.5538
 2000TIP3    H227560   6.619   2.426   7.645 -0.0783  1.7373  0.8938
 2001TIP3   OH227561   0.084   4.531   1.101  0.1930 -0.2829 -0.8209
 2001TIP3    H127562   0.180   4.529   1.096  0.3110 -4.1268 -0.1534
 2001TIP3    H227563   0.056   4.536   1.010  1.0768 -0.6219 -1.1289
 2002TIP3   OH227564   2.909   0.386   8.619 -0.5156 -0.1499  0.4833
 2002TIP3    H127565   2.864   0.380   8.535  0.1893  0.2711  0.0690
 2002TIP3    H227566   2.999   0.358   8.600 -0.0801  0.9453  0.8647
 2003TIP3   OH227567   3.906   1.339   0.923 -0.0815  0.1798 -0.2719
 2003TIP3    H127568   3.935   1.417   0.970 -2.4216  1.6512 -1.0898
 2003TIP3    H227569   3.870   1.282   0.991 -1.6893  1.4522  0.0001
 2004TIP3   OH227570   2.767   0.735   2.668  0.3507 -0.1385 -0.4608
 2004TIP3    H127571   2.846   0.779   2.637 -0.4452  0.0617 -2.3997
 2004TIP3    H227572   2.700   0.803   2.665 -0.4637 -0.9544 -1.5167
 2005TIP3   OH227573   5.396   3.949   1.225 -0.1244 -0.7426  0.5898
 2005TIP3    H127574   5.405   4.020   1.289  1.4365 -0.0390 -0.3423
 2005TIP3    H227575   5.468   3.889   1.245  1.4665  0.3580 -1.4905
 2006TIP3   OH227576   3.350   1.282   8.587 -0.3270 -0.4113 -0.3117
 2006TIP3    H127577   3.266   1.322   8.608 -1.3363 -1.7158 -1.6336
 2006TIP3    H227578   3.361   1.296   8.493  1.5209  0.7114 -0.0018
 2007TIP3   OH227579   1.773   0.765   6.939  0.1163 -0.1792 -0.1210
 2007TIP3    H127580   1.767   0.672   6.962  1.0503 -0.4502 -0.9415
 2007TIP3    H227581   1.852   0.796   6.983  0.4301 -0.0523 -0.7654
 2008TIP3   OH227582   1.442   3.730   0.035 -0.2318 -0.0889  0.5484
 2008TIP3    H127583   1.473   3.640   0.047 -1.7420 -0.4321  2.1951
 2008TIP3    H227584   1.404   3.730  -0.053 -0.5514 -1.1813  0.6700
 2009TIP3   OH227585   6.613   6.479   6.947  0.2566  0.2726  0.1199
 2009TIP3    H127586   6.650   6.431   6.873 -0.1369 -1.8868  1.2474
 2009TIP3    H227587   6.588   6.564   6.910  1.8157 -0.0154 -1.7603
 2010TIP3   OH227588   2.316   0.078   0.208  0.4165  0.0950 -0.7771
 2010TIP3    H127589   2.262   0.067   0.287  0.9828  0.7996 -0.2651
 2010TIP3    H227590   2.358  -0.006   0.195  0.5969  0.0773 -0.1033
 2011TIP3   OH227591   0.107   5.884   6.665  0.2856 -0.3821  0.3863
 2011TIP3    H127592   0.036   5.947   6.651 -0.1691 -1.0484 -0.4556
 2011TIP3    H227593   0.062   5.805   6.697  0.4116 -1.3574 -1.6986
 2012TIP3   OH227594   3.516   5.690   8.278 -0.0608 -0.3688  0.3972
 2012TIP3    H127595   3.458   5.622   8.243 -0.7631  0.1227  0.5825
 2012TIP3    H227596   3.603   5.650   8.277 -0.5949 -1.6424  1.4567
 2013TIP3   OH227597   4.857   5.910   1.677 -0.3140 -0.1567  0.1082
 2013TIP3    H127598   4.869   6.001   1.705 -0.0194 -0.2609  0.3148
 2013TIP3    H227599   4.779   5.913   1.620 -0.4666  0.1782  0.3319
 2014TIP3   OH227600   5.242   6.610   0.909  0.7985  0.3744 -0.6178
 2014TIP3    H127601   5.179   6.638   0.842 -1.8786  0.2022  1.6142
 2014TIP3    H227602   5.202   6.532   0.948  0.5348  2.1929  3.1997
 2015TIP3   OH227603   6.017   5.836   0.962 -0.5689 -0.1781 -0.2346
 2015TIP3    H127604   6.032   5.807   1.052 -0.8403  1.0598  0.2255
 2015TIP3    H227605   6.104   5.851   0.926 -0.4543  3.1595  1.1427
 2016TIP3   OH227606   5.738   5.250   1.635 -0.0341  0.2546  1.0404
 2016TIP3    H127607   5.769   5.317   1.696 -2.6211  0.2640  2.4648
 2016TIP3    H227608   5.731   5.170   1.687 -1.2179 -0.0190  0.4911
 2017TIP3   OH227609   6.225   1.519   7.473  0.0821 -0.2969  0.7001
 2017TIP3    H127610   6.172   1.453   7.516  0.4412  0.2961  2.1049
 2017TIP3    H227611   6.266   1.568   7.545  1.2849  0.2566 -0.3219
 2018TIP3   OH227612   0.174   4.242   2.035  0.0202  0.9121  0.6369
 2018TIP3    H127613   0.257   4.222   2.078  0.8838  2.0713 -0.3923
 2018TIP3    H227614   0.136   4.157   2.014  1.2660  0.3503  0.5656
 2019TIP3   OH227615   0.935   1.661   0.858  0.0432 -0.3394 -0.4340
 2019TIP3    H127616   0.995   1.698   0.793  1.0363 -0.0549  0.6254
 2019TIP3    H227617   0.919   1.732   0.920  0.6527 -1.1500  0.6938
 2020TIP3   OH227618   0.392   5.618   7.423  0.3510 -0.9623  0.4892
 2020TIP3    H127619   0.463   5.622   7.359 -0.1778  0.1292 -0.0420
 2020TIP3    H227620   0.339   5.696   7.407 -0.4224 -1.2390  1.5299
 2021TIP3   OH227621   6.742   5.211   2.925  0.2779 -0.0468 -0.3424
 2021TIP3    H127622   6.771   5.247   2.840  0.4615  0.6670  0.0141
 2021TIP3    H227623   6.718   5.121   2.905 -1.8966  0.7284 -1.6559
 2022TIP3   OH227624   0.976   6.139   7.524 -0.2657 -0.5591  0.2943
 2022TIP3    H127625   1.039   6.085   7.571 -0.8477 -0.2550  1.4619
 2022TIP3    H227626   0.927   6.185   7.592 -1.6590 -0.6813 -0.5793
 2023TIP3   OH227627   1.619   4.039   8.149 -0.1305 -0.1331 -0.0706
 2023TIP3    H127628   1.631   3.956   8.195 -1.0030 -1.1783 -1.6222
 2023TIP3    H227629   1.526   4.059   8.160  0.1105  0.7501  0.4458
 2024TIP3   OH227630   3.754   0.460   2.085  0.4448  0.4120 -0.4370
 2024TIP3    H127631   3.827   0.402   2.109 -1.9664 -1.9973  1.6332
 2024TIP3    H227632   3.772   0.541   2.133  1.0404 -0.6624  1.2531
 2025TIP3   OH227633   4.732   0.265   1.276 -0.2057 -0.4857 -0.5994
 2025TIP3    H127634   4.804   0.206   1.295 -0.3263 -0.4822 -0.0991
 2025TIP3    H227635   4.688   0.227   1.200  0.7268 -0.1200 -1.3453
 2026TIP3   OH227636   3.149   5.496   7.638  0.2536  0.5564 -0.0695
 2026TIP3    H127637   3.087   5.569   7.630  1.3506  1.5939  0.6347
 2026TIP3    H227638   3.235   5.538   7.647  1.3435 -0.8428 -2.8164
 2027TIP3   OH227639   1.547   0.903   0.389  0.2122 -0.3578 -0.5418
 2027TIP3    H127640   1.561   0.915   0.483  1.7472  2.4342 -1.0210
 2027TIP3    H227641   1.605   0.967   0.347 -1.6706 -0.2909 -3.3667
 2028TIP3   OH227642   0.574   3.733   7.126 -0.9508  0.3714 -0.3769
 2028TIP3    H127643   0.486   3.694   7.128  0.0860 -2.0783  0.5833
 2028TIP3    H227644   0.619   3.685   7.056  0.2086  0.1868  0.4823
 2029TIP3   OH227645   6.102   6.237   0.981 -0.3305  0.0923  0.1997
 2029TIP3    H127646   6.164   6.229   0.908 -0.3105 -0.0270  0.2292
 2029TIP3    H227647   6.027   6.184   0.954 -0.5318  0.4490  0.0469
 2030TIP3   OH227648   6.612   0.993   6.976  0.5490 -0.3526  0.0804
 2030TIP3    H127649   6.599   0.924   6.911  0.3109  0.5352 -0.8430
 2030TIP3    H227650   6.644   1.068   6.926 -2.6038  1.4122  0.3782
 2031TIP3   OH227651   0.211   1.393   7.045  0.1984 -0.0528 -0.2009
 2031TIP3    H127652   0.154   1.380   6.970  0.1626 -2.3937  0.1453
 2031TIP3    H227653   0.283   1.447   7.013 -0.9116  0.7849 -1.3151
 2032TIP3   OH227654   6.253   0.742   8.527  0.3683  0.1524 -0.2426
 2032TIP3    H127655   6.218   0.684   8.459  0.3618  0.1786 -0.2617
 2032TIP3    H227656   6.328   0.785   8.486  1.1433 -0.7707  0.1691
 2033TIP3   OH227657   0.955   0.133   8.521 -0.3295 -0.0821  0.1839
 2033TIP3    H127658   1.042   0.166   8.545 -0.6252  2.2321 -1.5949
 2033TIP3    H227659   0.962   0.110   8.429 -1.4833 -0.3615  0.1532
 2034TIP3   OH227660   2.393   2.618   0.578 -0.2524  0.3478  0.6493
 2034TIP3    H127661   2.360   2.705   0.598 -1.3270 -0.2237  1.4781
 2034TIP3    H227662   2.478   2.614   0.622  1.6229  2.2373 -2.4542
 2035TIP3   OH227663   1.466   1.299   1.762 -0.1399 -0.3731  0.2129
 2035TIP3    H127664   1.546   1.298   1.710  0.6164  1.8178  1.1880
 2035TIP3    H227665   1.490   1.348   1.841 -2.6094  1.0413  0.1781
 2036TIP3   OH227666   6.388   3.737   8.587  0.0393  0.0952  0.7958
 2036TIP3    H127667   6.332   3.692   8.524  0.2929 -0.0269  0.6541
 2036TIP3    H227668   6.364   3.829   8.578  0.5144  0.1598  0.0537
 2037TIP3   OH227669   4.416   6.502   0.379  0.2227  0.1157  0.4666
 2037TIP3    H127670   4.439   6.423   0.331 -0.1042  0.8381 -0.9303
 2037TIP3    H227671   4.489   6.562   0.364 -0.5268  0.8510 -0.3274
 2038TIP3   OH227672   1.086   4.740   8.630 -0.0691  0.2776  0.4838
 2038TIP3    H127673   1.118   4.756   8.541 -0.8585  3.4444  0.6469
 2038TIP3    H227674   1.020   4.808   8.645 -0.9245 -0.9762  3.0423
 2039TIP3   OH227675   1.968   5.244   0.749 -0.2833  0.2228 -0.2347
 2039TIP3    H127676   1.926   5.286   0.673  2.5974  1.3556 -1.3256
 2039TIP3    H227677   2.041   5.195   0.712  0.8626  0.3452  1.7407
 2040TIP3   OH227678   3.151   5.078   8.035  0.7275  0.6194  0.2175
 2040TIP3    H127679   3.141   5.035   7.950  0.4756  2.1066 -0.5552
 2040TIP3    H227680   3.206   5.019   8.086  2.8333  0.6799 -1.7741
 2041TIP3   OH227681   0.276   5.980   1.644 -0.0180 -0.1295 -0.2323
 2041TIP3    H127682   0.337   5.935   1.703  1.3492 -0.3425 -1.7292
 2041TIP3    H227683   0.216   6.026   1.702  1.8142  0.4095  1.3509
 2042TIP3   OH227684   6.418   4.548   6.590  0.8313  0.3964  0.2782
 2042TIP3    H127685   6.330   4.512   6.581  1.0538  0.0767 -0.7380
 2042TIP3    H227686   6.460   4.531   6.506  1.9164  0.4126  0.7957
 2043TIP3   OH227687   3.178   4.608   0.454 -0.4352  0.0934  0.1816
 2043TIP3    H127688   3.146   4.683   0.404 -0.8174  0.4859  1.0158
 2043TIP3    H227689   3.133   4.533   0.415  0.7043  0.1296 -1.3387
 2044TIP3   OH227690   4.943   1.867   1.164  0.4558 -0.2296 -0.2756
 2044TIP3    H127691   4.874   1.875   1.099  1.5443 -0.4520 -1.5165
 2044TIP3    H227692   4.956   1.956   1.197  0.2141 -0.0305 -0.7161
 2045TIP3   OH227693   0.062   1.003   0.481 -0.0378  0.0177 -0.0712
 2045TIP3    H127694   0.106   1.032   0.560  0.7782 -0.6116 -0.2842
 2045TIP3    H227695   0.022   1.083   0.445 -0.0446  0.3825  0.7283
 2046TIP3   OH227696   6.405   6.028   2.035 -0.8459  0.8376 -0.4703
 2046TIP3    H127697   6.322   5.992   2.065 -0.7679  0.9704 -0.0802
 2046TIP3    H227698   6.440   6.074   2.112 -0.1233  0.2612 -0.4490
 2047TIP3   OH227699   4.179   0.046   7.190  0.1721  0.1741  0.2102
 2047TIP3    H127700   4.249  -0.019   7.199 -1.0696 -1.3604 -0.8441
 2047TIP3    H227701   4.102   0.005   7.229 -0.4910  1.2716  0.0941
 2048TIP3   OH227702   0.418   6.606   7.265 -0.0945 -0.0971  0.3661
 2048TIP3    H127703   0.341   6.613   7.321 -0.5701  1.4907 -0.4101
 2048TIP3    H227704   0.484   6.563   7.319 -0.6064  1.1383  2.0529
 2049TIP3   OH227705   1.774   1.006   2.302  1.0036 -0.1549 -0.1426
 2049TIP3    H127706   1.802   1.085   2.348  2.1311 -0.4946 -0.2328
 2049TIP3    H227707   1.752   1.037   2.214 -1.3121  0.5235  0.5960
 2050TIP3   OH227708   2.791   4.368   0.093  0.8361  0.6044 -0.1021
 2050TIP3    H127709   2.868   4.318   0.066  0.6234  0.1866  0.0640
 2050TIP3    H227710   2.739   4.376   0.013 -0.0733 -1.1356  0.2906
 2051TIP3   OH227711   4.383   6.634   0.619 -0.2781  0.3784  0.6285
 2051TIP3    H127712   4.308   6.686   0.592 -0.1688 -0.3565 -1.2674
 2051TIP3    H227713   4.408   6.585   0.540  2.0120  0.3788  1.2685
 2052TIP3   OH227714   1.091   5.669   6.488 -0.0098 -0.2024  0.3029
 2052TIP3    H127715   1.169   5.704   6.447  0.6258 -1.5147  0.3309
 2052TIP3    H227716   1.051   5.614   6.421  1.1127 -2.4739  1.3837
 2053TIP3   OH227717   0.949   5.888   1.790 -0.6464  0.0736  0.0814
 2053TIP3    H127718   0.932   5.796   1.806 -1.1618  0.3830  1.4205
 2053TIP3    H227719   0.994   5.890   1.705 -1.6948 -1.2926 -0.5474
 2054TIP3   OH227720   3.880   4.534   0.493 -0.2787 -0.0442  0.2005
 2054TIP3    H127721   3.956   4.590   0.475 -0.5080  0.1145 -0.3033
 2054TIP3    H227722   3.806   4.582   0.455 -0.6987  0.0098  1.0685
 2055TIP3   OH227723   5.952   3.943   6.903 -0.3430  0.8936  0.0462
 2055TIP3    H127724   5.925   4.014   6.844  0.6965  0.8767 -0.4777
 2055TIP3    H227725   5.980   3.873   6.844  3.2606  1.8122  0.4195
 2056TIP3   OH227726   1.409   4.163   7.706 -0.7570  0.2161 -0.1658
 2056TIP3    H127727   1.504   4.175   7.708 -0.9457  1.8539  0.4379
 2056TIP3    H227728   1.376   4.244   7.667 -1.9439 -0.0290  0.2968
 2057TIP3   OH227729   0.154   0.378   7.291 -0.1756 -0.4200 -0.1662
 2057TIP3    H127730   0.159   0.453   7.231 -1.9919 -0.0381  0.1124
 2057TIP3    H227731   0.243   0.371   7.327  0.4331  0.6048 -1.3639
 2058TIP3   OH227732   4.644   4.210   2.031 -0.0225  0.0855  0.3329
 2058TIP3    H127733   4.645   4.155   1.953 -2.6913  1.7737 -1.0449
 2058TIP3    H227734   4.662   4.298   1.999 -0.7517  0.7609  1.6724
 2059TIP3   OH227735   0.266   5.833   6.096 -0.1453 -0.6391  0.2185
 2059TIP3    H127736   0.334   5.822   6.162 -0.1693 -0.8858  0.2011
 2059TIP3    H227737   0.238   5.744   6.075  0.7482 -0.6544 -1.0516
 2060TIP3   OH227738   1.587   1.435   0.563  0.0253  0.1322  0.0350
 2060TIP3    H127739   1.565   1.491   0.637 -0.2414 -1.6832  1.4119
 2060TIP3    H227740   1.554   1.481   0.487 -0.9403  1.4249  1.1964
 2061TIP3   OH227741   5.816   4.906   7.965 -0.3470 -0.3876 -0.2499
 2061TIP3    H127742   5.727   4.938   7.953 -0.3317 -0.8634 -1.8910
 2061TIP3    H227743   5.862   4.931   7.885  1.2877  0.6982  0.9660
 2062TIP3   OH227744   5.517   5.283   0.045 -0.8745  0.0865  0.1203
 2062TIP3    H127745   5.455   5.319  -0.019 -2.6457 -1.2380  0.9946
 2062TIP3    H227746   5.467   5.278   0.127  1.0214  0.8097  1.3910
 2063TIP3   OH227747   5.947   0.060   1.574  0.1310 -0.0146  0.3200
 2063TIP3    H127748   5.918   0.007   1.648  0.5303  0.0809  0.5497
 2063TIP3    H227749   5.974  -0.004   1.508  2.8696 -0.1861  1.4602
 2064TIP3   OH227750   1.360   2.963   7.583  0.2686 -0.4317  0.1378
 2064TIP3    H127751   1.298   2.898   7.549  1.4075 -0.5790 -1.8296
 2064TIP3    H227752   1.446   2.924   7.566  1.0242  1.7998 -1.7550
 2065TIP3   OH227753   3.778   5.670   7.405 -0.0792  0.1903  0.4722
 2065TIP3    H127754   3.796   5.721   7.326 -0.7695 -0.0534  0.1479
 2065TIP3    H227755   3.685   5.646   7.397 -0.0847 -0.0637  1.2264
 2066TIP3   OH227756   5.521   1.860   1.428  0.6066 -0.3428  0.0922
 2066TIP3    H127757   5.507   1.775   1.387  1.6006 -0.2999 -0.3691
 2066TIP3    H227758   5.439   1.908   1.413  0.5722 -0.7021 -0.9304
 2067TIP3   OH227759   6.228   1.257   1.453 -0.1777 -0.0549  0.1646
 2067TIP3    H127760   6.238   1.197   1.379  1.6715  1.6318 -1.0706
 2067TIP3    H227761   6.148   1.305   1.435 -2.0156 -2.4109  1.4720
 2068TIP3   OH227762   1.693   4.509   0.832 -0.0156 -0.1313  0.3171
 2068TIP3    H127763   1.634   4.499   0.757 -0.3416 -0.1715  0.5761
 2068TIP3    H227764   1.671   4.595   0.868 -0.8595 -0.7001  1.2135
 2069TIP3   OH227765   4.479   0.349   6.361 -0.0974 -0.2357  0.0221
 2069TIP3    H127766   4.534   0.291   6.414  0.5831 -0.0317 -0.4482
 2069TIP3    H227767   4.541   0.401   6.310 -0.6691  1.4069  0.9486
 2070TIP3   OH227768   1.350   3.437   0.993  0.3717  0.0660 -0.1565
 2070TIP3    H127769   1.402   3.513   0.968  0.8007 -0.3859 -0.6555
 2070TIP3    H227770   1.393   3.363   0.951 -0.6614 -0.3262 -0.5768
 2071TIP3   OH227771   6.652   4.068   0.748 -0.2827  0.2346 -0.5984
 2071TIP3    H127772   6.667   3.976   0.729  1.4242  0.6338 -1.4021
 2071TIP3    H227773   6.558   4.074   0.767 -0.2733 -1.7973  0.3850
 2072TIP3   OH227774   5.184   4.679   1.014  0.6053 -0.0557  0.2584
 2072TIP3    H127775   5.161   4.768   1.040 -1.4888 -0.7152  0.8303
 2072TIP3    H227776   5.247   4.691   0.943  0.0854  1.8878  0.0622
 2073TIP3   OH227777   1.426   5.359   7.275  0.0352 -0.4713  0.2722
 2073TIP3    H127778   1.394   5.440   7.237  0.8977 -0.9778 -1.6471
 2073TIP3    H227779   1.389   5.358   7.364 -1.2896  1.2220 -0.2013
 2074TIP3   OH227780   4.412   1.869   7.852  0.0805  0.4779  0.5348
 2074TIP3    H127781   4.429   1.853   7.759  0.1810  0.3638  0.5734
 2074TIP3    H227782   4.478   1.934   7.877  0.2224  0.3102  0.5932
 2075TIP3   OH227783   4.395   1.844   8.642  0.4331 -0.2935 -0.3618
 2075TIP3    H127784   4.426   1.773   8.700 -1.2900  0.0180  1.0101
 2075TIP3    H227785   4.476   1.887   8.613  1.3999 -0.9981  1.1369
 2076TIP3   OH227786   4.338   5.077   1.099 -0.1800  0.0390 -0.3293
 2076TIP3    H127787   4.336   5.000   1.041 -2.2791 -0.6888  0.5787
 2076TIP3    H227788   4.346   5.040   1.187 -2.3418  0.6882  0.2184
 2077TIP3   OH227789   4.171   6.167   8.171  0.0889 -0.3646 -0.4204
 2077TIP3    H127790   4.099   6.106   8.154  1.6908 -3.8072  3.5620
 2077TIP3    H227791   4.131   6.236   8.224 -0.7405 -1.0046 -0.1795
 2078TIP3   OH227792   0.154   5.250   0.632  0.0236  0.1681  0.2081
 2078TIP3    H127793   0.201   5.308   0.572  0.1348 -0.5860 -0.4518
 2078TIP3    H227794   0.222   5.214   0.688  0.1524 -0.4085 -0.3101
 2079TIP3   OH227795   2.823   3.241   0.350 -0.1062 -0.0926 -0.5664
 2079TIP3    H127796   2.813   3.151   0.382 -0.0836 -0.0718 -0.5009
 2079TIP3    H227797   2.911   3.267   0.376  0.4290 -0.5622 -1.8698
 2080TIP3   OH227798   4.154   5.183   7.566  0.0225  0.2040  0.4939
 2080TIP3    H127799   4.196   5.117   7.511  0.0261  0.6655 -0.0700
 2080TIP3    H227800   4.115   5.133   7.638 -1.3064 -0.6064 -0.7293
 2081TIP3   OH227801   1.653   1.843   8.172  0.7460 -0.5430  0.0308
 2081TIP3    H127802   1.689   1.909   8.113  2.0255 -0.1762  1.1660
 2081TIP3    H227803   1.642   1.890   8.255 -1.2811 -0.9641  0.0433
 2082TIP3   OH227804   0.185   0.405   0.871 -0.0782  0.1421 -0.4752
 2082TIP3    H127805   0.139   0.350   0.933  1.7669 -1.0007 -0.0410
 2082TIP3    H227806   0.188   0.354   0.790  0.6941  0.0401 -0.3941
 2083TIP3   OH227807   2.623   3.367   1.424  0.3718  0.3842 -0.7677
 2083TIP3    H127808   2.549   3.369   1.484  0.3767  0.3011 -0.7590
 2083TIP3    H227809   2.584   3.383   1.338  0.5540  2.1390 -0.5684
 2084TIP3   OH227810   1.505   0.453   7.997  0.2757  0.1571  0.7820
 2084TIP3    H127811   1.504   0.411   7.911  0.6919 -0.6162  1.1513
 2084TIP3    H227812   1.560   0.530   7.985  3.6974 -1.9987  1.2596
 2085TIP3   OH227813   4.136   4.917   1.485 -0.1315 -0.6004 -0.3921
 2085TIP3    H127814   4.065   4.903   1.422  1.0255 -0.4206 -1.7619
 2085TIP3    H227815   4.152   4.830   1.523 -0.8324 -0.7051 -0.3223
 2086TIP3   OH227816   5.761   2.756   1.073  0.7162  0.1031  0.3244
 2086TIP3    H127817   5.667   2.769   1.062  0.5147  0.1434  1.9273
 2086TIP3    H227818   5.770   2.665   1.099  1.2272 -0.1819 -0.7997
 2087TIP3   OH227819   4.319   4.316   1.316 -0.1761 -0.4092 -0.7240
 2087TIP3    H127820   4.263   4.367   1.258 -0.3278  0.1484 -0.1038
 2087TIP3    H227821   4.407   4.353   1.304 -0.0230 -0.9769 -1.3558
 2088TIP3   OH227822   6.203   4.335   7.893 -0.0682  0.6343  0.0995
 2088TIP3    H127823   6.197   4.415   7.840  1.6582 -1.6926 -4.1314
 2088TIP3    H227824   6.138   4.276   7.855 -0.0527 -0.6039  1.8687
 2089TIP3   OH227825   4.617   6.414   0.888  0.4178  0.5365 -0.4503
 2089TIP3    H127826   4.637   6.418   0.795  1.1726  1.2643 -0.2664
 2089TIP3    H227827   4.629   6.323   0.912 -1.0415  0.0765 -1.3229
 2090TIP3   OH227828   1.235   4.962   6.851  0.1621 -0.2076 -0.3221
 2090TIP3    H127829   1.215   5.014   6.773  0.3808 -0.1799 -0.3596
 2090TIP3    H227830   1.326   4.935   6.839  0.2972  0.0636  0.0747
 2091TIP3   OH227831   2.979   3.693   1.006  0.1493 -0.2151  0.2188
 2091TIP3    H127832   3.054   3.751   0.993 -0.5195  0.3974 -1.0872
 2091TIP3    H227833   2.932   3.730   1.080 -0.1560  0.8142 -0.4749
 2092TIP3   OH227834   3.569   3.283   7.307  0.3537  0.3750 -0.1746
 2092TIP3    H127835   3.491   3.293   7.361  1.7087  0.2541  1.9237
 2092TIP3    H227836   3.633   3.239   7.364  1.5623 -0.6731 -2.2137
 2093TIP3   OH227837   1.557   5.871   8.040 -0.3865  0.1843  0.2457
 2093TIP3    H127838   1.598   5.792   8.005 -1.5354 -0.0958 -0.5304
 2093TIP3    H227839   1.599   5.884   8.125  0.0158 -1.1193  0.2727
 2094TIP3   OH227840   3.092   3.883   6.286 -0.4956 -0.2318  0.0643
 2094TIP3    H127841   3.186   3.871   6.278 -0.3462  0.4435  0.7287
 2094TIP3    H227842   3.081   3.975   6.308 -1.1897 -0.6971  1.8588
 2095TIP3   OH227843   4.239   4.852   2.557  0.3305  0.2990 -0.6224
 2095TIP3    H127844   4.276   4.825   2.641  1.2744 -0.5190 -1.2726
 2095TIP3    H227845   4.304   4.824   2.492 -0.2766  1.0958 -1.6158
 2096TIP3   OH227846   1.178   1.780   6.196  0.0601  0.0166  0.1508
 2096TIP3    H127847   1.238   1.770   6.270  2.4984  1.9572 -1.4223
 2096TIP3    H227848   1.121   1.852   6.221  0.8947  0.6886  0.1555
 2097TIP3   OH227849   0.779   1.041   1.828  0.0776 -0.5589  0.0825
 2097TIP3    H127850   0.789   1.101   1.754 -1.8984 -0.5044 -0.1922
 2097TIP3    H227851   0.835   1.078   1.896  0.7579  0.2330 -0.8732
 2098TIP3   OH227852   5.472   3.231   1.249 -0.1140 -0.3134 -0.8270
 2098TIP3    H127853   5.424   3.171   1.192 -2.8644  0.0645  0.9024
 2098TIP3    H227854   5.404   3.282   1.293  1.7243 -1.0327  3.2888
 2099TIP3   OH227855   5.251   1.835   2.004  0.0680  0.2273 -0.8926
 2099TIP3    H127856   5.157   1.821   2.016 -0.1910 -0.5010 -3.1424
 2099TIP3    H227857   5.293   1.780   2.070 -1.0935 -1.0958 -1.2253
 2100TIP3   OH227858   0.297   3.108   0.718 -0.1616 -0.2277 -0.1454
 2100TIP3    H127859   0.246   3.135   0.795  0.3831  0.3479  0.0221
 2100TIP3    H227860   0.384   3.146   0.732  0.7714 -2.3803  0.2757
 2101TIP3   OH227861   5.387   1.020   1.543 -0.2901  0.0464 -0.4513
 2101TIP3    H127862   5.343   0.939   1.520 -0.6373 -0.0567  0.5314
 2101TIP3    H227863   5.457   0.993   1.604 -1.2745  0.5947  0.9890
 2102TIP3   OH227864   2.997   1.064   7.731  0.8765  0.1011  0.7732
 2102TIP3    H127865   2.991   1.039   7.639 -1.3235  0.0935  0.8881
 2102TIP3    H227866   2.942   1.001   7.777  1.7001  0.2975  2.0889
 2103TIP3   OH227867   2.402   5.242   6.137  0.1254  0.3794 -0.1659
 2103TIP3    H127868   2.389   5.317   6.078  0.3713 -0.3562 -1.1773
 2103TIP3    H227869   2.494   5.249   6.162  1.0770 -1.2955 -2.7681
 2104TIP3   OH227870   6.202   5.249   0.309 -0.1649 -0.4329  0.1593
 2104TIP3    H127871   6.134   5.310   0.281  0.7176  0.0556 -0.9709
 2104TIP3    H227872   6.199   5.178   0.246 -0.0034 -0.6975  0.4453
 2105TIP3   OH227873   6.285   0.393   6.048 -0.1108  0.2688 -0.0007
 2105TIP3    H127874   6.282   0.323   5.983  1.0588 -0.0894  0.2991
 2105TIP3    H227875   6.379   0.405   6.066 -0.4119  0.3435  1.6272
 2106TIP3   OH227876   2.295   5.571   0.565  0.1702 -0.3034  0.3135
 2106TIP3    H127877   2.383   5.606   0.556  0.3516 -1.1217 -1.4416
 2106TIP3    H227878   2.307   5.486   0.608  0.2497 -0.4693 -0.0364
 2107TIP3   OH227879   1.365   3.236   7.207  0.8008 -0.5986  0.0145
 2107TIP3    H127880   1.441   3.254   7.262 -0.3498 -0.0497  1.4867
 2107TIP3    H227881   1.384   3.280   7.125  1.3545  0.9588  0.9391
 2108TIP3   OH227882   1.814   3.980   7.940 -0.0549 -0.1054  0.0693
 2108TIP3    H127883   1.797   3.897   7.984 -0.4382  0.0351  0.1867
 2108TIP3    H227884   1.755   4.042   7.982  1.2196  0.5504  0.9492
 2109TIP3   OH227885   0.466   2.594   1.118 -0.3007  0.2425 -0.0285
 2109TIP3    H127886   0.535   2.650   1.082 -0.2435  1.7323  2.2351
 2109TIP3    H227887   0.512   2.532   1.175 -0.6972  0.2729  0.3305
 2110TIP3   OH227888   0.836   6.222   1.787  0.6927 -0.2260 -0.0658
 2110TIP3    H127889   0.900   6.247   1.721 -0.6575  2.1788 -0.5817
 2110TIP3    H227890   0.818   6.304   1.835 -1.2023 -1.0590  0.7300
 2111TIP3   OH227891   1.712   3.207   0.718  0.8924 -0.3707  0.1636
 2111TIP3    H127892   1.706   3.289   0.669 -0.8159 -0.5292  0.0443
 2111TIP3    H227893   1.761   3.148   0.661 -0.3673 -0.3056 -1.0547
 2112TIP3   OH227894   6.617   5.330   0.192 -0.1067  0.4745 -0.3008
 2112TIP3    H127895   6.710   5.329   0.167 -0.3958  1.7493 -1.6014
 2112TIP3    H227896   6.599   5.241   0.220  1.4027  0.0843 -0.4712
 2113TIP3   OH227897   2.015   0.720   6.395 -0.0549 -0.0933  0.0451
 2113TIP3    H127898   2.077   0.776   6.442 -1.1621  0.0707  1.3983
 2113TIP3    H227899   2.027   0.741   6.303  3.2914 -1.5047  0.0306
 2114TIP3   OH227900   6.090   1.981   8.165 -0.1742 -0.1363  0.1176
 2114TIP3    H127901   6.100   2.040   8.239  0.3321 -1.0550  0.8023
 2114TIP3    H227902   6.052   2.035   8.096  1.7831  1.4133  0.1742
 2115TIP3   OH227903   5.514   1.789   8.031  0.1539 -0.1947  0.3385
 2115TIP3    H127904   5.443   1.791   8.095 -0.3868 -2.6453 -0.0838
 2115TIP3    H227905   5.583   1.843   8.071 -1.5323  1.4267  1.2049
 2116TIP3   OH227906   6.370   5.937   1.224  0.3691 -0.4922  0.0873
 2116TIP3    H127907   6.313   5.949   1.148 -0.7444 -1.4056  0.7538
 2116TIP3    H227908   6.450   5.898   1.188 -0.9359 -2.9356 -0.4037
 2117TIP3   OH227909   0.757   0.039   7.403  0.4327 -0.1608  0.0172
 2117TIP3    H127910   0.813   0.117   7.405  0.1133  0.0744 -0.0408
 2117TIP3    H227911   0.671   0.071   7.430  0.1419 -0.3539 -0.6621
 2118TIP3   OH227912   4.269   5.422   1.458  0.0631  0.4322 -0.4379
 2118TIP3    H127913   4.358   5.389   1.449  0.5931  0.9187  2.2210
 2118TIP3    H227914   4.219   5.346   1.488 -0.2821  0.3511 -1.1883
 2119TIP3   OH227915   4.171   0.633   6.287  0.7436  0.0966  0.0713
 2119TIP3    H127916   4.194   0.669   6.201 -1.2489  0.7486 -0.2577
 2119TIP3    H227917   4.079   0.608   6.278  1.2742 -2.5970  1.1512
 2120TIP3   OH227918   4.744   3.080   0.631  0.5564 -0.2341 -0.3414
 2120TIP3    H127919   4.727   3.080   0.725  0.0190  0.7523 -0.4239
 2120TIP3    H227920   4.771   2.990   0.611 -1.7844 -1.1607  0.3121
 2121TIP3   OH227921   0.865   5.334   0.067 -0.1610 -0.2955  0.1982
 2121TIP3    H127922   0.898   5.387  -0.005 -0.0615 -0.5715  0.0375
 2121TIP3    H227923   0.915   5.364   0.144 -0.7427  0.4557  0.2835
 2122TIP3   OH227924   5.300   0.598   1.184 -0.1886 -0.0626 -0.5636
 2122TIP3    H127925   5.228   0.609   1.123 -0.4459 -0.0396 -0.2594
 2122TIP3    H227926   5.364   0.665   1.159 -0.2882 -0.0587 -0.8080
 2123TIP3   OH227927   1.059   1.865   7.442  0.0591 -0.4153  0.1878
 2123TIP3    H127928   1.049   1.878   7.537 -0.4881 -0.2983  0.1201
 2123TIP3    H227929   1.044   1.771   7.430  1.1193 -0.6136  0.3305
 2124TIP3   OH227930   3.260   3.654   7.678  0.7826 -0.1087  0.4353
 2124TIP3    H127931   3.229   3.645   7.768  2.6751 -0.6751  1.0964
 2124TIP3    H227932   3.207   3.593   7.627 -0.8388  0.7842  0.9972
 2125TIP3   OH227933   5.964   0.460   7.751  0.1866  0.0234  0.3201
 2125TIP3    H127934   6.045   0.508   7.763  0.4573  0.0769 -1.4602
 2125TIP3    H227935   5.905   0.522   7.707 -0.9251  0.0735  1.8114
 2126TIP3   OH227936   2.147   1.247   0.880  0.6395  0.2586 -0.3270
 2126TIP3    H127937   2.115   1.263   0.968 -0.0608 -0.9590 -0.3403
 2126TIP3    H227938   2.242   1.251   0.888  0.5859 -0.0918  0.5335
 2127TIP3   OH227939   5.603   5.946   6.802 -0.1314 -0.0016 -0.6717
 2127TIP3    H127940   5.529   5.897   6.839  0.4145 -1.5546 -1.5456
 2127TIP3    H227941   5.607   6.026   6.854  0.4371 -1.9060  2.5029
 2128TIP3   OH227942   1.922   3.183   6.426  0.2837  0.5292 -0.5415
 2128TIP3    H127943   1.892   3.098   6.460  2.5515 -0.4244 -0.7107
 2128TIP3    H227944   1.869   3.198   6.348 -1.2337  0.0552  0.3701
 2129TIP3   OH227945   2.589   1.626   6.436  0.2470  0.6249 -0.6209
 2129TIP3    H127946   2.630   1.539   6.428 -0.2064  0.2029  1.1447
 2129TIP3    H227947   2.655   1.679   6.481 -0.1684  0.6790 -0.0758
 2130TIP3   OH227948   4.669   6.236   0.545 -0.3325 -0.7435  0.3185
 2130TIP3    H127949   4.632   6.155   0.581 -0.0548 -0.6728  0.7676
 2130TIP3    H227950   4.621   6.249   0.463 -2.1360 -0.0228  1.4325
 2131TIP3   OH227951   6.710   5.469   6.862  0.0947  0.0087  0.2600
 2131TIP3    H127952   6.786   5.436   6.815  0.3319  0.9910 -0.0584
 2131TIP3    H227953   6.635   5.438   6.811  0.2919 -0.3679  0.1941
 2132TIP3   OH227954   1.358   2.305   0.418 -0.2718 -0.1272  0.0047
 2132TIP3    H127955   1.358   2.235   0.354 -2.4068 -0.1209 -0.0740
 2132TIP3    H227956   1.266   2.327   0.430  0.1538  0.7849  2.0864
 2133TIP3   OH227957   3.648   5.906   7.235 -0.5591 -0.1019  0.1712
 2133TIP3    H127958   3.580   5.910   7.303 -1.1799  1.2196 -0.4726
 2133TIP3    H227959   3.599   5.916   7.153  0.4165  1.1655 -0.2871
 2134TIP3   OH227960   3.607   2.808   1.319 -0.4789  0.2878  0.5418
 2134TIP3    H127961   3.569   2.739   1.265  0.5395  0.3343 -0.2718
 2134TIP3    H227962   3.660   2.859   1.258  2.1738 -0.7179  1.8452
 2135TIP3   OH227963   4.988   4.662   0.784  0.1756 -0.2691 -0.4498
 2135TIP3    H127964   4.972   4.569   0.766  0.3453 -0.3302 -0.2801
 2135TIP3    H227965   5.074   4.679   0.746  0.4311 -0.3397  0.0981
 2136TIP3   OH227966   4.406   5.358   7.685  0.0716 -0.1523  0.0065
 2136TIP3    H127967   4.432   5.422   7.751 -0.0606  1.5391 -1.4742
 2136TIP3    H227968   4.389   5.278   7.733  1.3927  0.6023  1.8206
 2137TIP3   OH227969   4.722   3.976   0.546 -0.3698 -0.4033 -0.0059
 2137TIP3    H127970   4.686   3.889   0.557  0.4722 -0.8083 -0.3707
 2137TIP3    H227971   4.674   4.013   0.472 -1.4477 -0.1476  0.7847
 2138TIP3   OH227972   1.129   4.659   6.255 -0.1945 -0.1564 -0.1378
 2138TIP3    H127973   1.039   4.628   6.243 -0.5759  1.4459 -1.9044
 2138TIP3    H227974   1.169   4.651   6.168  0.5337  1.5536 -0.0018
 2139TIP3   OH227975   4.505   1.183   6.456  0.2790 -0.6141 -0.2236
 2139TIP3    H127976   4.444   1.110   6.456 -1.1209  0.5033 -0.5265
 2139TIP3    H227977   4.472   1.241   6.387 -1.1891  2.3042  2.6831
 2140TIP3   OH227978   0.436   4.749   8.629 -0.6400  0.0014  0.2662
 2140TIP3    H127979   0.438   4.824   8.689  1.3171  0.4839 -0.3370
 2140TIP3    H227980   0.422   4.787   8.542  0.1678 -0.3484 -0.0248
 2141TIP3   OH227981   5.817   1.084   7.890  0.6199  0.0364 -0.6370
 2141TIP3    H127982   5.749   1.151   7.894 -0.3758 -1.0160  0.4767
 2141TIP3    H227983   5.899   1.133   7.901  0.0052  1.2092 -1.0856
 2142TIP3   OH227984   0.011   4.571   7.014  0.1784 -0.2519  0.4503
 2142TIP3    H127985  -0.007   4.571   6.920  0.3327  1.3819  0.3827
 2142TIP3    H227986   0.090   4.625   7.023 -0.2978  0.2836  1.5838
 2143TIP3   OH227987   1.022   3.134   8.492 -0.1559 -0.0933 -0.0350
 2143TIP3    H127988   0.929   3.115   8.487 -0.4444  0.6149  1.8098
 2143TIP3    H227989   1.027   3.230   8.484 -0.2641  0.6464  5.3753
 2144TIP3   OH227990   5.788   2.462   0.477 -0.2045 -0.7149 -0.1097
 2144TIP3    H127991   5.773   2.377   0.519  0.8637 -0.7963  0.1154
 2144TIP3    H227992   5.733   2.460   0.399 -2.1993 -0.5849  1.2123
 2145TIP3   OH227993   4.400   4.750   8.338  0.1419 -0.8070 -0.3881
 2145TIP3    H127994   4.404   4.654   8.332 -0.0560 -0.7874 -0.8729
 2145TIP3    H227995   4.312   4.773   8.308  0.0127 -0.5053  0.2134
 2146TIP3   OH227996   0.026   3.497   8.484  0.3393  0.2046  0.0698
 2146TIP3    H127997   0.065   3.582   8.465 -0.4770  0.5885  0.0792
 2146TIP3    H227998   0.025   3.492   8.580 -3.8904  2.2938  0.3469
 2147TIP3   OH227999   5.833   3.240   1.055  0.6076  0.2790 -0.0956
 2147TIP3    H128000   5.830   3.295   1.133 -0.6423  0.5162 -0.2923
 2147TIP3    H228001   5.899   3.282   0.999 -0.9544  2.1812 -0.6368
 2148TIP3   OH228002   0.582   6.857   0.411  0.3192 -0.3935  0.1415
 2148TIP3    H128003   0.535   6.783   0.372  1.4878 -2.4692  2.3695
 2148TIP3    H228004   0.618   6.904   0.336 -1.3118 -1.4446 -1.4141
 2149TIP3   OH228005   1.934   5.690   0.894 -0.0484 -0.0575 -0.4139
 2149TIP3    H128006   1.861   5.728   0.942 -0.9491 -1.9760 -0.2087
 2149TIP3    H228007   2.012   5.726   0.936 -0.8467  0.2352  0.8444
 2150TIP3   OH228008   6.678   6.643   0.647  0.0786  0.4595 -1.0515
 2150TIP3    H128009   6.753   6.697   0.671 -0.5834  0.5049  1.2066
 2150TIP3    H228010   6.695   6.615   0.558  1.5143  2.5820 -1.5116
 2151TIP3   OH228011   2.545   2.033   0.159  0.0200  0.8916 -0.0152
 2151TIP3    H128012   2.548   2.035   0.254 -0.7272 -2.4895  0.2180
 2151TIP3    H228013   2.460   2.070   0.137 -0.6003  0.0056  0.8023
 2152TIP3   OH228014   2.811   1.933   6.320 -0.1195  0.5280  0.5765
 2152TIP3    H128015   2.763   1.897   6.395  0.5641  1.7030  1.6263
 2152TIP3    H228016   2.743   1.959   6.259 -0.9802  2.8904  2.3697
 2153TIP3   OH228017   0.067   1.551   0.582 -0.5505 -0.3712  0.1067
 2153TIP3    H128018   0.108   1.530   0.666  0.6710 -0.6489 -0.5255
 2153TIP3    H228019  -0.024   1.524   0.592 -0.0255 -2.0734  0.7710
 2154TIP3   OH228020   3.071   3.692   2.172  0.0008 -0.9569 -0.1004
 2154TIP3    H128021   3.140   3.699   2.238 -0.4476  3.2581  0.1421
 2154TIP3    H228022   2.990   3.685   2.223 -0.0771 -1.8879 -0.3318
 2155TIP3   OH228023   1.302   1.147   0.378 -0.3517 -0.2242  0.3268
 2155TIP3    H128024   1.356   1.186   0.447  0.4310  0.8832 -0.8604
 2155TIP3    H228025   1.291   1.056   0.405 -1.7803  0.6026  2.9160
 2156TIP3   OH228026   4.632   0.499   1.883 -0.1589  0.0163  0.0342
 2156TIP3    H128027   4.646   0.448   1.963  0.7042  1.1247  0.6308
 2156TIP3    H228028   4.677   0.582   1.900  1.1587 -0.1803 -2.0943
 2157TIP3   OH228029   5.568   5.739   1.126  0.0842 -0.2254 -0.1915
 2157TIP3    H128030   5.487   5.691   1.110 -0.0471  0.1584 -0.7127
 2157TIP3    H228031   5.637   5.683   1.091 -0.0638 -0.0619 -0.7484
 2158TIP3   OH228032   4.162   2.839   8.317  0.0157 -0.2008  0.0672
 2158TIP3    H128033   4.134   2.751   8.292  0.8288 -0.4701  0.0732
 2158TIP3    H228034   4.238   2.825   8.373 -0.8860  0.4350  1.5282
 2159TIP3   OH228035   1.810   1.244   0.479  0.2893 -0.1689  0.1766
 2159TIP3    H128036   1.839   1.167   0.528 -0.2382 -1.7724 -1.8835
 2159TIP3    H228037   1.726   1.268   0.519 -1.7807 -3.4319 -1.7760
 2160TIP3   OH228038   6.801   2.489   0.789  0.1900 -0.5843 -0.1623
 2160TIP3    H128039   6.859   2.562   0.809  0.2091 -0.7125  0.2721
 2160TIP3    H228040   6.852   2.411   0.812 -1.0152 -0.6503  2.6924
 2161TIP3   OH228041   2.901   0.875   1.475 -0.0274  0.0835 -0.1473
 2161TIP3    H128042   2.829   0.845   1.419 -0.2067  0.0481  0.0974
 2161TIP3    H228043   2.980   0.852   1.427 -0.1831  0.9657 -0.8536
 2162TIP3   OH228044   4.807   3.321   8.280 -0.1718  0.3716 -0.3734
 2162TIP3    H128045   4.734   3.337   8.220 -0.0051 -0.6334 -0.8671
 2162TIP3    H228046   4.818   3.226   8.280  1.4137  0.5229 -0.6418
 2163TIP3   OH228047   6.717   4.339   0.349 -0.5687 -0.5544 -0.0596
 2163TIP3    H128048   6.629   4.356   0.382 -0.3533 -0.7504  0.6440
 2163TIP3    H228049   6.752   4.272   0.408 -0.2582 -1.0984 -0.8505
 2164TIP3   OH228050   1.687   6.354   8.109  0.7805  0.2999 -0.2662
 2164TIP3    H128051   1.671   6.359   8.203  0.3310  0.8427 -0.3696
 2164TIP3    H228052   1.636   6.278   8.079  1.7710 -0.5434  0.0882
 2165TIP3   OH228053   1.891   1.692   1.414  0.4407 -0.2698 -0.2635
 2165TIP3    H128054   1.949   1.767   1.426 -0.0889  0.3946 -1.6103
 2165TIP3    H228055   1.935   1.638   1.349 -0.1886 -0.0102 -0.9230
 2166TIP3   OH228056   4.263   1.932   0.235  0.1071 -0.0750 -0.1590
 2166TIP3    H128057   4.302   1.894   0.156 -2.0994 -0.8639 -0.9470
 2166TIP3    H228058   4.169   1.934   0.217 -0.1530  3.6228  0.8172
 2167TIP3   OH228059   0.836   3.263   1.354 -0.3008 -0.0131 -0.4168
 2167TIP3    H128060   0.786   3.211   1.416 -1.4104 -0.3040 -1.5078
 2167TIP3    H228061   0.918   3.215   1.343  0.1745  0.3675  1.2545
 2168TIP3   OH228062   0.811   0.729   7.324 -0.2786  0.2732  0.3780
 2168TIP3    H128063   0.855   0.653   7.361  0.0807 -0.2159 -1.0083
 2168TIP3    H228064   0.783   0.701   7.237  0.7796  2.0427 -0.5847
 2169TIP3   OH228065   0.915   5.567   7.436  0.9190  0.4644  0.1158
 2169TIP3    H128066   0.917   5.663   7.429  2.8555  0.7767  3.2044
 2169TIP3    H228067   0.915   5.550   7.530 -0.5070 -2.6268 -0.3199
 2170TIP3   OH228068   5.714   0.429   6.757  0.1281 -0.3641 -0.0698
 2170TIP3    H128069   5.793   0.389   6.721 -0.7114 -1.9734 -0.2343
 2170TIP3    H228070   5.666   0.463   6.681 -0.2490 -1.1449 -0.1942
 2171TIP3   OH228071   5.166   5.884   1.124  0.1682 -0.2491  0.2592
 2171TIP3    H128072   5.076   5.880   1.092  1.0348 -0.7026 -2.3329
 2171TIP3    H228073   5.186   5.795   1.153  0.5328 -0.7466 -1.4628
 2172TIP3   OH228074   2.260   1.549   8.479  0.0887  0.0349 -0.5512
 2172TIP3    H128075   2.280   1.622   8.420  1.2731  1.7429  1.7729
 2172TIP3    H228076   2.168   1.530   8.464 -1.0716  3.8546  0.5055
 2173TIP3   OH228077   3.435   4.123   1.519  0.2321 -0.2324  0.6351
 2173TIP3    H128078   3.443   4.190   1.451  0.1054  0.5442  1.3636
 2173TIP3    H228079   3.415   4.042   1.471  0.9224  0.1312 -0.2985
 2174TIP3   OH228080   3.458   4.657   8.090 -0.2666 -0.1950 -0.6123
 2174TIP3    H128081   3.549   4.627   8.090 -0.1613  0.0050 -2.8407
 2174TIP3    H228082   3.412   4.593   8.036 -1.9314 -1.4475  2.0859
 2175TIP3   OH228083   6.110   5.545   1.066  0.2265 -0.2016  0.2357
 2175TIP3    H128084   6.015   5.535   1.066  0.1773  0.2699  0.4433
 2175TIP3    H228085   6.142   5.466   1.111 -0.0145 -0.7924 -0.5986
 2176TIP3   OH228086   1.688   4.269   1.004 -0.0643 -0.0692 -0.3262
 2176TIP3    H128087   1.701   4.337   0.938  1.4148 -0.4386 -0.4424
 2176TIP3    H228088   1.776   4.248   1.035 -0.5519 -1.4306  0.2139
 2177TIP3   OH228089   5.871   6.069   0.934 -0.0356 -0.4459 -0.6763
 2177TIP3    H128090   5.919   5.987   0.934  0.5798 -0.0907 -0.4181
 2177TIP3    H228091   5.798   6.055   0.995  1.3577 -0.0729  1.1502
 2178TIP3   OH228092   4.823   6.328   0.263  0.1176 -0.0729  0.5228
 2178TIP3    H128093   4.857   6.403   0.213  0.1798  1.2184  2.4209
 2178TIP3    H228094   4.875   6.253   0.233  2.0197  1.1564  0.6132
 2179TIP3   OH228095   1.951   3.571   0.628 -0.6653  0.3504  0.0721
 2179TIP3    H128096   1.949   3.662   0.600 -1.8003 -0.2708 -2.0938
 2179TIP3    H228097   2.041   3.543   0.612 -0.2584  1.1163  0.9350
 2180TIP3   OH228098   1.266   5.988   6.447 -0.6533 -0.4421  0.2101
 2180TIP3    H128099   1.182   6.017   6.482 -0.2600  2.3224 -0.8561
 2180TIP3    H228100   1.331   6.025   6.506 -0.1121 -2.1228  0.7365
 2181TIP3   OH228101   0.848   6.185   8.284  0.4812 -0.1370  0.0053
 2181TIP3    H128102   0.767   6.166   8.331  0.0140  0.4374 -0.5512
 2181TIP3    H228103   0.916   6.140   8.335 -0.1249 -0.2840  0.7113
 2182TIP3   OH228104   5.188   1.714   1.127 -0.3987  0.6725  0.1381
 2182TIP3    H128105   5.184   1.701   1.222 -0.0785 -0.0675  0.0558
 2182TIP3    H228106   5.108   1.762   1.106 -2.2315 -2.0767  0.3393
 2183TIP3   OH228107   0.614   6.543   6.775 -0.7339  0.0802  0.8580
 2183TIP3    H128108   0.564   6.506   6.703 -1.3613 -0.6054  1.6211
 2183TIP3    H228109   0.552   6.547   6.848 -0.2890  1.3443  1.2013
 2184TIP3   OH228110   3.126   6.823   0.796  0.5489 -0.1690 -0.1606
 2184TIP3    H128111   3.190   6.760   0.829  0.8703 -0.3572 -1.1114
 2184TIP3    H228112   3.143   6.828   0.702 -0.5270  0.1377 -0.3556
 2185TIP3   OH228113   6.725   6.689   1.299 -0.0719  0.1489 -0.4817
 2185TIP3    H128114   6.671   6.702   1.221  0.2061  2.4135 -0.3535
 2185TIP3    H228115   6.668   6.641   1.359 -1.3939  1.0733 -0.9517
 2186TIP3   OH228116   2.904   1.194   8.458 -0.8274  0.2700 -0.0977
 2186TIP3    H128117   2.857   1.114   8.432 -0.2246  0.3489 -1.4822
 2186TIP3    H228118   2.835   1.260   8.469 -1.1564  0.0641 -0.8858
 2187TIP3   OH228119   4.981   4.254   8.491 -0.0670 -0.6436 -0.1630
 2187TIP3    H128120   5.037   4.297   8.556 -0.7373  1.3465 -0.8368
 2187TIP3    H228121   4.893   4.284   8.511 -0.5928 -1.8417 -0.5932
 2188TIP3   OH228122   5.536   6.280   0.788 -0.7087 -0.6513  0.3482
 2188TIP3    H128123   5.533   6.253   0.696  0.2642  0.1816  0.0541
 2188TIP3    H228124   5.447   6.266   0.820 -1.4623  0.4971 -1.1450
 2189TIP3   OH228125   4.294   1.066   7.853  0.1126  0.3396 -0.3364
 2189TIP3    H128126   4.249   1.009   7.791 -0.5473  1.4730 -0.9405
 2189TIP3    H228127   4.367   1.103   7.803  2.1747 -1.9057  0.7827
 2190TIP3   OH228128   4.191   3.812   1.474  0.1952 -0.0647 -0.0178
 2190TIP3    H128129   4.175   3.743   1.409  0.4495 -0.6440  0.5228
 2190TIP3    H228130   4.197   3.765   1.557 -0.3777  0.6962  0.4631
 2191TIP3   OH228131   0.601   1.373   1.149 -0.1354  0.1488  0.3115
 2191TIP3    H128132   0.517   1.412   1.173 -0.4193  0.4863 -1.1204
 2191TIP3    H228133   0.612   1.396   1.056  1.2181 -0.4665  0.2998
 2192TIP3   OH228134   5.938   2.627   1.653 -0.6494  0.0910  0.1909
 2192TIP3    H128135   5.924   2.577   1.572 -1.4770  0.8485 -0.1438
 2192TIP3    H228136   5.853   2.626   1.697 -0.4649  0.5410  0.5622
 2193TIP3   OH228137   2.807   3.735   1.208  0.0121  0.0879  0.1393
 2193TIP3    H128138   2.776   3.825   1.201  3.9578  1.5630 -1.3637
 2193TIP3    H228139   2.845   3.729   1.296  0.3239  0.1597  0.0140
 2194TIP3   OH228140   1.859   5.684   1.679  0.2935  0.5449 -0.1057
 2194TIP3    H128141   1.823   5.768   1.708  1.5461  1.1684 -0.2793
 2194TIP3    H228142   1.904   5.649   1.756  0.8775  0.6733 -0.3770
 2195TIP3   OH228143   2.561   3.934   8.050 -0.0537 -0.0217  0.3739
 2195TIP3    H128144   2.605   3.864   8.001  0.7644 -0.4448  1.6756
 2195TIP3    H228145   2.502   3.889   8.109 -0.0415  0.4178  0.7256
 2196TIP3   OH228146   0.873   1.513   7.190 -0.1847  0.6668  0.3044
 2196TIP3    H128147   0.964   1.540   7.179 -0.4885  2.4205  1.7073
 2196TIP3    H228148   0.875   1.454   7.265 -0.0147 -0.5540 -0.6319
 2197TIP3   OH228149   1.882   5.529   7.043  0.4054 -0.6814  0.3031
 2197TIP3    H128150   1.796   5.511   7.004  1.4406 -2.6440 -1.2474
 2197TIP3    H228151   1.868   5.608   7.095 -2.3549 -0.9891  0.1898
 2198TIP3   OH228152   3.991   5.793   7.587 -0.4869 -0.2728 -0.7218
 2198TIP3    H128153   3.933   5.721   7.562 -0.9959  0.0514 -0.4820
 2198TIP3    H228154   4.077   5.752   7.596 -0.9568 -1.0579  0.3920
 2199TIP3   OH228155   0.360   0.566   1.019  0.1504 -1.0202  0.3960
 2199TIP3    H128156   0.447   0.526   1.026 -0.3097 -2.1555 -0.0574
 2199TIP3    H228157   0.317   0.517   0.948 -1.5031 -1.7521  1.8214
 2200TIP3   OH228158   6.530   2.366   0.713 -0.5274 -0.3467 -0.3842
 2200TIP3    H128159   6.616   2.335   0.742 -0.5813  1.5468  2.1702
 2200TIP3    H228160   6.540   2.461   0.705 -3.2410  0.5852  4.0325
 2201TIP3   OH228161   4.919   6.741   7.751 -0.5303  0.7955  0.0268
 2201TIP3    H128162   4.950   6.701   7.833  0.3656  0.8779 -0.2578
 2201TIP3    H228163   4.848   6.799   7.778 -1.3949 -0.4742  0.5255
 2202TIP3   OH228164   5.453   0.279   7.513 -0.4702 -0.2216  0.4626
 2202TIP3    H128165   5.515   0.214   7.479  1.0251  0.2941  2.0681
 2202TIP3    H228166   5.372   0.230   7.526  0.5281 -1.7156  1.3230
 2203TIP3   OH228167   1.078   1.363   6.973  0.3982 -0.2069 -0.2090
 2203TIP3    H128168   1.116   1.308   7.042 -1.1688  0.9546  1.7180
 2203TIP3    H228169   1.088   1.452   7.005 -1.6215  0.2845 -0.7786
 2204TIP3   OH228170   3.279   6.651   7.415 -0.5251  0.2356  0.0988
 2204TIP3    H128171   3.190   6.614   7.412 -0.4349  0.0864 -1.8629
 2204TIP3    H228172   3.265   6.743   7.434 -1.1653  0.3425 -0.8079
 2205TIP3   OH228173   0.221   5.971   1.400 -0.0526 -0.4215 -0.0396
 2205TIP3    H128174   0.239   5.980   1.493  2.0390  4.1584 -0.6086
 2205TIP3    H228175   0.159   6.041   1.381  0.5668 -0.4101 -2.2708
 2206TIP3   OH228176   3.689   4.517   2.392  0.6109 -0.3983  0.1795
 2206TIP3    H128177   3.724   4.604   2.414  2.0024 -0.6325 -0.9122
 2206TIP3    H228178   3.748   4.485   2.323 -0.9452 -1.4628 -0.7104
 2207TIP3   OH228179   6.438   3.152   8.533 -0.3593 -0.2844  0.0766
 2207TIP3    H128180   6.373   3.220   8.517 -0.1906 -0.3677 -1.0022
 2207TIP3    H228181   6.457   3.116   8.447 -0.0221 -1.3153  0.5678
 2208TIP3   OH228182   6.711   0.784   7.717 -0.1915 -0.2801 -0.3055
 2208TIP3    H128183   6.629   0.817   7.682  0.6933  1.1344 -1.1738
 2208TIP3    H228184   6.770   0.783   7.641  0.5518 -1.4006  0.2705
 2209TIP3   OH228185   1.559   0.289   1.127  0.2442 -0.3257 -0.4178
 2209TIP3    H128186   1.595   0.206   1.095  2.2818 -0.0438  0.9494
 2209TIP3    H228187   1.636   0.341   1.151 -0.9830  1.9476 -1.1268
 2210TIP3   OH228188   5.055   5.574   1.958 -0.4042 -0.9146 -0.7250
 2210TIP3    H128189   5.141   5.581   1.999 -0.2750  1.7575 -1.2447
 2210TIP3    H228190   5.010   5.506   2.008  0.3469  0.8956  2.7759
 2211TIP3   OH228191   0.176   0.068   7.606  0.3354  0.0135 -0.1659
 2211TIP3    H128192   0.212   0.046   7.692  1.4757 -0.3029 -0.6956
 2211TIP3    H228193   0.247   0.116   7.562 -0.3462  0.4554 -0.8112
 2212TIP3   OH228194   0.387   1.767   0.696  0.1220 -0.3529  0.1759
 2212TIP3    H128195   0.367   1.851   0.653 -0.7425 -0.3035  0.6536
 2212TIP3    H228196   0.355   1.701   0.635  0.5959 -0.3361 -0.0970
 2213TIP3   OH228197   0.288   6.568   0.924  0.2555  0.8411 -0.0109
 2213TIP3    H128198   0.281   6.472   0.916  1.1460  0.7386  0.3356
 2213TIP3    H228199   0.303   6.583   1.018 -0.4038  1.3582  0.0156
 2214TIP3   OH228200   1.820   3.814   6.977  0.0527  0.7415  0.7044
 2214TIP3    H128201   1.907   3.774   6.974 -0.3934 -0.1946 -0.9065
 2214TIP3    H228202   1.786   3.793   7.064  1.7521  1.8977  1.7159
 2215TIP3   OH228203   0.582   4.537   7.703  0.3653  0.4359  0.3644
 2215TIP3    H128204   0.665   4.585   7.703 -0.7828  2.5223  1.2957
 2215TIP3    H228205   0.561   4.526   7.795 -0.9348  0.9362  0.1449
 2216TIP3   OH228206   0.588   3.536   1.661  0.5831  0.3434 -0.2425
 2216TIP3    H128207   0.586   3.611   1.602 -0.3192  1.1674  0.7751
 2216TIP3    H228208   0.581   3.460   1.604 -0.4921  1.1167 -1.1973
 2217TIP3   OH228209   3.216   3.292   8.608  0.3506 -0.5548  0.7925
 2217TIP3    H128210   3.287   3.325   8.663  0.3803  0.2424  0.2890
 2217TIP3    H228211   3.218   3.347   8.530 -0.2251 -1.1297  0.3562
 2218TIP3   OH228212   4.195   1.715   7.711 -0.0524 -0.4634  0.0539
 2218TIP3    H128213   4.188   1.620   7.701 -1.0131 -0.4623  0.6246
 2218TIP3    H228214   4.260   1.726   7.781 -0.3472 -0.7154  0.3711
 2219TIP3   OH228215   0.855   5.233   7.109 -0.1806 -0.5827  0.1214
 2219TIP3    H128216   0.947   5.257   7.124 -0.0155 -1.1043 -0.0467
 2219TIP3    H228217   0.806   5.311   7.134  0.4388  0.5387 -1.9364
 2220TIP3   OH228218   1.280   4.834   6.391 -0.3483  0.0209  0.4414
 2220TIP3    H128219   1.223   4.767   6.351  0.3652 -1.6558  2.0769
 2220TIP3    H228220   1.268   4.911   6.335 -2.7397 -0.8346 -0.3900
 2221TIP3   OH228221   4.266   6.220   7.911  0.0664  0.0995  0.1026
 2221TIP3    H128222   4.258   6.222   8.006  0.7775  1.4891  0.1621
 2221TIP3    H228223   4.181   6.251   7.879  0.0648  0.2973  0.3024
 2222TIP3   OH228224   5.346   2.997   7.369  0.3774 -0.1313 -0.4187
 2222TIP3    H128225   5.426   2.947   7.385  0.0893 -0.1239  1.2233
 2222TIP3    H228226   5.368   3.086   7.395 -0.2569 -0.2010  0.3862
 2223TIP3   OH228227   5.193   4.501   0.394 -0.2084  1.0088  0.1636
 2223TIP3    H128228   5.258   4.560   0.431 -0.4896  0.3129  1.8462
 2223TIP3    H228229   5.135   4.558   0.343  1.1926  1.7417 -0.6792
 2224TIP3   OH228230   4.999   1.476   6.288 -0.5016 -0.3003  0.5310
 2224TIP3    H128231   4.930   1.448   6.348 -0.5813 -0.0514  0.5534
 2224TIP3    H228232   5.063   1.404   6.291 -1.7946 -1.6170 -1.1865
 2225TIP3   OH228233   4.311   5.643   2.320 -0.1755  0.4726 -0.1177
 2225TIP3    H128234   4.344   5.678   2.238  1.1101 -2.5505 -1.0382
 2225TIP3    H228235   4.219   5.625   2.304 -0.0103  0.2248 -0.8210
 2226TIP3   OH228236   4.639   5.834   8.087 -0.4357 -0.2872  0.1783
 2226TIP3    H128237   4.727   5.805   8.063 -1.1810 -1.2055 -1.6726
 2226TIP3    H228238   4.639   5.928   8.070  0.5637 -0.0151  1.5279
 2227TIP3   OH228239   2.264   3.881   6.964 -0.7884 -0.2689 -0.4970
 2227TIP3    H128240   2.358   3.863   6.961 -0.4793  1.3219 -1.4207
 2227TIP3    H228241   2.227   3.832   6.891 -0.5992 -0.4895 -0.4442
 2228TIP3   OH228242   6.104   0.149   6.530  0.1201  0.0385 -0.3935
 2228TIP3    H128243   6.165   0.204   6.480 -0.6259  1.2791  0.0361
 2228TIP3    H228244   6.073   0.085   6.466  2.5120 -1.2102 -0.4267
 2229TIP3   OH228245   4.054   6.529   1.341 -0.8225  0.6257  0.4590
 2229TIP3    H128246   4.088   6.618   1.351  2.7665 -0.4794 -0.4277
 2229TIP3    H228247   4.102   6.493   1.266 -1.2488 -2.4207  1.5015
 2230TIP3   OH228248   0.984   0.763   6.321  0.2980 -0.7805 -0.3130
 2230TIP3    H128249   0.976   0.858   6.320  1.4399 -0.6815 -1.4106
 2230TIP3    H228250   1.043   0.745   6.395  1.8042 -0.4602 -1.3974
 2231TIP3   OH228251   2.802   0.392   0.438  0.1551 -0.2709 -0.1064
 2231TIP3    H128252   2.811   0.361   0.348  0.5749  0.5092 -0.3413
 2231TIP3    H228253   2.892   0.407   0.467 -0.0452  0.8931 -0.0647
 2232TIP3   OH228254   5.350   2.045   0.972  0.2032  0.1326  0.2172
 2232TIP3    H128255   5.257   2.068   0.976  0.1881 -0.0325  0.9316
 2232TIP3    H228256   5.395   2.128   0.988  0.1836  0.1909 -0.0181
 2233TIP3   OH228257   5.878   6.170   7.312 -0.2345 -0.6713 -0.5125
 2233TIP3    H128258   5.922   6.111   7.251  2.8807 -0.4318  1.2793
 2233TIP3    H228259   5.883   6.125   7.396 -1.5331  0.3852  0.1695
 2234TIP3   OH228260   2.513   3.709   2.627 -0.1238 -0.3328  0.1140
 2234TIP3    H128261   2.483   3.780   2.571  0.6387  0.0814  0.2190
 2234TIP3    H228262   2.608   3.717   2.628  0.1049 -2.2591 -1.0682
 2235TIP3   OH228263   5.244   2.104   2.228 -0.3589  0.0955  0.4176
 2235TIP3    H128264   5.330   2.099   2.186 -0.9962  2.0030 -1.2775
 2235TIP3    H228265   5.258   2.160   2.305  0.3443 -1.5391  1.5327
 2236TIP3   OH228266   5.485   2.329   0.690  0.3397 -0.3437 -1.0562
 2236TIP3    H128267   5.415   2.368   0.639 -0.0248 -0.7824 -0.9029
 2236TIP3    H228268   5.491   2.239   0.658 -0.4684 -0.8861  0.2173
 2237TIP3   OH228269   3.033   0.177   0.990 -0.0069 -0.0182  0.2098
 2237TIP3    H128270   2.938   0.186   0.980  0.1055  0.5067 -0.5088
 2237TIP3    H228271   3.047   0.083   1.002 -0.4367 -0.4682 -2.2435
 2238TIP3   OH228272   1.697   5.673   8.476 -0.2966 -0.4519  0.5983
 2238TIP3    H128273   1.603   5.664   8.461 -0.1956  0.7608 -1.1738
 2238TIP3    H228274   1.705   5.694   8.569 -2.0646  2.1185  0.2937
 2239TIP3   OH228275   1.363   1.842   0.518  0.5682  0.2692  0.1584
 2239TIP3    H128276   1.380   1.764   0.465  0.6190  0.2491  0.2048
 2239TIP3    H228277   1.434   1.844   0.581  1.0549  0.8328 -0.3932
 2240TIP3   OH228278   3.567   1.598   8.118  0.4226  0.2312  0.5234
 2240TIP3    H128279   3.601   1.648   8.044  0.9540 -2.0026 -0.8449
 2240TIP3    H228280   3.472   1.606   8.111  0.4800  0.3132 -0.2197
 2241TIP3   OH228281   1.698   3.194   6.705 -1.2076  0.4094  0.3522
 2241TIP3    H128282   1.604   3.207   6.707 -1.6704 -2.1150 -0.7982
 2241TIP3    H228283   1.709   3.101   6.682  1.5509  0.5794  0.6154
 2242TIP3   OH228284   6.181   2.177   1.311 -0.3857  0.0174  0.1658
 2242TIP3    H128285   6.086   2.190   1.313 -0.6142 -1.2963 -0.8166
 2242TIP3    H228286   6.199   2.121   1.387  0.0050  2.2811  1.8537
 2243TIP3   OH228287   2.542   1.909   1.949  0.7696  0.3974  0.6862
 2243TIP3    H128288   2.610   1.905   1.881 -0.0824  1.3877 -0.2669
 2243TIP3    H228289   2.509   1.999   1.944 -2.2094 -0.6668 -0.4940
 2244TIP3   OH228290   4.016   3.785   2.103  0.3344  0.2934 -0.0122
 2244TIP3    H128291   3.939   3.813   2.152 -1.0716 -1.0955 -1.3387
 2244TIP3    H228292   4.068   3.737   2.167 -2.1586 -2.7733 -0.0535
 2245TIP3   OH228293   0.388   1.286   1.856 -0.3780  0.1682 -0.2749
 2245TIP3    H128294   0.366   1.196   1.834  1.3209  0.0462 -1.6387
 2245TIP3    H228295   0.303   1.329   1.870 -1.2190 -1.5257  0.0029
 2246TIP3   OH228296   5.535   6.371   8.093 -0.5067  0.1544 -0.3523
 2246TIP3    H128297   5.617   6.399   8.052  0.5737 -1.0046  0.9314
 2246TIP3    H228298   5.520   6.283   8.060  0.7363 -1.0807  2.0630
 2247TIP3   OH228299   3.983   3.195   0.467  0.1604  0.1084  0.0952
 2247TIP3    H128300   3.916   3.133   0.438  0.6674 -0.4961  0.1949
 2247TIP3    H228301   4.019   3.231   0.385  0.6083 -0.5406 -0.0009
 2248TIP3   OH228302   6.796   5.438   6.097 -0.6726  0.3262 -0.0938
 2248TIP3    H128303   6.760   5.353   6.070 -0.8062  0.4138 -0.1899
 2248TIP3    H228304   6.721   5.485   6.133 -0.3205 -0.1624  1.3473
 2249TIP3   OH228305   4.896   4.858   1.102 -0.3355  0.3774 -0.4958
 2249TIP3    H128306   4.841   4.903   1.038  1.0479 -0.1887 -2.1594
 2249TIP3    H228307   4.851   4.775   1.119 -0.6368  0.4663 -0.8478
 2250TIP3   OH228308   2.834   2.620   2.294 -0.0674 -0.4526  0.0226
 2250TIP3    H128309   2.836   2.715   2.291 -1.4754 -0.3904  0.2172
 2250TIP3    H228310   2.908   2.592   2.241  0.9397  0.7470  0.7387
 2251TIP3   OH228311   1.396   4.556   1.453 -0.1747  0.3217  0.2417
 2251TIP3    H128312   1.379   4.491   1.384  1.1882 -0.4423  0.5971
 2251TIP3    H228313   1.350   4.635   1.423 -2.1933 -0.8908 -0.0146
 2252TIP3   OH228314   4.456   3.114   6.970  0.1054  0.0889 -0.3867
 2252TIP3    H128315   4.373   3.091   7.013 -0.5768 -3.0694 -2.9407
 2252TIP3    H228316   4.439   3.198   6.928 -1.7445 -0.3481 -0.5954
 2253TIP3   OH228317   0.906   1.398   1.105 -0.0116 -0.2304 -0.3857
 2253TIP3    H128318   0.832   1.340   1.086  0.3996 -0.2222 -2.2850
 2253TIP3    H228319   0.974   1.339   1.139 -0.5481 -0.3858  0.4386
 2254TIP3   OH228320   3.093   0.733   7.839  0.2032  0.1722  0.3641
 2254TIP3    H128321   3.001   0.724   7.863  0.1396 -0.4531 -0.0770
 2254TIP3    H228322   3.133   0.778   7.913 -0.4668  0.5019  0.5359
 2255TIP3   OH228323   1.840   1.658   0.252  0.0200 -0.0826 -0.0123
 2255TIP3    H128324   1.895   1.737   0.242 -1.7748  1.1727 -0.4269
 2255TIP3    H228325   1.852   1.633   0.343  0.7757  0.5593  0.0817
 2256TIP3   OH228326   1.537   6.054   7.643 -0.7713  0.2285 -1.1030
 2256TIP3    H128327   1.513   5.975   7.595  0.0731  0.2103 -1.5069
 2256TIP3    H228328   1.455   6.085   7.682 -1.0081 -1.1830 -0.4353
 2257TIP3   OH228329   1.630   5.529   6.886  0.5913  0.4918  0.1096
 2257TIP3    H128330   1.536   5.519   6.901  0.0078  3.8506 -0.5565
 2257TIP3    H228331   1.648   5.477   6.808 -0.5029 -0.8886  0.7455
 2258TIP3   OH228332   0.928   0.044   8.016 -0.0839  0.1849  0.4328
 2258TIP3    H128333   1.017   0.070   7.995  0.5103 -1.1947  1.1391
 2258TIP3    H228334   0.923   0.047   8.112 -0.4979 -0.6349  0.4484
 2259TIP3   OH228335   5.083   3.948   0.751 -0.0713  0.0837 -0.1799
 2259TIP3    H128336   5.171   3.917   0.727 -0.9346 -1.7956 -1.1356
 2259TIP3    H228337   5.069   3.914   0.839 -0.4801 -1.1824 -0.7030
 2260TIP3   OH228338   0.956   0.932   8.225  0.0646 -0.5127 -0.3066
 2260TIP3    H128339   0.900   0.875   8.278  0.7582 -2.1478 -1.2639
 2260TIP3    H228340   1.017   0.969   8.289 -2.4172  1.8814  0.8844
 2261TIP3   OH228341   0.127   1.681   1.346  0.3528  0.4064  0.5176
 2261TIP3    H128342   0.037   1.707   1.326 -0.2917 -2.4038 -0.7455
 2261TIP3    H228343   0.143   1.716   1.434 -1.6693  1.6636  0.4531
 2262TIP3   OH228344   4.881   0.235   6.746 -0.3412  0.1869 -0.1043
 2262TIP3    H128345   4.863   0.171   6.677 -0.4591 -1.0613  1.0493
 2262TIP3    H228346   4.829   0.312   6.722 -0.1373 -0.1002 -1.5577
 2263TIP3   OH228347   4.064   6.091   8.480  0.8501 -0.2856 -0.3130
 2263TIP3    H128348   4.119   6.170   8.476  0.9404 -0.3188  0.1803
 2263TIP3    H228349   4.127   6.019   8.486  0.7739 -0.4235 -1.1081
 2264TIP3   OH228350   2.299   6.126   7.863  0.4524 -0.2222 -0.1538
 2264TIP3    H128351   2.240   6.117   7.938 -0.2545  0.4731 -0.6028
 2264TIP3    H228352   2.243   6.109   7.787  0.9328  0.0391 -0.5741
 2265TIP3   OH228353   0.916   5.105   2.016 -0.4007 -0.2537 -0.1329
 2265TIP3    H128354   0.897   5.198   2.022  1.7598  0.1630  2.5844
 2265TIP3    H228355   0.925   5.077   2.107  0.9602 -2.6561 -0.9275
 2266TIP3   OH228356   2.616   2.362   1.167  0.0062 -0.7619  0.4631
 2266TIP3    H128357   2.544   2.398   1.218 -0.0197 -0.6107  0.3217
 2266TIP3    H228358   2.645   2.285   1.216 -0.4971 -1.0426  0.3274
 2267TIP3   OH228359   3.738   2.521   6.719 -0.3516 -0.1117 -0.7057
 2267TIP3    H128360   3.659   2.573   6.735  0.0488  0.3042  0.0158
 2267TIP3    H228361   3.719   2.472   6.639 -1.4199 -0.1883 -0.4286
 2268TIP3   OH228362   3.338   2.601   7.059  0.6823  0.7511 -0.0150
 2268TIP3    H128363   3.398   2.670   7.086  1.2394  0.6086 -0.8477
 2268TIP3    H228364   3.386   2.552   6.992  0.7794 -1.1896  1.3945
 2269TIP3   OH228365   2.235   6.026   1.482 -0.4623 -0.0240  0.4982
 2269TIP3    H128366   2.174   5.955   1.501 -0.6654  0.3420  1.2514
 2269TIP3    H228367   2.255   6.064   1.567 -0.4722  0.9152  0.0945
 2270TIP3   OH228368   3.492   0.596   1.767 -0.5560 -0.3775 -1.1255
 2270TIP3    H128369   3.414   0.540   1.767  0.0412 -1.2414 -0.0791
 2270TIP3    H228370   3.477   0.658   1.695 -2.4318 -0.1986 -0.6192
 2271TIP3   OH228371   1.219   6.765   8.376  0.2835 -0.4495  0.6512
 2271TIP3    H128372   1.269   6.708   8.318  0.5555  0.3883  0.0439
 2271TIP3    H228373   1.275   6.778   8.452  1.9923  2.1306 -0.8825
 2272TIP3   OH228374   3.896   5.942   7.821  0.1064 -0.2298 -0.6195
 2272TIP3    H128375   3.988   5.916   7.822 -0.5022 -2.5508  0.3329
 2272TIP3    H228376   3.883   5.978   7.733  1.7223 -0.6385 -1.0584
 2273TIP3   OH228377   0.831   1.410   7.907  0.7959  0.1115  0.4317
 2273TIP3    H128378   0.896   1.343   7.927  1.3991  1.1771  2.3648
 2273TIP3    H228379   0.751   1.379   7.948  0.2197 -0.8814 -1.3749
 2274TIP3   OH228380   5.660   0.603   8.314 -0.3622  0.3377  0.0067
 2274TIP3    H128381   5.600   0.528   8.314  1.4807 -1.2261  0.8251
 2274TIP3    H228382   5.611   0.673   8.357 -2.2934 -0.2307 -1.1406
 2275TIP3   OH228383   4.076   6.593   7.675 -0.1368  0.0558 -0.6091
 2275TIP3    H128384   4.091   6.676   7.719  1.7315 -1.4613  1.9522
 2275TIP3    H228385   3.982   6.590   7.659 -0.3294  2.3538 -0.2219
 2276TIP3   OH228386   2.376   5.991   8.181  0.1773 -0.1527 -0.4169
 2276TIP3    H128387   2.420   6.075   8.193  0.6105 -0.3522 -0.5832
 2276TIP3    H228388   2.285   6.014   8.163  0.1816  0.2645  0.0468
 2277TIP3   OH228389   2.955   0.908   2.590 -0.1574 -0.0413 -0.0305
 2277TIP3    H128390   2.918   0.947   2.511  2.6964  1.9957 -0.5236
 2277TIP3    H228391   3.002   0.980   2.633  1.7192 -1.9776  1.4102
 2278TIP3   OH228392   3.744   4.709   8.033  0.4591 -0.0083  0.7339
 2278TIP3    H128393   3.818   4.713   8.094  0.5988  1.8276  0.4829
 2278TIP3    H228394   3.719   4.800   8.019 -3.0261 -0.5670  2.1832
 2279TIP3   OH228395   1.673   1.686   8.629 -0.2349  0.2697 -0.0269
 2279TIP3    H128396   1.702   1.689   8.721 -0.8998  1.0200  0.1616
 2279TIP3    H228397   1.637   1.597   8.619  0.1933  0.0501  0.3209
 2280TIP3   OH228398   2.740   5.938   7.740  0.5684  0.0981  0.7026
 2280TIP3    H128399   2.807   5.999   7.709  1.0455 -1.0044 -0.4990
 2280TIP3    H228400   2.658   5.975   7.709  0.7464  0.6810  0.9060
 2281TIP3   OH228401   5.614   1.961   7.268 -0.1079 -0.3082  0.5953
 2281TIP3    H128402   5.619   1.949   7.173  0.0199 -1.8858  0.7667
 2281TIP3    H228403   5.652   2.048   7.284  2.1668 -1.0017 -0.5841
 2282TIP3   OH228404   0.388   4.637   0.263 -0.2621  0.8045  0.9449
 2282TIP3    H128405   0.457   4.632   0.329  0.1199 -0.4140  0.4834
 2282TIP3    H228406   0.424   4.693   0.195  0.7157 -0.5929  0.2498
 2283TIP3   OH228407   0.331   5.208   1.642  0.5143  0.7445  0.3773
 2283TIP3    H128408   0.242   5.242   1.652 -0.4771 -1.1907 -1.2640
 2283TIP3    H228409   0.332   5.129   1.696  1.8900  1.7247  1.8860
 2284TIP3   OH228410   0.633   5.920   8.136 -0.9001  0.1078 -0.6196
 2284TIP3    H128411   0.696   5.874   8.192  0.0915  0.5210 -1.3496
 2284TIP3    H228412   0.566   5.855   8.115 -0.2556 -0.6046 -0.5170
 2285TIP3   OH228413   4.053   6.872   8.157 -0.4207 -0.2336 -0.7519
 2285TIP3    H128414   3.995   6.931   8.109 -0.5468  0.6483  0.4435
 2285TIP3    H228415   4.140   6.912   8.150 -0.2967 -0.5118 -0.8611
 2286TIP3   OH228416   2.115   2.142   0.618  0.4812 -0.4443  0.0559
 2286TIP3    H128417   2.184   2.205   0.635 -1.0943  1.3926 -0.0612
 2286TIP3    H228418   2.159   2.057   0.618  2.4478  0.5127  1.5958
 2287TIP3   OH228419   0.892   2.279   6.544  0.2555 -0.3023  0.0895
 2287TIP3    H128420   0.854   2.195   6.519  1.8553 -0.8625 -0.5527
 2287TIP3    H228421   0.965   2.292   6.484  1.5112  0.4191  1.6921
 2288TIP3   OH228422   0.315   1.502   1.221  0.1065  0.2643  0.1131
 2288TIP3    H128423   0.249   1.563   1.251 -0.3514  0.5830 -1.4472
 2288TIP3    H228424   0.266   1.432   1.179  0.7276  0.3337 -0.7588
 2289TIP3   OH228425   6.546   5.799   1.019 -0.3903  0.7070 -0.8413
 2289TIP3    H128426   6.593   5.733   1.071  2.9303  1.8336 -2.1920
 2289TIP3    H228427   6.479   5.748   0.972 -0.3726 -1.0580  0.8882
 2290TIP3   OH228428   3.197   3.496   1.168 -0.2373 -0.0686 -0.3062
 2290TIP3    H128429   3.197   3.576   1.219 -1.1866  0.4720 -1.1129
 2290TIP3    H228430   3.106   3.466   1.170  0.4753 -2.4565  1.9373
 2291TIP3   OH228431   4.356   4.949   0.367 -0.1172  0.4076 -0.1277
 2291TIP3    H128432   4.377   4.862   0.334 -1.6754  0.7201 -2.1454
 2291TIP3    H228433   4.299   4.933   0.442  1.2641 -0.2818  0.8250
 2292TIP3   OH228434   0.830   6.125   6.637 -0.0827  0.1687 -0.7875
 2292TIP3    H128435   0.737   6.103   6.649 -0.1139  0.0553 -1.2209
 2292TIP3    H228436   0.849   6.189   6.706  0.2399 -1.8422  1.1080
 2293TIP3   OH228437   6.670   6.795   5.867  0.4027 -0.1569 -0.2000
 2293TIP3    H128438   6.614   6.754   5.801 -1.1664  0.9400  0.3887
 2293TIP3    H228439   6.696   6.878   5.828 -0.7240  0.6039  0.5983
 2294TIP3   OH228440   6.582   6.511   1.768  0.5060 -0.1971  0.4574
 2294TIP3    H128441   6.645   6.516   1.839  0.7922 -1.4118  0.3070
 2294TIP3    H228442   6.630   6.471   1.695  0.2306  1.0419 -0.4452
 2295TIP3   OH228443   3.741   3.163   0.904 -0.0090  0.0176 -0.1767
 2295TIP3    H128444   3.818   3.182   0.959  0.2972 -2.2637  0.2836
 2295TIP3    H228445   3.689   3.243   0.908  1.8652  1.2998  0.2824
 2296TIP3   OH228446   0.291   3.898   8.027 -0.7409 -0.6273 -0.4211
 2296TIP3    H128447   0.275   3.909   8.120  0.9259  0.6045 -0.2413
 2296TIP3    H228448   0.251   3.975   7.987  0.1952 -0.1737 -0.5037
 2297TIP3   OH228449   3.429   4.626   1.365 -0.2163 -0.3964 -0.5743
 2297TIP3    H128450   3.344   4.667   1.385  0.5449  0.5948  0.8121
 2297TIP3    H228451   3.488   4.699   1.349  0.5599 -1.0472 -0.7406
 2298TIP3   OH228452   4.515   0.305   1.704 -0.7120  0.2642 -0.3451
 2298TIP3    H128453   4.423   0.320   1.727 -1.0296  0.6785 -1.8069
 2298TIP3    H228454   4.565   0.352   1.771 -1.5770  0.7225 -0.0130
 2299TIP3   OH228455   2.960   1.105   1.653  0.0217  0.3089  0.0390
 2299TIP3    H128456   2.944   1.022   1.607 -1.3711 -1.1198  2.8310
 2299TIP3    H228457   3.040   1.090   1.702  0.0092  0.8095  0.2148
 2300TIP3   OH228458   4.431   4.021   0.601 -0.2938  0.1679 -0.1366
 2300TIP3    H128459   4.451   4.052   0.513 -0.6728 -0.3646 -0.4203
 2300TIP3    H228460   4.336   4.026   0.607 -0.1659  2.7955  1.2409
 2301TIP3   OH228461   5.567   4.465   7.133  0.3166  0.1781 -0.5138
 2301TIP3    H128462   5.476   4.434   7.140  0.3419  0.2484  0.2383
 2301TIP3    H228463   5.592   4.445   7.043  0.3217 -1.9885 -0.0849
 2302TIP3   OH228464   0.356   3.554   8.271  0.1476 -0.3311 -0.2034
 2302TIP3    H128465   0.357   3.649   8.262 -0.7057 -0.3680 -0.8168
 2302TIP3    H228466   0.288   3.525   8.210 -0.1779 -1.2685  0.5894
 2303TIP3   OH228467   2.731   1.657   0.047  0.1282  0.1001 -0.0954
 2303TIP3    H128468   2.657   1.633   0.102  2.6717 -0.1314  3.6014
 2303TIP3    H228469   2.731   1.753   0.046  0.1180  0.1061  0.4094
 2304TIP3   OH228470   6.195   1.772   8.323  0.6970 -0.3949 -0.0688
 2304TIP3    H128471   6.154   1.829   8.258  1.5594  0.3325  0.0176
 2304TIP3    H228472   6.270   1.734   8.278 -0.2841 -2.0918 -0.3759
 2305TIP3   OH228473   3.429   0.879   6.057 -0.3334  0.1823  0.4042
 2305TIP3    H128474   3.426   0.943   6.128 -1.1295 -1.5522  2.0332
 2305TIP3    H228475   3.362   0.909   5.995  0.7487  2.0176  0.0481
 2306TIP3   OH228476   1.023   3.713   2.250  0.5132  0.3846  0.2351
 2306TIP3    H128477   0.938   3.671   2.264  0.7443 -0.4040 -0.5895
 2306TIP3    H228478   1.085   3.641   2.245  1.2292  0.9518  0.7450
 2307TIP3   OH228479   6.101   4.432   2.320  0.5515 -0.2726  0.1419
 2307TIP3    H128480   6.122   4.350   2.364  0.7263 -0.4844 -0.3311
 2307TIP3    H228481   6.161   4.496   2.357  2.0805 -0.8678 -1.2031
 2308TIP3   OH228482   0.843   6.342   6.830 -0.1812  0.4466  0.5395
 2308TIP3    H128483   0.767   6.396   6.856 -1.2766 -0.6689 -0.2434
 2308TIP3    H228484   0.886   6.393   6.762 -0.6372  0.7788  0.4932
 2309TIP3   OH228485   4.192   6.077   7.484 -0.4327  0.5863  0.1186
 2309TIP3    H128486   4.159   6.138   7.550  0.6881  0.5560  0.7397
 2309TIP3    H228487   4.272   6.118   7.452 -0.2487 -0.0462 -0.2438
 2310TIP3   OH228488   1.565   0.291   7.108  0.2271 -0.4704  0.3981
 2310TIP3    H128489   1.558   0.367   7.166  0.7849  0.8435 -1.1683
 2310TIP3    H228490   1.480   0.248   7.113 -0.2439  0.5058  0.9783
 2311TIP3   OH228491   4.981   6.753   7.293  0.3828 -0.8231  0.2818
 2311TIP3    H128492   4.918   6.823   7.309  1.4580  0.4646 -0.8956
 2311TIP3    H228493   5.023   6.740   7.378 -0.5953 -0.8362  0.7783
 2312TIP3   OH228494   1.010   0.289   1.353 -0.6038  0.7366 -0.4195
 2312TIP3    H128495   1.086   0.271   1.409  0.1551 -0.9141 -1.8677
 2312TIP3    H228496   0.938   0.243   1.395  0.1633 -1.3127 -1.2019
 2313TIP3   OH228497   5.458   0.733   1.552 -0.0212 -0.0703  0.5397
 2313TIP3    H128498   5.546   0.734   1.515 -0.8171 -1.9758 -1.6430
 2313TIP3    H228499   5.465   0.678   1.630  0.9181  0.6774  0.9931
 2314TIP3   OH228500   3.277   2.953   1.395 -0.0298 -0.3722 -0.3810
 2314TIP3    H128501   3.269   2.894   1.320 -0.1738  1.5647 -1.9743
 2314TIP3    H228502   3.228   3.031   1.369 -0.2826  0.2821  1.8513
 2315TIP3   OH228503   5.105   1.469   0.338 -0.3108  0.3839 -0.0701
 2315TIP3    H128504   5.174   1.517   0.384  0.3464  1.0306 -1.6581
 2315TIP3    H228505   5.044   1.537   0.309 -0.6214  0.0072 -0.3122
 2316TIP3   OH228506   6.744   3.481   7.129  0.8559  0.0764  0.6291
 2316TIP3    H128507   6.659   3.513   7.098  0.1937 -0.7840  1.5045
 2316TIP3    H228508   6.797   3.560   7.138 -0.2169  0.7671  1.1693
 2317TIP3   OH228509   6.818   3.011   0.017 -0.0255  0.1576 -0.3942
 2317TIP3    H128510   6.821   2.957   0.095 -1.8341  0.5449 -0.0086
 2317TIP3    H228511   6.886   2.976  -0.040  1.5619  0.0755  1.4669
 2318TIP3   OH228512   3.994   1.547   0.009  0.0255 -0.3239 -0.3458
 2318TIP3    H128513   3.952   1.607   0.072 -0.8888  0.4982 -1.6914
 2318TIP3    H228514   3.977   1.460   0.045  0.9467  0.1718  1.3899
 2319TIP3   OH228515   6.456   2.260   0.044  0.5436  0.1976 -0.1768
 2319TIP3    H128516   6.417   2.274   0.130  1.0530 -0.4340  0.1696
 2319TIP3    H228517   6.550   2.274   0.057  0.3989  2.5458 -1.1843
 2320TIP3   OH228518   0.255   0.906   0.306  0.3023 -0.2075  0.0814
 2320TIP3    H128519   0.287   0.828   0.351 -0.3668  0.0058  0.9820
 2320TIP3    H228520   0.172   0.926   0.351 -0.3381  0.0900 -1.1891
 2321TIP3   OH228521   0.575   2.452   7.592 -0.0552 -0.2330 -0.3775
 2321TIP3    H128522   0.583   2.450   7.688 -0.4481 -1.9252 -0.3484
 2321TIP3    H228523   0.545   2.540   7.572  1.8371  0.7642  0.9029
 2322TIP3   OH228524   1.318   2.942   8.574  0.1056 -0.1582  0.4838
 2322TIP3    H128525   1.226   2.945   8.601 -0.4583  1.6897 -1.4206
 2322TIP3    H228526   1.316   2.906   8.486  1.2789 -0.6127  0.6313
 2323TIP3   OH228527   4.589   6.131   6.697 -0.1503  0.1076 -0.0210
 2323TIP3    H128528   4.612   6.195   6.629  1.3508 -1.1322 -0.7588
 2323TIP3    H228529   4.663   6.069   6.697 -0.6562 -0.5681  1.9718
 2324TIP3   OH228530   6.349   3.675   1.260  0.1559  0.4991 -0.3607
 2324TIP3    H128531   6.285   3.746   1.266  0.2944  0.7095 -1.2609
 2324TIP3    H228532   6.389   3.672   1.347 -1.7802 -0.3333  0.5562
 2325TIP3   OH228533   3.950   0.858   1.276 -0.2440  0.3529 -0.0831
 2325TIP3    H128534   3.976   0.825   1.190  0.8451  0.5112  0.1775
 2325TIP3    H228535   3.861   0.823   1.288  0.2955 -1.2390 -0.4631
 2326TIP3   OH228536   1.592   6.253   1.446  0.2834  0.5525 -0.7913
 2326TIP3    H128537   1.658   6.196   1.485 -0.0139 -0.3775 -1.5978
 2326TIP3    H228538   1.595   6.333   1.498  0.6184 -0.2476  0.4637
 2327TIP3   OH228539   2.017   0.886   0.045 -0.0825  0.0130 -0.2888
 2327TIP3    H128540   1.989   0.952  -0.017  2.1455  0.6129 -0.7505
 2327TIP3    H228541   1.993   0.803   0.005 -1.4605  0.4727 -0.4543
 2328TIP3   OH228542   4.590   0.968   1.769 -0.2556  0.2755  0.6355
 2328TIP3    H128543   4.650   0.893   1.768  3.7599  3.1303  0.4903
 2328TIP3    H228544   4.621   1.024   1.697 -3.4252  1.8813  0.3336
 2329TIP3   OH228545   0.143   2.515   2.160  0.3401  0.6074 -0.4207
 2329TIP3    H128546   0.066   2.557   2.123  1.1768  0.6125 -2.2360
 2329TIP3    H228547   0.217   2.561   2.121  1.2744 -0.6996 -0.2683
 2330TIP3   OH228548   3.088   1.733   0.406  0.1675  0.3877  0.2353
 2330TIP3    H128549   3.182   1.731   0.425  0.0333  0.2537  0.9151
 2330TIP3    H228550   3.065   1.643   0.384  0.5114  0.7139 -1.5675
 2331TIP3   OH228551   3.052   6.271   1.378 -0.3704  1.0929 -0.7224
 2331TIP3    H128552   3.142   6.301   1.367  0.1652 -0.8189 -2.1387
 2331TIP3    H228553   3.058   6.198   1.440 -1.3153  2.3682  0.9497
 2332TIP3   OH228554   0.356   2.594   0.534  0.3239 -0.2220 -0.6985
 2332TIP3    H128555   0.336   2.675   0.581 -3.1405 -1.9933  1.3211
 2332TIP3    H228556   0.448   2.576   0.553  0.6756  2.2649  0.2685
 2333TIP3   OH228557   6.729   6.333   6.741  0.3986 -0.6213  0.0120
 2333TIP3    H128558   6.808   6.311   6.690  0.2500  0.1683 -0.5663
 2333TIP3    H228559   6.656   6.315   6.681  0.2944  2.9637 -1.1721
 2334TIP3   OH228560   1.438   3.452   2.347  0.1260 -0.4667 -0.2222
 2334TIP3    H128561   1.494   3.490   2.415  0.5290  2.7688 -2.1955
 2334TIP3    H228562   1.445   3.512   2.273 -3.3744 -1.7349 -1.7861
 2335TIP3   OH228563   6.734   5.908   7.430 -0.3710 -0.4001  0.4961
 2335TIP3    H128564   6.690   5.884   7.511  1.1104  0.8907  1.7525
 2335TIP3    H228565   6.746   6.003   7.435  1.5159 -0.5377 -0.2609
 2336TIP3   OH228566   5.703   1.571   8.310 -0.1070  0.6419  0.1233
 2336TIP3    H128567   5.616   1.535   8.328  0.1739  0.6000  1.5373
 2336TIP3    H228568   5.746   1.572   8.396  1.5417 -0.0051 -0.6624
 2337TIP3   OH228569   1.052   4.588   0.806  0.1194  0.3827  0.4042
 2337TIP3    H128570   1.028   4.509   0.758 -0.7769 -0.9131  2.7791
 2337TIP3    H228571   1.023   4.660   0.750  1.7557 -0.8733 -2.2418
 2338TIP3   OH228572   1.857   4.172   7.136  0.1484  0.2153 -0.2405
 2338TIP3    H128573   1.879   4.161   7.229 -0.6770  0.3841 -0.0142
 2338TIP3    H228574   1.763   4.159   7.132  0.4983 -2.6013 -1.4987
 2339TIP3   OH228575   3.007   0.707   0.796  0.7571 -0.0900  0.3401
 2339TIP3    H128576   3.045   0.634   0.844  1.3475 -0.2426 -0.3378
 2339TIP3    H228577   3.002   0.778   0.860  0.6513 -0.5666  0.8694
 2340TIP3   OH228578   2.811   2.312   7.791 -0.5351  0.3138  0.6376
 2340TIP3    H128579   2.819   2.278   7.702  2.6756  0.8342  0.6243
 2340TIP3    H228580   2.750   2.385   7.783  0.2492  0.8229 -1.3162
 2341TIP3   OH228581   3.948   2.607   0.666 -0.4177 -0.4292 -0.0012
 2341TIP3    H128582   3.908   2.589   0.581  0.6741 -2.7054 -0.1268
 2341TIP3    H228583   3.953   2.521   0.709  4.1772 -0.4266 -0.0186
 2342TIP3   OH228584   6.530   3.016   7.009 -0.1185 -0.0803 -0.6551
 2342TIP3    H128585   6.512   2.924   6.988  0.6643  0.0393 -1.9727
 2342TIP3    H228586   6.625   3.023   7.005  0.1761 -0.0440  3.2659
 2343TIP3   OH228587   4.809   2.920   6.608 -0.2861  0.1036  0.3325
 2343TIP3    H128588   4.851   2.981   6.548 -0.6854 -1.5802 -1.7831
 2343TIP3    H228589   4.741   2.972   6.651  1.0747  1.7612  0.5857
 2344TIP3   OH228590   0.088   5.287   1.633  0.0859 -0.3539  0.3352
 2344TIP3    H128591   0.046   5.224   1.575  0.6517 -1.1850  0.7985
 2344TIP3    H228592   0.033   5.289   1.711 -0.5736  0.6228 -0.1489
 2345TIP3   OH228593   2.112   2.032   7.125 -0.5937  0.0133  0.2981
 2345TIP3    H128594   2.104   1.970   7.197 -1.4936 -1.2509 -0.8408
 2345TIP3    H228595   2.204   2.058   7.126 -0.8443  1.0325  2.6648
 2346TIP3   OH228596   0.847   3.608   0.260  0.4377 -0.4502 -0.2458
 2346TIP3    H128597   0.903   3.563   0.196 -0.1372 -1.9199  0.2666
 2346TIP3    H228598   0.758   3.593   0.228  0.2195  0.0628  0.1139
 2347TIP3   OH228599   2.713   2.471   7.105  0.3048 -0.1124  0.5630
 2347TIP3    H128600   2.710   2.527   7.028 -1.4460  1.6999  1.8350
 2347TIP3    H228601   2.805   2.443   7.111  0.8634  1.1727 -1.1390
 2348TIP3   OH228602   5.164   1.107   6.772  0.1267 -0.2635  0.1236
 2348TIP3    H128603   5.218   1.156   6.709 -0.3441 -0.0074 -0.0870
 2348TIP3    H228604   5.157   1.019   6.734 -2.9123  0.7002 -1.9887
 2349TIP3   OH228605   4.639   3.208   7.916  0.6793  0.3406 -0.0864
 2349TIP3    H128606   4.601   3.252   7.992  0.1687 -1.6201  0.8702
 2349TIP3    H228607   4.563   3.179   7.865  0.9413 -0.7332  0.1138
 2350TIP3   OH228608   3.187   1.370   7.702  0.1610 -0.5042  0.0412
 2350TIP3    H128609   3.147   1.367   7.615 -1.1721 -0.5539  0.6158
 2350TIP3    H228610   3.135   1.436   7.749  0.6597 -0.7033  0.8817
 2351TIP3   OH228611   2.960   0.096   7.810 -0.5782 -0.4040 -0.4422
 2351TIP3    H128612   2.963   0.169   7.749 -0.8292 -0.8561 -0.9989
 2351TIP3    H228613   2.964   0.137   7.896  1.4638  0.1842 -0.7468
 2352TIP3   OH228614   2.686   1.755   2.226 -0.5095 -0.0656  0.4358
 2352TIP3    H128615   2.640   1.837   2.208 -1.0102 -0.2047  1.0581
 2352TIP3    H228616   2.629   1.709   2.288  0.5677 -0.1541  1.3876
 2353TIP3   OH228617   3.335   4.326   6.728 -0.5019 -0.1200  0.7183
 2353TIP3    H128618   3.309   4.416   6.706  0.7698 -0.2325 -1.5097
 2353TIP3    H228619   3.252   4.280   6.741 -1.3144  0.6054 -1.5194
 2354TIP3   OH228620   2.714   0.935   7.039 -0.0900 -0.3379 -0.3504
 2354TIP3    H128621   2.754   0.915   6.954  0.0078  0.3929 -0.4793
 2354TIP3    H228622   2.629   0.974   7.017 -0.7419 -1.5409 -0.0828
 2355TIP3   OH228623   5.201   6.439   0.063  0.2424 -0.0849 -0.1478
 2355TIP3    H128624   5.211   6.356   0.110  0.9288 -0.2981 -0.6468
 2355TIP3    H228625   5.126   6.482   0.104 -0.1409 -0.9705  0.0932
 2356TIP3   OH228626   5.706   6.520   2.161 -0.1092 -0.2094 -0.1948
 2356TIP3    H128627   5.774   6.514   2.094  0.4618  0.4463  0.3081
 2356TIP3    H228628   5.639   6.459   2.132 -0.2460  0.6424 -1.7823
 2357TIP3   OH228629   2.727   6.251   6.869 -0.0768 -0.0655  0.3040
 2357TIP3    H128630   2.685   6.329   6.905  3.3335  1.4494  1.4553
 2357TIP3    H228631   2.701   6.181   6.928 -2.5428  0.2999 -0.2554
 2358TIP3   OH228632   0.008   1.828   0.843  0.2518  0.3426  0.4763
 2358TIP3    H128633   0.015   1.836   0.748  0.3684 -0.3762  0.4143
 2358TIP3    H228634   0.099   1.820   0.873  0.2922  1.6643  0.7701
 2359TIP3   OH228635   6.185   2.864   7.561 -0.1970  0.0664 -0.2290
 2359TIP3    H128636   6.141   2.929   7.507  0.0102 -0.5201 -1.1271
 2359TIP3    H228637   6.115   2.815   7.603 -0.4861 -1.3192 -2.1867
 2360TIP3   OH228638   4.275   6.865   0.237  0.2036 -0.8254  0.0215
 2360TIP3    H128639   4.283   6.787   0.183 -0.3412 -0.7380 -0.1960
 2360TIP3    H228640   4.307   6.937   0.182  0.2830 -0.8322  0.0588
 2361TIP3   OH228641   4.567   3.905   7.061 -0.0518 -0.4797 -0.2441
 2361TIP3    H128642   4.535   3.815   7.049  2.1112 -1.4172  0.5126
 2361TIP3    H228643   4.572   3.941   6.972  0.3527 -1.6005 -0.6933
 2362TIP3   OH228644   2.315   3.409   0.707  0.5758 -0.2674  0.0007
 2362TIP3    H128645   2.396   3.428   0.660  1.4211  0.4973  1.6980
 2362TIP3    H228646   2.252   3.386   0.638  1.8148  0.5873 -1.4631
 2363TIP3   OH228647   4.709   4.613   0.843 -1.1558 -0.4182  0.0205
 2363TIP3    H128648   4.792   4.624   0.797 -0.5157 -1.3923  0.9226
 2363TIP3    H228649   4.645   4.657   0.786  0.0917  1.1670 -0.2324
 2364TIP3   OH228650   1.111   0.174   7.520 -0.0029  0.3833  0.0420
 2364TIP3    H128651   1.038   0.199   7.464  1.3040 -0.4305 -2.1393
 2364TIP3    H228652   1.189   0.200   7.471  1.2046 -0.5614  1.3882
 2365TIP3   OH228653   4.093   5.260   0.114  0.4637  0.2889 -0.4396
 2365TIP3    H128654   4.027   5.220   0.057 -0.8524  1.3566  0.2789
 2365TIP3    H228655   4.095   5.203   0.191  0.9358 -0.1444 -0.7598
 2366TIP3   OH228656   0.537   6.486   0.804  0.4308 -0.2012  0.1716
 2366TIP3    H128657   0.451   6.508   0.838 -0.3325 -0.3684 -1.5168
 2366TIP3    H228658   0.585   6.569   0.804  1.1630 -0.4969  3.2786
 2367TIP3   OH228659   4.868   2.078   8.244 -0.4852 -0.5407  0.4726
 2367TIP3    H128660   4.813   2.109   8.317  1.4840  0.1839  1.7586
 2367TIP3    H228661   4.945   2.135   8.248  0.6078 -1.8649 -0.8874
 2368TIP3   OH228662   5.018   1.844   8.246  0.6429  0.0625  0.3888
 2368TIP3    H128663   4.930   1.881   8.255 -0.2611 -1.8312 -0.2944
 2368TIP3    H228664   5.004   1.752   8.226  2.8011 -1.2020  3.8161
 2369TIP3   OH228665   5.379   6.763   7.684  0.2188 -0.0246  0.0527
 2369TIP3    H128666   5.408   6.729   7.768  0.6679  1.1386  0.3902
 2369TIP3    H228667   5.451   6.744   7.624  0.0176 -0.6056 -0.0071
 2370TIP3   OH228668   0.673   4.431   8.216  0.4865 -0.0902  0.8691
 2370TIP3    H128669   0.604   4.364   8.218 -0.1015  0.4960  0.3966
 2370TIP3    H228670   0.686   4.453   8.308 -0.5499  0.3844  0.9208
 2371TIP3   OH228671   0.498   4.065   7.934  0.2155 -0.3599  0.1951
 2371TIP3    H128672   0.428   4.020   7.981 -0.8600  0.4947 -0.5336
 2371TIP3    H228673   0.460   4.084   7.848  0.4051  2.3765  0.6444
 2372TIP3   OH228674   2.587   5.142   8.416 -0.0048 -0.0693 -0.2671
 2372TIP3    H128675   2.509   5.194   8.436  0.1485  0.4184 -0.9105
 2372TIP3    H228676   2.553   5.059   8.383 -0.2543 -0.4615  0.9213
 2373TIP3   OH228677   6.734   2.976   8.269  0.5279  0.1780 -0.1155
 2373TIP3    H128678   6.709   2.911   8.334 -1.1206  0.5431 -0.3444
 2373TIP3    H228679   6.689   2.948   8.189 -2.3685  2.8727  0.3687
 2374TIP3   OH228680   3.915   6.414   6.774 -0.3069  0.0366  0.3162
 2374TIP3    H128681   3.996   6.365   6.758 -0.7659 -1.2177  1.5691
 2374TIP3    H228682   3.936   6.471   6.848  0.1698  1.6708 -1.0230
 2375TIP3   OH228683   3.399   6.837   6.318 -0.0067 -0.6195  0.1055
 2375TIP3    H128684   3.343   6.819   6.393 -0.9110 -1.1754 -0.6713
 2375TIP3    H228685   3.344   6.890   6.259  0.7198 -0.0945 -0.1156
 2376TIP3   OH228686   3.147   4.074   7.578  0.1283  0.6916 -0.0268
 2376TIP3    H128687   3.239   4.078   7.603 -0.6856 -1.0150  4.1144
 2376TIP3    H228688   3.145   4.014   7.503  2.2266 -1.4151  1.4637
 2377TIP3   OH228689   3.293   6.729   6.992  0.2112  0.3911 -0.2734
 2377TIP3    H128690   3.221   6.752   7.051  0.5513 -2.2579  1.3508
 2377TIP3    H228691   3.259   6.748   6.905 -1.8363  0.7378  0.5239
 2378TIP3   OH228692   3.324   0.048   1.248 -0.5556 -0.1928  0.1708
 2378TIP3    H128693   3.286  -0.033   1.284 -0.1140  0.4959  2.3444
 2378TIP3    H228694   3.250   0.109   1.245  0.0106  0.8384  3.4544
 2379TIP3   OH228695   6.692   3.081   1.983  0.1100  0.0913  0.5832
 2379TIP3    H128696   6.688   2.996   1.938 -1.3795 -0.0224  0.8749
 2379TIP3    H228697   6.786   3.100   1.990  0.4669 -1.4418  0.3607
 2380TIP3   OH228698   2.109   3.802   7.567  0.0785  0.1593 -0.7773
 2380TIP3    H128699   2.183   3.830   7.514  0.3627 -0.7164 -0.8606
 2380TIP3    H228700   2.133   3.714   7.597 -0.0025  0.6819  0.9318
 2381TIP3   OH228701   6.743   1.492   7.645  0.4792  0.4152  0.2577
 2381TIP3    H128702   6.784   1.446   7.572  0.6734  0.8366  0.0971
 2381TIP3    H228703   6.744   1.429   7.717 -1.5829 -0.7711 -0.6520
 2382TIP3   OH228704   5.460   3.596   2.562 -0.0050  0.0077 -0.2554
 2382TIP3    H128705   5.378   3.612   2.609 -0.4376  0.1549 -1.0426
 2382TIP3    H228706   5.467   3.500   2.557 -0.9909 -0.0171 -1.6272
 2383TIP3   OH228707   0.276   0.218   0.695  0.1115 -0.2096  0.2434
 2383TIP3    H128708   0.273   0.141   0.751 -0.6010 -1.0730 -0.9321
 2383TIP3    H228709   0.249   0.186   0.609  0.2621  1.2627 -0.3824
 2384TIP3   OH228710   0.574   2.119   0.668 -0.2806  0.1605 -0.1891
 2384TIP3    H128711   0.560   2.185   0.600 -1.4108 -0.8284 -0.9687
 2384TIP3    H228712   0.569   2.167   0.751 -0.3244  1.1587 -0.7659
 2385TIP3   OH228713   6.698   2.231   7.257  0.0562 -0.3204 -0.4460
 2385TIP3    H128714   6.605   2.255   7.248 -0.0308  0.4470  1.7724
 2385TIP3    H228715   6.705   2.199   7.347  1.8736 -0.7929 -0.7229
 2386TIP3   OH228716   4.182   6.295   8.635  0.8609  0.0734 -0.1724
 2386TIP3    H128717   4.157   6.376   8.591  0.1471 -0.0910 -0.0776
 2386TIP3    H228718   4.187   6.318   8.728  0.6089 -0.0043 -0.1398
 2387TIP3   OH228719   2.941   2.796   1.564  0.3226 -0.0067  0.5142
 2387TIP3    H128720   2.896   2.716   1.536 -0.4272 -1.3157  4.7624
 2387TIP3    H228721   3.028   2.766   1.591  0.7781  1.0182  0.2304
 2388TIP3   OH228722   2.673   1.009   0.961 -0.6560 -0.1105  0.5460
 2388TIP3    H128723   2.622   0.952   0.903  1.6407 -0.3263 -1.4113
 2388TIP3    H228724   2.624   1.091   0.964 -1.2035 -0.3230 -1.2218
 2389TIP3   OH228725   6.004   3.781   2.762 -0.2478  0.1294  0.8268
 2389TIP3    H128726   6.058   3.830   2.701  1.0553 -0.8089  1.1776
 2389TIP3    H228727   5.944   3.731   2.706  0.5003 -0.2331  0.3324
 2390TIP3   OH228728   2.986   6.282   7.736 -0.2614 -0.7037 -0.1081
 2390TIP3    H128729   2.952   6.356   7.687  1.9055  0.5882  0.2030
 2390TIP3    H228730   3.030   6.321   7.811  2.8759 -2.0320 -1.0750
 2391TIP3   OH228731   4.772   3.903   8.288 -0.0934 -0.0866  0.4788
 2391TIP3    H128732   4.693   3.950   8.259  0.8490  0.3717 -1.4870
 2391TIP3    H228733   4.748   3.810   8.281 -0.9737  0.0348  1.5135
 2392TIP3   OH228734   3.608   1.342   7.508  0.2776 -0.4005 -0.1608
 2392TIP3    H128735   3.547   1.391   7.453 -1.1650 -1.4902  0.4047
 2392TIP3    H228736   3.683   1.401   7.519 -0.9053  1.2192 -0.3937
 2393TIP3   OH228737   6.278   4.201   7.610  0.0567  0.7101 -0.6809
 2393TIP3    H128738   6.371   4.197   7.590  0.3990 -0.3812  0.8879
 2393TIP3    H228739   6.271   4.166   7.699 -1.9987 -0.4260 -1.2198
 2394TIP3   OH228740   2.728   0.318   6.529 -0.3008  0.8283 -0.2134
 2394TIP3    H128741   2.819   0.302   6.552 -0.6198  1.0818  1.3613
 2394TIP3    H228742   2.701   0.241   6.479  0.9717  1.1032 -1.3840
 2395TIP3   OH228743   2.704   6.863   7.180 -0.0386 -0.3615 -0.3711
 2395TIP3    H128744   2.681   6.785   7.232  0.3400  0.3844  0.9708
 2395TIP3    H228745   2.771   6.832   7.119  0.1493 -1.0835  0.1839
 2396TIP3   OH228746   0.285   4.678   7.097  0.4019 -0.4879  0.1599
 2396TIP3    H128747   0.307   4.585   7.084  0.6155 -0.2738 -1.0859
 2396TIP3    H228748   0.329   4.723   7.026 -0.1795  0.5143  0.4231
 2397TIP3   OH228749   6.669   5.015   7.684  0.3344 -0.1104 -0.7653
 2397TIP3    H128750   6.576   5.008   7.708  0.6650  1.5948  1.2246
 2397TIP3    H228751   6.679   4.950   7.614 -2.2225 -0.7324 -0.6910
 2398TIP3   OH228752   2.651   4.711   1.438 -0.7288  0.1846  0.5185
 2398TIP3    H128753   2.606   4.773   1.381 -2.6392 -0.0890  1.6740
 2398TIP3    H228754   2.587   4.641   1.454  1.3201 -2.1525 -0.7085
 2399TIP3   OH228755   0.499   5.429   2.403  0.7643 -0.2374 -0.8063
 2399TIP3    H128756   0.564   5.363   2.427  1.9229  1.1991  0.2421
 2399TIP3    H228757   0.496   5.426   2.307  2.7903 -0.0205 -0.9311
 2400TIP3   OH228758   0.156   5.581   7.664  0.1546 -0.2749  0.2470
 2400TIP3    H128759   0.226   5.621   7.611  1.0233 -1.3326  0.5686
 2400TIP3    H228760   0.105   5.656   7.695  1.0136  0.5169 -0.1749
 2401TIP3   OH228761   4.078   1.468   7.927 -0.1618 -0.3668  0.1561
 2401TIP3    H128762   4.145   1.536   7.920  0.0991 -0.7610 -1.7870
 2401TIP3    H228763   4.098   1.422   8.008  2.0374 -0.5978 -0.4690
 2402TIP3   OH228764   6.472   3.133   0.504  0.4539  0.4814  1.0059
 2402TIP3    H128765   6.565   3.157   0.503  0.2112  1.4731 -0.4356
 2402TIP3    H228766   6.427   3.208   0.465 -0.7276 -0.8341 -0.2707
 2403TIP3   OH228767   5.731   3.272   1.334 -0.4612  0.3997  0.0173
 2403TIP3    H128768   5.766   3.183   1.331  0.4736  0.7858 -0.9977
 2403TIP3    H228769   5.652   3.268   1.280 -0.5113  0.1591  0.1051
 2404TIP3   OH228770   5.931   4.699   8.542 -0.2310 -0.0913 -0.2134
 2404TIP3    H128771   5.899   4.671   8.456 -1.0462 -0.3975  0.1796
 2404TIP3    H228772   5.974   4.622   8.579 -1.5548 -0.5530  0.4311
 2405TIP3   OH228773   2.937   6.731   0.306  0.3908 -0.1023 -0.4408
 2405TIP3    H128774   2.920   6.809   0.253  2.1652 -0.6883 -2.0296
 2405TIP3    H228775   3.008   6.758   0.365  2.2499 -0.8852 -2.1873
 2406TIP3   OH228776   4.621   6.765   0.669  0.1329 -0.3443  0.0324
 2406TIP3    H128777   4.537   6.719   0.665  0.1944 -0.4647  0.1007
 2406TIP3    H228778   4.665   6.743   0.586 -0.4365  0.7664 -0.5828
 2407TIP3   OH228779   6.850   1.558   8.326  0.1479  0.7833  0.5896
 2407TIP3    H128780   6.911   1.632   8.326  0.9153  0.2734 -2.3664
 2407TIP3    H228781   6.792   1.575   8.252  0.5701 -1.6693 -0.3873
 2408TIP3   OH228782   1.258   1.328   1.582  0.5550 -0.6134 -0.1626
 2408TIP3    H128783   1.181   1.322   1.639  1.3324 -0.8486  0.8733
 2408TIP3    H228784   1.332   1.334   1.642  1.3274 -0.0279 -1.1514
 2409TIP3   OH228785   2.091   4.793   2.531  0.0402  0.1848 -0.1294
 2409TIP3    H128786   2.086   4.707   2.489  4.2660 -1.0767  1.4478
 2409TIP3    H228787   2.182   4.801   2.559  0.2459  5.7507 -1.1788
 2410TIP3   OH228788   0.717   5.104   8.449  0.3032  0.1766 -0.3667
 2410TIP3    H128789   0.802   5.116   8.406 -0.1745 -0.0240 -1.4154
 2410TIP3    H228790   0.714   5.010   8.470 -0.7441 -0.4193 -2.8304
 2411TIP3   OH228791   3.755   5.062   1.031  0.1481  0.1029 -0.0129
 2411TIP3    H128792   3.665   5.092   1.015  0.5144  1.7150  0.7791
 2411TIP3    H228793   3.758   5.046   1.125  0.7736  0.2713 -0.0075
 2412TIP3   OH228794   1.613   6.151   7.923 -0.6240 -0.3560  0.1596
 2412TIP3    H128795   1.531   6.182   7.886  0.7590  1.8519 -1.3319
 2412TIP3    H228796   1.634   6.072   7.873 -0.1237  1.0814 -2.0453
 2413TIP3   OH228797   5.557   4.838   0.227 -0.3173  0.5460  0.5979
 2413TIP3    H128798   5.620   4.878   0.287  0.8920 -0.0618 -0.2300
 2413TIP3    H228799   5.607   4.819   0.148 -1.1451 -1.3870  0.4785
 2414TIP3   OH228800   2.528   5.362   7.845 -0.2503  0.9461 -0.7376
 2414TIP3    H128801   2.549   5.356   7.938  0.8436  0.3873 -1.0002
 2414TIP3    H228802   2.455   5.424   7.840 -0.5471  0.7123  0.5171
 2415TIP3   OH228803   6.080   6.574   1.554 -0.3165 -0.1104  0.1195
 2415TIP3    H128804   6.145   6.544   1.618  0.6700  1.2758 -0.1813
 2415TIP3    H228805   5.996   6.549   1.592  0.3634 -2.7866  0.0829
 2416TIP3   OH228806   6.014   3.312   1.427  0.1785  0.5157  0.5368
 2416TIP3    H128807   5.949   3.336   1.361  0.9122  0.2378 -0.3175
 2416TIP3    H228808   6.057   3.394   1.449  0.6015  0.4673 -0.0810
 2417TIP3   OH228809   4.820   2.691   0.549 -0.6188  0.0914  0.0721
 2417TIP3    H128810   4.915   2.702   0.538 -0.8900  2.5537 -0.3172
 2417TIP3    H228811   4.796   2.624   0.485  0.5615  0.9003 -1.2684
 2418TIP3   OH228812   1.273   0.609   7.342  0.3708  0.4139 -0.0517
 2418TIP3    H128813   1.213   0.595   7.269 -1.9534  2.9293  1.2116
 2418TIP3    H228814   1.316   0.693   7.322 -0.2130  1.0768  1.3465
 2419TIP3   OH228815   1.925   1.451   1.821 -0.3721  0.2006 -0.0322
 2419TIP3    H128816   2.004   1.491   1.786  1.9824 -2.1576  2.2045
 2419TIP3    H228817   1.903   1.381   1.760  1.9852 -1.9740  1.4147
 2420TIP3   OH228818   4.588   5.911   2.252  0.2277  0.3636  0.2430
 2420TIP3    H128819   4.532   5.898   2.328  1.4799 -1.9863  0.8487
 2420TIP3    H228820   4.529   5.944   2.183 -1.2387  0.9186  1.7092
 2421TIP3   OH228821   2.464   2.316   1.566  0.1054  0.0817  0.2823
 2421TIP3    H128822   2.552   2.355   1.564  0.3223 -0.3574  1.0298
 2421TIP3    H228823   2.480   2.222   1.566 -0.4209 -0.0717 -2.0478
 2422TIP3   OH228824   1.792   5.505   1.460  0.0552  0.0817 -0.1276
 2422TIP3    H128825   1.880   5.475   1.438 -0.3743 -1.3064 -0.1023
 2422TIP3    H228826   1.804   5.569   1.530  1.1558  1.4093 -1.4615
 2423TIP3   OH228827   5.905   5.271   1.337 -0.3136  0.3435  1.0091
 2423TIP3    H128828   5.876   5.359   1.359  0.1239  0.3711  1.4962
 2423TIP3    H228829   5.895   5.265   1.242  0.4732  1.2249  0.8600
 2424TIP3   OH228830   1.406   1.673   6.800 -0.4888  0.0978 -0.0269
 2424TIP3    H128831   1.482   1.649   6.854 -0.3486  1.5211  0.4305
 2424TIP3    H228832   1.445   1.709   6.720 -0.6987 -1.5585 -0.9177
 2425TIP3   OH228833   5.866   5.980   7.509  0.5989 -0.1025 -0.9546
 2425TIP3    H128834   5.899   5.899   7.470  1.4874 -0.1270 -0.2001
 2425TIP3    H228835   5.935   6.006   7.570  1.2020  2.1951 -2.4827
 2426TIP3   OH228836   4.982   6.190   1.129  0.4309 -0.8162  0.5254
 2426TIP3    H128837   4.968   6.116   1.188 -0.4105 -1.8496 -0.9192
 2426TIP3    H228838   5.001   6.150   1.044 -2.2127  0.5212 -0.8251
 2427TIP3   OH228839   2.472   6.014   7.280 -0.2134 -0.0394  0.4276
 2427TIP3    H128840   2.393   6.020   7.334  0.3454 -0.4979  1.3139
 2427TIP3    H228841   2.534   5.964   7.333 -0.0544 -1.5690 -1.1257
 2428TIP3   OH228842   2.696   3.500   8.590 -0.4192 -0.3787  0.2333
 2428TIP3    H128843   2.673   3.438   8.660 -0.0320  0.2656  0.9551
 2428TIP3    H228844   2.774   3.463   8.550 -0.5392 -0.6656  0.2635
 2429TIP3   OH228845   2.194   3.867   8.208  0.9527  0.4978 -0.1763
 2429TIP3    H128846   2.277   3.826   8.234  0.0128 -0.1605  1.9929
 2429TIP3    H228847   2.162   3.813   8.136  0.4704 -1.8316  1.6471
 2430TIP3   OH228848   0.432   0.228   1.469  0.6126 -0.1422 -0.2262
 2430TIP3    H128849   0.394   0.315   1.483 -0.6824 -0.6869 -0.2962
 2430TIP3    H228850   0.453   0.197   1.557  2.0318  0.6268 -0.2548
 2431TIP3   OH228851   0.086   4.176   1.669  0.0619 -0.1013 -0.1958
 2431TIP3    H128852   0.154   4.171   1.736 -0.0070  0.5940 -0.0744
 2431TIP3    H228853   0.134   4.170   1.586  0.6281  3.1667 -0.2357
 2432TIP3   OH228854   1.613   3.271   8.314 -0.8422 -0.0472 -0.5872
 2432TIP3    H128855   1.651   3.187   8.338  0.6725  0.6918 -0.2497
 2432TIP3    H228856   1.688   3.328   8.301 -1.8359  1.2939 -0.6843
 2433TIP3   OH228857   2.800   0.072   0.201 -0.2163  0.2085  0.3989
 2433TIP3    H128858   2.787   0.043   0.110  1.6876  1.1299 -0.2334
 2433TIP3    H228859   2.779   0.166   0.199 -0.2768  0.2063  0.9292
 2434TIP3   OH228860   1.814   0.052   0.389 -1.0903  0.1783 -0.0636
 2434TIP3    H128861   1.809   0.007   0.304 -1.4567  0.7978 -0.3792
 2434TIP3    H228862   1.759   0.130   0.378  1.3794  2.0261 -0.3436
 2435TIP3   OH228863   1.673   5.485   7.312  0.0241  0.0763  0.4849
 2435TIP3    H128864   1.589   5.444   7.290  0.2695  0.3425 -1.0566
 2435TIP3    H228865   1.720   5.418   7.361 -0.3115 -0.8142 -0.3725
 2436TIP3   OH228866   0.073   6.524   1.304 -0.0071  0.3653 -0.1346
 2436TIP3    H128867  -0.003   6.582   1.301 -1.6619 -1.7446 -1.8179
 2436TIP3    H228868   0.066   6.470   1.225  2.6778 -0.6338  0.2037
 2437TIP3   OH228869   0.700   2.280   7.379 -0.2926 -0.1598 -0.1383
 2437TIP3    H128870   0.641   2.330   7.436 -0.2173 -1.5678  1.2307
 2437TIP3    H228871   0.661   2.193   7.374  1.4833 -1.0460  0.5776
 2438TIP3   OH228872   0.018   3.377   1.643 -0.2592 -0.4423  0.2897
 2438TIP3    H128873   0.009   3.357   1.550 -2.6412 -0.9165  0.5426
 2438TIP3    H228874  -0.053   3.439   1.662  1.0109  0.7127  1.5380
 2439TIP3   OH228875   3.763   4.042   8.143  0.3518  0.1885  0.0712
 2439TIP3    H128876   3.793   3.982   8.075  0.2389  1.7763 -1.4554
 2439TIP3    H228877   3.689   3.997   8.184  0.7858 -1.0499 -0.4517
 2440TIP3   OH228878   0.706   0.382   8.311  0.0756  0.3449 -0.0967
 2440TIP3    H128879   0.616   0.400   8.285 -0.0050 -0.4861 -0.4033
 2440TIP3    H228880   0.759   0.429   8.247 -0.1305 -1.0604 -1.3564
 2441TIP3   OH228881   0.585   0.910   1.678 -0.2124  0.1537 -0.3550
 2441TIP3    H128882   0.640   0.937   1.752  1.2457 -0.5314 -1.1431
 2441TIP3    H228883   0.560   0.992   1.635 -0.7438  0.5298  0.6459
 2442TIP3   OH228884   6.636   3.664   0.066 -0.1668 -0.1318 -0.4100
 2442TIP3    H128885   6.655   3.571   0.050 -0.9405 -0.0387 -2.0625
 2442TIP3    H228886   6.549   3.677   0.029 -0.8144  0.8894  1.3509
 2443TIP3   OH228887   6.358   4.736   7.979 -0.3903 -0.2165  0.0862
 2443TIP3    H128888   6.405   4.654   7.998  1.4617  0.8972  0.5354
 2443TIP3    H228889   6.323   4.763   8.064  0.8517  0.5386  0.3779
 2444TIP3   OH228890   2.900   2.943   1.151 -0.0971  0.6667  0.5218
 2444TIP3    H128891   2.949   2.903   1.079  2.0782  2.1423  1.0819
 2444TIP3    H228892   2.820   2.891   1.157  0.3668 -0.4881 -1.9052
 2445TIP3   OH228893   3.135   0.090   0.174 -0.2465 -0.0151 -0.0123
 2445TIP3    H128894   3.134   0.185   0.187 -1.6887  0.1190 -0.8859
 2445TIP3    H228895   3.158   0.055   0.260 -0.5739  1.1058  0.5614
 2446TIP3   OH228896   4.111   5.189   1.543  0.4643 -0.2624  0.4272
 2446TIP3    H128897   4.045   5.185   1.611  0.4060 -0.7839  0.3441
 2446TIP3    H228898   4.141   5.098   1.533  1.6869  0.0623  0.9575
 2447TIP3   OH228899   4.867   6.365   6.810  0.8517 -0.2464 -0.3181
 2447TIP3    H128900   4.887   6.319   6.892  1.7983 -0.1677 -0.4916
 2447TIP3    H228901   4.935   6.337   6.750 -0.5023 -1.2116 -1.4624
 2448TIP3   OH228902   3.251   1.963   7.764  0.5786 -0.2722  0.1492
 2448TIP3    H128903   3.176   2.023   7.771  0.1878 -0.7404 -0.0272
 2448TIP3    H228904   3.327   2.020   7.774  0.2044  0.2250  0.2274
 2449TIP3   OH228905   5.657   0.344   8.094 -0.0814 -0.2772 -0.2365
 2449TIP3    H128906   5.684   0.340   8.186  1.8203  0.3265 -0.7223
 2449TIP3    H228907   5.586   0.408   8.093 -0.7123 -0.9143  0.9240
 2450TIP3   OH228908   5.565   6.748   0.620 -0.0310 -0.2836  0.7090
 2450TIP3    H128909   5.487   6.721   0.572  0.2053 -1.4147  0.9456
 2450TIP3    H228910   5.566   6.692   0.697  0.5571  0.3118  1.1371
 2451TIP3   OH228911   5.969   2.668   6.932  0.0531 -0.1595  0.2843
 2451TIP3    H128912   6.047   2.718   6.955 -0.0168 -0.6369  1.6471
 2451TIP3    H228913   5.992   2.577   6.950  0.0697 -0.6325 -1.8779
 2452TIP3   OH228914   3.452   3.614   7.259  0.3380 -0.0681 -0.1256
 2452TIP3    H128915   3.529   3.557   7.261  0.6568  0.3487 -0.4086
 2452TIP3    H228916   3.378   3.554   7.269  0.4968 -0.8958 -2.9796
 2453TIP3   OH228917   2.171   6.775   7.720  0.1128  0.7911  0.0231
 2453TIP3    H128918   2.089   6.728   7.707  0.2988 -0.1543  1.9270
 2453TIP3    H228919   2.234   6.708   7.744  1.3207  1.5777 -0.8235
 2454TIP3   OH228920   3.980   2.410   0.225  0.1048 -0.2220  0.0783
 2454TIP3    H128921   3.900   2.400   0.174 -0.4234 -0.2421  0.8899
 2454TIP3    H228922   4.041   2.454   0.166 -1.5312  2.7422  0.4105
 2455TIP3   OH228923   6.051   3.662   0.854  0.0293  0.4837  0.4672
 2455TIP3    H128924   6.044   3.676   0.760  1.0163 -0.4934  0.2171
 2455TIP3    H228925   6.144   3.676   0.873  0.1283 -0.7863  1.0170
 2456TIP3   OH228926   1.119   1.615   7.043 -0.4457 -0.7834  0.4784
 2456TIP3    H128927   1.059   1.670   6.993  0.7563 -1.4689 -1.8482
 2456TIP3    H228928   1.181   1.677   7.082 -0.1521 -0.3268 -0.6587
 2457TIP3   OH228929   4.237   2.525   7.695 -0.4780 -0.5302  0.0675
 2457TIP3    H128930   4.241   2.433   7.723 -1.1570 -1.1465 -1.7047
 2457TIP3    H228931   4.143   2.542   7.683 -0.4758  0.8271  1.6100
 2458TIP3   OH228932   2.884   5.182   1.285 -0.1203 -0.6211  0.9261
 2458TIP3    H128933   2.815   5.163   1.349  0.2198  2.4684  2.3886
 2458TIP3    H228934   2.843   5.237   1.219  0.3820 -0.8014  0.4499
 2459TIP3   OH228935   3.709   5.732   8.555 -0.0626 -0.4506 -0.5301
 2459TIP3    H128936   3.797   5.697   8.539 -0.3084 -1.4865  0.2583
 2459TIP3    H228937   3.723   5.825   8.572  1.0527 -0.8411  0.8853
 2460TIP3   OH228938   6.188   0.546   8.339 -0.1838  0.2040 -0.0235
 2460TIP3    H128939   6.165   0.459   8.370 -0.2405 -0.4344 -1.7320
 2460TIP3    H228940   6.108   0.579   8.299  0.5260 -0.1212 -1.8265
 2461TIP3   OH228941   5.268   0.809   6.938 -0.7152 -0.2068 -0.1328
 2461TIP3    H128942   5.268   0.715   6.957 -2.3985 -0.0457  0.9073
 2461TIP3    H228943   5.265   0.814   6.842  0.3437 -1.1851 -0.2310
 2462TIP3   OH228944   2.009   1.078   2.077 -0.4171 -0.2791  0.1093
 2462TIP3    H128945   1.918   1.107   2.071 -0.8792 -1.4571  1.0488
 2462TIP3    H228946   2.056   1.150   2.120 -0.9532  0.2185 -0.1339
 2463TIP3   OH228947   4.962   1.843   2.078  0.3519  0.2119 -0.1613
 2463TIP3    H128948   4.954   1.922   2.131  0.2885  1.5125 -2.0009
 2463TIP3    H228949   4.916   1.776   2.128  0.3635  1.3268  1.4399
 2464TIP3   OH228950   6.435   5.550   0.165  0.7429  0.1510 -0.0525
 2464TIP3    H128951   6.394   5.575   0.248 -1.2958 -3.0091  0.0517
 2464TIP3    H228952   6.501   5.486   0.189  2.5000  1.6339 -0.6878
 2465TIP3   OH228953   6.729   2.335   0.013  0.3886  0.1841 -0.8466
 2465TIP3    H128954   6.742   2.429   0.024 -0.2574  0.1185  0.7897
 2465TIP3    H228955   6.817   2.298   0.016  0.5218  0.5722  0.5614
 2466TIP3   OH228956   5.854   5.458   6.880 -0.2072 -0.0489 -0.5821
 2466TIP3    H128957   5.777   5.466   6.824 -1.0198  1.5668  0.6638
 2466TIP3    H228958   5.909   5.532   6.855 -0.7651  0.9379  0.9330
 2467TIP3   OH228959   6.553   3.232   1.154  0.0703 -0.8418  0.2705
 2467TIP3    H128960   6.552   3.262   1.245 -0.7374 -1.0985  0.3514
 2467TIP3    H228961   6.467   3.254   1.121 -0.4304 -2.7177  0.2242
 2468TIP3   OH228962   0.709   5.356   7.367 -0.5762 -0.3325 -0.3253
 2468TIP3    H128963   0.710   5.425   7.433  0.0098 -1.7946  1.2607
 2468TIP3    H228964   0.798   5.355   7.332 -0.7643  0.1438 -0.8225
 2469TIP3   OH228965   4.593   6.697   0.292  0.8494  0.0047 -0.0665
 2469TIP3    H128966   4.569   6.789   0.302  1.3672  0.2562 -0.9858
 2469TIP3    H228967   4.627   6.691   0.203  2.1304 -0.7862  0.4428
 2470TIP3   OH228968   6.675   2.111   1.068  0.8937 -0.0347  0.5896
 2470TIP3    H128969   6.624   2.103   1.149  2.3598 -0.9752  1.4508
 2470TIP3    H228970   6.654   2.032   1.019  0.0132  0.5308  0.0225
 2471TIP3   OH228971   4.133   4.462   2.468  0.1414 -0.4799 -0.0484
 2471TIP3    H128972   4.228   4.474   2.475  0.4462 -1.5229 -1.7281
 2471TIP3    H228973   4.116   4.381   2.517 -0.0804  0.3024  1.2041
 2472TIP3   OH228974   5.847   5.701   6.790 -0.6068  0.5918  0.3569
 2472TIP3    H128975   5.859   5.796   6.790 -0.4200  0.5906  2.1547
 2472TIP3    H228976   5.798   5.684   6.709 -0.3481  2.1652 -0.1778
 2473TIP3   OH228977   1.479   2.543   0.399 -0.1732  0.7510 -0.1275
 2473TIP3    H128978   1.427   2.464   0.387 -0.3241  0.8686 -0.2515
 2473TIP3    H228979   1.465   2.567   0.491 -1.5910  1.6549 -0.5511
 2474TIP3   OH228980   3.502   4.130   0.840 -0.3011  0.0530 -0.3989
 2474TIP3    H128981   3.453   4.182   0.775  0.0804  0.6091 -0.2442
 2474TIP3    H228982   3.501   4.183   0.919  1.1450  0.4091 -0.5842
 2475TIP3   OH228983   6.376   3.836   7.828 -0.1011 -0.1144 -0.4291
 2475TIP3    H128984   6.329   3.916   7.850 -2.2204 -1.8397  1.9760
 2475TIP3    H228985   6.307   3.777   7.796  1.2706 -1.2357 -1.3971
 2476TIP3   OH228986   4.854   2.350   7.034  0.2961 -0.7090  0.2321
 2476TIP3    H128987   4.912   2.298   6.979 -0.1765 -1.0060  0.0002
 2476TIP3    H228988   4.903   2.430   7.053  0.9667 -1.1801  0.4743
 2477TIP3   OH228989   4.980   3.950   8.446  0.0784 -0.0931 -0.1976
 2477TIP3    H128990   4.904   3.936   8.390  0.4484  0.3428 -0.8286
 2477TIP3    H228991   4.962   4.033   8.490 -0.5172 -0.7632  0.8621
 2478TIP3   OH228992   4.768   1.480   1.377 -0.4529 -0.0800 -0.3752
 2478TIP3    H128993   4.688   1.473   1.324 -1.8098  2.7615  1.0731
 2478TIP3    H228994   4.787   1.573   1.378  0.0621 -0.0969  3.2633
 2479TIP3   OH228995   4.233   1.570   2.104  0.4658  0.4832  0.4260
 2479TIP3    H128996   4.261   1.651   2.062  1.2828  0.7428  1.4263
 2479TIP3    H228997   4.308   1.545   2.158  1.4656 -2.5252 -2.0518
 2480TIP3   OH228998   5.661   0.126   1.438 -0.1009  0.8564 -0.3530
 2480TIP3    H128999   5.659   0.198   1.375  0.6253 -0.9444 -2.5565
 2480TIP3    H229000   5.575   0.129   1.479 -1.5358  0.7340 -3.1132
 2481TIP3   OH229001   6.267   6.170   0.766 -0.6474  0.8468 -0.0669
 2481TIP3    H129002   6.359   6.195   0.759 -0.7332  1.0352 -0.5053
 2481TIP3    H229003   6.269   6.075   0.774 -0.5440  0.4590 -3.3038
 2482TIP3   OH229004   2.811   4.376   0.557  0.1841  0.2006 -0.3685
 2482TIP3    H129005   2.783   4.435   0.626  0.3174  1.2242 -1.1564
 2482TIP3    H229006   2.762   4.296   0.572  2.0448 -0.5592  2.3972
 2483TIP3   OH229007   5.783   3.939   0.495 -0.3236 -0.0792 -0.0278
 2483TIP3    H129008   5.689   3.950   0.506 -0.5542 -1.9756  0.2577
 2483TIP3    H229009   5.822   3.987   0.568 -1.1374 -0.3031  0.5576
 2484TIP3   OH229010   4.042   6.099   6.445  0.4585  0.2406 -0.5420
 2484TIP3    H129011   4.111   6.126   6.384  0.5780  0.2992 -0.3833
 2484TIP3    H229012   3.966   6.151   6.420  0.9067  1.3282  0.2618
 2485TIP3   OH229013   6.672   0.973   0.295  0.1882  0.7857 -0.7229
 2485TIP3    H129014   6.719   1.048   0.329  0.7084  0.0791  0.1500
 2485TIP3    H229015   6.654   0.995   0.204  1.2683  1.5107 -0.7732
 2486TIP3   OH229016   4.220   6.743   1.382  0.4681 -0.0743 -0.4529
 2486TIP3    H129017   4.196   6.836   1.374  2.2227  0.4568 -0.1507
 2486TIP3    H229018   4.316   6.743   1.376  0.5482 -1.8020  0.2065
 2487TIP3   OH229019   1.315   6.393   8.107  0.0202  0.6996 -0.5618
 2487TIP3    H129020   1.320   6.355   8.195 -0.2502  2.6659  0.3553
 2487TIP3    H229021   1.222   6.405   8.091 -0.1500 -2.0028 -2.2730
 2488TIP3   OH229022   6.076   5.615   6.523 -0.0482 -0.0234  0.5638
 2488TIP3    H129023   6.032   5.638   6.605  1.4978 -0.4732  1.5769
 2488TIP3    H229024   6.088   5.698   6.478  2.8906  0.9655  2.8305
 2489TIP3   OH229025   6.521   4.062   6.904  0.4439 -0.0596 -0.5506
 2489TIP3    H129026   6.507   3.968   6.893  1.2340 -0.3714  0.9131
 2489TIP3    H229027   6.463   4.102   6.839 -0.2536 -1.5334 -0.8884
 2490TIP3   OH229028   3.787   2.082   1.376 -0.1293  0.2856  0.1795
 2490TIP3    H129029   3.743   2.143   1.317 -1.5428  0.5726  1.4689
 2490TIP3    H229030   3.757   1.995   1.348  0.6545  0.2657 -0.6579
 2491TIP3   OH229031   5.488   0.800   0.300 -0.2214 -1.1757  0.2599
 2491TIP3    H129032   5.572   0.796   0.255 -0.3337  0.2037 -0.1086
 2491TIP3    H229033   5.505   0.762   0.387  0.8407 -0.6908  0.2737
 2492TIP3   OH229034   5.179   4.067   8.067 -0.1234  0.4648 -0.5655
 2492TIP3    H129035   5.181   4.093   7.974 -1.3350 -0.8825 -1.0068
 2492TIP3    H229036   5.178   4.150   8.114  2.1865  1.1914 -1.6676
 2493TIP3   OH229037   2.680   2.946   6.508  0.1819 -0.1113 -0.1474
 2493TIP3    H129038   2.761   2.993   6.524  0.8367 -1.1699 -0.2402
 2493TIP3    H229039   2.669   2.890   6.585 -0.4966  0.0675 -0.1061
 2494TIP3   OH229040   2.261   5.906   0.259 -0.1557 -0.3934 -0.5760
 2494TIP3    H129041   2.179   5.926   0.305 -1.0408 -3.3128 -0.6672
 2494TIP3    H229042   2.253   5.949   0.175 -1.1892  0.1251 -0.2289
 2495TIP3   OH229043   0.109   4.996   7.881 -0.0351 -0.6545 -0.2807
 2495TIP3    H129044   0.024   5.036   7.862  0.7436  0.0734 -2.5257
 2495TIP3    H229045   0.115   4.998   7.977 -2.0836  0.2226 -0.1106
 2496TIP3   OH229046   1.791   3.374   7.793 -0.3040 -0.2034  0.0529
 2496TIP3    H129047   1.702   3.347   7.770 -1.5540  2.6107  1.0891
 2496TIP3    H229048   1.827   3.409   7.711 -0.5363 -0.4683 -0.1634
 2497TIP3   OH229049   5.775   6.130   0.506  0.2623  0.5473 -0.4086
 2497TIP3    H129050   5.723   6.050   0.510 -1.6595  1.7194 -0.6923
 2497TIP3    H229051   5.865   6.101   0.521 -0.5273 -1.4852  0.8050
 2498TIP3   OH229052   1.631   1.004   7.085  0.0694 -0.2310 -0.6474
 2498TIP3    H129053   1.668   0.920   7.056  0.9311 -0.6540  1.5328
 2498TIP3    H229054   1.685   1.031   7.159  0.6244  2.9326 -2.0292
 2499TIP3   OH229055   3.299   1.551   6.776  0.2132  0.0666 -0.8246
 2499TIP3    H129056   3.336   1.496   6.707 -2.3607 -2.8354 -0.0980
 2499TIP3    H229057   3.204   1.534   6.772 -0.3144  1.9157  1.6467
 2500TIP3   OH229058   5.466   2.228   1.286  0.0733 -0.2259 -0.2118
 2500TIP3    H129059   5.524   2.165   1.243  0.3621 -0.4288  0.4634
 2500TIP3    H229060   5.415   2.266   1.215  0.5328 -0.5660 -0.7324
 2501TIP3   OH229061   4.103   2.748   1.508  0.1025  0.0482 -0.3407
 2501TIP3    H129062   4.011   2.765   1.528  0.4363  1.3327  0.1698
 2501TIP3    H229063   4.119   2.660   1.543 -1.4984 -1.2206 -2.4961
 2502TIP3   OH229064   1.012   2.608   8.524  0.0827 -0.1441  0.6021
 2502TIP3    H129065   0.916   2.607   8.531  0.1057 -1.1382  0.9682
 2502TIP3    H229066   1.042   2.612   8.614  0.4097  1.5657  0.4513
 2503TIP3   OH229067   4.892   6.547   0.942  0.7616 -0.1476  0.3711
 2503TIP3    H129068   4.800   6.544   0.917  0.4217  0.0345  1.5323
 2503TIP3    H229069   4.914   6.456   0.964  0.5666 -0.0351  1.0568
 2504TIP3   OH229070   2.147   1.199   7.726 -0.9377  0.5170 -0.0702
 2504TIP3    H129071   2.070   1.255   7.720 -0.0093  1.8134 -0.3452
 2504TIP3    H229072   2.200   1.237   7.796 -0.0497  0.3047 -0.5994
 2505TIP3   OH229073   3.955   3.127   1.290 -0.2597 -0.2048 -0.5876
 2505TIP3    H129074   4.009   3.206   1.287 -1.5088  0.7523  1.0613
 2505TIP3    H229075   4.019   3.055   1.290  0.9114  0.7875 -1.2727
 2506TIP3   OH229076   1.120   1.276   1.825  0.4122 -1.0790  0.5577
 2506TIP3    H129077   1.076   1.231   1.897 -0.4240  1.8043  2.0202
 2506TIP3    H229078   1.123   1.368   1.853 -0.4169  0.3104 -3.3013
 2507TIP3   OH229079   0.600   1.252   7.990  0.4954  0.1077  0.3266
 2507TIP3    H129080   0.650   1.189   8.043 -2.9981 -0.2404  3.6537
 2507TIP3    H229081   0.552   1.198   7.928  1.5852  0.1163 -0.5526
 2508TIP3   OH229082   4.549   4.540   8.253 -0.2956  0.2965  0.4487
 2508TIP3    H129083   4.511   4.459   8.287 -1.4849  0.3942 -0.5720
 2508TIP3    H229084   4.643   4.528   8.262 -0.5160 -0.1506  2.6202
 2509TIP3   OH229085   1.353   6.295   6.685 -0.0131 -0.3153  0.5568
 2509TIP3    H129086   1.280   6.250   6.643 -0.8848  0.2269  1.4601
 2509TIP3    H229087   1.422   6.229   6.690 -0.1577 -0.6087 -1.0035
 2510TIP3   OH229088   1.764   6.261   2.273  0.9512 -0.1465 -0.0448
 2510TIP3    H129089   1.859   6.265   2.275  1.1701 -2.8384 -0.5350
 2510TIP3    H229090   1.739   6.311   2.195  1.9545  0.4721  0.0106
 2511TIP3   OH229091   2.820   4.512   8.039 -0.0892 -0.2773  0.2781
 2511TIP3    H129092   2.793   4.584   7.982  0.0638 -0.7490 -0.3967
 2511TIP3    H229093   2.905   4.540   8.073  0.3960 -0.5213 -0.6893
 2512TIP3   OH229094   6.482   4.535   0.276  0.3827 -0.1488 -0.7133
 2512TIP3    H129095   6.514   4.598   0.341 -1.1175  0.2882 -0.3688
 2512TIP3    H229096   6.468   4.454   0.326  0.1882 -0.1044 -0.6946
 2513TIP3   OH229097   1.899   1.296   8.536 -0.0134 -0.2046  0.1644
 2513TIP3    H129098   1.908   1.208   8.499  1.0072  0.6424 -1.7239
 2513TIP3    H229099   1.952   1.293   8.616  2.3123 -0.6076 -1.2814
 2514TIP3   OH229100   1.348   3.370   1.948  0.0374  0.2268 -0.5011
 2514TIP3    H129101   1.271   3.358   1.892  1.6439 -0.6244 -2.6347
 2514TIP3    H229102   1.311   3.394   2.033 -2.6626 -1.5201 -1.0374
 2515TIP3   OH229103   1.553   1.443   7.812  0.1468 -0.1873 -0.2572
 2515TIP3    H129104   1.516   1.489   7.736 -1.6939  0.1106  0.7825
 2515TIP3    H229105   1.545   1.505   7.884  1.2038 -0.7365  0.3550
 2516TIP3   OH229106   2.932   5.900   7.204 -0.5289  0.0820  0.3192
 2516TIP3    H129107   2.872   5.879   7.133 -1.3831  1.3705  0.6182
 2516TIP3    H229108   2.875   5.927   7.276  0.3682  0.0488  1.0658
 2517TIP3   OH229109   4.573   2.376   7.451 -0.3476 -0.2789 -0.1678
 2517TIP3    H129110   4.583   2.437   7.378  1.0993 -0.3618 -0.0589
 2517TIP3    H229111   4.601   2.292   7.417 -0.5851 -0.5213  0.2189
 2518TIP3   OH229112   5.694   3.773   8.080 -0.3354  0.5288  0.0427
 2518TIP3    H129113   5.648   3.812   8.006 -1.6767  1.6342  1.3744
 2518TIP3    H229114   5.670   3.829   8.154 -0.0614 -1.2402  1.5379
 2519TIP3   OH229115   4.288   3.221   2.136 -0.1102 -0.1716  0.0423
 2519TIP3    H129116   4.369   3.192   2.178 -0.5209  0.3423  1.2271
 2519TIP3    H229117   4.289   3.316   2.144 -0.6650 -0.1391 -0.2460
 2520TIP3   OH229118   4.947   0.167   8.159 -0.1891 -0.0078  0.4436
 2520TIP3    H129119   4.914   0.210   8.080  1.2460 -0.0441 -0.1969
 2520TIP3    H229120   5.007   0.099   8.127  0.3774 -0.0519  1.5530
 2521TIP3   OH229121   3.461   4.513   0.459  0.3838  0.0366 -0.1446
 2521TIP3    H129122   3.522   4.441   0.476  0.1256  0.0100  0.6745
 2521TIP3    H229123   3.410   4.522   0.539 -1.1825 -0.3937 -1.0417
 2522TIP3   OH229124   1.397   5.909   6.972 -0.2622 -0.5084 -0.0578
 2522TIP3    H129125   1.367   5.944   7.056 -0.7469 -0.9250 -0.0531
 2522TIP3    H229126   1.356   5.966   6.907  1.3359  0.7605  0.0105
 2523TIP3   OH229127   2.795   5.638   0.050  0.1215  0.3446 -0.0215
 2523TIP3    H129128   2.846   5.557   0.050 -0.3315  0.0348 -1.1887
 2523TIP3    H229129   2.801   5.671   0.139  0.4868 -0.8680  0.4155
 2524TIP3   OH229130   3.542   1.174   7.728  0.5492  0.2030 -0.0159
 2524TIP3    H129131   3.599   1.227   7.783  2.7524 -1.2277 -0.8084
 2524TIP3    H229132   3.545   1.217   7.642 -0.8586  0.9845  0.2880
 2525TIP3   OH229133   0.436   0.089   7.368 -0.3351  0.3473 -0.3467
 2525TIP3    H129134   0.404   0.177   7.386  0.4199  0.7866 -1.0555
 2525TIP3    H229135   0.394   0.064   7.286 -0.1228  0.2860 -0.4396
 2526TIP3   OH229136   6.105   2.495   6.688  0.1233 -0.0970 -0.1416
 2526TIP3    H129137   6.143   2.582   6.703 -1.4706  0.6483 -0.2479
 2526TIP3    H229138   6.043   2.484   6.760 -1.1284 -0.2835 -1.2184
 2527TIP3   OH229139   4.857   2.674   6.807 -0.1238  0.9882  0.0333
 2527TIP3    H129140   4.899   2.750   6.768 -0.1031  0.1518 -1.7027
 2527TIP3    H229141   4.929   2.620   6.839  0.1499  0.0427 -2.0106
 2528TIP3   OH229142   4.029   4.960   1.104 -0.4813  0.2216 -0.2875
 2528TIP3    H129143   4.045   5.050   1.077  0.4457 -0.2494 -1.3739
 2528TIP3    H229144   4.014   4.913   1.022  2.6067 -1.3060 -0.0970
 2529TIP3   OH229145   0.169   0.021   6.203 -0.0567  0.0536  0.4282
 2529TIP3    H129146   0.109   0.085   6.242  0.5195 -0.9410  3.1339
 2529TIP3    H229147   0.186   0.055   6.115 -4.1516  0.6121 -0.3247
 2530TIP3   OH229148   5.986   0.387   1.092  0.6493 -0.2923 -0.8432
 2530TIP3    H129149   6.024   0.464   1.135 -1.8175  0.0354  0.9580
 2530TIP3    H229150   6.060   0.326   1.083  2.0713  1.1748  0.3020
 2531TIP3   OH229151   3.708   3.838   7.861 -0.3291 -0.2132 -0.6651
 2531TIP3    H129152   3.693   3.768   7.797 -0.0092  1.0722 -2.2315
 2531TIP3    H229153   3.628   3.842   7.912 -0.7249 -1.0843 -1.1897
 2532TIP3   OH229154   3.637   4.535   1.157  0.0440 -0.8112 -0.6803
 2532TIP3    H129155   3.601   4.587   1.229 -1.3350 -1.6696 -0.7269
 2532TIP3    H229156   3.615   4.585   1.078  0.1814 -0.6589 -0.6250
 2533TIP3   OH229157   1.001   6.444   7.461 -0.2078  0.5575 -0.0954
 2533TIP3    H129158   0.982   6.529   7.499  1.7083  1.3605 -0.8034
 2533TIP3    H229159   1.009   6.385   7.536 -1.6354  0.9525  0.3943
 2534TIP3   OH229160   0.002   1.183   8.349  0.0404 -0.2319 -0.2844
 2534TIP3    H129161  -0.046   1.157   8.270 -0.9051  0.9900 -0.1532
 2534TIP3    H229162   0.029   1.101   8.389 -1.3706 -0.9599 -0.7454
 2535TIP3   OH229163   3.106   3.347   0.358  0.3031 -0.2463 -0.4535
 2535TIP3    H129164   3.195   3.375   0.383  0.0032  0.7032 -0.3882
 2535TIP3    H229165   3.120   3.280   0.291  1.0870 -1.1006  0.5207
 2536TIP3   OH229166   6.873   1.049   8.095  0.0564  0.1141 -0.3011
 2536TIP3    H129167   6.948   1.082   8.047  0.3013  1.5970  1.0046
 2536TIP3    H229168   6.810   1.122   8.094  0.5308  0.6662  2.5183
 2537TIP3   OH229169   2.920   6.345   8.397 -0.3505 -0.8405  0.3327
 2537TIP3    H129170   3.009   6.316   8.378 -0.1748  0.8147 -1.6464
 2537TIP3    H229171   2.911   6.334   8.492  2.1149 -0.6433  0.6500
 2538TIP3   OH229172   0.094   1.556   0.318  0.2849 -0.3438  0.5715
 2538TIP3    H129173   0.036   1.495   0.273 -0.2593  1.0800 -0.7701
 2538TIP3    H229174   0.086   1.534   0.411 -1.5265 -0.9332  0.3053
 2539TIP3   OH229175   0.416   5.065   7.163 -0.3094 -0.0078 -0.1117
 2539TIP3    H129176   0.421   5.117   7.083 -0.0469  1.8315  1.0570
 2539TIP3    H229177   0.456   4.981   7.139 -2.1916 -0.3222 -2.4951
 2540TIP3   OH229178   6.207   0.512   0.755  0.1713 -0.0062 -0.1645
 2540TIP3    H129179   6.236   0.442   0.813  1.2299 -0.1622 -0.8569
 2540TIP3    H229180   6.271   0.513   0.684  1.3124  2.8757  0.7240
 2541TIP3   OH229181   3.092   0.164   1.428 -0.4720  0.1862  0.0793
 2541TIP3    H129182   3.156   0.233   1.444 -0.7492  0.1005  1.7186
 2541TIP3    H229183   3.043   0.156   1.510 -1.0499 -1.3357 -0.3676
 2542TIP3   OH229184   1.053   1.228   7.899  0.0136 -0.4958 -0.0557
 2542TIP3    H129185   1.103   1.159   7.942  1.9833  0.0866 -1.3004
 2542TIP3    H229186   1.058   1.206   7.806 -3.2585 -1.1537 -0.2319
 2543TIP3   OH229187   4.732   6.555   6.262  0.1245  0.3291  0.3302
 2543TIP3    H129188   4.794   6.622   6.235  0.5749 -0.8148 -1.6243
 2543TIP3    H229189   4.784   6.475   6.269 -0.7717 -0.2457  0.6312
 2544TIP3   OH229190   2.591   0.069   0.885  0.0631  0.3362 -0.1859
 2544TIP3    H129191   2.554   0.122   0.814 -1.9237 -0.9453 -0.1962
 2544TIP3    H229192   2.656   0.013   0.842  1.6264  2.1384 -0.3000
 2545TIP3   OH229193   1.812   6.029   6.649 -0.0297 -0.1258  0.3990
 2545TIP3    H129194   1.847   6.112   6.682  1.4628 -0.7670  0.5071
 2545TIP3    H229195   1.783   6.049   6.560  0.3835  0.4978  0.3980
 2546TIP3   OH229196   3.079   1.683   8.385  0.3087 -0.1165 -0.7713
 2546TIP3    H129197   2.987   1.661   8.396 -0.1056  1.4029 -0.9990
 2546TIP3    H229198   3.092   1.761   8.439  1.2644  0.1492 -1.3492
 2547TIP3   OH229199   4.179   2.015   1.422 -0.3297  0.0480  0.2050
 2547TIP3    H129200   4.159   2.054   1.508  0.6203 -0.5917  0.7392
 2547TIP3    H229201   4.215   1.929   1.443  3.2290  1.1562 -0.5995
 2548TIP3   OH229202   6.170   4.519   0.588 -0.2885 -0.1531  0.2657
 2548TIP3    H129203   6.191   4.446   0.529  0.8418  0.4418 -0.0971
 2548TIP3    H229204   6.079   4.541   0.569 -0.3479 -0.8525 -0.2836
 2549TIP3   OH229205   5.104   1.391   0.022  0.1942 -0.0699 -0.0663
 2549TIP3    H129206   5.083   1.398   0.115 -0.2347  0.8791 -0.2294
 2549TIP3    H229207   5.089   1.478  -0.013  0.5659 -0.3657 -0.9893
 2550TIP3   OH229208   1.493   0.079   8.537  0.1732  0.2382  0.1147
 2550TIP3    H129209   1.490   0.144   8.467  1.0440  1.1611  0.9056
 2550TIP3    H229210   1.561   0.017   8.509 -0.3826 -0.1271 -0.4532
 2551TIP3   OH229211   2.282   0.960   8.334  0.0169 -0.2225 -0.3969
 2551TIP3    H129212   2.269   0.872   8.299  0.1397 -1.1621  1.7886
 2551TIP3    H229213   2.194   0.999   8.333 -0.0091 -0.2773 -1.5380
 2552TIP3   OH229214   3.013   6.797   1.058 -0.3344  0.0482  0.8994
 2552TIP3    H129215   3.032   6.765   0.970  0.5432  1.1232  0.6662
 2552TIP3    H229216   3.031   6.723   1.116  0.4909 -0.2491  0.2861
 2553TIP3   OH229217   3.945   1.464   1.398 -0.1111  0.4274  0.6490
 2553TIP3    H129218   3.991   1.536   1.441 -1.1455  1.0451  0.7411
 2553TIP3    H229219   3.857   1.497   1.383 -0.7204 -0.9469  1.0233
 2554TIP3   OH229220   2.906   1.501   0.190 -0.3211  0.4775 -0.3820
 2554TIP3    H129221   2.831   1.532   0.139 -1.3443 -2.9118 -1.2370
 2554TIP3    H229222   2.980   1.504   0.129 -0.4829  0.8938 -0.5577
 2555TIP3   OH229223   5.451   6.117   2.390 -0.1261  0.5041  0.0126
 2555TIP3    H129224   5.487   6.111   2.302  0.7170  0.0985  0.3752
 2555TIP3    H229225   5.371   6.066   2.387  0.6026 -0.6563 -0.1788
 2556TIP3   OH229226   0.954   5.135   8.310  0.1655 -0.2630  1.1490
 2556TIP3    H129227   1.038   5.130   8.357  1.9768 -0.4083 -1.8514
 2556TIP3    H229228   0.977   5.170   8.224 -2.7189 -1.2998 -0.1564
 2557TIP3   OH229229   4.244   6.434   7.084 -0.1161 -0.5470  0.1399
 2557TIP3    H129230   4.272   6.526   7.079 -0.1559 -0.5211  0.3766
 2557TIP3    H229231   4.191   6.421   7.005 -0.7198 -0.1506  0.4628
 2558TIP3   OH229232   5.558   4.993   7.982  0.1090 -0.4213  0.6151
 2558TIP3    H129233   5.549   5.074   7.933 -1.2530 -0.8607  0.1094
 2558TIP3    H229234   5.490   4.996   8.049 -0.8271 -1.6785 -0.2177
 2559TIP3   OH229235   6.836   5.480   7.100  0.7045 -0.2735 -0.0133
 2559TIP3    H129236   6.771   5.476   7.030  0.3254 -0.7683  0.3556
 2559TIP3    H229237   6.869   5.570   7.098 -0.9407  0.3892  0.6306
 2560TIP3   OH229238   4.927   2.434   0.067 -0.2359  0.4502 -0.2300
 2560TIP3    H129239   4.866   2.397   0.132  0.4792  0.2498  0.3496
 2560TIP3    H229240   4.949   2.360   0.010 -0.0458  0.3660 -0.0494
 2561TIP3   OH229241   3.269   5.342   8.253 -0.3387  0.2515 -0.0988
 2561TIP3    H129242   3.302   5.424   8.217 -1.1817  1.4934  1.7993
 2561TIP3    H229243   3.176   5.342   8.232 -0.1091 -0.8773 -1.2105
 2562TIP3   OH229244   1.832   0.810   2.667 -0.2490 -0.6772 -0.3895
 2562TIP3    H129245   1.755   0.857   2.636 -0.6305 -0.5189  0.7523
 2562TIP3    H229246   1.800   0.759   2.741  1.1284  0.9351  1.4004
 2563TIP3   OH229247   0.442   6.123   8.171 -0.2735  0.0134  0.1648
 2563TIP3    H129248   0.511   6.163   8.224 -1.3535 -0.3372  1.9104
 2563TIP3    H229249   0.478   6.038   8.145 -0.1112 -0.2637  1.2524
 2564TIP3   OH229250   3.034   1.934   0.250  0.1596 -0.6388 -0.1976
 2564TIP3    H129251   3.052   1.859   0.307 -1.2124 -0.7559  0.1158
 2564TIP3    H229252   2.957   1.976   0.290 -0.0376  0.0271 -1.2470
 2565TIP3   OH229253   3.514   2.836   0.986  0.4216  0.2975  0.0917
 2565TIP3    H129254   3.458   2.907   1.017  0.3991  0.2462  0.1700
 2565TIP3    H229255   3.602   2.861   1.014  0.4252  0.3353  0.0461
 2566TIP3   OH229256   5.397   4.381   1.657 -0.5874  0.0585 -0.2543
 2566TIP3    H129257   5.473   4.439   1.660 -0.3576  0.2147 -3.8742
 2566TIP3    H229258   5.428   4.305   1.608 -1.7620 -1.7416  1.6328
 2567TIP3   OH229259   2.281   1.792   8.360 -0.2632 -0.3597 -0.3123
 2567TIP3    H129260   2.326   1.840   8.291 -0.3217 -0.6256 -0.5403
 2567TIP3    H229261   2.192   1.779   8.326  0.4854 -3.0828 -1.5351
 2568TIP3   OH229262   2.694   1.926   7.006 -0.1536 -0.3407 -0.6825
 2568TIP3    H129263   2.713   2.020   6.998 -2.1430  0.3563  1.4775
 2568TIP3    H229264   2.614   1.914   6.954  0.1249 -0.8663 -0.9943
 2569TIP3   OH229265   1.045   0.916   1.862  0.1385  0.7437  0.2677
 2569TIP3    H129266   1.048   0.920   1.766  1.3240  0.5233  0.2893
 2569TIP3    H229267   0.952   0.928   1.883 -0.2963 -0.2160 -0.9542
 2570TIP3   OH229268   0.242   5.205   6.488 -0.2009  0.6063  0.0187
 2570TIP3    H129269   0.272   5.174   6.573 -0.5685 -0.2733 -0.1637
 2570TIP3    H229270   0.313   5.261   6.456  2.2922 -2.9319 -1.2807
 2571TIP3   OH229271   6.691   6.341   8.030 -0.4791 -0.1613 -0.2510
 2571TIP3    H129272   6.608   6.387   8.048 -0.4644 -0.4420  0.5856
 2571TIP3    H229273   6.668   6.248   8.036  0.2003 -0.2549  1.6180
 2572TIP3   OH229274   6.211   5.184   1.030 -0.1873  0.0070  0.4616
 2572TIP3    H129275   6.175   5.259   0.984  0.9913  0.6238  0.4969
 2572TIP3    H229276   6.207   5.208   1.123  0.3241  0.1002  0.4642
 2573TIP3   OH229277   2.992   6.567   6.860  0.3549  0.0376  0.3157
 2573TIP3    H129278   3.065   6.558   6.798  0.9575  0.6851  0.9191
 2573TIP3    H229279   2.992   6.485   6.909  0.5188 -0.0668  0.1426
 2574TIP3   OH229280   4.959   3.541   7.293  0.1039 -0.0034  0.4604
 2574TIP3    H129281   5.042   3.530   7.338  0.0662  1.4776  0.9458
 2574TIP3    H229282   4.982   3.568   7.205  0.1421  0.0647  0.4914
 2575TIP3   OH229283   2.229   3.352   7.398 -0.1600  0.0563 -0.1895
 2575TIP3    H129284   2.204   3.338   7.307 -0.5229 -0.4559 -0.0103
 2575TIP3    H229285   2.323   3.331   7.400 -0.7227 -2.7295  0.1270
 2576TIP3   OH229286   2.568   6.587   1.683 -0.3249  0.2411 -0.6309
 2576TIP3    H129287   2.479   6.596   1.648 -1.0803  2.4803  1.6097
 2576TIP3    H229288   2.625   6.601   1.606 -1.9118  3.0062 -1.4697
 2577TIP3   OH229289   0.847   5.558   1.588  0.4151  0.5694 -0.5500
 2577TIP3    H129290   0.900   5.580   1.664 -0.7391 -0.5482  0.6294
 2577TIP3    H229291   0.841   5.462   1.590 -1.6324  0.6385 -0.6084
 2578TIP3   OH229292   1.615   5.259   0.141 -0.3424 -0.1463  0.2536
 2578TIP3    H129293   1.533   5.268   0.190 -0.8244 -1.0361 -0.3758
 2578TIP3    H229294   1.680   5.303   0.196 -1.0362 -0.3775  1.2849
 2579TIP3   OH229295   1.007   1.558   0.041  0.5659  0.3404  0.1156
 2579TIP3    H129296   1.038   1.631  -0.012 -0.4175  0.9578  0.3541
 2579TIP3    H229297   0.916   1.580   0.060 -0.2480 -1.6996 -1.1111
 2580TIP3   OH229298   2.885   1.755   6.850  0.7399 -0.1942  0.1615
 2580TIP3    H129299   2.853   1.846   6.855  2.2243  0.4087 -0.6115
 2580TIP3    H229300   2.807   1.702   6.864 -0.6707  1.1787 -1.8401
 2581TIP3   OH229301   5.797   4.436   8.121  0.3493  0.3121 -0.4012
 2581TIP3    H129302   5.716   4.385   8.120  0.8003 -0.5131  1.4452
 2581TIP3    H229303   5.866   4.371   8.109  0.7870  0.9324 -1.3333
 2582TIP3   OH229304   0.986   6.394   2.189  0.3304 -0.0245  0.0959
 2582TIP3    H129305   0.891   6.403   2.177  0.0565 -1.2136  1.1790
 2582TIP3    H229306   1.002   6.424   2.278  1.2998  1.9997 -0.6827
 2583TIP3   OH229307   4.006   1.435   8.398 -0.1778 -0.4800  0.5489
 2583TIP3    H129308   3.948   1.482   8.339 -0.8361 -1.0849  0.7042
 2583TIP3    H229309   3.987   1.471   8.484 -0.8507 -1.1844  0.7007
 2584TIP3   OH229310   0.719   6.622   1.708 -0.2786  0.3378 -0.1714
 2584TIP3    H129311   0.677   6.603   1.624 -0.8519  1.1725 -0.0862
 2584TIP3    H229312   0.671   6.697   1.743  0.5789  0.6129  0.4608
 2585TIP3   OH229313   3.045   4.011   7.828 -0.0966  0.2378  0.0655
 2585TIP3    H129314   3.124   3.986   7.877 -1.3384  0.9853  2.6167
 2585TIP3    H229315   3.079   4.046   7.746  1.9952 -3.6961 -1.0279
 2586TIP3   OH229316   0.600   2.666   1.721  0.1052  0.0585  0.2654
 2586TIP3    H129317   0.510   2.666   1.689 -0.5198 -2.5482  1.7677
 2586TIP3    H229318   0.653   2.682   1.642 -1.5826 -0.3946 -1.0196
 2587TIP3   OH229319   6.106   2.964   1.648  0.5959  0.2721  0.0159
 2587TIP3    H129320   6.061   2.910   1.584 -0.9617 -0.2218  1.4422
 2587TIP3    H229321   6.133   2.902   1.716 -0.8634  1.1559  1.4851
 2588TIP3   OH229322   0.532   5.143   0.635  0.4225 -0.3638  0.3138
 2588TIP3    H129323   0.498   5.212   0.691  1.2422  0.3941 -0.0997
 2588TIP3    H229324   0.474   5.069   0.650 -0.0757  0.2038  1.2620
 2589TIP3   OH229325   5.616   3.677   7.287 -0.7401  0.1227 -0.0871
 2589TIP3    H129326   5.537   3.670   7.233 -0.0276  0.6685 -1.2282
 2589TIP3    H229327   5.619   3.769   7.313 -0.7985 -0.0281  0.4872
 2590TIP3   OH229328   4.413   5.641   0.523 -0.0947  0.2373 -0.1298
 2590TIP3    H129329   4.338   5.679   0.478  0.2980 -0.1262 -1.1170
 2590TIP3    H229330   4.459   5.717   0.559 -0.4988  0.5234 -0.2054
 2591TIP3   OH229331   5.238   4.833   7.880 -0.6292 -0.2188 -0.5543
 2591TIP3    H129332   5.146   4.809   7.882 -0.3050 -1.4965  0.2505
 2591TIP3    H229333   5.285   4.753   7.903  0.6714  0.4723 -0.6578
 2592TIP3   OH229334   2.003   5.928   0.362 -0.5492  0.4448  0.3209
 2592TIP3    H129335   1.962   5.843   0.346 -0.7112  0.4040  0.9324
 2592TIP3    H229336   1.930   5.990   0.364 -0.4232  0.6194 -0.2148
 2593TIP3   OH229337   5.732   6.325   6.738 -0.1804 -0.1714  0.3155
 2593TIP3    H129338   5.695   6.278   6.813  0.2562  0.0960  0.7095
 2593TIP3    H229339   5.791   6.390   6.778 -0.1729  0.1714 -0.2502
 2594TIP3   OH229340   4.417   1.118   8.328 -0.0183 -0.2583 -0.0095
 2594TIP3    H129341   4.333   1.162   8.340  1.4865  2.2390  2.5034
 2594TIP3    H229342   4.414   1.042   8.385 -0.2785  0.3044  0.7324
 2595TIP3   OH229343   3.732   6.196   6.763  0.1947 -0.4055  0.8143
 2595TIP3    H129344   3.708   6.186   6.671 -0.7132 -0.1302  1.0087
 2595TIP3    H229345   3.815   6.150   6.772 -0.1924 -1.2664  0.0723
 2596TIP3   OH229346   3.256   3.057   1.658  0.1175  0.1317 -0.8553
 2596TIP3    H129347   3.215   3.025   1.738 -2.7966  1.1545 -1.8008
 2596TIP3    H229348   3.249   2.983   1.597  1.5080 -0.3349 -0.4882
 2597TIP3   OH229349   5.038   5.598   7.142  0.1794  0.0432  0.4746
 2597TIP3    H129350   5.130   5.572   7.149  0.0092 -0.9613 -0.6755
 2597TIP3    H229351   4.990   5.519   7.167 -0.3581  0.1190 -0.3126
 2598TIP3   OH229352   0.746   2.529   8.572  0.5615  0.0710  0.3201
 2598TIP3    H129353   0.738   2.492   8.660  0.7396 -0.3945  0.1446
 2598TIP3    H229354   0.696   2.470   8.517 -1.9089  1.8458  0.4866
 2599TIP3   OH229355   6.638   5.536   0.391 -0.5619 -0.0126  0.4571
 2599TIP3    H129356   6.608   5.456   0.348  0.2707 -0.3146  0.4177
 2599TIP3    H229357   6.680   5.506   0.471 -2.6924  0.5828  1.8882
 2600TIP3   OH229358   1.682   3.163   0.052 -0.2577  0.2435 -0.0805
 2600TIP3    H129359   1.748   3.108   0.094 -1.5327 -0.6476  0.8522
 2600TIP3    H229360   1.727   3.245   0.034  1.0766 -0.3037  0.6157
 2601TIP3   OH229361   4.541   4.625   7.535  0.1663  1.0803  0.0536
 2601TIP3    H129362   4.499   4.539   7.527  0.5093  0.6080  2.4618
 2601TIP3    H229363   4.468   4.687   7.534 -0.2345  0.6191  0.0243
 2602TIP3   OH229364   0.743   2.857   0.107 -0.0429 -0.0681 -0.2449
 2602TIP3    H129365   0.777   2.943   0.134 -1.4136  0.0051  1.4390
 2602TIP3    H229366   0.675   2.838   0.171 -0.5307 -1.9258 -1.2641
 2603TIP3   OH229367   3.195   2.595   8.380 -0.0069 -0.0116 -0.0284
 2603TIP3    H129368   3.114   2.643   8.396 -1.2132 -1.4883 -1.3990
 2603TIP3    H229369   3.242   2.648   8.316 -0.6144  0.0950 -0.3904
 2604TIP3   OH229370   6.417   4.849   7.002 -0.2881  0.4393 -0.1899
 2604TIP3    H129371   6.325   4.858   7.028  0.3164 -1.0430  2.9319
 2604TIP3    H229372   6.466   4.892   7.072  1.4355  0.5862 -1.4392
 2605TIP3   OH229373   1.296   6.680   1.158 -0.4831 -0.6915  0.2307
 2605TIP3    H129374   1.264   6.711   1.242  0.8921 -2.1529  1.3397
 2605TIP3    H229375   1.379   6.726   1.145  0.0271 -1.5647  0.3795
 2606TIP3   OH229376   6.322   1.800   1.245 -0.5070 -0.2698  0.2596
 2606TIP3    H129377   6.302   1.721   1.195 -1.3412 -0.7731  1.3689
 2606TIP3    H229378   6.371   1.769   1.321  0.3284  0.4411  0.0384
 2607TIP3   OH229379   5.859   1.731   8.141  0.1810  0.3555 -0.4100
 2607TIP3    H129380   5.798   1.667   8.177 -0.9175  1.5240 -0.1228
 2607TIP3    H229381   5.852   1.807   8.200  0.5804  1.1751 -1.3868
 2608TIP3   OH229382   5.116   2.039   1.633  0.3365  0.1056  0.1805
 2608TIP3    H129383   5.049   2.028   1.701  0.3667  0.4148  0.2619
 2608TIP3    H229384   5.196   2.004   1.672  0.2153 -0.3002  0.0693
 2609TIP3   OH229385   2.791   1.038   6.704  0.1225 -0.4522 -0.1709
 2609TIP3    H129386   2.794   0.978   6.629  0.0778 -0.9724  0.2408
 2609TIP3    H229387   2.881   1.067   6.714  0.1009 -0.2506 -0.5278
 2610TIP3   OH229388   1.226   0.283   7.760  0.3453  0.0961  0.2919
 2610TIP3    H129389   1.159   0.244   7.704  0.7832  0.2939 -0.3872
 2610TIP3    H229390   1.306   0.280   7.707  0.6959  0.6012  0.7796
 2611TIP3   OH229391   5.545   1.717   1.665  0.1802 -0.6703  0.1042
 2611TIP3    H129392   5.529   1.766   1.585  0.0198  0.0169  0.5498
 2611TIP3    H229393   5.631   1.676   1.651  0.9285  0.7886  0.2304
 2612TIP3   OH229394   3.548   6.041   0.456  0.4567  0.4803 -0.1225
 2612TIP3    H129395   3.482   5.982   0.491  0.9090 -0.4613 -0.7944
 2612TIP3    H229396   3.530   6.126   0.497 -0.4566 -0.0280  0.5520
 2613TIP3   OH229397   1.572   0.585   1.045  0.4282 -0.1125  0.1707
 2613TIP3    H129398   1.562   0.501   1.089  2.4025 -0.4766 -0.0310
 2613TIP3    H229399   1.482   0.613   1.028 -0.3156 -2.9710 -1.3052
 2614TIP3   OH229400   0.872   4.906   1.031  0.2921  0.2140 -0.0963
 2614TIP3    H129401   0.844   4.891   0.940 -0.0586 -1.6539  0.2696
 2614TIP3    H229402   0.966   4.921   1.025  0.2810  0.0446 -0.7675
 2615TIP3   OH229403   5.041   5.388   8.602 -0.2662 -0.0356  0.1567
 2615TIP3    H129404   5.101   5.352   8.667 -0.6771 -1.0799 -0.0136
 2615TIP3    H229405   5.083   5.469   8.573  0.7358 -0.4049  0.5184
 2616TIP3   OH229406   0.417   1.350   8.628 -0.0978  0.4185 -0.0021
 2616TIP3    H129407   0.379   1.406   8.696 -1.7137 -0.2120 -0.3420
 2616TIP3    H229408   0.347   1.336   8.566  1.2434  0.6523 -1.6415
 2617TIP3   OH229409   2.341   1.551   6.578  0.1218 -0.1386 -0.0695
 2617TIP3    H129410   2.266   1.599   6.613 -0.2755 -1.1434  0.5108
 2617TIP3    H229411   2.383   1.612   6.517  0.4010  1.4240  1.6006
 2618TIP3   OH229412   2.805   2.745   1.987  0.4471 -0.0028  0.8304
 2618TIP3    H129413   2.820   2.804   1.913 -1.2131 -0.4689  0.0959
 2618TIP3    H229414   2.819   2.800   2.064  2.8248  0.3430  0.2376
 2619TIP3   OH229415   2.698   6.506   7.139  0.1395  0.2964 -0.2807
 2619TIP3    H129416   2.652   6.546   7.213 -1.5213 -0.7396 -0.7259
 2619TIP3    H229417   2.630   6.463   7.088  1.5163 -0.6749 -1.3642
 2620TIP3   OH229418   5.088   1.938   8.493  0.0942 -0.0151 -0.0197
 2620TIP3    H129419   5.180   1.924   8.515 -0.0006 -0.6101  0.0165
 2620TIP3    H229420   5.078   1.902   8.404 -0.2069 -0.3935  0.1619
 2621TIP3   OH229421   5.689   0.880   1.505 -0.7423 -0.4313  0.5143
 2621TIP3    H129422   5.756   0.920   1.561 -2.3957  0.1334  2.1846
 2621TIP3    H229423   5.675   0.944   1.435 -0.7090  0.2063  1.0799
 2622TIP3   OH229424   4.146   1.019   1.684  0.3911  0.3974 -0.5362
 2622TIP3    H129425   4.140   1.100   1.734 -0.0826  0.5897 -0.8943
 2622TIP3    H229426   4.055   0.990   1.674  0.3549  0.9876 -2.2887
 2623TIP3   OH229427   4.709   1.135   1.133 -0.3020  0.1036  0.5924
 2623TIP3    H129428   4.767   1.211   1.125 -0.6821  0.3337 -0.1219
 2623TIP3    H229429   4.710   1.095   1.046 -1.0488  0.0004  0.6212
 2624TIP3   OH229430   1.222   6.254   0.368 -0.1938  0.1914  0.2135
 2624TIP3    H129431   1.153   6.304   0.324  0.5490  0.2049 -1.0011
 2624TIP3    H229432   1.276   6.221   0.296 -1.2848 -3.3815  0.8259
 2625TIP3   OH229433   4.939   0.845   6.814  0.2939 -0.0722  0.0508
 2625TIP3    H129434   5.011   0.887   6.768 -0.0227  0.8476  0.3714
 2625TIP3    H229435   4.863   0.856   6.756  0.3653 -0.8605 -0.1980
 2626TIP3   OH229436   2.147   6.827   1.885 -0.6589 -0.4736 -0.1516
 2626TIP3    H129437   2.070   6.805   1.938 -0.3959 -0.3286  0.3024
 2626TIP3    H229438   2.218   6.776   1.924 -0.3089  0.1931  0.1020
 2627TIP3   OH229439   4.116   6.684   8.369  0.2276 -0.2754  0.2005
 2627TIP3    H129440   4.090   6.752   8.307 -1.0237 -1.0687 -0.1837
 2627TIP3    H229441   4.149   6.733   8.445  0.7145  0.7265 -0.6239
 2628TIP3   OH229442   2.239   2.965   6.525 -0.3323 -0.0871  0.0084
 2628TIP3    H129443   2.237   2.875   6.555 -1.3439 -0.1869 -0.3180
 2628TIP3    H229444   2.183   2.966   6.447 -0.2168  0.7855 -0.0790
 2629TIP3   OH229445   4.620   5.215   0.572  0.4106  0.4805 -0.0526
 2629TIP3    H129446   4.629   5.268   0.651  0.2596 -0.2576  0.4721
 2629TIP3    H229447   4.601   5.127   0.604 -0.2047  0.2820 -0.9256
 2630TIP3   OH229448   4.161   2.618   0.957 -0.5888 -0.2169 -0.1431
 2630TIP3    H129449   4.088   2.557   0.953 -0.4585 -0.4204  0.4955
 2630TIP3    H229450   4.236   2.565   0.983 -0.8622  0.5046  2.3965
 2631TIP3   OH229451   1.635   6.720   0.152 -0.1729  0.4155  0.2348
 2631TIP3    H129452   1.728   6.731   0.174 -0.0092  0.3347 -0.4056
 2631TIP3    H229453   1.599   6.809   0.153  0.2815  0.6338 -1.1103
 2632TIP3   OH229454   1.087   0.413   8.346 -0.0804 -0.2826 -0.0810
 2632TIP3    H129455   1.175   0.433   8.313 -0.2510 -0.6202 -0.7481
 2632TIP3    H229456   1.062   0.492   8.394  0.6454 -0.2397  0.2508
 2633TIP3   OH229457   3.494   5.109   7.763  0.1670 -0.0597  0.4079
 2633TIP3    H129458   3.505   5.038   7.827  0.4836 -0.4627 -0.0904
 2633TIP3    H229459   3.573   5.106   7.710  2.1894  3.2162  2.8181
 2634TIP3   OH229460   3.400   5.600   0.323  0.2991 -0.5321 -0.4645
 2634TIP3    H129461   3.358   5.585   0.238 -1.2537 -0.1570  0.1942
 2634TIP3    H229462   3.415   5.695   0.326 -1.3945 -0.2407  0.3921
 2635TIP3   OH229463   4.022   3.005   1.673 -0.2642 -0.1695 -0.6739
 2635TIP3    H129464   3.935   2.992   1.637 -0.1740 -1.2030 -0.5483
 2635TIP3    H229465   4.075   2.936   1.633 -0.1747 -1.4103  1.4313
 2636TIP3   OH229466   5.001   3.742   1.813 -0.0064  0.0592  0.3163
 2636TIP3    H129467   5.074   3.683   1.831  0.2593  0.1687 -0.3616
 2636TIP3    H229468   5.020   3.820   1.865  1.4267  0.8883 -1.3138
 2637TIP3   OH229469   4.984   1.471   7.506 -0.3068 -0.7841  0.1981
 2637TIP3    H129470   4.944   1.553   7.537  0.2753 -0.3716 -0.1246
 2637TIP3    H229471   5.072   1.496   7.479 -0.3316 -1.4025 -0.4830
 2638TIP3   OH229472   3.736   1.352   0.476  0.1259 -0.0479 -0.0086
 2638TIP3    H129473   3.644   1.364   0.453 -0.4280 -0.5929  1.8070
 2638TIP3    H229474   3.779   1.432   0.446 -1.2821  1.0793  0.8749
 2639TIP3   OH229475   3.026   6.231   0.933  0.7689  0.6379 -0.6728
 2639TIP3    H129476   2.972   6.154   0.950 -2.0652  2.3013 -1.3788
 2639TIP3    H229477   3.085   6.205   0.862 -0.0098 -0.9236 -0.7809
 2640TIP3   OH229478   0.115   2.929   8.456 -0.0054  0.1397 -0.7326
 2640TIP3    H129479   0.106   2.987   8.381 -0.8900  1.2526  0.2079
 2640TIP3    H229480   0.066   2.850   8.431  0.3067  0.2063 -1.5873
 2641TIP3   OH229481   1.691   2.333   7.793 -0.4244  0.5460  0.1149
 2641TIP3    H129482   1.677   2.297   7.706 -2.3145  0.9608  0.1999
 2641TIP3    H229483   1.731   2.418   7.778  0.3483  0.1261 -0.2717
 2642TIP3   OH229484   3.579   6.057   7.874 -0.5460 -0.5341 -0.2660
 2642TIP3    H129485   3.594   5.981   7.931 -0.6910  0.3362  0.9884
 2642TIP3    H229486   3.514   6.027   7.811 -1.0949 -1.2690  0.6163
 2643TIP3   OH229487   6.767   6.465   1.944  0.3645 -0.5942 -0.0125
 2643TIP3    H129488   6.823   6.460   2.021 -1.2373  0.4921  1.3099
 2643TIP3    H229489   6.777   6.554   1.911  0.9271 -1.0052 -1.0080
 2644TIP3   OH229490   2.156   2.968   7.531  1.0129 -0.4414  0.6465
 2644TIP3    H129491   2.220   2.966   7.460  0.4222 -2.7332  0.0966
 2644TIP3    H229492   2.188   2.903   7.594  2.1455  2.3114  3.1666
 2645TIP3   OH229493   1.876   4.112   7.428 -0.2734  0.6173 -0.0783
 2645TIP3    H129494   1.948   4.128   7.489 -0.0228  0.2807 -0.2782
 2645TIP3    H229495   1.797   4.117   7.482 -0.0243 -0.1956  0.3878
 2646TIP3   OH229496   3.307   0.324   8.079 -0.4922 -0.3088 -0.1320
 2646TIP3    H129497   3.301   0.347   7.986  0.6296 -0.0319 -0.1572
 2646TIP3    H229498   3.344   0.236   8.080  0.8295  0.2260  0.0564
 2647TIP3   OH229499   4.763   1.413   0.511 -0.0505  0.4465 -0.2356
 2647TIP3    H129500   4.855   1.401   0.534  0.1243 -1.3851 -1.6619
 2647TIP3    H229501   4.717   1.342   0.557 -0.3939 -0.1063 -1.3977
 2648TIP3   OH229502   2.691   5.702   7.185  0.0324 -0.4594 -0.5557
 2648TIP3    H129503   2.761   5.676   7.125  0.5994 -1.7372  0.5886
 2648TIP3    H229504   2.715   5.660   7.268 -1.8761 -0.5834 -0.0302
 2649TIP3   OH229505   6.811   1.424   7.393  0.2192 -0.2472  0.1990
 2649TIP3    H129506   6.734   1.451   7.343 -0.3576 -0.3061  1.0350
 2649TIP3    H229507   6.862   1.371   7.332  0.6313  1.4452 -1.0177
 2650TIP3   OH229508   4.410   6.157   8.617 -0.4724  0.1245 -0.3073
 2650TIP3    H129509   4.484   6.215   8.633 -0.2865 -0.6055  1.9156
 2650TIP3    H229510   4.333   6.210   8.637 -0.2993 -0.3254  1.8258
 2651TIP3   OH229511   5.874   3.153   8.118  0.2605 -0.0904  0.0737
 2651TIP3    H129512   5.814   3.088   8.082  1.2998 -0.6349 -0.7331
 2651TIP3    H229513   5.826   3.236   8.113  0.2736 -0.1556 -2.4930
 2652TIP3   OH229514   6.523   0.676   0.346 -0.2458  0.4200 -0.2445
 2652TIP3    H129515   6.613   0.654   0.319 -0.9053 -2.2926 -0.5645
 2652TIP3    H229516   6.491   0.733   0.277  1.3649  1.8832  0.1438
 2653TIP3   OH229517   5.617   1.565   7.402  0.6560 -0.1489  0.4876
 2653TIP3    H129518   5.568   1.647   7.400  1.4252  0.3226 -0.9522
 2653TIP3    H229519   5.593   1.524   7.484 -0.9451  0.7901  0.5256
 2654TIP3   OH229520   4.850   2.768   2.050 -0.1158 -0.3059  0.0519
 2654TIP3    H129521   4.839   2.682   2.010 -0.2709  0.4833 -1.6601
 2654TIP3    H229522   4.936   2.764   2.093  1.3810 -0.3208 -2.7454
 2655TIP3   OH229523   5.877   6.514   1.702  0.0432  0.7591  0.2922
 2655TIP3    H129524   5.823   6.592   1.698 -1.9791 -0.4411  1.9985
 2655TIP3    H229525   5.900   6.506   1.795 -0.1024 -0.8197  0.2216
 2656TIP3   OH229526   3.595   2.466   6.487 -0.1803  0.3937  0.1614
 2656TIP3    H129527   3.505   2.434   6.490  0.1525 -0.9518 -2.0029
 2656TIP3    H229528   3.597   2.527   6.413  0.8669 -0.2809 -0.3973
 2657TIP3   OH229529   1.450   2.275   8.616  0.2731 -0.4583 -0.2159
 2657TIP3    H129530   1.515   2.342   8.637  0.1405 -0.9449  1.9872
 2657TIP3    H229531   1.484   2.233   8.537  0.1304  2.4387 -1.9411
 2658TIP3   OH229532   1.575   6.862   7.598 -0.8430  0.0410  0.1190
 2658TIP3    H129533   1.612   6.775   7.581  0.1188  0.4251  0.2122
 2658TIP3    H229534   1.596   6.880   7.690  0.5951  1.1291 -0.3834
 2659TIP3   OH229535   5.940   1.115   8.502 -0.3303  0.4123  0.0372
 2659TIP3    H129536   5.846   1.119   8.483 -0.1609  1.4326 -0.6833
 2659TIP3    H229537   5.949   1.151   8.590 -0.8867 -2.2705  1.2875
 2660TIP3   OH229538   2.838   1.561   8.459 -0.6597 -0.2893  0.1788
 2660TIP3    H129539   2.768   1.517   8.411 -0.9404  0.2936  0.0303
 2660TIP3    H229540   2.793   1.603   8.533 -0.3687 -0.4319  0.4352
 2661TIP3   OH229541   4.222   3.244   8.581 -0.3520  1.4425  0.0619
 2661TIP3    H129542   4.173   3.292   8.514 -0.4420  0.7217 -0.3985
 2661TIP3    H229543   4.313   3.250   8.553  0.1744  4.4745  1.9446
 2662TIP3   OH229544   5.040   3.918   2.004 -0.4215  0.1841 -0.4556
 2662TIP3    H129545   5.055   3.941   2.096 -2.2641 -1.6626  0.3772
 2662TIP3    H229546   5.100   3.975   1.955  1.1184  0.7346  1.9049
 2663TIP3   OH229547   0.758   0.333   1.631 -0.4592  0.1033  0.3840
 2663TIP3    H129548   0.758   0.290   1.545 -1.7916  0.8273 -0.0153
 2663TIP3    H229549   0.752   0.261   1.693 -0.2758 -0.3974 -0.1641
 2664TIP3   OH229550   6.163   3.307   7.212  0.1115 -0.6328  0.3101
 2664TIP3    H129551   6.249   3.300   7.170 -0.2894 -0.4934 -0.5633
 2664TIP3    H229552   6.113   3.234   7.177  0.2329 -1.4373  1.7461
 2665TIP3   OH229553   0.642   4.534   7.970 -0.2337  0.4238 -0.1120
 2665TIP3    H129554   0.717   4.590   7.988  0.8145 -0.2848 -1.9662
 2665TIP3    H229555   0.625   4.489   8.053  1.6629  0.3234  0.2779
 2666TIP3   OH229556   5.703   6.784   2.273 -0.1723  0.0611  0.2370
 2666TIP3    H129557   5.616   6.790   2.313  0.8580  0.0400  2.6110
 2666TIP3    H229558   5.709   6.694   2.242 -1.0208  0.1045 -0.1082
 2667TIP3   OH229559   3.886   2.029   7.942 -0.5028  0.2023 -0.1057
 2667TIP3    H129560   3.927   2.036   7.855 -1.7503 -0.3019 -0.7650
 2667TIP3    H229561   3.867   2.120   7.966  1.7022  0.5335  0.6056
 2668TIP3   OH229562   0.574   6.018   7.734 -0.4077  0.1463  0.1409
 2668TIP3    H129563   0.494   6.008   7.785 -0.1364  2.0724  1.0426
 2668TIP3    H229564   0.578   5.940   7.679 -2.7046 -0.1509  0.3222
 2669TIP3   OH229565   2.413   4.446   0.858  0.7396 -0.6771 -0.1163
 2669TIP3    H129566   2.428   4.537   0.884 -0.0229  0.0613 -2.0695
 2669TIP3    H229567   2.408   4.449   0.762 -1.1820 -2.4680 -0.1527
 2670TIP3   OH229568   6.114   4.359   1.394  0.7005 -0.2326 -0.3624
 2670TIP3    H129569   6.078   4.338   1.480  2.5512 -1.2115  0.2308
 2670TIP3    H229570   6.077   4.292   1.336 -1.3702  1.0384 -0.6197
 2671TIP3   OH229571   2.387   4.869   1.510  0.2772  0.4407 -0.1938
 2671TIP3    H129572   2.336   4.800   1.467  0.6401  0.5985 -0.8944
 2671TIP3    H229573   2.399   4.936   1.443 -0.0588  1.1916  0.4708
 2672TIP3   OH229574   5.068   1.629   0.885 -0.1117  0.0323  0.5583
 2672TIP3    H129575   5.106   1.559   0.833 -0.9345 -0.5966  0.7916
 2672TIP3    H229576   5.132   1.644   0.955  0.1413 -0.3694  0.4164
 2673TIP3   OH229577   2.219   4.258   7.853 -0.0739 -0.2213  0.1865
 2673TIP3    H129578   2.161   4.188   7.883  1.3612 -2.3352 -1.6729
 2673TIP3    H229579   2.307   4.220   7.858  1.2612  2.7429  2.5278
 2674TIP3   OH229580   0.881   0.143   7.043  0.0252  0.1524  0.6668
 2674TIP3    H129581   0.858   0.116   6.954  0.9797 -1.1391  0.7761
 2674TIP3    H229582   0.954   0.204   7.032 -0.5233  0.8008  0.5355
 2675TIP3   OH229583   4.528   1.726   6.657  0.3521 -0.3351 -0.6035
 2675TIP3    H129584   4.553   1.809   6.617 -0.5401 -0.2325 -0.9598
 2675TIP3    H229585   4.602   1.668   6.639  1.6644  0.7490  0.8974
 2676TIP3   OH229586   2.016   0.567   7.113  0.0901  0.0563  0.6388
 2676TIP3    H129587   1.972   0.566   7.198 -0.5605 -0.6267  0.2993
 2676TIP3    H229588   2.109   0.564   7.134 -0.0943 -1.7616  1.3077
 2677TIP3   OH229589   3.566   2.516   0.353  0.0500 -0.2155 -0.0903
 2677TIP3    H129590   3.535   2.536   0.265  0.1759 -0.3655 -0.1701
 2677TIP3    H229591   3.506   2.563   0.411 -0.9055 -1.2421 -0.2090
 2678TIP3   OH229592   3.242   0.722   0.380  0.1070 -0.5629  0.0904
 2678TIP3    H129593   3.272   0.632   0.391 -0.5744 -0.9293 -0.9769
 2678TIP3    H229594   3.217   0.728   0.289  1.2511  1.0522 -0.1698
 2679TIP3   OH229595   1.384   5.031   1.919  0.2638  0.2253  0.2237
 2679TIP3    H129596   1.407   4.939   1.912 -2.5714 -0.6100  0.6678
 2679TIP3    H229597   1.403   5.054   2.010  1.1729  0.1803  0.0571
 2680TIP3   OH229598   5.497   4.749   6.903  0.2070  0.5248  0.4006
 2680TIP3    H129599   5.572   4.689   6.912 -0.7348 -0.8145 -0.3253
 2680TIP3    H229600   5.421   4.691   6.894 -0.7356  1.8344 -0.4403
 2681TIP3   OH229601   6.020   2.462   8.404 -0.6102  0.0529 -0.4690
 2681TIP3    H129602   6.084   2.523   8.439 -0.7196  0.2470 -0.6062
 2681TIP3    H229603   5.938   2.485   8.449  0.0611 -2.3534  2.2660
 2682TIP3   OH229604   5.168   0.273   7.341  0.7655 -0.1768  0.4662
 2682TIP3    H129605   5.204   0.336   7.404  1.5662  1.2404 -1.2908
 2682TIP3    H229606   5.189   0.187   7.377  0.0300  0.5350  2.7387
 2683TIP3   OH229607   4.212   2.499   0.617  0.0905 -0.1545  0.8201
 2683TIP3    H129608   4.131   2.526   0.659  0.5131 -1.6985  2.7727
 2683TIP3    H229609   4.263   2.580   0.609 -0.6276  0.4315  1.9426
 2684TIP3   OH229610   2.761   4.298   1.203  0.2226  0.1039 -0.1987
 2684TIP3    H129611   2.741   4.226   1.264 -1.8371  0.3934 -0.4788
 2684TIP3    H229612   2.676   4.333   1.178  1.1474  1.9717 -0.9146
 2685TIP3   OH229613   1.262   5.505   1.104 -0.1513  0.0605 -0.3590
 2685TIP3    H129614   1.226   5.530   1.189 -0.7431 -2.9252  0.3973
 2685TIP3    H229615   1.347   5.465   1.125 -0.4253 -0.9594 -1.1041
 2686TIP3   OH229616   4.565   4.925   1.790  0.0658  0.1303 -0.1337
 2686TIP3    H129617   4.579   5.005   1.740  1.0099 -0.2424 -0.4874
 2686TIP3    H229618   4.532   4.955   1.875 -1.3019  0.7819 -0.8524
 2687TIP3   OH229619   3.174   2.554   1.250  0.7237 -0.8055 -0.3763
 2687TIP3    H129620   3.146   2.509   1.170  2.1931 -2.7998  0.1612
 2687TIP3    H229621   3.106   2.534   1.314 -0.8580  1.4204 -1.2171
 2688TIP3   OH229622   3.117   1.662   7.224  0.2708  0.1137 -0.2265
 2688TIP3    H129623   3.140   1.741   7.175  2.6488 -0.9538 -0.9673
 2688TIP3    H229624   3.096   1.597   7.157  0.8264 -0.5846  0.2624
 2689TIP3   OH229625   6.517   1.429   8.155 -0.1436 -0.1835  0.5540
 2689TIP3    H129626   6.422   1.424   8.153 -0.2267  1.1465 -1.2875
 2689TIP3    H229627   6.539   1.429   8.248 -1.9481 -0.1699  1.0140
 2690TIP3   OH229628   1.094   1.586   7.433 -0.1086 -0.1610  0.6312
 2690TIP3    H129629   1.187   1.572   7.421  0.0325 -0.2068  1.7363
 2690TIP3    H229630   1.065   1.513   7.488 -0.6817  0.1571  0.7618
 2691TIP3   OH229631   5.302   5.374   2.102 -0.3184  0.1909  0.0329
 2691TIP3    H129632   5.369   5.405   2.163 -0.3362  0.7814 -0.2449
 2691TIP3    H229633   5.266   5.296   2.145  0.7579 -0.3278  0.0376
 2692TIP3   OH229634   0.468   4.834   7.445  0.5739 -0.4259 -0.4040
 2692TIP3    H129635   0.459   4.829   7.540  0.7286 -2.5864 -0.4506
 2692TIP3    H229636   0.496   4.924   7.428 -1.4951  0.6422  1.3840
 2693TIP3   OH229637   1.946   0.418   1.263  0.9354 -0.6219 -0.0960
 2693TIP3    H129638   1.992   0.499   1.243 -0.8120  0.3965 -0.1473
 2693TIP3    H229639   2.013   0.361   1.301  2.0934  0.9940  0.3745
 2694TIP3   OH229640   0.497   3.174   0.414 -0.3917  0.2696 -0.0300
 2694TIP3    H129641   0.550   3.146   0.488 -2.3657  1.2602  1.8639
 2694TIP3    H229642   0.474   3.092   0.369  1.7284 -0.2611 -0.2625
 2695TIP3   OH229643   6.394   2.233   2.089 -0.6048 -0.2896 -0.5789
 2695TIP3    H129644   6.359   2.234   2.000  1.9016  1.1550 -1.6629
 2695TIP3    H229645   6.475   2.182   2.081  0.3643  1.0172  0.5387
 2696TIP3   OH229646   6.482   5.230   1.149 -0.4283 -0.1539 -0.1091
 2696TIP3    H129647   6.467   5.199   1.060  0.9832 -0.2978 -0.3229
 2696TIP3    H229648   6.406   5.286   1.168 -1.5147 -1.3243 -0.8153
 2697TIP3   OH229649   2.284   3.865   7.294 -0.3659  0.0968  0.0275
 2697TIP3    H129650   2.193   3.868   7.264 -0.8959  0.8959  1.5949
 2697TIP3    H229651   2.335   3.846   7.215 -1.8147  0.4389 -1.0274
 2698TIP3   OH229652   1.674   2.469   2.224  0.4638  0.4136 -0.0473
 2698TIP3    H129653   1.652   2.514   2.306 -0.8523 -1.6245  0.7860
 2698TIP3    H229654   1.760   2.431   2.241 -0.3763 -1.1529  0.9703
 2699TIP3   OH229655   4.165   6.374   6.544 -0.4957 -0.0150 -0.1891
 2699TIP3    H129656   4.219   6.452   6.555 -0.8888  0.3815 -0.9613
 2699TIP3    H229657   4.179   6.348   6.453 -0.9864 -0.3696 -0.1673
 2700TIP3   OH229658   5.216   3.606   7.880 -0.4305  0.0991 -0.3616
 2700TIP3    H129659   5.151   3.567   7.822 -0.9765  0.9891 -0.3557
 2700TIP3    H229660   5.181   3.593   7.968 -0.1125 -0.3087 -0.2911
 2701TIP3   OH229661   3.050   5.762   8.565  0.1251  0.0607  1.0270
 2701TIP3    H129662   2.970   5.715   8.586  0.7565 -0.7654  1.6198
 2701TIP3    H229663   3.117   5.695   8.560  0.7558  0.7189  0.3370
 2702TIP3   OH229664   3.771   3.177   7.979 -0.0854 -0.3553 -0.1227
 2702TIP3    H129665   3.722   3.253   8.011 -0.3219 -0.2213 -0.8019
 2702TIP3    H229666   3.820   3.147   8.056  0.5048  0.8681  0.0150
 2703TIP3   OH229667   1.622   1.757   2.050 -0.3678 -0.6106 -0.3532
 2703TIP3    H129668   1.580   1.797   1.974 -0.9320 -0.1312  0.1988
 2703TIP3    H229669   1.562   1.687   2.076  0.6031 -1.8432 -1.3029
 2704TIP3   OH229670   0.957   4.720   2.003 -0.1570  0.1277 -0.5075
 2704TIP3    H129671   0.920   4.794   1.956 -0.1055  0.2958 -0.2896
 2704TIP3    H229672   1.048   4.746   2.020 -0.1232 -0.0083 -0.4762
 2705TIP3   OH229673   0.947   6.139   2.057  0.0888 -0.1437 -0.0470
 2705TIP3    H129674   0.994   6.073   2.108  1.3469 -0.1368 -1.1446
 2705TIP3    H229675   0.952   6.219   2.110  1.5115 -0.0907 -0.2302
 2706TIP3   OH229676   3.132   5.340   1.242  0.0917  0.3848 -0.3689
 2706TIP3    H129677   3.072   5.282   1.288  1.3822  0.8316  2.1290
 2706TIP3    H229678   3.123   5.424   1.287  2.9787  0.2951  0.6384
 2707TIP3   OH229679   1.958   4.850   8.316  0.5615  0.1774  0.2994
 2707TIP3    H129680   1.967   4.907   8.240 -0.2929 -1.6734 -1.2786
 2707TIP3    H229681   2.048   4.837   8.347  1.1476 -0.4215 -1.5180
 2708TIP3   OH229682   5.466   4.111   7.966  0.0431  0.7839  0.0250
 2708TIP3    H129683   5.388   4.112   7.910  1.0863 -0.7664 -1.5732
 2708TIP3    H229684   5.533   4.156   7.914  1.0462 -0.7189 -0.0402
 2709TIP3   OH229685   6.743   5.219   1.857 -0.4836  0.2405 -0.6831
 2709TIP3    H129686   6.710   5.304   1.829 -1.3276 -0.6017 -2.3900
 2709TIP3    H229687   6.708   5.207   1.944  2.2929  3.0066  1.0378
 2710TIP3   OH229688   0.167   4.910   8.223  0.6621 -0.3365 -0.3550
 2710TIP3    H129689   0.127   4.837   8.271  1.6383 -1.4514 -1.1688
 2710TIP3    H229690   0.253   4.877   8.198  0.5322  0.5423 -2.0776
 2711TIP3   OH229691   6.065   0.227   7.864  0.1583  0.4289  0.2617
 2711TIP3    H129692   6.124   0.281   7.916  0.1139  0.1387  0.6133
 2711TIP3    H229693   6.037   0.284   7.792 -0.5591  1.1492  1.0914
 2712TIP3   OH229694   6.049   6.526   8.633  0.4031  0.0840  0.3353
 2712TIP3    H129695   5.962   6.529   8.672  0.9005  3.5801  1.5974
 2712TIP3    H229696   6.107   6.505   8.706  0.8069 -0.0649 -0.0241
 2713TIP3   OH229697   0.696   0.133   0.200 -0.5028 -0.5023  0.4251
 2713TIP3    H129698   0.703   0.070   0.128  1.4401 -0.1404  0.2489
 2713TIP3    H229699   0.756   0.203   0.176 -0.9764  0.3656  1.6838
 2714TIP3   OH229700   1.955   5.169   8.189  0.1656  0.2806 -0.1933
 2714TIP3    H129701   2.032   5.126   8.226 -0.8121 -2.9574 -1.5918
 2714TIP3    H229702   1.991   5.241   8.138  1.9227  1.1565  2.0962
 2715TIP3   OH229703   6.385   2.072   7.142 -0.7614 -0.3501 -0.1841
 2715TIP3    H129704   6.340   2.017   7.207 -2.4395 -0.6214 -1.4892
 2715TIP3    H229705   6.358   2.035   7.058  0.1994  0.8787 -1.0615
 2716TIP3   OH229706   6.289   2.328   0.586  0.2261 -0.2592  0.2469
 2716TIP3    H129707   6.378   2.336   0.620 -0.5347 -0.3958  2.4499
 2716TIP3    H229708   6.233   2.344   0.662 -1.6284 -2.4436 -0.5462
 2717TIP3   OH229709   1.020   3.698   7.451 -0.3294 -0.2095  0.1967
 2717TIP3    H129710   1.000   3.777   7.402 -0.7250 -0.8112 -0.6417
 2717TIP3    H229711   1.115   3.691   7.449 -0.0307  1.7542  2.7460
 2718TIP3   OH229712   1.051   5.619   0.654  0.1404 -0.2174 -0.3700
 2718TIP3    H129713   1.001   5.646   0.731  1.0992 -0.3501  0.3170
 2718TIP3    H229714   1.108   5.548   0.686 -0.6483 -1.4460 -1.5934
 2719TIP3   OH229715   4.494   3.129   2.307 -0.1858 -0.0621  0.3829
 2719TIP3    H129716   4.419   3.094   2.356 -1.3618  2.2400  0.4179
 2719TIP3    H229717   4.565   3.133   2.371 -0.8694  0.2516  1.1490
 2720TIP3   OH229718   6.297   6.640   7.833 -0.1103  0.0285  0.1708
 2720TIP3    H129719   6.378   6.681   7.800 -1.3085  2.2663 -0.1847
 2720TIP3    H229720   6.249   6.712   7.873 -1.5209 -1.4577  1.2712
 2721TIP3   OH229721   1.764   6.102   0.335 -0.4809  0.2901 -0.1151
 2721TIP3    H129722   1.728   6.131   0.419  0.4078  2.7144 -0.4995
 2721TIP3    H229723   1.749   6.176   0.276 -1.2943 -1.4489 -2.1959
 2722TIP3   OH229724   4.693   3.810   1.507  0.5467 -0.4166 -1.0640
 2722TIP3    H129725   4.753   3.743   1.539  2.5188  0.6980 -2.2243
 2722TIP3    H229726   4.730   3.892   1.540 -1.0018  0.2553 -0.8875
 2723TIP3   OH229727   5.138   5.515   6.820 -0.5436  0.8165  0.1305
 2723TIP3    H129728   5.088   5.592   6.790  0.8121  1.6594 -0.0667
 2723TIP3    H229729   5.182   5.545   6.899 -2.6211 -0.8296  2.0487
 2724TIP3   OH229730   6.781   3.308   7.979 -0.0493  0.1088 -0.1882
 2724TIP3    H129731   6.755   3.391   7.938  1.1556  0.8387  0.4545
 2724TIP3    H229732   6.755   3.241   7.916  2.6650  1.2279 -2.7563
 2725TIP3   OH229733   5.299   5.752   6.119 -0.8710  0.1263  0.4336
 2725TIP3    H129734   5.230   5.686   6.110  2.0972 -2.9792 -2.6330
 2725TIP3    H229735   5.373   5.704   6.155  1.2660  1.8324 -1.4379
 2726TIP3   OH229736   2.507   4.577   7.254  0.2919 -0.1832  0.6135
 2726TIP3    H129737   2.474   4.591   7.343  2.1457  1.2014  1.1402
 2726TIP3    H229738   2.545   4.489   7.256  2.7483  0.8115  2.0765
 2727TIP3   OH229739   3.510   6.457   7.311  0.1273  0.0226  0.2651
 2727TIP3    H129740   3.560   6.497   7.240  0.5695  1.0033  1.0993
 2727TIP3    H229741   3.466   6.531   7.354  0.6444 -0.4246  1.6032
 2728TIP3   OH229742   4.074   0.660   7.995  0.2176 -0.4847  0.1176
 2728TIP3    H129743   3.991   0.624   8.028  0.9238 -2.0637  0.2636
 2728TIP3    H229744   4.048   0.729   7.934 -1.2517 -1.7216 -0.7319
 2729TIP3   OH229745   1.293   3.622   8.434  0.2623  0.3134  0.6070
 2729TIP3    H129746   1.227   3.642   8.368  1.4937 -0.4345 -0.9135
 2729TIP3    H229747   1.300   3.527   8.434  2.8247  0.3947 -0.8940
 2730TIP3   OH229748   5.733   0.190   2.301 -0.0745 -0.2638  0.0378
 2730TIP3    H129749   5.681   0.232   2.369  2.1993 -0.3596  1.9660
 2730TIP3    H229750   5.726   0.097   2.320 -1.2197 -0.4786 -1.2865
 2731TIP3   OH229751   0.368   5.789   1.018  0.1611  0.4211  0.7100
 2731TIP3    H129752   0.278   5.757   1.012  0.2400  0.2644  0.3289
 2731TIP3    H229753   0.371   5.838   1.100 -0.7786  2.0308 -0.1589
 2732TIP3   OH229754   1.612   0.967   2.604  0.0386  0.2992  0.5655
 2732TIP3    H129755   1.607   1.062   2.610 -3.3802  0.2164  0.7998
 2732TIP3    H229756   1.548   0.943   2.537  0.6523 -1.8799  0.6660
 2733TIP3   OH229757   5.433   5.521   2.292 -0.6154 -0.2560 -0.1197
 2733TIP3    H129758   5.457   5.456   2.358  1.5062  0.8624  0.2792
 2733TIP3    H229759   5.424   5.603   2.341  0.7418  0.5416 -1.1353
 2734TIP3   OH229760   1.054   0.694   0.838 -0.7178 -0.4468  0.2898
 2734TIP3    H129761   1.083   0.626   0.777  1.4021  0.0796  0.6530
 2734TIP3    H229762   1.037   0.770   0.783  1.1030  0.0009  0.3084
 2735TIP3   OH229763   6.780   3.099   1.015 -0.0962  0.6116 -0.6192
 2735TIP3    H129764   6.697   3.131   1.049  1.2027  2.4669  1.0077
 2735TIP3    H229765   6.816   3.047   1.087 -1.2680 -3.2202 -2.5029
 2736TIP3   OH229766   4.125   4.571   7.555  0.0144  0.3064 -0.0823
 2736TIP3    H129767   4.033   4.581   7.579 -0.3178 -0.4778 -0.9660
 2736TIP3    H229768   4.128   4.488   7.507  1.1706  0.3651 -0.1311
 2737TIP3   OH229769   5.007   3.697   6.893 -0.0020 -0.1936 -0.0293
 2737TIP3    H129770   4.916   3.717   6.871  0.0597 -0.5633 -0.6374
 2737TIP3    H229771   5.054   3.699   6.810  1.2184  3.1656  0.5742
 2738TIP3   OH229772   5.681   5.658   7.022 -0.0845 -0.0646  0.0706
 2738TIP3    H129773   5.745   5.673   6.952 -0.2167 -1.7312 -0.4487
 2738TIP3    H229774   5.734   5.623   7.094 -0.3267 -0.9598 -0.1797
 2739TIP3   OH229775   3.676   1.778   0.557  0.7626 -0.0942  0.0050
 2739TIP3    H129776   3.634   1.822   0.631  0.2159 -2.6463  1.3212
 2739TIP3    H229777   3.758   1.826   0.544 -0.4549  2.2109  0.2946
 2740TIP3   OH229778   5.479   5.909   7.759  0.0508 -0.7736  0.2175
 2740TIP3    H129779   5.393   5.912   7.717 -0.3209  0.2768  0.9978
 2740TIP3    H229780   5.473   5.835   7.820 -0.1562 -0.9647 -0.0341
 2741TIP3   OH229781   3.009   0.686   6.239  0.1417  0.0021 -0.0925
 2741TIP3    H129782   2.926   0.730   6.252 -0.4242 -0.6899 -1.1568
 2741TIP3    H229783   2.990   0.593   6.255  1.5268  0.1421  3.0814
 2742TIP3   OH229784   4.720   0.047   2.145  0.0652  0.0340 -0.0629
 2742TIP3    H129785   4.732  -0.007   2.223 -0.7594 -1.9817 -1.2589
 2742TIP3    H229786   4.631   0.082   2.153  0.1129  0.1249  0.0712
 2743TIP3   OH229787   3.745   3.186   7.473 -0.0087  0.0412  0.1527
 2743TIP3    H129788   3.841   3.178   7.474 -0.0150 -2.7233 -2.9718
 2743TIP3    H229789   3.717   3.140   7.552  1.2508 -2.3203 -0.6706
 2744TIP3   OH229790   0.922   6.715   6.142 -0.3664  0.0884 -0.4478
 2744TIP3    H129791   0.854   6.653   6.165  0.7633 -0.8932  0.3825
 2744TIP3    H229792   0.877   6.800   6.138 -1.7679 -0.6440 -0.7650
 2745TIP3   OH229793   0.373   5.658   7.050 -0.1962 -0.3536  0.5877
 2745TIP3    H129794   0.400   5.568   7.069 -0.6470 -0.3954  1.0429
 2745TIP3    H229795   0.448   5.696   7.004  1.3471  0.0216  3.1609
 2746TIP3   OH229796   5.055   1.238   8.413 -0.2376 -0.4546  0.0996
 2746TIP3    H129797   5.081   1.325   8.442  1.0770 -0.4954 -0.8311
 2746TIP3    H229798   5.023   1.195   8.491  1.0846  0.1669  1.0236
 2747TIP3   OH229799   2.360   0.653   7.932  0.2148 -0.5967 -0.1986
 2747TIP3    H129800   2.444   0.612   7.908  1.6006  1.4558  0.8260
 2747TIP3    H229801   2.370   0.744   7.904 -1.6954 -0.3079 -0.0239
 2748TIP3   OH229802   1.218   3.958   8.349 -0.1296  0.1088  0.2676
 2748TIP3    H129803   1.283   3.946   8.279  1.3106 -1.1964  1.7313
 2748TIP3    H229804   1.144   3.903   8.323 -0.5154  1.2733 -1.2196
 2749TIP3   OH229805   0.411   3.174   8.189 -0.0931 -0.0781 -0.1347
 2749TIP3    H129806   0.458   3.214   8.117  0.7182 -0.5589  0.1086
 2749TIP3    H229807   0.414   3.239   8.259  0.4670 -0.2147 -0.0270
 2750TIP3   OH229808   0.519   4.890   0.209 -0.0222 -0.3678  0.2974
 2750TIP3    H129809   0.501   4.969   0.259 -0.9735  0.5288 -1.3578
 2750TIP3    H229810   0.568   4.921   0.133 -2.4646 -0.9314 -1.6370
 2751TIP3   OH229811   5.281   5.534   0.194  0.3865  0.1352  0.2540
 2751TIP3    H129812   5.247   5.446   0.209  1.0038 -0.1154  0.2392
 2751TIP3    H229813   5.211   5.592   0.220 -0.4261 -0.3754 -0.7032
 2752TIP3   OH229814   0.648   0.536   1.053  0.5277 -0.0418  0.1031
 2752TIP3    H129815   0.685   0.545   0.965 -0.9582  0.7524 -0.4736
 2752TIP3    H229816   0.720   0.560   1.112  1.3804 -0.0439 -0.9073
 2753TIP3   OH229817   3.035   4.651   0.713  0.1444  0.2368  0.4833
 2753TIP3    H129818   3.078   4.639   0.629  0.3010  2.6831  0.1594
 2753TIP3    H229819   2.942   4.651   0.693  0.2048  2.4983 -0.0101
 2754TIP3   OH229820   6.056   5.246   6.921 -0.0008 -0.1059  0.5714
 2754TIP3    H129821   6.145   5.282   6.925 -0.3523  0.7758  0.6790
 2754TIP3    H229822   5.999   5.323   6.913 -0.8393 -0.5747  1.7371
 2755TIP3   OH229823   4.015   1.965   6.880  0.3420 -0.1703 -0.5168
 2755TIP3    H129824   4.004   1.893   6.942 -1.8691 -0.5420 -1.2707
 2755TIP3    H229825   4.049   2.037   6.933 -0.4628 -0.8016  0.9123
 2756TIP3   OH229826   3.555   4.322   2.685 -0.2068  0.5427  0.8470
 2756TIP3    H129827   3.545   4.416   2.697  1.7124  0.9468 -0.3334
 2756TIP3    H229828   3.513   4.304   2.601 -0.4293  0.3517  0.9959
 2757TIP3   OH229829   1.269   2.039   2.709 -0.1914  0.3067  0.1116
 2757TIP3    H129830   1.229   2.069   2.791  0.6910  0.7337  0.3911
 2757TIP3    H229831   1.290   2.120   2.663  0.8905  0.1006  0.2331
 2758TIP3   OH229832   0.602   6.218   8.407  0.4829 -0.1072 -0.2191
 2758TIP3    H129833   0.633   6.155   8.472 -1.9689 -0.3307  0.8533
 2758TIP3    H229834   0.620   6.304   8.446  2.2602 -0.1433 -0.9033
 2759TIP3   OH229835   4.231   6.345   0.497 -0.2406 -0.0932  0.5009
 2759TIP3    H129836   4.302   6.291   0.530  0.5250  1.0832  0.8684
 2759TIP3    H229837   4.275   6.421   0.459 -1.2646  0.1509 -0.2305
 2760TIP3   OH229838   4.787   1.398   6.455 -0.3439  0.1813  0.4431
 2760TIP3    H129839   4.828   1.352   6.528 -2.3772  1.1937  2.3485
 2760TIP3    H229840   4.707   1.349   6.437 -1.8604  2.0911  1.6159
 2761TIP3   OH229841   4.502   2.924   7.348 -0.0221 -0.1573  0.6249
 2761TIP3    H129842   4.579   2.981   7.350  0.0834 -0.3163  1.2975
 2761TIP3    H229843   4.506   2.882   7.262  1.3463 -1.1054  1.1193
 2762TIP3   OH229844   2.033   4.488   1.040  0.1755 -0.1248 -0.2999
 2762TIP3    H129845   2.020   4.406   1.088 -2.1523  0.8807  0.9638
 2762TIP3    H229846   2.021   4.464   0.948 -1.1436 -1.1161  0.0948
 2763TIP3   OH229847   4.172   0.507   7.782  0.4661  0.3897 -0.4575
 2763TIP3    H129848   4.150   0.566   7.854  2.9806  1.8619 -0.7874
 2763TIP3    H229849   4.220   0.561   7.720  0.8168 -1.4902 -1.9313
 2764TIP3   OH229850   5.629   1.272   7.937  0.5604 -0.5775 -0.3689
 2764TIP3    H129851   5.537   1.282   7.913  0.7720  0.4108 -0.8348
 2764TIP3    H229852   5.628   1.257   8.031 -0.0600 -0.2133 -0.3156
 2765TIP3   OH229853   4.671   6.588   8.315  0.1432  0.2014 -0.1061
 2765TIP3    H129854   4.711   6.644   8.249 -1.6465  0.5094 -0.9930
 2765TIP3    H229855   4.689   6.632   8.398 -0.5917  1.7201 -0.7178
 2766TIP3   OH229856   5.951   5.212   0.072  0.0686  0.2476 -0.1563
 2766TIP3    H129857   5.896   5.239  -0.002 -1.7218  1.6547  1.5665
 2766TIP3    H229858   6.023   5.275   0.073  0.3370 -0.0373 -0.9257
 2767TIP3   OH229859   5.069   5.047   2.427  0.1175  0.3151  0.2577
 2767TIP3    H129860   5.042   4.955   2.423  0.5544  0.2117 -0.5604
 2767TIP3    H229861   5.021   5.083   2.502 -0.7786 -0.3469  0.0183
 2768TIP3   OH229862   3.771   4.827   0.600  0.4149 -1.2100  0.1461
 2768TIP3    H129863   3.856   4.868   0.583 -1.4281  2.6578 -0.8793
 2768TIP3    H229864   3.769   4.814   0.694  1.6232 -0.0066  0.3708
 2769TIP3   OH229865   3.723   2.852   2.076 -0.0922  0.4243 -0.3723
 2769TIP3    H129866   3.794   2.867   2.012  0.0116 -0.3255 -0.4431
 2769TIP3    H229867   3.657   2.918   2.054 -0.0018  0.2584 -1.1803
 2770TIP3   OH229868   1.576   4.275   7.069  0.1574  0.0353  0.7553
 2770TIP3    H129869   1.482   4.269   7.053  0.5853  0.2007 -2.3308
 2770TIP3    H229870   1.611   4.189   7.043  1.1213  0.8047 -0.6000
 2771TIP3   OH229871   0.477   5.280   8.014 -0.2979 -0.1086  0.2164
 2771TIP3    H129872   0.468   5.287   7.919  0.9174 -0.7454  0.0341
 2771TIP3    H229873   0.387   5.268   8.045 -0.8379  1.2137 -0.7348
 2772TIP3   OH229874   4.824   4.998   0.488  0.2281  0.1408 -0.2749
 2772TIP3    H129875   4.843   4.918   0.439  1.1340  0.9945 -1.3683
 2772TIP3    H229876   4.765   4.970   0.558 -0.0072 -1.3573 -1.0394
 2773TIP3   OH229877   3.587   5.311   7.422 -0.4931  0.4414  0.4663
 2773TIP3    H129878   3.524   5.277   7.358  0.1385  2.5582 -1.3924
 2773TIP3    H229879   3.571   5.405   7.425  0.6526  0.6338  2.1799
 2774TIP3   OH229880   3.606   2.311   7.175 -0.5330 -0.2285 -0.3532
 2774TIP3    H129881   3.701   2.308   7.176 -0.4907  0.5531 -1.1228
 2774TIP3    H229882   3.581   2.310   7.267  0.2340  0.0734 -0.1354
 2775TIP3   OH229883   2.899   1.945   7.283 -0.1425 -0.1605 -0.1083
 2775TIP3    H129884   2.953   1.949   7.204  1.0794  0.2972  0.7327
 2775TIP3    H229885   2.960   1.956   7.355 -0.9991 -2.2232  1.0183
 2776TIP3   OH229886   2.744   1.590   1.739  0.0408  0.5682 -0.7109
 2776TIP3    H129887   2.656   1.578   1.774  0.4368 -0.0303  0.1012
 2776TIP3    H229888   2.776   1.501   1.724  0.3193  0.7908 -1.5162
 2777TIP3   OH229889   0.730   5.740   6.369 -0.3520  0.1531  0.2870
 2777TIP3    H129890   0.809   5.710   6.326 -0.0376  0.9409  0.2925
 2777TIP3    H229891   0.711   5.674   6.436 -0.8862 -1.1242 -1.0771
 2778TIP3   OH229892   6.081   6.764   1.366 -0.1002 -0.0752  0.1332
 2778TIP3    H129893   6.000   6.758   1.316 -1.0354  0.2856  1.5540
 2778TIP3    H229894   6.076   6.694   1.430  0.1984  0.6207  0.9383
 2779TIP3   OH229895   3.786   0.716   1.594 -0.1408  0.0786 -0.4233
 2779TIP3    H129896   3.698   0.732   1.560  0.1852  0.4053 -1.1188
 2779TIP3    H229897   3.832   0.799   1.581  0.1483  0.0533  0.3437
 2780TIP3   OH229898   0.569   5.996   6.595 -0.4357 -0.2589  0.0339
 2780TIP3    H129899   0.482   5.959   6.610 -0.2103 -0.5271  0.7451
 2780TIP3    H229900   0.569   6.020   6.502 -1.2607 -0.2605  0.0205
 2781TIP3   OH229901   2.242   4.507   6.494 -0.4738  0.0146 -0.3143
 2781TIP3    H129902   2.226   4.418   6.462 -0.7515  0.5093 -1.6092
 2781TIP3    H229903   2.279   4.553   6.419 -1.8354  1.4240 -0.1583
 2782TIP3   OH229904   6.805   1.227   0.403  0.5659 -0.1481  0.5682
 2782TIP3    H129905   6.797   1.283   0.325 -2.2814 -0.3628  0.6106
 2782TIP3    H229906   6.756   1.274   0.470  1.6399 -0.7522  1.8090
 2783TIP3   OH229907   6.452   5.665   7.796 -0.2316 -0.2470 -0.5275
 2783TIP3    H129908   6.474   5.587   7.746  0.2301 -0.1444 -0.4922
 2783TIP3    H229909   6.393   5.634   7.865  0.0284 -0.5865 -0.4543
 2784TIP3   OH229910   2.602   4.390   8.171  0.0151  0.1525  0.1416
 2784TIP3    H129911   2.669   4.435   8.119  1.2680 -0.6140  1.0099
 2784TIP3    H229912   2.581   4.311   8.122  2.0318 -1.1554  1.2251
 2785TIP3   OH229913   4.349   3.076   7.874  0.2293 -0.5180  0.1920
 2785TIP3    H129914   4.413   3.005   7.862  0.7282 -0.0180 -0.1881
 2785TIP3    H229915   4.345   3.089   7.968  0.7312 -0.5261  0.2202
 2786TIP3   OH229916   5.508   2.698   7.469  0.1259 -0.3822 -0.2976
 2786TIP3    H129917   5.526   2.638   7.397  3.1352 -0.0619  0.0712
 2786TIP3    H229918   5.589   2.701   7.519 -0.7623  2.0256  1.1727
 2787TIP3   OH229919   1.323   2.422   7.451 -0.2891 -0.1904 -0.2769
 2787TIP3    H129920   1.301   2.331   7.467 -0.8431 -0.1113 -0.5745
 2787TIP3    H229921   1.277   2.470   7.520  2.5757 -0.3568  1.9499
 2788TIP3   OH229922   6.264   6.587   0.585  0.0321  0.6364  0.1448
 2788TIP3    H129923   6.175   6.623   0.580  0.1849  0.8670 -2.2623
 2788TIP3    H229924   6.315   6.655   0.630 -0.5853  1.4745 -0.3873
 2789TIP3   OH229925   3.280   4.376   1.763 -0.5195  0.3160 -0.3336
 2789TIP3    H129926   3.336   4.421   1.700 -1.9803  0.0667 -1.8706
 2789TIP3    H229927   3.237   4.308   1.712 -1.0078 -0.5321  1.1743
 2790TIP3   OH229928   1.268   5.791   8.517 -0.1831  0.3252 -0.0538
 2790TIP3    H129929   1.307   5.866   8.473 -1.4237  0.3656 -1.1777
 2790TIP3    H229930   1.174   5.798   8.498 -0.6045 -0.3611  1.5979
 2791TIP3   OH229931   3.891   2.612   2.019 -0.6175 -0.2192  0.2641
 2791TIP3    H129932   3.824   2.567   2.072 -2.7132  1.0257 -1.2093
 2791TIP3    H229933   3.938   2.666   2.082 -0.4423 -1.7075  1.4703
 2792TIP3   OH229934   2.141   4.659   7.261 -0.1582  0.9331 -0.0201
 2792TIP3    H129935   2.218   4.677   7.314  0.0826 -1.5368  0.5831
 2792TIP3    H229936   2.079   4.617   7.321 -1.2566  1.2205 -0.9112
 2793TIP3   OH229937   2.365   6.294   0.070  0.5690 -0.2386  0.3056
 2793TIP3    H129938   2.441   6.350   0.055 -0.0159  0.4207 -0.2146
 2793TIP3    H229939   2.366   6.277   0.164  0.8974  0.4383  0.4293
 2794TIP3   OH229940   5.632   4.203   7.770  0.2674 -0.3281  0.2578
 2794TIP3    H129941   5.626   4.132   7.707 -0.6240 -0.2390  0.2349
 2794TIP3    H229942   5.681   4.272   7.725 -1.1580  0.1024 -0.6974
 2795TIP3   OH229943   2.163   3.296   0.518 -0.0142 -0.3779 -0.2216
 2795TIP3    H129944   2.095   3.257   0.464 -0.0569  0.7305 -0.9898
 2795TIP3    H229945   2.245   3.273   0.473 -0.0068 -0.0324 -0.3845
 2796TIP3   OH229946   3.268   5.207   8.501 -0.5044  0.1940 -0.3002
 2796TIP3    H129947   3.264   5.260   8.421 -2.0734  1.2363  0.4140
 2796TIP3    H229948   3.353   5.162   8.496 -0.3988  0.5002 -2.3589
 2797TIP3   OH229949   1.664   4.035   6.953  0.4292  0.1526 -0.3718
 2797TIP3    H129950   1.625   4.024   6.866 -0.9872 -0.3414  0.2786
 2797TIP3    H229951   1.729   3.965   6.960 -0.1088 -0.3919 -0.7073
 2798TIP3   OH229952   1.038   1.548   6.306 -0.0947 -0.0568  0.8753
 2798TIP3    H129953   1.069   1.489   6.375  3.5329  0.2549 -0.2973
 2798TIP3    H229954   1.111   1.609   6.292 -1.3359  0.9134 -2.0975
 2799TIP3   OH229955   5.521   2.797   2.317  0.1084 -0.2443  0.0851
 2799TIP3    H129956   5.541   2.703   2.327 -0.7938 -0.8207 -2.7170
 2799TIP3    H229957   5.607   2.839   2.312  0.5245 -0.9509  0.9774
 2800TIP3   OH229958   2.796   0.864   7.774 -0.1536 -0.4235  0.0198
 2800TIP3    H129959   2.811   0.788   7.718  1.7260  0.3352 -0.6054
 2800TIP3    H229960   2.823   0.836   7.861 -0.3228 -0.7449 -0.0309
 2801TIP3   OH229961   1.587   1.861   7.012 -0.1984  0.2386 -0.6363
 2801TIP3    H129962   1.627   1.813   7.084 -0.0760 -0.4914 -1.1816
 2801TIP3    H229963   1.494   1.838   7.016  0.3432 -3.0175 -3.0653
 2802TIP3   OH229964   1.563   0.368   1.512  0.3511  0.0890 -0.0524
 2802TIP3    H129965   1.610   0.356   1.594 -1.0305 -2.2591  0.5108
 2802TIP3    H229966   1.532   0.280   1.489 -2.8153  1.2602 -0.8872
 2803TIP3   OH229967   0.691   5.901   0.036  0.2619 -0.1523  0.1998
 2803TIP3    H129968   0.724   5.829   0.090  0.7400 -2.1431 -2.5021
 2803TIP3    H229969   0.605   5.870   0.005  0.0681  0.8391 -0.2922
 2804TIP3   OH229970   0.348   4.462   1.971 -0.8362 -0.3902 -0.7718
 2804TIP3    H129971   0.324   4.507   2.052 -0.2230  1.1603 -1.4279
 2804TIP3    H229972   0.286   4.389   1.966  0.4157 -1.8353  2.1425
 2805TIP3   OH229973   1.565   4.269   0.182  0.0931  0.0049  0.0969
 2805TIP3    H129974   1.660   4.274   0.187  0.2352 -2.0788  0.2976
 2805TIP3    H229975   1.547   4.200   0.118 -1.3291  1.4545 -1.1618
 2806TIP3   OH229976   4.253   1.861   7.383  0.5365  0.8060 -0.4179
 2806TIP3    H129977   4.246   1.818   7.298  3.9129  0.4194 -0.6121
 2806TIP3    H229978   4.229   1.794   7.447  1.7787 -0.1408 -0.9207
 2807TIP3   OH229979   2.661   2.401   0.204  0.2204 -0.1650 -0.6241
 2807TIP3    H129980   2.700   2.314   0.197  1.4704  0.3932 -0.9405
 2807TIP3    H229981   2.735   2.461   0.193 -0.5777  0.9354 -0.1575
 2808TIP3   OH229982   5.933   0.981   8.266  0.0910 -0.1181 -0.5937
 2808TIP3    H129983   5.935   1.005   8.359  1.0377  0.3326 -0.7232
 2808TIP3    H229984   5.950   1.062   8.220  0.3770 -0.4874 -1.1437
 2809TIP3   OH229985   3.143   3.920   1.036  0.1759 -0.1075  0.5024
 2809TIP3    H129986   3.145   3.952   1.126  0.0649 -0.6977  0.7132
 2809TIP3    H229987   3.089   3.984   0.989 -1.3679 -0.8344  1.2504
 2810TIP3   OH229988   3.098   1.380   8.536 -0.1404 -0.3003 -0.1629
 2810TIP3    H129989   3.050   1.305   8.500 -2.9904  0.5978  1.4636
 2810TIP3    H229990   3.056   1.456   8.497 -0.1401  0.5363  1.3885
 2811TIP3   OH229991   5.909   5.146   0.606 -0.4322 -0.2071  0.3113
 2811TIP3    H129992   5.906   5.159   0.511  1.5664 -1.4340  0.0235
 2811TIP3    H229993   6.002   5.145   0.627 -0.7635 -2.0638  1.9687
 2812TIP3   OH229994   3.723   4.183   0.676 -1.0278  0.4998 -0.2900
 2812TIP3    H129995   3.659   4.183   0.747 -0.9108 -0.7608 -0.1595
 2812TIP3    H229996   3.754   4.093   0.672  1.1674  1.1871  0.0339
 2813TIP3   OH229997   3.598   3.089   8.217 -0.5783 -0.2861 -0.7345
 2813TIP3    H129998   3.503   3.087   8.204 -0.6879 -1.1705  0.0941
 2813TIP3    H229999   3.623   2.997   8.224  0.0422 -0.0364  0.9742
 2814TIP3   OH230000   6.559   6.283   0.394 -0.0581 -0.3199  0.4604
 2814TIP3    H130001   6.478   6.328   0.418 -0.6121 -0.5643 -0.8680
 2814TIP3    H230002   6.551   6.267   0.300  2.3677  1.3021 -0.0952
 2815TIP3   OH230003   1.235   5.252   7.775  0.3515  0.3275 -0.5067
 2815TIP3    H130004   1.206   5.305   7.849  1.0213 -0.3305  0.2373
 2815TIP3    H230005   1.155   5.231   7.728 -0.0637  0.8717 -0.0583
 2816TIP3   OH230006   0.734   0.501   0.492  0.3441  0.6075  0.4293
 2816TIP3    H130007   0.675   0.427   0.502  1.4414 -0.2647  0.5966
 2816TIP3    H230008   0.730   0.523   0.399  1.8436 -1.2720 -0.1499
 2817TIP3   OH230009   2.087   5.159   6.408  0.3551 -0.2395  0.0936
 2817TIP3    H130010   2.019   5.096   6.383  0.3301  0.0151 -0.5012
 2817TIP3    H230011   2.168   5.122   6.372  0.3644 -0.0094 -0.1203
 2818TIP3   OH230012   1.422   5.939   0.533 -0.0671 -0.6407 -0.9439
 2818TIP3    H130013   1.417   5.852   0.572 -2.2968 -0.5588 -0.9398
 2818TIP3    H230014   1.349   5.987   0.571  1.1064  1.2650 -0.9601
 2819TIP3   OH230015   2.540   4.965   7.885  0.4363 -0.1501 -0.2399
 2819TIP3    H130016   2.488   4.989   7.808  1.4059 -1.5210 -1.3723
 2819TIP3    H230017   2.631   4.972   7.856  0.8651  0.6695  1.2307
 2820TIP3   OH230018   6.458   1.767   7.136 -0.4554  0.6143 -0.2789
 2820TIP3    H130019   6.518   1.837   7.158  1.1402 -0.4840 -0.9671
 2820TIP3    H230020   6.408   1.752   7.217  1.5982  0.2131  0.9687
 2821TIP3   OH230021   3.245   2.691   7.915 -0.1944 -0.4369  0.4506
 2821TIP3    H130022   3.197   2.771   7.893  2.0598  0.9281  0.1891
 2821TIP3    H230023   3.272   2.702   8.006  0.4786 -0.6949  0.2955
 2822TIP3   OH230024   6.755   1.382   0.170 -0.3688  0.6101  0.0447
 2822TIP3    H130025   6.711   1.468   0.168  1.9281  1.8429 -2.1881
 2822TIP3    H230026   6.699   1.325   0.118 -1.5740  0.8867  0.9880
 2823TIP3   OH230027   3.767   5.895   0.672 -0.2639  0.1364 -0.3129
 2823TIP3    H130028   3.693   5.894   0.611 -0.3007 -0.2426 -0.2628
 2823TIP3    H230029   3.842   5.920   0.618 -0.6623  1.9979 -0.0852
 2824TIP3   OH230030   0.625   5.421   8.183  0.1342  0.0543  0.5011
 2824TIP3    H130031   0.565   5.379   8.122  2.4320 -0.0079 -1.9050
 2824TIP3    H230032   0.621   5.367   8.262 -0.2503 -2.1494 -0.9369
 2825TIP3   OH230033   0.071   1.972   7.286  0.5638  0.6675 -0.1594
 2825TIP3    H130034   0.085   2.066   7.287  0.4775  0.6771  0.3528
 2825TIP3    H230035   0.147   1.936   7.240  1.7105  0.8075  1.5675
 2826TIP3   OH230036   3.045   4.251   0.654 -0.3615  1.0003 -0.0921
 2826TIP3    H130037   2.983   4.183   0.678  2.4873 -1.4448  1.0954
 2826TIP3    H230038   3.046   4.251   0.558 -2.2579  1.2599 -0.1342
 2827TIP3   OH230039   6.206   2.894   1.138  0.1027  0.3223 -0.0083
 2827TIP3    H130040   6.205   2.802   1.165 -0.7636  0.1380 -0.6467
 2827TIP3    H230041   6.186   2.943   1.218  2.1341  0.0801  0.7170
 2828TIP3   OH230042   2.823   3.782   1.744 -0.0096 -0.0127 -0.8783
 2828TIP3    H130043   2.800   3.867   1.707 -0.7008  0.4963  0.6251
 2828TIP3    H230044   2.771   3.719   1.693 -0.2782  0.5639 -1.3358
 2829TIP3   OH230045   1.503   6.041   6.649 -0.1860 -0.5788 -0.8794
 2829TIP3    H130046   1.573   6.064   6.587 -0.0361 -0.9743 -0.8659
 2829TIP3    H230047   1.534   5.960   6.690 -0.3195 -0.3576 -0.3375
 2830TIP3   OH230048   4.727   3.189   1.552 -0.6281  0.2952  0.2279
 2830TIP3    H130049   4.688   3.238   1.480 -0.3355 -0.4532 -0.4613
 2830TIP3    H230050   4.820   3.183   1.530 -0.5872 -0.1989  0.5015
 2831TIP3   OH230051   2.990   3.421   7.508  0.1307  0.0745 -0.0301
 2831TIP3    H130052   3.017   3.331   7.488  0.5237  0.5234 -1.7087
 2831TIP3    H230053   2.912   3.435   7.455 -0.1795  0.5803  0.5586
 2832TIP3   OH230054   4.696   4.870   2.390  0.6582  0.0596 -0.3865
 2832TIP3    H130055   4.606   4.880   2.423  0.5781  1.2400 -0.9051
 2832TIP3    H230056   4.751   4.876   2.468  0.3271  0.1134 -0.1565
 2833TIP3   OH230057   5.409   1.042   8.407  0.0382  0.5455  0.3325
 2833TIP3    H130058   5.364   1.061   8.324  1.0018  0.3062 -0.2558
 2833TIP3    H230059   5.358   0.972   8.446  0.8589 -0.9481 -1.1627
 2834TIP3   OH230060   4.784   1.647   2.183  0.5550 -0.4299 -0.0624
 2834TIP3    H130061   4.761   1.569   2.235 -0.3548  0.0303  0.2411
 2834TIP3    H230062   4.702   1.695   2.174  1.3085  1.1164  0.7944
 2835TIP3   OH230063   1.539   2.829   8.124  0.1523 -0.3287  0.0301
 2835TIP3    H130064   1.587   2.820   8.042 -0.2021 -2.0802 -0.0429
 2835TIP3    H230065   1.494   2.744   8.135 -0.6291  0.2273  1.5108
 2836TIP3   OH230066   6.026   0.885   7.900  0.2073  0.6388  0.6012
 2836TIP3    H130067   6.094   0.917   7.960  1.3004  1.0236 -0.8079
 2836TIP3    H230068   5.951   0.942   7.917  1.0345  1.8117  0.4946
 2837TIP3   OH230069   6.625   5.827   7.184 -0.1911 -0.5207 -0.3286
 2837TIP3    H130070   6.664   5.860   7.265  1.0130 -0.7141 -0.8011
 2837TIP3    H230071   6.666   5.879   7.115 -1.7597  0.1552 -0.7908
 2838TIP3   OH230072   4.875   5.773   7.982 -0.3736 -0.0212  0.1705
 2838TIP3    H130073   4.908   5.692   8.023  1.5191  1.5846  2.0936
 2838TIP3    H230074   4.950   5.808   7.935 -1.3759  0.3140 -1.2433
 2839TIP3   OH230075   3.932   1.141   1.275 -0.0649 -0.0686 -0.3091
 2839TIP3    H130076   3.902   1.154   1.365 -0.6727 -0.5845 -0.4271
 2839TIP3    H230077   3.930   1.046   1.263 -0.2612  0.0096 -0.9563
 2840TIP3   OH230078   3.852   2.497   0.438 -0.3275 -0.2416  0.5954
 2840TIP3    H130079   3.765   2.478   0.403 -0.0829  0.5271 -0.4725
 2840TIP3    H230080   3.912   2.460   0.373  0.1426 -0.0139  0.8972
 2841TIP3   OH230081   6.423   6.810   7.680 -0.0973 -0.0562 -0.2902
 2841TIP3    H130082   6.358   6.786   7.615  0.8714 -1.2509 -0.8753
 2841TIP3    H230083   6.444   6.902   7.662 -2.3087  0.6671  0.5688
 2842TIP3   OH230084   4.511   3.612   7.879 -0.4836  0.1371 -0.2697
 2842TIP3    H130085   4.529   3.572   7.794 -1.0068 -1.1630  0.2028
 2842TIP3    H230086   4.513   3.539   7.941  0.0621  1.0780  0.8734
 2843TIP3   OH230087   2.537   1.628   0.229  0.1659 -0.4333 -0.0299
 2843TIP3    H130088   2.527   1.669   0.315  0.2100 -1.7743  0.6478
 2843TIP3    H230089   2.448   1.620   0.196  0.1345 -0.0693 -0.0356
 2844TIP3   OH230090   6.188   2.677   1.727  0.8448 -0.4358 -0.2801
 2844TIP3    H130091   6.110   2.651   1.679  0.7289  0.3189 -0.5117
 2844TIP3    H230092   6.173   2.645   1.816  0.4571 -0.6503 -0.4203
 2845TIP3   OH230093   5.854   2.535   8.598 -0.1635 -0.3832 -0.3496
 2845TIP3    H130094   5.908   2.611   8.622 -0.5865 -0.0157 -0.5408
 2845TIP3    H230095   5.883   2.466   8.657  1.9349 -0.8007 -1.7626
 2846TIP3   OH230096   5.357   5.365   0.870  0.3315  0.0797  0.0953
 2846TIP3    H130097   5.273   5.322   0.879 -0.3886  1.6857  1.5254
 2846TIP3    H230098   5.419   5.294   0.854 -1.3392 -1.0755 -1.6923
 2847TIP3   OH230099   3.355   0.224   0.533  0.3970  0.0464 -0.0602
 2847TIP3    H130100   3.339   0.249   0.623 -0.8879  2.1944 -0.8122
 2847TIP3    H230101   3.290   0.156   0.515 -1.7413  2.0070 -0.2770
 2848TIP3   OH230102   5.540   4.448   0.328  0.5365 -0.4981  0.4831
 2848TIP3    H130103   5.528   4.430   0.421 -0.4308 -0.9569  0.2939
 2848TIP3    H230104   5.604   4.518   0.324  0.0345  0.0405  1.5316
 2849TIP3   OH230105   5.497   0.214   1.125 -0.2753 -0.1112 -1.0926
 2849TIP3    H130106   5.570   0.277   1.126 -0.7646  0.4596 -0.5285
 2849TIP3    H230107   5.537   0.131   1.100  0.4154  0.3889 -1.6798
 2850TIP3   OH230108   1.164   1.021   0.107 -0.0033  0.1684  0.1863
 2850TIP3    H130109   1.073   1.005   0.082 -0.2274 -0.9520  1.6355
 2850TIP3    H230110   1.194   0.939   0.145  1.1689  0.9634  1.0546
 2851TIP3   OH230111   3.561   6.856   7.344  0.1438 -0.1527  0.3093
 2851TIP3    H130112   3.523   6.921   7.284  1.9581  1.9461  1.2679
 2851TIP3    H230113   3.608   6.795   7.287 -2.0359 -1.0316 -0.6575
 2852TIP3   OH230114   3.477   0.002   7.606 -0.0016  0.2399  0.3986
 2852TIP3    H130115   3.505  -0.026   7.519  0.9632  0.8493  0.5052
 2852TIP3    H230116   3.461  -0.080   7.653 -2.1439 -0.1246 -0.8259
 2853TIP3   OH230117   4.501   1.183   1.448 -0.6218  0.3882  0.5337
 2853TIP3    H130118   4.486   1.177   1.543 -0.1578 -1.1580  0.5444
 2853TIP3    H230119   4.596   1.177   1.439 -0.7024 -0.1499 -0.0530
 2854TIP3   OH230120   3.462   4.497   1.620  0.1227  0.1881  0.1767
 2854TIP3    H130121   3.412   4.531   1.546  0.9526  2.6547  0.6487
 2854TIP3    H230122   3.548   4.475   1.584  0.1578  0.2853  0.2016
 2855TIP3   OH230123   1.804   3.045   8.046  0.2344  0.2991  0.1581
 2855TIP3    H130124   1.859   2.968   8.036  0.3089  0.2994  0.5683
 2855TIP3    H230125   1.864   3.116   8.069  0.0942  0.3535  0.3583
 2856TIP3   OH230126   0.659   6.534   7.407 -0.3187 -0.4943 -0.4314
 2856TIP3    H130127   0.748   6.556   7.433  0.1654 -1.4855 -1.1526
 2856TIP3    H230128   0.651   6.440   7.425 -2.0099 -0.0176  1.7548
 2857TIP3   OH230129   3.500   6.849   0.907  0.0508 -0.2573  0.0527
 2857TIP3    H130130   3.590   6.817   0.896  0.3202  0.1841  0.8396
 2857TIP3    H230131   3.450   6.808   0.837  0.7335 -1.0540  0.0222
 2858TIP3   OH230132   4.450   3.696   0.484 -0.4227  0.5095 -0.1697
 2858TIP3    H130133   4.448   3.753   0.407  0.8506  0.8317  0.0116
 2858TIP3    H230134   4.542   3.676   0.497 -0.6651  0.0468  0.9801
 2859TIP3   OH230135   1.977   0.023   8.217 -0.2372  0.5195  0.0342
 2859TIP3    H130136   1.893  -0.000   8.256 -0.8410  2.3770 -0.0729
 2859TIP3    H230137   1.964   0.009   8.123 -1.0038  2.3732 -0.1591
 2860TIP3   OH230138   2.175   4.602   6.984  0.2495  0.0060  0.0967
 2860TIP3    H130139   2.138   4.632   7.067 -1.1080  1.3720 -0.9412
 2860TIP3    H230140   2.242   4.667   6.963 -0.8679  0.9060 -0.8596
 2861TIP3   OH230141   2.585   4.668   2.130  0.0857  0.4130  0.3972
 2861TIP3    H130142   2.677   4.693   2.125  0.7476 -1.5687  1.4301
 2861TIP3    H230143   2.578   4.619   2.213 -1.4465 -1.1103 -0.5520
 2862TIP3   OH230144   4.873   5.472   8.352  0.2773 -0.3204 -0.2493
 2862TIP3    H130145   4.923   5.525   8.290  0.5926 -0.2547  0.0571
 2862TIP3    H230146   4.886   5.381   8.322 -0.7888 -0.1920 -1.1548
 2863TIP3   OH230147   3.758   6.618   2.014  0.1503  0.5713 -0.3322
 2863TIP3    H130148   3.744   6.629   2.108  2.1195 -0.3827  0.1281
 2863TIP3    H230149   3.704   6.544   1.990 -0.7679  1.1450 -0.0771
 2864TIP3   OH230150   6.385   2.010   1.031 -0.1462  0.1621  1.0896
 2864TIP3    H130151   6.347   1.980   1.114 -0.1103  0.1265  1.0926
 2864TIP3    H230152   6.461   1.955   1.017  0.0115  0.3556  1.1752
 2865TIP3   OH230153   0.239   1.005   7.040 -0.0054 -0.1783  0.3192
 2865TIP3    H130154   0.270   1.050   7.119  1.0751  0.2204 -0.3017
 2865TIP3    H230155   0.193   1.073   6.990  2.9700  0.8099 -1.3679
 2866TIP3   OH230156   1.335   2.215   7.991  0.8018  0.0487  0.3730
 2866TIP3    H130157   1.269   2.197   8.059 -0.6573 -1.2972 -1.3084
 2866TIP3    H230158   1.354   2.130   7.953  1.9560  0.7154 -0.6086
 2867TIP3   OH230159   4.600   2.197   6.378 -0.2021  0.5151 -0.1867
 2867TIP3    H130160   4.693   2.223   6.376  0.8832 -2.6388  1.9244
 2867TIP3    H230161   4.561   2.251   6.446  0.5178  0.7035  0.0845
 2868TIP3   OH230162   3.948   0.354   6.345  0.6511  0.0639 -0.3833
 2868TIP3    H130163   3.921   0.445   6.354  3.4258  0.8341  1.6470
 2868TIP3    H230164   3.867   0.306   6.329 -1.3652  2.4844  1.6262
 2869TIP3   OH230165   1.701   1.385   7.388 -0.1624  0.2567  0.2453
 2869TIP3    H130166   1.711   1.307   7.443 -1.4785  0.2430  0.5061
 2869TIP3    H230167   1.690   1.350   7.299 -0.2784  0.1611  0.2962
 2870TIP3   OH230168   3.340   5.683   7.697 -0.5949  0.6172 -0.5434
 2870TIP3    H130169   3.328   5.748   7.766 -0.3707  0.6478 -0.5338
 2870TIP3    H230170   3.389   5.729   7.629  0.7335  0.0851  0.0157
 2871TIP3   OH230171   2.705   5.276   0.354 -0.1338 -0.2176 -0.0580
 2871TIP3    H130172   2.671   5.214   0.290  0.8312 -0.6068 -0.2032
 2871TIP3    H230173   2.742   5.222   0.423  0.9668  0.1799 -0.3174
 2872TIP3   OH230174   5.268   3.258   7.841 -0.2386 -0.0933 -0.3590
 2872TIP3    H130175   5.278   3.235   7.933 -0.6602  0.2348 -0.2265
 2872TIP3    H230176   5.356   3.250   7.805  0.4694  2.2248  0.6477
 2873TIP3   OH230177   1.694   6.132   6.444 -0.7037 -0.3380  0.5232
 2873TIP3    H130178   1.660   6.214   6.408  1.0238  0.1990  0.0485
 2873TIP3    H230179   1.737   6.089   6.371 -1.9420 -1.9119  0.6616
 2874TIP3   OH230180   0.145   2.751   8.088 -0.2139 -0.9155  0.1206
 2874TIP3    H130181   0.216   2.697   8.053 -0.5900 -0.2369 -1.7922
 2874TIP3    H230182   0.186   2.834   8.111  0.1959 -1.6493  2.2141
 2875TIP3   OH230183   3.523   0.737   0.028  0.9761 -0.2540  0.4592
 2875TIP3    H130184   3.453   0.688  -0.017  0.0854  0.4358  1.0515
 2875TIP3    H230185   3.528   0.697   0.115 -0.6258  1.4190  1.4027
 2876TIP3   OH230186   1.886   1.329   6.327 -0.3590 -0.1064  0.0250
 2876TIP3    H130187   1.918   1.277   6.254  0.3921  0.0098  0.2604
 2876TIP3    H230188   1.957   1.392   6.344 -1.0105  0.6179  0.1085
 2877TIP3   OH230189   3.117   2.969   8.184 -0.5325 -0.6280 -0.1938
 2877TIP3    H130190   3.081   2.989   8.270  0.3987  0.9667 -0.1340
 2877TIP3    H230191   3.165   3.048   8.159 -0.3791 -1.2352 -1.9691
 2878TIP3   OH230192   5.866   3.587   8.608 -0.4137  0.5392  0.4541
 2878TIP3    H130193   5.782   3.626   8.633 -1.9966 -1.2704 -1.5546
 2878TIP3    H230194   5.887   3.629   8.525 -0.4091 -0.4306 -0.0492
 2879TIP3   OH230195   2.508   6.196   6.607 -0.1871 -0.3319 -0.3285
 2879TIP3    H130196   2.548   6.262   6.664 -0.3562 -1.9406  1.7993
 2879TIP3    H230197   2.582   6.140   6.581  0.0410  0.8800 -2.5296
 2880TIP3   OH230198   3.161   2.315   8.095 -0.4082  0.0377 -0.1932
 2880TIP3    H130199   3.190   2.370   8.023 -1.2039  2.4396  1.2164
 2880TIP3    H230200   3.165   2.226   8.060  0.7628  0.9604 -2.6366
 2881TIP3   OH230201   6.659   0.340   7.477  0.3388  0.2762  0.3610
 2881TIP3    H130202   6.699   0.275   7.535 -1.1435 -0.4811  0.5708
 2881TIP3    H230203   6.624   0.407   7.537 -0.5422 -0.1326  0.3150
 2882TIP3   OH230204   4.765   0.958   6.643 -0.0003  0.1378 -0.0757
 2882TIP3    H130205   4.669   0.956   6.650 -0.0133 -0.8128 -0.4135
 2882TIP3    H230206   4.787   1.051   6.643 -0.8048  0.3723  1.6422
 2883TIP3   OH230207   1.631   0.282   7.799  0.5518  0.4855  0.5035
 2883TIP3    H130208   1.636   0.187   7.812  0.2137  0.2099 -1.1789
 2883TIP3    H230209   1.720   0.313   7.815  0.9341 -0.2813 -0.1150
 2884TIP3   OH230210   2.441   3.426   6.914 -0.4851  0.4913 -0.2793
 2884TIP3    H130211   2.360   3.382   6.889 -1.0575  0.6320  1.2166
 2884TIP3    H230212   2.457   3.488   6.843 -0.3742 -1.1659 -1.7667
 2885TIP3   OH230213   0.808   4.686   6.799  0.0142  0.1283 -0.2271
 2885TIP3    H130214   0.739   4.752   6.814 -1.4354 -1.2919 -0.3743
 2885TIP3    H230215   0.883   4.719   6.848 -1.1310  1.1594  0.9275
 2886TIP3   OH230216   1.590   2.601   2.461  0.4863  0.3012  0.7320
 2886TIP3    H130217   1.562   2.517   2.496  1.3131 -0.9344 -1.3746
 2886TIP3    H230218   1.658   2.631   2.522  0.4831 -0.7488  1.2711
 2887TIP3   OH230219   4.180   3.467   8.375  0.1787  0.2039  0.5278
 2887TIP3    H130220   4.263   3.507   8.350 -0.1002  0.2426 -0.3846
 2887TIP3    H230221   4.164   3.401   8.307 -0.4801  0.1200  0.7589
 2888TIP3   OH230222   6.750   3.995   1.494  0.0524 -0.3214  0.5847
 2888TIP3    H130223   6.728   3.926   1.431  2.1857  0.0912 -0.7061
 2888TIP3    H230224   6.687   4.065   1.477 -0.3473 -0.8279 -0.0436
 2889TIP3   OH230225   5.698   2.010   0.312  0.8233 -0.0006  0.3214
 2889TIP3    H130226   5.793   2.008   0.307  0.8175  1.3386 -3.6903
 2889TIP3    H230227   5.670   1.921   0.292  1.2084 -0.0829  0.1542
 2890TIP3   OH230228   5.345   1.284   7.898  0.4897  0.5190  0.0971
 2890TIP3    H130229   5.252   1.297   7.879  0.1015 -0.4506  1.1929
 2890TIP3    H230230   5.384   1.262   7.813 -0.7824 -1.6613  0.0055
 2891TIP3   OH230231   4.926   3.002   2.659  0.2593 -0.4153  0.0186
 2891TIP3    H130232   5.011   3.000   2.614 -0.5448 -1.5639 -1.5974
 2891TIP3    H230233   4.906   3.095   2.669  2.5227 -0.0713  2.1755
 2892TIP3   OH230234   6.660   0.372   7.175  0.0368 -0.0230 -0.5675
 2892TIP3    H130235   6.744   0.356   7.132  0.3462  0.0528  0.0068
 2892TIP3    H230236   6.679   0.364   7.269 -0.4806  0.5390 -0.4121
 2893TIP3   OH230237   5.409   6.661   2.021  0.2462 -0.2814 -0.6147
 2893TIP3    H130238   5.328   6.686   1.977 -0.0290 -1.0764 -0.5714
 2893TIP3    H230239   5.381   6.623   2.104  0.7278  0.5216 -0.0681
 2894TIP3   OH230240   2.919   2.191   0.422  0.0911  0.4534  0.5524
 2894TIP3    H130241   2.983   2.181   0.493 -0.3508 -2.0199  0.6995
 2894TIP3    H230242   2.838   2.212   0.467  0.1890  0.6685  0.6287
 2895TIP3   OH230243   0.847   2.148   0.595 -0.1365  0.0161  0.2373
 2895TIP3    H130244   0.794   2.104   0.662  0.4459 -2.2527 -0.7229
 2895TIP3    H230245   0.795   2.225   0.572 -0.7123  0.4669  2.7198
 2896TIP3   OH230246   5.800   5.557   1.384  0.3180 -0.1770  0.4257
 2896TIP3    H130247   5.814   5.649   1.361 -1.0928  0.4545  1.9658
 2896TIP3    H230248   5.788   5.557   1.478 -0.1680 -1.9036  0.3976
 2897TIP3   OH230249   4.193   2.802   7.403 -0.1334  0.2846 -0.1434
 2897TIP3    H130250   4.219   2.727   7.351  2.2196  0.2070  1.0407
 2897TIP3    H230251   4.103   2.782   7.431 -0.1919 -1.2181 -1.3086
 2898TIP3   OH230252   0.434   5.659   8.329 -0.5667 -0.4409 -0.6064
 2898TIP3    H130253   0.371   5.658   8.402 -0.3967 -2.1965 -0.4425
 2898TIP3    H230254   0.386   5.700   8.257 -0.8852  0.9284  0.3273
 2899TIP3   OH230255   4.555   2.095   1.012 -0.4029 -0.5448  0.1974
 2899TIP3    H130256   4.600   2.170   1.052  1.2168  0.2717 -2.8331
 2899TIP3    H230257   4.617   2.023   1.022 -0.8154 -0.8253  0.7756
 2900TIP3   OH230258   0.322   3.623   1.086  0.5021  0.2687  0.1306
 2900TIP3    H130259   0.361   3.661   1.008  0.6215  1.5793  0.7957
 2900TIP3    H230260   0.358   3.675   1.158 -1.2102  0.4583  0.8864
 2901TIP3   OH230261   5.811   5.845   6.259  0.3618 -0.0182  0.1104
 2901TIP3    H130262   5.826   5.762   6.215  0.3660  0.4949 -0.8909
 2901TIP3    H230263   5.889   5.897   6.238 -0.5723  0.9726 -1.0820
 2902TIP3   OH230264   3.467   3.182   0.754 -0.5030 -0.3984 -0.6754
 2902TIP3    H130265   3.460   3.276   0.771 -0.1224 -0.2992 -1.0292
 2902TIP3    H230266   3.446   3.140   0.837  0.7778  0.0436 -0.0957
 2903TIP3   OH230267   6.583   5.890   7.663 -0.1485  0.1196  0.0791
 2903TIP3    H130268   6.595   5.823   7.730 -0.4911 -0.0691 -0.0424
 2903TIP3    H230269   6.564   5.970   7.713 -0.2487  0.0142  0.2110
 2904TIP3   OH230270   3.898   5.095   2.249 -0.6899 -0.3421  0.0697
 2904TIP3    H130271   3.864   5.023   2.302  0.7873 -1.7121 -0.7608
 2904TIP3    H230272   3.827   5.117   2.190 -1.5443 -0.3593  1.0609
 2905TIP3   OH230273   5.860   4.480   2.208  0.5183 -0.1471  0.9236
 2905TIP3    H130274   5.785   4.422   2.215  0.6997 -0.2836  1.8710
 2905TIP3    H230275   5.926   4.441   2.265  0.8991  0.5981  1.0106
 2906TIP3   OH230276   1.793   5.909   1.835 -0.0008  0.1534 -0.0990
 2906TIP3    H130277   1.749   5.868   1.909 -2.1250  2.2143 -0.1068
 2906TIP3    H230278   1.827   5.992   1.871 -0.1776  0.7164 -1.1906
 2907TIP3   OH230279   4.830   0.617   7.857 -0.7896  0.0345  0.7764
 2907TIP3    H130280   4.851   0.709   7.871  0.0641 -0.0985  0.3825
 2907TIP3    H230281   4.895   0.586   7.794 -1.6545 -0.5974  0.1683
 2908TIP3   OH230282   0.635   2.987   1.111 -0.5252  0.2976  0.1258
 2908TIP3    H130283   0.730   2.995   1.100 -0.5545 -1.1333 -1.7166
 2908TIP3    H230284   0.601   3.073   1.085  0.1861  0.3274 -0.7550
 2909TIP3   OH230285   4.135   4.718   2.192 -0.2154  0.0691  0.2607
 2909TIP3    H130286   4.145   4.811   2.214 -1.1527  0.4732 -0.8834
 2909TIP3    H230287   4.219   4.678   2.216  0.4958  1.3676  0.0147
 2910TIP3   OH230288   6.595   3.435   0.451 -0.1234 -0.3105 -0.3258
 2910TIP3    H130289   6.604   3.378   0.374  0.0586 -0.5067 -0.1594
 2910TIP3    H230290   6.642   3.515   0.427 -0.8535 -0.0062 -0.7761
 2911TIP3   OH230291   5.790   4.192   0.299 -0.5939  0.5572  0.5209
 2911TIP3    H130292   5.803   4.122   0.235  0.2660  0.4862  0.7592
 2911TIP3    H230293   5.783   4.271   0.246  0.0560  0.4908  0.3306
 2912TIP3   OH230294   3.716   6.089   1.900  0.4221 -0.1286  0.8831
 2912TIP3    H130295   3.711   5.996   1.921 -0.7523  0.0985  1.6591
 2912TIP3    H230296   3.667   6.099   1.819  1.6902 -0.3834  0.0602
 2913TIP3   OH230297   4.737   5.379   0.110  0.2610  0.6202  0.0328
 2913TIP3    H130298   4.668   5.436   0.142 -0.0026  1.9183 -2.6472
 2913TIP3    H230299   4.740   5.307   0.174 -2.4137  1.3413  1.0959
 2914TIP3   OH230300   0.529   4.113   8.347 -0.2144 -0.2690 -0.0791
 2914TIP3    H130301   0.448   4.164   8.346  0.7814  1.5106  1.7820
 2914TIP3    H230302   0.584   4.156   8.413  3.0984 -0.1102 -2.6586
 2915TIP3   OH230303   4.477   6.032   0.279 -0.1209  0.2788  0.3260
 2915TIP3    H130304   4.488   5.975   0.355  2.5250 -0.1893 -0.3355
 2915TIP3    H230305   4.457   5.973   0.207  2.6685  0.0496 -0.3715
 2916TIP3   OH230306   5.430   2.588   8.040  0.0626 -0.1130  0.4908
 2916TIP3    H130307   5.408   2.572   7.948  0.6795 -0.5920  0.4182
 2916TIP3    H230308   5.347   2.578   8.087 -0.2764  0.2394 -0.0208
 2917TIP3   OH230309   6.501   2.842   7.576 -0.4290  0.0530  0.6675
 2917TIP3    H130310   6.444   2.911   7.612 -0.0786  0.4832  0.4065
 2917TIP3    H230311   6.441   2.776   7.542 -0.8140  1.2073 -0.9938
 2918TIP3   OH230312   4.485   3.241   1.220 -0.5912 -0.1900 -0.3773
 2918TIP3    H130313   4.515   3.304   1.286  0.0981  0.5995 -1.4060
 2918TIP3    H230314   4.460   3.164   1.271  1.4477 -0.2178  0.7191
 2919TIP3   OH230315   4.334   2.742   0.550 -0.7678 -0.4623  0.1254
 2919TIP3    H130316   4.327   2.760   0.456 -0.0166 -1.8424 -0.2273
 2919TIP3    H230317   4.258   2.784   0.589  0.3885  2.6637 -0.6896
 2920TIP3   OH230318   3.905   3.820   1.829 -0.0179 -0.5018  0.2718
 2920TIP3    H130319   3.884   3.913   1.835  0.0887 -0.4313 -0.4761
 2920TIP3    H230320   3.935   3.797   1.917  0.9812  0.4097  0.1787
 2921TIP3   OH230321   5.438   3.937   0.093  0.5149  0.1665 -0.2126
 2921TIP3    H130322   5.457   3.948  -0.001  2.2706  0.0472  0.0943
 2921TIP3    H230323   5.453   4.023   0.130  1.3629 -0.1324  0.1741
 2922TIP3   OH230324   0.587   4.927   7.956  0.4959 -0.6189  0.6968
 2922TIP3    H130325   0.532   4.962   8.026  0.8034  2.0155 -0.2408
 2922TIP3    H230326   0.675   4.925   7.993  0.8224  1.6572  0.2291
 2923TIP3   OH230327   6.267   5.829   7.663 -0.0591 -0.0716 -0.0262
 2923TIP3    H130328   6.343   5.778   7.692  0.2667  0.0039 -0.7324
 2923TIP3    H230329   6.281   5.842   7.569  0.2807  2.0359  0.2861
 2924TIP3   OH230330   6.264   2.683   8.164  0.6372  0.2159 -0.1562
 2924TIP3    H130331   6.272   2.779   8.161  0.2102  0.2978  0.8696
 2924TIP3    H230332   6.276   2.661   8.256  1.0384 -0.7558 -0.4304
 2925TIP3   OH230333   4.534   1.490   7.492  0.2396 -0.1371 -0.0036
 2925TIP3    H130334   4.624   1.474   7.520  1.0312  2.1120 -1.0463
 2925TIP3    H230335   4.536   1.481   7.397 -0.1157  1.9618 -0.2548
 2926TIP3   OH230336   0.138   3.823   0.709  0.3644  0.4458  0.0216
 2926TIP3    H130337   0.208   3.886   0.726  1.0515 -0.4386  0.5666
 2926TIP3    H230338   0.083   3.826   0.787 -1.0166  2.1256 -0.9594
 2927TIP3   OH230339   1.480   2.303   2.132  0.7500  0.2619 -0.6070
 2927TIP3    H130340   1.427   2.313   2.210  1.9778  0.2587  0.2531
 2927TIP3    H230341   1.548   2.370   2.139  0.9529  0.1864 -1.6125
 2928TIP3   OH230342   3.817   1.331   1.746 -0.3109  0.2521  0.1356
 2928TIP3    H130343   3.888   1.384   1.783 -0.3588  0.5787 -0.2335
 2928TIP3    H230344   3.785   1.278   1.819  1.1309 -0.8103  0.0399
 2929TIP3   OH230345   0.933   5.210   7.627 -0.0061  0.3980 -0.1315
 2929TIP3    H130346   0.921   5.134   7.684 -0.3658 -1.1346 -2.1628
 2929TIP3    H230347   0.869   5.198   7.557  0.2964  2.3192 -0.7927
 2930TIP3   OH230348   1.039   2.370   1.379  0.7511  0.4057 -0.6270
 2930TIP3    H130349   0.955   2.413   1.367  0.3045 -0.0386  0.7577
 2930TIP3    H230350   1.022   2.301   1.443  2.6456  1.8254  1.5371
 2931TIP3   OH230351   0.763   1.167   8.184  0.5042 -0.7181  0.6204
 2931TIP3    H130352   0.776   1.232   8.253 -0.0691 -1.2603  1.2593
 2931TIP3    H230353   0.821   1.095   8.209  2.1971  0.0756 -0.8323
 2932TIP3   OH230354   4.662   4.461   7.201  0.2240 -0.1743  0.1907
 2932TIP3    H130355   4.580   4.476   7.153  1.7477 -1.0433 -3.0041
 2932TIP3    H230356   4.690   4.548   7.229 -1.5501  0.1709  1.0029
 2933TIP3   OH230357   3.167   1.760   6.514  1.4251 -0.4402  0.5549
 2933TIP3    H130358   3.122   1.758   6.429  1.3564  0.0574  0.5745
 2933TIP3    H230359   3.152   1.673   6.551  1.7190 -0.7691 -0.0797
 2934TIP3   OH230360   2.599   6.517   6.675 -0.2714  0.0104  0.4349
 2934TIP3    H130361   2.613   6.541   6.766  0.6386 -0.5236  0.4401
 2934TIP3    H230362   2.503   6.514   6.666 -0.3875 -0.9908  1.6595
 2935TIP3   OH230363   3.420   1.836   0.222 -0.3865 -0.2576  0.0479
 2935TIP3    H130364   3.366   1.915   0.220 -1.0734 -0.7013  0.6634
 2935TIP3    H230365   3.375   1.777   0.283 -0.1417 -1.3027 -0.7461
 2936TIP3   OH230366   0.458   6.252   6.802 -0.3845 -0.1268  0.1812
 2936TIP3    H130367   0.462   6.304   6.722 -1.5564 -0.6234 -0.2096
 2936TIP3    H230368   0.427   6.167   6.774  1.4950 -1.0810  0.8177
 2937TIP3   OH230369   5.968   2.147   7.988 -0.4049 -0.1136 -0.3428
 2937TIP3    H130370   6.024   2.152   7.911  1.0314  1.0459  0.6946
 2937TIP3    H230371   5.989   2.226   8.038 -0.0684 -1.5753  2.0158
 2938TIP3   OH230372   3.281   6.446   7.014  0.6818  0.5479  0.2580
 2938TIP3    H130373   3.334   6.453   6.934  1.5656  0.5797  0.8418
 2938TIP3    H230374   3.263   6.537   7.038 -1.4520  0.5583 -1.0955
 2939TIP3   OH230375   3.713   2.641   2.243  0.1421 -0.1458 -0.0404
 2939TIP3    H130376   3.703   2.550   2.216 -0.0083 -0.4584  0.9978
 2939TIP3    H230377   3.697   2.692   2.164  2.4086 -1.0662 -1.1824
 2940TIP3   OH230378   1.443   0.676   6.865 -0.4598  0.4474 -0.3288
 2940TIP3    H130379   1.487   0.756   6.836  0.0227  0.5437  0.6499
 2940TIP3    H230380   1.514   0.619   6.894 -0.9249  0.3190  0.5793
 2941TIP3   OH230381   2.202   6.708   2.256 -0.1173  0.0328 -0.1769
 2941TIP3    H130382   2.110   6.726   2.278 -0.2920 -1.0535  0.0318
 2941TIP3    H230383   2.252   6.758   2.320 -0.5474  1.1766 -0.7159
 2942TIP3   OH230384   4.880   2.882   7.119 -0.4582  0.1240  0.3058
 2942TIP3    H130385   4.813   2.949   7.132 -0.9140 -0.2114 -0.2645
 2942TIP3    H230386   4.922   2.906   7.036 -0.6295 -0.2970  0.0965
 2943TIP3   OH230387   1.859   0.225   1.528  0.3449  0.2278  0.4268
 2943TIP3    H130388   1.907   0.210   1.446 -1.6810  0.3663 -0.8444
 2943TIP3    H230389   1.871   0.143   1.577  1.2442 -0.0215 -0.1704
 2944TIP3   OH230390   0.023   0.329   6.982 -0.2105  0.2766 -0.0864
 2944TIP3    H130391   0.039   0.405   7.037  0.1079 -0.0671  0.3020
 2944TIP3    H230392   0.054   0.355   6.895  2.5135 -0.3161  0.5949
 2945TIP3   OH230393   6.739   4.594   1.855  0.1839 -0.0377 -0.2960
 2945TIP3    H130394   6.773   4.505   1.868  2.5156  0.7356 -0.6057
 2945TIP3    H230395   6.813   4.643   1.820 -0.3325  2.6219  2.0354
 2946TIP3   OH230396   2.561   3.244   7.067 -0.0784  0.1855  0.6673
 2946TIP3    H130397   2.541   3.318   7.011  1.1611 -0.0427 -0.1138
 2946TIP3    H230398   2.600   3.179   7.008  4.1380  1.0567  2.1232
 2947TIP3   OH230399   6.185   3.929   2.632  0.1981  0.1747  0.6400
 2947TIP3    H130400   6.163   4.020   2.653 -2.4174 -0.1071 -0.5997
 2947TIP3    H230401   6.261   3.936   2.574 -0.9023  1.7081 -0.6944
 2948TIP3   OH230402   4.523   3.762   8.503  0.0471  0.1571 -0.3489
 2948TIP3    H130403   4.461   3.721   8.562 -1.0651  0.1574 -1.4659
 2948TIP3    H230404   4.565   3.831   8.555 -1.5080  0.7261  0.2051
 2949TIP3   OH230405   2.354   5.067   6.333 -0.2967 -0.0698  0.2037
 2949TIP3    H130406   2.360   5.122   6.255 -0.0203  0.4214  0.5675
 2949TIP3    H230407   2.408   4.990   6.312  0.0443  0.2095  0.0318
 2950TIP3   OH230408   3.153   5.993   7.068  0.5576 -0.0381 -0.8987
 2950TIP3    H130409   3.087   5.990   7.137 -0.3077  3.3244 -1.3696
 2950TIP3    H230410   3.114   5.944   6.995 -0.6950  0.4502 -0.5849
 2951TIP3   OH230411   4.132   1.867   2.141  0.0669 -0.2624 -0.1759
 2951TIP3    H130412   4.167   1.954   2.160 -2.3947  0.9930 -0.9274
 2951TIP3    H230413   4.200   1.823   2.090  1.9270  0.6592  1.3835
 2952TIP3   OH230414   5.556   6.478   6.623 -0.1950  0.0368  0.3800
 2952TIP3    H130415   5.569   6.497   6.530  0.4555  2.8388  0.9426
 2952TIP3    H230416   5.615   6.406   6.642  2.2253  1.6184 -0.7104
 2953TIP3   OH230417   5.125   4.957   1.724  0.1448 -0.0736  0.7562
 2953TIP3    H130418   5.036   4.974   1.753 -0.3935  0.9832 -1.3409
 2953TIP3    H230419   5.145   4.869   1.756 -2.7527 -1.5800 -1.1941
 2954TIP3   OH230420   0.551   0.976   8.248  0.3380 -0.4604 -0.0305
 2954TIP3    H130421   0.535   1.070   8.243  1.7228 -0.1737  0.4600
 2954TIP3    H230422   0.637   0.968   8.288 -0.6564 -1.9869  2.0384
 2955TIP3   OH230423   3.685   4.690   0.363 -0.4977 -0.3294 -0.5389
 2955TIP3    H130424   3.692   4.719   0.454 -1.9335 -1.7916  0.0914
 2955TIP3    H230425   3.592   4.674   0.350 -0.4413  0.7116 -2.5789
 2956TIP3   OH230426   1.930   3.981   0.411  0.0142 -0.3955 -0.0228
 2956TIP3    H130427   1.952   3.957   0.501  1.6475  0.3497 -0.1825
 2956TIP3    H230428   1.904   4.073   0.416  2.5250  0.4320 -0.5738
 2957TIP3   OH230429   3.430   5.835   8.485 -0.2278  1.2360 -0.2313
 2957TIP3    H130430   3.469   5.802   8.404  0.3165  1.3298 -0.0125
 2957TIP3    H230431   3.489   5.906   8.512 -0.2407  1.0041  0.4064
 2958TIP3   OH230432   3.154   0.627   0.124 -0.0218  0.0515  0.6286
 2958TIP3    H130433   3.228   0.566   0.117 -1.2583 -1.5084  0.5257
 2958TIP3    H230434   3.183   0.705   0.077  0.0636 -2.0302 -3.1377
 2959TIP3   OH230435   1.382   0.873   8.297 -0.4518 -0.2916 -0.1790
 2959TIP3    H130436   1.337   0.839   8.375  1.1494 -2.4064 -0.0791
 2959TIP3    H230437   1.320   0.857   8.225 -1.4542  0.5658  0.4626
 2960TIP3   OH230438   4.822   0.088   7.444  0.7700 -0.6986  0.4150
 2960TIP3    H130439   4.898   0.136   7.476  0.1216  0.2797  0.5572
 2960TIP3    H230440   4.747   0.138   7.476  0.0570 -1.7322  0.4210
 2961TIP3   OH230441   3.067   3.931   2.053  0.4165  0.4905  0.0651
 2961TIP3    H130442   2.973   3.928   2.032  0.6941  0.3218 -1.2511
 2961TIP3    H230443   3.085   3.848   2.096 -0.0117  0.4762  0.2233
 2962TIP3   OH230444   4.780   6.524   7.291  0.6527  0.2610  0.0676
 2962TIP3    H130445   4.869   6.550   7.267  0.3534  0.3233 -1.0284
 2962TIP3    H230446   4.738   6.606   7.318  0.7710  0.3149  0.0897
 2963TIP3   OH230447   1.993   4.139   6.899  0.3221  0.3329  0.2891
 2963TIP3    H130448   1.943   4.159   6.978  1.5983  0.8677  1.0039
 2963TIP3    H230449   1.945   4.183   6.828 -1.1902 -0.7015  0.6359
 2964TIP3   OH230450   2.889   3.985   0.673 -0.1828 -0.0918  0.1679
 2964TIP3    H130451   2.803   3.999   0.635  0.2011 -0.0057 -0.6932
 2964TIP3    H230452   2.875   3.993   0.767 -0.6391  2.5939 -0.0528
 2965TIP3   OH230453   1.643   2.895   6.724  0.0804 -0.0990  0.0718
 2965TIP3    H130454   1.569   2.835   6.728 -0.2173  0.1934 -0.6898
 2965TIP3    H230455   1.686   2.887   6.809  0.7603 -2.2626 -0.4146
 2966TIP3   OH230456   5.226   3.749   1.582 -0.4631 -0.6077  0.2936
 2966TIP3    H130457   5.162   3.747   1.654  1.7557 -0.2517  2.3914
 2966TIP3    H230458   5.266   3.836   1.589  0.8307 -1.1334 -0.4088
 2967TIP3   OH230459   4.502   6.186   7.272 -0.2246  0.0589 -0.0678
 2967TIP3    H130460   4.497   6.148   7.185 -1.2787 -2.4213  0.9779
 2967TIP3    H230461   4.569   6.134   7.317  1.1949  2.0849  0.3098
 2968TIP3   OH230462   1.345   5.152   8.187  0.3346 -0.3222 -0.1174
 2968TIP3    H130463   1.328   5.213   8.259  0.7438 -0.8814  0.4719
 2968TIP3    H230464   1.380   5.206   8.117  1.3489  0.0263  0.6372
 2969TIP3   OH230465   0.488   2.779   8.044  0.0385  0.1426 -0.6422
 2969TIP3    H130466   0.441   2.862   8.052  0.8124  0.8728 -2.9270
 2969TIP3    H230467   0.523   2.763   8.132 -2.4238  0.7596  0.5500
 2970TIP3   OH230468   0.680   2.435   2.260  0.3700  0.0200  0.5152
 2970TIP3    H130469   0.635   2.359   2.296 -0.1486  0.2059  0.2652
 2970TIP3    H230470   0.724   2.401   2.182 -1.8034  0.4365 -0.9823
 2971TIP3   OH230471   4.758   2.122   1.773  0.6558  0.6159  0.6183
 2971TIP3    H130472   4.686   2.177   1.742  1.0177  1.6611  1.5774
 2971TIP3    H230473   4.774   2.152   1.862 -0.3759 -2.3363  1.8980
 2972TIP3   OH230474   1.501   3.756   7.209 -0.2875 -0.7407 -0.2010
 2972TIP3    H130475   1.574   3.817   7.222 -0.6533 -0.2512 -0.4359
 2972TIP3    H230476   1.532   3.674   7.248 -0.4269  0.0302  1.6527
 2973TIP3   OH230477   1.113   6.205   0.040  0.2262 -0.3139 -0.1117
 2973TIP3    H130478   1.108   6.298   0.017 -0.4806 -0.3858 -0.2698
 2973TIP3    H230479   1.189   6.199   0.097  1.0298  0.1517 -1.0924
 2974TIP3   OH230480   0.971   5.258   0.893 -0.1306  0.0920  0.3710
 2974TIP3    H130481   0.878   5.236   0.885  0.1147 -0.5251 -1.0345
 2974TIP3    H230482   1.013   5.174   0.917  0.1222  0.2844  0.6140
 2975TIP3   OH230483   6.654   5.927   0.646  0.0371  0.3412  0.3648
 2975TIP3    H130484   6.730   5.874   0.620 -0.6249 -0.1919 -0.5758
 2975TIP3    H230485   6.667   5.944   0.739  0.3559 -1.3678  0.6751
 2976TIP3   OH230486   2.841   0.594   7.670  0.0785 -0.2635 -0.1837
 2976TIP3    H130487   2.822   0.503   7.693  2.1086 -0.1614  2.4512
 2976TIP3    H230488   2.908   0.588   7.602  2.3672 -0.9175  1.9712
 2977TIP3   OH230489   5.850   2.871   7.509  0.3122  0.2684  0.4494
 2977TIP3    H130490   5.769   2.914   7.483 -0.2609  0.5932  2.5753
 2977TIP3    H230491   5.912   2.943   7.522  1.0483  0.0041 -1.4138
 2978TIP3   OH230492   6.237   1.853   0.547 -0.3610  0.4977 -0.4339
 2978TIP3    H130493   6.316   1.872   0.598  0.7182 -1.6835 -1.1767
 2978TIP3    H230494   6.216   1.937   0.504 -0.4677  2.0041  2.3529
 2979TIP3   OH230495   3.698   1.564   1.313  0.3635 -0.5684  0.2823
 2979TIP3    H130496   3.644   1.599   1.385  0.0713  0.8056 -0.5605
 2979TIP3    H230497   3.635   1.537   1.247  0.6051  2.5259 -1.3870
 2980TIP3   OH230498   3.998   1.738   7.021  0.2855  0.0188  0.4712
 2980TIP3    H130499   4.008   1.675   6.950  0.3927 -0.4175  0.8718
 2980TIP3    H230500   4.066   1.715   7.084  0.9955  1.1746  0.1596
 2981TIP3   OH230501   2.533   1.711   0.807 -0.0531  0.2448 -0.3817
 2981TIP3    H130502   2.598   1.660   0.856  1.2097  2.6677  0.6247
 2981TIP3    H230503   2.451   1.663   0.820  0.6128 -0.3428  2.4613
 2982TIP3   OH230504   1.815   2.775   1.200 -0.3354  0.1428 -0.4278
 2982TIP3    H130505   1.791   2.762   1.108 -0.3941  0.9246 -0.5231
 2982TIP3    H230506   1.833   2.686   1.232 -2.2116 -0.3618 -0.6537
 2983TIP3   OH230507   1.758   2.070   6.178 -0.0629 -1.0536  0.1204
 2983TIP3    H130508   1.828   2.081   6.114  0.9624  1.3518  1.5413
 2983TIP3    H230509   1.678   2.096   6.131  0.7167  0.9778 -0.1477
 2984TIP3   OH230510   5.168   2.837   7.990  0.0623 -0.0581  1.0439
 2984TIP3    H130511   5.177   2.827   8.085 -0.4688  1.0644  1.2328
 2984TIP3    H230512   5.078   2.867   7.978  0.4307  0.7785  0.2782
 2985TIP3   OH230513   2.482   5.127   8.129  0.4039  0.2770  0.3949
 2985TIP3    H130514   2.475   5.046   8.180 -0.7823 -1.1077 -1.7994
 2985TIP3    H230515   2.516   5.098   8.044 -0.0519  2.0955 -0.4537
 2986TIP3   OH230516   0.317   6.039   2.144 -0.8999  0.7119  0.3156
 2986TIP3    H130517   0.240   6.005   2.098 -1.3837  1.0923  0.8400
 2986TIP3    H230518   0.284   6.111   2.197  0.2234  2.5540 -1.3725
 2987TIP3   OH230519   4.487   5.211   0.299 -0.0807 -0.3708 -0.1082
 2987TIP3    H130520   4.433   5.140   0.333  0.7552 -0.4288  1.1876
 2987TIP3    H230521   4.533   5.245   0.376  2.0268 -0.5958 -1.1889
 2988TIP3   OH230522   1.158   3.169   7.545  0.3228  0.4639 -0.0704
 2988TIP3    H130523   1.218   3.097   7.528  0.0410  0.0621  0.6149
 2988TIP3    H230524   1.131   3.198   7.458  0.9107  0.1502 -0.3644
 2989TIP3   OH230525   0.276   5.233   2.521  0.0614 -0.0102  0.2082
 2989TIP3    H130526   0.293   5.293   2.448  0.5018 -2.0447 -1.4512
 2989TIP3    H230527   0.181   5.225   2.525  0.0275  0.3010  0.0132
 2990TIP3   OH230528   3.181   5.935   0.081 -0.0588 -0.3167  0.3830
 2990TIP3    H130529   3.136   5.958   0.162  0.6593  0.1946  0.6418
 2990TIP3    H230530   3.126   5.867   0.042 -1.3265  0.6336  0.4407
 2991TIP3   OH230531   3.293   4.527   8.527  0.0427 -0.4578 -0.7119
 2991TIP3    H130532   3.233   4.541   8.600  0.1026 -1.6493 -0.4147
 2991TIP3    H230533   3.236   4.508   8.452 -0.0354  1.1233 -1.0986
 2992TIP3   OH230534   4.203   2.243   0.648 -0.1290  0.1314  0.4036
 2992TIP3    H130535   4.190   2.338   0.643 -0.3547  0.0488 -0.8138
 2992TIP3    H230536   4.296   2.233   0.668  0.4567  0.6195 -1.7558
 2993TIP3   OH230537   0.731   1.000   0.928  0.5290  0.1914 -0.2616
 2993TIP3    H130538   0.805   0.949   0.961  1.1329  1.4375  0.3707
 2993TIP3    H230539   0.732   1.080   0.980 -0.7233  0.6289 -0.8680
 2994TIP3   OH230540   4.345   0.041   0.939 -0.0832  0.2096  0.3954
 2994TIP3    H130541   4.270   0.038   0.880 -1.2437 -0.0450  1.8302
 2994TIP3    H230542   4.380  -0.049   0.937  0.2001  0.3305 -0.2784
 2995TIP3   OH230543   2.953   0.251   7.601  0.2669 -0.3904  0.0331
 2995TIP3    H130544   2.911   0.198   7.533 -1.3480 -0.0779  0.7469
 2995TIP3    H230545   3.034   0.283   7.560 -0.1131 -1.1270 -1.3418
 2996TIP3   OH230546   6.261   4.832   8.202  0.1399  0.0118  0.3278
 2996TIP3    H130547   6.268   4.830   8.297 -1.3787 -3.5397  0.5368
 2996TIP3    H230548   6.214   4.913   8.183  1.2149  1.2353  2.4467
 2997TIP3   OH230549   2.312   6.257   0.379 -0.7181 -0.4074 -0.5572
 2997TIP3    H130550   2.306   6.342   0.423 -2.1714 -0.2885 -0.9117
 2997TIP3    H230551   2.222   6.239   0.351  0.2897  0.3917 -5.1170
 2998TIP3   OH230552   4.858   4.907   0.824 -0.2289  0.1712  0.3657
 2998TIP3    H130553   4.907   4.828   0.800  0.6934  1.0628 -0.8191
 2998TIP3    H230554   4.777   4.902   0.773 -0.2363 -0.0684  0.3995
 2999TIP3   OH230555   1.948   0.653   1.833 -0.2115  0.0028  0.3637
 2999TIP3    H130556   2.018   0.608   1.786  0.3240  0.3087  0.8448
 2999TIP3    H230557   1.994   0.702   1.902 -0.7451  1.5173 -0.3351
 3000TIP3   OH230558   1.885   1.552   8.066  0.3940  0.1947  0.3683
 3000TIP3    H130559   1.897   1.495   7.991  1.3733 -0.0777  0.7143
 3000TIP3    H230560   1.790   1.553   8.081  0.2844 -0.5650 -0.2248
 3001TIP3   OH230561   4.583   5.018   0.128 -0.4679  0.0027  0.1229
 3001TIP3    H130562   4.535   4.967   0.062  0.6341  1.4526 -1.9215
 3001TIP3    H230563   4.515   5.063   0.178 -1.3380 -0.4644 -0.6051
 3002TIP3   OH230564   2.539   1.470   8.488 -0.0654  0.9215  0.3887
 3002TIP3    H130565   2.449   1.485   8.518 -0.6804 -2.8376  0.8197
 3002TIP3    H230566   2.548   1.528   8.412 -3.7451 -0.2907 -1.1894
 3003TIP3   OH230567   2.256   3.469   8.155  0.1830 -0.1719  0.5617
 3003TIP3    H130568   2.325   3.474   8.090  0.2208  0.9816  0.6681
 3003TIP3    H230569   2.281   3.396   8.212  2.7575  1.8005  2.1744
 3004TIP3   OH230570   4.055   2.520   7.368  0.5890 -0.2807 -0.2543
 3004TIP3    H130571   4.121   2.459   7.401  0.7361 -0.4101 -0.7658
 3004TIP3    H230572   4.102   2.572   7.302  0.7857  1.2058  1.0076
 3005TIP3   OH230573   1.083   6.421   1.272 -0.1310 -0.0396 -1.1770
 3005TIP3    H130574   1.142   6.495   1.257  2.3683 -1.4405  1.0347
 3005TIP3    H230575   1.105   6.358   1.203 -0.2570  0.1090 -1.3553
 3006TIP3   OH230576   0.384   1.168   1.335  0.1000 -0.0778 -0.9419
 3006TIP3    H130577   0.405   1.121   1.255 -2.7565 -0.9568 -1.2995
 3006TIP3    H230578   0.288   1.160   1.343 -0.3401  4.0144  0.0280
 3007TIP3   OH230579   4.079   0.727   1.020 -0.7534 -0.3332  0.3680
 3007TIP3    H130580   4.084   0.634   1.041 -0.0900 -1.0929 -2.6725
 3007TIP3    H230581   4.170   0.752   1.001 -1.0598  0.6816  0.1902
 3008TIP3   OH230582   1.145   4.654   2.449 -0.5015  0.0186 -0.4376
 3008TIP3    H130583   1.085   4.721   2.417 -1.3179  0.9061  2.6308
 3008TIP3    H230584   1.230   4.697   2.454 -0.2464 -0.2936 -1.8328
 3009TIP3   OH230585   0.396   4.769   8.155  0.5561 -0.1983 -0.0915
 3009TIP3    H130586   0.490   4.753   8.155  0.3240 -1.7548  0.5769
 3009TIP3    H230587   0.362   4.712   8.085  0.0217 -0.3725  0.2999
 3010TIP3   OH230588   2.596   3.580   1.233  0.7785  0.6297 -0.0694
 3010TIP3    H130589   2.587   3.555   1.141  1.0328  0.1675  0.0288
 3010TIP3    H230590   2.665   3.647   1.232  0.9357  0.4689 -0.1930
 3011TIP3   OH230591   6.431   4.500   1.785 -0.0964  0.6157  0.1484
 3011TIP3    H130592   6.497   4.468   1.724 -0.4936 -0.3793  0.2142
 3011TIP3    H230593   6.449   4.454   1.867 -0.9524  0.1974  0.1184
 3012TIP3   OH230594   6.229   5.823   8.141 -0.3683  0.3275 -0.4248
 3012TIP3    H130595   6.229   5.873   8.223 -1.1842 -0.4324  0.0544
 3012TIP3    H230596   6.198   5.736   8.165 -0.7973  0.1388 -1.5653
 3013TIP3   OH230597   5.262   5.462   1.827 -0.2329 -0.0785 -0.0026
 3013TIP3    H130598   5.184   5.518   1.829 -0.2740 -0.1242 -0.2916
 3013TIP3    H230599   5.263   5.420   1.913  0.2695  0.9963  0.5410
 3014TIP3   OH230600   3.164   4.651   1.737  0.1575  0.0199  0.4756
 3014TIP3    H130601   3.151   4.674   1.645  1.8964  0.3075  0.2661
 3014TIP3    H230602   3.255   4.674   1.755 -0.3955  0.8763  2.5501
 3015TIP3   OH230603   3.044   3.949   0.173  0.1506 -0.0922  0.0537
 3015TIP3    H130604   3.105   3.879   0.196  0.6901  1.0724  2.5010
 3015TIP3    H230605   2.966   3.932   0.226 -0.2532  0.3857 -0.3749
 3016TIP3   OH230606   2.256   1.296   7.301 -0.5105 -0.0385 -0.4011
 3016TIP3    H130607   2.299   1.373   7.339 -1.9987  0.6691 -0.1087
 3016TIP3    H230608   2.324   1.228   7.302  0.6100  1.0467  0.0100
 3017TIP3   OH230609   5.077   2.003   7.557  0.0289  0.2884  0.0382
 3017TIP3    H130610   5.023   2.082   7.545  2.4677  1.9628 -0.6786
 3017TIP3    H230611   5.014   1.931   7.552 -2.0518  2.0484 -1.4405
 3018TIP3   OH230612   5.210   1.594   1.851  0.2056  0.0142 -0.4512
 3018TIP3    H130613   5.240   1.681   1.879  2.4852 -0.4643 -1.1956
 3018TIP3    H230614   5.170   1.556   1.929  2.8385  0.2296  1.1173
 3019TIP3   OH230615   5.919   4.289   1.193  0.5840  0.3503 -0.0103
 3019TIP3    H130616   5.837   4.293   1.145  1.5371  0.3108 -1.7230
 3019TIP3    H230617   5.965   4.213   1.157  2.9111  2.4190 -1.8121
 3020TIP3   OH230618   3.115   2.338   8.371 -0.6500 -0.4703 -0.3113
 3020TIP3    H130619   3.160   2.421   8.381  0.5254 -1.0022 -1.0179
 3020TIP3    H230620   3.129   2.313   8.280  0.5547 -2.2875  0.3082
 3021TIP3   OH230621   5.621   1.379   0.319  0.9099 -0.2024 -1.1167
 3021TIP3    H130622   5.585   1.293   0.297 -1.4615  0.6519 -0.8724
 3021TIP3    H230623   5.610   1.431   0.239  0.0818  0.5277 -0.5530
 3022TIP3   OH230624   1.879   4.671   1.232  0.6155 -0.1214  0.1822
 3022TIP3    H130625   1.912   4.609   1.167 -1.3825 -0.3569 -0.7081
 3022TIP3    H230626   1.801   4.629   1.268  0.6420  0.8068  1.4049
 3023TIP3   OH230627   2.332   3.109   7.074  0.0966  0.5210  0.2680
 3023TIP3    H130628   2.420   3.145   7.065  0.0630  0.5912  0.2170
 3023TIP3    H230629   2.323   3.048   7.001  0.3269  0.0494  0.6313
 3024TIP3   OH230630   0.784   5.680   0.168  0.4351  0.3524 -0.0756
 3024TIP3    H130631   0.788   5.674   0.263 -0.2087  4.6521  0.4536
 3024TIP3    H230632   0.876   5.684   0.140  0.6196 -0.1161  0.4557
 3025TIP3   OH230633   1.755   4.401   8.576  0.4397  0.4161  1.0209
 3025TIP3    H130634   1.762   4.434   8.487  2.6260  0.6741  1.2116
 3025TIP3    H230635   1.807   4.321   8.576  1.1288  0.8274  2.1908
 3026TIP3   OH230636   5.658   6.692   7.612 -0.3003  1.0041  0.2992
 3026TIP3    H130637   5.701   6.769   7.650 -0.4362  0.9974  0.4669
 3026TIP3    H230638   5.683   6.694   7.519  0.9493  0.3998  0.5928
 3027TIP3   OH230639   1.102   3.347   8.232 -0.4561 -0.3353  0.1210
 3027TIP3    H130640   1.110   3.279   8.166  1.8336  0.2419 -0.2773
 3027TIP3    H230641   1.190   3.357   8.268 -1.2000  0.8503  1.7809
 3028TIP3   OH230642   2.230   2.204   7.311 -0.3770 -0.3333 -0.5263
 3028TIP3    H130643   2.316   2.196   7.269  1.2240  1.4433  2.1044
 3028TIP3    H230644   2.192   2.283   7.273 -1.4941 -1.7496 -2.5576
 3029TIP3   OH230645   3.376   3.042   7.339  0.8032 -0.0844 -0.3041
 3029TIP3    H130646   3.430   3.054   7.417  0.4593  1.2839 -0.2529
 3029TIP3    H230647   3.438   3.010   7.272  1.4359  0.3250  0.0718
 3030TIP3   OH230648   2.391   5.652   0.265 -0.4486  0.0045 -0.1162
 3030TIP3    H130649   2.325   5.722   0.264 -1.1204 -0.6183 -0.0975
 3030TIP3    H230650   2.431   5.659   0.352  0.3550  1.1418 -0.5484
 3031TIP3   OH230651   2.725   4.123   8.463  0.7916  0.9457  0.3159
 3031TIP3    H130652   2.771   4.164   8.390  1.6937  2.1691  1.5261
 3031TIP3    H230653   2.794   4.088   8.520  0.1148  0.0955  0.6361
 3032TIP3   OH230654   1.181   1.741   1.021 -0.1838  0.2349 -0.4174
 3032TIP3    H130655   1.198   1.834   1.039 -0.1269  0.1876 -0.2171
 3032TIP3    H230656   1.189   1.733   0.926 -1.2030  0.6387 -0.5558
 3033TIP3   OH230657   1.893   6.376   8.346  0.5116  0.7448  0.0092
 3033TIP3    H130658   1.917   6.296   8.301 -0.5963  0.7012 -0.5209
 3033TIP3    H230659   1.959   6.386   8.414  2.1933  0.7940 -1.5672
 3034TIP3   OH230660   4.148   4.467   1.112  0.3003 -0.4428  0.1252
 3034TIP3    H130661   4.190   4.519   1.042  1.1683  0.3286  1.1827
 3034TIP3    H230662   4.071   4.429   1.070 -1.6027  3.2970 -0.2792
 3035TIP3   OH230663   3.938   0.189   1.282  0.2149  0.0544 -0.5720
 3035TIP3    H130664   3.866   0.167   1.341  0.2230  1.3167 -0.0618
 3035TIP3    H230665   3.918   0.142   1.201 -0.8368 -0.1363 -0.2159
 3036TIP3   OH230666   0.183   1.199   7.754 -0.0259 -0.3723 -0.0333
 3036TIP3    H130667   0.096   1.160   7.766  0.1569 -0.5558  0.7638
 3036TIP3    H230668   0.167   1.278   7.702 -0.5427 -0.8953 -0.6949
 3037TIP3   OH230669   5.558   2.096   1.840 -0.2617  0.0779  0.0541
 3037TIP3    H130670   5.477   2.055   1.812 -0.2017 -1.1968  1.6033
 3037TIP3    H230671   5.617   2.087   1.765 -0.5455 -1.8845  0.0154
 3038TIP3   OH230672   3.875   6.157   0.048 -0.5921  0.2184  0.2868
 3038TIP3    H130673   3.958   6.173   0.003 -0.6124  0.8055  0.4527
 3038TIP3    H230674   3.876   6.062   0.065 -0.5705 -0.0212 -0.9109
 3039TIP3   OH230675   1.900   6.085   1.179 -0.5220 -0.3185  0.5840
 3039TIP3    H130676   1.979   6.116   1.223  1.6604  0.2204 -3.3450
 3039TIP3    H230677   1.857   6.165   1.148 -0.7342 -0.7476 -0.2452
 3040TIP3   OH230678   2.372   0.622   6.751  0.3741  0.3638  0.1185
 3040TIP3    H130679   2.377   0.547   6.810 -0.3717 -1.1638 -1.6889
 3040TIP3    H230680   2.323   0.688   6.800 -0.0962 -0.7980  1.2600
 3041TIP3   OH230681   4.957   6.109   6.726  0.2793  0.2985  0.3149
 3041TIP3    H130682   4.928   6.056   6.652  0.0089 -0.7692  1.1541
 3041TIP3    H230683   5.015   6.175   6.688  2.2328 -1.8043 -0.5783
 3042TIP3   OH230684   4.024   2.770   6.516  0.0303 -0.0834  0.1638
 3042TIP3    H130685   4.014   2.693   6.573  1.2215 -2.6125 -2.7756
 3042TIP3    H230686   4.119   2.786   6.516 -0.0430  0.3402 -0.5463
 3043TIP3   OH230687   0.473   2.219   7.734 -0.0593  0.0752 -0.6367
 3043TIP3    H130688   0.451   2.303   7.691 -0.4800  1.0525  1.3809
 3043TIP3    H230689   0.552   2.190   7.689 -1.1350  0.3911 -2.8989
 3044TIP3   OH230690   6.177   5.356   0.006 -0.5697 -0.5014  0.0155
 3044TIP3    H130691   6.262   5.322  -0.022 -0.7858 -0.3904 -0.8182
 3044TIP3    H230692   6.194   5.400   0.088  0.4089  0.5070 -0.7012
 3045TIP3   OH230693   4.829   4.259   0.281 -0.2517 -0.8203  0.5455
 3045TIP3    H130694   4.906   4.213   0.248 -0.9567 -1.0986 -0.7448
 3045TIP3    H230695   4.771   4.190   0.312 -0.4625 -0.6816  0.4644
 3046TIP3   OH230696   2.101   3.501   8.378 -0.0493 -0.0561 -0.2354
 3046TIP3    H130697   2.094   3.580   8.432 -0.4154  0.7501 -1.4116
 3046TIP3    H230698   2.174   3.518   8.319 -1.1760  0.1540 -1.6326
 3047TIP3   OH230699   6.190   2.124   7.402 -0.5727 -0.5360 -0.2598
 3047TIP3    H130700   6.200   2.030   7.384  1.0877 -0.9327  2.2570
 3047TIP3    H230701   6.279   2.157   7.411 -1.1527  0.8015  1.0144
 3048TIP3   OH230702   5.430   5.750   1.710 -0.1658 -0.5782  0.3017
 3048TIP3    H130703   5.457   5.809   1.639 -0.1161 -0.3388  0.5146
 3048TIP3    H230704   5.466   5.665   1.686  0.9735 -0.2318  0.6672
 3049TIP3   OH230705   0.869   1.839   0.127 -0.2230 -0.4976 -0.1701
 3049TIP3    H130706   0.787   1.846   0.078  0.2136 -1.9290 -1.1843
 3049TIP3    H230707   0.863   1.907   0.194 -0.8179  1.6917 -2.2685
 3050TIP3   OH230708   1.899   5.099   7.633  0.5539 -0.4078  0.5362
 3050TIP3    H130709   1.957   5.035   7.591 -0.0231 -0.6822  0.1398
 3050TIP3    H230710   1.936   5.112   7.720  1.3910 -0.3391  0.1720
 3051TIP3   OH230711   4.028   1.565   0.778  0.3401 -0.4523  0.3406
 3051TIP3    H130712   4.021   1.545   0.871  0.2497 -1.8794  0.0450
 3051TIP3    H230713   4.065   1.486   0.739  0.4014  0.1383 -0.8394
 3052TIP3   OH230714   6.334   3.755   6.562 -0.2097 -0.2373  0.2673
 3052TIP3    H130715   6.248   3.717   6.545 -0.8620  1.2974 -0.0415
 3052TIP3    H230716   6.387   3.681   6.593 -1.2758 -1.4698 -0.6995
 3053TIP3   OH230717   0.255   1.751   0.928 -0.6636  0.2040 -0.2154
 3053TIP3    H130718   0.319   1.750   0.857 -0.3994  1.2326 -0.0092
 3053TIP3    H230719   0.233   1.659   0.942  0.2642 -0.1081 -0.7376
 3054TIP3   OH230720   5.521   2.271   0.960  0.0565  0.3684 -0.2358
 3054TIP3    H130721   5.501   2.275   0.866  0.0591 -3.0556 -0.5070
 3054TIP3    H230722   5.611   2.303   0.966  0.2603  0.0896 -1.4998
 3055TIP3   OH230723   2.700   5.602   1.305  0.3041 -0.2233 -0.2859
 3055TIP3    H130724   2.761   5.675   1.294 -0.4482  0.6631  1.0667
 3055TIP3    H230725   2.679   5.603   1.399 -1.0325 -1.1130 -0.5500
 3056TIP3   OH230726   1.713   3.460   1.114 -0.2165  0.6771  0.0928
 3056TIP3    H130727   1.772   3.406   1.062  0.8760 -0.0748  2.0133
 3056TIP3    H230728   1.637   3.405   1.131 -0.5117  0.8748 -0.5792
 3057TIP3   OH230729   6.410   0.549   1.030  0.3456  0.3363  0.2454
 3057TIP3    H130730   6.342   0.495   0.990 -1.2464  2.0474  0.5095
 3057TIP3    H230731   6.375   0.574   1.115  2.7746 -1.4485  1.9317
 3058TIP3   OH230732   0.083   1.120   1.352 -0.2039 -0.6371  0.2971
 3058TIP3    H130733   0.011   1.183   1.356  2.2076  2.4678 -1.0711
 3058TIP3    H230734   0.103   1.100   1.443 -1.9338 -0.6025  0.7161
 3059TIP3   OH230735   6.290   5.414   6.866 -0.1133 -0.2456 -0.3119
 3059TIP3    H130736   6.259   5.503   6.851  0.4565  0.3854  1.8865
 3059TIP3    H230737   6.356   5.400   6.799  0.4545  1.3592 -0.1247
 3060TIP3   OH230738   5.556   4.721   7.884  0.1289  0.2929  0.5369
 3060TIP3    H130739   5.599   4.638   7.905 -1.7769  0.0708  4.3733
 3060TIP3    H230740   5.604   4.786   7.935  1.0277  1.5542 -1.7316
 3061TIP3   OH230741   2.135   2.223   8.325  0.2192 -0.1915  0.5513
 3061TIP3    H130742   2.231   2.232   8.330  0.1392  0.4874  1.0093
 3061TIP3    H230743   2.118   2.132   8.347  0.6152  0.1994  2.6658
 3062TIP3   OH230744   4.759   0.958   7.101 -0.2389  0.3224 -0.4128
 3062TIP3    H130745   4.844   1.000   7.088  0.5039  0.0609  2.8170
 3062TIP3    H230746   4.725   0.998   7.181 -2.1146 -1.2411 -0.3643
 3063TIP3   OH230747   1.956   5.589   8.364  0.1122  0.4034  0.5855
 3063TIP3    H130748   1.884   5.647   8.390 -0.0198 -0.4909  2.3098
 3063TIP3    H230749   1.922   5.501   8.377  1.4170 -0.0371  1.1612
 3064TIP3   OH230750   2.308   6.558   7.106 -0.4344 -0.3363  0.4199
 3064TIP3    H130751   2.280   6.645   7.077 -1.5630 -0.6753  0.4290
 3064TIP3    H230752   2.367   6.575   7.179 -1.1601  0.4253  0.8572
 3065TIP3   OH230753   5.464   3.649   1.502  0.1126  0.0812  0.3970
 3065TIP3    H130754   5.372   3.667   1.521  0.0151 -1.1202  1.1919
 3065TIP3    H230755   5.513   3.713   1.555 -0.2408  2.0036 -1.4746
 3066TIP3   OH230756   2.920   0.152   1.645  0.2939 -0.4150 -0.3247
 3066TIP3    H130757   2.885   0.066   1.666  0.3002 -0.4610 -0.4992
 3066TIP3    H230758   2.933   0.194   1.730 -0.2171 -0.3836 -0.2572
 3067TIP3   OH230759   0.076   4.729   7.768 -0.4373  0.3343 -0.1135
 3067TIP3    H130760   0.069   4.811   7.818 -0.3335 -0.8916  2.0402
 3067TIP3    H230761   0.131   4.672   7.822 -0.9872 -1.3744 -1.2662
 3068TIP3   OH230762   5.459   5.237   7.905  0.8159 -0.3211  0.2435
 3068TIP3    H130763   5.453   5.287   7.824 -0.3824 -0.3218  0.3236
 3068TIP3    H230764   5.482   5.301   7.972 -2.0171  0.4350  0.5960
 3069TIP3   OH230765   0.906   0.132   5.858 -0.8759  0.0782  0.4983
 3069TIP3    H130766   0.848   0.186   5.805 -1.1673 -0.6567  0.0445
 3069TIP3    H230767   0.945   0.192   5.921 -0.8999  0.8871 -0.2362
 3070TIP3   OH230768   4.427   6.196   7.682 -0.2002  0.3053  0.6745
 3070TIP3    H130769   4.392   6.194   7.771 -0.4626 -1.9067  0.5717
 3070TIP3    H230770   4.522   6.187   7.694 -0.4553 -5.6039  0.7740
 3071TIP3   OH230771   2.621   3.949   6.889  1.1439  0.3528  0.2627
 3071TIP3    H130772   2.589   3.900   6.965  0.7194  1.2007  0.6325
 3071TIP3    H230773   2.563   3.922   6.817 -0.8918  2.3217  1.0468
 3072TIP3   OH230774   6.001   0.184   7.561 -0.1805 -0.4944  0.3116
 3072TIP3    H130775   6.029   0.138   7.482 -0.6351  2.8884 -2.0463
 3072TIP3    H230776   6.061   0.258   7.568 -1.9284  0.9059  1.4496
 3073TIP3   OH230777   5.606   6.469   8.391  0.1073 -0.7246  0.3853
 3073TIP3    H130778   5.521   6.435   8.417 -2.0160  1.7195 -2.6628
 3073TIP3    H230779   5.629   6.418   8.313  1.5507 -1.3818  1.1913
 3074TIP3   OH230780   2.712   4.951   6.826 -0.1247 -0.6968  0.5021
 3074TIP3    H130781   2.779   5.019   6.815  0.9431 -1.9022 -0.8462
 3074TIP3    H230782   2.629   4.999   6.818  0.5884  0.3228 -1.8442
 3075TIP3   OH230783   5.895   1.081   0.787  0.0983  0.3554  0.2252
 3075TIP3    H130784   5.807   1.046   0.800  0.0326  1.0879  2.0953
 3075TIP3    H230785   5.953   1.005   0.794 -0.2874  0.0590  0.2423
 3076TIP3   OH230786   6.033   5.379   7.281 -0.0987  0.7494 -0.0973
 3076TIP3    H130787   6.102   5.425   7.233  0.2220  1.0937  0.6761
 3076TIP3    H230788   6.029   5.423   7.366 -1.5004  0.9397 -0.2455
 3077TIP3   OH230789   4.519   1.666   0.147  0.2364 -0.1347 -0.0359
 3077TIP3    H130790   4.468   1.587   0.160  0.8033 -0.2719  1.6197
 3077TIP3    H230791   4.602   1.649   0.192  1.4367  0.3808 -1.9541
 3078TIP3   OH230792   1.964   4.445   0.779  0.1452  0.0198  0.0247
 3078TIP3    H130793   1.883   4.495   0.794 -0.3598 -0.3880 -1.2141
 3078TIP3    H230794   1.941   4.355   0.802  0.6813  0.1314  1.0385
 3079TIP3   OH230795   3.469   0.303   1.071 -0.1044 -0.3120 -0.0832
 3079TIP3    H130796   3.391   0.265   1.112 -0.3722  1.3230  1.0185
 3079TIP3    H230797   3.534   0.307   1.141 -0.4936  2.3145  0.2457
 3080TIP3   OH230798   6.478   0.616   7.174 -0.0884  0.4392 -0.2662
 3080TIP3    H130799   6.546   0.681   7.192 -0.4088  0.5649  0.5412
 3080TIP3    H230800   6.524   0.542   7.134  0.1873  1.4280 -1.8953
 3081TIP3   OH230801   0.710   6.276   1.434 -0.3581 -0.3700  0.0733
 3081TIP3    H130802   0.643   6.221   1.476  0.2204 -2.2954 -1.3544
 3081TIP3    H230803   0.781   6.279   1.498 -1.1262  0.3236  0.9334
 3082TIP3   OH230804   1.772   2.052   1.224  0.2036 -0.4431  0.6476
 3082TIP3    H130805   1.862   2.018   1.220  0.6297  0.6300  0.7889
 3082TIP3    H230806   1.780   2.143   1.198 -0.9591 -0.5059  0.0281
 3083TIP3   OH230807   4.603   2.943   0.867  0.0057  0.4052 -0.4158
 3083TIP3    H130808   4.586   2.867   0.811  2.1847 -2.4347  2.4260
 3083TIP3    H230809   4.530   2.944   0.928 -0.2153  0.8617 -0.6837
 3084TIP3   OH230810   2.769   5.286   1.060  0.0327  0.3299 -0.7048
 3084TIP3    H130811   2.680   5.258   1.038 -0.6155  0.1925  1.7413
 3084TIP3    H230812   2.824   5.252   0.990 -1.4930 -2.0748 -0.8288
 3085TIP3   OH230813   3.171   3.900   2.441 -0.0808  0.0841 -0.8001
 3085TIP3    H130814   3.182   3.806   2.429 -0.1211  0.1371 -1.3059
 3085TIP3    H230815   3.088   3.920   2.398 -0.3996  0.2486 -0.1225
 3086TIP3   OH230816   6.808   6.619   7.129 -0.0894 -0.5669 -0.3000
 3086TIP3    H130817   6.753   6.669   7.189  0.1165 -1.9638  1.1135
 3086TIP3    H230818   6.747   6.564   7.081 -0.1158 -0.6130 -0.2144
 3087TIP3   OH230819   2.013   3.433   2.259 -0.5756 -0.0446 -0.1994
 3087TIP3    H130820   2.072   3.362   2.235 -0.4126 -1.1176  2.9432
 3087TIP3    H230821   2.017   3.436   2.355 -2.8583  2.2543 -0.0813
 3088TIP3   OH230822   3.324   4.967   1.432 -0.0593 -0.7051 -0.0968
 3088TIP3    H130823   3.330   4.983   1.337 -2.2205 -1.1869 -0.3649
 3088TIP3    H230824   3.406   5.001   1.467  0.5819 -0.0556 -2.0832
 3089TIP3   OH230825   2.373   5.336   8.478  0.2233 -0.5703  0.5358
 3089TIP3    H130826   2.280   5.335   8.497 -0.5085 -0.7214 -2.4810
 3089TIP3    H230827   2.407   5.412   8.524 -1.8229  0.7259  0.0096
 3090TIP3   OH230828   0.554   1.937   1.028 -0.0284 -0.4189  0.6177
 3090TIP3    H130829   0.472   1.914   1.071  0.0378 -1.4573  0.2065
 3090TIP3    H230830   0.537   2.023   0.988 -0.8011 -0.4815  0.8039
 3091TIP3   OH230831   4.628   5.336   7.251  0.0101  0.1986  0.3917
 3091TIP3    H130832   4.542   5.300   7.272 -0.2165  1.0470  0.9592
 3091TIP3    H230833   4.682   5.314   7.327  0.0033  0.6249  0.5184
 3092TIP3   OH230834   6.390   2.266   0.934 -0.8082  0.5125  0.5885
 3092TIP3    H130835   6.458   2.288   0.870  0.2826  0.5503  1.7250
 3092TIP3    H230836   6.406   2.174   0.955 -1.7314  0.2426  0.1481
 3093TIP3   OH230837   4.914   1.031   0.565  0.2333  0.0959 -0.2871
 3093TIP3    H130838   4.960   1.111   0.540  0.8628  0.1026  0.8158
 3093TIP3    H230839   4.920   0.975   0.488  1.1351  0.5256 -0.5502
 3094TIP3   OH230840   2.715   6.242   7.877 -0.0809 -0.6939 -0.1938
 3094TIP3    H130841   2.797   6.239   7.827  0.0401 -1.3208  0.0430
 3094TIP3    H230842   2.738   6.209   7.963 -0.1646  0.8896  0.4799
 3095TIP3   OH230843   3.884   6.375   0.538  0.0089 -0.8181  0.2577
 3095TIP3    H130844   3.862   6.327   0.458 -1.1751  0.6482 -0.3422
 3095TIP3    H230845   3.814   6.351   0.599 -0.5595  0.0550 -0.0290
 3096TIP3   OH230846   5.598   3.174   7.155  0.4859  0.4296  0.2226
 3096TIP3    H130847   5.671   3.236   7.150  0.5150  0.3021 -3.3755
 3096TIP3    H230848   5.520   3.229   7.165  0.5745  1.1554 -2.2617
 3097TIP3   OH230849   5.544   2.430   7.143 -0.2169 -0.6388 -0.1883
 3097TIP3    H130850   5.564   2.497   7.078  1.8361 -0.8115  0.2016
 3097TIP3    H230851   5.448   2.421   7.140 -0.7346  3.0925  0.5389
 3098TIP3   OH230852   0.140   6.093   7.050  0.3608 -0.2275 -0.3601
 3098TIP3    H130853   0.150   6.020   7.112  0.8267 -0.7346 -1.0137
 3098TIP3    H230854   0.046   6.104   7.040  0.2558  0.4031  1.0546
 3099TIP3   OH230855   2.394   0.153   6.954 -0.7733 -0.1932  0.2502
 3099TIP3    H130856   2.430   0.074   6.912 -0.6271  0.2134 -0.4157
 3099TIP3    H230857   2.299   0.143   6.945 -0.7180  0.8091 -1.9898
 3100TIP3   OH230858   5.208   2.014   0.524  0.4717 -0.4597 -0.2596
 3100TIP3    H130859   5.151   2.084   0.558 -0.4537 -0.1489 -2.3252
 3100TIP3    H230860   5.169   1.990   0.441  2.0277 -1.9603 -0.5975
 3101TIP3   OH230861   1.298   1.664   1.580 -0.2359  0.4688  0.6953
 3101TIP3    H130862   1.231   1.607   1.620  0.5151 -2.5582 -1.9291
 3101TIP3    H230863   1.265   1.680   1.491  2.4933 -1.3400 -0.7716
 3102TIP3   OH230864   1.875   1.946   1.885  0.4341  0.1519  0.6039
 3102TIP3    H130865   1.970   1.951   1.891  0.5092 -1.2892  1.0811
 3102TIP3    H230866   1.859   1.871   1.827 -0.4038  0.1031  0.8859
 3103TIP3   OH230867   5.250   3.418   1.248  0.1192  0.0757 -0.4121
 3103TIP3    H130868   5.183   3.403   1.181  1.5801 -0.9661 -1.7080
 3103TIP3    H230869   5.204   3.401   1.331 -1.0735 -1.2502 -1.2805
 3104TIP3   OH230870   0.511   2.660   0.038 -0.1358  0.7622  0.2654
 3104TIP3    H130871   0.517   2.679  -0.055 -1.0799  0.2244  0.0881
 3104TIP3    H230872   0.598   2.683   0.073  0.3102  0.6915 -0.7830
 3105TIP3   OH230873   1.704   0.239   6.367 -0.0717  0.0511 -0.0643
 3105TIP3    H130874   1.624   0.283   6.398 -0.8510 -0.3237 -1.4416
 3105TIP3    H230875   1.747   0.305   6.313  0.4397  0.1720  0.4840
 3106TIP3   OH230876   5.116   0.193   0.447  0.0548 -0.3240  0.0852
 3106TIP3    H130877   5.089   0.204   0.356 -0.0606  1.7905  0.3204
 3106TIP3    H230878   5.036   0.170   0.494 -0.3097  0.6785 -0.0329
 3107TIP3   OH230879   3.744   6.295   7.875 -0.0901 -0.4631  0.2437
 3107TIP3    H130880   3.696   6.213   7.878 -1.5933  0.4043  1.8729
 3107TIP3    H230881   3.729   6.335   7.961  0.8827  1.3498 -0.3689
 3108TIP3   OH230882   3.873   1.952   7.261 -0.3029  0.4043 -0.7534
 3108TIP3    H130883   3.788   1.992   7.242 -0.1739  0.1867 -1.8935
 3108TIP3    H230884   3.891   1.898   7.184 -0.0702 -1.1766  0.3620
 3109TIP3   OH230885   3.612   5.607   1.064 -0.4188 -0.1315  0.3471
 3109TIP3    H130886   3.642   5.694   1.037  0.3586 -0.2988  0.6549
 3109TIP3    H230887   3.641   5.549   0.994  0.4042 -0.3628  0.8677
 3110TIP3   OH230888   0.245   1.648   1.830  0.4558  0.1079 -0.2501
 3110TIP3    H130889   0.299   1.646   1.909  0.2331  0.2916 -0.0916
 3110TIP3    H230890   0.160   1.614   1.858  0.3870  0.1418 -0.4174
 3111TIP3   OH230891   3.519   3.932   8.276 -0.0327 -0.2611  0.0182
 3111TIP3    H130892   3.431   3.971   8.277  0.2611  0.4914  2.1976
 3111TIP3    H230893   3.513   3.857   8.334  0.7292 -0.2717  0.0966
 3112TIP3   OH230894   6.670   5.090   1.277  0.1014 -0.1181  0.1994
 3112TIP3    H130895   6.617   5.072   1.355  0.4744 -2.3809  0.0110
 3112TIP3    H230896   6.607   5.122   1.212 -0.3631  0.9314  1.1349
 3113TIP3   OH230897   2.411   1.528   7.507  0.5591  0.5412  0.0435
 3113TIP3    H130898   2.449   1.516   7.420  0.7193  1.4693 -0.0246
 3113TIP3    H230899   2.441   1.452   7.557  0.7666  0.1876 -0.6117
 3114TIP3   OH230900   5.932   3.472   1.189 -1.0668 -0.1404 -0.5269
 3114TIP3    H130901   5.899   3.514   1.109 -1.4721 -0.1632 -0.3729
 3114TIP3    H230902   5.890   3.521   1.260 -1.1880 -0.5149 -0.3396
 3115TIP3   OH230903   2.681   2.184   6.502 -0.4464  0.3783  0.1907
 3115TIP3    H130904   2.772   2.175   6.474 -0.8344 -1.4342 -0.6271
 3115TIP3    H230905   2.634   2.209   6.422 -0.6035  2.1448  0.7752
 3116TIP3   OH230906   6.516   1.652   0.571  0.6796 -0.1071 -0.1736
 3116TIP3    H130907   6.509   1.744   0.595 -0.6356 -0.1533 -0.3096
 3116TIP3    H230908   6.596   1.646   0.520  0.7732  0.9650 -0.1617
 3117TIP3   OH230909   2.982   1.018   2.005 -0.3809 -0.5448 -0.1609
 3117TIP3    H130910   2.895   1.020   2.043  0.1375 -0.2756  1.0500
 3117TIP3    H230911   3.019   1.105   2.021  0.8332 -1.2546  1.1607
 3118TIP3   OH230912   5.132   3.845   1.270 -0.1361 -0.0005  0.6813
 3118TIP3    H130913   5.119   3.796   1.351 -0.6080 -3.1463 -1.1185
 3118TIP3    H230914   5.223   3.873   1.274  0.4467 -1.8150  1.5347
 3119TIP3   OH230915   2.082   1.315   0.427  0.0606  0.1098 -0.2759
 3119TIP3    H130916   1.988   1.311   0.409  0.1966 -0.5543 -0.9035
 3119TIP3    H230917   2.091   1.380   0.496 -1.0692 -1.0826  1.0695
 3120TIP3   OH230918   2.225   3.689   2.262  0.0089  0.7768 -0.1122
 3120TIP3    H130919   2.284   3.661   2.333 -1.0103  1.1412  0.9011
 3120TIP3    H230920   2.248   3.781   2.248 -1.8250  1.6441  1.9220
 3121TIP3   OH230921   2.629   0.246   1.107  0.9735 -0.1141  0.2017
 3121TIP3    H130922   2.615   0.170   1.051 -1.6975 -0.2151  0.9132
 3121TIP3    H230923   2.678   0.212   1.182  1.9475 -0.5857 -0.6257
 3122TIP3   OH230924   6.431   5.303   0.438 -0.6646  0.3884  0.3828
 3122TIP3    H130925   6.388   5.285   0.355 -0.2742  0.2953  0.1967
 3122TIP3    H230926   6.389   5.382   0.471 -2.3986 -0.8116  1.2091
 3123TIP3   OH230927   3.949   5.966   5.983  1.1619  0.4858  0.2196
 3123TIP3    H130928   3.879   5.907   6.013 -0.0149  1.6906 -0.0501
 3123TIP3    H230929   3.976   5.930   5.899 -0.4633  1.0220 -0.5692
 3124TIP3   OH230930   3.475   2.835   1.850 -0.0889 -0.3858  0.5070
 3124TIP3    H130931   3.483   2.891   1.927  0.5595 -0.3893  0.4461
 3124TIP3    H230932   3.470   2.896   1.776 -1.2090 -0.3704  0.5868
 3125TIP3   OH230933   0.615   6.334   0.210  0.0346  0.1629 -0.3935
 3125TIP3    H130934   0.582   6.410   0.163 -0.9146 -1.7945 -3.2193
 3125TIP3    H230935   0.538   6.293   0.249 -0.3007 -1.7200 -2.7932
 3126TIP3   OH230936   5.140   0.185   0.170  0.0726  0.1711  0.3473
 3126TIP3    H130937   5.112   0.177   0.079  0.2001  2.2956  0.0576
 3126TIP3    H230938   5.236   0.179   0.166  0.0254 -0.6969  0.4759
 3127TIP3   OH230939   1.297   6.441   6.254  0.2514 -0.0101 -0.4916
 3127TIP3    H130940   1.224   6.478   6.304  0.0589 -0.3511 -0.5111
 3127TIP3    H230941   1.321   6.510   6.193  0.1403  0.2165 -0.2809
 3128TIP3   OH230942   1.598   0.401   0.719 -0.3428 -0.0380  0.4427
 3128TIP3    H130943   1.541   0.341   0.671  2.0013 -0.7643 -1.6359
 3128TIP3    H230944   1.548   0.482   0.726 -2.0909 -1.0219 -0.1142
 3129TIP3   OH230945   5.213   3.023   0.183  0.7007  0.0676 -0.3081
 3129TIP3    H130946   5.142   3.084   0.202  1.1092  0.3703  0.2905
 3129TIP3    H230947   5.288   3.059   0.230  1.7846  0.8614 -2.5306
 3130TIP3   OH230948   5.365   6.025   1.304 -0.1984 -0.4516 -0.6914
 3130TIP3    H130949   5.393   5.976   1.381  0.8976 -0.0990 -0.8439
 3130TIP3    H230950   5.319   5.962   1.250 -0.8387 -0.7400  0.1825
 3131TIP3   OH230951   4.247   3.735   0.670  0.1983 -0.1670 -0.1640
 3131TIP3    H130952   4.292   3.748   0.753  0.6534  1.1183 -0.5844
 3131TIP3    H230953   4.316   3.730   0.604 -0.0723 -2.7064 -0.3393
 3132TIP3   OH230954   5.026   0.475   1.601 -0.1337  0.0201 -0.0248
 3132TIP3    H130955   4.935   0.489   1.575 -0.0709 -0.3772 -0.4667
 3132TIP3    H230956   5.061   0.414   1.536  0.2867 -0.2679  0.4580
 3133TIP3   OH230957   2.911   1.443   7.466 -0.0089  0.0085 -0.9012
 3133TIP3    H130958   2.861   1.463   7.546 -0.1631 -3.0959 -0.1080
 3133TIP3    H230959   2.968   1.520   7.454  0.9563  0.0932  2.9531
 3134TIP3   OH230960   1.327   1.373   7.464  0.6273  0.4384 -0.8717
 3134TIP3    H130961   1.310   1.425   7.542  2.1147 -2.2635  1.4249
 3134TIP3    H230962   1.378   1.431   7.407 -0.9809  2.6624 -0.1785
 3135TIP3   OH230963   0.432   6.039   0.898  0.5365  0.2213  0.2466
 3135TIP3    H130964   0.393   5.975   0.958  0.9564 -0.8148 -0.5376
 3135TIP3    H230965   0.492   6.089   0.952  1.6089 -1.3116  0.5421
 3136TIP3   OH230966   1.631   1.008   8.338  0.4278 -0.8854 -0.4359
 3136TIP3    H130967   1.670   1.051   8.261 -0.9087 -1.9492 -1.7682
 3136TIP3    H230968   1.546   0.977   8.307  0.5505 -2.8340  0.9980
 3137TIP3   OH230969   3.253   2.387   6.844 -0.1263  0.2188  0.6518
 3137TIP3    H130970   3.236   2.463   6.788  0.7651 -1.2440 -1.7542
 3137TIP3    H230971   3.346   2.395   6.867 -0.0954  0.0041  0.6038
 3138TIP3   OH230972   4.902   5.923   1.032  0.3714  0.5272  0.0938
 3138TIP3    H130973   4.910   5.925   0.936  2.1000  0.4001  0.1948
 3138TIP3    H230974   4.813   5.893   1.048 -0.9280  3.2195 -1.4542
 3139TIP3   OH230975   1.861   1.230   6.589  0.1085  0.0247 -0.9414
 3139TIP3    H130976   1.952   1.203   6.600 -0.2719 -1.1623 -0.6150
 3139TIP3    H230977   1.860   1.274   6.504  1.3760  1.8598 -0.0675
 3140TIP3   OH230978   2.506   3.863   0.254 -0.1847  0.2995  0.1714
 3140TIP3    H130979   2.587   3.814   0.247 -0.2827  0.2499 -0.7775
 3140TIP3    H230980   2.516   3.935   0.191 -1.1762 -0.1624 -0.5487
 3141TIP3   OH230981   5.395   3.463   1.953 -0.3644 -0.0236 -0.1730
 3141TIP3    H130982   5.412   3.554   1.976 -0.8753 -0.1420  0.7028
 3141TIP3    H230983   5.353   3.426   2.030  2.6297 -1.8521  0.7882
 3142TIP3   OH230984   0.900   6.650   0.163  0.0079  0.2344  0.1646
 3142TIP3    H130985   0.830   6.646   0.229 -0.3053 -0.5423 -0.2015
 3142TIP3    H230986   0.865   6.705   0.094 -0.6135 -0.8670 -0.4250
 3143TIP3   OH230987   5.221   6.864   8.273 -0.1879  0.2351 -0.4488
 3143TIP3    H130988   5.289   6.806   8.308 -0.3849 -0.2892 -0.9111
 3143TIP3    H230989   5.139   6.826   8.305 -0.4221 -0.6838 -2.0379
 3144TIP3   OH230990   6.803   1.435   1.338 -0.3188 -0.6806  0.2409
 3144TIP3    H130991   6.751   1.376   1.392 -0.1194 -1.0688  0.0095
 3144TIP3    H230992   6.841   1.497   1.400 -0.1677 -1.0677  0.5353
 3145TIP3   OH230993   3.088   1.022   0.891  0.6282 -0.2132  0.4423
 3145TIP3    H130994   3.156   0.957   0.910 -0.5479 -1.2146  1.3925
 3145TIP3    H230995   3.016   0.999   0.950 -0.6481  0.6443 -0.7296
 3146TIP3   OH230996   3.537   4.564   6.610 -0.4300  0.1971  0.0618
 3146TIP3    H130997   3.571   4.640   6.657 -0.6021  1.0630 -1.1861
 3146TIP3    H230998   3.613   4.507   6.597  0.4154  1.6982 -1.9181
 3147TIP3   OH230999   1.222   1.689   8.080 -0.0709  0.1117  0.1842
 3147TIP3    H131000   1.131   1.690   8.111 -0.7486 -0.2634 -1.6501
 3147TIP3    H231001   1.273   1.716   8.156 -1.6322 -0.4644  1.5045
 3148TIP3   OH231002   1.448   4.271   0.445 -0.4237  0.5486  0.1773
 3148TIP3    H131003   1.498   4.264   0.364  1.1609 -0.2093  1.1744
 3148TIP3    H231004   1.404   4.186   0.453 -3.4660  1.8080 -1.6074
 3149TIP3   OH231005   2.642   5.213   0.680 -0.2785 -0.1282  0.7634
 3149TIP3    H131006   2.590   5.292   0.691 -0.9186 -0.5274  0.6596
 3149TIP3    H231007   2.722   5.230   0.730 -1.1503 -0.0994  2.1988
 3150TIP3   OH231008   5.624   6.312   8.629  0.0669  0.1720 -1.0740
 3150TIP3    H131009   5.637   6.401   8.662 -3.8159  0.2878  0.6237
 3150TIP3    H231010   5.678   6.257   8.685 -2.5054  0.9226  2.5138
 3151TIP3   OH231011   2.647   4.576   8.447 -0.2206 -0.2884 -0.4107
 3151TIP3    H131012   2.620   4.545   8.360 -2.1434  0.5527 -0.1675
 3151TIP3    H231013   2.627   4.503   8.505 -2.5751  0.4397 -0.1777
 3152TIP3   OH231014   4.370   3.415   0.764  0.2692 -0.4977 -0.2596
 3152TIP3    H131015   4.277   3.431   0.748 -0.2928 -1.6053  1.5371
 3152TIP3    H231016   4.402   3.373   0.685 -0.0949  2.1127 -1.9161
 3153TIP3   OH231017   1.699   1.987   8.428  0.6106 -0.1033 -0.8539
 3153TIP3    H131018   1.730   2.012   8.515  0.9225 -0.2130 -0.9308
 3153TIP3    H231019   1.609   1.956   8.442  1.1062 -1.4189 -0.3515
 3154TIP3   OH231020   5.431   1.513   8.054 -0.3312  0.0893  0.2722
 3154TIP3    H131021   5.410   1.511   7.961  2.1913  0.5720 -0.3671
 3154TIP3    H231022   5.449   1.606   8.072  0.6826 -0.2064  0.8572
 3155TIP3   OH231023   6.303   6.556   1.296  0.0103 -0.3782  0.3367
 3155TIP3    H131024   6.250   6.584   1.371  0.3899  0.5550  0.2641
 3155TIP3    H231025   6.256   6.480   1.261 -1.3689  0.4952  0.1894
 3156TIP3   OH231026   4.385   6.637   0.912  0.0454  0.0383 -0.0280
 3156TIP3    H131027   4.332   6.646   0.833  0.1067 -1.9715 -0.3578
 3156TIP3    H231028   4.465   6.593   0.882  0.8895  0.9264  0.8601
 3157TIP3   OH231029   1.867   3.259   1.722  0.2413  0.0940  0.1608
 3157TIP3    H131030   1.932   3.190   1.737  0.7300  0.6622  0.6869
 3157TIP3    H231031   1.836   3.283   1.809  0.2195  0.6767 -0.0024
 3158TIP3   OH231032   1.919   0.766   2.373  0.1748  0.7017 -0.4926
 3158TIP3    H131033   1.931   0.769   2.468 -1.5882  0.4872 -0.2202
 3158TIP3    H231034   1.866   0.843   2.353  0.3400  0.6219 -1.2722
 3159TIP3   OH231035   4.507   2.696   2.171  0.6520  0.4812 -0.3324
 3159TIP3    H131036   4.508   2.672   2.078 -0.8258  2.2194 -0.8554
 3159TIP3    H231037   4.417   2.682   2.199  1.6061 -2.6171  1.6680
 3160TIP3   OH231038   6.808   0.414   1.693  0.3265  0.1562 -0.0368
 3160TIP3    H131039   6.749   0.489   1.698 -0.6111 -0.2663 -3.0428
 3160TIP3    H231040   6.754   0.342   1.660  1.3576 -1.7493  2.1564
 3161TIP3   OH231041   0.499   5.100   1.945 -0.4136  0.4795 -0.3807
 3161TIP3    H131042   0.533   5.188   1.930  1.6229 -0.5377 -2.2342
 3161TIP3    H231043   0.524   5.079   2.035  1.4360  0.8532 -0.7655
 3162TIP3   OH231044   4.439   5.841   7.510  0.4055 -0.2278  0.2453
 3162TIP3    H131045   4.416   5.934   7.520 -0.1339 -0.4041  0.6870
 3162TIP3    H231046   4.469   5.814   7.596 -0.8899 -0.8469  0.5315
 3163TIP3   OH231047   2.321   4.188   7.363  0.6558  0.1624 -0.2923
 3163TIP3    H131048   2.271   4.108   7.375  1.1615 -0.0057  0.8269
 3163TIP3    H231049   2.307   4.212   7.271 -0.4007 -0.5854 -0.3413
 3164TIP3   OH231050   6.825   5.736   0.837 -0.2075 -0.4503 -0.4161
 3164TIP3    H131051   6.889   5.795   0.798 -0.6619  0.8153  0.6749
 3164TIP3    H231052   6.872   5.692   0.908 -0.1026 -0.7617 -0.6776
 3165TIP3   OH231053   6.299   4.093   7.957 -0.0196 -0.4783 -0.3775
 3165TIP3    H131054   6.244   4.170   7.943 -0.9718 -0.9199  0.8386
 3165TIP3    H231055   6.383   4.128   7.986 -0.8109  0.0847  1.3281
 3166TIP3   OH231056   6.529   3.586   7.903 -0.7628  0.3035  0.3810
 3166TIP3    H131057   6.545   3.656   7.839 -0.7143 -1.0358 -1.1420
 3166TIP3    H231058   6.523   3.631   7.987  1.1268  1.9397 -0.2822
 3167TIP3   OH231059   3.256   4.016   8.290  0.0057 -0.0801  0.1897
 3167TIP3    H131060   3.217   4.103   8.275 -0.8635 -0.6258 -0.8478
 3167TIP3    H231061   3.220   3.989   8.374  1.2903  1.0810  1.1580
 3168TIP3   OH231062   5.396   5.368   7.676 -0.1240 -0.1783 -0.0419
 3168TIP3    H131063   5.442   5.339   7.598 -1.0869 -0.9420 -0.3323
 3168TIP3    H231064   5.343   5.442   7.647 -0.1473 -0.1857 -0.0176
 3169TIP3   OH231065   1.707   1.449   2.209 -0.0152  0.1331 -0.2224
 3169TIP3    H131066   1.709   1.528   2.265 -0.3602 -0.1011  0.1266
 3169TIP3    H231067   1.664   1.383   2.263 -2.0769  0.4061 -1.4107
 3170TIP3   OH231068   2.022   0.555   0.099  0.0198 -0.0614  0.3555
 3170TIP3    H131069   1.928   0.573   0.098  0.3088  1.6713  0.6328
 3170TIP3    H231070   2.036   0.496   0.024 -0.9607  1.5290 -1.1649
 3171TIP3   OH231071   1.285   0.892   7.284  0.3347  0.2137  0.1420
 3171TIP3    H131072   1.326   0.979   7.283 -0.0296  0.3961 -1.2532
 3171TIP3    H231073   1.195   0.908   7.253 -0.3815 -0.3828  1.7940
 3172TIP3   OH231074   5.045   6.351   7.993 -0.1104  0.1993 -0.3489
 3172TIP3    H131075   4.973   6.402   7.956 -1.6234  0.1342  2.2320
 3172TIP3    H231076   5.002   6.286   8.049  1.9049  0.7219  1.9839
 3173TIP3   OH231077   0.755   4.521   0.846 -0.2304  0.2085  0.2640
 3173TIP3    H131078   0.747   4.576   0.923 -0.7133 -0.2219  0.5300
 3173TIP3    H231079   0.838   4.475   0.857  0.8428  1.8355 -0.6052
 3174TIP3   OH231080   6.438   6.025   0.476 -0.1128  0.2021 -0.1506
 3174TIP3    H131081   6.459   6.112   0.442  1.8565  0.3556  1.2883
 3174TIP3    H231082   6.503   6.010   0.544 -0.6422 -2.2633 -0.1146
 3175TIP3   OH231083   0.747   0.334   6.618  0.2386 -0.1506 -0.3940
 3175TIP3    H131084   0.830   0.366   6.581 -0.5979  0.9572 -1.4077
 3175TIP3    H231085   0.690   0.411   6.617 -1.0761 -1.1039 -0.5077
 3176TIP3   OH231086   1.252   2.718   0.422  0.1316 -0.5368  0.2872
 3176TIP3    H131087   1.223   2.788   0.363 -0.5248  0.1906  1.4367
 3176TIP3    H231088   1.339   2.694   0.389  0.3229  0.7319 -0.2024
 3177TIP3   OH231089   6.256   1.941   7.662 -0.0587  0.2058 -0.0509
 3177TIP3    H131090   6.301   1.920   7.744  0.1806 -0.2253 -0.2871
 3177TIP3    H231091   6.208   2.022   7.681 -0.6897 -0.3368  0.7801
 3178TIP3   OH231092   1.253   3.933   6.844  0.2380 -0.1833 -0.7999
 3178TIP3    H131093   1.234   3.854   6.793 -2.6780  0.1602 -0.3971
 3178TIP3    H231094   1.262   4.001   6.778 -2.4483  0.0517 -1.0359
 3179TIP3   OH231095   2.439   2.183   6.811 -0.4706 -0.1417  0.3966
 3179TIP3    H131096   2.465   2.127   6.738 -0.0494 -0.5792  0.8723
 3179TIP3    H231097   2.495   2.260   6.803 -0.9970  0.1851 -0.2140
 3180TIP3   OH231098   4.207   2.035   7.711  0.3389 -0.4863  0.5213
 3180TIP3    H131099   4.229   1.960   7.766  1.4554 -0.1430  0.5545
 3180TIP3    H231100   4.287   2.055   7.664 -0.2422  0.0381 -0.2808
 3181TIP3   OH231101   1.571   1.360   8.315  0.5525 -0.2226  0.2466
 3181TIP3    H131102   1.500   1.419   8.289  0.1803 -0.7252  0.1013
 3181TIP3    H231103   1.599   1.319   8.234  3.5195  2.5807 -0.3791
 3182TIP3   OH231104   0.908   4.039   7.773 -0.9262  0.0267 -0.5950
 3182TIP3    H131105   0.979   4.003   7.720 -1.0436  0.1337 -0.8274
 3182TIP3    H231106   0.952   4.072   7.852 -0.5321  1.2472 -1.2900
 3183TIP3   OH231107   3.449   1.501   0.676  0.2936  0.2745 -0.1825
 3183TIP3    H131108   3.535   1.503   0.719  0.2414  0.9718 -0.1050
 3183TIP3    H231109   3.467   1.467   0.589  0.6657  0.5085 -0.1988
 3184TIP3   OH231110   3.566   5.162   1.527  0.2801 -0.8143 -0.1698
 3184TIP3    H131111   3.601   5.182   1.614  2.7125  3.3398 -1.7947
 3184TIP3    H231112   3.487   5.215   1.520  1.4200  0.8346 -1.2064
 3185TIP3   OH231113   3.621   4.279   0.438  0.2037  0.0406  0.9506
 3185TIP3    H131114   3.599   4.211   0.375  2.4516  1.4273 -1.5205
 3185TIP3    H231115   3.674   4.233   0.504 -0.0118 -0.9745  0.4452
 3186TIP3   OH231116   1.170   5.029   8.460  0.6298  0.0582 -0.2116
 3186TIP3    H131117   1.237   5.035   8.528  1.1488 -0.3090 -0.6791
 3186TIP3    H231118   1.143   4.937   8.461  0.9190 -0.0338 -0.7588
 3187TIP3   OH231119   2.832   3.751   7.247 -0.1410 -0.5915  0.2653
 3187TIP3    H131120   2.816   3.808   7.322 -1.2012 -1.0502  0.4043
 3187TIP3    H231121   2.918   3.777   7.215  0.0433  0.0464  1.2466
 3188TIP3   OH231122   4.116   5.471   7.705 -0.0439  0.0029 -0.0000
 3188TIP3    H131123   4.160   5.553   7.729  1.6201 -1.1141  0.9595
 3188TIP3    H231124   4.121   5.417   7.784 -1.9681 -0.7107 -0.3030
 3189TIP3   OH231125   6.794   4.188   1.218 -0.6052  0.9111 -0.1534
 3189TIP3    H131126   6.872   4.133   1.210  0.2422  1.6238  2.3369
 3189TIP3    H231127   6.721   4.127   1.210  0.2169 -0.0101 -0.9365
 3190TIP3   OH231128   4.829   6.358   1.274 -0.1477  0.3294 -0.0890
 3190TIP3    H131129   4.854   6.447   1.248 -0.4896  0.0325 -1.5153
 3190TIP3    H231130   4.889   6.301   1.226  0.2370 -0.2264  1.0072
 3191TIP3   OH231131   2.997   5.303   8.284 -0.1684 -0.3653  0.2231
 3191TIP3    H131132   3.027   5.224   8.329  0.1198  0.3713  1.3833
 3191TIP3    H231133   2.915   5.325   8.326  0.0189  0.2475  0.2800
 3192TIP3   OH231134   4.670   0.467   0.351 -0.3305 -0.3734 -0.3998
 3192TIP3    H131135   4.765   0.469   0.360 -0.2949 -0.2356 -0.8020
 3192TIP3    H231136   4.652   0.516   0.271 -0.8628  1.0647  0.5574
 3193TIP3   OH231137   0.430   5.353   0.793 -0.0779 -0.2385  0.1911
 3193TIP3    H131138   0.449   5.447   0.790  0.5898 -0.3462  0.8254
 3193TIP3    H231139   0.373   5.343   0.869  1.0864 -0.5418  1.0497
 3194TIP3   OH231140   2.211   5.675   8.339  0.0545 -0.1335 -0.5239
 3194TIP3    H131141   2.223   5.641   8.251  1.6003 -3.2922  0.7502
 3194TIP3    H231142   2.121   5.655   8.361 -0.0658 -0.1718 -1.0330
 3195TIP3   OH231143   6.343   2.283   0.310 -0.1974  0.6964  0.6074
 3195TIP3    H131144   6.403   2.357   0.302 -1.8787  2.2877  1.9322
 3195TIP3    H231145   6.315   2.284   0.402  0.3123 -2.1043  0.8784
 3196TIP3   OH231146   5.010   6.675   8.313 -0.3769 -0.4928 -0.2628
 3196TIP3    H131147   5.077   6.622   8.269 -0.6510  0.3036 -1.6683
 3196TIP3    H231148   4.934   6.671   8.256 -0.3249  1.6277 -0.5684
 3197TIP3   OH231149   1.071   3.990   0.876  0.4073 -0.0134  0.2448
 3197TIP3    H131150   1.109   3.954   0.796  0.5635 -0.6082  0.5793
 3197TIP3    H231151   0.977   3.990   0.860  0.3902 -0.8241  0.3449
 3198TIP3   OH231152   2.286   4.237   1.566 -0.1960  0.2766  0.4328
 3198TIP3    H131153   2.220   4.234   1.496  1.0038  0.4393 -0.7552
 3198TIP3    H231154   2.363   4.274   1.524  0.5601  0.4177  1.8827
 3199TIP3   OH231155   6.783   6.334   8.309 -0.2531  0.3452  0.0105
 3199TIP3    H131156   6.811   6.365   8.223  2.0195 -0.3698  0.4081
 3199TIP3    H231157   6.688   6.331   8.304 -0.1762 -1.0768 -3.0108
 3200TIP3   OH231158   6.006   4.869   1.922  0.1899 -0.2723 -0.0170
 3200TIP3    H131159   5.960   4.911   1.995 -0.3050 -0.1330 -0.4045
 3200TIP3    H231160   5.963   4.903   1.844 -1.8944 -3.2664 -0.3345
 3201TIP3   OH231161   5.707   6.373   1.554 -0.7800  0.4662 -0.1881
 3201TIP3    H131162   5.718   6.416   1.470  0.0707  0.0797 -0.2851
 3201TIP3    H231163   5.776   6.410   1.610 -0.9889  0.3214  0.1720
 3202TIP3   OH231164   3.934   3.650   1.622  1.0608  0.7489 -0.2281
 3202TIP3    H131165   3.941   3.713   1.693 -1.0761  0.3526  0.4228
 3202TIP3    H231166   3.893   3.698   1.550  0.8209  0.4986 -0.2638
 3203TIP3   OH231167   6.024   1.277   0.932 -0.1372  0.3256 -0.4754
 3203TIP3    H131168   5.958   1.214   0.902  0.6147 -1.4119  1.3165
 3203TIP3    H231169   6.078   1.293   0.855 -0.9052 -0.5033 -1.2180
 3204TIP3   OH231170   2.198   3.362   6.830 -0.4039 -0.1104  0.0838
 3204TIP3    H131171   2.200   3.285   6.773 -0.1910  0.7253 -1.0777
 3204TIP3    H231172   2.105   3.386   6.835 -0.2539  1.1715 -1.8794
 3205TIP3   OH231173   3.919   4.338   1.378 -0.0453  0.0538 -0.4541
 3205TIP3    H131174   3.957   4.293   1.302  0.0600 -1.0896  0.2567
 3205TIP3    H231175   3.935   4.279   1.451 -1.1832  0.6037  0.2636
 3206TIP3   OH231176   1.373   5.698   6.516  0.0852  0.6805  0.4198
 3206TIP3    H131177   1.432   5.757   6.470  0.4406 -1.0481 -1.4888
 3206TIP3    H231178   1.356   5.741   6.600  2.1892  2.3194  0.0767
 3207TIP3   OH231179   2.964   3.600   6.530  0.1275 -0.1267  0.3973
 3207TIP3    H131180   2.941   3.519   6.576  2.0695  0.3727  2.4303
 3207TIP3    H231181   3.042   3.632   6.575 -0.1618  2.5367 -0.7927
 3208TIP3   OH231182   2.836   6.107   0.649  0.7545 -0.2751  0.3110
 3208TIP3    H131183   2.931   6.095   0.649  0.6192 -1.4410  1.2130
 3208TIP3    H231184   2.813   6.110   0.556  1.8085  1.5023  0.0417
 3209TIP3   OH231185   4.668   5.498   1.125  0.1123  0.0088  0.0858
 3209TIP3    H131186   4.592   5.443   1.106  1.2275 -1.8597  0.7385
 3209TIP3    H231187   4.719   5.447   1.188  1.5518  1.5343  0.2253
 3210TIP3   OH231188   4.709   5.794   0.314 -0.1340  0.0228  0.4019
 3210TIP3    H131189   4.701   5.699   0.312  1.2703 -0.1121  0.5405
 3210TIP3    H231190   4.675   5.819   0.400  1.7104 -0.6175  1.3765
 3211TIP3   OH231191   1.091   5.498   6.957  0.2117  0.7362  0.5568
 3211TIP3    H131192   1.176   5.507   6.915 -0.0602 -0.6802 -0.3437
 3211TIP3    H231193   1.098   5.419   7.010 -0.5035  0.6900  0.5969
 3212TIP3   OH231194   3.443   5.378   7.876 -0.2227 -0.7251 -0.5959
 3212TIP3    H131195   3.518   5.373   7.935 -1.0684  0.7507  0.7139
 3212TIP3    H231196   3.464   5.319   7.804  1.6188 -1.2943  0.3476
 3213TIP3   OH231197   5.437   6.318   0.270 -0.0914 -0.4743 -0.1300
 3213TIP3    H131198   5.476   6.349   0.188  0.3104 -1.4070 -0.2954
 3213TIP3    H231199   5.350   6.289   0.245 -1.0858  1.9054  0.2936
 3214TIP3   OH231200   6.821   4.498   0.857  0.8051  0.3389 -0.3644
 3214TIP3    H131201   6.788   4.529   0.772  2.7968  0.0126 -1.3209
 3214TIP3    H231202   6.830   4.404   0.846  0.3068  0.1820  0.5166
 3215TIP3   OH231203   5.485   6.502   1.790  0.9285 -0.7761  0.9177
 3215TIP3    H131204   5.473   6.557   1.868 -2.5098  0.6207 -0.3773
 3215TIP3    H231205   5.526   6.560   1.726 -2.0333  0.2343 -0.2150
 3216TIP3   OH231206   2.960   4.084   1.497  0.3721 -0.0957 -0.3634
 3216TIP3    H131207   2.875   4.127   1.491 -0.7197 -2.1355 -0.3209
 3216TIP3    H231208   2.940   3.996   1.527  2.5960 -0.4021  0.3862
 3217TIP3   OH231209   4.368   0.674   0.598  0.1580  0.1579  0.1401
 3217TIP3    H131210   4.449   0.623   0.607 -0.1399 -0.2724  0.3929
 3217TIP3    H231211   4.317   0.627   0.533  0.0665  0.3777  0.0522
 3218TIP3   OH231212   3.654   2.192   7.575  0.4574 -0.0803  0.3358
 3218TIP3    H131213   3.724   2.207   7.513  0.1415 -1.5165 -0.4128
 3218TIP3    H231214   3.574   2.194   7.523  0.1435 -0.7394  0.7658
 3219TIP3   OH231215   0.995   3.317   0.402 -0.0832 -0.3843  0.2701
 3219TIP3    H131216   0.914   3.368   0.398 -0.8390 -1.5233  0.8674
 3219TIP3    H231217   1.031   3.323   0.313  0.0692  1.5151  0.4152
 3220TIP3   OH231218   0.024   0.748   1.676 -0.4260 -0.2984  0.2420
 3220TIP3    H131219   0.041   0.833   1.634  0.0320 -0.7660 -0.5457
 3220TIP3    H231220  -0.028   0.700   1.612  0.9313 -1.3062 -0.1425
 3221TIP3   OH231221   1.001   6.117   1.392 -0.0219  0.6176 -0.1974
 3221TIP3    H131222   1.043   6.132   1.477  0.2320  0.7769 -0.3510
 3221TIP3    H231223   0.950   6.197   1.377  0.7684  1.0414 -0.6846
 3222TIP3   OH231224   3.686   1.529   8.451 -0.1211  0.4255 -0.1247
 3222TIP3    H131225   3.723   1.617   8.443  2.3681 -0.6110 -1.0413
 3222TIP3    H231226   3.685   1.512   8.545 -1.1254  1.5778  0.1050
 3223TIP3   OH231227   5.760   0.726   1.284 -0.5482 -0.3835 -0.1613
 3223TIP3    H131228   5.694   0.663   1.314 -1.5372  0.1925 -1.0324
 3223TIP3    H231229   5.761   0.793   1.352  0.2978 -1.1746  0.6254
 3224TIP3   OH231230   5.225   3.043   8.561 -0.4146 -0.1738  0.3864
 3224TIP3    H131231   5.301   3.102   8.560 -0.6371  0.1132 -0.3689
 3224TIP3    H231232   5.223   3.008   8.650  2.2062 -2.2635 -0.2224
 3225TIP3   OH231233   0.104   0.880   0.937 -0.6097  0.0148 -0.1775
 3225TIP3    H131234   0.075   0.805   0.885 -0.5046  0.0064 -0.2229
 3225TIP3    H231235   0.025   0.908   0.983 -0.8308  0.3630 -0.7601
 3226TIP3   OH231236   3.936   0.244   8.107 -0.1840  0.2877 -0.1475
 3226TIP3    H131237   3.871   0.276   8.045  2.2994  2.8013 -1.7185
 3226TIP3    H231238   4.020   0.268   8.068  1.6935 -1.7258  2.2942
 3227TIP3   OH231239   4.547   6.226   1.178  0.3574  0.1714 -0.5505
 3227TIP3    H131240   4.574   6.186   1.096  1.0590 -0.0688 -0.2097
 3227TIP3    H231241   4.621   6.213   1.237 -0.3327 -0.1028  0.2737
 3228TIP3   OH231242   5.979   6.408   8.400  0.4559 -0.1048  0.0527
 3228TIP3    H131243   5.966   6.478   8.337 -0.1052 -0.7008 -0.5087
 3228TIP3    H231244   6.004   6.453   8.481  0.3316  0.7200 -0.3563
 3229TIP3   OH231245   0.371   0.414   7.756  0.5000  0.0502 -0.5069
 3229TIP3    H131246   0.287   0.424   7.711  0.3481  1.3481  0.0273
 3229TIP3    H231247   0.420   0.493   7.733  0.4062  0.7874  1.5857
 3230TIP3   OH231248   2.963   3.248   7.876 -0.6503 -0.5532  0.2667
 3230TIP3    H131249   2.951   3.318   7.939  0.5227  0.7939 -0.9539
 3230TIP3    H231250   2.885   3.252   7.820 -0.1866  0.3558 -0.3253
 3231TIP3   OH231251   1.043   0.375   6.556  0.2868 -0.4013  0.4972
 3231TIP3    H131252   1.132   0.391   6.587  1.2011 -0.4346 -1.9394
 3231TIP3    H231253   0.995   0.454   6.581  1.3514  0.2484  0.5703
 3232TIP3   OH231254   3.839   2.220   8.262  0.3713  0.5812  0.0399
 3232TIP3    H131255   3.896   2.295   8.283  1.0592  0.0282  0.1795
 3232TIP3    H231256   3.818   2.232   8.170  0.6523  0.8321  0.0056
 3233TIP3   OH231257   3.115   4.094   1.266  0.0280 -0.1689 -0.1303
 3233TIP3    H131258   3.069   4.108   1.349  0.0352  0.6738 -0.2619
 3233TIP3    H231259   3.144   4.181   1.239  0.1599 -0.4510 -0.9451
 3234TIP3   OH231260   6.016   6.862   8.449 -0.2174 -0.5367 -0.1298
 3234TIP3    H131261   6.050   6.870   8.538  1.5483 -1.8472 -0.6280
 3234TIP3    H231262   6.064   6.929   8.399 -1.4323  0.4103 -0.0574
 3235TIP3   OH231263   6.514   6.649   1.118  0.2955  0.4071  0.2402
 3235TIP3    H131264   6.439   6.613   1.165 -0.7167  1.6698 -0.3722
 3235TIP3    H231265   6.522   6.595   1.040  0.1413  0.1599  0.3950
 3236TIP3   OH231266   2.248   4.264   0.335  0.1994 -0.1899  0.2490
 3236TIP3    H131267   2.191   4.335   0.309 -1.6984 -1.1744  1.4770
 3236TIP3    H231268   2.225   4.191   0.278 -0.8215 -1.0119  1.6510
 3237TIP3   OH231269   3.981   3.570   7.563 -0.1374 -0.1502  0.0468
 3237TIP3    H131270   3.931   3.623   7.501  0.9482  2.4342  1.2610
 3237TIP3    H231271   3.925   3.562   7.640  0.4071  0.8641  0.5661
 3238TIP3   OH231272   0.067   3.708   1.135  0.2720 -0.3225  0.8713
 3238TIP3    H131273   0.141   3.648   1.132  1.4599  1.0349  1.5398
 3238TIP3    H231274   0.050   3.722   1.228  0.6435  1.0710  0.7553
 3239TIP3   OH231275   0.772   0.712   1.958 -0.7340 -0.1056  0.2893
 3239TIP3    H131276   0.786   0.670   1.873 -1.2928 -0.1222  0.1993
 3239TIP3    H231277   0.719   0.649   2.006  0.2171 -0.4322  0.9305
 3240TIP3   OH231278   1.329   0.608   0.543  0.7667 -0.0038 -0.4596
 3240TIP3    H131279   1.240   0.576   0.558 -0.1086  2.1506 -0.6378
 3240TIP3    H231280   1.362   0.629   0.630  1.4653 -1.5882 -0.3106
 3241TIP3   OH231281   1.334   4.439   1.856 -0.8801 -0.5734 -0.1905
 3241TIP3    H131282   1.385   4.449   1.776 -0.0656 -1.2170  0.2257
 3241TIP3    H231283   1.259   4.498   1.845  0.2926  0.9209 -0.5468
 3242TIP3   OH231284   1.911   3.235   0.375 -0.1946  0.0452 -0.3893
 3242TIP3    H131285   1.958   3.303   0.327  0.2455 -0.6679 -1.0035
 3242TIP3    H231286   1.862   3.282   0.442  1.4888  0.8217  0.3625
 3243TIP3   OH231287   3.769   0.664   1.183 -0.0081 -0.9445 -0.2092
 3243TIP3    H131288   3.730   0.646   1.097  2.8150 -1.6200 -1.4505
 3243TIP3    H231289   3.828   0.590   1.199  2.2143  0.8726  0.6038
 3244TIP3   OH231290   0.210   5.971   0.098 -0.2698  0.0275  0.3539
 3244TIP3    H131291   0.187   6.048   0.150  0.3676  0.2196  0.3588
 3244TIP3    H231292   0.126   5.929   0.079 -0.5395  0.1696  1.2000
 3245TIP3   OH231293   2.661   1.600   6.901  0.0556  0.5005 -0.1180
 3245TIP3    H131294   2.591   1.584   6.964  0.5260 -1.0594  0.0610
 3245TIP3    H231295   2.628   1.562   6.819 -0.8594  3.1492 -1.0782
 3246TIP3   OH231296   1.142   2.017   6.846  0.5298  0.2996  0.0658
 3246TIP3    H131297   1.046   2.011   6.841  0.6233 -2.0467  0.0928
 3246TIP3    H231298   1.170   2.035   6.757  0.0207  3.4621  0.4192
 3247TIP3   OH231299   4.736   0.829   8.246  0.6962  0.2684  0.6891
 3247TIP3    H131300   4.729   0.867   8.158  0.9699 -1.1088  0.0365
 3247TIP3    H231301   4.821   0.859   8.278  1.3806 -0.6037 -0.2392
 3248TIP3   OH231302   4.949   1.914   1.822  0.2933  0.1255  0.0899
 3248TIP3    H131303   4.972   1.895   1.913  1.2353  1.7678  0.2363
 3248TIP3    H231304   4.883   1.984   1.828  1.0731  0.9410 -0.4719
 3249TIP3   OH231305   6.045   6.626   7.688 -0.0304 -0.1616 -0.7090
 3249TIP3    H131306   6.128   6.607   7.731 -1.4421 -1.8242  1.5488
 3249TIP3    H231307   6.003   6.691   7.745 -0.0766  1.1265 -2.1523
 3250TIP3   OH231308   1.476   2.968   7.136  0.3031  0.2470 -0.6067
 3250TIP3    H131309   1.416   3.021   7.189  0.2362  0.9543 -1.3690
 3250TIP3    H231310   1.554   3.022   7.127  0.9976 -0.5896  0.2091
 3251TIP3   OH231311   4.990   5.183   1.275 -0.1058 -0.5770  0.2858
 3251TIP3    H131312   5.025   5.104   1.316 -1.2732 -0.5502  1.3921
 3251TIP3    H231313   5.034   5.255   1.320  0.1023 -0.5794  0.0861
 3252TIP3   OH231314   4.657   6.114   7.808 -0.2174 -0.2154  0.2268
 3252TIP3    H131315   4.634   6.116   7.901 -0.2097  1.7818  0.2250
 3252TIP3    H231316   4.688   6.025   7.793 -1.4020 -0.9455  1.8359
 3253TIP3   OH231317   2.279   3.196   2.522 -0.1578 -0.1717 -0.2318
 3253TIP3    H131318   2.347   3.129   2.518 -0.1999 -0.2192 -0.1540
 3253TIP3    H231319   2.207   3.161   2.470 -0.8040 -0.8987  1.1057
 3254TIP3   OH231320   0.714   5.103   0.156 -0.1801 -0.2474 -0.1626
 3254TIP3    H131321   0.626   5.126   0.127 -0.0873  0.4523  0.0923
 3254TIP3    H231322   0.769   5.176   0.127  0.2786 -0.5696 -0.1237
 3255TIP3   OH231323   1.749   1.061   1.452 -0.2709 -0.1324 -0.1899
 3255TIP3    H131324   1.673   1.108   1.417 -0.9050 -1.3206 -0.4934
 3255TIP3    H231325   1.822   1.089   1.397 -0.8860 -0.4599 -1.2136
 3256TIP3   OH231326   0.759   4.957   1.258  0.1350 -0.2230 -1.0762
 3256TIP3    H131327   0.787   4.922   1.174  1.3749 -2.5970  0.2158
 3256TIP3    H231328   0.677   4.911   1.278 -0.4407  0.7184 -1.1738
 3257TIP3   OH231329   5.875   4.835   6.746 -0.3319  0.4138 -0.4106
 3257TIP3    H131330   5.903   4.875   6.828  0.4030  0.2375 -0.5625
 3257TIP3    H231331   5.840   4.908   6.694  0.8833  0.8715 -0.6380
 3258TIP3   OH231332   0.117   3.223   8.351 -0.0376 -0.2626  0.1615
 3258TIP3    H131333   0.168   3.265   8.282 -0.2041  0.4878  0.4823
 3258TIP3    H231334   0.087   3.295   8.406 -2.8479 -0.4994 -0.9228
 3259TIP3   OH231335   0.478   2.830   0.916 -0.2296 -0.1633 -0.2282
 3259TIP3    H131336   0.549   2.771   0.890 -0.5872 -1.8734  2.3310
 3259TIP3    H231337   0.517   2.889   0.980 -0.5537  0.5009 -0.6318
 3260TIP3   OH231338   2.516   2.891   8.505  0.0160  0.0314 -0.0881
 3260TIP3    H131339   2.575   2.818   8.523  0.3051  0.6992  2.0073
 3260TIP3    H231340   2.439   2.874   8.560 -0.1518  0.9979 -0.0087
 3261TIP3   OH231341   4.813   5.828   2.391 -0.6316  0.3684 -0.0962
 3261TIP3    H131342   4.846   5.746   2.354 -0.7520  0.8296 -1.2641
 3261TIP3    H231343   4.740   5.853   2.334 -2.0165  0.1931  1.5178
 3262TIP3   OH231344   2.265   2.975   0.310 -0.0279 -0.2859 -0.2079
 3262TIP3    H131345   2.185   3.003   0.265  0.3552 -0.8758 -1.2829
 3262TIP3    H231346   2.259   2.879   0.312  0.7468 -0.3421 -0.4686
 3263TIP3   OH231347   2.096   2.084   1.281  0.0188  0.1603 -0.0750
 3263TIP3    H131348   2.190   2.099   1.282  0.1487 -0.4522  2.1891
 3263TIP3    H231349   2.073   2.082   1.188  1.8820  2.2953 -0.6763
 3264TIP3   OH231350   6.174   3.313   0.564 -0.0294  0.0561 -0.5999
 3264TIP3    H131351   6.150   3.262   0.487 -0.1675 -0.0928 -0.4577
 3264TIP3    H231352   6.140   3.401   0.546 -0.2318 -0.0269 -0.6232
 3265TIP3   OH231353   1.391   5.565   0.339  0.1483 -0.4545 -0.4838
 3265TIP3    H131354   1.487   5.570   0.333  0.1215  1.1544  0.1548
 3265TIP3    H231355   1.359   5.616   0.264 -0.1488  2.8592  1.6994
 3266TIP3   OH231356   4.112   5.459   8.278  0.2770  0.3485 -0.1831
 3266TIP3    H131357   4.187   5.445   8.220  2.0063 -0.8921  2.1662
 3266TIP3    H231358   4.124   5.548   8.313 -0.2857  0.7665 -1.0237
 3267TIP3   OH231359   5.318   5.966   0.823  0.1147  0.1244  0.4387
 3267TIP3    H131360   5.380   5.981   0.894  0.4830  1.2811 -0.0967
 3267TIP3    H231361   5.326   5.872   0.803  0.4023 -0.0921  1.5422
 3268TIP3   OH231362   5.962   6.645   8.266 -0.4955 -0.4932  0.5290
 3268TIP3    H131363   5.947   6.735   8.296  0.5833 -0.6214  1.5204
 3268TIP3    H231364   5.966   6.652   8.171 -0.2705  0.5466  0.6039
 3269TIP3   OH231365   6.436   1.763   8.218  0.1165  0.3421 -0.0884
 3269TIP3    H131366   6.507   1.773   8.155  0.7840  2.0419  0.8738
 3269TIP3    H231367   6.451   1.831   8.283 -1.0308 -0.8011  1.4671
 3270TIP3   OH231368   4.277   1.527   0.183  0.4685 -0.9471 -0.1018
 3270TIP3    H131369   4.297   1.503   0.093 -0.2365 -2.4255  0.1007
 3270TIP3    H231370   4.184   1.506   0.194 -0.0736  1.3764  0.3201
 3271TIP3   OH231371   3.802   2.526   1.334  0.2529 -0.4195  0.1716
 3271TIP3    H131372   3.734   2.461   1.348  0.5344 -0.5100  1.1765
 3271TIP3    H231373   3.757   2.610   1.342  0.4381 -0.4566  1.9972
 3272TIP3   OH231374   4.193   1.790   1.823  0.3116 -0.4929  0.2466
 3272TIP3    H131375   4.247   1.807   1.900  1.4088 -2.1589 -0.1048
 3272TIP3    H231376   4.119   1.740   1.855 -0.8802  1.4427  0.6631
 3273TIP3   OH231377   2.116   2.446   7.215 -0.2478 -0.4582  0.2868
 3273TIP3    H131378   2.045   2.454   7.151  0.7995  2.1596 -0.7019
 3273TIP3    H231379   2.075   2.462   7.300 -1.3452 -2.2355  0.1458
 3274TIP3   OH231380   4.424   5.024   7.537  0.6773 -0.1202  0.3964
 3274TIP3    H131381   4.519   5.008   7.541  0.6896  0.1246  1.2713
 3274TIP3    H231382   4.385   4.942   7.568  0.5704 -0.5077 -0.7267
 3275TIP3   OH231383   0.008   5.831   6.303 -0.3975 -0.3390  0.2838
 3275TIP3    H131384   0.028   5.743   6.335  1.6855  1.2133  3.9037
 3275TIP3    H231385   0.092   5.866   6.274 -1.3074  0.3226 -1.7868
 3276TIP3   OH231386   4.566   6.549   1.120  0.0928  0.7809  0.0307
 3276TIP3    H131387   4.610   6.464   1.121  0.4528  0.9608 -0.0936
 3276TIP3    H231388   4.528   6.555   1.032  1.2996  1.3571 -0.4700
 3277TIP3   OH231389   0.665   4.840   8.258  0.2836  0.3724 -0.2956
 3277TIP3    H131390   0.725   4.913   8.244  1.2877 -0.2550  0.5566
 3277TIP3    H231391   0.723   4.764   8.269 -0.7528 -0.9413 -3.0754
 3278TIP3   OH231392   6.099   1.454   2.120  0.2245  0.0533 -0.2089
 3278TIP3    H131393   6.086   1.539   2.078  2.1733  0.9623  0.8633
 3278TIP3    H231394   6.193   1.452   2.139  0.1123 -2.1107  0.2962
 3279TIP3   OH231395   3.744   3.047   7.740 -0.4226 -0.7966 -0.0273
 3279TIP3    H131396   3.832   3.010   7.728 -0.1722 -0.5457  0.9789
 3279TIP3    H231397   3.744   3.080   7.830 -1.6365 -1.0139  0.0622
 3280TIP3   OH231398   3.440   3.376   0.183 -0.2816  0.0349  0.4018
 3280TIP3    H131399   3.460   3.282   0.187 -0.1225  0.0491 -0.0432
 3280TIP3    H231400   3.440   3.404   0.275 -0.2979 -0.3934  0.5356
 3281TIP3   OH231401   0.955   5.517   8.515  0.2820 -0.5596  0.1098
 3281TIP3    H131402   0.870   5.549   8.484 -0.3108 -1.1826  1.0035
 3281TIP3    H231403   1.013   5.523   8.440 -0.1956  1.1650 -0.1545
 3282TIP3   OH231404   2.896   2.976   7.892 -0.5321 -0.1715  0.1869
 3282TIP3    H131405   2.934   2.938   7.971 -1.2273 -0.1786  0.5253
 3282TIP3    H231406   2.928   3.065   7.889  0.8150 -0.6473 -0.4106
 3283TIP3   OH231407   4.106   2.127   8.334 -0.0293 -0.0750 -0.4920
 3283TIP3    H131408   4.012   2.130   8.350 -0.0440  2.5431 -0.6033
 3283TIP3    H231409   4.134   2.044   8.371 -2.2156 -0.4509  0.4975
 3284TIP3   OH231410   6.782   6.093   0.334 -0.1774  0.0083  0.3093
 3284TIP3    H131411   6.743   6.167   0.287  1.1350 -0.7504 -2.0888
 3284TIP3    H231412   6.722   6.020   0.318 -0.2769 -0.0139  0.7546
 3285TIP3   OH231413   2.692   3.634   1.564  0.0832  0.1695 -0.1284
 3285TIP3    H131414   2.682   3.553   1.514 -1.6868 -0.0533  0.4808
 3285TIP3    H231415   2.612   3.684   1.544  0.8422  1.4784  0.0086
 3286TIP3   OH231416   6.384   1.458   2.059 -0.0717  0.0930  0.6060
 3286TIP3    H131417   6.392   1.505   1.976 -0.5472 -0.6651  0.1077
 3286TIP3    H231418   6.436   1.508   2.121 -0.2086  1.0173 -0.0098
 3287TIP3   OH231419   2.279   1.355   1.938 -0.1170 -0.3367 -0.4851
 3287TIP3    H131420   2.268   1.283   1.999 -1.0790  0.5726  0.4570
 3287TIP3    H231421   2.374   1.363   1.926  0.0913 -0.5105  0.9297
 3288TIP3   OH231422   2.633   4.471   0.313  0.3345 -0.3424  0.0022
 3288TIP3    H131423   2.688   4.438   0.242  1.3550  1.0819  0.0994
 3288TIP3    H231424   2.654   4.564   0.319 -1.6531  0.1328  0.4585
 3289TIP3   OH231425   3.050   3.840   0.499 -0.0634 -0.0990 -0.1374
 3289TIP3    H131426   3.090   3.780   0.562 -0.3136 -1.0927 -0.8975
 3289TIP3    H231427   2.985   3.888   0.549 -2.0004 -2.5978 -0.0988
 3290TIP3   OH231428   3.118   5.303   0.379 -0.3741  0.1004  0.1473
 3290TIP3    H131429   3.127   5.247   0.456  1.0417 -0.2647 -0.2467
 3290TIP3    H231430   3.201   5.291   0.331 -1.2371  0.2715 -1.4560
 3291TIP3   OH231431   3.802   3.056   0.343  0.1453  0.2118  0.2208
 3291TIP3    H131432   3.725   3.077   0.396  0.5910  2.8868 -0.0337
 3291TIP3    H231433   3.785   3.097   0.259  1.5860  0.3769 -0.0197
 3292TIP3   OH231434   0.625   4.287   0.762 -0.1157 -0.0439 -0.9672
 3292TIP3    H131435   0.565   4.258   0.832  0.3378 -0.4780 -0.7537
 3292TIP3    H231436   0.654   4.374   0.791  1.4182 -0.9123  0.2914
 3293TIP3   OH231437   5.725   2.264   7.027 -0.2478  0.2373  0.3332
 3293TIP3    H131438   5.685   2.338   7.073 -0.9007 -0.4741  0.9407
 3293TIP3    H231439   5.730   2.292   6.936  0.4927  1.4373  0.7169
 3294TIP3   OH231440   0.915   6.539   0.947  0.3674 -0.5375  0.1883
 3294TIP3    H131441   0.880   6.480   1.014 -0.1659  0.3283  0.6851
 3294TIP3    H231442   0.938   6.618   0.995  0.6631 -0.1788 -0.5415
 3295TIP3   OH231443   6.704   3.479   1.127  0.2733 -0.0465 -0.2063
 3295TIP3    H131444   6.779   3.435   1.086  0.0879  0.1533 -0.7631
 3295TIP3    H231445   6.646   3.408   1.154  0.3262 -0.1730 -0.4246
 3296TIP3   OH231446   0.970   1.325   8.552 -0.0195 -0.1491 -0.1196
 3296TIP3    H131447   1.007   1.399   8.599 -0.0501  0.6908 -1.3645
 3296TIP3    H231448   1.027   1.315   8.475 -0.7241 -0.6466 -0.5832
 3297TIP3   OH231449   1.397   3.463   0.121 -0.3464 -0.2282  0.6268
 3297TIP3    H131450   1.394   3.379   0.075 -1.2183 -0.7900  1.6653
 3297TIP3    H231451   1.347   3.448   0.202 -2.5908  1.9369 -0.2272
 3298TIP3   OH231452   4.227   2.987   7.089 -0.2334 -0.3581 -0.1848
 3298TIP3    H131453   4.140   3.007   7.055 -0.0070 -2.4289 -2.1569
 3298TIP3    H231454   4.236   2.893   7.080  1.6043 -0.4233  1.5888
 3299TIP3   OH231455   5.827   2.398   7.550  0.3618  0.0108  0.1062
 3299TIP3    H131456   5.745   2.349   7.554  0.1688  0.4063  1.4767
 3299TIP3    H231457   5.895   2.332   7.557  0.1467 -0.2241  0.0270
 3300TIP3   OH231458   3.449   3.892   7.255  0.1277  0.0409 -0.2227
 3300TIP3    H131459   3.418   3.803   7.269 -1.9939  0.4576 -1.8802
 3300TIP3    H231460   3.524   3.882   7.196 -0.2034 -0.6419 -0.5353
 3301TIP3   OH231461   0.137   1.625   0.016 -0.1439  0.1667  0.3257
 3301TIP3    H131462   0.213   1.602   0.070  0.4823 -1.0830 -0.9938
 3301TIP3    H231463   0.117   1.544  -0.032  0.5673  1.6619 -2.7373
 3302TIP3   OH231464   0.479   4.462   8.578  0.2083  0.1596  0.9547
 3302TIP3    H131465   0.491   4.550   8.614 -1.0649  0.8599 -0.2468
 3302TIP3    H231466   0.450   4.477   8.488  0.5793 -1.5125  0.5251
 3303TIP3   OH231467   2.363   4.865   0.803  0.2680  0.7722 -0.9892
 3303TIP3    H131468   2.310   4.800   0.756  0.6387  0.8248 -1.4895
 3303TIP3    H231469   2.419   4.903   0.735  0.8536  0.8053 -0.4893
 3304TIP3   OH231470   2.594   0.688   8.222  0.6391  0.4198  0.0653
 3304TIP3    H131471   2.657   0.634   8.174 -1.8886 -2.6271 -0.1599
 3304TIP3    H231472   2.578   0.763   8.163  1.2848 -0.6522 -1.5533
 3305TIP3   OH231473   1.664   1.661   7.187  0.3767  0.2910  1.0257
 3305TIP3    H131474   1.661   1.617   7.273  0.6166  1.6248  1.7434
 3305TIP3    H231475   1.643   1.592   7.124  1.2158 -0.9690  2.0692
 3306TIP3   OH231476   3.231   0.853   1.042  0.4224  0.6006  0.1101
 3306TIP3    H131477   3.211   0.778   1.097  1.9374  0.4909  0.5475
 3306TIP3    H231478   3.264   0.919   1.102 -0.8249  1.6217 -0.2805
 3307TIP3   OH231479   4.094   4.340   7.370 -0.2277 -0.3639 -0.1020
 3307TIP3    H131480   4.178   4.342   7.324  1.0601 -0.1323  2.1182
 3307TIP3    H231481   4.029   4.325   7.301  1.6631 -1.0678 -1.8292
 3308TIP3   OH231482   0.523   0.091   7.717 -0.5615  0.7155  0.1754
 3308TIP3    H131483   0.552   0.004   7.688 -0.2176  1.2964 -1.2945
 3308TIP3    H231484   0.445   0.074   7.769 -0.1823 -0.5210  0.3706
 3309TIP3   OH231485   0.093   4.198   7.596  0.7271 -0.0726 -0.6105
 3309TIP3    H131486   0.077   4.104   7.597 -0.3389  0.0707 -1.8600
 3309TIP3    H231487   0.024   4.234   7.540  2.1979  1.2450 -1.6506
 3310TIP3   OH231488   3.348   5.528   1.395  0.2072 -0.3583 -0.0983
 3310TIP3    H131489   3.311   5.574   1.470 -2.5215 -2.5870  0.0838
 3310TIP3    H231490   3.397   5.455   1.435  0.3489 -0.4623 -0.4595
 3311TIP3   OH231491   4.906   0.960   7.605  0.2163 -0.2059  0.5050
 3311TIP3    H131492   4.941   0.872   7.589  0.9881 -0.0328  1.1811
 3311TIP3    H231493   4.954   1.016   7.545 -0.4210 -0.2644 -0.0725
 3312TIP3   OH231494   0.386   6.748   0.228 -0.0359  0.2926 -0.2357
 3312TIP3    H131495   0.395   6.745   0.133  0.6288  1.7180 -0.2475
 3312TIP3    H231496   0.294   6.768   0.243  0.1146  1.3490 -0.6353
 3313TIP3   OH231497   1.606   3.892   7.547 -0.1373 -0.5659  0.6424
 3313TIP3    H131498   1.512   3.905   7.536  0.3055  1.3152 -2.2741
 3313TIP3    H231499   1.638   3.977   7.577  0.8048 -0.6332 -0.1308
 3314TIP3   OH231500   0.443   3.644   7.951  0.5815  0.0394 -0.5548
 3314TIP3    H131501   0.417   3.737   7.955  0.6175  0.0828 -1.1573
 3314TIP3    H231502   0.501   3.632   8.025  1.1790  0.6964 -0.9021
 3315TIP3   OH231503   1.368   5.222   0.288  0.2668  0.2385 -0.6179
 3315TIP3    H131504   1.367   5.130   0.316 -1.4657 -0.3737 -2.3939
 3315TIP3    H231505   1.310   5.267   0.349  0.8670  0.1092  0.0633
 3316TIP3   OH231506   0.347   5.742   0.537  0.2076 -0.3919 -0.4393
 3316TIP3    H131507   0.266   5.785   0.510  0.3993 -0.1431 -0.6239
 3316TIP3    H231508   0.415   5.786   0.486  0.8527  1.5224  1.8855
 3317TIP3   OH231509   3.160   2.799   7.275 -0.2917 -0.0695  0.0184
 3317TIP3    H131510   3.093   2.853   7.317 -0.5372  0.4891 -1.0707
 3317TIP3    H231511   3.234   2.803   7.336 -0.5176  1.0074  0.2459
 3318TIP3   OH231512   5.165   5.042   0.751 -0.3290  0.6760 -0.3634
 3318TIP3    H131513   5.232   4.984   0.788  0.5080  1.1140 -1.1843
 3318TIP3    H231514   5.083   4.995   0.767  0.2472 -0.3052 -0.1895
 3319TIP3   OH231515   5.147   2.479   0.243 -0.2048 -0.1293 -0.0909
 3319TIP3    H131516   5.209   2.410   0.222  0.6496  0.5083  0.2663
 3319TIP3    H231517   5.066   2.453   0.199 -0.3360 -2.0756  1.1589
 3320TIP3   OH231518   0.237   1.046   0.755  0.2664  0.2004  0.8694
 3320TIP3    H131519   0.192   0.974   0.800  0.3468  0.2611  1.0440
 3320TIP3    H231520   0.320   1.056   0.802  1.9222 -1.9806 -1.2559
 3321TIP3   OH231521   4.226   1.682   8.006 -0.1988  0.1223  0.0870
 3321TIP3    H131522   4.314   1.702   8.039 -0.2701  1.7117 -0.5754
 3321TIP3    H231523   4.177   1.763   8.019 -0.5851  0.4302 -2.6746
 3322TIP3   OH231524   3.268   1.430   1.651  0.0175  0.0881  0.3836
 3322TIP3    H131525   3.220   1.384   1.720  1.4487 -0.5002  1.0257
 3322TIP3    H231526   3.319   1.362   1.607  0.0839  0.6547 -0.4475
 3323TIP3   OH231527   0.332   4.925   2.331 -0.5395  0.2874  0.0706
 3323TIP3    H131528   0.287   5.008   2.315 -0.5716  0.2409 -0.0805
 3323TIP3    H231529   0.265   4.867   2.366 -0.2645  0.6707  1.2837
 3324TIP3   OH231530   5.944   2.338   2.204 -0.0454 -0.2535  0.1585
 3324TIP3    H131531   5.919   2.427   2.227  0.1163  0.1440 -1.1477
 3324TIP3    H231532   6.039   2.336   2.215  0.0203 -0.0913 -0.3543
 3325TIP3   OH231533   0.222   4.193   0.577 -0.2609  0.6172  0.8286
 3325TIP3    H131534   0.274   4.128   0.624  0.5881 -0.7580 -1.8360
 3325TIP3    H231535   0.251   4.277   0.613  1.5380 -0.2690  1.5833
 3326TIP3   OH231536   0.543   2.356   8.459  0.4068  0.6823 -0.4093
 3326TIP3    H131537   0.480   2.379   8.527  0.2975  0.8863 -0.5798
 3326TIP3    H231538   0.503   2.280   8.415  1.3286 -0.6611  0.9418
 3327TIP3   OH231539   3.126   1.914   7.102  0.1698 -0.3215  0.3951
 3327TIP3    H131540   3.183   1.991   7.100 -2.3423  1.6903 -1.2201
 3327TIP3    H231541   3.133   1.877   7.015 -0.4441 -0.4799  0.4111
 3328TIP3   OH231542   2.078   5.167   6.905 -0.3538  0.0461  0.0174
 3328TIP3    H131543   1.985   5.177   6.886 -0.1259  0.5812 -0.9036
 3328TIP3    H231544   2.122   5.206   6.829  0.6185 -0.2489  0.4149
 3329TIP3   OH231545   0.700   4.157   0.529 -0.1768 -0.1019 -0.4371
 3329TIP3    H131546   0.675   4.180   0.619  2.5433  0.1444  0.3334
 3329TIP3    H231547   0.743   4.072   0.537  1.8822  0.8046 -1.1152
 3330TIP3   OH231548   1.080   0.333   7.021 -0.0503  0.2892 -0.5448
 3330TIP3    H131549   1.150   0.326   7.086 -0.5801 -1.3193 -0.1267
 3330TIP3    H231550   1.085   0.424   6.991  0.7581  0.8204  1.1085
 3331TIP3   OH231551   5.026   6.047   1.370 -0.0278 -0.0910 -0.3054
 3331TIP3    H131552   5.076   6.129   1.373 -0.2719  0.0444  1.6756
 3331TIP3    H231553   5.092   5.979   1.355  0.4559  0.2920  0.0381
 3332TIP3   OH231554   4.950   6.185   8.187  0.3938 -0.0707  0.5256
 3332TIP3    H131555   4.869   6.236   8.183  0.7696  0.4856 -0.2992
 3332TIP3    H231556   4.988   6.206   8.272 -0.1274 -0.0102  0.7412
 3333TIP3   OH231557   3.911   2.473   8.389  0.1709 -0.1010  0.0470
 3333TIP3    H131558   3.871   2.492   8.474  0.1379  0.5048 -0.1005
 3333TIP3    H231559   3.993   2.521   8.390 -0.8022  1.7092 -1.1008
 3334TIP3   OH231560   6.171   6.530   7.313  0.5134 -0.6018 -0.3679
 3334TIP3    H131561   6.118   6.610   7.315 -0.4126 -1.2107  1.1849
 3334TIP3    H231562   6.215   6.529   7.399  0.2141 -1.9390 -0.2149
 3335TIP3   OH231563   5.828   5.163   0.346 -0.4648  0.1880  0.2414
 3335TIP3    H131564   5.787   5.248   0.329 -1.4452 -0.3198 -0.0404
 3335TIP3    H231565   5.850   5.129   0.259 -0.0799  0.1547  0.3529
 3336TIP3   OH231566   1.030   3.397   0.125 -0.3706 -0.6289 -0.5743
 3336TIP3    H131567   1.082   3.471   0.093  0.6002 -0.8616  0.3754
 3336TIP3    H231568   1.007   3.349   0.047 -1.1154  0.7258 -1.2265
 3337TIP3   OH231569   0.207   3.971   6.341  0.4219  0.0053 -0.3524
 3337TIP3    H131570   0.213   4.033   6.268 -0.9922  0.7868  0.1616
 3337TIP3    H231571   0.223   4.024   6.419 -3.4766  0.4714  0.3567
 3338TIP3   OH231572   5.323   2.169   8.331  0.1039  0.3088 -0.2368
 3338TIP3    H131573   5.329   2.094   8.391 -0.2036 -0.3525 -1.0097
 3338TIP3    H231574   5.381   2.235   8.369 -2.7015  1.3046  2.7737
 3339TIP3   OH231575   6.148   0.279   0.156  0.2787  0.2211  0.3233
 3339TIP3    H131576   6.156   0.266   0.250 -1.7416  0.6106  0.5939
 3339TIP3    H231577   6.198   0.358   0.138  0.6863  0.1361  1.0611
 3340TIP3   OH231578   3.818   5.594   0.211  0.3087  0.0461  0.2193
 3340TIP3    H131579   3.769   5.672   0.238  0.8745  0.3541  0.3654
 3340TIP3    H231580   3.855   5.560   0.292  1.6253  0.7085 -0.0777
 3341TIP3   OH231581   2.016   6.491   8.607 -0.2296 -0.0927 -0.0997
 3341TIP3    H131582   1.963   6.550   8.552  0.7318 -1.1406 -2.2953
 3341TIP3    H231583   2.056   6.549   8.672 -1.9101  1.1253 -0.0794
 3342TIP3   OH231584   4.083   4.221   2.576 -0.1281 -0.3272  0.4359
 3342TIP3    H131585   4.005   4.275   2.588  0.5179  0.4856  1.0805
 3342TIP3    H231586   4.054   4.132   2.599 -0.7880  0.0108  0.9506
 3343TIP3   OH231587   1.377   1.188   8.400 -0.3661  0.2369 -0.2218
 3343TIP3    H131588   1.341   1.159   8.316  0.2755  0.0817 -0.4423
 3343TIP3    H231589   1.472   1.185   8.388 -0.2542 -0.5065  0.7439
 3344TIP3   OH231590   5.820   6.682   8.519 -0.1445  0.6458 -0.0386
 3344TIP3    H131591   5.785   6.597   8.493 -0.6046  0.8537 -0.1096
 3344TIP3    H231592   5.898   6.693   8.464  1.0482 -0.5767  1.3252
 3345TIP3   OH231593   5.541   3.950   8.483  0.2675  0.3534  0.2334
 3345TIP3    H131594   5.502   3.863   8.475  0.5393  0.1949  0.5740
 3345TIP3    H231595   5.535   3.988   8.395 -0.1260  0.1095  0.1535
 3346TIP3   OH231596   1.104   5.012   0.466 -0.1093 -0.0297  0.2918
 3346TIP3    H131597   1.112   5.069   0.543 -2.2295 -0.3755  0.8505
 3346TIP3    H231598   1.010   4.994   0.460  0.3834 -2.8636 -0.3196
 3347TIP3   OH231599   6.580   2.781   8.450  0.7050 -0.0150 -0.2383
 3347TIP3    H131600   6.486   2.802   8.445  0.8920  1.0244  0.4644
 3347TIP3    H231601   6.584   2.710   8.514  0.5208  0.8373  0.7433
 3348TIP3   OH231602   6.039   5.740   7.425  0.0420  0.0358  0.1623
 3348TIP3    H131603   5.988   5.708   7.499 -0.0023  0.5088  0.3338
 3348TIP3    H231604   6.121   5.691   7.430  0.2173  0.3910  0.7831
 3349TIP3   OH231605   5.848   6.219   0.158  0.3429 -0.3821  0.2213
 3349TIP3    H131606   5.943   6.226   0.151  0.2507 -0.3189 -1.2776
 3349TIP3    H231607   5.833   6.134   0.199  1.0317 -1.2377 -1.2161
 3350TIP3   OH231608   2.021   5.115   1.409  0.0134  0.1160 -0.0021
 3350TIP3    H131609   1.975   5.038   1.376 -0.5940  0.6887 -0.5337
 3350TIP3    H231610   2.005   5.183   1.342 -0.0415  0.8914  0.7793
 3351TIP3   OH231611   4.960   4.774   8.005 -0.3371 -0.4003 -0.7290
 3351TIP3    H131612   4.961   4.741   8.095  0.8060  0.3240 -0.4581
 3351TIP3    H231613   4.951   4.696   7.951 -0.1681 -0.9235 -0.0130
 3352TIP3   OH231614   1.505   0.719   0.180 -0.0906  0.0542 -0.1555
 3352TIP3    H131615   1.449   0.770   0.122 -2.0378 -1.4036  0.3395
 3352TIP3    H231616   1.526   0.778   0.252 -0.5187  0.8013 -0.6347
 3353TIP3   OH231617   0.814   2.653   8.228 -0.1190 -0.0293 -0.0680
 3353TIP3    H131618   0.843   2.686   8.313  0.6433  0.7884 -0.6313
 3353TIP3    H231619   0.808   2.731   8.173 -1.5067 -0.4326 -0.5204
 3354TIP3   OH231620   5.106   6.220   0.563  0.2331 -0.1601 -0.9053
 3354TIP3    H131621   5.020   6.254   0.537  0.3626 -0.8997 -2.3945
 3354TIP3    H231622   5.121   6.145   0.505  1.5101 -0.5756 -0.0818
 3355TIP3   OH231623   1.392   6.178   6.243 -0.3330  0.5060  0.4559
 3355TIP3    H131624   1.481   6.191   6.212  0.2642 -0.5887  1.6214
 3355TIP3    H231625   1.357   6.267   6.255  0.6110  0.9416  0.0538
 3356TIP3   OH231626   5.816   3.020   1.214  0.2324  0.3906 -0.5227
 3356TIP3    H131627   5.809   2.940   1.163 -1.9267  0.1029  0.1398
 3356TIP3    H231628   5.878   3.074   1.165  1.5599 -1.5458 -1.1084
 3357TIP3   OH231629   2.468   3.504   8.404  0.5269 -0.7727 -0.0631
 3357TIP3    H131630   2.540   3.477   8.461 -0.3191 -0.8674  0.9939
 3357TIP3    H231631   2.411   3.427   8.398 -0.1033 -0.3332  0.1127
 3358TIP3   OH231632   2.357   3.595   1.384  0.0609 -0.4201 -0.9613
 3358TIP3    H131633   2.287   3.557   1.332  0.1140 -2.7109  0.4727
 3358TIP3    H231634   2.436   3.584   1.330 -0.0886 -1.5502 -0.9721
 3359TIP3   OH231635   3.814   3.078   2.323 -0.2398 -0.0067  0.2617
 3359TIP3    H131636   3.892   3.129   2.347 -1.4410  1.1071  2.0557
 3359TIP3    H231637   3.764   3.136   2.267  0.1871 -0.7288 -0.9003
 3360TIP3   OH231638   0.849   2.582   7.809  0.4990  0.1466 -0.0924
 3360TIP3    H131639   0.823   2.672   7.787  0.2326  0.2064  0.4612
 3360TIP3    H231640   0.766   2.534   7.812  0.6334 -0.1033 -0.2916
 3361TIP3   OH231641   2.657   6.228   7.482 -0.3550 -0.3127 -0.1445
 3361TIP3    H131642   2.587   6.248   7.420 -0.9965  0.4384  0.7932
 3361TIP3    H231643   2.610   6.200   7.561  0.4506 -1.5900 -0.0975
 3362TIP3   OH231644   4.915   0.701   0.631 -0.1277  0.4192 -0.3195
 3362TIP3    H131645   4.946   0.673   0.545  0.7381  0.7356 -0.1228
 3362TIP3    H231646   4.936   0.794   0.635  2.4298 -0.1396  1.2976
 3363TIP3   OH231647   5.364   4.414   8.314 -0.6177 -0.4084  0.2814
 3363TIP3    H131648   5.435   4.471   8.342 -1.4782  1.5803 -1.3829
 3363TIP3    H231649   5.295   4.473   8.285 -1.9861 -2.2975 -0.5257
 3364TIP3   OH231650   4.822   1.554   1.032  0.3096 -0.2607  0.5529
 3364TIP3    H131651   4.786   1.625   1.086 -1.6770 -0.2533 -0.6885
 3364TIP3    H231652   4.907   1.587   1.003 -0.4137  1.5048  0.2872
 3365TIP3   OH231653   4.932   5.270   0.545 -0.4632  0.4524 -0.5958
 3365TIP3    H131654   4.881   5.193   0.568  1.9598 -0.8923  0.7058
 3365TIP3    H231655   4.868   5.332   0.509 -2.8812 -1.2248  0.5498
 3366TIP3   OH231656   0.280   3.506   2.322  0.3412  0.2538 -0.5648
 3366TIP3    H131657   0.226   3.501   2.401  3.6366  0.3067  1.8850
 3366TIP3    H231658   0.269   3.595   2.291  0.3566  0.7990  0.9243
 3367TIP3   OH231659   0.896   2.498   7.056 -0.2980  0.4748  0.4396
 3367TIP3    H131660   0.910   2.471   6.965 -0.2371  1.5307  0.1168
 3367TIP3    H231661   0.884   2.416   7.104 -0.7482 -0.0844 -0.5891
 3368TIP3   OH231662   4.205   0.470   8.147  0.2272 -0.0989 -0.4017
 3368TIP3    H131663   4.173   0.549   8.102  1.6629  0.5452 -0.3487
 3368TIP3    H231664   4.147   0.460   8.222 -0.2223  0.6635 -0.6323
 3369TIP3   OH231665   6.332   2.262   1.774  0.3625  0.0000  0.4087
 3369TIP3    H131666   6.361   2.353   1.776 -1.2099  0.5269  1.5145
 3369TIP3    H231667   6.411   2.211   1.791  1.3071  1.1229 -0.4134
 3370TIP3   OH231668   4.150   5.440   0.429 -0.0640  0.4626  0.8830
 3370TIP3    H131669   4.236   5.407   0.456  0.1353  0.0036 -0.2724
 3370TIP3    H231670   4.092   5.364   0.439  0.2099 -0.0167 -0.8829
 3371TIP3   OH231671   4.250   4.814   1.176 -0.1325 -0.0245 -0.4460
 3371TIP3    H131672   4.228   4.722   1.191 -0.4830  0.4556  2.4862
 3371TIP3    H231673   4.176   4.849   1.125  0.2002 -1.3933 -1.9573
 3372TIP3   OH231674   2.312   5.870   7.481 -0.8996 -0.1974  0.4075
 3372TIP3    H131675   2.255   5.831   7.415 -0.9922  0.7777 -0.1054
 3372TIP3    H231676   2.355   5.795   7.522 -0.8540 -0.8329 -0.7507
 3373TIP3   OH231677   6.449   2.434   8.418  0.0640  0.0925 -0.4857
 3373TIP3    H131678   6.374   2.480   8.458 -0.4250 -0.4078 -0.8095
 3373TIP3    H231679   6.472   2.367   8.483  0.3358  0.3430 -0.3183
 3374TIP3   OH231680   1.814   6.013   8.547 -0.4421  0.1757 -0.0917
 3374TIP3    H131681   1.901   6.039   8.518  0.8197 -1.9713  1.4813
 3374TIP3    H231682   1.785   6.084   8.603  1.0187  0.2288  0.6459
 3375TIP3   OH231683   0.158   4.143   8.615 -0.4069  0.2445  0.6894
 3375TIP3    H131684   0.235   4.196   8.635  0.3612  0.2558 -1.8741
 3375TIP3    H231685   0.084   4.195   8.647  0.3597  2.5960 -1.0640
 3376TIP3   OH231686   1.419   2.209   1.146  0.0506 -0.1666  0.0918
 3376TIP3    H131687   1.484   2.252   1.202 -0.1228 -0.2232  0.3397
 3376TIP3    H231688   1.341   2.203   1.201 -0.8898  1.8832 -0.9190
 3377TIP3   OH231689   5.452   5.602   8.207 -0.2735  0.0358  0.0259
 3377TIP3    H131690   5.451   5.678   8.266  2.5924  0.5183 -0.3626
 3377TIP3    H231691   5.488   5.637   8.126  1.1702 -1.7292 -0.1347
 3378TIP3   OH231692   0.305   6.847   7.146 -0.4651  0.0785 -0.0929
 3378TIP3    H131693   0.328   6.755   7.136 -0.7393  0.1798 -2.3216
 3378TIP3    H231694   0.225   6.846   7.199 -1.3327 -1.1343 -1.3300
 3379TIP3   OH231695   1.400   3.194   8.635 -0.4589 -0.2590  1.3673
 3379TIP3    H131696   1.495   3.200   8.629 -0.4189  0.3638  2.2776
 3379TIP3    H231697   1.380   3.102   8.619  0.2311 -0.2715  0.4963
 3380TIP3   OH231698   6.364   3.838   7.494  0.0579 -0.1086 -0.1386
 3380TIP3    H131699   6.384   3.762   7.549  1.2177  0.1273 -0.2006
 3380TIP3    H231700   6.404   3.817   7.410  2.3228  1.4399  0.4597
 3381TIP3   OH231701   5.419   4.402   6.571 -0.6042  0.1442 -0.0628
 3381TIP3    H131702   5.506   4.424   6.537 -0.8458 -1.8002 -2.1449
 3381TIP3    H231703   5.420   4.306   6.578 -3.0345 -0.0603 -1.5636
 3382TIP3   OH231704   5.418   6.605   8.002  0.2562 -0.1767 -0.7353
 3382TIP3    H131705   5.452   6.519   8.023  1.0542 -0.1863 -1.9677
 3382TIP3    H231706   5.479   6.666   8.042 -0.5157 -0.1517  0.4634
 3383TIP3   OH231707   1.782   4.760   6.797  0.2794 -0.0475 -0.0417
 3383TIP3    H131708   1.775   4.665   6.788 -0.0393 -0.1009  0.7188
 3383TIP3    H231709   1.758   4.794   6.710  0.6780 -0.6652 -0.3983
 3384TIP3   OH231710   3.520   5.589   7.391 -0.0031  0.4120 -0.3791
 3384TIP3    H131711   3.476   5.649   7.453  0.0869 -0.5157  0.6118
 3384TIP3    H231712   3.462   5.588   7.315 -1.6269 -0.5774  0.7912
 3385TIP3   OH231713   2.002   1.699   7.752 -0.4531  0.3448 -0.4575
 3385TIP3    H131714   2.022   1.606   7.756 -3.8621 -0.4490  1.5638
 3385TIP3    H231715   2.075   1.741   7.799 -0.4444 -1.6742  1.4830
 3386TIP3   OH231716   6.124   4.176   8.462  0.1686  0.3082 -0.2545
 3386TIP3    H131717   6.149   4.191   8.371  3.4815  1.1215  0.6699
 3386TIP3    H231718   6.076   4.093   8.461  2.1301 -0.8873 -2.4686
 3387TIP3   OH231719   4.289   6.506   7.863  0.1874 -0.0331 -0.3784
 3387TIP3    H131720   4.214   6.541   7.815  1.3874  1.7717 -1.0286
 3387TIP3    H231721   4.291   6.413   7.840 -1.8297 -0.1284 -0.3263
 3388TIP3   OH231722   3.424   0.438   7.616 -0.3213  0.7495  0.3282
 3388TIP3    H131723   3.511   0.432   7.575 -0.4279  0.6379  0.1149
 3388TIP3    H231724   3.441   0.442   7.710 -0.0947  0.5373  0.2949
 3389TIP3   OH231725   0.081   4.586   0.035  0.0302 -0.2730 -0.6615
 3389TIP3    H131726   0.140   4.514   0.058  0.6164 -0.1989 -1.8884
 3389TIP3    H231727   0.023   4.550  -0.032 -2.4747 -0.8563  1.6092
 3390TIP3   OH231728   2.968   0.328   6.902 -0.6443  0.3333 -0.3123
 3390TIP3    H131729   3.060   0.324   6.926 -0.1773 -0.9207 -2.0751
 3390TIP3    H231730   2.969   0.337   6.806 -2.3592  2.4079 -0.2029
 3391TIP3   OH231731   5.822   1.526   0.434 -0.2297  0.4976 -0.1713
 3391TIP3    H131732   5.877   1.456   0.467 -0.2873  0.9768  1.0026
 3391TIP3    H231733   5.746   1.482   0.396  1.0071 -0.1787 -1.9874
 3392TIP3   OH231734   5.624   2.532   1.377  0.5766 -0.2757 -0.2675
 3392TIP3    H131735   5.548   2.591   1.371  1.7296  1.4850  1.1818
 3392TIP3    H231736   5.662   2.532   1.289 -0.7377 -0.7090 -0.8620
 3393TIP3   OH231737   2.649   5.504   1.676 -0.4409  0.1640  0.2273
 3393TIP3    H131738   2.730   5.478   1.631 -1.5339 -1.0066 -1.1809
 3393TIP3    H231739   2.667   5.489   1.769  0.7888 -0.5639 -0.1065
 3394TIP3   OH231740   5.046   3.901   2.415 -0.2643 -0.2071 -0.2507
 3394TIP3    H131741   5.122   3.847   2.394 -0.5237 -0.0520 -1.7065
 3394TIP3    H231742   5.082   3.974   2.464  0.8496  0.7612 -2.3583
 3395TIP3   OH231743   5.382   0.451   8.474  0.3541 -0.0039 -0.2039
 3395TIP3    H131744   5.345   0.389   8.411 -0.6846  1.2612 -0.9044
 3395TIP3    H231745   5.305   0.493   8.513  1.0134 -0.0846  1.2139
 3396TIP3   OH231746   0.089   4.675   1.710  0.2207  0.6094 -0.3995
 3396TIP3    H131747   0.079   4.593   1.663  0.3826  0.9701 -1.0814
 3396TIP3    H231748   0.184   4.683   1.726  0.0535 -0.1584  1.2027
 3397TIP3   OH231749   1.807   2.571   7.737  0.0588  0.0014 -0.1912
 3397TIP3    H131750   1.866   2.603   7.805  2.8600 -3.0673 -0.9395
 3397TIP3    H231751   1.812   2.636   7.667  1.1276  0.6771  0.4922
 3398TIP3   OH231752   2.031   3.933   1.972 -0.4114  0.2530  0.2837
 3398TIP3    H131753   2.002   3.940   2.063  1.9139 -2.9644  1.4721
 3398TIP3    H231754   2.126   3.941   1.977 -0.0905 -1.5065 -1.5858
 3399TIP3   OH231755   4.476   2.520   0.126  0.1206  0.3027  0.2952
 3399TIP3    H131756   4.529   2.443   0.143  0.8535  0.3196 -1.6727
 3399TIP3    H231757   4.406   2.516   0.191  0.2394 -1.9056  0.3547
 3400TIP3   OH231758   0.349   2.185   1.333  0.6243 -0.1459  0.5785
 3400TIP3    H131759   0.305   2.116   1.283 -1.4206 -0.7331  2.9795
 3400TIP3    H231760   0.316   2.267   1.297  1.2535 -0.4716 -0.7610
 3401TIP3   OH231761   3.822   4.310   1.982  0.7221 -0.4980  0.1111
 3401TIP3    H131762   3.863   4.230   2.014 -0.4513 -1.4619 -0.7313
 3401TIP3    H231763   3.787   4.353   2.060 -0.0327 -1.6115  0.3984
 3402TIP3   OH231764   6.598   0.427   7.761 -0.0184 -0.5339 -0.6911
 3402TIP3    H131765   6.608   0.404   7.853 -0.3130 -0.5707 -0.6661
 3402TIP3    H231766   6.612   0.521   7.758 -0.5780 -0.4362 -0.5134
 3403TIP3   OH231767   0.302   2.178   8.177 -0.0371 -0.6872 -0.3496
 3403TIP3    H131768   0.299   2.270   8.149  0.8062 -0.4052  0.4352
 3403TIP3    H231769   0.339   2.132   8.102 -1.0382 -0.5008 -0.9829
 3404TIP3   OH231770   4.681   4.194   7.174  0.7050 -0.2188 -0.0668
 3404TIP3    H131771   4.660   4.201   7.081 -0.7952  0.7793  0.3212
 3404TIP3    H231772   4.679   4.284   7.206  0.6701 -0.6072  1.0547
 3405TIP3   OH231773   5.223   0.050   2.464  0.4566  0.3673  0.2658
 3405TIP3    H131774   5.157   0.072   2.530  1.7049  1.3898  1.2315
 3405TIP3    H231775   5.260   0.134   2.439  1.8587 -0.2258  0.2630
 3406TIP3   OH231776   2.613   6.606   0.351  0.1892 -0.3335  0.1708
 3406TIP3    H131777   2.625   6.701   0.348 -1.8063 -0.0006  0.8623
 3406TIP3    H231778   2.697   6.570   0.325  1.5882  1.5959  1.7203
 3407TIP3   OH231779   0.675   3.368   0.405  0.3000  0.2561  0.2628
 3407TIP3    H131780   0.608   3.302   0.388 -0.3201 -0.1498  3.6314
 3407TIP3    H231781   0.632   3.451   0.388 -0.1652 -0.0865 -0.2564
 3408TIP3   OH231782   5.743   5.299   8.542  0.1676  0.0357 -0.0650
 3408TIP3    H131783   5.663   5.293   8.594  0.0222 -0.1891 -0.3104
 3408TIP3    H231784   5.718   5.266   8.456  0.9739 -1.8722  0.3718
 3409TIP3   OH231785   3.642   3.668   8.186 -0.8192 -0.2168 -0.3092
 3409TIP3    H131786   3.591   3.655   8.266 -1.5011 -0.4369 -0.7601
 3409TIP3    H231787   3.732   3.681   8.215 -0.8005 -1.8054  0.4144
 3410TIP3   OH231788   2.508   5.318   1.524  0.3344 -0.2916  0.3591
 3410TIP3    H131789   2.550   5.376   1.588  0.2035 -1.1512  1.2371
 3410TIP3    H231790   2.423   5.298   1.562 -0.2454  0.1686 -0.6742
 3411TIP3   OH231791   1.645   1.203   8.104 -0.2692 -0.0546  0.2211
 3411TIP3    H131792   1.721   1.225   8.049  0.4881 -0.5008  1.0581
 3411TIP3    H231793   1.602   1.132   8.056  0.6041 -0.7034  0.3731
 3412TIP3   OH231794   3.106   1.998   1.401 -0.5083  0.5048  0.0494
 3412TIP3    H131795   3.075   2.056   1.470 -0.9222  0.4691 -0.1051
 3412TIP3    H231796   3.118   1.913   1.445  2.2197  1.1844  0.7991
 3413TIP3   OH231797   5.873   5.214   1.032 -0.0745 -0.2343  0.6449
 3413TIP3    H131798   5.952   5.237   0.982 -0.5478  0.5616  0.2414
 3413TIP3    H231799   5.866   5.119   1.023 -0.0706 -0.1327 -0.7186
 3414TIP3   OH231800   3.999   5.041   0.259  0.1240  0.0346 -0.2115
 3414TIP3    H131801   4.028   4.999   0.341 -0.4159 -0.8052 -0.4399
 3414TIP3    H231802   3.912   5.005   0.243 -0.5547  1.5763 -0.1965
 3415TIP3   OH231803   4.205   3.936   2.834  0.1988  0.1037  0.2819
 3415TIP3    H131804   4.228   4.028   2.823 -1.1290  0.5849  1.2401
 3415TIP3    H231805   4.288   3.889   2.825  0.7475  1.2705 -1.3355
 3416TIP3   OH231806   4.839   0.697   7.300  0.0983  0.0266 -0.5800
 3416TIP3    H131807   4.900   0.771   7.289  0.0965 -0.1157 -1.6568
 3416TIP3    H231808   4.892   0.628   7.339  0.2191  0.4288 -0.0088
 3417TIP3   OH231809   5.451   2.305   7.541  0.2814  0.9014  0.0519
 3417TIP3    H131810   5.386   2.245   7.577 -0.9546  2.3395  0.2962
 3417TIP3    H231811   5.516   2.315   7.611  0.5142 -0.1357 -0.0017
 3418TIP3   OH231812   2.266   3.344   1.175 -0.3879 -0.5784 -0.5801
 3418TIP3    H131813   2.234   3.254   1.167 -1.2838 -0.2477 -0.7891
 3418TIP3    H231814   2.358   3.334   1.198  0.6889 -1.5949 -4.5872
 3419TIP3   OH231815   5.607   3.863   1.629 -0.1589  0.6320  0.0457
 3419TIP3    H131816   5.608   3.884   1.722 -1.0806 -2.3375  0.8421
 3419TIP3    H231817   5.543   3.923   1.591 -1.4769  0.3962  1.7878
 3420TIP3   OH231818   5.428   0.946   7.831 -0.2769 -0.7049  0.0981
 3420TIP3    H131819   5.421   0.852   7.845 -1.9889 -0.7219 -0.5664
 3420TIP3    H231820   5.391   0.985   7.911  0.3943 -0.5824  0.3566
 3421TIP3   OH231821   4.500   3.601   1.596  0.1016  0.2758  0.6631
 3421TIP3    H131822   4.555   3.673   1.564  0.3564  0.4463  1.4439
 3421TIP3    H231823   4.414   3.641   1.610  0.1078  0.3066  0.6131
 3422TIP3   OH231824   1.641   4.016   1.097 -0.0637 -0.1424  0.0127
 3422TIP3    H131825   1.551   4.005   1.125  0.0739  0.1953  0.6029
 3422TIP3    H231826   1.644   4.104   1.060 -0.0394 -0.2591 -0.2677
 3423TIP3   OH231827   0.760   5.832   6.763 -0.0453  0.3512 -0.4376
 3423TIP3    H131828   0.728   5.838   6.853  0.9673  0.5705 -0.0733
 3423TIP3    H231829   0.709   5.898   6.716 -0.8959 -0.0742 -0.1238
 3424TIP3   OH231830   5.521   6.789   0.256 -0.3555 -0.3101  0.1709
 3424TIP3    H131831   5.600   6.812   0.306 -0.0865 -1.2993  0.2253
 3424TIP3    H231832   5.449   6.807   0.316 -0.1452  0.1921  0.2763
 3425TIP3   OH231833   3.389   5.292   1.154 -0.2702  0.0610 -0.4022
 3425TIP3    H131834   3.309   5.310   1.203  0.1255  1.2078 -0.1311
 3425TIP3    H231835   3.450   5.361   1.182  0.4532 -0.1475 -1.3986
 3426TIP3   OH231836   4.441   1.270   8.612  0.1598 -0.1834 -0.4327
 3426TIP3    H131837   4.382   1.198   8.587 -0.3165 -0.0585  0.3288
 3426TIP3    H231838   4.400   1.348   8.576  0.4376 -0.2239 -0.8528
 3427TIP3   OH231839   3.316   2.246   0.771  0.0773  0.0632 -0.2087
 3427TIP3    H131840   3.367   2.280   0.697 -1.0450  1.5561 -0.3559
 3427TIP3    H231841   3.247   2.194   0.730  1.3406 -1.8444 -0.0161
 3428TIP3   OH231842   5.205   4.363   2.457  0.8010 -0.8388  0.3198
 3428TIP3    H131843   5.136   4.418   2.494 -0.0336 -1.9891  0.5500
 3428TIP3    H231844   5.255   4.421   2.400  1.1869  0.6359  2.0566
 3429TIP3   OH231845   1.985   1.563   1.124 -0.7005 -0.4722  0.2008
 3429TIP3    H131846   2.011   1.481   1.083  0.1777 -1.5898  2.8089
 3429TIP3    H231847   1.893   1.574   1.100  0.0603 -0.3221 -3.0563
 3430TIP3   OH231848   5.410   4.037   7.387 -0.0452 -0.5416  0.4950
 3430TIP3    H131849   5.440   4.125   7.409 -1.4689  0.4115 -1.1651
 3430TIP3    H231850   5.315   4.045   7.379 -0.1513 -2.1281 -0.1415
 3431TIP3   OH231851   5.896   3.506   2.551 -0.2229 -0.3406  0.1737
 3431TIP3    H131852   5.938   3.457   2.621  1.7501 -1.3507 -1.5923
 3431TIP3    H231853   5.964   3.516   2.484 -2.0025  0.5338 -1.6247
 3432TIP3   OH231854   3.721   2.459   1.794  0.0710 -0.8711  0.6085
 3432TIP3    H131855   3.786   2.526   1.772 -2.2704  1.5668  0.4765
 3432TIP3    H231856   3.686   2.487   1.879 -3.4744  0.3507 -1.0265
 3433TIP3   OH231857   6.145   3.203   8.100 -0.2867 -0.0249 -0.1672
 3433TIP3    H131858   6.169   3.112   8.083  0.6866 -0.5337  3.2101
 3433TIP3    H231859   6.050   3.201   8.109 -0.2654 -0.7254 -0.0223
 3434TIP3   OH231860   0.808   0.603   1.255  0.1044 -0.5804 -0.0199
 3434TIP3    H131861   0.766   0.676   1.300  1.1132  0.1106 -0.1591
 3434TIP3    H231862   0.880   0.577   1.313  1.8521  0.7677 -1.4597
 3435TIP3   OH231863   4.884   5.260   1.019  0.0330  0.0123 -0.2676
 3435TIP3    H131864   4.943   5.283   0.948  0.4440 -0.8444 -0.2184
 3435TIP3    H231865   4.941   5.248   1.095 -0.3490  0.4456  0.0937
 3436TIP3   OH231866   0.807   4.354   1.852  0.0339  0.5665  0.1315
 3436TIP3    H131867   0.858   4.354   1.771  1.8272 -3.3110  1.0333
 3436TIP3    H231868   0.873   4.355   1.922 -1.3078  0.0720  1.4494
 3437TIP3   OH231869   1.854   3.418   0.835  0.4549 -0.5034 -0.2414
 3437TIP3    H131870   1.887   3.332   0.810  1.1363 -0.2557 -0.2321
 3437TIP3    H231871   1.870   3.472   0.757  2.2513  0.1869  0.5496
 3438TIP3   OH231872   3.321   2.129   7.065 -0.2909  0.0022 -0.0862
 3438TIP3    H131873   3.381   2.148   6.992  0.8518 -0.0094  0.8269
 3438TIP3    H231874   3.287   2.215   7.090 -0.4736  0.0386 -0.4488
 3439TIP3   OH231875   0.316   3.822   0.395  0.2741  0.4370  0.2020
 3439TIP3    H131876   0.332   3.766   0.470  0.2104 -1.2329 -0.9687
 3439TIP3    H231877   0.396   3.874   0.386  0.6486 -0.0188  0.8568
 3440TIP3   OH231878   2.886   4.869   6.632  0.3672 -0.1983 -0.2437
 3440TIP3    H131879   2.823   4.881   6.703  0.5547  2.0818 -0.3724
 3440TIP3    H231880   2.951   4.938   6.647  1.5077 -0.9667 -1.4914
 3441TIP3   OH231881   0.168   5.485   1.928 -0.0714  0.1770 -0.8217
 3441TIP3    H131882   0.198   5.400   1.959  1.2104  0.5812 -0.8981
 3441TIP3    H231883   0.099   5.510   1.990 -1.9268 -1.7658 -1.9357
 3442TIP3   OH231884   5.521   6.788   2.648  0.0471  0.5715  0.2219
 3442TIP3    H131885   5.599   6.737   2.670  0.1632  0.7295  0.1823
 3442TIP3    H231886   5.515   6.782   2.553 -0.2555  0.1757  0.2644
 3443TIP3   OH231887   5.212   0.559   0.397 -0.0306 -0.1420  0.5440
 3443TIP3    H131888   5.272   0.533   0.327 -0.4980  0.6484 -0.1741
 3443TIP3    H231889   5.184   0.647   0.372 -1.0900 -0.3039  1.1348
 3444TIP3   OH231890   1.498   1.928   0.786  0.5780  0.4018  0.5668
 3444TIP3    H131891   1.456   1.999   0.738  0.4155  0.2446  0.4758
 3444TIP3    H231892   1.468   1.939   0.876  1.2624  0.9864  0.7389
 3445TIP3   OH231893   1.976   4.499   7.977 -0.0785 -0.3575  0.5379
 3445TIP3    H131894   1.967   4.466   7.887  2.2830 -0.3464  0.2299
 3445TIP3    H231895   1.897   4.552   7.991 -0.3660 -0.1174 -1.6327
 3446TIP3   OH231896   2.766   2.109   6.758  0.1866 -0.8070 -0.3927
 3446TIP3    H131897   2.848   2.090   6.712 -0.4089 -1.3994 -1.2285
 3446TIP3    H231898   2.712   2.155   6.694  0.5612  1.3376  0.7547
 3447TIP3   OH231899   5.831   5.214   8.043  0.6048  0.4933  0.2720
 3447TIP3    H131900   5.781   5.149   8.093  0.6639 -0.9083 -1.3773
 3447TIP3    H231901   5.783   5.296   8.054 -1.2964 -0.5113 -0.1350
 3448TIP3   OH231902   3.912   3.691   6.833  0.6025  0.1514 -0.1609
 3448TIP3    H131903   3.893   3.599   6.814 -0.9468  0.3553  0.3297
 3448TIP3    H231904   3.837   3.739   6.798  1.3912  1.2462 -0.4060
 3449TIP3   OH231905   3.216   3.609   2.377 -0.2446  0.1329 -0.4171
 3449TIP3    H131906   3.258   3.526   2.354 -2.1094 -1.0659  0.3161
 3449TIP3    H231907   3.252   3.631   2.463  0.4738  0.2690 -0.7395
 3450TIP3   OH231908   4.952   1.223   8.157  0.0960 -0.6851  0.9296
 3450TIP3    H131909   4.929   1.300   8.106  2.4522 -1.4094 -1.4685
 3450TIP3    H231910   4.983   1.257   8.240  0.0743  0.8656  0.3358
 3451TIP3   OH231911   5.338   1.022   7.078 -0.1096 -0.4917 -0.0936
 3451TIP3    H131912   5.419   0.987   7.115 -0.0199 -0.3932 -0.1951
 3451TIP3    H231913   5.308   0.954   7.018 -0.1455 -0.5634  0.0066
 3452TIP3   OH231914   1.968   1.997   8.358 -0.5178  0.7888  0.2353
 3452TIP3    H131915   1.877   2.005   8.387 -0.3973  1.6639  0.3834
 3452TIP3    H231916   1.961   1.956   8.272 -1.0589  0.8629  0.2359
 3453TIP3   OH231917   6.182   1.702   1.513 -0.5049 -0.8845 -0.0011
 3453TIP3    H131918   6.101   1.660   1.482 -1.0987 -0.5922  1.1091
 3453TIP3    H231919   6.188   1.679   1.605  0.5243 -0.6400  0.0053
 3454TIP3   OH231920   2.543   1.363   1.944 -0.1654 -0.0424 -0.1353
 3454TIP3    H131921   2.551   1.411   2.026  1.6782  0.2961 -0.4798
 3454TIP3    H231922   2.630   1.327   1.928 -1.1025 -2.2250 -0.6881
 3455TIP3   OH231923   4.886   4.396   1.272 -0.2082  0.1097 -0.0727
 3455TIP3    H131924   4.872   4.479   1.227 -0.3769  1.5197  2.4038
 3455TIP3    H231925   4.943   4.418   1.346  0.1980 -2.1068  0.3627
 3456TIP3   OH231926   3.300   4.896   0.331  0.2533 -0.7851  0.0606
 3456TIP3    H131927   3.338   4.850   0.406  0.7518 -0.2133  0.1589
 3456TIP3    H231928   3.287   4.986   0.361  2.0479 -0.1014 -1.0618
 3457TIP3   OH231929   4.913   4.022   0.139  0.7974 -0.2080  0.1137
 3457TIP3    H131930   5.008   4.023   0.126  0.8876 -0.7389  0.6679
 3457TIP3    H231931   4.900   3.965   0.215  0.1517  1.1094  1.0291
 3458TIP3   OH231932   2.101   3.584   7.776 -0.1041 -0.3496 -0.4950
 3458TIP3    H131933   2.015   3.571   7.735 -0.3386  1.9812 -0.8801
 3458TIP3    H231934   2.163   3.571   7.705 -0.2342 -0.4286 -0.5949
 3459TIP3   OH231935   4.415   4.931   1.403 -0.2934 -0.1962 -0.1735
 3459TIP3    H131936   4.437   4.928   1.496 -0.2261 -2.4483 -0.2096
 3459TIP3    H231937   4.320   4.941   1.401 -0.3337 -0.5048  0.1428
 3460TIP3   OH231938   1.143   0.609   7.010  0.3486 -0.0794  0.1247
 3460TIP3    H131939   1.066   0.666   7.002  1.1176  1.1093  0.9667
 3460TIP3    H231940   1.182   0.609   6.922 -0.0768  0.0804 -0.0679
 3461TIP3   OH231941   6.282   4.131   1.929  0.0927 -0.2602 -0.1206
 3461TIP3    H131942   6.232   4.175   1.860  0.7960 -0.0793 -0.5217
 3461TIP3    H231943   6.364   4.180   1.935 -0.4338  0.4867  1.6914
 3462TIP3   OH231944   3.199   1.955   0.579 -0.3526  0.2272 -0.2483
 3462TIP3    H131945   3.137   1.921   0.514 -1.4136  1.5149  0.0414
 3462TIP3    H231946   3.248   1.878   0.607 -1.7280 -0.8336 -0.5811
 3463TIP3   OH231947   5.640   1.662   7.692 -0.0238 -0.0694 -0.1410
 3463TIP3    H131948   5.680   1.716   7.761 -0.6656  0.3670 -0.1092
 3463TIP3    H231949   5.641   1.717   7.614  1.2889 -0.7881 -0.6726
 3464TIP3   OH231950   1.996   1.884   0.193  0.6091 -0.2319  0.1738
 3464TIP3    H131951   2.076   1.902   0.242  0.4707  1.4787 -0.1789
 3464TIP3    H231952   2.018   1.905   0.102 -0.8370  2.5003  0.3627
 3465TIP3   OH231953   0.812   3.855   0.954 -0.0502 -0.3784  0.2262
 3465TIP3    H131954   0.871   3.790   0.916  1.3833  0.4525  0.9611
 3465TIP3    H231955   0.773   3.810   1.029 -0.6518 -1.0453 -0.4675
 3466TIP3   OH231956   4.815   5.961   6.486  0.1506 -0.0951 -0.1381
 3466TIP3    H131957   4.808   5.994   6.397 -2.7470 -1.0782 -0.3875
 3466TIP3    H231958   4.810   5.866   6.477  1.5604 -0.3099  0.9922
 3467TIP3   OH231959   1.863   5.336   8.367  0.3015  0.1105 -0.3875
 3467TIP3    H131960   1.889   5.262   8.313 -0.5778 -0.5427  0.0565
 3467TIP3    H231961   1.772   5.318   8.391 -0.0645  1.5294 -0.5980
 3468TIP3   OH231962   5.018   3.908   1.025  0.3030  0.4312  0.2372
 3468TIP3    H131963   5.043   3.866   1.108  0.5740 -0.1763 -0.1431
 3468TIP3    H231964   4.930   3.941   1.041 -0.1188 -0.7185  0.4113
 3469TIP3   OH231965   2.451   6.635   1.331  0.2213  0.2488 -0.1678
 3469TIP3    H131966   2.405   6.634   1.416 -0.8000  2.8868 -0.6105
 3469TIP3    H231967   2.386   6.669   1.270  0.6851 -2.3138 -2.2509
 3470TIP3   OH231968   1.454   1.020   2.370  0.0495  0.4407 -0.0421
 3470TIP3    H131969   1.360   1.005   2.358 -0.1924  2.6077 -1.2214
 3470TIP3    H231970   1.495   0.957   2.311 -0.5622 -1.3705  1.3674
 3471TIP3   OH231971   1.279   1.483   6.453 -0.3407  0.2713  0.4824
 3471TIP3    H131972   1.331   1.554   6.415 -0.6296  1.2210  1.7802
 3471TIP3    H231973   1.332   1.405   6.442  1.5057  1.2463  1.9875
 3472TIP3   OH231974   5.360   4.013   1.680 -0.1412 -0.4068 -0.5431
 3472TIP3    H131975   5.447   4.042   1.707 -0.4228  1.2931 -1.3444
 3472TIP3    H231976   5.300   4.058   1.740 -0.5273 -0.8162 -0.6119
 3473TIP3   OH231977   6.069   1.616   0.049 -0.0613 -0.2858  0.1070
 3473TIP3    H131978   6.130   1.551   0.084 -0.2021 -0.2399  0.4315
 3473TIP3    H231979   6.122   1.695   0.038  0.0135 -0.3383  0.0908
 3474TIP3   OH231980   2.309   5.190   0.784 -0.2889  0.1893 -0.9157
 3474TIP3    H131981   2.291   5.281   0.761 -1.5698  0.1178 -0.3040
 3474TIP3    H231982   2.374   5.161   0.721  1.7283  2.1329  0.1253
 3475TIP3   OH231983   1.701   4.026   1.509  0.3977 -0.0817 -0.1065
 3475TIP3    H131984   1.635   3.972   1.554 -0.4955  0.4497 -0.7396
 3475TIP3    H231985   1.756   3.962   1.464 -1.0724 -0.4922 -1.4280
 3476TIP3   OH231986   3.968   0.444   8.350  0.6639 -0.0047 -0.6966
 3476TIP3    H131987   3.916   0.411   8.277  0.6266 -1.0075 -0.2381
 3476TIP3    H231988   3.911   0.510   8.391  0.2491 -0.2164 -0.9219
 3477TIP3   OH231989   0.674   2.048   8.412  0.0720 -0.7062 -0.4063
 3477TIP3    H131990   0.716   1.986   8.352  0.0087 -0.1697 -1.0169
 3477TIP3    H231991   0.747   2.083   8.464  0.0976 -1.3384 -0.0122
 3478TIP3   OH231992   1.821   4.552   0.158  0.0918 -0.1834 -0.1333
 3478TIP3    H131993   1.779   4.493   0.095  0.2536 -0.9154  0.4276
 3478TIP3    H231994   1.763   4.551   0.234  0.7909 -0.7154  0.4085
 3479TIP3   OH231995   3.540   3.578   1.309  0.0040 -0.0805 -0.1961
 3479TIP3    H131996   3.475   3.571   1.378  0.2185 -0.6115 -0.0428
 3479TIP3    H231997   3.501   3.638   1.245  0.4895  1.7347  1.1318
 3480TIP3   OH231998   6.578   4.186   1.423 -0.3576  0.1844 -0.1373
 3480TIP3    H131999   6.547   4.258   1.367  0.0587  0.1947 -0.3598
 3480TIP3    H232000   6.499   4.139   1.447 -0.5373  0.1111 -0.8419
 3481TIP3   OH232001   4.570   4.122   7.495  0.5746 -0.1099  0.2582
 3481TIP3    H132002   4.638   4.189   7.498  1.9364 -1.4587  0.5640
 3481TIP3    H232003   4.568   4.086   7.584  1.3149 -1.8360 -0.3784
 3482TIP3   OH232004   4.408   2.985   8.413  0.3077 -0.1672 -0.0409
 3482TIP3    H132005   4.372   3.074   8.404  1.0287  0.0604 -0.8537
 3482TIP3    H232006   4.467   2.976   8.338  0.0011 -1.4582 -0.1388
 3483TIP3   OH232007   2.115   1.699   7.209 -0.6198  0.3199 -0.6281
 3483TIP3    H132008   2.202   1.738   7.198  0.1524 -1.2875 -0.4504
 3483TIP3    H232009   2.098   1.705   7.303  0.6044 -1.8911 -0.1782
 3484TIP3   OH232010   5.472   3.945   8.204  0.1028  0.0873 -0.1100
 3484TIP3    H132011   5.422   3.866   8.183  1.7135 -0.4693 -2.2118
 3484TIP3    H232012   5.462   4.000   8.126  0.2306  1.3387  0.7223
 3485TIP3   OH232013   1.949   6.462   0.607 -0.2421 -0.0153 -0.5035
 3485TIP3    H132014   2.023   6.411   0.640 -0.2776 -0.5184 -1.1899
 3485TIP3    H232015   1.872   6.409   0.628 -0.2421 -0.5181 -1.6745
 3486TIP3   OH232016   1.303   4.216   7.016  0.0083  0.2957 -0.2878
 3486TIP3    H132017   1.287   4.141   6.959 -0.5713 -0.9505  1.4004
 3486TIP3    H232018   1.216   4.253   7.031 -0.2363 -0.8937  1.6478
 3487TIP3   OH232019   2.466   6.256   8.243 -0.1519  0.3078 -0.2387
 3487TIP3    H132020   2.556   6.276   8.265 -0.0148 -0.1253 -0.3937
 3487TIP3    H232021   2.449   6.305   8.162 -0.7653  2.1814  0.9560
 3488TIP3   OH232022   0.868   6.685   7.545  0.1799 -0.2398  0.5916
 3488TIP3    H132023   0.832   6.763   7.502 -1.0932 -1.5837 -0.8686
 3488TIP3    H232024   0.840   6.693   7.636 -0.2424  0.8084  0.3890
 3489TIP3   OH232025   4.266   2.376   0.347  0.4380 -0.0461  0.5588
 3489TIP3    H132026   4.282   2.408   0.436  1.5030 -1.0256  0.7368
 3489TIP3    H232027   4.178   2.407   0.326  0.8259  1.6411  1.2985
 3490TIP3   OH232028   1.388   1.959   1.045  0.9540 -0.2156 -0.0339
 3490TIP3    H132029   1.378   1.895   1.115  0.3069  0.6512  0.6972
 3490TIP3    H232030   1.386   2.044   1.090  2.7313  0.3109 -0.8678
 3491TIP3   OH232031   3.013   1.679   1.207  0.2343 -0.5097  0.6290
 3491TIP3    H132032   2.987   1.753   1.262  0.7228 -0.5435  0.9108
 3491TIP3    H232033   2.933   1.630   1.192 -0.6535  1.4030 -1.6030
 3492TIP3   OH232034   3.365   2.690   0.218 -0.2703  0.0043 -0.7933
 3492TIP3    H132035   3.347   2.783   0.234  0.3402 -0.1040  0.6673
 3492TIP3    H232036   3.320   2.644   0.288 -1.3345 -0.8981 -2.0336
 3493TIP3   OH232037   6.445   2.154   7.436 -0.4781 -0.2750  0.2504
 3493TIP3    H132038   6.521   2.155   7.493 -0.0917 -3.0401 -0.1156
 3493TIP3    H232039   6.480   2.146   7.348 -1.1717 -0.7039  0.0046
 3494TIP3   OH232040   0.395   3.748   0.661 -0.5983  0.1566  0.2510
 3494TIP3    H132041   0.303   3.735   0.684 -0.0520 -1.6701  1.7277
 3494TIP3    H232042   0.442   3.728   0.742  1.0825  1.8872 -0.2312
 3495TIP3   OH232043   5.747   4.609   6.843 -0.0335  0.4096  0.2821
 3495TIP3    H132044   5.751   4.545   6.772  0.8132 -0.0833  0.7486
 3495TIP3    H232045   5.788   4.688   6.808 -0.2121  0.3796  0.0099
 3496TIP3   OH232046   5.861   6.257   1.307  0.1072  0.2378  0.3358
 3496TIP3    H132047   5.856   6.345   1.271 -1.7537  0.6278  1.4637
 3496TIP3    H232048   5.779   6.215   1.282  0.5026 -0.8309  0.7350
 3497TIP3   OH232049   5.354   2.305   0.126 -0.7679  0.3222 -0.7961
 3497TIP3    H132050   5.421   2.237   0.127  0.1815  1.2279  0.1556
 3497TIP3    H232051   5.397   2.381   0.086 -1.4371  0.7285 -0.7656
 3498TIP3   OH232052   6.586   5.641   0.744  0.1346 -0.0169  0.0054
 3498TIP3    H132053   6.664   5.680   0.784  0.3676 -0.6621  0.1909
 3498TIP3    H232054   6.545   5.714   0.697 -0.5081  0.9288  1.9126
 3499TIP3   OH232055   6.418   4.300   1.235  0.2586  0.3779  0.2454
 3499TIP3    H132056   6.349   4.350   1.278 -0.3891  1.4610 -1.9036
 3499TIP3    H232057   6.475   4.367   1.197  0.9788 -0.5212 -0.2826
 3500TIP3   OH232058   2.942   0.192   8.367  0.0304  0.1277  0.1137
 3500TIP3    H132059   2.890   0.168   8.444  0.6409  0.4645  0.6365
 3500TIP3    H232060   2.920   0.125   8.301 -1.0510  0.2568  0.3234
 3501TIP3   OH232061   0.157   1.409   8.497  0.0911 -0.2524 -0.2304
 3501TIP3    H132062   0.120   1.323   8.477 -0.1762  0.2047 -1.7855
 3501TIP3    H232063   0.094   1.472   8.462  0.6057  0.5823  0.2930
 3502TIP3   OH232064   5.138   3.720   0.328  0.0788  0.7755 -0.1413
 3502TIP3    H132065   5.138   3.629   0.356 -1.7520 -0.1650 -2.7771
 3502TIP3    H232066   5.046   3.747   0.331  0.2808  1.7638 -1.5118
 3503TIP3   OH232067   2.239   3.585   7.075  0.0443 -0.1547 -0.2096
 3503TIP3    H132068   2.206   3.523   7.140  1.7948  0.7354  1.6447
 3503TIP3    H232069   2.277   3.530   7.006  0.8721 -1.1855  1.0161
 3504TIP3   OH232070   0.576   0.760   1.236 -0.2111  0.1012  0.0589
 3504TIP3    H132071   0.587   0.670   1.206  0.6681  0.2236 -0.0052
 3504TIP3    H232072   0.521   0.801   1.169  3.0183  0.8295 -2.4204
 3505TIP3   OH232073   5.843   2.333   0.931 -0.0275  0.2990 -0.6432
 3505TIP3    H132074   5.855   2.313   0.839  0.9122 -0.6703 -0.3332
 3505TIP3    H232075   5.927   2.312   0.971 -1.1298 -1.6728  0.8226
 3506TIP3   OH232076   1.090   2.560   1.999 -0.2937  0.8356 -0.1502
 3506TIP3    H132077   1.006   2.604   1.988  1.0717  3.6451 -0.2116
 3506TIP3    H232078   1.115   2.534   1.910 -1.3075 -0.5413 -0.0603
 3507TIP3   OH232079   4.350   1.883   6.904 -0.4655  0.6825  0.1079
 3507TIP3    H132080   4.347   1.895   6.809  0.5330  2.0395  0.2329
 3507TIP3    H232081   4.300   1.956   6.940 -0.1076  0.6594  0.6684
 3508TIP3   OH232082   4.559   6.353   7.509 -0.3626  0.2222 -0.7350
 3508TIP3    H132083   4.581   6.328   7.419  3.4041 -0.0207  0.0707
 3508TIP3    H232084   4.514   6.276   7.545 -0.4862 -0.2987 -1.9601
 3509TIP3   OH232085   6.781   0.036   0.425 -0.2379  0.2139  0.3698
 3509TIP3    H132086   6.741   0.122   0.437 -0.3523  0.3144 -0.6788
 3509TIP3    H232087   6.836   0.025   0.503  0.2765  1.5177  0.2262
 3510TIP3   OH232088   1.343   6.756   7.259 -0.2181 -0.1269  0.3383
 3510TIP3    H132089   1.356   6.693   7.331 -1.6380 -0.2568  0.5175
 3510TIP3    H232090   1.257   6.733   7.223 -0.7468  1.6802  0.3790
 3511TIP3   OH232091   2.888   0.023   8.160  0.0987 -0.0578 -0.0701
 3511TIP3    H132092   2.903   0.102   8.109  0.5859 -0.0522  0.0740
 3511TIP3    H232093   2.970  -0.027   8.153  0.2905  0.0788  0.9267
 3512TIP3   OH232094   2.671   3.301   2.422 -0.6243 -0.2332  0.4790
 3512TIP3    H132095   2.687   3.337   2.509  0.7032  0.1339  0.1065
 3512TIP3    H232096   2.629   3.216   2.439  0.6390 -0.6985  1.5340
 3513TIP3   OH232097   2.757   5.990   7.420 -0.1307 -0.4366  0.4528
 3513TIP3    H132098   2.720   6.073   7.451  0.4671 -0.4582  1.2315
 3513TIP3    H232099   2.723   5.924   7.480 -2.1773 -1.0878 -1.2737
 3514TIP3   OH232100   0.431   1.738   6.418  0.5874 -0.1639  0.3332
 3514TIP3    H132101   0.487   1.801   6.464  0.2099  1.2511 -1.0412
 3514TIP3    H232102   0.474   1.726   6.333 -0.6785  0.2660 -0.4077
 3515TIP3   OH232103   4.907   2.512   1.416 -0.3900  0.0108 -0.1430
 3515TIP3    H132104   4.886   2.605   1.421 -0.7758 -0.0081 -1.3531
 3515TIP3    H232105   4.841   2.474   1.359  1.2911 -0.5130 -1.8697
 3516TIP3   OH232106   1.724   0.351   1.768  0.0272  0.9357  0.7630
 3516TIP3    H132107   1.781   0.355   1.845  0.1639 -1.0363  0.8045
 3516TIP3    H232108   1.783   0.350   1.693 -0.0487  1.0501  0.6994
 3517TIP3   OH232109   0.181   1.906   6.284  0.0591 -0.0612  0.2799
 3517TIP3    H132110   0.133   1.823   6.293  0.4670 -0.1496  1.9941
 3517TIP3    H232111   0.140   1.949   6.209  0.8654 -2.4776 -1.6671
 3518TIP3   OH232112   4.115   4.664   0.410 -0.2497  0.1482 -0.9142
 3518TIP3    H132113   4.114   4.755   0.438 -0.1540 -0.1291  0.0080
 3518TIP3    H232114   4.199   4.630   0.440 -1.9640 -1.4137  2.6562
 3519TIP3   OH232115   4.998   1.982   2.324  0.5022 -0.1950  0.4146
 3519TIP3    H132116   4.964   2.068   2.347 -1.4369 -0.8009 -0.0324
 3519TIP3    H232117   5.094   1.993   2.324  0.3708  1.3965  2.4187
 3520TIP3   OH232118   3.441   5.500   1.708  0.4921  0.5347  0.3175
 3520TIP3    H132119   3.384   5.423   1.704  0.2285  0.5963  1.9988
 3520TIP3    H232120   3.387   5.568   1.747  1.2011  1.0927  0.3554
 3521TIP3   OH232121   0.644   3.670   0.540 -0.1334  0.1994  0.1010
 3521TIP3    H132122   0.608   3.664   0.452  0.6057  0.6753 -0.2484
 3521TIP3    H232123   0.569   3.690   0.596 -0.3917  1.3919 -0.6293
 3522TIP3   OH232124   3.172   5.295   7.858 -0.1762  0.5030  0.4911
 3522TIP3    H132125   3.266   5.315   7.852 -0.0451  0.8385  2.7856
 3522TIP3    H232126   3.168   5.212   7.906 -1.0296 -0.2207 -0.7898
 3523TIP3   OH232127   3.301   4.553   6.406 -0.1575 -0.0010  0.0815
 3523TIP3    H132128   3.376   4.508   6.445  0.8273 -0.8162 -2.5298
 3523TIP3    H232129   3.235   4.484   6.394 -1.0308  0.5411  1.5852
 3524TIP3   OH232130   2.826   4.382   1.565  0.4513 -0.0054 -0.3930
 3524TIP3    H132131   2.825   4.454   1.628  0.5359  0.8715 -1.3479
 3524TIP3    H232132   2.824   4.426   1.479 -0.3783 -1.1695 -0.9976
 3525TIP3   OH232133   2.167   1.462   6.894  0.2622 -0.6548  0.3958
 3525TIP3    H132134   2.137   1.517   6.821  1.3652 -0.7755 -0.1690
 3525TIP3    H232135   2.102   1.392   6.899 -1.0019  0.5159  0.9339
 3526TIP3   OH232136   1.574   3.220   1.264 -0.0938 -0.6321 -0.8398
 3526TIP3    H132137   1.559   3.215   1.359 -1.3405 -1.0682 -1.0442
 3526TIP3    H232138   1.668   3.204   1.254  0.2414  0.3811  0.3896
 3527TIP3   OH232139   5.008   2.713   8.626 -0.5492 -0.6855 -0.1795
 3527TIP3    H132140   5.098   2.739   8.644 -0.4655 -0.3062 -1.0532
 3527TIP3    H232141   5.002   2.622   8.654 -0.1927 -0.4074  0.8323
 3528TIP3   OH232142   1.821   6.354   1.135 -0.3698  0.4792  0.5242
 3528TIP3    H132143   1.778   6.357   1.220 -1.5455 -0.7935 -0.0006
 3528TIP3    H232144   1.791   6.433   1.091 -0.0044  0.9820  1.1540
 3529TIP3   OH232145   4.130   2.060   0.443 -0.1576  0.1247  0.1649
 3529TIP3    H132146   4.207   2.014   0.408  0.2194  0.8846 -0.0272
 3529TIP3    H232147   4.166   2.118   0.510 -0.3424  1.5672 -0.9358
 3530TIP3   OH232148   5.644   4.161   1.654  0.1317  0.2030 -0.2424
 3530TIP3    H132149   5.727   4.132   1.617  0.7940  1.6502  0.0594
 3530TIP3    H232150   5.665   4.187   1.743 -1.4523 -3.3070  1.3203
 3531TIP3   OH232151   3.828   3.626   0.114  0.1959  0.2446 -0.5178
 3531TIP3    H132152   3.827   3.690   0.042  0.7554  0.0211 -0.7252
 3531TIP3    H232153   3.910   3.642   0.160  0.9173 -1.1118 -1.2901
 3532TIP3   OH232154   6.247   0.027   7.920  0.5053  0.4583 -0.4235
 3532TIP3    H132155   6.321   0.024   7.860  1.3919  1.3892  0.5770
 3532TIP3    H232156   6.208   0.113   7.906  0.6659  0.6500  0.2538
 3533TIP3   OH232157   1.003   0.920   7.282 -0.1761 -0.6578  0.5843
 3533TIP3    H132158   0.935   0.857   7.305  0.3250 -0.8209  1.6726
 3533TIP3    H232159   0.973   0.959   7.199 -1.3388 -1.0805  0.7925
 3534TIP3   OH232160   6.299   6.354   0.455 -0.4332  0.0848 -0.3487
 3534TIP3    H132161   6.219   6.303   0.470  0.7907 -1.5389  1.0886
 3534TIP3    H232162   6.291   6.428   0.515 -0.9807  0.0579 -0.3824
 3535TIP3   OH232163   2.436   0.059   6.612  0.1417 -0.3380  0.3372
 3535TIP3    H132164   2.519   0.036   6.571  1.5841  0.1125  2.7762
 3535TIP3    H232165   2.371   0.002   6.570  1.6301 -0.6267 -1.7164
 3536TIP3   OH232166   6.578   6.131   7.797 -0.3113  0.1711 -0.0438
 3536TIP3    H132167   6.580   6.132   7.893  0.0433  0.8939 -0.0524
 3536TIP3    H232168   6.509   6.194   7.774 -0.3001  0.1023 -0.2676
 3537TIP3   OH232169   4.014   3.121   0.867  0.0550 -0.1560 -0.2099
 3537TIP3    H132170   3.923   3.109   0.841 -1.0905  0.1329  3.2008
 3537TIP3    H232171   4.037   3.039   0.910  0.7859  0.4300  0.5462
 3538TIP3   OH232172   3.871   4.401   2.602  0.0040  0.3399 -0.4094
 3538TIP3    H132173   3.883   4.468   2.670  0.4799  0.9769 -1.0955
 3538TIP3    H232174   3.792   4.427   2.556  0.8244  1.1375 -1.4295
 3539TIP3   OH232175   1.355   3.346   0.691 -0.5721  0.2376  0.1275
 3539TIP3    H132176   1.279   3.394   0.721 -1.0733 -1.2329  1.3190
 3539TIP3    H232177   1.395   3.311   0.770  0.5370 -0.1964 -0.5926
 3540TIP3   OH232178   0.228   6.502   0.254  0.4622  0.2167  0.6112
 3540TIP3    H132179   0.303   6.555   0.230  1.0948 -1.2807 -0.9271
 3540TIP3    H232180   0.188   6.477   0.170 -1.1594  0.1449  1.3595
 3541TIP3   OH232181   6.015   6.044   6.239 -0.9893  0.6487  0.4773
 3541TIP3    H132182   6.096   6.048   6.188  0.6801  1.6575  3.0246
 3541TIP3    H232183   5.984   6.135   6.244 -2.8594  0.1847 -1.1880
 3542TIP3   OH232184   0.583   2.659   2.135  0.8308 -0.3683  0.0501
 3542TIP3    H132185   0.607   2.574   2.171  1.4803 -1.0197 -1.8005
 3542TIP3    H232186   0.661   2.713   2.146  1.3919 -0.8762 -1.2080
 3543TIP3   OH232187   3.429   4.580   6.958 -0.1710 -0.5181 -0.3615
 3543TIP3    H132188   3.385   4.616   6.882 -0.2657  0.8922  0.3423
 3543TIP3    H232189   3.368   4.593   7.031  1.3798  1.6118  0.6587
 3544TIP3   OH232190   0.719   6.716   0.851 -0.6768 -0.0957 -0.0336
 3544TIP3    H132191   0.651   6.706   0.918 -0.8442 -1.8835 -0.4115
 3544TIP3    H232192   0.794   6.668   0.886 -0.2847  0.1729 -0.4986
 3545TIP3   OH232193   5.624   1.048   0.470 -0.1521 -0.0529 -0.1635
 3545TIP3    H132194   5.686   1.120   0.459  0.9859 -0.9902 -0.0691
 3545TIP3    H232195   5.575   1.045   0.387  0.1911  0.4431 -0.3867
 3546TIP3   OH232196   3.091   2.410   1.044 -0.2110  0.5300 -0.3897
 3546TIP3    H132197   3.103   2.338   1.106  0.3385  2.5417  2.0017
 3546TIP3    H232198   2.998   2.410   1.025 -0.0421 -1.6123 -1.5715
 3547TIP3   OH232199   1.038   6.562   8.138  0.5332 -0.0615  0.7481
 3547TIP3    H132200   1.113   6.611   8.102 -0.6163  0.0049 -1.7904
 3547TIP3    H232201   0.974   6.562   8.067 -1.4114 -1.1705  2.4140
 3548TIP3   OH232202   5.253   5.124   2.246  0.1595 -0.4781 -0.3182
 3548TIP3    H132203   5.199   5.080   2.311  0.1809 -0.2878 -0.1712
 3548TIP3    H232204   5.277   5.055   2.184  1.1459 -0.9260  0.5258
 3549TIP3   OH232205   2.336   0.857   6.150 -0.3191 -0.6381 -0.2269
 3549TIP3    H132206   2.356   0.948   6.171 -1.7847 -0.3875  0.2277
 3549TIP3    H232207   2.242   0.848   6.169 -0.2248 -2.2181 -0.3513
 3550TIP3   OH232208   2.501   4.171   7.914  0.4165 -0.1100 -0.6527
 3550TIP3    H132209   2.559   4.097   7.932 -0.4321 -1.3180 -2.5489
 3550TIP3    H232210   2.433   4.164   7.981  0.5498 -0.8250 -0.5742
 3551TIP3   OH232211   0.310   4.848   6.858  0.2157 -0.3397  0.2102
 3551TIP3    H132212   0.224   4.852   6.817  0.8520  3.3877 -1.1455
 3551TIP3    H232213   0.368   4.891   6.796  2.7161 -0.9734  1.9546
 3552TIP3   OH232214   1.634   3.021   7.591 -0.1058 -0.2907 -0.4627
 3552TIP3    H132215   1.695   3.038   7.519  2.1651  2.0576  1.7867
 3552TIP3    H232216   1.610   2.929   7.580  1.2059 -0.4137 -3.3805
 3553TIP3   OH232217   5.163   1.405   1.460 -0.0503 -0.3437  0.1531
 3553TIP3    H132218   5.236   1.380   1.517 -0.6266 -0.9764  0.6421
 3553TIP3    H232219   5.129   1.486   1.497 -1.1978 -1.3852  1.4995
 3554TIP3   OH232220   3.844   0.183   2.339 -0.4630 -0.0988  0.1965
 3554TIP3    H132221   3.757   0.218   2.362  0.9215  3.1031  1.1025
 3554TIP3    H232222   3.890   0.258   2.302  1.9579 -1.7061 -0.2083
 3555TIP3   OH232223   1.001   3.799   8.266  0.2356 -0.1077  0.0415
 3555TIP3    H132224   1.025   3.761   8.181 -2.3054  0.5548 -1.0727
 3555TIP3    H232225   0.908   3.817   8.258  0.4468  2.4077  2.0637
 3556TIP3   OH232226   6.801   3.413   7.464 -0.2198  0.2191 -0.0106
 3556TIP3    H132227   6.720   3.393   7.417  0.1909 -0.6193 -0.3673
 3556TIP3    H232228   6.812   3.508   7.452  0.2743 -0.0584 -2.2647
 3557TIP3   OH232229   3.433   1.041   6.265  0.0326 -0.3984  0.4799
 3557TIP3    H132230   3.488   1.103   6.312 -1.5680  2.1732 -0.8316
 3557TIP3    H232231   3.367   1.014   6.330  0.7933 -0.8382  1.0830
 3558TIP3   OH232232   6.664   3.818   1.295  0.0464  0.2512  0.6946
 3558TIP3    H132233   6.606   3.884   1.257 -0.3367 -0.9251 -0.8709
 3558TIP3    H232234   6.673   3.752   1.227  1.3395 -0.7659  1.7919
 3559TIP3   OH232235   1.121   6.820   7.692  0.2204  0.2269  0.7004
 3559TIP3    H132236   1.147   6.907   7.660  1.4083  0.5705  2.4692
 3559TIP3    H232237   1.074   6.781   7.618  0.3442  2.0566 -0.4198
 3560TIP3   OH232238   4.592   1.236   0.179  0.3876  0.2457  0.3900
 3560TIP3    H132239   4.544   1.261   0.100  0.7702 -1.1822 -0.3316
 3560TIP3    H232240   4.527   1.191   0.233  0.6283 -0.6500 -0.0624
 3561TIP3   OH232241   2.779   6.234   8.630  0.0453  0.5610  0.0934
 3561TIP3    H132242   2.765   6.140   8.620 -1.2940  0.5855  1.2988
 3561TIP3    H232243   2.784   6.247   8.725  1.0986  1.5980 -0.0850
 3562TIP3   OH232244   4.251   1.864   8.401 -0.9438 -0.4320  0.2434
 3562TIP3    H132245   4.291   1.857   8.488  0.0974 -0.3787 -0.2128
 3562TIP3    H232246   4.325   1.858   8.340 -1.5064  0.7619 -0.6044
 3563TIP3   OH232247   4.103   1.155   7.407 -0.1754  0.3425 -0.0910
 3563TIP3    H132248   4.190   1.192   7.419  0.2212 -0.1322 -1.3188
 3563TIP3    H232249   4.050   1.194   7.477  1.6432 -1.5093  2.4960
 3564TIP3   OH232250   2.278   0.225   8.210  0.2450  0.0100 -0.3995
 3564TIP3    H132251   2.328   0.157   8.165 -0.4759 -0.5315 -0.4171
 3564TIP3    H232252   2.321   0.307   8.186 -0.1676 -0.2438 -2.1760
 3565TIP3   OH232253   2.613   0.759   8.524 -0.4544 -0.4482  0.3881
 3565TIP3    H132254   2.575   0.689   8.578 -0.8575 -1.4207 -1.1000
 3565TIP3    H232255   2.606   0.726   8.435  1.8252  0.3417 -0.1404
 3566TIP3   OH232256   1.197   6.011   6.807  0.0634 -0.6595  0.0549
 3566TIP3    H132257   1.173   5.922   6.781  0.1287 -0.8522  0.6351
 3566TIP3    H232258   1.137   6.031   6.879 -0.7301  0.2069 -0.8184
 3567TIP3   OH232259   2.903   2.709   8.452  0.1901  0.2240  0.2430
 3567TIP3    H132260   2.831   2.662   8.495  0.2635  0.2969  0.4497
 3567TIP3    H232261   2.910   2.791   8.501  1.9021 -0.7179  1.7409
 3568TIP3   OH232262   4.065   0.706   8.590 -0.0724 -0.2236 -0.3121
 3568TIP3    H132263   3.999   0.756   8.638 -0.7746  0.3845 -1.8284
 3568TIP3    H232264   4.022   0.683   8.508  1.7139  0.5611 -1.5504
 3569TIP3   OH232265   1.439   1.890   1.885 -0.1319 -0.5394  0.4381
 3569TIP3    H132266   1.416   1.904   1.793  0.4787 -0.8287  0.2307
 3569TIP3    H232267   1.392   1.958   1.933  1.0136  0.8089 -0.2805
 3570TIP3   OH232268   1.167   0.485   7.961  0.3011 -0.0956 -0.1951
 3570TIP3    H132269   1.137   0.543   7.891 -0.7545 -0.2347  0.1321
 3570TIP3    H232270   1.200   0.407   7.916  1.3711  0.5831 -0.6171
 3571TIP3   OH232271   5.857   3.510   7.464 -0.2931 -0.0591 -0.1486
 3571TIP3    H132272   5.777   3.551   7.499 -0.1895 -0.7509  0.9629
 3571TIP3    H232273   5.900   3.580   7.415 -0.5022  0.9686  1.0733
 3572TIP3   OH232274   1.787   3.752   8.084 -0.1970 -0.0824  0.5232
 3572TIP3    H132275   1.722   3.739   8.015  0.1417 -1.3489  0.3992
 3572TIP3    H232276   1.863   3.701   8.054 -0.0772 -0.7244  1.8523
 3573TIP3   OH232277   2.785   5.896   6.944  0.3063  0.0124  0.0144
 3573TIP3    H132278   2.874   5.909   6.913  0.0139  0.3671 -0.6788
 3573TIP3    H232279   2.749   5.829   6.887  0.2053 -0.3222  0.4613
 3574TIP3   OH232280   0.877   1.732   6.167 -0.2217 -0.2586  0.2034
 3574TIP3    H132281   0.796   1.736   6.218 -1.1283 -0.6212 -1.1771
 3574TIP3    H232282   0.939   1.687   6.224 -0.3708  1.6953  2.0519
 3575TIP3   OH232283   1.727   3.425   0.551 -0.3807  0.3589 -0.4325
 3575TIP3    H132284   1.801   3.486   0.556 -0.1164  0.0615 -0.6713
 3575TIP3    H232285   1.650   3.479   0.571 -0.1497  0.7722 -0.6362
 3576TIP3   OH232286   2.960   2.372   7.091  0.2238  0.6911 -0.2632
 3576TIP3    H132287   3.004   2.361   7.007  2.5038  0.8708  0.8260
 3576TIP3    H232288   2.903   2.295   7.098  1.4206 -0.3190 -1.1551
 3577TIP3   OH232289   1.689   3.966   7.233  0.3381  0.4595  0.1582
 3577TIP3    H132290   1.730   3.982   7.148  1.5642 -3.0602 -0.0959
 3577TIP3    H232291   1.761   3.973   7.295  0.5538 -1.6832  0.2272
 3578TIP3   OH232292   6.567   2.884   8.057 -0.8868  0.7759 -0.7146
 3578TIP3    H132293   6.629   2.812   8.044 -0.0591  1.5479 -1.1646
 3578TIP3    H232294   6.496   2.865   7.996 -1.7883 -0.8229  0.7411
 3579TIP3   OH232295   6.863   6.080   7.746 -0.3646 -0.3839  0.5973
 3579TIP3    H132296   6.892   6.117   7.830 -1.4856  0.9705  0.4313
 3579TIP3    H232297   6.772   6.108   7.738 -0.8236 -2.0375 -0.2452
 3580TIP3   OH232298   0.525   3.494   2.201 -0.1477 -0.2462  0.1068
 3580TIP3    H132299   0.515   3.419   2.143 -1.5391  0.4138 -0.5621
 3580TIP3    H232300   0.450   3.488   2.261 -0.0000  0.3329  0.3527
 3581TIP3   OH232301   2.075   4.941   7.067  0.1621 -0.0430  0.0041
 3581TIP3    H132302   2.167   4.914   7.058 -0.4173 -2.8423  1.6685
 3581TIP3    H232303   2.071   5.024   7.019  3.1545 -0.6615 -1.5881
 3582TIP3   OH232304   2.759   6.665   1.480 -0.0435 -0.4370 -0.1148
 3582TIP3    H132305   2.853   6.659   1.497 -0.0253 -0.9464 -0.3916
 3582TIP3    H232306   2.753   6.706   1.394 -0.1383  2.2386  1.0366
 3583TIP3   OH232307   5.578   5.522   0.556 -0.0071  0.2387 -0.3011
 3583TIP3    H132308   5.498   5.476   0.530  0.4777 -1.0691  0.4455
 3583TIP3    H232309   5.548   5.595   0.609 -0.9668  2.3413 -3.4579
 3584TIP3   OH232310   4.724   3.119   2.460 -0.2540 -0.1864 -0.3744
 3584TIP3    H132311   4.789   3.163   2.405  0.9650 -1.6988 -0.2251
 3584TIP3    H232312   4.756   3.130   2.549 -1.7630  1.4976  0.0075
 3585TIP3   OH232313   1.707   6.674   0.601 -0.4423  0.3760  0.1211
 3585TIP3    H132314   1.765   6.603   0.576  0.5802  1.3792 -0.4403
 3585TIP3    H232315   1.765   6.741   0.637 -1.4646  0.6285  1.3871
 3586TIP3   OH232316   1.397   6.639   1.475 -0.1102  0.1835  0.5061
 3586TIP3    H132317   1.315   6.685   1.459 -0.1042 -0.5215 -2.0527
 3586TIP3    H232318   1.397   6.621   1.569 -3.6181 -1.0762  0.4177
 3587TIP3   OH232319   6.287   6.335   6.883 -0.2781  0.0056 -0.3215
 3587TIP3    H132320   6.312   6.409   6.828  1.4327 -0.1572  0.1847
 3587TIP3    H232321   6.322   6.357   6.969 -0.4409 -1.0231  0.0149
 3588TIP3   OH232322   0.757   4.498   0.235 -0.2837  0.6814 -0.3163
 3588TIP3    H132323   0.838   4.540   0.265 -1.2778  1.7866  0.9335
 3588TIP3    H232324   0.728   4.446   0.310  0.0014 -0.9024 -1.2593
 3589TIP3   OH232325   6.093   0.536   6.914 -0.0234  0.2143  0.6276
 3589TIP3    H132326   6.176   0.582   6.926  0.4526 -0.0155 -1.3883
 3589TIP3    H232327   6.057   0.574   6.834 -2.3535  0.9520  1.9434
 3590TIP3   OH232328   2.119   2.532   0.746  0.1875  0.5951  0.3588
 3590TIP3    H132329   2.095   2.512   0.836  0.6870  2.4618  0.9563
 3590TIP3    H232330   2.159   2.618   0.751 -0.9286  1.3130 -1.8381
 3591TIP3   OH232331   3.556   2.608   1.138  0.5364 -0.0718 -0.2580
 3591TIP3    H132332   3.525   2.519   1.121 -1.2535  0.1176  1.5901
 3591TIP3    H232333   3.506   2.663   1.078 -0.3339 -0.0857  0.4375
 3592TIP3   OH232334   2.596   4.986   2.593 -0.0664 -0.5513 -0.5547
 3592TIP3    H132335   2.580   4.894   2.616 -1.4621 -0.4644 -1.1090
 3592TIP3    H232336   2.511   5.029   2.602  0.8196  1.0197  1.0367
 3593TIP3   OH232337   6.238   5.497   7.160 -0.2525  0.0882 -0.2594
 3593TIP3    H132338   6.310   5.551   7.189  0.6527 -2.1162  2.0109
 3593TIP3    H232339   6.261   5.470   7.072  0.4234  1.4334 -0.5069
 3594TIP3   OH232340   0.240   5.370   6.233 -0.3045  0.2277  0.3486
 3594TIP3    H132341   0.159   5.354   6.184 -1.0729  0.8225  1.4006
 3594TIP3    H232342   0.287   5.287   6.229 -0.6347  0.0703 -0.8482
 3595TIP3   OH232343   1.769   5.022   0.914  0.0117  0.2008 -0.4234
 3595TIP3    H132344   1.816   5.096   0.874  0.5970  0.5670  0.8742
 3595TIP3    H232345   1.700   5.063   0.966 -0.3343 -0.2313 -0.5351
 3596TIP3   OH232346   1.824   1.707   1.763 -0.0564 -0.4724 -0.1841
 3596TIP3    H132347   1.854   1.617   1.777 -0.2764 -0.8675 -1.9080
 3596TIP3    H232348   1.730   1.698   1.748 -0.0876  0.0512 -0.3100
 3597TIP3   OH232349   1.426   6.714   0.659 -0.1636  0.3409  0.3603
 3597TIP3    H132350   1.437   6.748   0.748  1.3140  2.8721 -0.6847
 3597TIP3    H232351   1.513   6.722   0.619 -0.9319 -0.1321 -1.5053
 3598TIP3   OH232352   3.393   6.473   6.761  0.0089 -0.3536 -0.0655
 3598TIP3    H132353   3.443   6.551   6.736  0.5777 -1.3995 -2.4513
 3598TIP3    H232354   3.311   6.479   6.712 -1.4522  0.3131  2.2638
 3599TIP3   OH232355   5.573   3.064   6.880 -0.0452 -0.2852  0.3150
 3599TIP3    H132356   5.502   3.000   6.891 -0.6853  0.6465  2.1844
 3599TIP3    H232357   5.591   3.095   6.969  0.9134  1.4127 -0.4091
 3600TIP3   OH232358   3.596   2.205   1.676 -0.0819  0.6242  0.1839
 3600TIP3    H132359   3.502   2.187   1.666  0.0939  0.1099 -0.6920
 3600TIP3    H232360   3.602   2.300   1.682 -0.7263  0.6145  1.0749
 3601TIP3   OH232361   6.281   0.329   1.769 -0.1454 -0.1114 -0.4162
 3601TIP3    H132362   6.214   0.397   1.761  2.2511  2.2582 -1.8787
 3601TIP3    H232363   6.291   0.295   1.680 -0.9809 -2.1434  0.2151
 3602TIP3   OH232364   1.463   6.599   7.023 -0.1927  0.0305  0.0421
 3602TIP3    H132365   1.473   6.568   6.933 -1.3913 -1.6672  0.4294
 3602TIP3    H232366   1.383   6.650   7.022 -0.4536 -0.3706  0.2253
 3603TIP3   OH232367   5.008   3.346   1.912  0.0477  0.5843  0.0462
 3603TIP3    H132368   5.050   3.350   1.998  0.2785  1.1974 -0.0930
 3603TIP3    H232369   5.032   3.260   1.878  0.8523  0.7678  0.1390
 3604TIP3   OH232370   0.516   0.934   6.613 -0.3553  0.1982  0.6024
 3604TIP3    H132371   0.472   1.013   6.580 -1.2964 -0.5900 -0.1221
 3604TIP3    H232372   0.537   0.884   6.534  0.0965 -0.3431  1.0566
 3605TIP3   OH232373   2.794   1.821   7.593 -0.5986 -0.7376  0.0620
 3605TIP3    H132374   2.777   1.838   7.500 -2.2363  0.0707  0.4537
 3605TIP3    H232375   2.708   1.799   7.629 -0.1602 -0.1452  1.5557
 3606TIP3   OH232376   4.109   4.553   0.026  0.0641 -0.5907  0.4833
 3606TIP3    H132377   4.063   4.516   0.101  0.0008 -0.8832  0.2989
 3606TIP3    H232378   4.150   4.633   0.061 -0.0493 -0.6699  0.8031
 3607TIP3   OH232379   2.022   3.198   7.504 -0.0760 -0.5637 -0.1253
 3607TIP3    H132380   2.066   3.117   7.530  1.5840  0.2339 -0.2925
 3607TIP3    H232381   2.086   3.243   7.449 -1.4856  0.2524 -1.1575
 3608TIP3   OH232382   1.691   4.322   7.832 -0.0534  0.1517 -0.2714
 3608TIP3    H132383   1.623   4.387   7.851 -0.3472 -0.2681  0.1228
 3608TIP3    H232384   1.770   4.374   7.819 -0.2840  0.5896  0.0472
 3609TIP3   OH232385   3.222   1.109   1.743  0.0800 -0.9582 -0.0185
 3609TIP3    H132386   3.300   1.054   1.733  0.7571 -0.2161  1.0422
 3609TIP3    H232387   3.249   1.180   1.802 -0.8125  0.4324 -1.1951
 3610TIP3   OH232388   2.407   1.586   7.017 -0.3254 -0.1486  0.7856
 3610TIP3    H132389   2.328   1.567   6.966  0.4888  0.4982 -0.8026
 3610TIP3    H232390   2.385   1.665   7.067 -0.5126  0.3992 -0.1254
 3611TIP3   OH232391   1.575   6.476   1.269  0.1545  0.5964 -0.2289
 3611TIP3    H132392   1.592   6.489   1.362 -1.1127  0.2179  0.0723
 3611TIP3    H232393   1.528   6.555   1.242  0.0658  0.4746 -0.4276
 3612TIP3   OH232394   6.631   5.025   2.746  0.2657 -0.2629  0.0667
 3612TIP3    H132395   6.552   5.069   2.714  1.2850  1.1529 -0.6176
 3612TIP3    H232396   6.645   4.953   2.685  0.3793  0.4523 -0.7640
 3613TIP3   OH232397   1.082   3.745   8.001 -0.3426 -0.3300  0.1396
 3613TIP3    H132398   1.031   3.701   7.932 -1.2219  0.1685  0.4543
 3613TIP3    H232399   1.166   3.765   7.959 -0.2709 -1.4624 -0.2904
 3614TIP3   OH232400   4.391   0.409   0.419 -0.1117 -0.4663  0.4595
 3614TIP3    H132401   4.323   0.452   0.369 -0.0409  0.7394  1.3669
 3614TIP3    H232402   4.467   0.409   0.361 -0.4441 -0.4438  0.0203
 3615TIP3   OH232403   2.358   3.260   8.285 -0.4973 -0.2708  0.5111
 3615TIP3    H132404   2.429   3.217   8.238 -0.5341  0.0318  0.1706
 3615TIP3    H232405   2.341   3.204   8.361 -1.0505 -1.2607 -0.3194
 3616TIP3   OH232406   4.638   1.172   0.590 -0.6415  0.9072  0.3328
 3616TIP3    H132407   4.587   1.137   0.663 -2.9077 -0.4550 -1.7661
 3616TIP3    H232408   4.716   1.116   0.586 -1.1334  0.1582  0.9204
 3617TIP3   OH232409   3.251   1.109   7.815 -0.3576  0.2140  0.8244
 3617TIP3    H132410   3.254   1.196   7.775 -0.0265 -0.1379  0.0806
 3617TIP3    H232411   3.161   1.079   7.799 -0.3792  0.2838  0.8127
 3618TIP3   OH232412   0.706   5.019   7.660  0.2347  0.3828 -0.2229
 3618TIP3    H132413   0.707   5.016   7.565 -0.1114  1.0235 -0.2482
 3618TIP3    H232414   0.659   4.939   7.685 -2.5905  1.7781 -0.7067
 3619TIP3   OH232415   4.938   2.069   7.981 -0.0525  0.0891 -0.0853
 3619TIP3    H132416   4.930   2.049   8.074 -0.0045 -0.7205 -0.2528
 3619TIP3    H232417   5.018   2.122   7.975  0.7207 -1.0151  0.1587
 3620TIP3   OH232418   0.402   0.568   1.906  0.2659 -0.3680 -0.3773
 3620TIP3    H132419   0.385   0.661   1.917 -0.0202 -0.4371 -0.2377
 3620TIP3    H232420   0.399   0.554   1.811 -0.2671 -0.3436 -0.3645
 3621TIP3   OH232421   3.989   4.036   7.604  0.7355  0.1418 -0.4587
 3621TIP3    H132422   3.898   4.017   7.626  0.7817  1.0063  0.5610
 3621TIP3    H232423   3.992   4.131   7.592  1.1247 -0.0744 -2.4140
 3622TIP3   OH232424   4.175   0.237   6.429 -0.2559 -0.5850  0.2013
 3622TIP3    H132425   4.087   0.260   6.399 -1.2443 -0.7162  2.7675
 3622TIP3    H232426   4.185   0.145   6.407 -0.5841 -0.4645 -0.4738
 3623TIP3   OH232427   3.463   3.939   1.177  0.4857  0.3103 -0.1219
 3623TIP3    H132428   3.505   3.867   1.130 -0.2464 -0.0193 -0.2885
 3623TIP3    H232429   3.413   3.985   1.110 -2.1086 -1.2769  0.5689
 3624TIP3   OH232430   5.267   3.220   1.453  0.2125  0.0360  0.0844
 3624TIP3    H132431   5.299   3.286   1.514  1.0363  0.0803 -0.3795
 3624TIP3    H232432   5.273   3.138   1.501  0.0338  0.1789  0.3549
 3625TIP3   OH232433   5.926   3.010   8.526 -0.6301  0.6043 -0.7446
 3625TIP3    H132434   5.846   3.062   8.531  0.9482  3.0395  0.7117
 3625TIP3    H232435   5.994   3.064   8.566  1.2409 -2.4543  0.6321
 3626TIP3   OH232436   6.788   0.042   1.560 -0.2982 -0.0489 -0.4028
 3626TIP3    H132437   6.703   0.051   1.516 -0.5701 -0.3753  0.0494
 3626TIP3    H232438   6.768   0.056   1.653  0.3035  0.8638 -0.3941
 3627TIP3   OH232439   5.938   5.671   7.163 -0.2658  0.0713  0.3261
 3627TIP3    H132440   6.013   5.640   7.112 -0.2789  0.9233 -0.2273
 3627TIP3    H232441   5.973   5.685   7.251 -0.3433 -1.8490  0.7270
 3628TIP3   OH232442   0.963   1.415   7.669  0.1815 -0.2643  0.7517
 3628TIP3    H132443   0.967   1.428   7.764 -1.1923 -1.7229  1.0667
 3628TIP3    H232444   0.869   1.413   7.649  0.4300 -0.9059 -0.4767
 3629TIP3   OH232445   5.078   2.661   0.475 -0.0574 -0.8386 -0.2117
 3629TIP3    H132446   5.136   2.621   0.540  0.3977  0.8076  0.4450
 3629TIP3    H232447   5.090   2.608   0.397  1.5820 -1.1535  0.2076
 3630TIP3   OH232448   4.373   0.860   0.786 -0.2965  0.0996  0.0306
 3630TIP3    H132449   4.369   0.794   0.716  0.7388 -0.1581  0.1957
 3630TIP3    H232450   4.460   0.850   0.823 -0.1150  1.5558  0.0747
 3631TIP3   OH232451   0.050   5.538   0.987  0.4731  0.3203 -0.1583
 3631TIP3    H132452   0.044   5.447   0.960 -0.9791  0.7501 -1.4526
 3631TIP3    H232453   0.132   5.544   1.034  0.2599 -1.8048  0.5836
 3632TIP3   OH232454   6.508   3.361   7.405 -0.4931 -0.0030  0.6012
 3632TIP3    H132455   6.451   3.286   7.424 -0.0742 -0.9669 -1.6245
 3632TIP3    H232456   6.471   3.400   7.326  1.0564  0.2626 -0.0263
 3633TIP3   OH232457   1.426   1.805   7.698 -0.5909 -0.4059  0.1448
 3633TIP3    H132458   1.478   1.854   7.761 -1.4914 -0.3759  0.8733
 3633TIP3    H232459   1.371   1.870   7.655 -0.1951 -0.4688 -0.4787
 3634TIP3   OH232460   2.143   0.492   0.362 -0.3716  0.0446 -0.0175
 3634TIP3    H132461   2.061   0.448   0.386 -0.7275  0.9386  0.4801
 3634TIP3    H232462   2.125   0.531   0.276 -1.3850  2.3544  1.1458
 3635TIP3   OH232463   2.274   1.105   1.126  0.3254  0.0869 -0.3380
 3635TIP3    H132464   2.265   1.051   1.047 -0.6116  0.2598 -0.3586
 3635TIP3    H232465   2.318   1.048   1.189 -0.8514 -0.7972 -0.2832
 3636TIP3   OH232466   2.055   5.380   8.045  0.5911 -0.3773  0.1843
 3636TIP3    H132467   2.133   5.370   8.099  0.7584  1.0912  0.2436
 3636TIP3    H232468   2.088   5.378   7.955  0.8660  1.2831  0.2198
 3637TIP3   OH232469   5.801   3.392   7.187  0.4424  0.2951  0.7804
 3637TIP3    H132470   5.853   3.407   7.266  0.2741  0.4861  0.8549
 3637TIP3    H232471   5.845   3.443   7.119 -0.2898  1.3854  1.0961
 3638TIP3   OH232472   5.157   3.635   2.154 -0.1041 -0.0937 -0.1555
 3638TIP3    H132473   5.079   3.665   2.107  0.2768 -1.2702 -1.6067
 3638TIP3    H232474   5.147   3.540   2.158 -0.3260 -0.0427  2.5816
 3639TIP3   OH232475   3.950   4.387   0.926 -0.1910  0.2080 -0.3374
 3639TIP3    H132476   3.889   4.427   0.865 -0.8365  1.4235  1.0480
 3639TIP3    H232477   3.903   4.312   0.962 -1.6057  2.0854  1.9554
 3640TIP3   OH232478   4.879   2.209   7.538  0.3103 -0.3528  0.3493
 3640TIP3    H132479   4.815   2.139   7.553  0.5497 -0.9205 -1.1140
 3640TIP3    H232480   4.874   2.226   7.444  0.7358  1.1576  0.5772
 3641TIP3   OH232481   0.352   3.059   1.708 -0.1657 -0.7889 -0.3455
 3641TIP3    H132482   0.339   3.082   1.800 -0.0118 -0.7915 -0.3215
 3641TIP3    H232483   0.291   2.988   1.692 -0.3012 -0.6856 -0.2860
 3642TIP3   OH232484   3.430   4.019   7.572 -0.1170  0.2357 -0.1615
 3642TIP3    H132485   3.480   4.065   7.504 -0.4783 -1.0881 -1.3551
 3642TIP3    H232486   3.429   3.928   7.544 -1.8016 -0.0502  0.6994
 3643TIP3   OH232487   5.241   5.249   0.170 -0.1021  0.7221 -0.0582
 3643TIP3    H132488   5.225   5.233   0.263 -0.8906  0.2717 -0.2611
 3643TIP3    H232489   5.173   5.198   0.125 -0.6128  2.0250 -0.8397
 3644TIP3   OH232490   3.052   3.613   8.209 -0.1560 -0.1600  0.1999
 3644TIP3    H132491   2.991   3.672   8.254 -0.5070  0.0490 -0.5387
 3644TIP3    H232492   2.995   3.552   8.162  0.1989  0.1329 -0.6165
 3645TIP3   OH232493   6.727   0.295   1.373  0.6098  0.0954  0.1873
 3645TIP3    H132494   6.658   0.246   1.419  0.2528  0.6642  0.2727
 3645TIP3    H232495   6.690   0.311   1.286  0.6253  0.4219  0.2415
 3646TIP3   OH232496   6.847   5.895   8.624  0.3555 -0.3323  0.4305
 3646TIP3    H132497   6.829   5.986   8.600 -2.8077 -1.3799 -1.9224
 3646TIP3    H232498   6.766   5.865   8.666  0.7619 -2.4274 -0.1708
 3647TIP3   OH232499   6.814   0.044   6.930 -0.3556  0.3060  0.1688
 3647TIP3    H132500   6.804   0.007   7.018 -2.1802 -0.1891 -0.1918
 3647TIP3    H232501   6.850   0.131   6.944 -1.6154  0.6518  1.5262
 3648TIP3   OH232502   2.934   0.141   7.094 -0.2910 -0.0371  0.0192
 3648TIP3    H132503   2.923   0.217   7.037  1.7727  0.1304 -0.2372
 3648TIP3    H232504   2.913   0.066   7.039 -0.2050  0.2338 -0.3873
 3649TIP3   OH232505   6.023   0.354   8.484 -0.0021  0.0980 -0.6316
 3649TIP3    H132506   6.083   0.280   8.485 -0.1131 -0.0223 -1.7289
 3649TIP3    H232507   6.007   0.373   8.576  1.5929  0.0470 -0.3301
 3650TIP3   OH232508   3.451   5.773   5.661  0.2526 -0.1236 -0.3072
 3650TIP3    H132509   3.516   5.840   5.639 -0.3064 -0.0439 -1.8021
 3650TIP3    H232510   3.466   5.755   5.754  0.2097  2.3002  0.2232
 3651TIP3   OH232511   4.354   4.307   2.179 -0.4730 -0.3942 -0.3777
 3651TIP3    H132512   4.322   4.394   2.202 -1.4930 -0.7782 -0.3186
 3651TIP3    H232513   4.415   4.285   2.250  0.5691  0.6657 -0.9037
 3652TIP3   OH232514   6.844   3.609   0.669 -0.3025  0.2197  0.3927
 3652TIP3    H132515   6.761   3.626   0.712  0.4457  0.3731  1.8455
 3652TIP3    H232516   6.893   3.690   0.678  1.4241 -0.9841  2.9807
 3653TIP3   OH232517   3.185   4.147   1.642  0.5805 -0.8321  0.6019
 3653TIP3    H132518   3.111   4.144   1.581 -0.1299 -0.4957  1.4273
 3653TIP3    H232519   3.259   4.112   1.592  0.5252  1.2978 -1.1359
 3654TIP3   OH232520   5.679   0.426   0.667  0.2628 -0.3324 -0.1650
 3654TIP3    H132521   5.664   0.353   0.607  0.6103 -0.0356 -0.6202
 3654TIP3    H232522   5.746   0.394   0.728  0.4898 -0.3605 -0.4275
 3655TIP3   OH232523   2.550   2.759   7.069  0.2945  0.6425  0.3964
 3655TIP3    H132524   2.639   2.728   7.055 -0.0291  0.5114 -1.7458
 3655TIP3    H232525   2.559   2.853   7.082  0.9481  0.2832  3.1897
 3656TIP3   OH232526   0.594   3.333   7.952  0.0654  0.0210 -0.3296
 3656TIP3    H132527   0.636   3.347   7.867  1.2871  0.2248  0.2902
 3656TIP3    H232528   0.591   3.420   7.991 -1.0651  0.0277 -0.4030
 3657TIP3   OH232529   2.063   3.307   8.575 -0.2845  0.2517  0.0354
 3657TIP3    H132530   1.968   3.323   8.572  0.0486  2.3473 -0.6342
 3657TIP3    H232531   2.100   3.370   8.513  1.4632 -1.4347 -0.7255
 3658TIP3   OH232532   1.987   4.815   0.963 -0.6024  0.5023  0.7098
 3658TIP3    H132533   1.950   4.883   1.019 -0.9484  1.2078 -0.3386
 3658TIP3    H232534   1.914   4.788   0.907 -0.2743 -0.2081  0.6131
 3659TIP3   OH232535   3.555   3.422   0.998  0.3160  0.1438 -0.8406
 3659TIP3    H132536   3.589   3.508   1.022  0.1275  0.2876 -1.0837
 3659TIP3    H232537   3.516   3.388   1.078 -0.4981  0.7074 -0.9818
 3660TIP3   OH232538   5.612   2.723   2.057 -0.2515  0.6041  0.0438
 3660TIP3    H132539   5.627   2.628   2.060 -1.4430  0.3614 -1.1046
 3660TIP3    H232540   5.571   2.738   1.973  1.5682  2.4099 -0.5950
 3661TIP3   OH232541   4.584   0.526   0.605  0.1193  0.0895 -0.8281
 3661TIP3    H132542   4.663   0.517   0.657 -0.6520 -1.0514  0.1908
 3661TIP3    H232543   4.608   0.491   0.519  0.2576 -1.9991 -0.0133
 3662TIP3   OH232544   5.677   5.431   8.061 -0.5499 -0.5839  0.5874
 3662TIP3    H132545   5.738   5.504   8.065 -0.1955 -0.8395 -0.0275
 3662TIP3    H232546   5.608   5.453   8.124 -1.8400  1.5500 -1.4352
 3663TIP3   OH232547   4.393   2.711   8.464 -0.2910 -0.1415  0.0232
 3663TIP3    H132548   4.468   2.662   8.496 -0.5655  0.2531  1.3005
 3663TIP3    H232549   4.424   2.802   8.458 -0.4878 -0.0760 -0.0162
 3664TIP3   OH232550   1.572   2.542   1.132 -0.0430  0.1943  0.1805
 3664TIP3    H132551   1.637   2.523   1.065 -0.6462 -1.9700  0.1195
 3664TIP3    H232552   1.489   2.546   1.084 -0.6686 -2.6928  0.8382
 3665TIP3   OH232553   5.022   4.667   0.278 -0.1586 -0.4022 -0.0724
 3665TIP3    H132554   4.932   4.697   0.262  0.1245  1.2226  1.1135
 3665TIP3    H232555   5.077   4.739   0.247  0.6524 -0.7205  0.5916
 3666TIP3   OH232556   4.639   5.586   1.516  0.1894  0.0472  0.4145
 3666TIP3    H132557   4.664   5.516   1.576  0.8917  0.0241  0.1092
 3666TIP3    H232558   4.679   5.562   1.432 -1.4528 -0.3434 -0.2949
 3667TIP3   OH232559   0.028   5.383   0.064  0.6888  0.4836  0.3521
 3667TIP3    H132560   0.104   5.375   0.122  2.2666 -0.8143 -1.7497
 3667TIP3    H232561   0.035   5.472   0.029  1.8307  0.0759 -0.5227
 3668TIP3   OH232562   0.530   6.671   8.181 -0.1499  0.0905 -0.2056
 3668TIP3    H132563   0.600   6.613   8.150  0.8936 -0.6768  3.1466
 3668TIP3    H232564   0.531   6.745   8.120  4.9214  1.0049  0.5532
 3669TIP3   OH232565   0.562   3.607   0.289  0.4609  0.1218  0.0651
 3669TIP3    H132566   0.542   3.691   0.247 -1.6604 -0.0634  0.6322
 3669TIP3    H232567   0.528   3.542   0.228 -0.5500 -0.2179  0.9690
 3670TIP3   OH232568   0.499   0.631   7.613  0.3462 -0.5340 -0.1213
 3670TIP3    H132569   0.477   0.722   7.592 -0.0462 -0.5490  0.2090
 3670TIP3    H232570   0.525   0.592   7.529  1.5033  0.1518 -0.1015
 3671TIP3   OH232571   3.443   5.564   0.700  0.2433  0.0116 -0.2491
 3671TIP3    H132572   3.526   5.534   0.737  0.4037  1.1979  0.4000
 3671TIP3    H232573   3.376   5.520   0.754  0.4708  0.7681  0.6804
 3672TIP3   OH232574   2.201   4.593   0.042  0.4801  0.2962 -0.1450
 3672TIP3    H132575   2.150   4.544   0.106 -0.4185  2.4134  0.8415
 3672TIP3    H232576   2.291   4.588   0.073  0.1418  0.7688  0.9387
 3673TIP3   OH232577   0.709   5.156   2.510  0.0767 -0.0610 -0.2050
 3673TIP3    H132578   0.783   5.096   2.521 -0.8816 -1.8312 -2.4049
 3673TIP3    H232579   0.658   5.147   2.590  0.9149 -0.7830  0.2633
 3674TIP3   OH232580   0.063   0.857   0.073 -0.2284  0.2371  0.4851
 3674TIP3    H132581   0.038   0.831   0.161 -0.5938 -0.9106  0.0650
 3674TIP3    H232582   0.116   0.784   0.040 -0.8708  0.2106 -0.5621
 3675TIP3   OH232583   0.974   3.495   6.786  0.4747 -0.3173  0.2013
 3675TIP3    H132584   0.966   3.417   6.731 -1.0879  0.5321 -0.8479
 3675TIP3    H232585   1.014   3.560   6.729 -0.0993  0.2403  0.4254
 3676TIP3   OH232586   1.122   3.070   7.245  0.6406  0.0917  0.2379
 3676TIP3    H132587   1.205   3.106   7.215  0.0718 -0.0311 -1.6079
 3676TIP3    H232588   1.060   3.143   7.236  0.0874 -0.4743 -0.6965
 3677TIP3   OH232589   6.213   3.629   8.390 -0.0954 -0.1724  0.1877
 3677TIP3    H132590   6.119   3.618   8.380  0.0127 -0.7433 -0.2631
 3677TIP3    H232591   6.251   3.583   8.315  0.5605 -0.4850  0.6961
 3678TIP3   OH232592   2.450   3.903   2.456  0.3748  0.0149  0.9786
 3678TIP3    H132593   2.403   3.930   2.377  0.1678  1.0512  1.4464
 3678TIP3    H232594   2.541   3.925   2.438  0.8573 -2.4601 -0.1374
 3679TIP3   OH232595   4.913   3.883   7.661 -0.1430 -0.2206  0.1035
 3679TIP3    H132596   4.898   3.976   7.649  0.2997 -0.1373  0.1681
 3679TIP3    H232597   4.867   3.862   7.742  3.3515  0.9117  2.6390
 3680TIP3   OH232598   0.822   1.032   0.292  0.4303 -0.4481 -0.1963
 3680TIP3    H132599   0.874   1.098   0.339 -0.8232 -0.1824  0.8811
 3680TIP3    H232600   0.846   0.949   0.332  0.0384 -0.3252  0.3036
 3681TIP3   OH232601   1.126   3.569   1.077  0.6525  0.3661 -0.0094
 3681TIP3    H132602   1.087   3.611   1.001 -2.9307 -0.7082  1.0292
 3681TIP3    H232603   1.190   3.507   1.041 -1.0260 -0.1881 -2.1996
 3682TIP3   OH232604   0.864   2.799   0.761 -0.1795 -0.0499  0.5802
 3682TIP3    H132605   0.889   2.777   0.671  0.4124  0.8877  0.5008
 3682TIP3    H232606   0.933   2.858   0.791 -0.4493 -0.2406  1.6069
 3683TIP3   OH232607   3.369   1.465   7.328  0.1213 -0.4489  0.0484
 3683TIP3    H132608   3.347   1.485   7.237  0.0602 -1.6609 -0.2212
 3683TIP3    H232609   3.381   1.370   7.329  1.2117 -0.3234  1.0809
 3684TIP3   OH232610   2.104   4.092   7.587 -0.6358 -0.4544 -0.4978
 3684TIP3    H132611   2.175   4.108   7.649  0.8284  2.9370 -2.7678
 3684TIP3    H232612   2.098   3.997   7.581  1.5281 -0.8580  2.1397
 3685TIP3   OH232613   5.408   2.720   1.377 -0.3545  0.2232 -0.2202
 3685TIP3    H132614   5.377   2.722   1.468 -0.7713  0.1936 -0.3647
 3685TIP3    H232615   5.434   2.810   1.359 -3.9369  1.1871 -1.3472
 3686TIP3   OH232616   5.845   5.756   8.407  0.1250  0.0434 -0.4941
 3686TIP3    H132617   5.880   5.686   8.461  0.3607  0.0637 -0.6195
 3686TIP3    H232618   5.890   5.835   8.437 -1.8838  0.6134  1.3646
 3687TIP3   OH232619   0.230   6.544   7.462 -0.3562  0.6873  0.3782
 3687TIP3    H132620   0.155   6.484   7.462  1.4694 -1.7703 -0.4953
 3687TIP3    H232621   0.240   6.572   7.553 -0.8395 -0.9693  0.9643
 3688TIP3   OH232622   6.480   2.012   8.338  0.5110  0.3492 -0.0108
 3688TIP3    H132623   6.525   1.999   8.422  2.2183  1.7597 -0.6267
 3688TIP3    H232624   6.513   2.097   8.307  0.5846 -0.5235 -2.5108
 3689TIP3   OH232625   4.792   1.980   0.287 -0.1985 -0.2069  0.0377
 3689TIP3    H132626   4.804   1.947   0.198 -0.6283 -1.1707  0.3250
 3689TIP3    H232627   4.698   1.975   0.302 -0.0330 -1.1474  0.9391
 3690TIP3   OH232628   3.963   2.556   6.871 -0.2951  0.0009 -0.1239
 3690TIP3    H132629   3.883   2.550   6.819  0.4835 -0.9682 -1.2314
 3690TIP3    H232630   3.999   2.468   6.872  1.0344  0.5142 -0.0713
 3691TIP3   OH232631   3.470   5.922   1.603 -0.0834 -0.1067  0.0181
 3691TIP3    H132632   3.416   5.878   1.668 -0.7043  0.8104  0.1298
 3691TIP3    H232633   3.495   5.853   1.542 -0.2620 -0.7951  0.7105
 3692TIP3   OH232634   0.465   6.645   2.036 -0.2703  0.1960  0.3720
 3692TIP3    H132635   0.383   6.691   2.059 -0.9351  0.4069 -2.1802
 3692TIP3    H232636   0.525   6.715   2.011 -0.0433 -0.1060  0.0702
 3693TIP3   OH232637   4.151   1.219   8.054  0.2305  0.0764  0.6294
 3693TIP3    H132638   4.088   1.183   7.992  0.4999 -0.6031  0.7337
 3693TIP3    H232639   4.236   1.190   8.020  0.4425  0.4738  0.8188
 3694TIP3   OH232640   2.151   2.508   2.238  0.4187 -0.1254 -0.4045
 3694TIP3    H132641   2.214   2.517   2.309  0.0459 -1.0030  0.0657
 3694TIP3    H232642   2.159   2.588   2.187 -0.6444  1.4108  1.7144
 3695TIP3   OH232643   0.885   3.393   7.987 -0.6019 -0.0809  0.1185
 3695TIP3    H132644   0.819   3.463   7.984  0.3067  0.7592 -1.3286
 3695TIP3    H232645   0.907   3.385   8.080 -0.7553  1.5560  0.3274
 3696TIP3   OH232646   3.546   4.890   7.932 -0.1600 -0.3250  0.5678
 3696TIP3    H132647   3.551   4.822   7.865 -1.1995 -0.7480  0.9126
 3696TIP3    H232648   3.508   4.847   8.008  1.5899 -0.0149  1.6768
 3697TIP3   OH232649   0.896   5.757   0.477 -0.0995 -0.2684 -0.4643
 3697TIP3    H132650   0.930   5.698   0.545 -0.8974 -1.9738 -1.4726
 3697TIP3    H232651   0.974   5.784   0.429  0.3611  0.1142  0.4598
 3698TIP3   OH232652   1.681   6.512   1.511  0.6318 -1.2223 -0.1059
 3698TIP3    H132653   1.653   6.573   1.579 -0.5203  0.0535 -1.6551
 3698TIP3    H232654   1.777   6.518   1.510  0.5843 -0.2972  0.5294
 3699TIP3   OH232655   1.531   2.910   0.508 -0.3695 -0.2581  0.2897
 3699TIP3    H132656   1.519   2.864   0.425  0.2217 -0.6445  0.4131
 3699TIP3    H232657   1.485   2.993   0.496 -0.9109 -0.6174 -0.1630
 3700TIP3   OH232658   2.190   4.148   1.808  0.2531 -0.6107  0.5662
 3700TIP3    H132659   2.112   4.097   1.788 -0.7224  1.0603 -0.0905
 3700TIP3    H232660   2.214   4.190   1.726  1.4539 -0.5463  0.9190
 3701TIP3   OH232661   5.289   6.678   7.355 -0.2214 -0.0856  0.1699
 3701TIP3    H132662   5.236   6.675   7.435 -1.2824 -1.7601 -0.5638
 3701TIP3    H232663   5.251   6.750   7.305 -1.1395 -0.6018  0.1087
 3702TIP3   OH232664   3.331   4.759   6.753 -0.0872  0.7152 -0.4345
 3702TIP3    H132665   3.422   4.784   6.739 -0.1214  0.5499 -0.9659
 3702TIP3    H232666   3.292   4.835   6.797  0.6878  0.1664  1.2888
 3703TIP3   OH232667   2.271   2.161   7.796 -0.0033  0.1722  0.5351
 3703TIP3    H132668   2.295   2.132   7.708  0.1207  2.0395 -0.1122
 3703TIP3    H232669   2.325   2.239   7.811 -0.7975  0.5094  1.8158
 3704TIP3   OH232670   1.164   4.363   1.585 -0.1362  0.2071 -0.4949
 3704TIP3    H132671   1.069   4.350   1.579 -0.2362  1.0517 -1.0526
 3704TIP3    H232672   1.192   4.307   1.657 -0.7773 -1.4900 -1.4925
 3705TIP3   OH232673   1.524   5.523   1.192 -0.2199 -0.2751 -0.5763
 3705TIP3    H132674   1.537   5.522   1.097  0.4604  1.4075 -0.5304
 3705TIP3    H232675   1.531   5.615   1.216  0.6075 -0.7731  1.2476
 3706TIP3   OH232676   2.664   6.491   8.415  0.4001  0.2657  0.0772
 3706TIP3    H132677   2.745   6.541   8.409  0.3554  0.2516 -0.8455
 3706TIP3    H232678   2.692   6.400   8.425  0.4822  0.4735  2.0185
 3707TIP3   OH232679   6.339   1.518   6.229 -0.5567 -0.1198  0.1737
 3707TIP3    H132680   6.378   1.586   6.173 -1.8204  1.1212  0.7505
 3707TIP3    H232681   6.250   1.507   6.196 -0.8485 -0.4162  1.0284
 3708TIP3   OH232682   0.922   2.824   0.489 -0.1836  0.5463  0.2983
 3708TIP3    H132683   0.847   2.856   0.439 -0.1697  0.1371  0.0058
 3708TIP3    H232684   0.983   2.898   0.491 -1.3382  1.5300  2.1340
 3709TIP3   OH232685   5.780   1.431   7.680  0.0452 -0.5050 -0.3825
 3709TIP3    H132686   5.733   1.512   7.663  2.4292  0.6097 -2.3624
 3709TIP3    H232687   5.819   1.443   7.767  2.7571  1.8882 -1.7650
 3710TIP3   OH232688   3.431   6.552   8.248 -0.0476  0.5836 -0.2710
 3710TIP3    H132689   3.427   6.457   8.238  0.3750  0.5635 -0.2795
 3710TIP3    H232690   3.359   6.574   8.306 -0.4073  0.3058 -0.6074
 3711TIP3   OH232691   5.708   1.059   2.241 -0.3957  0.8325  0.0413
 3711TIP3    H132692   5.652   1.134   2.222 -0.6067  0.6461 -0.0893
 3711TIP3    H232693   5.794   1.096   2.258 -0.8743  1.2683  1.7364
 3712TIP3   OH232694   6.713   3.558   8.289  0.5125 -0.2234  0.0956
 3712TIP3    H132695   6.700   3.466   8.264  2.6138 -0.4014 -0.5416
 3712TIP3    H232696   6.748   3.554   8.378 -0.8888  0.0793  0.6872
 3713TIP3   OH232697   2.808   6.829   8.544 -0.4119  0.1496 -0.2867
 3713TIP3    H132698   2.713   6.841   8.545 -0.2890  1.1840 -0.1013
 3713TIP3    H232699   2.824   6.777   8.465 -1.2755 -1.5460  0.6026
 3714TIP3   OH232700   1.222   5.278   0.075 -0.0226 -0.0390 -0.3040
 3714TIP3    H132701   1.154   5.217   0.103 -0.1860  0.5150  0.5328
 3714TIP3    H232702   1.291   5.268   0.140  1.4594 -1.7913 -2.0237
 3715TIP3   OH232703   0.892   0.777   0.400  0.5396 -0.0166  0.1652
 3715TIP3    H132704   0.885   0.737   0.486 -0.9029  1.3577  0.7311
 3715TIP3    H232705   0.857   0.712   0.340  0.2917 -0.4588  0.7786
 3716TIP3   OH232706   6.437   4.012   6.497  0.2325 -0.1536  0.2326
 3716TIP3    H132707   6.407   3.923   6.515 -0.4844  0.1996  0.8171
 3716TIP3    H232708   6.374   4.047   6.435  1.1029 -0.3973 -0.8165
 3717TIP3   OH232709   5.603   6.093   1.815 -0.2627  0.5376  0.1218
 3717TIP3    H132710   5.520   6.113   1.859 -0.7631  1.6630 -1.2351
 3717TIP3    H232711   5.667   6.152   1.857 -0.2024 -0.1152  0.9623
 3718TIP3   OH232712   3.679   3.803   1.575 -0.4930 -0.3572  0.0996
 3718TIP3    H132713   3.603   3.829   1.523 -0.4496  0.0924  0.2519
 3718TIP3    H232714   3.712   3.885   1.611 -1.2657 -0.7536  1.8444
 3719TIP3   OH232715   3.550   4.265   6.878 -0.0495  0.3901  0.4099
 3719TIP3    H132716   3.480   4.329   6.864 -0.5113 -0.0470  0.6901
 3719TIP3    H232717   3.626   4.303   6.833 -0.3576  1.0533  0.4319
 3720TIP3   OH232718   1.361   6.352   5.921  0.6164 -0.6172 -0.3666
 3720TIP3    H132719   1.325   6.431   5.882 -0.5973 -0.5447  0.8072
 3720TIP3    H232720   1.424   6.384   5.986  0.6809 -0.6438 -0.4163
 3721TIP3   OH232721   1.582   0.753   7.520  0.1343  0.6693 -0.2857
 3721TIP3    H132722   1.670   0.724   7.547  0.0372  0.8798  0.2638
 3721TIP3    H232723   1.571   0.715   7.433  0.1630 -0.6433  0.2619
 3722TIP3   OH232724   6.014   4.223   7.470 -0.0749 -0.1241 -0.0361
 3722TIP3    H132725   6.088   4.236   7.528  0.9209  0.1269 -1.3182
 3722TIP3    H232726   5.992   4.130   7.480  0.6765 -0.2960  0.0547
 3723TIP3   OH232727   6.285   1.869   7.399  0.1589 -0.1414 -0.0118
 3723TIP3    H132728   6.247   1.786   7.428 -1.0579  0.6729  0.8217
 3723TIP3    H232729   6.292   1.922   7.478 -2.2872  1.7757 -0.9263
 3724TIP3   OH232730   3.754   6.415   1.247  0.3769 -0.1115 -0.0974
 3724TIP3    H132731   3.825   6.394   1.187 -1.0269 -0.2232 -1.7964
 3724TIP3    H232732   3.760   6.510   1.259  0.7569 -0.1090 -0.3015
 3725TIP3   OH232733   2.235   4.369   7.133  0.0721  0.5467 -0.5256
 3725TIP3    H132734   2.237   4.443   7.073  3.8101  1.4321  0.4123
 3725TIP3    H232735   2.248   4.408   7.220  1.4993 -1.1204  0.0703
 3726TIP3   OH232736   6.699   1.714   8.531 -0.6232 -0.0805 -0.3774
 3726TIP3    H132737   6.736   1.658   8.462 -0.0714 -1.2404  0.8120
 3726TIP3    H232738   6.605   1.713   8.516 -0.5220 -0.4536 -1.0111
 3727TIP3   OH232739   2.276   6.507   6.707 -0.7576 -0.1092 -0.3718
 3727TIP3    H132740   2.235   6.512   6.621  0.5949  1.3136 -0.9621
 3727TIP3    H232741   2.212   6.548   6.766 -2.5273 -2.7273 -0.2834
 3728TIP3   OH232742   3.403   5.929   6.351 -0.1293  0.1847  0.8383
 3728TIP3    H132743   3.455   6.008   6.332  1.9285 -0.9130  1.5438
 3728TIP3    H232744   3.437   5.898   6.435 -0.6007 -1.6564  0.3941
 3729TIP3   OH232745   2.887   0.767   8.025  0.5388 -0.1814  0.6686
 3729TIP3    H132746   2.799   0.750   8.059  0.0603 -1.6500 -1.1331
 3729TIP3    H232747   2.939   0.787   8.102 -0.8442 -1.6669  2.0642
 3730TIP3   OH232748   2.116   2.402   7.697 -0.5664 -0.0382 -0.2591
 3730TIP3    H132749   2.203   2.416   7.734 -0.3834  1.5707 -1.2314
 3730TIP3    H232750   2.056   2.426   7.768 -0.2463 -0.8176  0.2934
 3731TIP3   OH232751   4.679   1.171   7.278  0.3196 -0.4404  0.6092
 3731TIP3    H132752   4.665   1.235   7.208 -2.0657 -0.7758  0.6681
 3731TIP3    H232753   4.696   1.223   7.356  0.5632  0.0290  0.2430
 3732TIP3   OH232754   5.177   4.894   0.222 -0.0911  0.6870 -0.2569
 3732TIP3    H132755   5.210   4.930   0.305 -0.3599 -0.8039  0.5298
 3732TIP3    H232756   5.245   4.833   0.194 -1.3889 -1.2225  0.5543
 3733TIP3   OH232757   4.596   3.253   7.579 -0.1261 -0.0763  0.4142
 3733TIP3    H132758   4.659   3.326   7.576 -0.0875 -0.1093  0.4225
 3733TIP3    H232759   4.615   3.202   7.501  1.0253 -1.0606  1.2926
 3734TIP3   OH232760   6.230   5.002   0.196  0.0647  0.3610 -0.3775
 3734TIP3    H132761   6.238   4.970   0.286 -0.6074  1.1117 -0.0431
 3734TIP3    H232762   6.251   4.926   0.142  1.6913  0.2287  0.4069
 3735TIP3   OH232763   4.483   4.312   1.000  0.0994 -0.2501 -0.1906
 3735TIP3    H132764   4.450   4.230   1.035  1.3236 -0.1890  1.1776
 3735TIP3    H232765   4.428   4.328   0.922 -2.4152 -0.6241  1.3754
 3736TIP3   OH232766   0.566   0.577   5.835  0.2386  0.1400  0.5075
 3736TIP3    H132767   0.590   0.538   5.919  0.6524  0.6038  0.6091
 3736TIP3    H232768   0.509   0.651   5.858 -0.4182 -0.2949  0.3240
 3737TIP3   OH232769   3.906   0.269   0.101 -0.1890 -0.7336 -0.6255
 3737TIP3    H132770   3.938   0.254   0.190 -0.9641  0.4805 -0.1184
 3737TIP3    H232771   3.984   0.292   0.051 -0.1724  2.2093  0.5987
 3738TIP3   OH232772   1.138   1.163   7.620  0.5181 -0.2249  0.0290
 3738TIP3    H132773   1.230   1.141   7.609  0.8420  0.4273  1.2317
 3738TIP3    H232774   1.134   1.257   7.603  0.3884  0.0696  1.5159
 3739TIP3   OH232775   5.327   0.315   0.915 -0.0596 -0.1351  0.1522
 3739TIP3    H132776   5.353   0.390   0.862 -0.6366 -1.2591 -1.8293
 3739TIP3    H232777   5.405   0.294   0.967  1.7351 -0.9287 -2.6381
 3740TIP3   OH232778   1.404   1.586   0.383  0.6437 -0.2062  0.3326
 3740TIP3    H132779   1.312   1.572   0.362  0.4582 -0.7088  1.3823
 3740TIP3    H232780   1.452   1.534   0.319  0.1608 -0.5964  0.2824
 3741TIP3   OH232781   2.189   3.850   1.530  0.2477  0.0801  0.0149
 3741TIP3    H132782   2.122   3.907   1.570  0.6799  0.3139  0.4212
 3741TIP3    H232783   2.150   3.763   1.531  0.0492  0.1675  0.5115
 3742TIP3   OH232784   0.028   2.013   8.203  0.0430 -0.1776 -0.5881
 3742TIP3    H132785   0.111   2.059   8.197  0.7656 -1.1660  1.1125
 3742TIP3    H232786   0.034   1.943   8.138  0.1729  0.2534 -1.0501
 3743TIP3   OH232787   1.433   1.853   1.284 -0.2900 -0.0213  0.3190
 3743TIP3    H132788   1.434   1.932   1.338 -0.3741 -0.4015  0.8763
 3743TIP3    H232789   1.491   1.792   1.329 -1.2876 -0.7649  0.6161
 3744TIP3   OH232790   5.418   0.895   2.122 -0.1234  0.3948 -0.5875
 3744TIP3    H132791   5.347   0.935   2.172  0.2270  0.8677 -0.4732
 3744TIP3    H232792   5.479   0.966   2.104  3.2932 -0.8621  4.2162
 3745TIP3   OH232793   4.090   4.157   0.368  0.0565 -0.6708 -0.0804
 3745TIP3    H132794   4.040   4.095   0.315 -0.2707 -0.4218 -0.0613
 3745TIP3    H232795   4.057   4.243   0.341  0.3137 -0.5178  0.0958
 3746TIP3   OH232796   0.598   5.543   6.892 -0.5686  0.5693 -0.8491
 3746TIP3    H132797   0.566   5.563   6.804 -1.7526  0.3000 -0.4858
 3746TIP3    H232798   0.691   5.567   6.889 -1.0541  2.5954 -1.5420
 3747TIP3   OH232799   1.185   0.088   0.919 -0.2357 -0.0990 -0.0022
 3747TIP3    H132800   1.183   0.184   0.929 -1.5539 -0.2345  1.3978
 3747TIP3    H232801   1.277   0.065   0.931 -0.0583  0.9189  0.7632
 3748TIP3   OH232802   2.863   5.371   0.037 -0.0755  0.8223  0.0935
 3748TIP3    H132803   2.942   5.316   0.040 -0.5890  0.0632 -0.1108
 3748TIP3    H232804   2.851   5.399   0.128 -0.9485 -1.0702  0.6162
 3749TIP3   OH232805   0.717   4.591   6.503 -0.3450  0.1117 -0.2229
 3749TIP3    H132806   0.758   4.571   6.587 -0.6896 -2.2718 -0.5388
 3749TIP3    H232807   0.642   4.646   6.526 -0.3502 -0.3790  1.0192
 3750TIP3   OH232808   5.116   3.073   2.069 -0.2789  0.8045  0.7179
 3750TIP3    H132809   5.177   3.076   1.996 -0.9582 -0.4615  0.0614
 3750TIP3    H232810   5.166   3.030   2.139 -0.6706 -1.1631 -0.1388
 3751TIP3   OH232811   4.189   6.590   1.717 -0.3080  0.2688 -0.0028
 3751TIP3    H132812   4.094   6.586   1.706 -0.3072  1.1738 -0.3785
 3751TIP3    H232813   4.202   6.607   1.810 -0.5759  1.8574 -0.2295
 3752TIP3   OH232814   1.958   2.073   1.040  0.2301  0.0301 -0.2275
 3752TIP3    H132815   1.915   2.145   0.992  0.2249  0.8216  0.9332
 3752TIP3    H232816   1.996   2.019   0.971 -0.6096  0.6017 -1.1802
 3753TIP3   OH232817   2.448   0.422   6.952  0.2450 -0.0163  0.1388
 3753TIP3    H132818   2.439   0.327   6.964 -0.3103 -0.1187 -0.9378
 3753TIP3    H232819   2.439   0.458   7.041  0.6589 -0.9772  0.5888
 3754TIP3   OH232820   2.758   2.965   7.170  0.1735 -0.2076 -0.3475
 3754TIP3    H132821   2.779   2.894   7.109  2.2467  0.9238 -1.0577
 3754TIP3    H232822   2.798   3.042   7.130  2.0994  0.5216  2.6775
 3755TIP3   OH232823   6.293   2.619   0.494  0.1705  0.0612 -0.2126
 3755TIP3    H132824   6.305   2.664   0.577 -1.5235 -0.7281  0.5050
 3755TIP3    H232825   6.305   2.526   0.514 -1.5665 -0.2613 -0.5292
 3756TIP3   OH232826   2.566   4.329   8.551 -0.2743  0.6498  0.7463
 3756TIP3    H132827   2.505   4.320   8.477 -0.1507 -1.0717  0.8243
 3756TIP3    H232828   2.605   4.242   8.561 -2.1496  0.0251  4.4669
 3757TIP3   OH232829   4.185   2.308   7.477  0.2136  0.8421  0.0225
 3757TIP3    H132830   4.247   2.263   7.534 -1.1113  1.0592  1.7044
 3757TIP3    H232831   4.153   2.240   7.418 -0.2800  0.0227  1.2170
 3758TIP3   OH232832   3.975   4.170   8.251 -0.2670 -0.2299  0.0431
 3758TIP3    H132833   3.881   4.153   8.259 -0.4315  0.8814  0.7164
 3758TIP3    H232834   4.000   4.129   8.168 -1.6723  0.7933 -0.9328
 3759TIP3   OH232835   3.977   4.768   1.754 -0.4648  0.4296 -0.0680
 3759TIP3    H132836   4.036   4.704   1.715 -0.3489 -1.0866  2.4376
 3759TIP3    H232837   3.950   4.823   1.680  4.4209  1.6213 -1.3088
 3760TIP3   OH232838   1.511   2.099   7.307 -0.4256 -0.2117 -0.1219
 3760TIP3    H132839   1.567   2.142   7.242  1.8738 -0.9647  1.2678
 3760TIP3    H232840   1.523   2.006   7.291 -2.6112 -0.4243 -0.8232
 3761TIP3   OH232841   4.042   3.077   8.334 -0.4045  0.2756  0.5989
 3761TIP3    H132842   4.007   3.049   8.418  2.0896  1.3158  2.0822
 3761TIP3    H232843   4.097   3.004   8.305 -0.4433  0.3265  0.3940
 3762TIP3   OH232844   4.953   2.626   7.146  0.1216 -0.0340 -0.3198
 3762TIP3    H132845   4.941   2.721   7.157 -4.3140 -0.5789  1.8025
 3762TIP3    H232846   4.946   2.612   7.052  0.3288  1.7200 -0.6378
 3763TIP3   OH232847   0.273   5.746   8.053 -0.2049 -0.3532  0.2190
 3763TIP3    H132848   0.363   5.720   8.031 -1.2712 -1.9148 -2.7945
 3763TIP3    H232849   0.221   5.667   8.036 -2.4561  1.2099 -0.5106
 3764TIP3   OH232850   6.479   0.709   8.374  0.3077 -0.2123 -0.2794
 3764TIP3    H132851   6.487   0.741   8.284  2.6643  0.0613 -0.0237
 3764TIP3    H232852   6.567   0.717   8.410 -0.4677 -0.8719  1.8840
 3765TIP3   OH232853   0.051   0.079   8.264  0.0081  0.5023 -0.0992
 3765TIP3    H132854   0.142   0.076   8.292  0.0649  0.3554 -0.2994
 3765TIP3    H232855   0.001   0.051   8.341  0.2740 -1.7390 -0.6657
 3766TIP3   OH232856   1.028   3.732   0.589  0.3092 -0.5064 -0.0571
 3766TIP3    H132857   1.114   3.764   0.561 -0.0789 -1.4828 -2.6203
 3766TIP3    H232858   1.005   3.666   0.524 -2.1303 -0.7121  0.9291
 3767TIP3   OH232859   3.499   1.711   1.537  0.1450 -0.7013 -0.6801
 3767TIP3    H132860   3.559   1.776   1.575  1.2501 -1.2418 -1.4667
 3767TIP3    H232861   3.493   1.642   1.604 -0.6737 -0.0396 -0.0381
 3768TIP3   OH232862   3.689   0.857   7.292 -0.2730 -0.4956  0.0346
 3768TIP3    H132863   3.709   0.774   7.334  0.7035 -1.1964 -1.7461
 3768TIP3    H232864   3.746   0.920   7.336  1.0003 -1.2801 -0.4401
 3769TIP3   OH232865   4.577   6.389   8.595  0.3523 -0.2165 -0.8168
 3769TIP3    H132866   4.593   6.470   8.547 -0.7337  0.4398 -0.0971
 3769TIP3    H232867   4.544   6.417   8.681  0.3946 -1.4074 -0.3869
 3770TIP3   OH232868   1.097   6.649   6.746 -0.0265 -0.1523 -0.0486
 3770TIP3    H132869   1.060   6.563   6.726 -3.0197  0.7978  0.9031
 3770TIP3    H232870   1.157   6.667   6.674  0.0634 -2.6705 -0.6767
 3771TIP3   OH232871   5.239   0.797   8.494 -0.8994  0.2594 -0.3942
 3771TIP3    H132872   5.258   0.770   8.584 -1.4860 -2.0033 -0.8866
 3771TIP3    H232873   5.169   0.739   8.466  0.1899 -0.0418 -2.7572
 3772TIP3   OH232874   3.556   1.122   8.506  0.6334  0.1284  0.5652
 3772TIP3    H132875   3.525   1.108   8.595 -0.5966 -1.3839 -0.0568
 3772TIP3    H232876   3.541   1.216   8.490 -0.7045  0.0761  1.3868
 3773TIP3   OH232877   3.015   4.909   8.315  0.3546  0.2843 -0.4678
 3773TIP3    H132878   2.996   4.822   8.351 -0.2579  1.1174  1.3065
 3773TIP3    H232879   3.110   4.909   8.302  0.7603  0.2645  2.1363
 3774TIP3   OH232880   2.157   4.686   0.744  0.2033  0.0113  0.6273
 3774TIP3    H132881   2.175   4.598   0.711 -0.9468 -0.4976  1.3010
 3774TIP3    H232882   2.142   4.674   0.838 -0.0373  0.9096  0.7173
 3775TIP3   OH232883   0.183   5.864   7.669  0.2635 -0.0392 -0.1403
 3775TIP3    H132884   0.214   5.892   7.583 -1.1908 -0.9154 -0.9879
 3775TIP3    H232885   0.107   5.921   7.687 -0.1896 -0.6691 -0.0124
 3776TIP3   OH232886   1.984   3.647   1.006 -0.1394  0.1418  0.2340
 3776TIP3    H132887   1.922   3.719   0.993  1.6301  1.6725 -0.0538
 3776TIP3    H232888   1.952   3.577   0.949 -1.0192  1.2581 -0.6837
 3777TIP3   OH232889   1.003   3.294   7.345 -0.1648 -0.0023 -1.1011
 3777TIP3    H132890   1.016   3.334   7.431  0.3035 -2.4465  0.0446
 3777TIP3    H232891   0.936   3.348   7.304 -1.5474  0.3689  1.4254
 3778TIP3   OH232892   5.156   6.013   8.269 -0.2694 -0.0684  0.3937
 3778TIP3    H132893   5.204   6.092   8.292 -1.3716  0.8106 -0.2508
 3778TIP3    H232894   5.080   6.044   8.220 -0.2127 -1.5757 -0.7426
 3779TIP3   OH232895   6.027   2.842   1.426  0.2905  1.0554 -0.4875
 3779TIP3    H132896   6.067   2.926   1.403 -0.5214  1.1947 -1.4379
 3779TIP3    H232897   5.936   2.864   1.447  0.6853  0.7688  1.8181
 3780TIP3   OH232898   5.862   2.770   0.251  0.9587  0.6275 -0.1574
 3780TIP3    H132899   5.921   2.748   0.323  0.1538 -2.5636 -0.3434
 3780TIP3    H232900   5.920   2.799   0.180  1.8565  2.3113  1.1738
 3781TIP3   OH232901   1.587   2.895   8.619 -0.1512  0.1329  1.0238
 3781TIP3    H132902   1.493   2.888   8.602 -0.3352 -0.6351  2.2095
 3781TIP3    H232903   1.607   2.988   8.607 -0.8893  0.1731 -0.0276
 3782TIP3   OH232904   0.721   4.682   0.025 -0.3474 -0.3642  0.4237
 3782TIP3    H132905   0.631   4.713   0.013 -0.6860 -1.6428 -0.4812
 3782TIP3    H232906   0.716   4.624   0.102 -0.9478 -2.7370 -1.3008
 3783TIP3   OH232907   6.414   3.298   7.097  0.1288 -0.0734  0.5435
 3783TIP3    H132908   6.420   3.313   7.003  1.0824  2.2050  0.9232
 3783TIP3    H232909   6.474   3.225   7.114  0.2622 -0.2288 -0.5374
 3784TIP3   OH232910   4.846   3.045   7.863 -0.7410 -0.2345  0.6035
 3784TIP3    H132911   4.804   3.129   7.879 -1.4811 -0.2771 -0.9088
 3784TIP3    H232912   4.790   2.981   7.907  0.6436  0.1310  3.0786
 3785TIP3   OH232913   0.284   2.559   1.755 -0.3070 -0.4450 -0.1602
 3785TIP3    H132914   0.203   2.609   1.768  0.3043  0.7245 -0.6677
 3785TIP3    H232915   0.313   2.583   1.666  0.4609 -1.0395 -0.0801
 3786TIP3   OH232916   2.372   6.754   2.054 -0.4581 -0.3748  0.1889
 3786TIP3    H132917   2.335   6.723   2.137 -2.3985 -1.8908 -1.1383
 3786TIP3    H232918   2.454   6.707   2.045 -0.7853 -1.0633  0.7312
 3787TIP3   OH232919   5.878   5.302   7.660 -0.1786 -0.1331  0.0435
 3787TIP3    H132920   5.926   5.361   7.602 -0.1037  0.1293  0.3724
 3787TIP3    H232921   5.803   5.353   7.690  0.3855  0.1207  1.0675
 3788TIP3   OH232922   2.324   1.600   6.271  0.2632  0.6343  0.1461
 3788TIP3    H132923   2.420   1.600   6.278  0.3820  0.7928 -1.2386
 3788TIP3    H232924   2.303   1.521   6.222 -0.3666  0.3740  0.8104
 3789TIP3   OH232925   0.834   3.429   7.140 -0.3446  0.1745 -0.1503
 3789TIP3    H132926   0.803   3.519   7.140 -2.6043 -0.5345  0.6718
 3789TIP3    H232927   0.836   3.404   7.047 -1.1152  0.6482 -0.3043
 3790TIP3   OH232928   2.886   5.154   0.854 -0.7619  0.1798  0.0142
 3790TIP3    H132929   2.974   5.177   0.884 -1.0462  1.0355  0.2081
 3790TIP3    H232930   2.876   5.061   0.878  0.4203 -0.1929 -0.8405
 3791TIP3   OH232931   2.002   6.273   0.919  0.2372  0.2359 -0.0294
 3791TIP3    H132932   1.966   6.268   1.007  0.7464  0.3260  0.1902
 3791TIP3    H232933   1.928   6.298   0.864 -0.2619 -0.5990  0.2446
 3792TIP3   OH232934   2.657   1.747   7.306  0.5959  0.1936  0.0727
 3792TIP3    H132935   2.682   1.677   7.245  1.3777  1.6651 -1.3864
 3792TIP3    H232936   2.726   1.813   7.296 -0.3580  1.3941  1.0498
 3793TIP3   OH232937   3.729   0.422   0.258  0.5447 -0.6892  0.1348
 3793TIP3    H132938   3.773   0.391   0.179  1.5040  2.2479 -0.6133
 3793TIP3    H232939   3.799   0.426   0.324  0.3927 -0.3770  0.2796
 3794TIP3   OH232940   0.740   3.860   8.250 -0.1909  0.4933 -0.6116
 3794TIP3    H132941   0.703   3.873   8.337 -2.8300  0.1428 -1.5768
 3794TIP3    H232942   0.731   3.945   8.207 -1.4543 -0.0059 -1.3845
 3795TIP3   OH232943   2.121   3.093   7.930 -0.4911  0.2521  0.5321
 3795TIP3    H132944   2.216   3.105   7.931 -0.5333  0.9853 -1.1864
 3795TIP3    H232945   2.106   3.016   7.986  1.1434 -0.1396  0.4834
 3796TIP3   OH232946   6.637   6.217   1.088 -0.0633  0.0564 -0.1808
 3796TIP3    H132947   6.678   6.300   1.111  0.4247 -0.3639  0.4781
 3796TIP3    H232948   6.605   6.181   1.171  1.4954 -1.3595 -0.1408
 3797TIP3   OH232949   2.819   2.743   7.580 -0.7130  0.6461  0.2482
 3797TIP3    H132950   2.850   2.737   7.489  0.1882  1.2542  0.4997
 3797TIP3    H232951   2.897   2.768   7.630 -1.2814  0.6736  1.1389
 3798TIP3   OH232952   3.942   3.981   2.572 -0.4940  0.0789  0.0512
 3798TIP3    H132953   3.956   3.897   2.617 -1.1036 -0.5711 -0.9365
 3798TIP3    H232954   3.861   4.015   2.610 -1.5168 -0.9156 -1.1652
 3799TIP3   OH232955   6.639   2.574   0.067 -0.4179 -0.0728  0.1980
 3799TIP3    H132956   6.723   2.619   0.073 -0.5953  0.6449 -1.8356
 3799TIP3    H232957   6.573   2.641   0.087 -0.5695 -0.3622  0.7101
 3800TIP3   OH232958   4.055   0.798   8.268  0.2701  0.0771  0.1786
 3800TIP3    H132959   4.008   0.866   8.316  1.4473  0.1377  1.3231
 3800TIP3    H232960   4.009   0.790   8.185 -1.7314  0.1050  1.2451
 3801TIP3   OH232961   1.547   3.629   0.966 -0.4736 -0.4197 -0.0553
 3801TIP3    H132962   1.622   3.574   0.990 -0.5211 -0.9469 -1.0622
 3801TIP3    H232963   1.583   3.696   0.908 -1.0169 -1.6955 -1.9583
 3802TIP3   OH232964   4.752   4.605   1.116 -0.3088  0.2811  0.3602
 3802TIP3    H132965   4.683   4.662   1.152  0.5207  0.9612  0.9018
 3802TIP3    H232966   4.749   4.621   1.022 -1.2891 -0.1466  0.3031
 3803TIP3   OH232967   1.451   1.945   1.606 -0.1489  0.0375 -0.2544
 3803TIP3    H132968   1.507   2.012   1.567  0.2944 -1.4711 -2.3639
 3803TIP3    H232969   1.483   1.863   1.570 -1.2522 -1.2557  1.5572
 3804TIP3   OH232970   5.318   1.549   7.101  0.1067  0.1565 -0.5886
 3804TIP3    H132971   5.296   1.494   7.026  1.8543 -0.4223 -0.7101
 3804TIP3    H232972   5.402   1.588   7.079  0.8531 -0.3137  1.2154
 3805TIP3   OH232973   5.777   0.031   0.041  0.1164  0.0012 -0.0798
 3805TIP3    H132974   5.712   0.085  -0.005 -1.9107 -2.0069  0.2859
 3805TIP3    H232975   5.785  -0.048  -0.013 -0.7512 -1.4960  1.8484
 3806TIP3   OH232976   2.059   3.707   8.561 -0.1380  0.1802 -0.3274
 3806TIP3    H132977   2.039   3.706   8.655  0.7825 -0.3804 -0.1251
 3806TIP3    H232978   2.111   3.786   8.550  1.8698 -1.0145  0.1246
 3807TIP3   OH232979   1.994   1.101   5.844  0.0877 -0.0793  0.0505
 3807TIP3    H132980   2.043   1.035   5.795 -0.7358  0.0806 -1.0307
 3807TIP3    H232981   2.060   1.162   5.876  0.6243 -0.0450 -1.1008
 3808TIP3   OH232982   0.752   5.223   7.963 -0.1331 -0.5631  0.6788
 3808TIP3    H132983   0.668   5.268   7.949 -0.2138 -0.5059  1.2944
 3808TIP3    H232984   0.727   5.135   7.992 -0.0024 -1.7221 -2.3927
 3809TIP3   OH232985   0.119   5.641   0.034 -0.6953 -0.0522 -0.3004
 3809TIP3    H132986   0.198   5.600  -0.001 -0.4645 -0.1790  0.3576
 3809TIP3    H232987   0.094   5.706  -0.032 -1.7060 -1.9850 -1.9011
 3810TIP3   OH232988   5.173   0.201   7.865  0.1176 -0.2187 -0.1502
 3810TIP3    H132989   5.266   0.180   7.866  0.7369  2.1694  0.3624
 3810TIP3    H232990   5.163   0.268   7.934 -1.5183  1.2103 -1.6665
 3811TIP3   OH232991   0.689   3.844   8.543 -0.2868 -0.3969 -0.1722
 3811TIP3    H132992   0.653   3.804   8.622  0.8666 -1.9706 -0.3887
 3811TIP3    H232993   0.719   3.930   8.571 -1.7004 -0.1345  0.6118
 3812TIP3   OH232994   2.077   0.334   2.307  0.2170  0.5908 -0.4461
 3812TIP3    H132995   1.999   0.389   2.312  0.1971  0.4757  0.7988
 3812TIP3    H232996   2.044   0.249   2.279  0.0352  0.7911 -0.8537
 3813TIP3   OH232997   5.445   3.342   2.593 -0.0860 -0.4935  0.1360
 3813TIP3    H132998   5.356   3.310   2.575 -0.5978 -1.6846  3.8737
 3813TIP3    H232999   5.498   3.263   2.602  1.1191  0.1708 -0.8205
 3814TIP3   OH233000   4.919   5.803   2.041 -0.6464  0.0303  0.4288
 3814TIP3    H133001   4.874   5.718   2.049 -0.4300  0.0207  1.7039
 3814TIP3    H233002   4.996   5.795   2.097 -0.4027  0.9347  0.2341
 3815TIP3   OH233003   1.478   5.185   6.888 -0.5295  0.1100 -0.5749
 3815TIP3    H133004   1.543   5.171   6.956 -0.7479  1.3469 -0.1011
 3815TIP3    H233005   1.505   5.127   6.817  0.9799  0.4743 -0.3241
 3816TIP3   OH233006   1.660   1.143   0.260 -0.4348  0.6090 -0.6133
 3816TIP3    H133007   1.689   1.179   0.344 -0.2322 -0.4260 -0.2189
 3816TIP3    H233008   1.739   1.141   0.206 -0.4103  0.6016 -0.5775
 3817TIP3   OH233009   3.634   4.244   1.705 -0.3947 -0.1612  0.3219
 3817TIP3    H133010   3.558   4.267   1.652  0.9683  0.5563 -1.4214
 3817TIP3    H233011   3.683   4.326   1.714  1.1657 -0.9819 -0.2899
 3818TIP3   OH233012   4.478   3.333   8.434 -0.0261 -0.4926 -0.5256
 3818TIP3    H133013   4.550   3.373   8.482 -1.4177 -0.3369  1.5388
 3818TIP3    H233014   4.495   3.356   8.343  1.1825  1.6780  0.1792
 3819TIP3   OH233015   4.252   2.146   8.067  0.3309  0.4616  0.2613
 3819TIP3    H133016   4.216   2.165   8.154 -2.2291  1.6070 -0.9353
 3819TIP3    H233017   4.241   2.051   8.057  0.3443  0.3679  1.0432
 3820TIP3   OH233018   5.026   0.790   0.389  0.3537  0.0766 -0.0787
 3820TIP3    H133019   4.987   0.731   0.325 -0.4793 -0.7061  1.0962
 3820TIP3    H233020   5.015   0.878   0.351 -1.6515 -0.2140 -0.2858
 3821TIP3   OH233021   3.460   5.064   6.974  0.2561  0.1728  0.5442
 3821TIP3    H133022   3.380   5.024   6.941  0.6131  0.1099 -0.2789
 3821TIP3    H233023   3.520   5.063   6.899  1.1849 -0.2046  1.2697
 3822TIP3   OH233024   5.955   6.516   0.614  0.2266  0.3837 -0.5043
 3822TIP3    H133025   5.931   6.434   0.657 -0.5230  1.2314  0.7449
 3822TIP3    H233026   5.879   6.538   0.560  0.5045  0.1816 -0.9923
 3823TIP3   OH233027   3.425   5.028   1.178 -0.1241 -0.3479  0.2748
 3823TIP3    H133028   3.368   4.991   1.111 -1.3599  0.4759  0.8122
 3823TIP3    H233029   3.427   5.122   1.159  1.9580 -0.4732 -0.3552
 3824TIP3   OH233030   0.920   4.464   6.106  0.4310 -0.6755  0.1745
 3824TIP3    H133031   0.862   4.524   6.153 -0.6853 -0.8475 -0.9296
 3824TIP3    H233032   0.886   4.377   6.125  0.9710 -0.8489  0.3581
 3825TIP3   OH233033   3.541   6.188   0.078 -0.0263  0.0243 -0.1295
 3825TIP3    H133034   3.554   6.113   0.135 -0.2599  0.6554  0.7770
 3825TIP3    H233035   3.459   6.169   0.031  1.1413 -1.3717 -1.7124
 3826TIP3   OH233036   0.935   1.763   6.872 -0.1591 -0.0786  0.5152
 3826TIP3    H133037   0.995   1.754   6.798 -0.0608  0.4667  0.5232
 3826TIP3    H233038   0.849   1.740   6.836 -0.2278  0.8719  0.0442
 3827TIP3   OH233039   4.068   6.189   0.631  0.2879 -0.1766 -0.2372
 3827TIP3    H133040   4.145   6.207   0.578  1.6135  0.3228  1.7538
 3827TIP3    H233041   4.002   6.251   0.599  0.6302 -0.6719 -2.0180
 3828TIP3   OH233042   0.475   5.146   0.030 -0.3777 -0.2440  0.1634
 3828TIP3    H133043   0.448   5.175  -0.057  0.8546  2.5378  0.6031
 3828TIP3    H233044   0.400   5.097   0.064 -1.3430 -0.3446 -1.9745
 3829TIP3   OH233045   1.292   6.350   7.378 -0.0875  0.2335 -0.3635
 3829TIP3    H133046   1.342   6.425   7.409 -0.3405  0.0053  0.6197
 3829TIP3    H233047   1.204   6.385   7.362  0.2203  0.5174 -1.5950
 3830TIP3   OH233048   0.629   0.824   6.380  0.5688 -0.3661 -0.1812
 3830TIP3    H133049   0.612   0.841   6.287 -0.7258 -1.8696 -0.2859
 3830TIP3    H233050   0.708   0.873   6.400  1.1828 -0.4148 -2.2226
 3831TIP3   OH233051   6.187   1.063   1.681 -0.1388 -0.0608  0.3650
 3831TIP3    H133052   6.281   1.061   1.700 -0.2903 -0.6259  1.0704
 3831TIP3    H233053   6.175   1.142   1.628  0.4710  0.9085  1.6287
 3832TIP3   OH233054   3.148   0.488   0.938 -0.2122 -0.1829  0.1342
 3832TIP3    H133055   3.215   0.492   1.006 -0.4945 -2.5184  0.6150
 3832TIP3    H233056   3.076   0.439   0.977 -0.7534 -0.7897 -1.5300
 3833TIP3   OH233057   3.675   4.550   2.115  0.2836  0.1324  0.0115
 3833TIP3    H133058   3.742   4.606   2.076  0.9825 -0.6305  0.0971
 3833TIP3    H233059   3.612   4.611   2.153  0.3315  0.8703 -1.0601
 3834TIP3   OH233060   0.400   6.566   1.730  0.1156 -0.1954  0.0871
 3834TIP3    H133061   0.461   6.633   1.760  1.8937 -0.5192 -2.4177
 3834TIP3    H233062   0.334   6.561   1.798  0.2506  3.6027  0.7304
 3835TIP3   OH233063   3.036   3.332   7.017  0.1827 -1.4370 -0.6925
 3835TIP3    H133064   2.993   3.325   6.932 -0.5112 -1.5376 -0.3356
 3835TIP3    H233065   3.004   3.415   7.053  2.9837  0.3325 -1.8959
 3836TIP3   OH233066   2.786   3.839   0.303 -0.3546  0.5412  0.4582
 3836TIP3    H133067   2.827   3.814   0.385 -0.0921 -0.3537  0.0665
 3836TIP3    H233068   2.768   3.756   0.258 -1.7235  0.9462  0.1987
 3837TIP3   OH233069   1.277   6.710   6.506  0.1632  0.7429 -0.4766
 3837TIP3    H133070   1.205   6.685   6.447 -1.0281 -0.0323  1.2389
 3837TIP3    H233071   1.281   6.806   6.498 -0.1342  0.6824 -1.6022
 3838TIP3   OH233072   1.854   5.080   2.324  0.5545  0.1727 -0.0083
 3838TIP3    H133073   1.900   5.149   2.276  3.2468 -1.1522  0.4717
 3838TIP3    H233074   1.874   5.097   2.416  0.1139 -0.4469  0.2095
 3839TIP3   OH233075   5.893   2.057   7.627  0.3820  0.1588 -0.2238
 3839TIP3    H133076   5.941   2.111   7.690 -0.2210  0.5320 -0.0712
 3839TIP3    H233077   5.917   1.967   7.649  1.1777  0.3401 -0.2970
 3840TIP3   OH233078   3.795   1.627   7.905  0.3694  0.0070 -0.2828
 3840TIP3    H133079   3.880   1.584   7.901  0.5039  0.2928 -0.5201
 3840TIP3    H233080   3.802   1.701   7.845 -0.1756 -0.1960 -0.6023
 3841TIP3   OH233081   5.662   2.195   8.236 -0.0630  0.4326  0.2780
 3841TIP3    H133082   5.598   2.235   8.295 -1.6841  0.6604 -1.5359
 3841TIP3    H233083   5.731   2.261   8.228 -0.6522  1.1065  0.6008
 3842TIP3   OH233084   4.551   1.700   0.442 -0.6361 -0.0675  0.3781
 3842TIP3    H133085   4.631   1.666   0.481 -0.0117  0.7333 -0.1803
 3842TIP3    H233086   4.491   1.624   0.440  0.8860 -1.3151 -1.3010
 3843TIP3   OH233087   4.554   1.904   7.099  0.1523 -0.2781 -0.1144
 3843TIP3    H133088   4.615   1.955   7.045  0.9376 -1.4566 -0.3732
 3843TIP3    H233089   4.482   1.883   7.040 -0.7547  1.4679  0.3014
 3844TIP3   OH233090   5.972   5.934   1.900  0.2934 -1.1054  0.3860
 3844TIP3    H133091   6.036   5.935   1.971  0.9786  2.8364 -0.0561
 3844TIP3    H233092   5.887   5.924   1.944  0.7680  0.4718  1.7406
 3845TIP3   OH233093   3.046   2.864   0.214  0.0806 -0.0027 -0.1926
 3845TIP3    H133094   3.005   2.778   0.213  2.8424 -1.4574  0.3195
 3845TIP3    H233095   3.047   2.890   0.306  0.6123 -0.1560 -0.1512
 3846TIP3   OH233096   0.652   5.641   0.526 -0.2388 -0.4090  0.1048
 3846TIP3    H133097   0.717   5.711   0.532  0.0993 -0.6548 -0.5934
 3846TIP3    H233098   0.583   5.677   0.470  0.6544 -1.1602 -1.5284
 3847TIP3   OH233099   4.569   0.967   7.508 -0.1656 -0.1062  0.4364
 3847TIP3    H133100   4.655   0.998   7.539  0.5129 -2.4621  1.0795
 3847TIP3    H233101   4.541   0.904   7.574 -2.0330 -0.0254 -0.2204
 3848TIP3   OH233102   6.368   3.299   1.523 -1.2400 -0.3958 -0.3409
 3848TIP3    H133103   6.461   3.302   1.498 -1.3447 -0.3478 -0.7252
 3848TIP3    H233104   6.356   3.212   1.559 -1.0489 -0.4067 -0.2983
 3849TIP3   OH233105   1.396   1.519   1.948  0.0927  0.5031 -0.2107
 3849TIP3    H133106   1.312   1.548   1.915  0.8926  1.4352 -1.5324
 3849TIP3    H233107   1.404   1.558   2.035 -0.4337  1.1804 -0.4665
 3850TIP3   OH233108   4.893   4.944   8.390  0.6448  0.1203  0.1500
 3850TIP3    H133109   4.857   5.023   8.348  0.1735 -0.7043 -1.0663
 3850TIP3    H233110   4.823   4.915   8.450 -0.0978 -0.5557 -0.9975
 3851TIP3   OH233111   5.832   4.146   8.072  0.7735 -0.3353  0.1028
 3851TIP3    H133112   5.780   4.152   8.152 -0.6465  0.9581 -0.8571
 3851TIP3    H233113   5.908   4.093   8.097 -0.0331 -0.6706  2.0673
 3852TIP3   OH233114   1.272   5.058   6.235 -0.1640  0.7984 -0.1387
 3852TIP3    H133115   1.235   5.129   6.287 -1.2234 -0.5901  1.0860
 3852TIP3    H233116   1.216   5.053   6.158 -0.8184  0.5581  0.3385
 3853TIP3   OH233117   4.659   5.785   1.170 -0.0159 -0.0800  0.5189
 3853TIP3    H133118   4.660   5.697   1.132  0.6899 -0.0004  0.3313
 3853TIP3    H233119   4.567   5.811   1.168 -0.3941 -1.2472  1.6212
 3854TIP3   OH233120   3.019   2.114   1.174 -0.3162  1.2696 -0.2717
 3854TIP3    H133121   3.081   2.073   1.114 -1.0739 -0.6237  0.1520
 3854TIP3    H233122   3.053   2.095   1.261 -0.4480  1.9809 -0.0539
 3855TIP3   OH233123   1.397   2.667   1.968  0.5772  0.1823  0.1972
 3855TIP3    H133124   1.449   2.592   1.996  2.1976  1.0578 -0.3415
 3855TIP3    H233125   1.320   2.628   1.925 -0.3102 -1.1514  2.7817
 3856TIP3   OH233126   6.008   1.541   7.238  0.0538 -0.5839 -0.1384
 3856TIP3    H133127   6.055   1.568   7.160 -4.3463  3.6672 -1.8267
 3856TIP3    H233128   6.042   1.598   7.307 -0.9007  0.9178 -0.8386
 3857TIP3   OH233129   2.054   1.907   2.510 -0.0109  0.3915 -0.0226
 3857TIP3    H133130   2.067   2.001   2.496 -1.7960  0.6630 -0.0045
 3857TIP3    H233131   1.961   1.898   2.531  0.0319 -1.4382 -0.4684
 3858TIP3   OH233132   5.220   6.216   7.854 -0.5397  0.2146 -0.1280
 3858TIP3    H133133   5.211   6.127   7.889  0.7169  0.6412  1.3850
 3858TIP3    H233134   5.148   6.264   7.892 -0.0495  0.3115  0.6979
 3859TIP3   OH233135   5.398   3.705   8.147  0.0605  0.7050 -0.4856
 3859TIP3    H133136   5.408   3.724   8.053 -1.3528 -0.2142 -0.8665
 3859TIP3    H233137   5.321   3.647   8.151  2.5350 -2.8483  0.7691
 3860TIP3   OH233138   2.127   6.186   0.674 -0.0145 -0.4023  0.3423
 3860TIP3    H133139   2.217   6.165   0.698  0.2033 -1.2602 -1.1307
 3860TIP3    H233140   2.084   6.207   0.757  1.0247 -1.9836  1.3179
 3861TIP3   OH233141   6.312   5.498   2.407 -0.0515  0.4166 -0.2111
 3861TIP3    H133142   6.325   5.404   2.417 -2.5261  0.2588  3.7182
 3861TIP3    H233143   6.235   5.506   2.351 -0.2931  0.0418  0.0646
 3862TIP3   OH233144   6.205   5.076   7.418 -0.0147  0.1642 -0.3532
 3862TIP3    H133145   6.297   5.095   7.400  0.0268  0.3127  0.0124
 3862TIP3    H233146   6.207   4.988   7.457 -0.0157  0.2232 -0.2210
 3863TIP3   OH233147   6.433   0.179   7.335 -0.3876 -0.8505 -0.1644
 3863TIP3    H133148   6.517   0.190   7.380 -0.2444 -0.4996 -0.5130
 3863TIP3    H233149   6.432   0.249   7.270 -1.5752  0.0596  0.7893
 3864TIP3   OH233150   5.559   5.260   1.417  0.2202 -0.3783 -1.2807
 3864TIP3    H133151   5.616   5.242   1.492 -0.6189 -1.3293 -0.8552
 3864TIP3    H233152   5.560   5.179   1.366 -0.7095 -0.3828 -1.2976
 3865TIP3   OH233153   1.021   4.652   1.571  0.5053 -0.1951 -0.6409
 3865TIP3    H133154   1.105   4.658   1.618  0.1853  1.2273 -0.1999
 3865TIP3    H233155   1.036   4.586   1.504  2.1242  0.3186 -0.8373
 3866TIP3   OH233156   5.450   3.067   2.290  0.5753 -0.2882 -0.1444
 3866TIP3    H133157   5.506   3.038   2.363  0.3888 -0.2549  0.0112
 3866TIP3    H233158   5.367   3.022   2.304  0.8851 -1.1427 -0.9461
 3867TIP3   OH233159   2.353   6.448   6.372 -0.2352  0.0382 -0.3724
 3867TIP3    H133160   2.439   6.422   6.406  0.2560  1.9087 -0.1137
 3867TIP3    H233161   2.372   6.500   6.294 -1.1920 -0.4121 -0.9179
 3868TIP3   OH233162   1.259   5.600   7.638  0.0953  0.1553  0.1536
 3868TIP3    H133163   1.287   5.676   7.588  0.8583 -1.2832 -1.7138
 3868TIP3    H233164   1.308   5.606   7.720  0.4911  1.4003 -0.1467
 3869TIP3   OH233165   3.971   5.235   0.429 -0.1746 -0.3497  0.3981
 3869TIP3    H133166   3.989   5.188   0.511  2.5456  1.2171  0.8308
 3869TIP3    H233167   3.989   5.171   0.360  1.5046 -0.5749  1.0051
 3870TIP3   OH233168   4.949   2.528   7.424 -0.0794 -0.2437  0.0318
 3870TIP3    H133169   4.865   2.573   7.427 -0.1656 -0.3776 -0.2716
 3870TIP3    H233170   4.942   2.459   7.491 -0.0534  0.0087  0.2956
 3871TIP3   OH233171   5.060   1.195   0.414  0.4373  0.7180 -0.0202
 3871TIP3    H133172   5.053   1.235   0.327  0.1661  1.0714  0.1636
 3871TIP3    H233173   5.098   1.263   0.469  1.3311  0.2377 -0.0271
 3872TIP3   OH233174   2.097   1.945   8.587 -0.4283 -0.0178  0.1186
 3872TIP3    H133175   2.180   1.991   8.593 -0.0820 -0.7070  0.6784
 3872TIP3    H233176   2.077   1.945   8.494 -0.0961  0.6611  0.0394
 3873TIP3   OH233177   2.406   6.445   0.552 -0.8401  0.2456 -0.5198
 3873TIP3    H133178   2.437   6.363   0.591 -1.5775  0.2479  0.0963
 3873TIP3    H233179   2.486   6.491   0.525 -0.3369  0.0381  0.5826
 3874TIP3   OH233180   3.855   6.001   0.426  0.2949  0.0195 -0.2639
 3874TIP3    H133181   3.812   5.951   0.357  1.6387 -1.2687 -0.2275
 3874TIP3    H233182   3.831   6.092   0.408 -0.8120 -0.4568 -1.3712
 3875TIP3   OH233183   2.485   1.119   7.302 -0.1882  0.0634 -0.2069
 3875TIP3    H133184   2.467   1.074   7.220  2.4530 -2.1758  0.3042
 3875TIP3    H233185   2.505   1.048   7.364  0.7008  1.8026  1.6032
 3876TIP3   OH233186   5.520   1.804   7.467  0.0453 -0.7475 -0.3947
 3876TIP3    H133187   5.555   1.853   7.392 -1.4256  0.0676 -0.5733
 3876TIP3    H233188   5.465   1.867   7.513 -0.0044 -1.5849  0.7155
 3877TIP3   OH233189   1.098   1.215   1.213  0.3494  0.0674 -0.9287
 3877TIP3    H133190   1.179   1.169   1.191  0.5430 -0.3091  0.5246
 3877TIP3    H233191   1.035   1.146   1.233  0.3002  0.3957  0.0879
 3878TIP3   OH233192   6.138   5.353   6.480  0.1727 -0.6091 -0.0399
 3878TIP3    H133193   6.231   5.364   6.460  0.4910 -1.4153  0.8693
 3878TIP3    H233194   6.102   5.441   6.481  1.0973 -0.2304  0.3448
 3879TIP3   OH233195   0.151   6.760   8.084 -0.1768 -0.5550  0.0806
 3879TIP3    H133196   0.200   6.797   8.157  0.8252 -1.5648 -0.0667
 3879TIP3    H233197   0.081   6.824   8.067  1.8933  1.6602 -0.6297
 3880TIP3   OH233198   4.419   5.547   8.318  0.1486 -0.0797  0.0204
 3880TIP3    H133199   4.407   5.642   8.317 -0.1510  0.0863  3.6421
 3880TIP3    H233200   4.369   5.516   8.243 -0.8284  2.5207 -0.5262
 3881TIP3   OH233201   1.171   5.829   7.406  0.7950  0.0933 -0.0158
 3881TIP3    H133202   1.083   5.793   7.406  0.8167  0.0257 -0.8579
 3881TIP3    H233203   1.189   5.848   7.499  0.8954 -2.2867  0.5040
 3882TIP3   OH233204   5.195   4.261   0.707  0.4203 -0.4203  0.1853
 3882TIP3    H133205   5.120   4.318   0.688  1.8538  0.8400 -2.1302
 3882TIP3    H233206   5.163   4.173   0.687 -0.9364 -0.1455  0.9623
 3883TIP3   OH233207   3.376   2.146   1.155 -0.3136 -0.5543 -0.1616
 3883TIP3    H133208   3.411   2.084   1.219 -0.9823  0.5808  1.3599
 3883TIP3    H233209   3.304   2.100   1.113  0.1672 -1.3321 -0.1483
 3884TIP3   OH233210   3.183   0.347   7.496  0.2483 -0.1596 -0.0749
 3884TIP3    H133211   3.260   0.373   7.546 -0.7154 -2.1592  2.7233
 3884TIP3    H233212   3.163   0.422   7.440  2.1894  1.7487  1.6434
 3885TIP3   OH233213   1.623   3.981   6.385 -0.4507 -0.4289  0.0485
 3885TIP3    H133214   1.677   4.005   6.310  1.8403 -1.1858  1.3538
 3885TIP3    H233215   1.565   3.912   6.352 -0.3177  0.0830 -1.2918
 3886TIP3   OH233216   1.846   4.932   1.277  0.2942 -0.2341 -0.4437
 3886TIP3    H133217   1.753   4.909   1.281 -0.0192  1.1193  1.6123
 3886TIP3    H233218   1.891   4.848   1.273 -0.9876 -0.9178 -1.5086
 3887TIP3   OH233219   4.476   5.291   1.364  0.7697 -0.3472  0.1198
 3887TIP3    H133220   4.557   5.241   1.360  0.1246 -1.4285  0.1804
 3887TIP3    H233221   4.440   5.287   1.275 -0.4224 -1.9877  0.6201
 3888TIP3   OH233222   6.180   4.320   0.324  0.3471 -0.1347 -0.0502
 3888TIP3    H133223   6.258   4.288   0.278 -0.3647 -1.2462 -0.5079
 3888TIP3    H233224   6.166   4.257   0.395  0.6702  0.8474  0.9268
 3889TIP3   OH233225   2.320   2.707   6.636  0.4507  0.3427  0.2654
 3889TIP3    H133226   2.342   2.692   6.728 -0.2726  0.4253  0.4654
 3889TIP3    H233227   2.262   2.634   6.614 -0.3798  0.9912  0.2498
 3890TIP3   OH233228   3.624   6.574   8.054  0.0390  0.2280 -0.2909
 3890TIP3    H133229   3.695   6.614   8.105  0.8053 -0.7410 -0.5711
 3890TIP3    H233230   3.557   6.554   8.119  0.8282 -0.5887  0.3058
 3891TIP3   OH233231   1.741   1.146   2.032 -0.2681  0.4026  0.5392
 3891TIP3    H133232   1.656   1.104   2.022  0.6532 -1.0017 -2.7846
 3891TIP3    H233233   1.737   1.221   1.973  1.9866 -2.0121 -3.0477
 3892TIP3   OH233234   0.022   6.339   7.685 -0.5360 -0.0217  0.0266
 3892TIP3    H133235   0.013   6.251   7.649 -1.5336 -0.7021  1.7909
 3892TIP3    H233236   0.115   6.347   7.707 -0.4395 -0.6318 -0.1562
 3893TIP3   OH233237   6.012   0.819   0.749  0.4383  0.3663 -0.0264
 3893TIP3    H133238   5.937   0.775   0.789 -1.6069  2.0262 -1.7931
 3893TIP3    H233239   5.995   0.814   0.655  1.7608  2.1040 -0.3973
 3894TIP3   OH233240   4.791   3.387   1.752 -0.3847  0.3001 -0.4240
 3894TIP3    H133241   4.868   3.364   1.804 -0.2860  0.3507 -0.5476
 3894TIP3    H233242   4.787   3.319   1.684 -0.9180 -0.1687  0.0664
 3895TIP3   OH233243   3.680   0.861   2.442  0.1549 -0.1244 -0.1447
 3895TIP3    H133244   3.596   0.898   2.469 -0.3089 -0.6866 -0.7958
 3895TIP3    H233245   3.745   0.917   2.485 -0.5480 -0.4343  1.3896
 3896TIP3   OH233246   4.406   6.174   0.635  0.2690  0.3509 -0.2723
 3896TIP3    H133247   4.375   6.141   0.719 -1.7052 -2.0412 -1.8055
 3896TIP3    H233248   4.436   6.096   0.588  3.6040  1.8879 -1.0160
 3897TIP3   OH233249   3.696   5.817   1.837 -0.2083 -0.2170  0.2297
 3897TIP3    H133250   3.714   5.729   1.870  0.6141 -0.1484 -0.0377
 3897TIP3    H233251   3.663   5.804   1.748 -0.9590 -0.2996  0.5053
 3898TIP3   OH233252   6.316   4.651   1.493  0.2178 -0.6776  0.4837
 3898TIP3    H133253   6.255   4.592   1.537  1.1302 -1.7142  0.3896
 3898TIP3    H233254   6.385   4.667   1.558 -1.0305  2.0620  1.3358
 3899TIP3   OH233255   1.109   5.868   0.349 -0.1942  0.4090  0.0423
 3899TIP3    H133256   1.202   5.885   0.337  0.2682  1.6368  4.0949
 3899TIP3    H233257   1.067   5.907   0.271  2.4998  1.3827 -1.0220
 3900TIP3   OH233258   5.893   3.759   2.188 -0.6696 -0.4685  0.0987
 3900TIP3    H133259   5.974   3.774   2.236 -0.8658  0.5098  0.1496
 3900TIP3    H233260   5.835   3.830   2.216 -1.0837 -0.3826 -0.9291
 3901TIP3   OH233261   1.851   6.565   6.133  0.4542  0.0768  0.1778
 3901TIP3    H133262   1.768   6.598   6.099  1.1796  2.1518  0.2891
 3901TIP3    H233263   1.909   6.559   6.057  0.9667  1.2079  0.4473
 3902TIP3   OH233264   4.954   6.429   7.475 -0.2184 -0.2360  0.0459
 3902TIP3    H133265   4.865   6.445   7.442 -1.1737  0.5610  2.6674
 3902TIP3    H233266   4.939   6.389   7.561  1.9707  0.1884  0.6670
 3903TIP3   OH233267   4.179   2.549   8.332  0.1895  0.4221  0.6516
 3903TIP3    H133268   4.157   2.510   8.248  0.7365  2.9807 -0.8008
 3903TIP3    H233269   4.274   2.536   8.340  0.2184  0.6154  0.6242
 3904TIP3   OH233270   5.556   4.654   1.032  0.0422  0.1264  0.1410
 3904TIP3    H133271   5.517   4.590   1.092  1.4616 -0.6043  0.3424
 3904TIP3    H233272   5.611   4.709   1.087  0.2908  0.3285 -0.2989
 3905TIP3   OH233273   5.669   6.709   6.429 -0.1077 -0.1437  0.2431
 3905TIP3    H133274   5.661   6.769   6.355  1.5727 -1.0495 -0.7578
 3905TIP3    H233275   5.675   6.622   6.388  2.2281 -0.5512  1.2892
 3906TIP3   OH233276   0.815   5.798   7.042  0.2953  0.8071 -0.0483
 3906TIP3    H133277   0.748   5.850   7.087  0.9693  0.9016  0.8847
 3906TIP3    H233278   0.897   5.844   7.060  0.7237  0.2064 -0.4176
 3907TIP3   OH233279   5.030   1.114   6.511  0.1729 -0.1571  0.2694
 3907TIP3    H133280   5.082   1.037   6.529 -0.6186 -0.6045  0.6851
 3907TIP3    H233281   4.950   1.102   6.561  0.4248  1.3831  1.1217
 3908TIP3   OH233282   4.404   1.149   1.691  0.3384  0.1617 -0.0244
 3908TIP3    H133283   4.310   1.161   1.702  0.4570  0.5486  0.6560
 3908TIP3    H233284   4.423   1.063   1.729  0.2661  0.1048 -0.1185
 3909TIP3   OH233285   5.818   3.858   0.234  0.2108  0.0176  0.7559
 3909TIP3    H133286   5.819   3.910   0.314 -0.6867  0.7083  0.3322
 3909TIP3    H233287   5.730   3.820   0.231 -0.1728  0.9271 -0.4703
 3910TIP3   OH233288   2.898   5.290   7.809 -0.1384 -0.4300 -0.0753
 3910TIP3    H133289   2.993   5.290   7.812  0.0385  0.5650 -2.8277
 3910TIP3    H233290   2.871   5.338   7.888  1.7599  1.3925 -0.4512
 3911TIP3   OH233291   0.800   0.805   0.701 -0.2257 -0.1337  0.1404
 3911TIP3    H133292   0.779   0.826   0.792  1.1348  0.0906  0.4173
 3911TIP3    H233293   0.867   0.869   0.676 -0.5219 -0.2438 -1.0012
 3912TIP3   OH233294   5.099   3.319   1.035 -0.1824 -0.2322 -0.0952
 3912TIP3    H133295   5.109   3.354   0.946 -1.5283  1.1063  0.2404
 3912TIP3    H233296   5.005   3.305   1.045  0.0234 -1.0455  0.8976
 3913TIP3   OH233297   6.281   0.469   7.311 -0.3426  0.3257 -0.4170
 3913TIP3    H133298   6.366   0.499   7.279 -0.2513  1.6271  0.9284
 3913TIP3    H233299   6.301   0.423   7.393 -1.0141  1.8069  0.6170
 3914TIP3   OH233300   1.946   6.580   1.487 -0.2962 -0.3043 -0.3636
 3914TIP3    H133301   2.011   6.539   1.544  0.0180 -1.5536 -1.5768
 3914TIP3    H233302   1.990   6.656   1.451 -0.4317  0.3906  0.8748
 3915TIP3   OH233303   2.798   0.841   1.749 -0.1852  0.2963  0.3163
 3915TIP3    H133304   2.788   0.911   1.684 -1.4887 -0.2644 -0.1206
 3915TIP3    H233305   2.753   0.766   1.710  1.0004 -0.7285  0.8779
 3916TIP3   OH233306   5.574   1.314   0.606 -0.8005  0.0156 -0.3335
 3916TIP3    H133307   5.662   1.284   0.627 -1.3975 -0.4204  1.7438
 3916TIP3    H233308   5.583   1.356   0.520  1.4117 -0.0393 -0.1848
 3917TIP3   OH233309   4.094   3.608   1.323 -0.1871  0.6797 -0.3814
 3917TIP3    H133310   3.999   3.610   1.333 -0.2249  0.5438 -0.7165
 3917TIP3    H233311   4.119   3.518   1.346  0.0830  1.2175  1.6384
 3918TIP3   OH233312   1.078   2.537   0.551  0.1360  0.0466 -0.3104
 3918TIP3    H133313   1.111   2.473   0.488 -0.0266  0.1816 -0.5338
 3918TIP3    H233314   1.127   2.617   0.530  0.6259 -0.1036  0.2230
 3919TIP3   OH233315   6.009   1.362   1.752 -0.2298  0.0996 -0.3935
 3919TIP3    H133316   6.048   1.316   1.826 -2.1054  0.7297  1.0705
 3919TIP3    H233317   6.021   1.303   1.678  0.8448 -0.9820  0.5948
 3920TIP3   OH233318   4.884   2.083   0.791 -0.1417 -0.6930  0.3599
 3920TIP3    H133319   4.791   2.103   0.783 -0.6458 -2.5022  1.1329
 3920TIP3    H233320   4.888   1.987   0.788  1.8827 -0.6205 -1.3239
 3921TIP3   OH233321   3.862   5.633   0.685 -0.6425  0.8610 -0.3338
 3921TIP3    H133322   3.843   5.599   0.597 -1.6763  0.4853  0.0167
 3921TIP3    H233323   3.841   5.726   0.679  0.4602  1.1002 -0.8010
 3922TIP3   OH233324   5.086   3.434   7.723  0.1474 -0.6223 -0.6187
 3922TIP3    H133325   5.148   3.378   7.768  1.1867 -0.2160 -1.4946
 3922TIP3    H233326   5.081   3.398   7.634 -0.6401 -0.4700 -0.6447
 3923TIP3   OH233327   0.148   5.612   6.037  0.2014  0.3964  0.1035
 3923TIP3    H133328   0.105   5.620   5.952 -1.3286 -1.5566  0.6195
 3923TIP3    H233329   0.085   5.565   6.092  2.3544 -1.1928  1.3792
 3924TIP3   OH233330   4.083   1.917   1.129 -0.2798  0.0178 -0.4012
 3924TIP3    H133331   4.154   1.922   1.065 -0.8272  0.3238 -0.9960
 3924TIP3    H233332   4.099   1.990   1.188  0.5498 -0.6020  0.1631
 3925TIP3   OH233333   4.892   1.837   6.805 -0.3421  0.2645  0.3400
 3925TIP3    H133334   4.964   1.809   6.862  1.1196  2.8989 -0.0478
 3925TIP3    H233335   4.841   1.898   6.858 -0.6869  0.5187 -0.2733
 3926TIP3   OH233336   6.451   0.856   7.649  0.6840  0.1458 -0.0669
 3926TIP3    H133337   6.407   0.796   7.708  2.3876 -1.6303 -0.4755
 3926TIP3    H233338   6.418   0.832   7.562  0.7739  0.3637 -0.1616
 3927TIP3   OH233339   5.074   1.139   7.461 -0.2405  0.2233 -0.1723
 3927TIP3    H133340   5.135   1.138   7.535 -0.1590  0.2870 -0.2373
 3927TIP3    H233341   5.125   1.177   7.389 -0.7749  1.5744  0.1392
 3928TIP3   OH233342   0.702   5.633   0.798  0.1699  0.4806  0.0424
 3928TIP3    H133343   0.672   5.625   0.708 -1.9032 -0.6336  0.7572
 3928TIP3    H233344   0.627   5.669   0.845  1.3721  1.5292  1.2571
 3929TIP3   OH233345   1.836   2.713   0.763  0.1413  0.3087  0.2423
 3929TIP3    H133346   1.897   2.660   0.814 -1.8416 -1.6303  0.7185
 3929TIP3    H233347   1.786   2.761   0.829 -0.3383  0.1795 -0.0232
 3930TIP3   OH233348   4.711   1.115   8.468  0.5589 -0.2821 -0.5525
 3930TIP3    H133349   4.639   1.056   8.491  1.5924 -1.2575  0.2898
 3930TIP3    H233350   4.720   1.107   8.373 -0.6696  0.1540 -0.7281
 3931TIP3   OH233351   1.356   6.188   0.159  0.8555  0.4935  0.4112
 3931TIP3    H133352   1.441   6.226   0.138  0.8805  0.8168  1.0658
 3931TIP3    H233353   1.373   6.094   0.171  1.3487  0.7230  1.6843
 3932TIP3   OH233354   3.469   2.479   8.189  0.0339  0.4706  0.0333
 3932TIP3    H133355   3.502   2.460   8.277 -0.6288  2.9481  0.9204
 3932TIP3    H233356   3.404   2.548   8.203 -2.0391 -0.8856 -2.1517
 3933TIP3   OH233357   5.756   5.002   1.786 -0.1251 -0.5916  0.2137
 3933TIP3    H133358   5.751   4.995   1.882  2.9593 -0.4793  0.4841
 3933TIP3    H233359   5.690   4.940   1.754  0.1598 -2.1525  2.4266
 3934TIP3   OH233360   2.224   5.197   0.173 -0.2171  0.2533  0.0419
 3934TIP3    H133361   2.236   5.126   0.110  1.5466  1.2149 -0.7775
 3934TIP3    H233362   2.310   5.239   0.179 -0.7693  1.2351  1.8399
 3935TIP3   OH233363   5.186   5.468   7.967 -0.1345  0.3959  0.8253
 3935TIP3    H133364   5.131   5.406   7.918  0.3477  0.9442 -0.4681
 3935TIP3    H233365   5.250   5.498   7.903  1.0263  0.5674  2.0316
 3936TIP3   OH233366   3.816   6.851   7.510 -0.3925 -0.2413 -0.2276
 3936TIP3    H133367   3.767   6.778   7.472 -0.4620 -0.1085 -0.3938
 3936TIP3    H233368   3.784   6.929   7.464 -1.9025  0.1973  1.4691
 3937TIP3   OH233369   4.751   1.787   8.346 -0.1536 -0.2346 -0.4716
 3937TIP3    H133370   4.703   1.711   8.379 -0.5870  0.4457  0.5028
 3937TIP3    H233371   4.720   1.798   8.256  0.8362 -1.9472 -1.0703
 3938TIP3   OH233372   6.846   0.966   6.071  0.4848  0.2518  0.8404
 3938TIP3    H133373   6.897   0.949   5.992 -1.9881 -0.3825 -0.7265
 3938TIP3    H233374   6.789   1.039   6.049  0.9688  1.2812  2.7143
 3939TIP3   OH233375   1.907   5.889   8.168  0.7290  0.6983 -0.2031
 3939TIP3    H133376   1.945   5.819   8.114 -0.6442  1.0429 -1.6928
 3939TIP3    H233377   1.965   5.895   8.244  1.6261 -1.1520 -0.6868
 3940TIP3   OH233378   3.941   0.917   7.533 -0.0349  0.2118 -0.4795
 3940TIP3    H133379   4.031   0.886   7.537 -0.6871 -1.8258 -0.3971
 3940TIP3    H233380   3.947   1.012   7.546  1.9665 -0.0549  0.9569
 3941TIP3   OH233381   3.514   2.407   6.940  0.3762  0.4063  0.7123
 3941TIP3    H133382   3.559   2.384   7.022 -0.9379 -0.6661  1.1462
 3941TIP3    H233383   3.566   2.480   6.906  0.2652  1.7405  3.1318
 3942TIP3   OH233384   3.339   2.352   0.157  0.6941  0.4071  0.1046
 3942TIP3    H133385   3.318   2.375   0.247 -1.0487 -0.0312 -0.1567
 3942TIP3    H233386   3.305   2.425   0.105  2.1930  0.9342 -0.1910
 3943TIP3   OH233387   1.712   4.516   1.372  0.2682  0.5686 -0.1271
 3943TIP3    H133388   1.703   4.420   1.376 -0.5917  0.6606  0.4872
 3943TIP3    H233389   1.627   4.549   1.403  0.1772  1.5282 -1.3483
 3944TIP3   OH233390   4.280   4.110   7.536  0.5327 -0.0241  0.1968
 3944TIP3    H133391   4.246   4.120   7.625  1.3308 -0.8695  0.6049
 3944TIP3    H233392   4.347   4.042   7.543  0.7785  0.0768 -1.0057
 3945TIP3   OH233393   5.803   5.571   7.508 -0.4435  0.4143  0.0631
 3945TIP3    H133394   5.739   5.579   7.438  0.1180 -0.1067 -0.5191
 3945TIP3    H233395   5.754   5.535   7.582 -0.4199 -1.9713 -1.0015
 3946TIP3   OH233396   4.855   1.048   0.832 -0.3918 -0.0224 -0.0152
 3946TIP3    H133397   4.850   1.139   0.861  0.8070  0.1178 -0.1862
 3946TIP3    H233398   4.888   1.053   0.742  3.7477 -0.6943  1.2575
 3947TIP3   OH233399   0.350   2.601   7.883 -0.1560  0.1522 -0.4997
 3947TIP3    H133400   0.388   2.661   7.948 -1.1342 -0.1693  0.3974
 3947TIP3    H233401   0.389   2.628   7.800  0.3691  1.2273  0.0737
 3948TIP3   OH233402   0.283   2.837   0.080 -0.1263  0.0986 -0.3025
 3948TIP3    H133403   0.227   2.838   0.003  0.1838 -2.5523 -0.6333
 3948TIP3    H233404   0.363   2.792   0.052  2.0407  3.2270  0.3270
 3949TIP3   OH233405   1.288   3.747   7.400  0.6033 -0.1489 -0.5957
 3949TIP3    H133406   1.342   3.795   7.337  3.2737  0.7307  2.1321
 3949TIP3    H233407   1.333   3.663   7.411 -0.1148 -0.4916 -0.2209
 3950TIP3   OH233408   6.604   0.015   0.944  0.3944 -0.0312  0.2754
 3950TIP3    H133409   6.684  -0.038   0.938  0.2835 -0.4268  1.8580
 3950TIP3    H233410   6.542  -0.029   0.886  1.5610  0.8102 -1.7178
 3951TIP3   OH233411   1.177   0.572   7.601  0.1811 -0.1682  0.2973
 3951TIP3    H133412   1.211   0.591   7.513  0.5059 -0.6296  0.3195
 3951TIP3    H233413   1.255   0.550   7.652 -0.0173  0.0135  0.6802
 3952TIP3   OH233414   5.609   6.210   6.942 -0.4237 -0.4623 -0.0179
 3952TIP3    H133415   5.663   6.238   7.017  0.0912 -1.5680  0.0428
 3952TIP3    H233416   5.520   6.231   6.968 -0.2458 -0.7764  0.8903
 3953TIP3   OH233417   2.544   5.144   0.144 -0.0174 -0.6674 -0.7097
 3953TIP3    H133418   2.554   5.112   0.054  1.3218  0.5899 -1.0423
 3953TIP3    H233419   2.534   5.239   0.134 -1.7085 -0.6895  0.3732
 3954TIP3   OH233420   2.240   4.227   0.800 -0.1916 -0.1658 -0.9467
 3954TIP3    H133421   2.291   4.162   0.848 -0.0623 -0.2129 -1.1493
 3954TIP3    H233422   2.286   4.310   0.815 -2.7356  0.8247  3.1209
 3955TIP3   OH233423   5.497   0.837   1.141  0.0870 -0.0861 -0.0144
 3955TIP3    H133424   5.413   0.883   1.144  0.0955 -0.1247  0.7953
 3955TIP3    H233425   5.557   0.893   1.190  0.0849 -0.9817  1.0454
 3956TIP3   OH233426   5.604   1.440   1.405  0.0831 -0.5180  0.0688
 3956TIP3    H133427   5.699   1.437   1.405  0.2645  2.4121  0.7768
 3956TIP3    H233428   5.581   1.474   1.318 -0.2352 -0.0783  0.3216
 3957TIP3   OH233429   6.262   1.593   1.073 -0.0306 -0.3267 -0.0251
 3957TIP3    H133430   6.169   1.578   1.092 -0.5303  0.3744 -1.6749
 3957TIP3    H233431   6.264   1.609   0.978  1.3263  2.6995  0.4072
 3958TIP3   OH233432   3.945   6.005   8.124  0.3303 -0.2800 -0.1649
 3958TIP3    H133433   3.896   5.988   8.043 -0.0077 -1.6737  0.3031
 3958TIP3    H233434   3.878   6.021   8.190  0.6139  3.0067 -0.5167
 3959TIP3   OH233435   0.732   0.575   0.240 -0.2931  0.0378  0.4830
 3959TIP3    H133436   0.776   0.540   0.163  0.9808  1.7830  0.3308
 3959TIP3    H233437   0.677   0.646   0.206 -0.4766  0.1760  1.0604
 3960TIP3   OH233438   0.596   5.811   7.548  0.0012 -0.0434 -0.2164
 3960TIP3    H133439   0.610   5.722   7.581  1.6484 -0.3422 -1.5984
 3960TIP3    H233440   0.555   5.798   7.462 -1.1032  0.6078  0.1941
 3961TIP3   OH233441   0.429   0.550   7.003 -0.4606 -0.1368  0.6087
 3961TIP3    H133442   0.402   0.508   6.921 -1.4217  0.3822  0.6388
 3961TIP3    H233443   0.416   0.644   6.987 -2.1850 -0.1172  1.8561
 3962TIP3   OH233444   5.570   5.792   8.416 -0.3150  0.3718  0.4435
 3962TIP3    H133445   5.663   5.779   8.432 -0.1425  2.5604  1.5918
 3962TIP3    H233446   5.562   5.885   8.394 -1.8461 -0.4408 -3.1099
 3963TIP3   OH233447   6.350   6.311   7.778 -0.3085 -0.2883  0.2486
 3963TIP3    H133448   6.332   6.334   7.869 -0.1041 -3.3565  1.1672
 3963TIP3    H233449   6.264   6.309   7.736 -0.2928  2.7965 -0.2125
 3964TIP3   OH233450   2.171   3.316   7.138  0.0091  0.0936 -0.3048
 3964TIP3    H133451   2.095   3.273   7.099 -0.5389  1.0236 -0.3044
 3964TIP3    H233452   2.245   3.260   7.116 -0.8140 -1.4761  0.6917
 3965TIP3   OH233453   1.905   4.744   7.061  0.0681  0.1173  0.3489
 3965TIP3    H133454   1.869   4.726   6.974  1.3056  1.0048 -0.3788
 3965TIP3    H233455   1.971   4.811   7.047 -0.2195  0.8386  2.1012
 3966TIP3   OH233456   5.404   0.482   0.687 -0.3797 -1.0095  0.0747
 3966TIP3    H133457   5.384   0.421   0.616 -1.0254  0.9206 -1.4908
 3966TIP3    H233458   5.495   0.465   0.709 -0.1375 -1.5868 -1.2850
 3967TIP3   OH233459   0.268   4.263   0.907 -0.1919  0.0353 -0.2750
 3967TIP3    H133460   0.279   4.298   0.818  0.9092 -3.8705 -1.8614
 3967TIP3    H233461   0.176   4.237   0.911 -0.7717  1.9874  0.5811
 3968TIP3   OH233462   2.234   3.857   0.318 -0.2469 -0.2773  0.3751
 3968TIP3    H133463   2.324   3.881   0.296 -0.3296  1.8061  2.0226
 3968TIP3    H233464   2.202   3.930   0.370 -2.1020 -2.0637  1.8844
 3969TIP3   OH233465   1.589   2.222   8.024  0.3126  0.6124 -0.3453
 3969TIP3    H133466   1.627   2.264   7.947  0.6148 -0.1652 -0.6387
 3969TIP3    H233467   1.494   2.232   8.014  0.2050 -1.2789 -1.9383
 3970TIP3   OH233468   6.453   2.326   7.179  0.0660 -0.1043  0.2629
 3970TIP3    H133469   6.420   2.246   7.137 -0.5220  0.6758 -0.8248
 3970TIP3    H233470   6.387   2.392   7.159 -0.1672  0.3630  2.3346
 3971TIP3   OH233471   3.814   1.756   0.152  0.1982  0.1304  0.1403
 3971TIP3    H133472   3.874   1.829   0.169 -0.2618  0.2621  1.3089
 3971TIP3    H233473   3.780   1.773   0.064  1.4225  0.3603 -0.3052
 3972TIP3   OH233474   6.358   2.637   0.840 -0.4458 -0.6752  0.2020
 3972TIP3    H133475   6.435   2.582   0.853 -0.9273 -0.9526  2.1935
 3972TIP3    H233476   6.392   2.725   0.829  0.1648 -0.8136  0.9514
 3973TIP3   OH233477   6.535   6.244   0.831 -0.0121 -0.4848 -0.1167
 3973TIP3    H133478   6.586   6.202   0.762  0.7370 -0.6999  0.5603
 3973TIP3    H233479   6.574   6.213   0.913 -0.9029 -0.2563  0.4138
 3974TIP3   OH233480   6.601   6.741   6.821  0.3512 -0.0733  1.0922
 3974TIP3    H133481   6.620   6.721   6.729 -0.0420  0.1027  0.9671
 3974TIP3    H233482   6.664   6.809   6.844 -0.5223  0.9983  0.4748
 3975TIP3   OH233483   2.878   3.985   8.073  0.6129 -0.0041  0.1629
 3975TIP3    H133484   2.945   4.008   8.009 -0.3698  0.8952 -0.5717
 3975TIP3    H233485   2.795   4.000   8.028 -0.0994 -0.0056  1.4175
 3976TIP3   OH233486   1.744   4.491   6.786 -0.0157 -0.5031  0.1214
 3976TIP3    H133487   1.693   4.487   6.867  2.5435  0.0521  1.8822
 3976TIP3    H233488   1.784   4.404   6.779  1.0338 -0.0527  0.3654
 3977TIP3   OH233489   0.563   0.332   7.931 -0.7278  0.0332 -0.1173
 3977TIP3    H133490   0.511   0.386   7.990  1.5673  2.4747 -0.1236
 3977TIP3    H233491   0.516   0.334   7.848 -0.9336  1.7247  0.0074
 3978TIP3   OH233492   5.291   0.714   0.111 -0.8032  0.0543 -0.8192
 3978TIP3    H133493   5.346   0.752   0.180  0.1075  2.4402 -2.6928
 3978TIP3    H233494   5.328   0.627   0.096 -1.1008 -0.5789  1.7079
 3979TIP3   OH233495   5.207   3.421   6.491 -0.3503  0.3852  0.3987
 3979TIP3    H133496   5.290   3.377   6.476  0.3924  1.3758  1.4537
 3979TIP3    H233497   5.227   3.491   6.552 -2.2861 -0.4216  2.0977
 3980TIP3   OH233498   4.308   0.094   8.194 -0.3567 -1.1954 -0.3154
 3980TIP3    H133499   4.349   0.008   8.206 -0.1980 -1.0049  0.5760
 3980TIP3    H233500   4.382   0.154   8.178 -0.5924 -1.6415 -4.0160
 3981TIP3   OH233501   0.727   0.134   0.931 -0.6979 -0.1558  0.1003
 3981TIP3    H133502   0.765   0.047   0.945 -1.1174 -0.4029 -0.2495
 3981TIP3    H233503   0.653   0.118   0.872  0.0209  0.6040 -1.0399
 3982TIP3   OH233504   6.035   1.030   7.630 -0.9015 -0.9623  0.0963
 3982TIP3    H133505   6.005   0.977   7.704  1.6861 -2.5802  0.0907
 3982TIP3    H233506   6.040   0.969   7.557  2.4701 -0.9214  0.1630
 3983TIP3   OH233507   4.162   1.234   8.310 -0.2438 -0.2919 -0.8070
 3983TIP3    H133508   4.100   1.304   8.330 -0.6365 -1.1385  1.2261
 3983TIP3    H233509   4.151   1.218   8.217 -2.2048  0.4188 -0.7396
 3984TIP3   OH233510   2.898   5.587   0.542  0.0067  0.5407  0.5605
 3984TIP3    H133511   2.913   5.640   0.620  1.6632  0.8959  0.0404
 3984TIP3    H233512   2.940   5.503   0.562 -0.3355  0.3285  0.3877
 3985TIP3   OH233513   4.681   4.742   8.429 -0.5804 -0.2437  0.4672
 3985TIP3    H133514   4.602   4.784   8.394 -0.6695 -1.2880 -0.6374
 3985TIP3    H233515   4.648   4.670   8.482 -0.3782 -0.8441 -0.2106
 3986TIP3   OH233516   3.857   0.758   6.930  0.0663  0.0040  0.4382
 3986TIP3    H133517   3.847   0.767   7.024  0.0520 -0.7438  0.5064
 3986TIP3    H233518   3.900   0.839   6.903  1.7377 -0.5584  1.3275
 3987TIP3   OH233519   6.090   4.287   8.205 -0.3625 -0.4372  0.3481
 3987TIP3    H133520   6.084   4.192   8.198  0.3904 -0.5090  0.5855
 3987TIP3    H233521   6.133   4.314   8.124 -0.6829 -0.2854  0.2273
 3988TIP3   OH233522   4.121   4.952   2.322  0.2872  0.0934  0.0226
 3988TIP3    H133523   4.147   4.942   2.413  0.8556  1.2248 -0.0050
 3988TIP3    H233524   4.037   4.998   2.326 -0.6409 -1.5039  0.0188
 3989TIP3   OH233525   4.358   3.112   0.355 -0.6222  0.8112  0.8375
 3989TIP3    H133526   4.322   3.024   0.351  0.7313  0.2747 -0.1214
 3989TIP3    H233527   4.332   3.145   0.441 -2.8189  0.2386  0.4492
 3990TIP3   OH233528   0.362   0.833   1.075 -0.4117  0.3252  0.5436
 3990TIP3    H133529   0.352   0.741   1.054  1.4002  0.1372  0.3961
 3990TIP3    H233530   0.283   0.855   1.126  0.0027 -1.7628  2.1940
 3991TIP3   OH233531   0.395   2.598   2.528  0.0353  0.6923  0.3152
 3991TIP3    H133532   0.435   2.511   2.531 -2.6006 -0.5989  0.9453
 3991TIP3    H233533   0.459   2.655   2.571  0.8938 -1.3538  1.9455
 3992TIP3   OH233534   1.798   6.157   7.633  0.1971  0.0009  0.3509
 3992TIP3    H133535   1.856   6.091   7.595  1.5346  2.3711 -2.1266
 3992TIP3    H233536   1.712   6.116   7.636  1.2072 -2.2639  0.2765
 3993TIP3   OH233537   4.934   1.467   7.796 -0.0696  0.0884  0.2957
 3993TIP3    H133538   4.846   1.479   7.760  0.7025 -0.5820 -1.9418
 3993TIP3    H233539   4.984   1.540   7.760  0.9026 -1.0082 -0.6309
 3994TIP3   OH233540   3.831   5.839   1.313 -0.1678  0.1077  0.0108
 3994TIP3    H133541   3.872   5.753   1.327 -0.5172  0.1391  1.2570
 3994TIP3    H233542   3.749   5.835   1.363 -0.2906  1.0942 -0.1051
 3995TIP3   OH233543   3.169   5.259   7.311  0.1201 -1.1761 -0.7028
 3995TIP3    H133544   3.167   5.283   7.404 -1.8936  0.2454 -1.0435
 3995TIP3    H233545   3.262   5.249   7.291  0.8366  1.4554  0.7882
 3996TIP3   OH233546   0.004   2.754   0.794  0.4689 -0.4791 -0.0246
 3996TIP3    H133547  -0.076   2.775   0.843  0.9047  0.8505  0.1522
 3996TIP3    H233548  -0.008   2.796   0.709  0.9556 -0.3411 -0.0244
 3997TIP3   OH233549   6.703   4.928   7.425  0.2746  0.2402 -0.2414
 3997TIP3    H133550   6.791   4.890   7.428  0.0590 -0.6835 -3.2464
 3997TIP3    H233551   6.710   5.000   7.362 -1.0616  0.3347 -0.3092
 3998TIP3   OH233552   1.414   1.227   0.656 -0.0921  0.3737  0.1139
 3998TIP3    H133553   1.472   1.163   0.697 -0.6866  1.0679  2.1370
 3998TIP3    H233554   1.471   1.302   0.638  0.0310  0.3363  0.3433
 3999TIP3   OH233555   0.254   1.136   7.997  0.0057 -0.6070  0.5697
 3999TIP3    H133556   0.218   1.156   7.910  0.3437 -0.2345  0.5130
 3999TIP3    H233557   0.256   1.221   8.042  1.0053 -0.5851  0.5001
 4000TIP3   OH233558   2.312   3.694   1.960  0.2065 -0.0119 -0.3449
 4000TIP3    H133559   2.344   3.778   1.993  4.7833 -1.6333  0.0612
 4000TIP3    H233560   2.338   3.692   1.868  0.1161 -0.9981 -0.3637
 4001TIP3   OH233561   0.902   0.994   7.033 -0.0098  0.3928 -0.1400
 4001TIP3    H133562   0.827   0.940   7.058  0.6658 -0.7336 -0.4633
 4001TIP3    H233563   0.921   0.969   6.943  1.8713 -0.7126  0.5038
 4002TIP3   OH233564   1.134   5.027   6.582  0.3609 -0.4804 -0.2479
 4002TIP3    H133565   1.104   5.055   6.496  1.8723 -0.1083 -0.6912
 4002TIP3    H233566   1.215   4.978   6.565  0.6336 -0.4930  0.9512
 4003TIP3   OH233567   2.178   2.974   1.726 -0.4234  0.1674 -0.2423
 4003TIP3    H133568   2.226   2.939   1.802 -0.3729  2.9917  1.1697
 4003TIP3    H233569   2.086   2.964   1.750 -0.4030  1.5885  0.5078
 4004TIP3   OH233570   5.854   5.004   1.419  0.1502 -0.4637  0.2209
 4004TIP3    H133571   5.867   5.066   1.347 -1.4080 -2.1357 -1.6028
 4004TIP3    H233572   5.864   5.057   1.498 -1.9680  2.3276 -1.2132
 4005TIP3   OH233573   0.708   4.569   1.286 -0.3950  0.1099  0.8086
 4005TIP3    H133574   0.736   4.599   1.373 -0.3040  0.5690  0.6230
 4005TIP3    H233575   0.780   4.591   1.228 -1.1268  1.3528  0.3201
 4006TIP3   OH233576   2.499   2.300   8.600 -0.2641  0.1826  0.2389
 4006TIP3    H133577   2.532   2.350   8.674 -0.3236 -0.9161  1.0221
 4006TIP3    H233578   2.578   2.263   8.559 -0.3642 -1.0677  1.1197
 4007TIP3   OH233579   1.284   0.125   1.866  0.1912 -0.1328 -0.1848
 4007TIP3    H133580   1.324   0.212   1.862  1.2601 -0.4763  1.8263
 4007TIP3    H233581   1.344   0.073   1.920 -0.8460 -1.8918 -0.6415
 4008TIP3   OH233582   1.392   0.402   0.218 -0.5441  0.4571  0.1587
 4008TIP3    H133583   1.436   0.385   0.301  0.4679  2.0745  0.0014
 4008TIP3    H233584   1.459   0.441   0.163 -1.2847 -0.2896 -1.3236
 4009TIP3   OH233585   2.516   6.746   6.858  0.3296 -0.9037 -0.2979
 4009TIP3    H133586   2.455   6.765   6.787  0.2090  0.2957  0.1137
 4009TIP3    H233587   2.602   6.764   6.822  0.2164  0.5080  0.0930
 4010TIP3   OH233588   1.764   3.613   1.358  0.2843  1.1199  0.1854
 4010TIP3    H133589   1.738   3.570   1.277  1.7278  2.3480 -0.9799
 4010TIP3    H233590   1.791   3.542   1.416 -0.9388  0.2196 -0.3044
 4011TIP3   OH233591   3.256   5.319   6.145 -0.1353  0.0315 -0.5172
 4011TIP3    H133592   3.322   5.357   6.087 -0.5860 -1.1777 -1.8742
 4011TIP3    H233593   3.303   5.302   6.227  0.8948  0.3861 -1.0197
 4012TIP3   OH233594   3.817   3.618   1.351 -0.4904 -0.1108  0.9590
 4012TIP3    H133595   3.731   3.590   1.319  0.3375 -2.9039  0.8571
 4012TIP3    H233596   3.825   3.575   1.437  0.6877  0.3086  1.0758
 4013TIP3   OH233597   2.462   5.783   8.444  0.0810 -0.1144  0.0609
 4013TIP3    H133598   2.378   5.766   8.400  0.2150 -3.7477  0.9229
 4013TIP3    H233599   2.508   5.843   8.385 -1.8754 -0.4826 -1.9947
 4014TIP3   OH233600   3.032   6.402   2.127  0.7793 -0.1981 -0.6440
 4014TIP3    H133601   2.975   6.392   2.204  0.0699  1.9485 -0.8114
 4014TIP3    H233602   2.978   6.371   2.054  0.6468 -0.2188 -0.5392
 4015TIP3   OH233603   1.768   6.035   7.006  0.2789 -0.1543 -0.7699
 4015TIP3    H133604   1.776   6.010   7.098 -2.2418  0.0730 -0.4210
 4015TIP3    H233605   1.715   5.965   6.967  0.6763  0.1457 -1.8701
 4016TIP3   OH233606   6.132   3.599   1.543  0.3912  0.3575 -0.3313
 4016TIP3    H133607   6.089   3.605   1.628  1.6155  2.3401  0.2360
 4016TIP3    H233608   6.104   3.679   1.497  0.1557 -0.4301 -1.5962
 4017TIP3   OH233609   0.549   1.309   7.501  0.2676  0.2270  0.3391
 4017TIP3    H133610   0.483   1.366   7.461  0.9871  1.5688  0.9665
 4017TIP3    H233611   0.500   1.255   7.563 -0.4830 -0.0810 -0.4993
 4018TIP3   OH233612   3.420   6.425   8.547  0.6459  0.3770 -0.4768
 4018TIP3    H133613   3.399   6.333   8.566 -0.5626  0.1087 -2.7617
 4018TIP3    H233614   3.334   6.467   8.539  1.1222  1.0797 -2.1393
 4019TIP3   OH233615   2.758   5.344   8.437 -0.5746  0.1671  0.1548
 4019TIP3    H133616   2.688   5.278   8.441 -1.2047  0.8683  2.9825
 4019TIP3    H233617   2.797   5.342   8.524  2.1497  0.6995 -0.9641
 4020TIP3   OH233618   1.033   6.757   1.048  0.5927  0.0843  0.4603
 4020TIP3    H133619   1.125   6.733   1.057  0.6836 -0.3212 -1.1891
 4020TIP3    H233620   1.034   6.851   1.027  0.7169 -0.1682 -0.7081
 4021TIP3   OH233621   6.606   6.085   8.102 -0.4049  0.4309  0.2046
 4021TIP3    H133622   6.562   6.001   8.117  0.0700 -0.1977 -1.6541
 4021TIP3    H233623   6.679   6.085   8.163  0.4074 -1.1670 -0.6842
 4022TIP3   OH233624   2.406   1.692   1.701  0.2333 -0.2576 -0.0512
 4022TIP3    H133625   2.455   1.704   1.781  0.3856 -0.6600 -0.0832
 4022TIP3    H233626   2.338   1.760   1.704  2.0684  1.7490 -1.0297
 4023TIP3   OH233627   4.548   1.127   2.202 -0.3613 -0.7381  0.6403
 4023TIP3    H133628   4.613   1.159   2.139 -1.3333  1.6825  0.7352
 4023TIP3    H233629   4.573   1.166   2.285 -1.7224 -0.0117  0.7421
 4024TIP3   OH233630   4.425   4.384   1.882 -0.3721 -0.0342 -0.2405
 4024TIP3    H133631   4.519   4.397   1.894 -0.2939  0.1059 -0.9786
 4024TIP3    H233632   4.395   4.349   1.966 -0.0945  2.1277  0.8198
 4025TIP3   OH233633   1.254   4.866   7.332 -0.0849 -0.1699  0.3117
 4025TIP3    H133634   1.203   4.800   7.284  1.4771 -1.1434 -0.0965
 4025TIP3    H233635   1.230   4.949   7.291 -1.6186 -0.5215  0.4102
 4026TIP3   OH233636   2.091   0.210   1.039 -0.2976  0.0102  0.4485
 4026TIP3    H133637   2.171   0.203   1.092 -1.0949 -0.6459  1.6067
 4026TIP3    H233638   2.026   0.159   1.088 -0.5581 -2.4310 -2.1966
 4027TIP3   OH233639   0.047   1.200   0.010  0.7324 -0.4014 -0.0211
 4027TIP3    H133640   0.010   1.280   0.048 -0.9068 -1.6803  1.2714
 4027TIP3    H233641   0.122   1.180   0.066 -1.3984 -2.0264  2.5272
 4028TIP3   OH233642   2.626   5.449   8.221  0.1478  0.0192 -0.6678
 4028TIP3    H133643   2.602   5.538   8.249 -0.1227  0.3755 -1.9624
 4028TIP3    H233644   2.655   5.406   8.302  0.0557  1.2033  0.0297
 4029TIP3   OH233645   1.211   2.922   1.224  0.6125 -0.4119  0.1396
 4029TIP3    H133646   1.234   2.881   1.141 -0.2355 -0.0107 -0.3121
 4029TIP3    H233647   1.116   2.936   1.218  0.3141 -1.5464  1.7099
 4030TIP3   OH233648   4.295   2.339   1.516  0.6564  0.3273  0.5904
 4030TIP3    H133649   4.209   2.362   1.483  1.0758  1.0797 -0.0122
 4030TIP3    H233650   4.281   2.259   1.566 -0.2905  0.1136  0.0078
 4031TIP3   OH233651   1.930   0.349   0.441 -0.0036 -0.1730 -0.2226
 4031TIP3    H133652   1.928   0.412   0.513 -1.0505  0.0478 -0.4267
 4031TIP3    H233653   1.838   0.329   0.424  0.0287  1.5003 -2.9767
 4032TIP3   OH233654   1.726   3.463   6.939 -0.1321 -0.6478 -0.8525
 4032TIP3    H133655   1.674   3.533   6.899 -0.5828  0.1649  1.0659
 4032TIP3    H233656   1.805   3.459   6.886  0.2860  1.9115 -0.5474
 4033TIP3   OH233657   0.824   6.678   1.225 -0.2908 -0.6928 -0.1107
 4033TIP3    H133658   0.787   6.732   1.295  0.3652  0.1328 -0.3921
 4033TIP3    H233659   0.914   6.708   1.217 -0.4150 -0.6336 -1.4547
 4034TIP3   OH233660   6.107   5.009   7.806  0.4625 -0.1964 -0.0348
 4034TIP3    H133661   6.152   4.938   7.762 -1.1089 -0.8871 -0.5982
 4034TIP3    H233662   6.014   4.995   7.786 -0.0601  0.9328  1.3974
 4035TIP3   OH233663   4.755   2.988   7.617 -0.0797 -0.2474 -0.0485
 4035TIP3    H133664   4.761   3.034   7.533 -0.8047 -0.0961 -0.0204
 4035TIP3    H233665   4.808   3.041   7.676 -1.2797  0.8405  0.0969
 4036TIP3   OH233666   1.682   0.371   0.284 -0.2972  0.1945  0.0454
 4036TIP3    H133667   1.731   0.447   0.254 -2.2536  1.4779 -0.0939
 4036TIP3    H233668   1.643   0.399   0.367 -1.2820 -0.5578 -0.1470
 4037TIP3   OH233669   3.762   3.716   0.891 -0.1112 -0.2595  0.2674
 4037TIP3    H133670   3.790   3.632   0.855 -2.0445 -0.8072 -0.1110
 4037TIP3    H233671   3.843   3.762   0.912  1.0072 -2.1685  0.3846
 4038TIP3   OH233672   3.410   3.088   0.382  0.3378 -0.2049 -0.1202
 4038TIP3    H133673   3.472   3.148   0.423  0.4127 -0.7252  0.5495
 4038TIP3    H233674   3.439   3.081   0.291  1.3030 -0.4774  0.1970
 4039TIP3   OH233675   6.781   4.580   7.264 -0.5540  0.0902 -0.1338
 4039TIP3    H133676   6.814   4.649   7.322  1.2723 -1.7056  1.0920
 4039TIP3    H233677   6.844   4.575   7.192 -0.2384 -0.7734  0.1848
 4040TIP3   OH233678   6.053   2.449   0.704 -0.0356  0.2728 -0.2271
 4040TIP3    H133679   6.061   2.443   0.609 -0.1535 -0.5605 -0.1915
 4040TIP3    H233680   5.966   2.485   0.719 -0.2557 -0.1746 -0.4264
 4041TIP3   OH233681   2.595   3.548   2.015  0.6359  0.5922 -0.1078
 4041TIP3    H133682   2.569   3.637   2.035 -0.3170  0.6205 -1.3558
 4041TIP3    H233683   2.669   3.530   2.073  0.5778  2.0449  0.4297
 4042TIP3   OH233684   6.117   6.869   0.055  0.0413  0.1504 -0.7702
 4042TIP3    H133685   6.157   6.942   0.102  0.0650  0.3960 -1.1654
 4042TIP3    H233686   6.105   6.801   0.122  0.9077  0.1543 -0.5983
 4043TIP3   OH233687   6.146   5.748   1.297 -0.0660  0.3839 -0.2791
 4043TIP3    H133688   6.146   5.655   1.275  0.4585  0.9705 -3.0025
 4043TIP3    H233689   6.059   5.764   1.333 -0.3443 -1.0246 -0.2763
 4044TIP3   OH233690   3.354   2.163   1.538  0.1983 -0.2787 -0.4673
 4044TIP3    H133691   3.337   2.236   1.478  0.7232  0.5476  0.3524
 4044TIP3    H233692   3.356   2.085   1.482  2.9704  0.6937 -1.9202
 4045TIP3   OH233693   6.612   1.742   1.766  0.2582  0.0310 -0.0703
 4045TIP3    H133694   6.539   1.723   1.825  1.0538 -1.5944  0.4557
 4045TIP3    H233695   6.668   1.801   1.816 -0.6618  1.2693 -0.4681
 4046TIP3   OH233696   2.929   5.600   7.332  0.0186  0.0160  0.0319
 4046TIP3    H133697   2.916   5.546   7.410 -0.8325  0.8147  0.4692
 4046TIP3    H233698   2.946   5.688   7.367  1.6257  0.0123 -0.6547
 4047TIP3   OH233699   0.832   4.644   6.268 -0.5778  0.4021  0.0132
 4047TIP3    H133700   0.868   4.729   6.293  0.0226  0.6733 -1.6450
 4047TIP3    H233701   0.787   4.612   6.346 -0.8948  2.2837  0.6286
 4048TIP3   OH233702   1.567   3.149   1.556  0.3809  0.1189  0.3759
 4048TIP3    H133703   1.589   3.062   1.521 -0.3132  0.1857 -0.2648
 4048TIP3    H233704   1.647   3.180   1.598  0.9178 -0.4314 -0.2321
 4049TIP3   OH233705   2.693   4.657   2.418  0.5417  0.0295 -1.4247
 4049TIP3    H133706   2.636   4.733   2.421 -0.8583 -0.9876  1.0625
 4049TIP3    H233707   2.634   4.582   2.417  1.8733 -1.0675 -2.0945
 4050TIP3   OH233708   2.533   0.300   7.490 -0.0036  0.2959 -0.2745
 4050TIP3    H133709   2.566   0.265   7.407 -0.6834 -1.2273  0.0709
 4050TIP3    H233710   2.466   0.238   7.517 -1.0464  1.7289  0.5387
 4051TIP3   OH233711   3.531   3.119   0.135 -0.0181 -0.1082  0.1989
 4051TIP3    H133712   3.539   3.025   0.156 -0.0556 -0.3640 -0.8772
 4051TIP3    H233713   3.579   3.129   0.053  1.1849  1.1008  1.0050
 4052TIP3   OH233714   0.594   3.840   0.142  0.1654  0.1290 -0.3038
 4052TIP3    H133715   0.682   3.853   0.178  0.7784  0.3632 -1.8085
 4052TIP3    H233716   0.543   3.912   0.179  1.1409  1.2219 -1.0048
 4053TIP3   OH233717   2.606   1.215   1.518  0.0105 -0.2638 -0.1955
 4053TIP3    H133718   2.668   1.236   1.588 -0.1052  1.8318 -0.6774
 4053TIP3    H233719   2.529   1.181   1.563  0.2112  0.3719  0.6346
 4054TIP3   OH233720   4.261   1.590   1.053 -0.5442  0.0357 -0.4141
 4054TIP3    H133721   4.184   1.601   1.109 -0.4361 -1.3533  0.0318
 4054TIP3    H233722   4.275   1.496   1.048  1.6311  0.2658  0.2172
 4055TIP3   OH233723   6.402   2.720   0.141  0.3310  0.4179  0.0192
 4055TIP3    H133724   6.355   2.790   0.186  1.1430  1.1735 -0.2675
 4055TIP3    H233725   6.378   2.730   0.049 -0.7431 -0.6567  0.1653
 4056TIP3   OH233726   6.807   3.309   2.498  0.2813  0.1578  0.7580
 4056TIP3    H133727   6.720   3.310   2.538  1.0160 -1.7489  2.5630
 4056TIP3    H233728   6.848   3.390   2.529 -0.0004 -0.1378  1.9302
 4057TIP3   OH233729   6.454   3.872   1.986 -0.2041  0.0679  0.1679
 4057TIP3    H133730   6.425   3.889   2.075  0.8552  0.2622  0.4850
 4057TIP3    H233731   6.507   3.948   1.963 -0.5972  0.0930 -0.6866
 4058TIP3   OH233732   1.220   4.768   2.095 -0.3458  0.2142 -0.2914
 4058TIP3    H133733   1.171   4.771   2.177 -1.4894 -0.0110 -0.9418
 4058TIP3    H233734   1.270   4.686   2.100  2.7786  2.0846  1.8813
 4059TIP3   OH233735   5.510   4.732   7.282  0.1798 -0.2287 -0.0042
 4059TIP3    H133736   5.576   4.678   7.239  1.7411  0.2522  1.6543
 4059TIP3    H233737   5.501   4.693   7.369 -1.2239  0.1535  0.0471
 4060TIP3   OH233738   6.393   2.869   0.655 -0.4365  0.8680 -0.4496
 4060TIP3    H133739   6.475   2.879   0.703 -0.4825  1.1267 -0.4259
 4060TIP3    H233740   6.402   2.926   0.579  0.1092 -0.4188 -1.3773
 4061TIP3   OH233741   3.072   4.631   8.124  0.1204  0.2320 -0.8391
 4061TIP3    H133742   3.095   4.724   8.127  0.8060  0.0591 -0.3142
 4061TIP3    H233743   3.151   4.589   8.091  1.3715 -0.5963  2.7236
 4062TIP3   OH233744   2.773   4.765   0.338 -1.0866  0.5329  0.4437
 4062TIP3    H133745   2.836   4.747   0.268 -0.7772 -0.1302  0.8795
 4062TIP3    H233746   2.761   4.860   0.336  1.4008  0.9742  1.5530
 4063TIP3   OH233747   6.369   4.018   1.527 -0.1391  0.0196  0.2500
 4063TIP3    H133748   6.409   3.976   1.603  1.5507  2.1504  0.6452
 4063TIP3    H233749   6.349   4.107   1.557 -1.9916  0.0928 -1.0344
 4064TIP3   OH233750   0.199   0.538   1.695 -0.3116  0.0655 -0.2158
 4064TIP3    H133751   0.113   0.496   1.687 -0.1932 -0.1060 -0.6040
 4064TIP3    H233752   0.187   0.625   1.657 -0.4372  0.2218  0.1726
 4065TIP3   OH233753   3.374   3.488   0.743 -0.4164  0.6870 -0.3174
 4065TIP3    H133754   3.303   3.542   0.777  0.4539  1.1705  0.8193
 4065TIP3    H233755   3.449   3.510   0.798  0.5557  0.0059 -1.3213
 4066TIP3   OH233756   0.817   2.587   2.469  0.2470  0.0611  0.0193
 4066TIP3    H133757   0.735   2.579   2.518  0.1523  2.5261  0.4114
 4066TIP3    H233758   0.796   2.560   2.380 -0.8142 -0.0235  0.2881
 4067TIP3   OH233759   6.064   6.789   0.583  0.6126  0.0524  0.3719
 4067TIP3    H133760   6.045   6.882   0.588  0.4509  0.0373  0.0871
 4067TIP3    H233761   5.991   6.747   0.628  0.0026 -0.0016 -0.6543
 4068TIP3   OH233762   3.184   0.293   8.472 -0.1288 -0.0473 -0.0860
 4068TIP3    H133763   3.116   0.283   8.405  0.7948  1.6966 -1.3592
 4068TIP3    H233764   3.203   0.203   8.501 -0.3100 -0.9077 -2.4291
 4069TIP3   OH233765   3.496   3.351   1.717  0.3005 -0.2459  0.2574
 4069TIP3    H133766   3.578   3.398   1.705  1.2103 -2.1699 -1.5307
 4069TIP3    H233767   3.502   3.314   1.805  1.1562 -0.0296  0.2997
 4070TIP3   OH233768   5.699   6.074   1.570  0.1019 -0.2665 -0.4271
 4070TIP3    H133769   5.745   6.157   1.559 -1.7205  0.6908 -1.3387
 4070TIP3    H233770   5.654   6.083   1.654  1.6447 -1.2859  0.5701
 4071TIP3   OH233771   5.544   5.866   0.469  0.7705 -0.3275 -0.1865
 4071TIP3    H133772   5.500   5.804   0.410 -0.7195  2.0128 -1.6755
 4071TIP3    H233773   5.637   5.852   0.452  0.4323  0.7139 -3.7573
 4072TIP3   OH233774   1.063   2.284   0.441  0.1523  0.1606  0.0623
 4072TIP3    H133775   0.992   2.291   0.505  1.2878 -2.8571  1.8357
 4072TIP3    H233776   1.089   2.192   0.443  1.4711  0.2852 -3.5075
 4073TIP3   OH233777   3.373   0.012   8.370 -0.0839 -0.4802  0.2893
 4073TIP3    H133778   3.437   0.080   8.389  0.7047 -0.7849 -1.1232
 4073TIP3    H233779   3.388  -0.009   8.277 -0.5122 -2.3590  0.6177
 4074TIP3   OH233780   4.393   0.455   7.027  0.3546  0.2460 -0.4285
 4074TIP3    H133781   4.420   0.447   6.936 -1.3829  0.1213 -0.9679
 4074TIP3    H233782   4.363   0.546   7.035 -1.3904 -0.2941 -0.5523
 4075TIP3   OH233783   2.123   4.831   1.766 -0.9274  0.2364 -0.3312
 4075TIP3    H133784   2.162   4.752   1.728 -0.9368 -0.6667  1.4548
 4075TIP3    H233785   2.054   4.799   1.824 -0.9373  1.5453  0.4238
 4076TIP3   OH233786   2.563   0.214   0.616 -0.0460  0.0058 -0.0730
 4076TIP3    H133787   2.532   0.200   0.527 -1.7857 -1.8048  0.7421
 4076TIP3    H233788   2.512   0.288   0.648  1.8815  1.8949 -1.0790
 4077TIP3   OH233789   3.082   0.514   1.819 -0.1424  0.0349  0.2332
 4077TIP3    H133790   3.018   0.470   1.875 -0.3889 -0.1841 -0.2221
 4077TIP3    H233791   3.068   0.607   1.835  0.6969 -0.0325  1.5575
 4078TIP3   OH233792   0.397   1.346   0.919 -0.3692  0.0487  0.6029
 4078TIP3    H133793   0.456   1.374   0.849 -1.1165 -0.3046 -0.1819
 4078TIP3    H233794   0.411   1.251   0.925  1.0295  0.2926  2.2056
 4079TIP3   OH233795   5.007   5.718   6.680  0.3235 -0.0962  0.0104
 4079TIP3    H133796   5.063   5.785   6.642  1.0794 -1.1335 -0.7617
 4079TIP3    H233797   4.937   5.706   6.616 -0.0291  0.2203  0.3312
 4080TIP3   OH233798   6.015   0.603   1.254  0.2374  0.0946  0.1357
 4080TIP3    H133799   5.942   0.646   1.299 -0.3362 -1.2294  0.5375
 4080TIP3    H233800   6.007   0.632   1.163  0.4223  1.5182  0.5489
 4081TIP3   OH233801   0.530   6.732   7.565  0.4838  0.6644 -0.0464
 4081TIP3    H133802   0.598   6.678   7.525  0.8677  1.2877 -0.2601
 4081TIP3    H233803   0.495   6.785   7.493  0.6820  1.2798  0.2978
 4082TIP3   OH233804   2.766   1.088   0.479  0.1165  0.2877 -0.3313
 4082TIP3    H133805   2.794   0.997   0.467 -0.0666  0.3841 -1.6556
 4082TIP3    H233806   2.752   1.097   0.573 -0.6701 -1.2986 -0.2675
 4083TIP3   OH233807   2.770   4.529   2.686 -0.3222 -0.6888 -0.1390
 4083TIP3    H133808   2.757   4.435   2.675  0.7190 -0.9318  0.5656
 4083TIP3    H233809   2.837   4.551   2.621  0.3014 -0.6756  0.4931
 4084TIP3   OH233810   5.173   5.404   0.508 -0.6240  0.4802 -0.3867
 4084TIP3    H133811   5.106   5.340   0.532 -0.0877  0.3364  0.8064
 4084TIP3    H233812   5.256   5.359   0.525 -0.2409  1.3361  0.0625
 4085TIP3   OH233813   4.109   4.979   8.613 -0.5119 -0.4131 -0.2347
 4085TIP3    H133814   4.099   5.069   8.581 -3.5186 -0.4405  0.3758
 4085TIP3    H233815   4.038   4.931   8.571  0.2843 -2.2485  0.4218
 4086TIP3   OH233816   4.937   0.025   0.924  0.1194 -0.2368 -0.1270
 4086TIP3    H133817   4.960   0.107   0.880 -0.3256 -0.5833 -1.0385
 4086TIP3    H233818   4.920  -0.036   0.853 -1.4304 -0.5963  0.4934
 4087TIP3   OH233819   5.475   1.186   2.127 -0.4212  0.0942  0.3398
 4087TIP3    H133820   5.407   1.196   2.060  1.6283 -0.4796 -2.0187
 4087TIP3    H233821   5.498   1.276   2.152 -0.2631  0.3971 -0.8294
 4088TIP3   OH233822   5.438   4.931   6.487  0.0886  0.3055 -0.5198
 4088TIP3    H133823   5.440   4.839   6.512 -1.1857  0.4589  0.2592
 4088TIP3    H233824   5.346   4.950   6.469  0.1178  1.7282  0.5923
 4089TIP3   OH233825   5.905   0.334   0.794 -0.0562 -0.1758  0.2155
 4089TIP3    H133826   5.891   0.427   0.810  1.8029  0.1268  0.3604
 4089TIP3    H233827   5.930   0.298   0.879 -0.4320 -0.7438  0.0914
 4090TIP3   OH233828   4.616   5.359   0.801 -0.2450 -0.1364  0.0764
 4090TIP3    H133829   4.698   5.370   0.848  0.0578  1.0327 -0.6873
 4090TIP3    H233830   4.566   5.439   0.820 -0.0248  0.4803 -1.6948
 4091TIP3   OH233831   6.170   1.980   0.827 -0.7079  0.0154  0.6877
 4091TIP3    H133832   6.239   1.948   0.885 -0.2310 -0.0500  0.0893
 4091TIP3    H233833   6.152   1.906   0.768 -0.2639  0.5138 -0.0932
 4092TIP3   OH233834   3.518   0.258   2.031  0.0472 -0.8268  0.3180
 4092TIP3    H133835   3.577   0.326   2.063 -0.5337 -0.2712  0.2186
 4092TIP3    H233836   3.446   0.258   2.094  0.2255 -1.6257  0.5391
 4093TIP3   OH233837   1.497   4.779   0.096 -0.9194  0.3417 -0.5338
 4093TIP3    H133838   1.547   4.754   0.018  0.2576  1.0757 -0.0449
 4093TIP3    H233839   1.481   4.697   0.142  1.6344  0.2637  0.3289
 4094TIP3   OH233840   2.780   1.486   7.219  0.4476  0.7794  0.2678
 4094TIP3    H133841   2.827   1.481   7.303  0.4018 -0.1124  0.2490
 4094TIP3    H233842   2.783   1.397   7.184 -2.6090  0.2540  1.0093
 4095TIP3   OH233843   0.823   1.337   6.235  0.2987  0.0869 -0.0878
 4095TIP3    H133844   0.908   1.380   6.237 -0.5277  1.8162  0.7993
 4095TIP3    H233845   0.824   1.284   6.156  0.9122  2.8846 -2.0966
 4096TIP3   OH233846   0.019   5.923   8.152 -0.0672 -0.9373 -0.1531
 4096TIP3    H133847   0.049   6.001   8.106 -0.2116 -0.4888  0.4868
 4096TIP3    H233848   0.091   5.901   8.211  0.3237 -1.8041 -0.9340
 4097TIP3   OH233849   1.906   2.802   7.606  0.3755 -0.6156  0.1983
 4097TIP3    H133850   1.995   2.765   7.608  1.1099  1.0212 -0.0457
 4097TIP3    H233851   1.920   2.895   7.622 -1.2239 -0.1816 -0.7729
 4098TIP3   OH233852   1.324   2.001   0.058  0.6295 -0.5991  0.4842
 4098TIP3    H133853   1.362   2.015   0.145  2.1148 -0.4608 -0.1605
 4098TIP3    H233854   1.353   2.076   0.006 -0.7012 -0.3921 -0.0098
 4099TIP3   OH233855   3.678   2.947   0.732 -0.0876  0.2907  0.5455
 4099TIP3    H133856   3.727   2.876   0.774  0.5873  0.2291 -0.3258
 4099TIP3    H233857   3.686   3.020   0.793  1.1902  0.3161  0.3753
 4100TIP3   OH233858   6.368   2.381   6.748 -0.1895 -0.5533 -0.4052
 4100TIP3    H133859   6.282   2.408   6.717  0.5087 -0.8046 -2.7508
 4100TIP3    H233860   6.417   2.463   6.758 -0.7792 -0.3724  1.3723
 4101TIP3   OH233861   5.360   2.135   8.059 -0.1452  0.1241 -0.1388
 4101TIP3    H133862   5.347   2.139   8.154 -1.9347  0.1661 -0.3498
 4101TIP3    H233863   5.441   2.182   8.044  0.1583  0.1463  1.3676
 4102TIP3   OH233864   2.788   0.631   0.304  0.2932 -0.0616 -0.1534
 4102TIP3    H133865   2.788   0.558   0.366 -1.2244  1.1264  1.3294
 4102TIP3    H233866   2.696   0.656   0.296  0.8255  2.2212  0.0534
 4103TIP3   OH233867   3.739   1.148   7.340 -0.7415 -0.4577  0.4941
 4103TIP3    H133868   3.655   1.169   7.380 -1.0391 -0.3368 -0.1735
 4103TIP3    H233869   3.759   1.224   7.285 -0.5224 -0.7666  0.1395
 4104TIP3   OH233870   1.007   4.718   0.292 -0.4021  0.0207 -0.5372
 4104TIP3    H133871   0.981   4.795   0.242 -0.8730  0.6720  0.6547
 4104TIP3    H233872   1.073   4.674   0.238 -0.2015  1.2086 -1.2811
 4105TIP3   OH233873   2.073   5.895   8.400  0.1670 -0.0097  0.1720
 4105TIP3    H133874   2.105   5.941   8.478  2.7277  0.0255 -0.7902
 4105TIP3    H233875   2.117   5.810   8.403 -0.0803 -0.1958 -0.9742
 4106TIP3   OH233876   3.171   6.516   8.433  0.1772 -0.9958  0.1635
 4106TIP3    H133877   3.130   6.432   8.415 -1.2009 -0.1539 -0.8683
 4106TIP3    H233878   3.099   6.579   8.431  0.5806 -0.1156  4.1593
 4107TIP3   OH233879   0.449   5.165   6.900 -0.2356  0.1642 -0.0739
 4107TIP3    H133880   0.410   5.250   6.880 -0.8565  0.3898  1.8473
 4107TIP3    H233881   0.425   5.109   6.826 -1.8775  1.0473 -0.2495
 4108TIP3   OH233882   5.215   1.069   8.169  0.4036  0.4426  0.3420
 4108TIP3    H133883   5.290   1.014   8.145 -2.4832 -4.4514  1.0835
 4108TIP3    H233884   5.160   1.069   8.090 -0.2309  1.2513  0.7747
 4109TIP3   OH233885   4.526   4.621   2.750  0.6070 -0.6248 -0.3864
 4109TIP3    H133886   4.494   4.536   2.722 -1.1497 -0.4139  0.8329
 4109TIP3    H233887   4.449   4.677   2.750  1.4266  0.5629  0.3368
 4110TIP3   OH233888   3.181   6.558   1.574 -0.3937 -0.4485  0.7018
 4110TIP3    H133889   3.212   6.610   1.500 -0.3543 -0.0346  1.0049
 4110TIP3    H233890   3.195   6.467   1.548 -1.6904 -0.3706 -0.3948
 4111TIP3   OH233891   5.530   5.867   1.473  0.4125  0.0383  0.3302
 4111TIP3    H133892   5.604   5.924   1.494 -0.3947  1.2497  0.0010
 4111TIP3    H233893   5.555   5.824   1.391  0.6654  0.6057  0.1036
 4112TIP3   OH233894   5.020   3.351   0.116 -0.2046 -0.4207 -0.2533
 4112TIP3    H133895   4.954   3.341   0.047  1.1349 -0.2081 -1.6209
 4112TIP3    H233896   5.097   3.387   0.071  1.1874 -1.5758  1.0738
 4113TIP3   OH233897   1.147   4.239   1.860 -0.0982  0.2462 -0.0949
 4113TIP3    H133898   1.223   4.297   1.861  0.1998 -0.1384 -0.0706
 4113TIP3    H233899   1.093   4.269   1.933 -0.7354  1.5061 -1.0479
 4114TIP3   OH233900   5.755   4.437   7.678  0.1438 -0.2566 -0.2480
 4114TIP3    H133901   5.813   4.402   7.746 -0.1351 -0.7879 -0.2757
 4114TIP3    H233902   5.813   4.454   7.604  0.4005  0.0281  0.0158
 4115TIP3   OH233903   1.758   6.640   7.863 -1.1625 -0.3222 -0.0862
 4115TIP3    H133904   1.818   6.606   7.929 -1.0880 -0.5668 -0.2792
 4115TIP3    H233905   1.730   6.563   7.813 -0.8124 -0.0726 -0.6750
 4116TIP3   OH233906   2.103   5.802   6.958 -0.2085  0.3637  0.1886
 4116TIP3    H133907   2.029   5.797   7.018 -0.0719 -1.1535  0.2885
 4116TIP3    H233908   2.086   5.879   6.904 -1.6893  0.2207  0.4156
 4117TIP3   OH233909   2.519   3.170   0.481 -0.1174 -0.0420 -0.4581
 4117TIP3    H133910   2.604   3.128   0.469 -0.1465  0.3092 -2.2266
 4117TIP3    H233911   2.538   3.264   0.478 -0.5074  0.0419 -0.3502
 4118TIP3   OH233912   3.857   0.945   0.583  0.0164 -0.0958 -0.2839
 4118TIP3    H133913   3.887   0.927   0.672 -0.2188  1.0469  0.0448
 4118TIP3    H233914   3.916   0.894   0.527  1.4379  0.6919  0.4424
 4119TIP3   OH233915   1.278   3.908   7.124 -0.2485 -0.2497  0.2984
 4119TIP3    H133916   1.282   3.897   7.029  1.0518  2.2606 -0.0090
 4119TIP3    H233917   1.365   3.883   7.154  0.1690  1.3036  0.4788
 4120TIP3   OH233918   5.890   6.637   7.447 -0.0480  0.0748  0.0059
 4120TIP3    H133919   5.919   6.627   7.538 -2.8693 -1.9869  0.8198
 4120TIP3    H233920   5.865   6.549   7.420  1.5070  0.4436 -3.1734
 4121TIP3   OH233921   6.086   0.877   2.063  0.9049 -0.3201 -0.1657
 4121TIP3    H133922   6.180   0.860   2.073  0.9699  0.2029  0.1885
 4121TIP3    H233923   6.074   0.964   2.101  0.5594  0.3446 -1.7202
 4122TIP3   OH233924   1.185   0.234   1.592  0.2553 -0.5762  0.2391
 4122TIP3    H133925   1.244   0.173   1.635 -0.1170 -1.3322 -0.3090
 4122TIP3    H233926   1.148   0.287   1.663  0.6097 -0.9551  0.7078
 4123TIP3   OH233927   0.205   3.796   7.736  0.6620 -0.0626  0.3991
 4123TIP3    H133928   0.292   3.816   7.702  0.3677  0.6188  0.0416
 4123TIP3    H233929   0.165   3.740   7.669  1.0316 -0.8661  0.8337
 4124TIP3   OH233930   2.678   0.376   8.438 -0.0218 -0.2976  0.1064
 4124TIP3    H133931   2.727   0.403   8.361 -2.2248  0.0024 -1.2965
 4124TIP3    H233932   2.617   0.309   8.405 -0.5635 -0.6463  1.7259
 4125TIP3   OH233933   0.784   2.115   7.667 -0.5021  0.6309  0.4206
 4125TIP3    H133934   0.737   2.033   7.651  0.4993  0.3336 -1.1365
 4125TIP3    H233935   0.874   2.088   7.687 -0.1016  1.3433 -0.3550
 4126TIP3   OH233936   5.008   5.294   7.144  0.1073 -0.5097  0.0069
 4126TIP3    H133937   5.055   5.228   7.092 -0.5356  0.6764 -2.1924
 4126TIP3    H233938   4.930   5.314   7.092  2.3763  5.2552 -1.9125
 4127TIP3   OH233939   1.399   1.550   7.287  0.7755  0.1014  0.1550
 4127TIP3    H133940   1.361   1.629   7.247 -0.7287 -1.5402 -1.8929
 4127TIP3    H233941   1.451   1.511   7.218  1.9708 -0.4358  1.3296
 4128TIP3   OH233942   6.638   3.248   0.236  0.1195 -0.6889 -0.3143
 4128TIP3    H133943   6.558   3.196   0.246 -0.8301  0.8037  0.3877
 4128TIP3    H233944   6.660   3.242   0.143 -0.8938 -1.0419 -0.5436
 4129TIP3   OH233945   1.215   2.056   6.582  0.2563 -0.0372  0.8116
 4129TIP3    H133946   1.292   2.001   6.574  0.2991  0.0159  0.8581
 4129TIP3    H233947   1.216   2.111   6.504 -0.0889 -0.4818  0.4828
 4130TIP3   OH233948   2.911   5.276   1.793 -0.4693  0.4629  0.1543
 4130TIP3    H133949   2.876   5.363   1.810 -0.6310  0.3185  0.5891
 4130TIP3    H233950   2.841   5.216   1.821 -0.1975  0.1886  0.2638
 4131TIP3   OH233951   5.803   1.982   8.318 -0.1765 -0.1572  0.5673
 4131TIP3    H133952   5.748   2.055   8.289  0.0312 -0.3328 -0.2901
 4131TIP3    H233953   5.889   2.021   8.332  0.7167 -0.6938 -2.6853
 4132TIP3   OH233954   0.353   5.979   7.875  0.7717  0.1644  0.6808
 4132TIP3    H133955   0.312   5.927   7.805  3.4683  0.0541 -0.9677
 4132TIP3    H233956   0.319   5.941   7.956 -1.1300 -0.8676 -0.5224
 4133TIP3   OH233957   1.518   2.094   6.000 -0.3235 -0.5151 -0.3400
 4133TIP3    H133958   1.490   2.151   5.928 -0.1282  1.3286  0.9778
 4133TIP3    H233959   1.484   2.008   5.977 -2.1401  0.4672 -1.5885
 4134TIP3   OH233960   3.011   3.057   7.004 -0.3426  0.0966 -0.4723
 4134TIP3    H133961   2.974   3.085   6.920  2.1420  1.5377 -1.1761
 4134TIP3    H233962   3.031   3.138   7.050 -1.3107 -0.6706  1.4250
 4135TIP3   OH233963   0.787   1.446   7.440 -0.1383  0.7882 -0.1727
 4135TIP3    H133964   0.836   1.374   7.478 -0.2683  0.5338 -0.4743
 4135TIP3    H233965   0.695   1.420   7.450 -0.2240  1.3389  0.5415
 4136TIP3   OH233966   5.297   4.350   7.147 -0.2389 -0.3173  0.5058
 4136TIP3    H133967   5.269   4.339   7.056  2.8344 -1.1752 -0.4592
 4136TIP3    H233968   5.217   4.339   7.198 -2.1651  0.6204 -2.0622
 4137TIP3   OH233969   3.145   2.445   7.853  0.3501 -0.6378  0.1625
 4137TIP3    H133970   3.106   2.477   7.771  0.9764  0.8268  0.4110
 4137TIP3    H233971   3.161   2.523   7.905  2.3941 -1.2789  0.6188
 4138TIP3   OH233972   0.253   5.074   1.207  0.4672 -0.0447 -0.3194
 4138TIP3    H133973   0.173   5.079   1.260  0.4456 -0.6093 -0.2956
 4138TIP3    H233974   0.247   4.990   1.163  0.5608  0.3499 -1.1035
 4139TIP3   OH233975   1.223   2.217   1.711 -0.3981  0.2511 -0.0879
 4139TIP3    H133976   1.211   2.131   1.670  0.0537  0.3787 -0.4922
 4139TIP3    H233977   1.272   2.198   1.792 -2.4584 -0.1674  1.1306
 4140TIP3   OH233978   1.001   5.085   6.358 -0.9807  0.0235 -0.4522
 4140TIP3    H133979   1.023   5.016   6.295  1.0472  0.3584 -0.1718
 4140TIP3    H233980   0.934   5.138   6.313 -0.0039 -0.0815 -2.1206
 4141TIP3   OH233981   1.350   0.531   8.224 -0.1673 -0.3234 -0.3937
 4141TIP3    H133982   1.309   0.618   8.224 -2.3821 -1.2540  1.8817
 4141TIP3    H233983   1.369   0.514   8.132 -1.7370  1.6714 -1.1654
 4142TIP3   OH233984   0.931   3.012   1.111 -0.3792  0.3496 -0.3626
 4142TIP3    H133985   0.971   3.096   1.086 -1.2986  0.9110  0.0059
 4142TIP3    H233986   0.947   2.955   1.036 -0.0045  0.9395 -0.7438
 4143TIP3   OH233987   5.746   6.303   1.898 -0.8084 -0.1536 -0.7129
 4143TIP3    H133988   5.701   6.351   1.828  0.4791  0.6950 -0.9919
 4143TIP3    H233989   5.819   6.359   1.923  0.2423 -1.5790 -0.4401
 4144TIP3   OH233990   1.525   6.150   1.049 -0.4911  0.0194 -0.5889
 4144TIP3    H133991   1.470   6.170   0.972  0.3120 -0.4850 -1.3067
 4144TIP3    H233992   1.600   6.103   1.013 -0.9273 -1.7544  0.7105
 4145TIP3   OH233993   6.331   6.218   1.506 -0.1204 -0.1489 -0.0822
 4145TIP3    H133994   6.237   6.220   1.490 -0.3284  0.6213  1.1147
 4145TIP3    H233995   6.354   6.125   1.503 -0.7204 -0.2729 -1.3916
 4146TIP3   OH233996   0.380   0.805   0.074  0.5301  0.0433  0.7480
 4146TIP3    H133997   0.328   0.834   0.149  1.1381 -1.3365  1.7503
 4146TIP3    H233998   0.410   0.717   0.098 -0.1585 -0.8977 -1.5730
 4147TIP3   OH233999   4.540   3.462   0.153  0.0217 -0.0726  0.4571
 4147TIP3    H134000   4.508   3.374   0.136 -0.3507 -0.1398  1.4295
 4147TIP3    H234001   4.483   3.519   0.102 -1.7053 -0.1909  2.1305
 4148TIP3   OH234002   2.507   4.248   0.456  0.3523 -0.3893  0.3668
 4148TIP3    H134003   2.416   4.254   0.425  0.4811 -0.9036 -0.1364
 4148TIP3    H234004   2.552   4.318   0.409  0.5292 -1.1176 -0.5883
 4149TIP3   OH234005   0.389   5.811   1.836 -0.2149 -0.4257 -0.1265
 4149TIP3    H134006   0.384   5.732   1.782  2.1444  0.3247 -1.5455
 4149TIP3    H234007   0.305   5.813   1.882 -0.9299 -2.9571 -1.1348
 4150TIP3   OH234008   4.487   4.290   8.295  0.6006 -0.1110 -0.3863
 4150TIP3    H134009   4.501   4.195   8.291  0.6132 -0.1156 -0.2311
 4150TIP3    H234010   4.404   4.300   8.342  0.0615 -0.0819 -1.3213
 4151TIP3   OH234011   6.113   3.423   6.669  0.1650  0.1703 -0.1971
 4151TIP3    H134012   6.072   3.352   6.719  0.8094  0.9492  1.5069
 4151TIP3    H234013   6.040   3.464   6.622 -0.4308 -0.7148 -0.0651
 4152TIP3   OH234014   6.111   0.663   1.013 -0.0181  0.8139  0.1243
 4152TIP3    H134015   6.169   0.656   0.937  0.4257  0.9723  0.4418
 4152TIP3    H234016   6.046   0.728   0.989 -0.0121  0.6989 -0.2043
 4153TIP3   OH234017   2.319   6.748   7.406 -0.3659 -0.2108  0.3717
 4153TIP3    H134018   2.297   6.733   7.498 -1.0083 -0.9691  0.1070
 4153TIP3    H234019   2.247   6.802   7.373  0.4079  0.9793  0.5630
 4154TIP3   OH234020   2.243   0.436   7.763 -0.5310 -0.0550  0.4534
 4154TIP3    H134021   2.331   0.465   7.789 -0.5123 -0.7360  1.1723
 4154TIP3    H234022   2.184   0.484   7.821 -0.5703 -0.4164  0.7167
 4155TIP3   OH234023   0.142   6.191   0.233 -0.6776 -0.0567 -0.2366
 4155TIP3    H134024   0.095   6.269   0.203 -2.0621 -0.7079  0.1267
 4155TIP3    H234025   0.073   6.135   0.269  0.1861 -1.7225 -1.0722
 4156TIP3   OH234026   5.906   0.727   7.267  0.0524 -0.0441  0.2806
 4156TIP3    H134027   5.934   0.788   7.199  0.3732  1.1626  1.4481
 4156TIP3    H234028   5.821   0.696   7.238  0.5236 -0.1576 -1.0459
 4157TIP3   OH234029   6.643   3.322   8.610  0.1029 -0.4795 -0.2656
 4157TIP3    H134030   6.573   3.259   8.594  0.6198 -0.7660 -1.5234
 4157TIP3    H234031   6.689   3.329   8.526  0.5691  0.9488  0.0734
 4158TIP3   OH234032   4.811   2.359   8.319 -0.3830 -0.2775 -0.1597
 4158TIP3    H134033   4.889   2.416   8.323 -1.1786  0.7972  1.3512
 4158TIP3    H234034   4.766   2.386   8.240 -1.5474  2.4247  1.2916
 4159TIP3   OH234035   0.532   1.007   7.847 -0.1168  0.5756 -0.5654
 4159TIP3    H134036   0.603   0.943   7.846  0.2996  1.0365 -1.2530
 4159TIP3    H234037   0.477   0.981   7.921  0.8821  0.3400  0.1079
 4160TIP3   OH234038   1.057   1.736   0.297 -0.0513 -0.0523 -0.0874
 4160TIP3    H134039   0.992   1.758   0.230  1.0648  1.2814 -0.7737
 4160TIP3    H234040   1.010   1.679   0.358 -1.7418  0.5550 -0.7685
 4161TIP3   OH234041   3.058   1.865   8.623 -0.5936  0.0594 -0.1262
 4161TIP3    H134042   3.036   1.874   8.715  0.5731 -2.8921  0.5666
 4161TIP3    H234043   3.045   1.952   8.586 -1.5309  1.2241  2.7027
 4162TIP3   OH234044   4.829   4.994   7.209  0.4432 -0.0154  0.1809
 4162TIP3    H134045   4.844   5.040   7.127  0.2729  0.5375  0.4581
 4162TIP3    H234046   4.824   5.063   7.276 -2.1772 -0.2201  0.2777
 4163TIP3   OH234047   5.682   0.880   2.009  0.6816  0.7190 -0.5917
 4163TIP3    H134048   5.657   0.810   2.069 -3.4859  1.2499 -1.3528
 4163TIP3    H234049   5.701   0.955   2.065  1.3751  0.0196  0.1296
 4164TIP3   OH234050   1.083   0.241   2.531 -0.4635  0.2567  0.1354
 4164TIP3    H134051   1.101   0.148   2.541  0.5699  0.3250 -0.9322
 4164TIP3    H234052   1.005   0.245   2.476 -0.9985  0.0256  0.8595
 4165TIP3   OH234053   1.901   0.733   8.311 -0.1528  0.2541  0.2847
 4165TIP3    H134054   1.826   0.674   8.300 -0.6895  0.9002  0.4411
 4165TIP3    H234055   1.864   0.821   8.306  0.8431  0.6297 -1.4178
 4166TIP3   OH234056   4.641   6.729   7.423 -0.3451 -0.5290 -0.7001
 4166TIP3    H134057   4.558   6.750   7.466  1.0807  0.9526  1.5374
 4166TIP3    H234058   4.697   6.805   7.440  2.9980 -3.2343  2.0402
 4167TIP3   OH234059   4.008   0.135   0.619 -0.1433  0.1835 -0.0580
 4167TIP3    H134060   4.024   0.220   0.661 -2.1185  1.2207 -1.2646
 4167TIP3    H234061   3.929   0.101   0.662 -0.9283  0.2507 -1.4043
 4168TIP3   OH234062   5.568   3.028   0.384 -0.9725  0.2597 -0.3142
 4168TIP3    H134063   5.606   3.092   0.443 -0.5102 -1.0339  0.8402
 4168TIP3    H234064   5.600   2.944   0.416 -1.7472 -0.5777 -1.6438
 4169TIP3   OH234065   0.055   0.165   0.129 -0.0584 -0.5477  0.0941
 4169TIP3    H134066  -0.003   0.221   0.078 -0.7573 -1.9680 -0.7371
 4169TIP3    H234067   0.096   0.224   0.192 -2.7764  0.4888  1.0825
 4170TIP3   OH234068   5.221   1.604   8.271  0.4704 -0.4872 -0.3047
 4170TIP3    H134069   5.296   1.546   8.258  1.6080  0.8865 -0.0293
 4170TIP3    H234070   5.258   1.692   8.276 -0.9840  0.1006  1.4258
 4171TIP3   OH234071   6.391   2.981   0.940 -0.4715  0.7048  0.1682
 4171TIP3    H134072   6.378   2.985   1.035  0.4221  0.6248  0.3012
 4171TIP3    H234073   6.309   3.015   0.904 -1.3414 -0.4673  0.9348
 4172TIP3   OH234074   2.607   2.734   0.928  0.3483 -0.6504  1.0547
 4172TIP3    H134075   2.569   2.646   0.937  2.2396 -1.5910  0.4117
 4172TIP3    H234076   2.618   2.745   0.833  0.5696  0.0813  1.1652
 4173TIP3   OH234077   0.884   3.007   7.572 -0.0469 -0.3185  0.0937
 4173TIP3    H134078   0.902   3.078   7.633  1.2010  0.1876 -0.8274
 4173TIP3    H234079   0.968   2.962   7.561 -0.8076 -1.9954  0.6769
 4174TIP3   OH234080   3.459   5.153   8.137  0.0959 -0.5239  0.0619
 4174TIP3    H134081   3.508   5.183   8.060 -1.1643  1.6813  0.0156
 4174TIP3    H234082   3.391   5.220   8.148 -0.8115 -1.7175  2.0797
 4175TIP3   OH234083   5.622   5.173   8.319  0.1353 -0.4072  0.4237
 4175TIP3    H134084   5.601   5.099   8.376 -0.2891  0.4759  1.4553
 4175TIP3    H234085   5.541   5.189   8.270 -0.8494  1.2606  2.4209
 4176TIP3   OH234086   1.735   6.424   7.711 -0.1640  0.1127 -0.8297
 4176TIP3    H134087   1.666   6.382   7.763  0.7373  0.4863  0.7032
 4176TIP3    H234088   1.791   6.351   7.683 -1.3849 -0.2528 -2.4830
 4177TIP3   OH234089   3.134   0.357   7.187 -0.4224 -0.1619  0.6934
 4177TIP3    H134090   3.193   0.331   7.116  0.1389  0.3220  0.9776
 4177TIP3    H234091   3.048   0.324   7.160  0.3409 -2.9718  1.3668
 4178TIP3   OH234092   2.921   0.479   1.544 -0.2216 -0.0883  0.0313
 4178TIP3    H134093   2.936   0.412   1.611 -0.4369  0.7597  0.9498
 4178TIP3    H234094   2.993   0.541   1.556 -0.5501  0.3395 -0.1977
 4179TIP3   OH234095   6.562   5.088   0.563 -0.2927 -0.2220 -0.2631
 4179TIP3    H134096   6.657   5.102   0.561 -0.5389  1.5991 -0.5420
 4179TIP3    H234097   6.525   5.174   0.548 -2.0202 -0.5018  1.8805
 4180TIP3   OH234098   1.404   4.555   7.630 -0.0481  0.1635  0.3392
 4180TIP3    H134099   1.445   4.593   7.553 -1.4009 -0.4287 -0.7120
 4180TIP3    H234100   1.369   4.471   7.600 -1.5061  0.3735  1.3033
 4181TIP3   OH234101   4.730   4.264   0.003  0.2424  0.2814 -0.5922
 4181TIP3    H134102   4.734   4.256   0.098 -1.0382  2.4719 -0.2901
 4181TIP3    H234103   4.695   4.180  -0.027  2.3979 -1.1689  0.6169
 4182TIP3   OH234104   4.883   2.168   2.059 -0.8137  0.6835 -0.7087
 4182TIP3    H134105   4.959   2.205   2.104  0.6964 -2.0613 -0.7397
 4182TIP3    H234106   4.811   2.177   2.122  0.2959  0.5741  0.6393
 4183TIP3   OH234107   6.855   4.313   7.132 -0.1275 -0.3347 -0.4147
 4183TIP3    H134108   6.945   4.281   7.123 -0.1270  0.2528 -3.9340
 4183TIP3    H234109   6.863   4.408   7.128 -0.9057 -0.2929 -1.9991
 4184TIP3   OH234110   3.749   5.563   8.278 -0.4950  0.0756  0.6577
 4184TIP3    H134111   3.828   5.592   8.232 -0.3880 -0.6446  0.3879
 4184TIP3    H234112   3.764   5.471   8.298 -1.2217 -0.0413  0.7003
 4185TIP3   OH234113   3.039   5.184   1.589 -0.0747  0.1959  0.1732
 4185TIP3    H134114   2.973   5.190   1.520 -1.0737 -2.1801  0.8127
 4185TIP3    H234115   2.993   5.210   1.669  0.3537  0.5000  0.3259
 4186TIP3   OH234116   3.187   1.264   8.202 -0.1478 -0.0684 -0.1074
 4186TIP3    H134117   3.245   1.339   8.215 -1.7154  0.8096  2.7129
 4186TIP3    H234118   3.101   1.304   8.186 -0.5319 -1.3234 -1.3345
 4187TIP3   OH234119   1.014   6.574   7.822 -0.5856  0.2446  1.1837
 4187TIP3    H134120   1.103   6.601   7.799 -0.9169  0.1172 -0.3487
 4187TIP3    H234121   0.968   6.657   7.837 -0.1131  0.3000  2.4697
 4188TIP3   OH234122   2.702   4.159   6.743 -0.7200 -0.2083  0.0189
 4188TIP3    H134123   2.766   4.191   6.806  0.4960 -0.6870 -0.9253
 4188TIP3    H234124   2.671   4.076   6.779 -2.4672  1.0278  1.5352
 4189TIP3   OH234125   0.483   5.149   2.683 -0.4425 -0.2204 -0.0009
 4189TIP3    H134126   0.411   5.201   2.648 -0.1185 -0.4935 -1.1201
 4189TIP3    H234127   0.458   5.058   2.667 -0.7510 -0.4115  1.4427
 4190TIP3   OH234128   0.707   0.888   2.129  0.1427 -0.6118  0.5254
 4190TIP3    H134129   0.725   0.827   2.057  0.1090 -0.4889  0.4113
 4190TIP3    H234130   0.789   0.892   2.178  1.3076  1.8341 -1.3948
 4191TIP3   OH234131   2.931   4.519   1.146 -0.4669  0.2696  0.2150
 4191TIP3    H134132   2.924   4.573   1.225  0.3266  1.1841 -0.3093
 4191TIP3    H234133   2.909   4.430   1.175  0.5071  0.4577  1.6175
 4192TIP3   OH234134   6.018   4.166   2.090  0.1298 -0.4539  0.2198
 4192TIP3    H134135   6.108   4.156   2.058  0.5998 -1.9477  1.8562
 4192TIP3    H234136   6.028   4.171   2.185 -1.6040 -1.9132  0.5107
 4193TIP3   OH234137   3.557   3.798   6.765 -0.0418  0.1787  0.3798
 4193TIP3    H134138   3.506   3.792   6.685 -0.4941 -1.2017  0.7458
 4193TIP3    H234139   3.528   3.879   6.806 -0.7371  0.2474 -0.2332
 4194TIP3   OH234140   0.990   3.723   1.460 -0.0161 -0.5511 -0.4391
 4194TIP3    H134141   0.908   3.762   1.490  0.1691  0.6155 -1.3514
 4194TIP3    H234142   0.963   3.642   1.416 -0.7146 -0.1043 -0.8642
 4195TIP3   OH234143   5.479   1.104   0.251 -0.3480  0.6611  0.3127
 4195TIP3    H134144   5.400   1.135   0.206  0.5800  2.3095 -0.2416
 4195TIP3    H234145   5.466   1.009   0.257 -1.7887  0.7284 -0.9068
 4196TIP3   OH234146   4.985   4.365   7.356 -0.2223 -0.0572 -0.2784
 4196TIP3    H134147   5.015   4.456   7.364  0.1137 -0.0895 -1.0397
 4196TIP3    H234148   4.940   4.363   7.271  2.9428 -1.4441 -2.0544
 4197TIP3   OH234149   0.535   0.640   1.659 -0.0495 -0.1242  0.0658
 4197TIP3    H134150   0.541   0.734   1.645 -1.2392 -0.1040 -0.4001
 4197TIP3    H234151   0.624   0.614   1.683  0.5495  0.9436 -0.8921
 4198TIP3   OH234152   3.056   3.969   7.107  1.0140 -0.7933  0.3434
 4198TIP3    H134153   3.121   4.022   7.062 -0.7536 -0.0237 -1.4066
 4198TIP3    H234154   2.986   3.955   7.043 -1.1610 -0.5068  2.5019
 4199TIP3   OH234155   6.738   1.451   6.989  0.1837 -0.6300 -0.3969
 4199TIP3    H134156   6.659   1.495   7.021  0.7463 -0.7210  1.1988
 4199TIP3    H234157   6.797   1.523   6.965 -0.5163 -0.5594 -2.0394
 4200TIP3   OH234158   1.988   6.221   0.029  0.2865 -0.1668  0.2930
 4200TIP3    H134159   1.973   6.314   0.012 -1.3331 -0.4005  0.2856
 4200TIP3    H234160   1.994   6.215   0.124 -1.0175 -0.2041  0.3998
 4201TIP3   OH234161   1.624   6.800   8.374 -0.2486  0.5184 -0.8404
 4201TIP3    H134162   1.532   6.810   8.347  0.3095  0.2628 -3.0445
 4201TIP3    H234163   1.657   6.730   8.318  1.3004  0.5580 -0.0240
 4202TIP3   OH234164   6.033   6.144   1.490 -0.0095  0.0997  0.4507
 4202TIP3    H134165   5.974   6.169   1.420  1.3707 -0.1278 -0.8427
 4202TIP3    H234166   5.993   6.180   1.569 -2.5151 -1.1432 -0.1531
 4203TIP3   OH234167   2.081   0.119   0.338 -0.7016  0.0569  0.3398
 4203TIP3    H134168   2.023   0.043   0.345 -1.8382  0.7628 -1.0018
 4203TIP3    H234169   2.045   0.182   0.400 -0.3864 -0.0825  0.6741
 4204TIP3   OH234170   1.536   2.241   0.885 -0.9004  0.2343  0.5357
 4204TIP3    H134171   1.569   2.152   0.897 -0.1543  0.2722 -1.0232
 4204TIP3    H234172   1.483   2.257   0.963  0.9427 -0.6493  2.0605
 4205TIP3   OH234173   1.240   4.093   1.511  0.4076  0.3071 -0.1863
 4205TIP3    H134174   1.255   4.027   1.443  0.4839  0.1141  0.0174
 4205TIP3    H234175   1.182   4.157   1.469 -0.6489 -0.5004 -0.0176
 4206TIP3   OH234176   1.714   0.597   5.987  0.4692 -0.0071 -0.2418
 4206TIP3    H134177   1.786   0.646   5.945  0.8255 -0.1108  0.2403
 4206TIP3    H234178   1.655   0.664   6.020  0.7882  0.0964  0.1241
 4207TIP3   OH234179   4.123   6.420   8.250 -0.2705  0.7558 -0.4008
 4207TIP3    H134180   4.160   6.449   8.167  0.4141  3.3005  0.6956
 4207TIP3    H234181   4.122   6.499   8.305  1.0959 -1.1792  2.6803
 4208TIP3   OH234182   6.118   2.844   7.262  0.7817  0.3782  0.2014
 4208TIP3    H134183   6.134   2.800   7.178  0.7062  1.3019 -0.3026
 4208TIP3    H234184   6.057   2.785   7.308  0.6895 -0.0514 -0.4603
 4209TIP3   OH234185   3.199   3.712   1.322 -0.1283 -0.1289 -0.3276
 4209TIP3    H134186   3.119   3.755   1.349  0.5992  0.0281  1.7207
 4209TIP3    H234187   3.216   3.646   1.389  0.4939 -1.4437 -1.6978
 4210TIP3   OH234188   1.346   1.555   7.665  0.3259  0.2679  0.2404
 4210TIP3    H134189   1.289   1.547   7.742 -0.5315  0.5446 -0.3490
 4210TIP3    H234190   1.377   1.645   7.668  0.6843  0.1372  0.5242
 4211TIP3   OH234191   1.879   5.313   1.221 -0.6254 -0.0189 -0.5075
 4211TIP3    H134192   1.867   5.338   1.130 -0.9777  2.8891  0.2412
 4211TIP3    H234193   1.805   5.353   1.267  0.9681  0.9205  1.4105
 4212TIP3   OH234194   2.701   3.603   0.277  0.7256  0.4858  0.0437
 4212TIP3    H134195   2.663   3.537   0.218 -1.2725  0.1884  1.5776
 4212TIP3    H234196   2.792   3.576   0.286 -0.6037 -4.1790  3.1275
 4213TIP3   OH234197   2.651   1.790   1.272 -0.1699 -0.2000  0.0402
 4213TIP3    H134198   2.593   1.833   1.335  0.2458 -1.7055  1.5149
 4213TIP3    H234199   2.620   1.700   1.267  0.0778 -0.2379 -1.6359
 4214TIP3   OH234200   6.202   4.781   8.635 -0.1720  0.0176  0.6810
 4214TIP3    H134201   6.202   4.712   8.702  0.2393  0.7821  1.4770
 4214TIP3    H234202   6.118   4.769   8.590 -0.7642 -0.0863  1.7753
 4215TIP3   OH234203   4.931   0.623   0.190 -0.0649  0.4703  0.1821
 4215TIP3    H134204   4.896   0.654   0.106 -1.0515 -0.2023  0.3333
 4215TIP3    H234205   4.916   0.528   0.188  1.4644  0.1984  0.3974
 4216TIP3   OH234206   3.116   4.956   7.790 -0.1091 -0.1646 -0.0467
 4216TIP3    H134207   3.189   4.954   7.728  1.0262 -1.9128  1.2862
 4216TIP3    H234208   3.065   4.878   7.769 -0.5986  0.0830  0.2144
 4217TIP3   OH234209   0.688   4.117   8.138  0.2568  0.4141  0.5240
 4217TIP3    H134210   0.629   4.107   8.064  1.5073 -3.5068 -0.1556
 4217TIP3    H234211   0.630   4.122   8.214 -1.0504 -0.9290 -0.3201
 4218TIP3   OH234212   6.304   3.900   8.278  0.1159 -0.0577  0.3345
 4218TIP3    H134213   6.241   3.874   8.345 -0.6554  0.1397 -0.3042
 4218TIP3    H234214   6.322   3.992   8.296  0.8620 -0.3214  1.0119
 4219TIP3   OH234215   4.159   0.608   0.400 -0.5714  0.7804  0.0499
 4219TIP3    H134216   4.095   0.678   0.416 -2.7522 -0.9962 -0.2992
 4219TIP3    H234217   4.128   0.565   0.320 -0.7737 -2.0209  1.5024
 4220TIP3   OH234218   2.881   6.302   0.287 -0.2177  0.2675  0.7104
 4220TIP3    H134219   2.858   6.223   0.335 -0.3111  0.3867  0.8612
 4220TIP3    H234220   2.878   6.373   0.352  0.2621  0.3352  0.6645
 4221TIP3   OH234221   3.092   6.822   7.200  0.0214  0.2095 -0.0794
 4221TIP3    H134222   3.149   6.846   7.273  1.0312 -1.3903 -0.2835
 4221TIP3    H234223   3.059   6.906   7.166  0.9948  1.0786  1.0480
 4222TIP3   OH234224   0.232   3.300   0.405  0.0231  0.3177 -0.1123
 4222TIP3    H134225   0.142   3.309   0.437  0.1594  3.0348 -0.2530
 4222TIP3    H234226   0.245   3.205   0.398 -2.1571 -0.2266  1.7269
 4223TIP3   OH234227   4.849   5.026   1.816 -0.0346 -0.2689 -0.2197
 4223TIP3    H134228   4.875   5.069   1.897 -1.3521 -0.4728  0.3357
 4223TIP3    H234229   4.759   4.996   1.832 -0.6411  0.3992 -2.0261
 4224TIP3   OH234230   4.976   3.195   1.448  1.0900  0.3183 -0.1398
 4224TIP3    H134231   5.035   3.268   1.430  1.8353 -0.5766 -1.5544
 4224TIP3    H234232   5.021   3.119   1.410  1.6527 -1.4070  3.5979
 4225TIP3   OH234233   6.548   6.263   7.097 -0.8037 -0.4242 -0.5448
 4225TIP3    H134234   6.588   6.336   7.051  1.8069  0.4251  2.6549
 4225TIP3    H234235   6.468   6.299   7.135 -1.4079 -0.3108 -1.8759
 4226TIP3   OH234236   4.880   0.216   1.663 -0.4132 -0.6494 -0.1279
 4226TIP3    H134237   4.961   0.182   1.626  0.1095  0.6012 -0.1465
 4226TIP3    H234238   4.835   0.257   1.589 -0.0988  0.4668  0.2872
 4227TIP3   OH234239   6.828   0.749   0.320  0.1618  0.8967 -0.2392
 4227TIP3    H134240   6.815   0.839   0.350 -1.3679  0.0664  1.7773
 4227TIP3    H234241   6.799   0.694   0.393  1.8687 -1.2675 -1.0544
 4228TIP3   OH234242   1.498   4.786   6.590 -0.6878  0.4758  0.1872
 4228TIP3    H134243   1.434   4.797   6.519 -0.6672  0.2004  0.1243
 4228TIP3    H234244   1.581   4.769   6.545 -0.5465  0.9467  0.2673
 4229TIP3   OH234245   4.049   1.352   2.269  0.0349  0.0538 -0.1909
 4229TIP3    H134246   3.990   1.347   2.344  0.2122 -0.1604 -0.0616
 4229TIP3    H234247   4.004   1.305   2.199 -0.2765  0.5433 -0.3179
 4230TIP3   OH234248   0.899   6.777   1.495 -0.5621  0.1304  0.0393
 4230TIP3    H134249   0.806   6.787   1.479 -0.7181  2.1413  1.7360
 4230TIP3    H234250   0.915   6.824   1.577  2.0416  0.4155 -0.5166
 4231TIP3   OH234251   2.821   2.938   8.589  0.0684 -0.4912 -0.0328
 4231TIP3    H134252   2.795   2.887   8.665  0.3667 -1.0862 -0.3270
 4231TIP3    H234253   2.744   2.992   8.568  0.6354  1.2118  1.9166
 4232TIP3   OH234254   1.913   0.324   7.828  0.5671  0.1863 -0.3540
 4232TIP3    H134255   1.921   0.252   7.766  0.3201  0.1294 -0.3220
 4232TIP3    H234256   1.995   0.322   7.878  1.4234  1.1571 -1.6492
 4233TIP3   OH234257   5.118   1.792   0.293  0.0483 -0.0671  0.0110
 4233TIP3    H134258   5.133   1.776   0.386 -0.1277  2.4956  0.5447
 4233TIP3    H234259   5.039   1.741   0.273 -1.5281  1.4187  1.9894
 4234TIP3   OH234260   3.156   1.085   7.160  0.0169  0.6965 -0.1326
 4234TIP3    H134261   3.248   1.105   7.178  0.2856 -0.3774 -0.2750
 4234TIP3    H234262   3.120   1.059   7.244  0.7969 -2.4620 -0.6542
 4235TIP3   OH234263   4.757   3.923   2.036 -0.0391 -0.1366 -0.2083
 4235TIP3    H134264   4.846   3.899   2.010 -0.3867 -2.0459  0.2380
 4235TIP3    H234265   4.719   3.962   1.958  0.9528  0.0523 -0.6141
 4236TIP3   OH234266   2.135   2.282   0.145 -0.2242 -0.0897  0.4637
 4236TIP3    H134267   2.041   2.266   0.147 -0.1781 -0.3296  0.7012
 4236TIP3    H234268   2.174   2.206   0.188  0.1350 -0.4311 -0.4310
 4237TIP3   OH234269   5.254   5.649   6.445  0.4553  0.5319 -0.0047
 4237TIP3    H134270   5.216   5.577   6.495  0.7208  0.6345  0.3486
 4237TIP3    H234271   5.206   5.727   6.475 -0.7567  0.3432 -1.3445
 4238TIP3   OH234272   2.136   2.954   7.242  0.3640  0.5791  0.4834
 4238TIP3    H134273   2.201   3.003   7.192  1.8420 -0.5422  1.2556
 4238TIP3    H234274   2.162   2.863   7.235 -2.0611 -0.1256 -0.5029
 4239TIP3   OH234275   6.631   3.717   7.676 -0.3653 -0.4713 -0.0643
 4239TIP3    H134276   6.645   3.687   7.586 -1.2713  1.9381 -1.1049
 4239TIP3    H234277   6.663   3.807   7.676 -0.7917 -0.2798  1.9256
 4240TIP3   OH234278   3.268   3.442   7.331 -0.5944 -0.5233 -0.0580
 4240TIP3    H134279   3.221   3.374   7.283 -2.0938 -0.9710  1.8859
 4240TIP3    H234280   3.275   3.408   7.420  2.0402  0.2671  0.1169
 4241TIP3   OH234281   4.587   5.881   7.216  0.3384 -0.2601 -0.2124
 4241TIP3    H134282   4.585   5.792   7.179  1.2327 -1.0538  1.5178
 4241TIP3    H234283   4.578   5.868   7.310  1.7138  1.3875  0.2060
 4242TIP3   OH234284   0.730   3.688   1.166 -0.0572 -0.0535 -0.3102
 4242TIP3    H134285   0.660   3.732   1.215 -0.1873 -0.2256 -0.3404
 4242TIP3    H234286   0.775   3.634   1.230  1.4463  1.7229  0.1884
 4243TIP3   OH234287   6.114   0.818   6.814 -0.5733 -0.3540 -0.5430
 4243TIP3    H134288   6.205   0.848   6.814 -0.1753 -1.5020 -0.6115
 4243TIP3    H234289   6.116   0.738   6.762 -1.8004  0.0687 -1.2821
 4244TIP3   OH234290   1.889   6.792   0.137  0.3839  0.3209 -0.2118
 4244TIP3    H134291   1.958   6.730   0.158 -0.8224 -1.6282 -1.5961
 4244TIP3    H234292   1.930   6.855   0.078  2.0976  2.0591  2.5959
 4245TIP3   OH234293   3.038   3.207   1.612  0.2978 -0.2729  0.0431
 4245TIP3    H134294   3.120   3.159   1.612 -0.3440 -1.4043 -0.6650
 4245TIP3    H234295   2.973   3.144   1.581 -1.1975 -0.0316  2.4220
 4246TIP3   OH234296   3.670   3.304   1.275  0.0525 -1.2431  0.3235
 4246TIP3    H134297   3.585   3.285   1.236  0.5684  2.0487 -3.0282
 4246TIP3    H234298   3.650   3.349   1.357 -1.3344 -2.2695  0.5758
 4247TIP3   OH234299   1.224   4.566   0.525  0.4658  0.3832  0.5414
 4247TIP3    H134300   1.132   4.579   0.550  0.5186 -0.1279  1.0233
 4247TIP3    H234301   1.230   4.601   0.436 -0.4626 -0.5739  0.0792
 4248TIP3   OH234302   3.587   0.050   1.163 -0.3483  0.2753 -0.4456
 4248TIP3    H134303   3.499   0.043   1.201 -0.2481 -0.3370 -0.3013
 4248TIP3    H234304   3.573   0.077   1.073 -0.7707 -0.9471 -0.7726
 4249TIP3   OH234305   2.313   0.975   0.888  0.0442 -0.1332 -0.1146
 4249TIP3    H134306   2.389   0.926   0.855 -0.6132  0.9078 -3.5126
 4249TIP3    H234307   2.334   1.067   0.871 -2.2163  0.1344 -1.9238
 4250TIP3   OH234308   0.720   3.640   7.359 -0.1506  0.2958  0.0692
 4250TIP3    H134309   0.778   3.707   7.396  1.3595 -0.4662 -0.7912
 4250TIP3    H234310   0.653   3.690   7.313  0.0566  1.2227  0.7284
 4251TIP3   OH234311   3.011   5.596   1.791 -0.1162 -0.1170 -0.0900
 4251TIP3    H134312   3.056   5.632   1.867 -0.5643 -1.5436  0.8932
 4251TIP3    H234313   2.927   5.643   1.788 -0.7816 -1.1608  1.2900
 4252TIP3   OH234314   1.559   4.512   1.676 -0.1610  0.0147  0.4249
 4252TIP3    H134315   1.651   4.519   1.650 -0.5272  2.3857 -0.5348
 4252TIP3    H234316   1.511   4.514   1.593 -1.1490  1.8992  0.9712
 4253TIP3   OH234317   1.018   4.886   1.321  0.3434 -0.4602  0.3398
 4253TIP3    H134318   1.016   4.924   1.409  1.5349  0.5746 -0.0493
 4253TIP3    H234319   0.932   4.905   1.285  0.8148  1.7750  0.2330
 4254TIP3   OH234320   3.020   0.628   7.466 -0.4443  0.6882 -0.1679
 4254TIP3    H134321   3.113   0.637   7.443 -0.0745 -0.8211  0.6308
 4254TIP3    H234322   2.976   0.694   7.412  0.9649  0.7027 -1.3672
 4255TIP3   OH234323   4.331   2.831   0.862 -0.3730  0.0171  0.2529
 4255TIP3    H134324   4.304   2.772   0.933 -2.9342 -0.5553 -1.0426
 4255TIP3    H234325   4.251   2.842   0.810  0.9928  1.7337 -1.6037
 4256TIP3   OH234326   5.272   1.253   7.269 -0.2562 -0.0015  0.1682
 4256TIP3    H134327   5.338   1.184   7.263 -0.8209 -0.5677  0.4477
 4256TIP3    H234328   5.277   1.298   7.184  0.6338  0.1066  0.2615
 4257TIP3   OH234329   5.731   1.995   1.636  0.6070  0.3112  0.5800
 4257TIP3    H134330   5.782   2.032   1.563 -1.0346  0.1993 -0.6802
 4257TIP3    H234331   5.726   1.902   1.617  0.1191  0.2899  0.7990
 4258TIP3   OH234332   4.767   4.220   6.904 -0.3538 -0.1046 -0.3743
 4258TIP3    H134333   4.800   4.144   6.856  1.4267  0.3675  0.0329
 4258TIP3    H234334   4.714   4.268   6.840  0.3760 -0.5058 -1.2963
 4259TIP3   OH234335   6.112   6.384   2.547 -0.2092  0.0833  0.2891
 4259TIP3    H134336   6.201   6.352   2.560 -0.0491  0.3502 -0.1324
 4259TIP3    H234337   6.118   6.478   2.564 -0.1554  0.3111 -0.9147
 4260TIP3   OH234338   4.809   4.339   1.555 -0.0849 -0.2931 -1.3075
 4260TIP3    H134339   4.794   4.305   1.466 -1.6513 -3.1556 -0.0999
 4260TIP3    H234340   4.743   4.407   1.566  0.6081  0.6185 -2.5392
 4261TIP3   OH234341   5.915   1.381   6.213  0.3078 -0.1935 -0.3677
 4261TIP3    H134342   5.946   1.316   6.276  0.6307 -0.1488 -0.4783
 4261TIP3    H234343   5.827   1.403   6.242 -0.3648 -1.7303 -1.1304
 4262TIP3   OH234344   6.551   6.844   8.591  0.0137  0.5603 -0.1408
 4262TIP3    H134345   6.511   6.791   8.521 -0.0227 -0.6320  0.7389
 4262TIP3    H234346   6.511   6.810   8.672  1.1302  0.8987  0.5701
 4263TIP3   OH234347   5.650   6.490   0.492 -0.1751 -0.0863  0.3410
 4263TIP3    H134348   5.563   6.488   0.531  0.5853 -0.0780  2.1584
 4263TIP3    H234349   5.656   6.410   0.440 -1.2869 -0.0377  0.1244
 4264TIP3   OH234350   2.477   6.048   7.632 -0.5083 -0.1089  0.4209
 4264TIP3    H134351   2.399   6.029   7.581 -0.6885 -2.3012  1.4010
 4264TIP3    H234352   2.460   6.135   7.670 -1.2814  0.6079 -1.4471
 4265TIP3   OH234353   4.169   2.288   7.846 -0.0532 -0.0200 -0.1460
 4265TIP3    H134354   4.191   2.227   7.916 -0.4404  0.7013  0.6261
 4265TIP3    H234355   4.164   2.234   7.767  2.0436 -0.5831  0.0723
 4266TIP3   OH234356   2.010   0.803   2.105  0.0839  0.1899  0.2896
 4266TIP3    H134357   1.984   0.893   2.085  1.6866  0.6483  0.0636
 4266TIP3    H234358   1.998   0.795   2.200  0.1051  0.7117  0.3376
 4267TIP3   OH234359   6.738   0.385   8.011 -0.2655 -0.0955 -0.2169
 4267TIP3    H134360   6.811   0.424   7.965 -0.8613 -0.3032 -1.3807
 4267TIP3    H234361   6.722   0.443   8.085  0.5238  0.4080 -0.4292
 4268TIP3   OH234362   5.792   3.241   7.511  0.0639 -0.3701  0.3775
 4268TIP3    H134363   5.709   3.250   7.559  0.0517 -0.9342  0.4710
 4268TIP3    H234364   5.828   3.329   7.510 -0.6391 -0.0730  0.1584
 4269TIP3   OH234365   0.401   1.948   7.219  0.0830  0.0086 -0.2871
 4269TIP3    H134366   0.432   1.858   7.209  0.9219 -0.1252  2.7082
 4269TIP3    H234367   0.418   1.989   7.134  2.0949 -1.9396 -0.9143
 4270TIP3   OH234368   1.607   1.966   7.841 -0.7203  0.0382 -0.5459
 4270TIP3    H134369   1.613   1.989   7.934  0.5473  1.2050 -0.8837
 4270TIP3    H234370   1.684   2.006   7.801 -0.3911 -1.7848 -1.8455
 4271TIP3   OH234371   3.794   5.678   7.833 -0.0590 -0.6078 -0.0150
 4271TIP3    H134372   3.833   5.760   7.804 -1.1126  0.0232  0.2723
 4271TIP3    H234373   3.759   5.639   7.753 -0.8260 -0.0562  0.0390
 4272TIP3   OH234374   1.555   0.485   7.320 -0.2072  0.0010 -0.6729
 4272TIP3    H134375   1.508   0.494   7.404 -1.7690 -0.2587 -1.4726
 4272TIP3    H234376   1.567   0.575   7.290 -0.3616  0.0703 -0.5352
 4273TIP3   OH234377   6.519   2.184   7.842  0.1753 -0.4035 -0.3144
 4273TIP3    H134378   6.566   2.154   7.920 -1.6935 -0.8053  0.7259
 4273TIP3    H234379   6.581   2.241   7.797  0.9488  0.8343  2.1218
 4274TIP3   OH234380   1.658   6.281   0.153  0.4055 -0.0976 -0.2783
 4274TIP3    H134381   1.694   6.308   0.068  1.1429  1.4371  0.4724
 4274TIP3    H234382   1.603   6.354   0.180  1.2559  0.0593  1.1569
 4275TIP3   OH234383   6.005   2.406   6.936 -0.1543  0.0799  0.0944
 4275TIP3    H134384   5.962   2.395   7.021  0.5184 -0.8328  0.3417
 4275TIP3    H234385   6.077   2.343   6.938 -1.1842 -1.2545 -1.8429
 4276TIP3   OH234386   4.274   1.490   8.545  0.2672  0.4609  0.2553
 4276TIP3    H134387   4.185   1.524   8.552  0.1467  0.3176 -0.4578
 4276TIP3    H234388   4.295   1.498   8.451  0.4709 -0.8352  0.1813
 4277TIP3   OH234389   0.951   5.366   0.527  0.1834 -0.2679 -0.1181
 4277TIP3    H134390   1.031   5.317   0.547  0.0018  0.6945  3.8183
 4277TIP3    H234391   0.979   5.458   0.527 -0.6704 -0.0002 -0.0732
 4278TIP3   OH234392   3.495   6.757   0.511 -0.2849  0.0693 -0.1228
 4278TIP3    H134393   3.401   6.757   0.492 -0.3152  0.6495  0.0151
 4278TIP3    H234394   3.500   6.774   0.605 -0.0444 -0.1063 -0.1036
 4279TIP3   OH234395   6.106   4.227   1.716  0.5364 -0.0278 -0.1674
 4279TIP3    H134396   6.077   4.137   1.701  0.7232 -0.0487 -0.4038
 4279TIP3    H234397   6.034   4.268   1.763 -0.0779  0.0511 -1.1537
 4280TIP3   OH234398   2.602   2.860   2.306 -0.2570  0.1850  0.2778
 4280TIP3    H134399   2.686   2.890   2.270 -0.5345  2.8068  1.5773
 4280TIP3    H234400   2.626   2.790   2.366  1.0193  0.6983  0.4100
 4281TIP3   OH234401   1.916   5.590   0.322  0.6358 -0.2790  0.2198
 4281TIP3    H134402   1.873   5.566   0.240 -0.8654 -0.8025  1.1201
 4281TIP3    H234403   2.006   5.560   0.312  0.0916 -1.6957 -0.6752
 4282TIP3   OH234404   4.684   0.049   8.153  0.4355 -0.2431  0.1577
 4282TIP3    H134405   4.616   0.042   8.220 -0.1545 -0.8149 -0.4912
 4282TIP3    H234406   4.735   0.126   8.179  0.3425 -0.5672  1.3730
 4283TIP3   OH234407   3.464   0.778   0.532 -0.3353 -0.8781 -0.0386
 4283TIP3    H134408   3.437   0.745   0.617 -1.4062  0.6993  0.2844
 4283TIP3    H234409   3.382   0.793   0.485  0.1608 -0.0525 -0.6722
 4284TIP3   OH234410   1.331   4.006   8.576 -0.1523  0.0882  0.1499
 4284TIP3    H134411   1.310   3.966   8.491  0.5729  1.2658 -0.6074
 4284TIP3    H234412   1.380   4.085   8.554 -1.2871  1.2562  1.6314
 4285TIP3   OH234413   0.332   2.653   2.031 -0.1868  0.4057  0.1115
 4285TIP3    H134414   0.329   2.620   1.941  0.9789  0.8854 -0.1226
 4285TIP3    H234415   0.425   2.650   2.054 -0.5952 -1.0518  1.8265
 4286TIP3   OH234416   0.121   6.287   6.633  0.2270 -0.0957 -0.5864
 4286TIP3    H134417   0.195   6.343   6.609  1.4032 -1.7236 -0.8925
 4286TIP3    H234418   0.133   6.269   6.726  1.0314 -1.4709 -0.9290
 4287TIP3   OH234419   6.564   3.905   0.399 -0.4091 -0.5209  0.2547
 4287TIP3    H134420   6.635   3.946   0.350  1.4799 -2.0421  1.5653
 4287TIP3    H234421   6.503   3.874   0.332  0.4930  0.2156 -0.9432
 4288TIP3   OH234422   2.661   2.567   7.783  0.0179 -0.5729 -0.1533
 4288TIP3    H134423   2.721   2.639   7.803 -1.2571 -0.0161  1.9854
 4288TIP3    H234424   2.612   2.596   7.706  1.3407 -0.3646 -0.9533
 4289TIP3   OH234425   1.997   5.620   1.962 -0.2788 -0.3073  0.5724
 4289TIP3    H134426   2.048   5.548   2.000  0.0253  0.0898  0.9297
 4289TIP3    H234427   2.028   5.698   2.009  0.6015  0.3094 -0.9608
 4290TIP3   OH234428   3.930   4.087   2.088  0.4440  0.5826 -0.1234
 4290TIP3    H134429   4.024   4.083   2.067  0.4530  0.9938 -0.1685
 4290TIP3    H234430   3.917   4.017   2.152  1.0095  1.2283  0.7347
 4291TIP3   OH234431   5.080   6.338   6.632 -0.0279  0.8425  0.5434
 4291TIP3    H134432   5.163   6.364   6.672 -0.3898  1.0723  1.1624
 4291TIP3    H234433   5.080   6.382   6.547  0.0955  1.5668  0.9108
 4292TIP3   OH234434   4.054   1.291   0.691  0.1064 -0.4389  0.6164
 4292TIP3    H134435   3.976   1.272   0.743 -0.3445  1.5911  0.7664
 4292TIP3    H234436   4.118   1.226   0.719 -1.9103 -3.1653 -0.5652
 4293TIP3   OH234437   2.616   0.965   1.900  0.0192 -0.3071  0.1820
 4293TIP3    H134438   2.659   0.994   1.980  0.0049 -0.5578  0.2823
 4293TIP3    H234439   2.678   0.904   1.860 -0.2339 -0.6583  0.3202
 4294TIP3   OH234440   2.953   1.431   8.124  0.3615  0.5498  0.1373
 4294TIP3    H134441   2.906   1.368   8.069 -0.7910  0.9431  0.6331
 4294TIP3    H234442   2.958   1.510   8.071  1.3114  0.2223 -0.2729
 4295TIP3   OH234443   5.985   5.577   0.511 -0.3398 -0.3109 -0.4059
 4295TIP3    H134444   5.923   5.504   0.505 -2.1077  1.1149 -0.2507
 4295TIP3    H234445   5.941   5.641   0.567  1.7678  0.3271  0.6118
 4296TIP3   OH234446   3.815   6.355   8.156  0.4428  0.3381 -0.1732
 4296TIP3    H134447   3.839   6.448   8.152 -1.5275  0.8697 -1.0615
 4296TIP3    H234448   3.721   6.355   8.174  0.6517 -1.5501  1.2586
 4297TIP3   OH234449   2.649   1.533   2.647 -0.4615 -0.0421  0.8770
 4297TIP3    H134450   2.569   1.546   2.697 -1.6924 -1.5511 -0.5682
 4297TIP3    H234451   2.626   1.556   2.558  0.1198 -2.2125  0.0914
 4298TIP3   OH234452   4.011   2.759   2.221 -0.0620  0.3386  0.0786
 4298TIP3    H134453   4.065   2.833   2.193 -0.3304  1.6047  2.5939
 4298TIP3    H234454   4.060   2.719   2.293 -1.2578 -0.0910  0.6857
 4299TIP3   OH234455   4.485   2.294   8.426  0.0131  0.0351 -0.8526
 4299TIP3    H134456   4.575   2.325   8.425 -0.1479  0.5919  0.0533
 4299TIP3    H234457   4.449   2.320   8.341 -0.2303  2.8027  0.0000
 4300TIP3   OH234458   2.874   4.986   8.093  0.2850  0.6339  0.5161
 4300TIP3    H134459   2.890   4.951   8.181  0.3801  0.3236  0.3749
 4300TIP3    H234460   2.887   5.081   8.102 -0.1014  0.6517  0.9284
 4301TIP3   OH234461   1.895   3.806   8.372  0.1073 -0.2331 -0.2434
 4301TIP3    H134462   1.956   3.770   8.437  0.1316 -0.0702 -0.1732
 4301TIP3    H234463   1.944   3.806   8.290 -0.2534 -1.3566 -0.4746
 4302TIP3   OH234464   0.248   3.480   0.623 -0.0677  0.6159 -0.4613
 4302TIP3    H134465   0.159   3.505   0.599 -0.4919 -0.8728 -0.5155
 4302TIP3    H234466   0.277   3.423   0.552  0.0914 -0.7119  0.6330
 4303TIP3   OH234467   4.399   5.855   0.927  0.6794  0.1837 -0.3209
 4303TIP3    H134468   4.352   5.773   0.911  0.8923 -0.2556  1.1528
 4303TIP3    H234469   4.341   5.923   0.893 -0.1369 -0.4892 -0.3086
 4304TIP3   OH234470   4.977   5.600   0.154 -0.4395  0.5030  0.3794
 4304TIP3    H134471   4.967   5.509   0.126 -0.6125  0.2872  1.1307
 4304TIP3    H234472   4.931   5.651   0.088  0.5021  0.1306 -0.5985
 4305TIP3   OH234473   1.549   3.508   8.177  0.1242 -0.4766  0.7389
 4305TIP3    H134474   1.615   3.439   8.168 -0.2553 -0.5892 -1.6871
 4305TIP3    H234475   1.472   3.473   8.134  0.3665  1.9919 -1.9779
 4306TIP3   OH234476   6.768   1.410   6.275 -0.6285 -0.4112 -0.1642
 4306TIP3    H134477   6.716   1.331   6.289 -1.3154  0.2433  1.1138
 4306TIP3    H234478   6.852   1.377   6.242 -1.3770 -1.5678 -0.9981
 4307TIP3   OH234479   2.157   4.458   0.595  0.0047 -0.0933 -0.2185
 4307TIP3    H134480   2.207   4.376   0.593  2.8745  1.4233  1.6672
 4307TIP3    H234481   2.089   4.443   0.661  1.8074 -0.4151  1.6939
 4308TIP3   OH234482   6.546   2.503   1.323  0.2618  0.4145  0.5549
 4308TIP3    H134483   6.611   2.496   1.252 -0.1774  0.4019  0.1517
 4308TIP3    H234484   6.462   2.499   1.279 -0.0320  2.0283  0.9095
 4309TIP3   OH234485   3.520   0.235   0.813 -0.2032 -0.1655  0.7842
 4309TIP3    H134486   3.518   0.142   0.833  0.2132 -0.1775  0.7846
 4309TIP3    H234487   3.474   0.277   0.886 -2.5770 -0.5415 -0.3778
 4310TIP3   OH234488   4.870   4.685   1.622  0.1470 -0.4462  0.4828
 4310TIP3    H134489   4.795   4.744   1.633  1.8978  1.9424  0.4667
 4310TIP3    H234490   4.868   4.629   1.700 -1.0614  0.2592  0.9839
 4311TIP3   OH234491   1.764   4.660   8.007  0.2248 -0.5274  0.6086
 4311TIP3    H134492   1.734   4.747   8.035  0.8419 -0.5589  1.4034
 4311TIP3    H234493   1.713   4.642   7.929  1.7612  1.6072 -1.0270
 4312TIP3   OH234494   2.346   6.176   6.944 -0.3514  0.2163 -0.3019
 4312TIP3    H134495   2.258   6.155   6.914  0.4076 -1.7460 -1.3551
 4312TIP3    H234496   2.397   6.097   6.925  1.7520  1.4844 -0.2278
 4313TIP3   OH234497   2.261   2.850   8.337  0.7743 -0.1904  0.3873
 4313TIP3    H134498   2.301   2.936   8.330  2.9220 -1.1115  0.6322
 4313TIP3    H234499   2.275   2.825   8.428 -1.7236  0.0218  0.9000
 4314TIP3   OH234500   0.400   2.748   1.568 -0.6344 -0.2231  0.1245
 4314TIP3    H134501   0.326   2.808   1.580 -2.7163 -2.7705  0.8249
 4314TIP3    H234502   0.393   2.719   1.477 -1.1674 -1.2762  0.4941
 4315TIP3   OH234503   6.774   0.956   6.697 -0.4897  0.3604 -0.2231
 4315TIP3    H134504   6.690   0.931   6.737 -0.1065  2.0233  1.8473
 4315TIP3    H234505   6.749   1.017   6.627 -1.0550  1.0308  0.5261
 4316TIP3   OH234506   1.681   1.200   7.771  0.1062  0.3709 -0.6158
 4316TIP3    H134507   1.662   1.291   7.792  0.8497  0.1954  1.0162
 4316TIP3    H234508   1.603   1.152   7.800 -0.4886  0.5084 -1.9193
 4317TIP3   OH234509   1.285   2.544   8.347 -0.0094  0.2487  0.5214
 4317TIP3    H134510   1.315   2.527   8.436  0.4236 -0.2725  0.2878
 4317TIP3    H234511   1.230   2.622   8.354 -1.6296 -0.9311  1.5584
 4318TIP3   OH234512   3.038   4.762   0.202 -0.4519 -0.3635  0.1189
 4318TIP3    H134513   3.088   4.770   0.121 -1.3063 -2.3879 -0.6868
 4318TIP3    H234514   3.045   4.848   0.244  1.4479  0.2065 -1.2369
 4319TIP3   OH234515   0.206   6.788   1.623 -0.7375 -0.3434 -0.8525
 4319TIP3    H134516   0.270   6.719   1.639  0.4524  0.4625 -1.9558
 4319TIP3    H234517   0.214   6.808   1.530 -1.1845  1.1513 -0.6031
 4320TIP3   OH234518   1.343   5.279   8.469 -0.1098  0.0049  0.4996
 4320TIP3    H134519   1.339   5.184   8.477  2.0516 -0.0286  1.8834
 4320TIP3    H234520   1.302   5.312   8.549 -1.6815  0.3187 -0.3836
 4321TIP3   OH234521   5.524   5.014   1.332 -0.7876 -0.2049  0.5780
 4321TIP3    H134522   5.461   4.959   1.379 -1.3509 -0.0079  0.0780
 4321TIP3    H234523   5.571   4.953   1.275 -1.8831 -0.1073 -0.4824
 4322TIP3   OH234524   1.851   1.292   1.598 -0.2305  0.9719  0.0174
 4322TIP3    H134525   1.826   1.333   1.515  0.3504  1.5617  0.1235
 4322TIP3    H234526   1.834   1.199   1.585  0.4963  0.9613 -1.0165
 4323TIP3   OH234527   5.444   3.611   1.226 -0.1790  0.2948  0.4807
 4323TIP3    H134528   5.388   3.536   1.247  1.7787 -0.9509  1.4550
 4323TIP3    H234529   5.453   3.658   1.308 -1.5144  1.7614 -0.1540
 4324TIP3   OH234530   6.650   4.796   2.579  0.0871 -0.7428  0.2828
 4324TIP3    H134531   6.609   4.714   2.606 -0.7479 -0.4658 -0.1059
 4324TIP3    H234532   6.741   4.773   2.561  0.0357 -1.4362  0.8629
 4325TIP3   OH234533   0.303   3.159   1.094 -0.7055  0.1503 -0.6190
 4325TIP3    H134534   0.239   3.227   1.115 -1.1524 -0.8148  1.3321
 4325TIP3    H234535   0.338   3.186   1.009 -3.0534  1.1690 -1.3649
 4326TIP3   OH234536   6.392   1.611   7.673 -0.3287 -0.0585 -0.4379
 4326TIP3    H134537   6.361   1.581   7.758  3.4777 -1.1947  0.7172
 4326TIP3    H234538   6.448   1.541   7.641  0.4751  1.4671 -2.6525
 4327TIP3   OH234539   1.230   2.545   1.774 -0.3279  0.3536 -0.1189
 4327TIP3    H134540   1.276   2.470   1.737  0.9137  0.1735  1.6138
 4327TIP3    H234541   1.201   2.596   1.698 -2.0084 -2.2681 -1.3723
 4328TIP3   OH234542   6.186   3.060   1.363  0.4063 -1.3990 -0.2909
 4328TIP3    H134543   6.280   3.051   1.377  0.8155  0.2036 -1.6472
 4328TIP3    H234544   6.164   3.145   1.400 -0.1495 -1.0138 -1.4392
 4329TIP3   OH234545   5.815   5.827   0.425 -0.3642 -0.6871  0.5087
 4329TIP3    H134546   5.884   5.855   0.485 -1.2675  0.4313  1.0642
 4329TIP3    H234547   5.851   5.750   0.382  1.5257  0.2725  0.2456
 4330TIP3   OH234548   2.163   6.806   8.454  0.2602 -0.2876 -0.4079
 4330TIP3    H134549   2.132   6.827   8.542 -0.6818 -0.0938 -0.7739
 4330TIP3    H234550   2.161   6.889   8.407  1.1723 -0.3066 -0.5044
 4331TIP3   OH234551   1.417   2.508   0.697  0.4062 -0.0537  0.9532
 4331TIP3    H134552   1.415   2.604   0.702  1.2154  0.0151  0.2109
 4331TIP3    H234553   1.510   2.486   0.698  0.3799 -0.6357 -1.8749
 4332TIP3   OH234554   0.447   6.559   6.989  0.1213 -0.4307  0.5040
 4332TIP3    H134555   0.352   6.573   6.982 -0.5218 -3.8314  0.6473
 4332TIP3    H234556   0.465   6.563   7.083 -0.2273 -1.3185  0.6233
 4333TIP3   OH234557   2.825   4.260   7.929 -0.3168 -0.5932  0.4351
 4333TIP3    H134558   2.807   4.351   7.955 -0.6750 -0.1594 -1.1801
 4333TIP3    H234559   2.809   4.259   7.834  0.8062 -2.0744  0.2231
 4334TIP3   OH234560   3.415   3.870   1.442  0.3089  0.5524 -0.3963
 4334TIP3    H134561   3.431   3.891   1.350  0.0358  1.1433 -0.3155
 4334TIP3    H234562   3.326   3.833   1.443 -0.3383  2.0508 -0.1666
 4335TIP3   OH234563   6.440   5.264   8.602 -0.3022 -0.5709 -0.7213
 4335TIP3    H134564   6.520   5.295   8.561  0.6970  0.3230  1.7373
 4335TIP3    H234565   6.469   5.221   8.683 -2.2877 -0.1336  0.2898
 4336TIP3   OH234566   0.316   6.681   6.244  0.4654 -0.2132 -0.3336
 4336TIP3    H134567   0.400   6.714   6.275 -0.1709 -0.1743  1.4471
 4336TIP3    H234568   0.261   6.759   6.236 -0.1021 -0.4750  0.8426
 4337TIP3   OH234569   4.092   3.958   7.381 -0.1098  0.0131 -0.0067
 4337TIP3    H134570   4.060   3.979   7.469  1.3389  0.3498  0.4738
 4337TIP3    H234571   4.150   4.031   7.358  0.1516 -0.4625 -0.9097
 4338TIP3   OH234572   1.087   5.983   2.211 -0.2387  0.6756  0.1319
 4338TIP3    H134573   1.159   6.046   2.216 -0.2258  0.6607  0.1389
 4338TIP3    H234574   1.088   5.938   2.295  1.1220 -0.8139 -0.6209
 4339TIP3   OH234575   2.372   0.338   6.674 -0.7266  0.0671  0.0249
 4339TIP3    H134576   2.421   0.362   6.752  0.1216  1.4124 -0.8822
 4339TIP3    H234577   2.366   0.243   6.677 -0.3835  0.0734  1.5205
 4340TIP3   OH234578   6.072   0.503   1.733  1.0941  0.2804  0.1272
 4340TIP3    H134579   6.124   0.578   1.763  2.4158  0.7359 -2.9344
 4340TIP3    H234580   6.073   0.510   1.638 -0.5010 -2.5126 -0.1996
 4341TIP3   OH234581   3.468   6.282   0.545  0.4188 -0.0494 -0.0790
 4341TIP3    H134582   3.438   6.316   0.460  2.6122  1.4862 -0.3263
 4341TIP3    H234583   3.410   6.322   0.609 -2.8657 -3.0655 -0.7982
 4342TIP3   OH234584   4.338   1.846   1.591 -0.1838  0.1343  0.6415
 4342TIP3    H134585   4.397   1.910   1.629 -1.7635  2.3742 -0.4812
 4342TIP3    H234586   4.257   1.854   1.641 -0.8551  0.0278 -0.3810
 4343TIP3   OH234587   3.539   6.865   0.193  0.2152 -0.4050  0.1298
 4343TIP3    H134588   3.470   6.919   0.154  0.7157 -0.7460 -1.2596
 4343TIP3    H234589   3.555   6.906   0.279 -2.2646 -0.7920  0.8502
 4344TIP3   OH234590   3.871   0.434   0.509  0.7026  0.4996  0.1532
 4344TIP3    H134591   3.837   0.524   0.514  1.7584  0.8808  0.7968
 4344TIP3    H234592   3.954   0.437   0.557  0.1419 -1.1162  1.2983
 4345TIP3   OH234593   2.260   6.530   1.932  0.1516 -0.6177  0.5806
 4345TIP3    H134594   2.313   6.450   1.923 -0.4653 -1.1296  1.3708
 4345TIP3    H234595   2.324   6.601   1.928  0.8629 -1.2027  1.1224
 4346TIP3   OH234596   6.517   5.663   8.325  0.3420 -0.0944 -0.4320
 4346TIP3    H134597   6.479   5.575   8.332  0.6388 -0.1453  0.8087
 4346TIP3    H234598   6.479   5.700   8.246 -2.0642 -0.2423  0.5904
 4347TIP3   OH234599   1.560   5.797   6.784 -0.7185  0.0304  0.5598
 4347TIP3    H134600   1.617   5.737   6.832 -0.3768  3.2693  4.7858
 4347TIP3    H234601   1.482   5.805   6.839 -1.4180  2.1900 -0.6243
 4348TIP3   OH234602   4.794   1.287   0.909  0.0669  0.2546  0.1315
 4348TIP3    H134603   4.740   1.363   0.930  2.0377  1.2409  1.9018
 4348TIP3    H234604   4.880   1.307   0.945  0.0481 -3.9267  3.2959
 4349TIP3   OH234605   0.249   2.662   7.403 -0.6513 -0.3638 -0.4021
 4349TIP3    H134606   0.214   2.750   7.415 -0.7593 -0.4368 -0.1463
 4349TIP3    H234607   0.331   2.661   7.453 -0.3551 -0.2336 -0.8897
 4350TIP3   OH234608   5.991   5.592   7.756 -0.1233 -0.4204 -0.4832
 4350TIP3    H134609   6.008   5.682   7.786 -0.9266 -0.4949  0.2280
 4350TIP3    H234610   5.897   5.590   7.739 -0.3493 -1.4855  0.7771
 4351TIP3   OH234611   5.118   2.630   2.537 -0.4975 -0.1338 -0.0054
 4351TIP3    H134612   5.170   2.609   2.460  0.2149  0.9276  0.1653
 4351TIP3    H234613   5.148   2.717   2.564 -1.7079  0.1063  0.6544
 4352TIP3   OH234614   2.897   1.454   1.091  0.9474 -0.5389 -0.0859
 4352TIP3    H134615   2.985   1.481   1.065  0.5033  0.3142 -0.7509
 4352TIP3    H234616   2.905   1.361   1.111  2.1318 -0.3402  0.4730
 4353TIP3   OH234617   5.802   0.416   7.302 -0.1857  0.9255 -0.0028
 4353TIP3    H134618   5.893   0.409   7.274 -0.0197  0.1505  0.6896
 4353TIP3    H234619   5.773   0.501   7.269  0.9324  1.3945  0.1827
 4354TIP3   OH234620   2.007   5.055   0.421 -0.6318 -0.8235  0.0521
 4354TIP3    H134621   2.047   5.141   0.405  0.5126 -1.3469 -0.0105
 4354TIP3    H234622   2.040   5.028   0.507 -0.1361 -1.6340 -0.3707
 4355TIP3   OH234623   2.886   0.779   0.117 -0.1209  0.3204 -0.1854
 4355TIP3    H134624   2.972   0.795   0.155 -0.0590  0.0106 -0.1935
 4355TIP3    H234625   2.850   0.706   0.167 -1.8865  2.6766  2.2530
 4356TIP3   OH234626   1.395   4.295   1.296  0.4276 -0.4432 -0.1214
 4356TIP3    H134627   1.319   4.312   1.239 -0.2469 -3.0419 -0.0912
 4356TIP3    H234628   1.357   4.275   1.381  1.2818  0.1463  0.4160
 4357TIP3   OH234629   1.018   4.420   2.539  1.1950  0.0456 -0.3878
 4357TIP3    H134630   1.039   4.513   2.529  1.0134  0.0959 -0.3207
 4357TIP3    H234631   0.929   4.420   2.577  0.7325 -0.1580 -1.4426
 4358TIP3   OH234632   4.570   4.329   0.537 -0.5701 -0.0444 -0.0598
 4358TIP3    H134633   4.666   4.335   0.539 -0.5285 -0.1731 -1.0672
 4358TIP3    H234634   4.551   4.278   0.458 -1.5080  0.8971 -0.4681
 4359TIP3   OH234635   1.431   3.733   0.317  0.7697 -0.1459 -0.0949
 4359TIP3    H134636   1.346   3.706   0.352  0.7343 -0.8506 -0.7104
 4359TIP3    H234637   1.414   3.753   0.225  1.7940 -3.0577 -1.0115
 4360TIP3   OH234638   4.739   5.646   1.817  0.2972 -0.2749  0.1537
 4360TIP3    H134639   4.698   5.635   1.903 -0.1189 -1.2399 -0.1596
 4360TIP3    H234640   4.668   5.676   1.760  0.1462 -1.3337 -0.2422
 4361TIP3   OH234641   5.179   4.929   1.125  0.0386  0.0207 -0.4322
 4361TIP3    H134642   5.088   4.922   1.097  0.3162  0.9278 -1.6326
 4361TIP3    H234643   5.175   4.922   1.220 -1.1939 -0.7250 -0.5162
 4362TIP3   OH234644   6.375   3.829   0.203 -0.1275  0.5817  0.0572
 4362TIP3    H134645   6.394   3.743   0.165  2.4508  0.5741  1.1901
 4362TIP3    H234646   6.285   3.847   0.176 -0.0889 -1.5828 -1.8532
 4363TIP3   OH234647   4.405   1.437   0.419 -0.3879  0.6027 -0.3102
 4363TIP3    H134648   4.398   1.463   0.327  1.9410  0.6498 -0.5269
 4363TIP3    H234649   4.451   1.353   0.417 -1.2587  0.0697  0.7877
 4364TIP3   OH234650   1.649   2.842   7.848 -0.0351  0.2602  0.0427
 4364TIP3    H134651   1.596   2.776   7.804  0.5660  0.5182 -1.0975
 4364TIP3    H234652   1.726   2.794   7.879 -0.2496  0.1657  0.4368
 4365TIP3   OH234653   5.353   2.893   0.587 -0.2811  0.0563  0.3490
 4365TIP3    H134654   5.333   2.943   0.508  0.2364 -1.4289 -0.7574
 4365TIP3    H234655   5.426   2.941   0.627 -0.8212  1.0604  0.1876
 4366TIP3   OH234656   1.535   0.918   8.581  0.3850  0.2705 -0.2021
 4366TIP3    H134657   1.538   0.823   8.577 -0.4391  0.2455 -0.3608
 4366TIP3    H234658   1.584   0.948   8.505 -0.8963 -0.0535 -1.1967
 4367TIP3   OH234659   2.760   3.535   6.852  0.6966  0.1193 -0.2561
 4367TIP3    H134660   2.801   3.476   6.789  0.2325  0.4586 -0.8959
 4367TIP3    H234661   2.695   3.583   6.800 -0.0132  0.0891  0.5720
 4368TIP3   OH234662   1.600   6.758   1.126  0.1799 -0.6558 -0.2589
 4368TIP3    H134663   1.638   6.761   1.214  0.0883 -1.2743 -0.1965
 4368TIP3    H234664   1.649   6.689   1.081  1.9320  1.2912 -1.5007
 4369TIP3   OH234665   1.665   5.880   8.292  0.2345  0.6064  0.5133
 4369TIP3    H134666   1.692   5.819   8.362 -0.8437  0.4990  0.8493
 4369TIP3    H234667   1.747   5.905   8.250  0.8106 -0.1464  1.1483
 4370TIP3   OH234668   4.561   4.543   7.954 -0.6671  0.6399  0.0766
 4370TIP3    H134669   4.556   4.507   8.043 -2.0608  1.0301  0.1956
 4370TIP3    H234670   4.501   4.489   7.903  0.6639 -0.0231 -0.8149
 4371TIP3   OH234671   2.372   6.860   8.063  0.1948 -0.2539  0.1148
 4371TIP3    H134672   2.461   6.826   8.072  0.7178  1.0079 -0.1056
 4371TIP3    H234673   2.317   6.791   8.100  1.2729 -0.9536  0.4825
 4372TIP3   OH234674   5.908   4.277   0.539 -0.3833 -0.0178 -0.4808
 4372TIP3    H134675   5.869   4.276   0.451  1.1680  0.2509 -1.2059
 4372TIP3    H234676   5.973   4.207   0.537 -0.4179 -0.0927  0.5209
 4373TIP3   OH234677   0.768   4.640   1.533  0.1963  0.1018  0.5167
 4373TIP3    H134678   0.721   4.720   1.556  0.4288  0.0681  1.1281
 4373TIP3    H234679   0.858   4.655   1.561  0.2254 -0.4037  0.7109
 4374TIP3   OH234680   0.905   2.140   8.553  0.0754 -0.4944  0.4371
 4374TIP3    H134681   0.959   2.205   8.508 -1.5683  1.5133  1.1914
 4374TIP3    H234682   0.930   2.148   8.645 -0.4564 -0.6018  0.5948
 4375TIP3   OH234683   3.145   4.348   7.540  0.2242 -0.4824  0.2131
 4375TIP3    H134684   3.127   4.432   7.582 -1.2232 -0.8293  0.3374
 4375TIP3    H234685   3.141   4.284   7.611  1.0853 -0.6893  0.0821
 4376TIP3   OH234686   4.046   5.425   0.805 -1.2659  0.5562  0.4969
 4376TIP3    H134687   4.072   5.511   0.773  0.0212  0.5061  1.3598
 4376TIP3    H234688   3.956   5.437   0.835 -1.6370  1.2046 -0.8011
 4377TIP3   OH234689   1.810   2.379   7.149  0.0040  0.2534 -0.0067
 4377TIP3    H134690   1.880   2.359   7.088 -1.2776 -0.4084 -1.3147
 4377TIP3    H234691   1.828   2.325   7.226 -0.1122 -1.3766 -1.0917
 4378TIP3   OH234692   4.496   4.173   1.515 -0.1771  0.1761 -0.4695
 4378TIP3    H134693   4.502   4.267   1.529 -1.0256  0.3667 -1.3037
 4378TIP3    H234694   4.537   4.159   1.430 -0.3287 -0.1672 -0.4894
 4379TIP3   OH234695   6.692   5.867   1.286 -0.5684 -0.5561 -0.1565
 4379TIP3    H134696   6.675   5.846   1.378 -0.4063 -1.4739 -0.3253
 4379TIP3    H234697   6.742   5.948   1.288 -0.1632 -0.8226  0.5870
 4380TIP3   OH234698   3.827   5.486   0.454  0.1317 -0.2033 -0.0670
 4380TIP3    H134699   3.877   5.405   0.453  1.3062  0.4951 -1.1640
 4380TIP3    H234700   3.743   5.462   0.492  0.6000 -1.8327  0.0151
 4381TIP3   OH234701   1.618   4.794   7.098 -0.6529 -0.2618 -0.8227
 4381TIP3    H134702   1.659   4.709   7.083 -1.1851 -0.9453  1.3025
 4381TIP3    H234703   1.560   4.806   7.023 -0.0897 -1.4441 -1.4869
 4382TIP3   OH234704   0.043   5.062   2.597  0.0410  0.1406  0.3056
 4382TIP3    H134705   0.072   5.024   2.679 -2.1522  0.3599  1.2622
 4382TIP3    H234706   0.033   4.987   2.538 -0.3546 -0.2853  0.9003
 4383TIP3   OH234707   4.027   2.236   8.582 -0.2860 -0.2671  0.5107
 4383TIP3    H134708   4.096   2.210   8.643 -0.9681 -0.3594  1.2607
 4383TIP3    H234709   4.057   2.319   8.545  0.5732 -0.6873  0.2541
 4384TIP3   OH234710   2.382   2.631   6.891 -0.0594 -0.1205  0.5279
 4384TIP3    H134711   2.334   2.573   6.950  0.4947 -1.0357  0.0989
 4384TIP3    H234712   2.449   2.671   6.947  0.5928 -1.1383  0.4870
 4385TIP3   OH234713   2.094   1.867   0.902  0.0108  0.2056 -0.0672
 4385TIP3    H134714   2.164   1.912   0.855  0.7011  0.5829  1.2918
 4385TIP3    H234715   2.133   1.839   0.984 -1.0946 -0.7010  0.1737
 4386TIP3   OH234716   1.624   2.556   1.829  0.2587  0.0375  0.0577
 4386TIP3    H134717   1.606   2.628   1.769  0.0834 -1.3231 -1.5803
 4386TIP3    H234718   1.719   2.561   1.844  0.2101  0.7435  0.1520
 4387TIP3   OH234719   0.995   4.344   2.067  0.1812  0.1222  0.1239
 4387TIP3    H134720   0.920   4.328   2.124  1.1375 -2.6861  0.7666
 4387TIP3    H234721   1.057   4.392   2.121 -0.1140  0.1206  0.4693
 4388TIP3   OH234722   2.747   5.169   7.378 -0.4016 -0.3357 -0.0521
 4388TIP3    H134723   2.770   5.254   7.342 -1.9894 -0.0804 -0.5257
 4388TIP3    H234724   2.721   5.187   7.469 -0.0754 -0.4153  0.0570
 4389TIP3   OH234725   0.263   0.032   1.103 -0.0438 -0.3137 -0.4231
 4389TIP3    H134726   0.351   0.016   1.136  0.1716 -1.3439 -1.4446
 4389TIP3    H234727   0.209   0.038   1.181  1.0841  1.4440  0.2808
 4390TIP3   OH234728   2.474   4.669   6.592  0.0031 -0.0273  0.6003
 4390TIP3    H134729   2.549   4.682   6.534  0.7064  2.7034  1.9548
 4390TIP3    H234730   2.410   4.623   6.538  1.5022  0.2475 -1.5628
 4391TIP3   OH234731   5.783   2.989   1.766 -0.5766  0.1090 -0.0175
 4391TIP3    H134732   5.823   3.068   1.729 -0.2059  0.5096  1.1775
 4391TIP3    H234733   5.793   2.923   1.698 -1.0399  1.1245 -1.1171
 4392TIP3   OH234734   5.069   2.538   6.908  0.4238 -0.4961 -0.2717
 4392TIP3    H134735   5.123   2.616   6.894 -0.2597 -0.1904 -1.3552
 4392TIP3    H234736   5.127   2.465   6.888  0.9743 -0.2606  0.4261
 4393TIP3   OH234737   4.415   3.866   7.983 -1.0278  0.4185 -0.1150
 4393TIP3    H134738   4.403   3.898   7.894 -0.8376  0.1150 -0.2508
 4393TIP3    H234739   4.438   3.774   7.973  0.2223  0.6708  0.1894
 4394TIP3   OH234740   0.218   5.338   8.091 -0.2458  0.9916  0.2731
 4394TIP3    H134741   0.166   5.368   8.165 -0.0268  0.0684  0.8185
 4394TIP3    H234742   0.159   5.345   8.015 -2.4674 -3.1950  1.3251
 4395TIP3   OH234743   3.952   4.860   7.855  0.5781  0.3024 -0.6983
 4395TIP3    H134744   3.902   4.830   7.778  1.0971  0.3437 -1.0519
 4395TIP3    H234745   3.952   4.784   7.914 -0.5462  0.5451 -0.3657
 4396TIP3   OH234746   4.949   0.669   1.303  0.3683 -0.0664 -0.0654
 4396TIP3    H134747   4.922   0.760   1.315 -0.6981  0.0773 -2.8816
 4396TIP3    H234748   4.868   0.619   1.314  0.3672 -0.3657 -1.3472
 4397TIP3   OH234749   5.774   6.428   7.929 -0.0723 -0.3831  0.6699
 4397TIP3    H134750   5.732   6.412   7.845 -0.6311  0.9944  0.6618
 4397TIP3    H234751   5.843   6.361   7.935  1.1871  0.5947 -1.7030
 4398TIP3   OH234752   4.241   1.562   7.388  0.1759 -0.7553 -0.3448
 4398TIP3    H134753   4.306   1.570   7.318  0.3585  0.9880 -0.0020
 4398TIP3    H234754   4.290   1.524   7.461  1.1857  1.5828  0.2946
 4399TIP3   OH234755   2.644   0.005   0.441  0.1986  0.0338 -0.0962
 4399TIP3    H134756   2.646   0.055   0.359  2.1854  0.1520 -0.0373
 4399TIP3    H234757   2.711   0.047   0.495 -0.3610 -0.7016  1.1965
 4400TIP3   OH234758   5.950   4.877   7.447 -0.6506  0.6991  0.2599
 4400TIP3    H134759   5.991   4.902   7.364  0.8515  0.5110  0.8977
 4400TIP3    H234760   5.955   4.781   7.448 -2.1143  0.5961 -0.1084
 4401TIP3   OH234761   5.252   5.410   8.237  0.6576  0.1245 -0.3581
 4401TIP3    H134762   5.291   5.498   8.233 -0.9486  0.8410 -0.7896
 4401TIP3    H234763   5.182   5.412   8.172 -1.1908 -0.5716  1.5308
 4402TIP3   OH234764   1.892   2.600   0.134  0.3232  0.0705 -0.0387
 4402TIP3    H134765   1.981   2.596   0.168  0.1549  1.0919  0.5447
 4402TIP3    H234766   1.891   2.679   0.079  0.3173 -1.0010 -1.6705
 4403TIP3   OH234767   0.180   4.570   2.208 -0.3775 -0.2181  0.3653
 4403TIP3    H134768   0.173   4.635   2.278  1.3710  0.1136  0.2856
 4403TIP3    H234769   0.105   4.588   2.151 -0.5746  0.9701  0.9651
 4404TIP3   OH234770   0.097   5.732   2.170 -0.1800 -0.1928  0.0915
 4404TIP3    H134771   0.027   5.681   2.128 -0.1167 -0.6114  0.4814
 4404TIP3    H234772   0.122   5.798   2.105 -2.2198  1.1802  0.6038
 4405TIP3   OH234773   0.665   3.366   0.024 -0.6483  0.5460 -0.0571
 4405TIP3    H134774   0.732   3.427  -0.009  0.7577 -0.6712  0.4256
 4405TIP3    H234775   0.605   3.356  -0.050 -0.0331  1.2939 -0.6886
 4406TIP3   OH234776   4.361   1.929   0.602 -0.1693  0.1650 -0.7665
 4406TIP3    H134777   4.322   1.874   0.669 -0.2892  1.5049  0.3146
 4406TIP3    H234778   4.435   1.878   0.569  0.7847  0.0012  1.4217
 4407TIP3   OH234779   2.633   2.737   0.630 -0.8234 -0.5017  0.1940
 4407TIP3    H134780   2.688   2.665   0.599 -2.0918 -1.2753 -0.3209
 4407TIP3    H234781   2.653   2.809   0.570  1.5324  0.1083  1.5832
 4408TIP3   OH234782   4.516   4.020   8.260  0.2308  0.3933 -0.5287
 4408TIP3    H134783   4.497   4.001   8.351 -0.3431  3.1679  0.0143
 4408TIP3    H234784   4.453   3.968   8.210 -0.8504  0.4420  0.7552
 4409TIP3   OH234785   6.782   0.793   8.488 -0.4918  0.3565  0.3313
 4409TIP3    H134786   6.811   0.833   8.571  0.7397  3.1813 -1.3071
 4409TIP3    H234787   6.862   0.760   8.448 -0.9326 -0.1574 -0.1424
 4410TIP3   OH234788   5.202   6.028   2.395 -0.6129  0.1850  0.0971
 4410TIP3    H134789   5.144   6.012   2.469 -0.8565 -0.5824 -0.2494
 4410TIP3    H234790   5.149   6.078   2.334  0.0643  2.1822  1.0668
 4411TIP3   OH234791   3.393   2.663   2.316  0.2271 -0.2885  0.2169
 4411TIP3    H134792   3.377   2.644   2.408  1.4109  1.2954  0.8097
 4411TIP3    H234793   3.478   2.707   2.315 -0.0122  0.2357 -1.5575
 4412TIP3   OH234794   4.995   4.511   0.059  0.4971  0.2499  0.1705
 4412TIP3    H134795   5.011   4.420   0.084  0.0381 -0.0570 -0.5847
 4412TIP3    H234796   5.041   4.563   0.124 -1.9051 -0.4581  2.6079
 4413TIP3   OH234797   5.925   1.526   2.328 -0.6438  0.5130 -0.2949
 4413TIP3    H134798   5.988   1.498   2.261 -1.5766 -0.6999 -0.6882
 4413TIP3    H234799   5.914   1.620   2.312 -0.3067  0.3811 -1.3800
 4414TIP3   OH234800   4.956   5.223   1.593  0.1169 -0.5033 -0.0044
 4414TIP3    H134801   5.036   5.275   1.595  1.0208 -1.6768 -1.9206
 4414TIP3    H234802   4.981   5.143   1.546 -1.9727 -1.3044  0.1299
 4415TIP3   OH234803   5.065   6.064   0.843  0.4294 -0.5022 -0.1024
 4415TIP3    H134804   5.033   5.982   0.805  0.2470 -2.2031  3.3947
 4415TIP3    H234805   5.160   6.053   0.847  0.5446  0.0889 -0.8405
 4416TIP3   OH234806   6.842   4.909   1.639  0.1613 -0.2251  0.0462
 4416TIP3    H134807   6.869   4.842   1.703  0.7406  0.5636  0.6458
 4416TIP3    H234808   6.802   4.978   1.692 -1.4597 -0.5762 -0.6717
 4417TIP3   OH234809   2.136   6.279   6.279  0.2052  0.8984  0.3809
 4417TIP3    H134810   2.197   6.346   6.311  0.5854  0.4496  0.5975
 4417TIP3    H234811   2.160   6.200   6.326 -1.4871  1.0367  1.5809
 4418TIP3   OH234812   4.638   4.127   0.763  0.1675 -0.1911 -0.2080
 4418TIP3    H134813   4.702   4.137   0.692  1.5961  1.8241  1.2671
 4418TIP3    H234814   4.554   4.122   0.718  1.0681  0.5645 -2.0882
 4419TIP3   OH234815   5.959   3.992   1.794 -1.0603 -0.4090  0.4968
 4419TIP3    H134816   5.871   3.991   1.831 -1.0187  0.4011  0.6325
 4419TIP3    H234817   6.014   3.948   1.860 -1.4254 -1.3106  0.2164
 4420TIP3   OH234818   2.429   0.956   8.593 -0.2868  0.2804 -0.0952
 4420TIP3    H134819   2.498   0.903   8.553 -1.0690 -1.7005  1.0448
 4420TIP3    H234820   2.363   0.966   8.524 -0.5590 -1.0670 -0.0409
 4421TIP3   OH234821   2.039   5.917   7.295  0.4533  0.4725  0.8647
 4421TIP3    H134822   2.023   5.834   7.250  0.7303  1.2292 -0.6888
 4421TIP3    H234823   2.015   5.900   7.386  0.9320 -1.4415  0.6822
 4422TIP3   OH234824   4.424   1.035   1.988 -0.3681 -0.3358  0.2704
 4422TIP3    H134825   4.462   1.075   2.067 -1.4608 -0.3057  0.7906
 4422TIP3    H234826   4.500   1.016   1.933  0.4156 -0.3169  1.3088
 4423TIP3   OH234827   1.046   2.686   1.328  0.5495 -0.9088 -0.4920
 4423TIP3    H134828   1.068   2.658   1.416 -0.3531  1.3468  0.5243
 4423TIP3    H234829   1.122   2.737   1.299 -0.1662  0.5636  0.0798
 4424TIP3   OH234830   0.305   5.380   0.144 -0.1532 -0.0856  0.3044
 4424TIP3    H134831   0.340   5.445   0.205 -1.3721 -0.5837  1.5739
 4424TIP3    H234832   0.380   5.324   0.124  0.0398 -0.6148  2.2856
 4425TIP3   OH234833   0.453   3.384   8.472 -0.0569 -0.2380 -0.3012
 4425TIP3    H134834   0.410   3.457   8.427 -0.2010 -0.5147 -0.6157
 4425TIP3    H234835   0.382   3.336   8.514  0.0001 -0.3815 -0.3652
 4426TIP3   OH234836   5.932   1.745   0.626 -1.0043 -0.1468  0.3319
 4426TIP3    H134837   5.902   1.699   0.548  0.3571 -0.2340 -0.1680
 4426TIP3    H234838   6.001   1.803   0.595  0.9040 -1.5529  1.7012
 4427TIP3   OH234839   3.456   1.914   8.007  0.6419  0.0091  0.3469
 4427TIP3    H134840   3.491   1.948   7.925  1.7369 -2.2633 -0.2122
 4427TIP3    H234841   3.532   1.908   8.065  0.3758 -0.8013  0.6314
 4428TIP3   OH234842   6.370   0.765   1.547 -0.4719 -0.0226 -0.3776
 4428TIP3    H134843   6.406   0.683   1.511  2.0289  1.0604 -0.5354
 4428TIP3    H234844   6.328   0.808   1.472  1.5943  0.5703 -1.2563
 4429TIP3   OH234845   0.158   2.482   7.240 -0.3546 -0.3868 -0.3352
 4429TIP3    H134846   0.194   2.548   7.299  0.2646 -0.2921 -0.8098
 4429TIP3    H234847   0.138   2.529   7.159  0.2028 -0.7873 -0.7206
 4430TIP3   OH234848   6.171   4.766   2.126 -0.3509  0.0396  0.1219
 4430TIP3    H134849   6.153   4.687   2.074 -0.2860  0.6995 -0.9487
 4430TIP3    H234850   6.145   4.838   2.069  1.3574  0.8654  0.3028
 4431TIP3   OH234851   1.997   1.766   7.441 -0.1654  0.5350 -0.2910
 4431TIP3    H134852   1.981   1.853   7.475 -1.8199  0.0861  0.1535
 4431TIP3    H234853   1.977   1.707   7.513  0.7950 -0.2285 -0.6251
 4432TIP3   OH234854   0.419   2.044   6.963  0.2995  0.4248  0.7557
 4432TIP3    H134855   0.480   2.016   6.894 -1.1117 -1.2615  0.1380
 4432TIP3    H234856   0.338   2.064   6.917 -0.2225  0.7419  1.7834
 4433TIP3   OH234857   2.331   1.536   1.111 -0.3132 -0.5509 -0.5755
 4433TIP3    H134858   2.255   1.498   1.155 -0.0435  1.0071  1.3531
 4433TIP3    H234859   2.406   1.486   1.146 -0.2887 -0.8871 -1.0994
 4434TIP3   OH234860   4.889   1.818   1.569 -0.4926  0.0037 -0.1189
 4434TIP3    H134861   4.905   1.904   1.529 -0.5475 -0.4167 -1.0639
 4434TIP3    H234862   4.904   1.833   1.662 -2.0201  1.4170 -0.0490
 4435TIP3   OH234863   3.110   0.614   2.141  0.5433 -0.0830  0.1709
 4435TIP3    H134864   3.089   0.656   2.225  1.0801 -0.3327  0.4362
 4435TIP3    H234865   3.028   0.618   2.091  0.8301  2.1302 -0.1845
 4436TIP3   OH234866   6.147   5.743   1.754 -1.2202 -0.6714  0.0082
 4436TIP3    H134867   6.124   5.826   1.798 -1.5073 -1.7357  2.0007
 4436TIP3    H234868   6.238   5.755   1.726 -1.0203  0.0702  0.9203
 4437TIP3   OH234869   2.475   1.221   0.481  0.9306 -0.0305 -0.3443
 4437TIP3    H134870   2.414   1.294   0.490  2.1075  1.3490 -2.6713
 4437TIP3    H234871   2.496   1.197   0.571 -3.1545 -0.7887  0.6336
 4438TIP3   OH234872   3.434   5.729   2.398  0.1481  0.1249 -0.2631
 4438TIP3    H134873   3.351   5.725   2.446 -0.4353 -3.0392 -1.2821
 4438TIP3    H234874   3.463   5.638   2.392  3.8782  1.1170  0.1863
 4439TIP3   OH234875   4.546   6.397   6.816  0.3480  0.5535 -0.4452
 4439TIP3    H134876   4.546   6.302   6.802  0.4923  0.2322  1.5251
 4439TIP3    H234877   4.459   6.416   6.852  1.2327  0.6984  1.7761
 4440TIP3   OH234878   2.042   1.074   7.253 -0.2660  0.0430  0.1862
 4440TIP3    H134879   1.976   1.077   7.322 -0.7165  1.6949 -0.2776
 4440TIP3    H234880   2.099   1.149   7.270  0.0365  0.0668 -0.8337
 4441TIP3   OH234881   6.609   5.384   0.805 -0.1230 -0.3994  0.0366
 4441TIP3    H134882   6.601   5.472   0.770 -1.0863  0.0999  1.4164
 4441TIP3    H234883   6.523   5.345   0.792  0.2523 -1.1009 -0.4318
 4442TIP3   OH234884   3.066   6.367   0.080  0.2877 -0.2753 -0.2239
 4442TIP3    H134885   3.101   6.442   0.129  0.3115 -0.8743  0.6928
 4442TIP3    H234886   2.986   6.343   0.128  0.6865 -1.3069 -0.0619
 4443TIP3   OH234887   4.729   2.211   1.220  0.4583  0.1144 -0.3242
 4443TIP3    H134888   4.689   2.143   1.274  0.5763  1.0532  0.9768
 4443TIP3    H234889   4.822   2.211   1.245  0.5674  0.3790 -0.7136
 4444TIP3   OH234890   2.616   3.346   0.180  0.7213 -0.4718 -0.5289
 4444TIP3    H134891   2.675   3.281   0.219 -0.7420  0.2440  3.3749
 4444TIP3    H234892   2.531   3.302   0.176  0.4025  0.1779 -0.9822
 4445TIP3   OH234893   6.729   6.630   0.342  0.9221 -0.0684 -0.3286
 4445TIP3    H134894   6.732   6.726   0.348  2.2494 -0.1081  0.2487
 4445TIP3    H234895   6.649   6.611   0.295 -1.9966  1.1415  3.5604
 4446TIP3   OH234896   1.040   1.257   8.271  0.9016 -0.1636 -0.1309
 4446TIP3    H134897   1.034   1.169   8.308  1.2091 -0.4042 -0.6459
 4446TIP3    H234898   1.124   1.259   8.225  1.8657  1.0564  1.5552
 4447TIP3   OH234899   5.867   5.699   0.749  0.5427 -0.1343 -0.0082
 4447TIP3    H134900   5.836   5.608   0.746  0.8081 -0.2097 -0.4470
 4447TIP3    H234901   5.923   5.702   0.827  0.7912 -0.4301 -0.1722
 4448TIP3   OH234902   3.059   5.155   0.013 -0.0157  0.3017 -0.0139
 4448TIP3    H134903   2.995   5.127  -0.052 -0.7562  0.7490  0.5142
 4448TIP3    H234904   3.139   5.170  -0.038 -0.5498  0.5300 -0.8049
 4449TIP3   OH234905   2.510   3.335   7.340  0.3502  0.0558  0.6095
 4449TIP3    H134906   2.504   3.295   7.253  0.7416  0.4040  0.4238
 4449TIP3    H234907   2.534   3.426   7.324  1.5877 -0.1643  1.1346
 4450TIP3   OH234908   6.759   4.301   0.083 -0.3965  0.5197 -0.1486
 4450TIP3    H134909   6.765   4.313   0.178 -1.3917 -0.3579  0.0379
 4450TIP3    H234910   6.704   4.224   0.071 -1.4871  1.4475 -1.4745
 4451TIP3   OH234911   4.356   1.596   6.968 -0.0154 -0.5031 -0.2084
 4451TIP3    H134912   4.303   1.540   6.912 -0.7056 -1.8429  1.7116
 4451TIP3    H234913   4.342   1.684   6.932 -1.5822 -1.1153 -1.2386
 4452TIP3   OH234914   4.215   1.276   1.136  0.1702  0.5978  0.4247
 4452TIP3    H134915   4.222   1.186   1.106  1.7374  0.6581  0.5190
 4452TIP3    H234916   4.182   1.270   1.225  0.7798  0.0654  0.6248
 4453TIP3   OH234917   0.506   6.136   1.582  0.3525  0.0973 -0.1681
 4453TIP3    H134918   0.421   6.091   1.584 -0.0219  0.8051  0.3296
 4453TIP3    H234919   0.525   6.154   1.674  0.8257  0.3447 -0.3128
 4454TIP3   OH234920   5.285   6.430   7.092 -0.1676 -0.2665  0.0399
 4454TIP3    H134921   5.203   6.460   7.053 -1.2688 -0.3355  2.1793
 4454TIP3    H234922   5.299   6.343   7.055  0.1927  0.6164 -2.0631
 4455TIP3   OH234923   0.062   5.266   7.260  0.3292  0.2642  0.0385
 4455TIP3    H134924   0.144   5.295   7.302  0.6784 -0.5179 -0.0896
 4455TIP3    H234925   0.047   5.331   7.191  1.6042 -0.3155 -0.8484
 4456TIP3   OH234926   0.977   0.935   6.773  1.0674  0.0349 -0.4693
 4456TIP3    H134927   0.933   0.978   6.699  0.5330  1.3102  0.5552
 4456TIP3    H234928   1.043   0.878   6.732  0.6239  0.5351 -1.9286
 4457TIP3   OH234929   3.106   3.829   1.778  0.5895 -0.0137  0.1353
 4457TIP3    H134930   3.015   3.808   1.760  0.7135  0.0722 -0.6075
 4457TIP3    H234931   3.105   3.867   1.866 -0.3215  1.5515 -0.5196
 4458TIP3   OH234932   4.900   0.138   7.169  0.6499  0.0478  0.1011
 4458TIP3    H134933   4.977   0.107   7.122 -0.3482 -1.0382 -0.8992
 4458TIP3    H234934   4.881   0.224   7.131  0.5193 -0.3253 -0.6930
 4459TIP3   OH234935   1.837   2.092   8.625 -0.6076  0.0738 -0.2020
 4459TIP3    H134936   1.815   2.166   8.682  0.4729  0.7033 -0.5847
 4459TIP3    H234937   1.932   2.082   8.634 -0.9029 -2.2602  1.0177
 4460TIP3   OH234938   5.185   3.241   2.499 -0.3506  0.1076 -0.1742
 4460TIP3    H134939   5.133   3.162   2.486 -0.4307 -0.5020  2.8991
 4460TIP3    H234940   5.133   3.311   2.459 -2.1332 -0.8936  0.2696
 4461TIP3   OH234941   1.297   0.629   1.025 -0.0786  0.1799 -0.0730
 4461TIP3    H134942   1.217   0.637   0.973 -0.4275 -1.5389  0.1170
 4461TIP3    H234943   1.276   0.670   1.109  0.1231  1.9926 -0.8799
 4462TIP3   OH234944   1.448   2.805   0.746  0.3035  0.3405  0.4168
 4462TIP3    H134945   1.478   2.837   0.661  1.1094 -0.6627  0.3037
 4462TIP3    H234946   1.513   2.837   0.808  0.4732 -0.0728  0.4585
 4463TIP3   OH234947   0.031   3.599   1.944  0.4882 -0.4898  0.4639
 4463TIP3    H134948   0.040   3.519   1.995  2.7611  0.6058  1.9618
 4463TIP3    H234949   0.112   3.648   1.961  0.1267  1.1994 -2.0611
 4464TIP3   OH234950   1.047   0.753   1.618 -0.4463  0.5243 -0.0093
 4464TIP3    H134951   1.089   0.829   1.577 -1.0597  1.4430  1.0105
 4464TIP3    H234952   1.061   0.681   1.555  0.5173  1.3635 -0.7992
 4465TIP3   OH234953   0.073   3.775   1.711 -0.4727  0.2918 -0.2645
 4465TIP3    H134954   0.168   3.778   1.707 -0.3733 -1.1851  0.3946
 4465TIP3    H234955   0.053   3.725   1.790 -1.7941  0.2861 -0.5711
 4466TIP3   OH234956   4.454   1.400   1.310  0.3229  0.3076 -0.5569
 4466TIP3    H134957   4.480   1.328   1.367  1.5066  0.9038 -0.3154
 4466TIP3    H234958   4.362   1.416   1.332  0.9889  1.1286  1.8800
 4467TIP3   OH234959   6.830   0.716   7.451 -0.2041 -0.8785  0.2802
 4467TIP3    H134960   6.912   0.766   7.455  1.7443 -3.6442 -1.7886
 4467TIP3    H234961   6.789   0.745   7.370 -0.7860 -0.3064  0.7612
 4468TIP3   OH234962   0.440   2.188   0.249 -0.1485  0.0112 -0.2613
 4468TIP3    H134963   0.476   2.277   0.247 -1.6441  0.8002  2.3060
 4468TIP3    H234964   0.346   2.200   0.235 -0.3926 -1.1243  0.2682
 4469TIP3   OH234965   0.151   1.763   8.436 -0.0750  0.1232 -0.3214
 4469TIP3    H134966   0.182   1.728   8.519  1.4545 -0.0887 -0.9538
 4469TIP3    H234967   0.199   1.845   8.425  0.7870 -0.5277 -1.6369
 4470TIP3   OH234968   5.167   4.236   0.405  0.1671 -0.4325 -0.6470
 4470TIP3    H134969   5.077   4.209   0.420 -0.0823 -1.4345 -3.3399
 4470TIP3    H234970   5.164   4.332   0.407 -0.4920 -0.4604  1.3768
 4471TIP3   OH234971   6.015   3.989   0.041  0.0626  0.2922  0.4287
 4471TIP3    H134972   5.971   4.075   0.047 -0.5023  0.1901 -1.6243
 4471TIP3    H234973   5.956   3.930   0.088 -1.2899  0.4522 -0.9678
 4472TIP3   OH234974   2.550   2.178   6.271  0.0725  0.3789 -0.0518
 4472TIP3    H134975   2.455   2.171   6.263  0.0731  1.7763 -1.9826
 4472TIP3    H234976   2.584   2.128   6.197  0.7474  1.3805 -0.4482
 4473TIP3   OH234977   1.033   4.202   1.307  0.2763  0.0448  0.1068
 4473TIP3    H134978   0.956   4.192   1.363 -0.4548  0.6610 -0.7545
 4473TIP3    H234979   1.023   4.135   1.240  0.1077  0.5826 -0.4174
 4474TIP3   OH234980   2.521   4.016   7.617 -0.7895 -0.2684 -0.3053
 4474TIP3    H134981   2.599   3.993   7.668 -1.1881  2.4224  1.8177
 4474TIP3    H234982   2.447   3.987   7.671 -1.2132  1.4656  0.1313
 4475TIP3   OH234983   6.836   3.928   7.742 -0.0623  0.1848  0.2466
 4475TIP3    H134984   6.784   3.910   7.820  0.1822 -0.2966  0.3023
 4475TIP3    H234985   6.926   3.907   7.767  0.0004 -0.1060 -0.1991
 4476TIP3   OH234986   1.332   3.412   8.050  0.1683  0.1443  0.7412
 4476TIP3    H134987   1.317   3.318   8.041  1.2329 -0.0956  1.3641
 4476TIP3    H234988   1.264   3.452   7.996 -0.1216 -0.9849  0.2414
 4477TIP3   OH234989   2.697   2.123   7.284 -0.2007 -0.7943  0.2165
 4477TIP3    H134990   2.781   2.077   7.294  1.2732  1.4249 -0.9089
 4477TIP3    H234991   2.686   2.131   7.189 -0.9948  0.1291  0.3706
 4478TIP3   OH234992   5.384   2.523   7.773 -1.0821 -0.1131  0.3426
 4478TIP3    H134993   5.327   2.597   7.751 -0.1297  0.2567 -1.0610
 4478TIP3    H234994   5.466   2.542   7.727 -1.0495 -2.3647 -0.6622
 4479TIP3   OH234995   1.226   2.957   7.828  0.0480 -0.1714  0.1988
 4479TIP3    H134996   1.264   3.003   7.753 -0.3728  0.2360  0.2331
 4479TIP3    H234997   1.285   2.883   7.842 -0.0733 -0.4610 -0.7568
 4480TIP3   OH234998   2.943   4.222   1.858 -0.2319 -0.3832  0.0450
 4480TIP3    H134999   3.013   4.222   1.793  2.1121  2.6986  2.3026
 4480TIP3    H235000   2.897   4.304   1.843 -1.0438 -0.6693  0.9158
 4481TIP3   OH235001   6.637   3.242   1.434  0.2257  0.3183  0.2674
 4481TIP3    H135002   6.713   3.298   1.424 -0.1186  0.4914 -1.6559
 4481TIP3    H235003   6.670   3.153   1.418 -0.0971  0.4787 -1.4908
 4482TIP3   OH235004   3.511   2.075   7.796 -0.6712  0.5297  0.1200
 4482TIP3    H135005   3.461   2.156   7.779 -1.2534  0.1360 -0.0867
 4482TIP3    H235006   3.595   2.090   7.754 -1.1015  0.6772 -0.7283
 4483TIP3   OH235007   2.589   3.916   7.372  0.1604  0.1474  0.0677
 4483TIP3    H135008   2.527   3.962   7.429 -0.3031 -1.3452  0.8347
 4483TIP3    H235009   2.675   3.948   7.399 -0.0744 -0.3041  1.4294
 4484TIP3   OH235010   2.926   4.168   7.253  0.0377 -0.6638 -0.5220
 4484TIP3    H135011   2.959   4.090   7.209 -0.9343 -1.9104  0.8723
 4484TIP3    H235012   2.834   4.173   7.226 -0.0466 -0.3042 -0.1744
 4485TIP3   OH235013   4.793   6.679   1.361  0.7162 -0.1607 -0.2132
 4485TIP3    H135014   4.714   6.625   1.360  2.1148 -2.2683 -0.9089
 4485TIP3    H235015   4.773   6.750   1.300 -0.9263 -0.1868  0.2396
 4486TIP3   OH235016   1.130   0.733   7.839 -0.3325  0.4770  0.0182
 4486TIP3    H135017   1.200   0.732   7.774  0.3884 -0.6674  0.7801
 4486TIP3    H235018   1.050   0.741   7.788  0.3198  1.3875 -0.8941
 4487TIP3   OH235019   6.565   5.480   7.640  0.8174  0.0089  0.2965
 4487TIP3    H135020   6.646   5.470   7.591  1.2499 -2.0737  1.3384
 4487TIP3    H235021   6.556   5.399   7.690 -1.6290  0.4042  0.6459
 4488TIP3   OH235022   1.434   2.752   2.292  0.0128 -0.2663 -0.4679
 4488TIP3    H135023   1.440   2.848   2.297  0.0219 -0.3257  1.0803
 4488TIP3    H235024   1.487   2.721   2.366  0.7245 -1.5051 -1.4701
 4489TIP3   OH235025   6.613   2.629   0.651 -0.0651 -0.2691  0.4238
 4489TIP3    H135026   6.692   2.594   0.692 -0.2300 -1.0013  0.1467
 4489TIP3    H235027   6.632   2.626   0.557 -0.0372  0.5278  0.3982
 4490TIP3   OH235028   4.400   0.710   0.141  0.2193  0.3522 -0.1510
 4490TIP3    H135029   4.375   0.782   0.083 -0.9075  1.3225  1.4769
 4490TIP3    H235030   4.323   0.652   0.142  0.3470  0.1862  0.1381
 4491TIP3   OH235031   2.490   0.253   0.351 -0.0342 -0.3953 -0.5841
 4491TIP3    H135032   2.433   0.204   0.291  0.7710 -0.0583 -1.6518
 4491TIP3    H235033   2.545   0.307   0.294 -1.2984  2.2816  0.5237
 4492TIP3   OH235034   5.301   5.952   7.154 -0.3650  0.1388  0.1023
 4492TIP3    H135035   5.269   6.041   7.137  0.4424 -0.1585 -3.6890
 4492TIP3    H235036   5.235   5.895   7.115 -0.5241 -0.9879  1.8951
 4493TIP3   OH235037   4.778   5.812   8.386 -0.3524  0.3973  0.0222
 4493TIP3    H135038   4.727   5.769   8.318  1.2103 -0.5230 -0.6369
 4493TIP3    H235039   4.855   5.845   8.341  0.2335  0.6561  1.1741
 4494TIP3   OH235040   5.355   6.431   0.506 -0.0525  0.1477 -0.0557
 4494TIP3    H135041   5.344   6.358   0.566  1.5440  1.4236  1.9117
 4494TIP3    H235042   5.388   6.391   0.425 -2.1630 -1.5898 -0.1354
 4495TIP3   OH235043   2.386   2.438   7.788 -0.3592 -0.3565 -0.2554
 4495TIP3    H135044   2.409   2.456   7.697 -0.3068  0.2053 -0.1387
 4495TIP3    H235045   2.450   2.489   7.839  0.1627 -1.3489  0.1079
 4496TIP3   OH235046   2.305   2.514   0.069 -0.7308 -0.1471 -0.2404
 4496TIP3    H135047   2.387   2.486   0.031 -1.1021  0.2523 -1.3943
 4496TIP3    H235048   2.246   2.439   0.060 -0.3547 -0.6175  1.0735
 4497TIP3   OH235049   3.813   0.219   7.387  0.3716 -0.0167 -0.0324
 4497TIP3    H135050   3.896   0.248   7.348  0.4013  0.0949  0.1120
 4497TIP3    H235051   3.752   0.213   7.314 -0.0103  1.7103  0.1130
 4498TIP3   OH235052   6.835   2.395   8.081  0.8398 -0.1205  0.0661
 4498TIP3    H135053   6.928   2.409   8.100  0.9535  1.9309 -1.6967
 4498TIP3    H235054   6.790   2.439   8.153  1.2691  1.5108 -0.6128
 4499TIP3   OH235055   5.558   4.463   0.844 -0.2793  0.4119  0.3640
 4499TIP3    H135056   5.496   4.415   0.899  0.4475  0.5958  1.3844
 4499TIP3    H235057   5.583   4.539   0.896  0.2727  0.7100 -0.3138
 4500TIP3   OH235058   2.480   3.855   1.422 -0.2956  0.5025  0.9030
 4500TIP3    H135059   2.443   3.779   1.377  1.7185 -0.7029  1.1494
 4500TIP3    H235060   2.407   3.890   1.473 -0.9587 -2.2334  2.0173
 4501TIP3   OH235061   6.642   6.838   7.184  0.1670 -0.5691 -0.1892
 4501TIP3    H135062   6.689   6.880   7.256  0.4280  1.1902 -1.3370
 4501TIP3    H235063   6.549   6.852   7.205  0.2526  0.6017 -0.5537
 4502TIP3   OH235064   5.436   4.426   7.874 -0.4535  0.5664 -0.2265
 4502TIP3    H135065   5.446   4.385   7.788  3.4250  0.2157  0.2139
 4502TIP3    H235066   5.473   4.362   7.935 -1.5696  1.5148  1.5098
 4503TIP3   OH235067   2.618   1.448   0.622 -0.3690  0.4999  0.0727
 4503TIP3    H135068   2.563   1.517   0.586 -0.4357 -0.4233 -1.6747
 4503TIP3    H235069   2.557   1.389   0.666 -0.9225 -0.6892 -2.1256
 4504TIP3   OH235070   5.123   2.339   7.208 -0.4826  0.1088  0.2474
 4504TIP3    H135071   5.055   2.273   7.216 -0.7586 -0.1388 -2.8455
 4504TIP3    H235072   5.177   2.310   7.135  0.2172  2.5575 -0.3268
 4505TIP3   OH235073   6.473   1.767   1.482  0.1313  0.2690 -0.0684
 4505TIP3    H135074   6.386   1.730   1.497 -0.5333  0.7063 -2.4320
 4505TIP3    H235075   6.502   1.797   1.568 -1.7931 -0.4408  0.8740
 4506TIP3   OH235076   1.365   3.874   6.387  0.0841  0.2018  0.5736
 4506TIP3    H135077   1.357   3.926   6.467  0.2204  1.5679 -0.2764
 4506TIP3    H235078   1.399   3.789   6.417  0.2123  0.7101  1.9453
 4507TIP3   OH235079   2.314   0.516   1.630 -0.4486  0.0243  0.9949
 4507TIP3    H135080   2.340   0.425   1.622  1.3455  0.6211 -0.8756
 4507TIP3    H235081   2.238   0.525   1.572 -0.0390 -0.1160  0.4199
 4508TIP3   OH235082   5.142   4.282   8.250  0.3884 -0.4394 -0.7433
 4508TIP3    H135083   5.215   4.322   8.298 -0.4480  0.8413 -0.5039
 4508TIP3    H235084   5.073   4.272   8.316 -1.0914  2.1347 -1.7864
 4509TIP3   OH235085   5.952   6.201   2.749 -0.1624  0.0638  0.4163
 4509TIP3    H135086   5.935   6.108   2.737  0.8018 -0.0345 -0.2893
 4509TIP3    H235087   6.042   6.205   2.782 -0.0399  0.7691  0.0094
 4510TIP3   OH235088   1.536   4.790   1.787 -0.3591  0.3376  0.8044
 4510TIP3    H135089   1.564   4.822   1.872  1.0715 -0.8882  0.8340
 4510TIP3    H235090   1.596   4.718   1.767 -1.1701  0.0700 -0.8747
 4511TIP3   OH235091   5.550   1.560   0.121 -0.1379  0.0310 -0.4205
 4511TIP3    H135092   5.593   1.591   0.041  0.5364  1.8852  0.6085
 4511TIP3    H235093   5.456   1.572   0.104 -0.1678 -1.6991 -1.7339
 4512TIP3   OH235094   3.806   2.961   7.236  0.0471  0.3282 -0.7075
 4512TIP3    H135095   3.849   3.016   7.302  0.8553  0.4980 -1.3552
 4512TIP3    H235096   3.861   2.971   7.158 -0.3800 -0.5898 -1.1362
 4513TIP3   OH235097   4.509   6.697   1.354  0.7298  0.3416 -0.6494
 4513TIP3    H135098   4.516   6.637   1.279 -1.0970 -0.5251 -0.1715
 4513TIP3    H235099   4.515   6.784   1.315 -2.0018 -0.0277 -2.1069
 4514TIP3   OH235100   2.659   4.508   7.491 -0.8111 -0.2114  0.7991
 4514TIP3    H135101   2.680   4.438   7.429 -0.9198  0.0569  0.4527
 4514TIP3    H235102   2.648   4.464   7.575 -0.4644 -0.5576  0.6674
 4515TIP3   OH235103   1.970   3.855   0.705 -0.4843  0.0065  0.1399
 4515TIP3    H135104   1.934   3.913   0.771 -1.8535 -0.2600 -0.3370
 4515TIP3    H235105   2.065   3.857   0.720 -0.5638  1.7384  0.6180
 4516TIP3   OH235106   2.781   1.276   7.838 -0.0293 -0.3133 -0.2565
 4516TIP3    H135107   2.717   1.223   7.792  0.8602  0.2472 -2.2913
 4516TIP3    H235108   2.857   1.219   7.848  0.3139  0.0101 -0.9008
 4517TIP3   OH235109   0.479   5.696   2.464  0.1173  0.7389  0.0085
 4517TIP3    H135110   0.475   5.600   2.464  0.0020  0.7036 -1.9067
 4517TIP3    H235111   0.444   5.721   2.378  1.6364  2.4200 -0.1832
 4518TIP3   OH235112   0.869   0.468   6.903 -0.5423 -0.6282  0.2945
 4518TIP3    H135113   0.910   0.396   6.950 -1.9747 -1.3220  0.5443
 4518TIP3    H235114   0.915   0.471   6.819  0.6379 -0.7319  0.9206
 4519TIP3   OH235115   2.076   6.390   7.785 -0.2786  0.1295  0.0466
 4519TIP3    H135116   2.094   6.296   7.790 -1.3396 -0.1087 -0.3062
 4519TIP3    H235117   2.051   6.415   7.873 -0.5649 -0.0470  0.0166
 4520TIP3   OH235118   1.371   3.914   8.097 -0.2619 -0.3873 -0.6845
 4520TIP3    H135119   1.415   3.833   8.123  1.4099  0.3192 -1.2299
 4520TIP3    H235120   1.341   3.898   8.007  1.8076  0.2424 -1.5300
 4521TIP3   OH235121   5.886   3.567   6.983 -0.1156  0.1879 -0.0251
 4521TIP3    H135122   5.933   3.544   6.903  2.3227  0.5010  1.2433
 4521TIP3    H235123   5.824   3.635   6.955  0.8190  0.4356 -1.6101
 4522TIP3   OH235124   6.109   2.483   7.775 -0.0998  0.1058 -0.4228
 4522TIP3    H135125   6.112   2.465   7.681 -0.5986  1.8797 -0.8127
 4522TIP3    H235126   6.191   2.529   7.793  0.5908 -1.3374  0.2992
 4523TIP3   OH235127   5.631   6.847   6.190 -0.2496 -0.2573 -0.6840
 4523TIP3    H135128   5.674   6.787   6.127 -1.5504 -1.4052 -0.5342
 4523TIP3    H235129   5.624   6.930   6.143  0.7241 -0.4856 -1.2631
 4524TIP3   OH235130   4.662   5.080   1.027 -0.1760 -0.0085  0.1172
 4524TIP3    H135131   4.628   5.078   0.937  1.9318  0.9842 -0.7553
 4524TIP3    H235132   4.751   5.111   1.018  1.3602 -3.2546  2.1768
 4525TIP3   OH235133   6.514   3.587   6.701 -0.0264 -0.4200 -1.1007
 4525TIP3    H135134   6.541   3.611   6.790 -2.5446 -1.3308  0.0242
 4525TIP3    H235135   6.594   3.593   6.649  1.9699 -1.5926  1.5707
 4526TIP3   OH235136   2.279   2.024   8.140 -0.0491 -0.1945 -0.0359
 4526TIP3    H135137   2.199   2.077   8.133 -0.9281 -1.6205 -1.4125
 4526TIP3    H235138   2.348   2.080   8.104 -0.3063  1.2297  1.5830
 4527TIP3   OH235139   5.411   1.367   1.577 -0.2929  0.1604  0.2906
 4527TIP3    H135140   5.443   1.368   1.667  0.4248  2.1822  0.0740
 4527TIP3    H235141   5.490   1.369   1.523 -0.7124 -1.0879 -0.4095
 4528TIP3   OH235142   3.860   1.768   6.699  0.0295  0.2885  0.5947
 4528TIP3    H135143   3.792   1.739   6.637  1.2837  0.8144 -1.0868
 4528TIP3    H235144   3.888   1.687   6.742 -0.8838 -0.0875  0.5071
 4529TIP3   OH235145   0.609   3.259   1.132  0.8328 -0.1438  0.0639
 4529TIP3    H135146   0.560   3.328   1.177 -1.5032 -2.2844  0.9759
 4529TIP3    H235147   0.687   3.247   1.186  0.3520  0.4999  0.9348
 4530TIP3   OH235148   0.999   4.379   7.404 -0.3700 -0.4441 -0.5979
 4530TIP3    H135149   0.936   4.321   7.361  0.6364 -0.8632 -1.5469
 4530TIP3    H235150   1.048   4.420   7.333 -0.7909  1.3031  0.0722
 4531TIP3   OH235151   0.657   2.276   1.630  0.6870 -0.0884 -0.2079
 4531TIP3    H135152   0.691   2.339   1.566  1.3657  0.9916  1.1726
 4531TIP3    H235153   0.701   2.299   1.712  1.1453 -2.5118  0.2997
 4532TIP3   OH235154   1.940   5.836   1.247 -0.5522 -0.0526  0.2767
 4532TIP3    H135155   2.005   5.796   1.190 -1.2157 -0.3118 -0.3220
 4532TIP3    H235156   1.919   5.919   1.205 -0.3775  0.1783  0.6392
 4533TIP3   OH235157   1.373   2.655   7.745  0.4429 -0.4012 -0.5697
 4533TIP3    H135158   1.297   2.626   7.694  1.0696 -2.0947 -0.6265
 4533TIP3    H235159   1.370   2.602   7.825 -0.5981  2.3163  1.3181
 4534TIP3   OH235160   1.836   3.770   7.472 -0.1411 -0.3658 -0.1117
 4534TIP3    H135161   1.771   3.832   7.505  0.7167  0.0349  0.8589
 4534TIP3    H235162   1.920   3.806   7.499  0.4271 -1.4648 -0.3635
 4535TIP3   OH235163   0.157   0.987   6.637  0.5450 -0.0617  0.2015
 4535TIP3    H135164   0.166   1.059   6.700 -1.6727  1.1650 -0.7935
 4535TIP3    H235165   0.074   0.946   6.660 -0.7944  0.9917 -2.3963
 4536TIP3   OH235166   1.946   5.786   5.882  0.3692 -0.1404 -0.8618
 4536TIP3    H135167   1.859   5.813   5.852 -0.2474 -0.3683  0.6019
 4536TIP3    H235168   1.928   5.717   5.947  1.7417 -1.6611 -2.0075
 4537TIP3   OH235169   4.735   6.253   2.138  0.1634 -0.1822  0.1793
 4537TIP3    H135170   4.746   6.295   2.224 -3.9915 -0.3715  0.9969
 4537TIP3    H235171   4.778   6.168   2.147  1.0180  0.3641  1.5862
 4538TIP3   OH235172   5.429   6.299   1.611  0.2406  0.0366  0.3052
 4538TIP3    H135173   5.439   6.364   1.680 -0.5667  3.8575 -2.8363
 4538TIP3    H235174   5.516   6.291   1.572  0.1124  0.0154  0.0234
 4539TIP3   OH235175   3.937   0.918   0.089  0.0638 -0.9212  0.6026
 4539TIP3    H135176   3.923   1.000   0.136  2.4106 -1.4207  2.3652
 4539TIP3    H235177   3.873   0.920   0.017 -1.9281  1.0569  2.2950
 4540TIP3   OH235178   5.807   5.399   0.656  0.1676 -0.3307 -0.2797
 4540TIP3    H135179   5.779   5.308   0.660  1.1911 -0.6372  1.1057
 4540TIP3    H235180   5.733   5.446   0.618 -0.4335 -1.7153 -0.8818
 4541TIP3   OH235181   4.022   6.197   6.142  0.1201 -0.1890  0.1687
 4541TIP3    H135182   4.021   6.120   6.085  0.1908  0.1214 -0.2555
 4541TIP3    H235183   3.939   6.193   6.190  0.4701 -0.9583  0.7356
 4542TIP3   OH235184   6.726   5.078   7.967 -0.3471 -0.6363 -0.6443
 4542TIP3    H135185   6.654   5.034   8.013 -1.8788  0.7043 -1.6372
 4542TIP3    H235186   6.683   5.126   7.896  1.5975 -0.1135 -1.5378
 4543TIP3   OH235187   3.202   2.814   1.186  0.3521 -0.0779  0.6650
 4543TIP3    H135188   3.145   2.829   1.110  0.8894  1.0480  0.4529
 4543TIP3    H235189   3.199   2.720   1.201  0.0474 -0.2818 -0.6005
 4544TIP3   OH235190   1.252   0.166   1.231  0.6795 -0.1751  0.0522
 4544TIP3    H135191   1.339   0.206   1.223  1.9324 -2.7406 -0.4580
 4544TIP3    H235192   1.193   0.226   1.185  1.6944  2.7672  2.2510
 4545TIP3   OH235193   2.391   0.241   1.576 -0.4031 -0.3382  0.2252
 4545TIP3    H135194   2.451   0.245   1.650  0.1832 -0.5190 -0.2341
 4545TIP3    H235195   2.418   0.164   1.527 -1.2352 -0.6242  0.1969
 4546TIP3   OH235196   3.713   6.447   0.934 -0.6387  0.0453  0.1033
 4546TIP3    H135197   3.627   6.458   0.974 -0.2797 -0.5981  1.0827
 4546TIP3    H235198   3.759   6.386   0.992  0.6719  0.7982 -0.1101
 4547TIP3   OH235199   1.578   0.960   1.171 -0.2781  0.3174  0.5615
 4547TIP3    H135200   1.617   1.047   1.162  1.1080 -0.4984 -2.5649
 4547TIP3    H235201   1.650   0.904   1.201  0.0302 -0.4585 -1.4624
 4548TIP3   OH235202   0.184   1.755   1.592 -0.0980  0.8087  0.3809
 4548TIP3    H135203   0.212   1.705   1.669 -0.2661  0.6087  0.3158
 4548TIP3    H235204   0.132   1.827   1.628 -0.6575  0.3938  0.4324
 4549TIP3   OH235205   1.293   5.723   8.172 -0.3214  0.5226  0.1347
 4549TIP3    H135206   1.344   5.653   8.133 -1.7599 -0.2654 -0.4095
 4549TIP3    H235207   1.355   5.771   8.227  1.1380  0.0546 -1.0553
 4550TIP3   OH235208   2.443   5.067   6.774 -0.1085  0.1817 -0.5733
 4550TIP3    H135209   2.479   5.104   6.693  1.0382  0.0450 -0.1351
 4550TIP3    H235210   2.426   5.142   6.830  1.4895  0.1371  0.0175
 4551TIP3   OH235211   1.345   2.493   7.975  0.1932  0.4954  0.6677
 4551TIP3    H135212   1.323   2.400   7.972  0.6740  0.3914  0.1845
 4551TIP3    H235213   1.278   2.532   8.031  0.5668 -0.2999  1.6907
 4552TIP3   OH235214   6.190   4.501   6.845 -0.0127  0.1991 -0.0092
 4552TIP3    H135215   6.148   4.580   6.810 -1.0938 -0.9709 -1.4834
 4552TIP3    H235216   6.122   4.434   6.841  1.0660 -0.9723  0.6011
 4553TIP3   OH235217   3.789   5.271   7.229 -0.0135  0.4997  0.1748
 4553TIP3    H135218   3.788   5.354   7.181 -1.0972 -0.2018 -1.0722
 4553TIP3    H235219   3.716   5.278   7.291 -1.5134 -0.3333 -1.4347
 4554TIP3   OH235220   2.081   6.732   0.485 -0.2604  0.0536  0.0306
 4554TIP3    H135221   2.145   6.703   0.550  0.1379 -1.9823 -1.1930
 4554TIP3    H235222   2.012   6.775   0.536  0.8044 -0.0796  1.6242
 4555TIP3   OH235223   0.367   3.081   1.345  0.3860  0.5186  0.3804
 4555TIP3    H135224   0.364   3.113   1.255 -0.1957 -2.9926 -1.0407
 4555TIP3    H235225   0.349   3.157   1.399  0.3060  2.6896 -2.4787
 4556TIP3   OH235226   1.645   5.456   7.701  0.4573 -0.0724  0.2043
 4556TIP3    H135227   1.671   5.393   7.768  1.0366 -1.8152 -1.5634
 4556TIP3    H235228   1.723   5.468   7.647 -0.3728  0.1450 -1.0067
 4557TIP3   OH235229   0.254   3.788   0.122  0.1629  0.5876  0.3724
 4557TIP3    H135230   0.261   3.696   0.149  0.1009  0.7050  0.7895
 4557TIP3    H235231   0.258   3.837   0.204  3.0360  1.1313  0.0031
 4558TIP3   OH235232   3.710   2.836   6.614  0.0108 -0.7452 -0.0945
 4558TIP3    H135233   3.730   2.910   6.556 -0.2956  1.6689  2.6402
 4558TIP3    H235234   3.645   2.785   6.565 -2.0598  2.4694 -1.0472
 4559TIP3   OH235235   1.310   3.817   7.844 -0.3596  0.4721  0.0825
 4559TIP3    H135236   1.292   3.845   7.755 -0.1227 -0.5008 -0.2803
 4559TIP3    H235237   1.372   3.745   7.835 -0.2103  0.4688  1.0377
 4560TIP3   OH235238   0.697   5.956   1.343  0.7406  0.2126 -0.5997
 4560TIP3    H135239   0.770   6.016   1.358 -0.0792  1.4689 -1.4137
 4560TIP3    H235240   0.705   5.891   1.412  3.3387 -0.4041 -1.3924
 4561TIP3   OH235241   0.059   6.268   0.809  0.3183 -0.4150 -0.2565
 4561TIP3    H135242  -0.015   6.250   0.751  0.1663  0.7551 -0.4659
 4561TIP3    H235243   0.081   6.184   0.848 -0.1841 -1.0417 -1.3046
 4562TIP3   OH235244   2.917   4.673   1.376  0.0931  0.4081  0.0414
 4562TIP3    H135245   2.918   4.760   1.337 -0.1852  0.0133 -0.8635
 4562TIP3    H235246   2.832   4.666   1.418  0.2163  0.6678  0.3358
 4563TIP3   OH235247   5.380   3.526   0.177  0.8262 -0.2751  0.0366
 4563TIP3    H135248   5.334   3.511   0.259  2.0483 -1.2916  0.5613
 4563TIP3    H235249   5.312   3.558   0.117 -0.0297  0.7966  1.5052
 4564TIP3   OH235250   2.018   1.913   1.491  0.4197 -0.8866  0.0130
 4564TIP3    H135251   2.039   1.991   1.439 -1.8963  0.7698  1.3886
 4564TIP3    H235252   2.095   1.899   1.546  0.4669  1.1918  0.5597
 4565TIP3   OH235253   2.953   5.771   7.554 -0.2899 -0.0923 -0.1184
 4565TIP3    H135254   2.903   5.767   7.635 -3.2719  1.3742 -1.7515
 4565TIP3    H235255   2.997   5.856   7.556 -0.0735 -0.2109  0.1192
 4566TIP3   OH235256   5.458   1.467   8.386 -0.1957 -0.4729 -0.2496
 4566TIP3    H135257   5.432   1.411   8.313 -0.3609 -0.6960 -0.0211
 4566TIP3    H235258   5.429   1.420   8.464 -0.5488  0.0380 -0.0664
 4567TIP3   OH235259   4.242   1.442   7.700  0.4346 -0.5050  0.5374
 4567TIP3    H135260   4.333   1.429   7.727  0.0455 -0.1811  2.1448
 4567TIP3    H235261   4.191   1.403   7.771 -0.6848  1.0722  0.6433
 4568TIP3   OH235262   0.074   6.578   6.704  0.1373  0.0772  0.1437
 4568TIP3    H135263   0.016   6.653   6.715 -1.4119 -1.3413  2.4662
 4568TIP3    H235264   0.038   6.529   6.631 -0.9246 -0.1621  0.8118
 4569TIP3   OH235265   4.164   6.806   0.760 -0.4341 -0.2434  0.1847
 4569TIP3    H135266   4.142   6.871   0.693 -0.7116 -1.0692 -0.5385
 4569TIP3    H235267   4.162   6.723   0.714 -0.9454 -0.8647  1.2923
 4570TIP3   OH235268   4.312   0.638   7.545  0.7552  0.0609  0.9130
 4570TIP3    H135269   4.250   0.598   7.484  0.5160  1.9171 -0.1539
 4570TIP3    H235270   4.396   0.634   7.500  0.4635  2.0218  0.1038
 4571TIP3   OH235271   5.906   6.796   1.828  0.0771  0.0020  0.1045
 4571TIP3    H135272   5.960   6.726   1.863  3.4139  2.0540 -0.5339
 4571TIP3    H235273   5.851   6.823   1.902  1.5395 -0.7333  1.5196
 4572TIP3   OH235274   3.983   5.172   8.201  0.3965  0.5202 -0.3446
 4572TIP3    H135275   3.923   5.108   8.163  1.2074 -0.0665 -0.6749
 4572TIP3    H235276   3.936   5.255   8.196 -0.5741 -0.0065 -0.1343
 4573TIP3   OH235277   1.420   5.565   8.436 -0.3427 -0.4995 -0.6016
 4573TIP3    H135278   1.385   5.481   8.466 -0.4647 -0.4106 -0.4925
 4573TIP3    H235279   1.343   5.619   8.420 -0.2459  0.1929  1.0546
 4574TIP3   OH235280   3.984   4.671   6.984 -0.0933 -0.6704 -0.4254
 4574TIP3    H135281   4.043   4.620   7.039 -1.3536 -0.9648  0.6922
 4574TIP3    H235282   3.916   4.609   6.956  0.1932 -0.3879 -1.8616
 4575TIP3   OH235283   4.155   3.993   8.472  0.7560  0.5246  0.3675
 4575TIP3    H135284   4.242   4.031   8.478  0.4576  1.3660 -0.4019
 4575TIP3    H235285   4.123   4.020   8.386 -0.2321  0.1695  0.6108
 4576TIP3   OH235286   4.588   0.862   7.777 -0.6770 -0.1599 -0.6690
 4576TIP3    H135287   4.534   0.848   7.854 -0.8123 -1.2307 -0.9420
 4576TIP3    H235288   4.652   0.791   7.779  0.3851  0.7630 -0.6555
 4577TIP3   OH235289   3.541   3.492   8.566 -0.1773  0.4109 -0.0604
 4577TIP3    H135290   3.549   3.457   8.655 -1.8102 -0.6222 -0.2622
 4577TIP3    H235291   3.609   3.447   8.516 -0.2483 -0.1922  0.3663
 4578TIP3   OH235292   0.929   3.520   1.283  0.1332 -0.1651  0.3683
 4578TIP3    H135293   0.988   3.529   1.208  1.1161 -1.0737  1.0057
 4578TIP3    H235294   0.906   3.427   1.284 -0.4262 -0.0243  0.7844
 4579TIP3   OH235295   1.299   4.818   1.400  0.1426 -0.0761  0.0425
 4579TIP3    H135296   1.365   4.887   1.402 -0.3545  0.3985  1.1321
 4579TIP3    H235297   1.223   4.859   1.359  0.7535 -0.8759 -2.0130
 4580TIP3   OH235298   2.130   3.024   2.377 -0.8338  0.1539 -0.7875
 4580TIP3    H135299   2.196   2.954   2.375 -1.2516 -0.2374 -1.1946
 4580TIP3    H235300   2.047   2.978   2.366 -1.1844  0.6407 -0.2262
 4581TIP3   OH235301   1.535   3.976   0.126  0.3964  0.1633 -0.1858
 4581TIP3    H135302   1.471   3.976   0.055 -0.1783  2.1050  0.2580
 4581TIP3    H235303   1.579   3.892   0.119 -1.6483 -0.9136 -1.0276
 4582TIP3   OH235304   2.598   2.850   8.149  0.2800  0.3417  0.8959
 4582TIP3    H135305   2.669   2.796   8.183  1.7290  1.7562  0.2588
 4582TIP3    H235306   2.570   2.904   8.223  1.7076  1.6229  0.5691
 4583TIP3   OH235307   2.304   1.555   0.847  0.1749  0.1005 -0.0909
 4583TIP3    H135308   2.309   1.548   0.943 -0.4459  0.4128 -0.0296
 4583TIP3    H235309   2.348   1.477   0.815  1.1567  0.4239  0.4368
 4584TIP3   OH235310   1.051   3.689   0.850  0.4556  0.2504  0.2584
 4584TIP3    H135311   1.143   3.713   0.842  0.8709 -1.4879 -0.6199
 4584TIP3    H235312   1.016   3.698   0.762 -0.0147  0.0708  0.4227
 4585TIP3   OH235313   5.024   1.550   1.653 -0.6553  0.5536 -0.2252
 4585TIP3    H135314   4.991   1.639   1.666 -1.3192  0.0910  1.4771
 4585TIP3    H235315   5.087   1.537   1.724  0.7286  0.2205 -1.4493
 4586TIP3   OH235316   3.917   3.878   1.339 -0.0156  0.0760 -0.2671
 4586TIP3    H135317   3.862   3.805   1.367 -2.1079  1.7595  0.2445
 4586TIP3    H235318   3.981   3.838   1.281  0.1812 -2.4676  1.5129
 4587TIP3   OH235319   6.801   4.598   8.028 -0.0996  0.3844 -0.2134
 4587TIP3    H135320   6.728   4.562   8.078 -0.3039 -0.6073 -1.1971
 4587TIP3    H235321   6.764   4.674   7.982  0.6055  2.7094  2.7630
 4588TIP3   OH235322   6.608   0.260   1.094  0.5416 -0.0133 -0.0242
 4588TIP3    H135323   6.614   0.174   1.053  3.4112 -0.1126  0.4031
 4588TIP3    H235324   6.517   0.266   1.125  0.0863 -2.5760 -0.6552
 4589TIP3   OH235325   0.678   3.483   7.566  0.7425  0.2332 -0.0662
 4589TIP3    H135326   0.605   3.522   7.614  0.2967  0.4632 -0.9073
 4589TIP3    H235327   0.690   3.540   7.490  0.5693 -0.8172 -0.9188
 4590TIP3   OH235328   2.911   0.859   1.038  0.4393 -0.4058  0.3646
 4590TIP3    H135329   2.909   0.827   1.128 -0.6920 -3.2629 -0.5931
 4590TIP3    H235330   2.820   0.874   1.015  0.8184  2.8791  0.4042
 4591TIP3   OH235331   5.356   4.001   2.080 -0.3300 -0.7697  0.3457
 4591TIP3    H135332   5.313   4.041   2.004 -1.1411 -1.6880  0.3073
 4591TIP3    H235333   5.325   4.052   2.154  0.4480  0.1187  0.0873
 4592TIP3   OH235334   0.685   5.605   8.454 -0.3224  0.0961  0.2790
 4592TIP3    H135335   0.614   5.649   8.407 -0.0540  1.0503  0.7238
 4592TIP3    H235336   0.661   5.513   8.453 -0.7618  0.2060 -0.9447
 4593TIP3   OH235337   4.526   2.140   0.018 -0.7836 -0.0001  0.0534
 4593TIP3    H135338   4.527   2.136  -0.078 -0.0574 -0.4745  0.0772
 4593TIP3    H235339   4.435   2.162   0.040 -1.0306 -0.2101 -0.7324
 4594TIP3   OH235340   0.471   5.161   2.985  0.0878 -0.0757  0.3126
 4594TIP3    H135341   0.490   5.166   2.892  1.9753 -1.8580  0.5202
 4594TIP3    H235342   0.458   5.251   3.012 -1.3357  0.4221 -1.7999
 4595TIP3   OH235343   3.167   6.003   8.401  1.1904 -0.0707  0.2483
 4595TIP3    H135344   3.085   5.959   8.424  1.2341 -1.2114 -1.6213
 4595TIP3    H235345   3.235   5.949   8.443  1.1183 -0.5712 -0.2678
 4596TIP3   OH235346   0.441   1.323   0.357  0.3723  0.0190  0.1170
 4596TIP3    H135347   0.533   1.333   0.334  0.5374  0.5201  0.9545
 4596TIP3    H235348   0.434   1.234   0.392  0.6942  0.2318  0.7337
 4597TIP3   OH235349   6.242   4.579   0.161  0.2851  0.4825 -0.6207
 4597TIP3    H135350   6.334   4.557   0.176  0.3708 -1.1655 -3.0369
 4597TIP3    H235351   6.195   4.540   0.234  1.0864 -2.7622 -1.6926
 4598TIP3   OH235352   3.931   2.160   7.683  0.5024 -0.2691 -0.0430
 4598TIP3    H135353   3.876   2.093   7.644  0.4646 -0.8605  1.0039
 4598TIP3    H235354   4.021   2.127   7.673  0.5578 -0.0345 -0.3512
 4599TIP3   OH235355   4.732   6.351   8.192 -0.2899 -0.1222  0.0033
 4599TIP3    H135356   4.734   6.411   8.267 -1.7885 -1.6227  1.3422
 4599TIP3    H235357   4.685   6.399   8.124  0.3890  0.9720  0.2884
 4600TIP3   OH235358   1.814   6.363   7.408 -0.5940 -0.0864 -0.5040
 4600TIP3    H135359   1.814   6.280   7.455 -1.7894  0.0939 -0.1551
 4600TIP3    H235360   1.879   6.417   7.454  1.5324 -1.3886 -1.8307
 4601TIP3   OH235361   1.362   6.345   0.603 -0.1587  0.2304 -0.5389
 4601TIP3    H135362   1.322   6.282   0.544 -2.1664  0.5221  0.4317
 4601TIP3    H235363   1.320   6.429   0.582 -0.9659  0.3329  1.2827
 4602TIP3   OH235364   0.482   0.702   6.756 -0.2306 -0.2026 -0.9208
 4602TIP3    H135365   0.448   0.774   6.702  1.0755 -0.9084 -2.8004
 4602TIP3    H235366   0.528   0.746   6.828 -1.5308  0.7901 -0.6683
 4603TIP3   OH235367   4.011   6.110   1.804  0.0125 -0.1055  0.1500
 4603TIP3    H135368   3.920   6.080   1.800 -0.0887  0.1874  0.2178
 4603TIP3    H235369   4.018   6.155   1.889 -0.1617  1.0955 -0.4605
 4604TIP3   OH235370   6.822   4.789   0.471  0.1008 -0.2216  0.1455
 4604TIP3    H135371   6.875   4.766   0.395  2.1388  0.5877  1.2258
 4604TIP3    H235372   6.832   4.884   0.479  2.1186 -0.5321  2.8288
 4605TIP3   OH235373   5.961   1.570   1.389 -0.0659  0.2908 -0.0078
 4605TIP3    H135374   5.955   1.474   1.383  0.4033  0.2051  0.6931
 4605TIP3    H235375   5.953   1.600   1.299  0.2999 -0.4479 -0.3016
 4606TIP3   OH235376   0.606   6.135   2.017 -0.3998 -0.6033 -0.0996
 4606TIP3    H135377   0.580   6.162   1.929  0.5550  0.6386 -0.0141
 4606TIP3    H235378   0.523   6.124   2.063 -0.8767 -0.0537 -0.7984
 4607TIP3   OH235379   3.331   1.936   7.504 -0.3818 -0.2918  0.1095
 4607TIP3    H135380   3.303   1.924   7.594 -0.7684  1.0067  0.1807
 4607TIP3    H235381   3.335   1.847   7.468 -1.8216 -0.7248  0.9336
 4608TIP3   OH235382   0.310   5.393   7.273 -0.1428  0.1131  0.2186
 4608TIP3    H135383   0.315   5.481   7.311  0.0839  0.4393 -0.5528
 4608TIP3    H235384   0.392   5.383   7.225 -1.5415  0.8521 -2.5851
 4609TIP3   OH235385   3.539   4.622   8.623 -0.0485 -1.0481  0.2337
 4609TIP3    H135386   3.527   4.612   8.717  0.3944 -1.5187  0.2482
 4609TIP3    H235387   3.454   4.602   8.585 -0.4401 -0.0814  0.5744
 4610TIP3   OH235388   0.329   2.297   1.859  0.2904 -0.2923  0.1392
 4610TIP3    H135389   0.308   2.390   1.850 -0.1226 -0.3920  0.0547
 4610TIP3    H235390   0.329   2.263   1.770  1.1707 -0.2211  0.1073
 4611TIP3   OH235391   1.680   0.166   2.418  0.0529 -0.5517 -0.9823
 4611TIP3    H135392   1.717   0.141   2.333  2.2765 -2.9969  0.5422
 4611TIP3    H235393   1.741   0.130   2.482 -0.4350  2.9090  1.7238
 4612TIP3   OH235394   5.100   0.422   1.310  0.2619 -0.0513 -0.0236
 4612TIP3    H135395   5.028   0.483   1.322 -1.6021 -1.9543 -0.9516
 4612TIP3    H235396   5.171   0.476   1.273 -0.7941  1.7882  0.5013
 4613TIP3   OH235397   2.496   3.215   1.219  0.1236  0.0439 -0.3863
 4613TIP3    H135398   2.537   3.201   1.134 -0.3897 -2.2512 -0.3092
 4613TIP3    H235399   2.544   3.159   1.279 -1.3162 -0.5373  0.2632
 4614TIP3   OH235400   3.602   1.799   6.554  0.3073  0.1794  0.6622
 4614TIP3    H135401   3.514   1.801   6.592  0.4625 -1.9151  1.2974
 4614TIP3    H235402   3.588   1.802   6.460 -0.6643 -2.4850  0.6446
 4615TIP3   OH235403   1.401   0.705   7.738 -0.0098  0.3611 -0.2735
 4615TIP3    H135404   1.468   0.719   7.671  0.4946  0.2587  0.2044
 4615TIP3    H235405   1.449   0.703   7.820 -0.4755 -0.7278 -0.0103
 4616TIP3   OH235406   3.134   0.733   1.272  0.3269  0.3532  0.3056
 4616TIP3    H135407   3.046   0.697   1.275 -0.5279  2.2932 -0.3274
 4616TIP3    H235408   3.155   0.754   1.363 -0.6535  1.6280  0.2663
 4617TIP3   OH235409   1.219   1.043   2.034  0.3488 -0.0806 -0.5788
 4617TIP3    H135410   1.142   1.013   1.985  1.4254 -0.0584 -2.3676
 4617TIP3    H235411   1.234   0.973   2.098 -0.7176 -0.4389 -0.6917
 4618TIP3   OH235412   1.445   2.035   0.312 -0.3515  0.4535  0.1554
 4618TIP3    H135413   1.535   2.021   0.285 -0.4724 -0.1326  0.0443
 4618TIP3    H235414   1.442   2.005   0.403  0.3013  3.3564  1.2390
 4619TIP3   OH235415   6.473   3.271   8.036 -0.5329 -0.7849 -0.2933
 4619TIP3    H135416   6.449   3.212   8.107  2.0607 -0.6413  0.8236
 4619TIP3    H235417   6.559   3.306   8.061 -0.7295  1.3753 -2.2241
 4620TIP3   OH235418   3.752   5.682   6.923  0.3797 -0.1519  0.5924
 4620TIP3    H135419   3.821   5.735   6.883 -0.3591 -1.2635 -2.3648
 4620TIP3    H235420   3.673   5.703   6.873 -0.8376 -1.0217  2.0584
 4621TIP3   OH235421   0.113   5.207   0.325 -0.2105 -0.2960 -0.2537
 4621TIP3    H135422   0.185   5.177   0.270  1.1873  3.3677 -0.6920
 4621TIP3    H235423   0.145   5.288   0.366 -3.5878  0.7965  0.6347
 4622TIP3   OH235424   3.153   2.505   0.046 -0.1707 -0.2095  0.1933
 4622TIP3    H135425   3.074   2.535   0.091  0.7479  0.8561  1.1282
 4622TIP3    H235426   3.143   2.538  -0.043  0.4132  2.2772  0.9705
 4623TIP3   OH235427   2.806   4.710   7.360 -0.5115 -0.2743 -0.3482
 4623TIP3    H135428   2.840   4.674   7.278  0.8902  1.9876 -0.8341
 4623TIP3    H235429   2.745   4.644   7.391 -0.8288 -1.3739 -3.0369
 4624TIP3   OH235430   4.427   4.071   8.514  0.1787 -0.3160 -0.0601
 4624TIP3    H135431   4.493   4.026   8.566  0.4979 -0.4880 -0.6137
 4624TIP3    H235432   4.423   4.159   8.552  0.4397 -0.4271  0.2295
 4625TIP3   OH235433   5.875   2.619   0.828 -0.4934  0.1396  0.0171
 4625TIP3    H135434   5.790   2.582   0.804 -0.5926 -1.8308  2.8893
 4625TIP3    H235435   5.855   2.692   0.886 -0.1986  1.3169 -1.3095
 4626TIP3   OH235436   2.837   2.210   7.528 -0.1630  0.7052  0.0817
 4626TIP3    H135437   2.913   2.152   7.527  0.2698  1.2720 -0.1399
 4626TIP3    H235438   2.819   2.227   7.436  0.7852  2.3065  0.1575
 4627TIP3   OH235439   5.483   3.036   1.965 -0.4616  1.1163 -0.1917
 4627TIP3    H135440   5.482   2.992   2.050  0.5718  1.2071 -0.1179
 4627TIP3    H235441   5.502   2.966   1.902  2.5799  1.5789  0.0614
 4628TIP3   OH235442   1.177   0.764   8.471  1.0373  0.8205 -0.1220
 4628TIP3    H135443   1.113   0.736   8.406  1.7412  0.7982 -0.8228
 4628TIP3    H235444   1.160   0.857   8.484 -0.0257  0.5307  0.7390
 4629TIP3   OH235445   5.837   5.852   1.672  0.1530 -0.1028  0.5338
 4629TIP3    H135446   5.801   5.941   1.667 -1.4956 -0.7194  0.9437
 4629TIP3    H235447   5.894   5.854   1.749 -0.0097  0.5457  0.6457
 4630TIP3   OH235448   0.613   1.478   1.644 -0.1354  0.3769 -0.0007
 4630TIP3    H135449   0.672   1.550   1.622 -0.3765  1.0197  1.3576
 4630TIP3    H235450   0.554   1.472   1.569  1.7055 -0.3865 -1.4701
 4631TIP3   OH235451   2.827   0.169   7.389 -0.2652  0.1142 -0.2905
 4631TIP3    H135452   2.813   0.104   7.321 -2.6814 -1.1028  1.2135
 4631TIP3    H235453   2.836   0.252   7.342 -0.0758 -0.9033 -2.1220
 4632TIP3   OH235454   5.063   1.307   1.008 -0.1546  0.3346 -0.0355
 4632TIP3    H135455   5.119   1.230   1.002 -1.4049 -0.5332 -1.3473
 4632TIP3    H235456   5.039   1.313   1.100  2.1286  0.8074  0.5837
 4633TIP3   OH235457   1.093   3.136   8.001  0.5989 -0.3554  0.3413
 4633TIP3    H135458   1.143   3.069   7.956  1.1048  0.5252 -0.4297
 4633TIP3    H235459   1.027   3.164   7.938 -1.4520 -2.0151  1.5682
 4634TIP3   OH235460   4.482   2.741   6.815 -0.0755 -0.3869  0.2601
 4634TIP3    H135461   4.520   2.827   6.834 -3.4291  1.4965 -0.8246
 4634TIP3    H235462   4.535   2.708   6.743  1.2029  0.7842  0.6020
 4635TIP3   OH235463   6.685   6.765   7.895  0.6599  0.0159 -0.3706
 4635TIP3    H135464   6.616   6.775   7.831 -0.7466 -1.1915  0.8741
 4635TIP3    H235465   6.735   6.689   7.865  0.3432 -0.2049 -0.3434
 4636TIP3   OH235466   5.016   4.524   2.576 -0.6506  0.1960 -0.2540
 4636TIP3    H135467   4.928   4.551   2.602 -1.3206 -0.5099 -1.6852
 4636TIP3    H235468   5.072   4.595   2.607 -1.5729  0.1888  1.5527
 4637TIP3   OH235469   4.153   3.268   7.910 -0.0390  0.6561 -0.3262
 4637TIP3    H135470   4.147   3.335   7.843  0.7065 -0.5337 -1.6250
 4637TIP3    H235471   4.217   3.205   7.877 -0.1424 -0.3180  1.1906
 4638TIP3   OH235472   1.971   4.671   7.519 -0.3325  0.5688 -0.1630
 4638TIP3    H135473   1.967   4.766   7.507 -0.4631  0.4512 -1.0967
 4638TIP3    H235474   1.892   4.637   7.478 -0.1363  0.0243 -0.1112
 4639TIP3   OH235475   4.283   5.489   6.645  0.0279 -0.0902 -0.6328
 4639TIP3    H135476   4.232   5.429   6.590  1.6918 -1.3569 -0.8861
 4639TIP3    H235477   4.238   5.573   6.637 -2.1496 -1.1855 -0.6015
 4640TIP3   OH235478   5.756   3.228   8.583  0.1640  0.3202  0.6149
 4640TIP3    H135479   5.709   3.310   8.570  0.8240  0.5704 -0.2009
 4640TIP3    H235480   5.696   3.174   8.635 -0.5916  1.0189  0.4728
 4641TIP3   OH235481   2.065   3.143   8.216  0.3680  0.3634 -0.7349
 4641TIP3    H135482   2.146   3.171   8.172 -0.7122  2.0710 -1.7532
 4641TIP3    H235483   2.005   3.216   8.204 -0.1633  0.8338  3.2945
 4642TIP3   OH235484   6.565   4.447   8.092 -0.3842 -0.6471  0.0972
 4642TIP3    H135485   6.577   4.352   8.082 -1.6853 -0.7796 -0.4196
 4642TIP3    H235486   6.517   4.456   8.174  1.6372 -0.2365  1.3230
 4643TIP3   OH235487   6.190   4.509   1.669  0.3581  0.6143 -0.5179
 4643TIP3    H135488   6.263   4.511   1.730 -0.4192  0.4889  0.4298
 4643TIP3    H235489   6.171   4.416   1.656 -1.4033  0.6316  1.4358
 4644TIP3   OH235490   5.181   6.402   1.071  0.0815 -0.3229 -0.5465
 4644TIP3    H135491   5.130   6.331   1.110 -1.6351  1.5038  0.7221
 4644TIP3    H235492   5.272   6.381   1.094 -0.4112 -1.9211  0.0838
 4645TIP3   OH235493   6.281   6.324   7.166 -0.1875  0.7425 -0.2837
 4645TIP3    H135494   6.211   6.278   7.121 -1.3151  2.3169 -0.2413
 4645TIP3    H235495   6.236   6.395   7.213  1.2305  0.6812  1.2496
 4646TIP3   OH235496   1.756   1.388   1.381  0.1489 -0.4222  0.0438
 4646TIP3    H135497   1.748   1.483   1.368  0.7109 -0.5136 -1.0892
 4646TIP3    H235498   1.671   1.362   1.416 -0.8982  0.1649 -1.9003
 4647TIP3   OH235499   5.315   1.296   6.970  0.1688 -0.0105 -0.3779
 4647TIP3    H135500   5.409   1.285   6.983  0.3420  0.5204 -1.0835
 4647TIP3    H235501   5.285   1.212   6.936  0.3057 -0.3228  0.2666
 4648TIP3   OH235502   6.513   0.822   0.061 -0.2661 -0.0951  0.2425
 4648TIP3    H135503   6.522   0.907   0.019 -2.1926  0.7234  1.3394
 4648TIP3    H235504   6.602   0.787   0.064  0.5088  1.6691 -0.6557
 4649TIP3   OH235505   1.009   1.402   0.710  0.0231  0.1212  0.7876
 4649TIP3    H135506   0.930   1.423   0.661  1.3440  5.0499  0.2815
 4649TIP3    H235507   1.016   1.470   0.777  4.4702  0.8856 -0.1366
 4650TIP3   OH235508   5.710   4.850   0.004  0.4751  0.1401 -0.1791
 4650TIP3    H135509   5.653   4.870  -0.071 -2.6680  1.0086  2.2043
 4650TIP3    H235510   5.772   4.786  -0.029 -3.0255 -2.3684 -2.6933
 4651TIP3   OH235511   2.783   1.291   6.842 -0.2043 -0.1496 -0.3973
 4651TIP3    H135512   2.856   1.277   6.782 -0.2867  0.3881 -0.6309
 4651TIP3    H235513   2.708   1.248   6.799 -0.8649  2.3573 -1.9724
 4652TIP3   OH235514   5.719   6.301   7.154 -0.3817 -0.6101  0.3369
 4652TIP3    H135515   5.744   6.391   7.178 -0.5995 -0.5667  0.4065
 4652TIP3    H235516   5.778   6.246   7.204 -0.8153 -0.5197  0.9715
 4653TIP3   OH235517   4.609   0.700   1.625 -0.7794  0.7255  0.1989
 4653TIP3    H135518   4.677   0.635   1.611 -2.2263 -1.0115  0.7152
 4653TIP3    H235519   4.607   0.752   1.545  3.0347  2.8093  1.2288
 4654TIP3   OH235520   0.280   4.446   0.686 -0.4151  0.0603  0.9333
 4654TIP3    H135521   0.222   4.504   0.636  0.5184 -0.4471 -0.8376
 4654TIP3    H235522   0.341   4.505   0.730 -0.5224  0.5038  0.4999
 4655TIP3   OH235523   6.830   6.177   7.416 -0.4760 -0.1682 -0.5740
 4655TIP3    H135524   6.744   6.218   7.422 -0.5294 -0.0094 -2.0612
 4655TIP3    H235525   6.890   6.248   7.392 -0.1574 -0.5056 -0.7998
 4656TIP3   OH235526   1.059   0.526   2.518  0.1827 -0.3800  0.2232
 4656TIP3    H135527   0.998   0.542   2.445 -0.5601 -0.9747  0.7015
 4656TIP3    H235528   1.060   0.431   2.528  2.4140 -0.5238 -0.7846
 4657TIP3   OH235529   0.824   4.082   8.593 -0.4442 -0.1804 -0.2779
 4657TIP3    H135530   0.769   4.156   8.568 -1.4175 -2.0559 -4.7555
 4657TIP3    H235531   0.907   4.098   8.549 -0.2763 -1.2169 -0.3539
 4658TIP3   OH235532   4.185   4.187   1.979 -0.2289  0.0977  0.4464
 4658TIP3    H135533   4.241   4.231   2.042 -0.7249 -0.0898  1.0255
 4658TIP3    H235534   4.153   4.257   1.922  0.5191  0.2145  0.1573
 4659TIP3   OH235535   5.623   6.144   1.249 -0.1096 -0.2387  0.4763
 4659TIP3    H135536   5.531   6.127   1.270 -0.7642  1.9327 -0.3609
 4659TIP3    H235537   5.639   6.092   1.171 -0.8728 -0.0381  0.1707
 4660TIP3   OH235538   0.040   1.670   6.581  0.2661  0.0187  0.5656
 4660TIP3    H135539   0.006   1.753   6.548 -1.1221 -0.0179  1.7875
 4660TIP3    H235540   0.047   1.614   6.503  0.9162  1.1515 -0.2234
 4661TIP3   OH235541   1.914   3.398   7.264  0.5544 -0.0337 -0.2534
 4661TIP3    H135542   1.989   3.340   7.276  0.2109 -0.3937  0.1366
 4661TIP3    H235543   1.844   3.342   7.232 -0.3101 -0.1838  1.8099
 4662TIP3   OH235544   4.703   1.486   0.253  0.5218 -0.2880 -0.2898
 4662TIP3    H135545   4.704   1.469   0.347 -1.8646 -1.5217 -0.4041
 4662TIP3    H235546   4.690   1.400   0.213 -1.5811  0.5266 -1.5406
 4663TIP3   OH235547   5.168   2.305   1.369  0.0767  0.0233  0.4994
 4663TIP3    H135548   5.120   2.338   1.445 -3.1023 -1.1643 -0.8106
 4663TIP3    H235549   5.174   2.380   1.310 -0.3321  0.1632  0.6298
 4664TIP3   OH235550   5.973   3.187   1.679  0.1096 -0.0329 -0.5160
 4664TIP3    H135551   5.970   3.240   1.600 -1.2596  0.0518 -0.4321
 4664TIP3    H235552   6.004   3.102   1.649 -0.3398  0.0130 -1.1407
 4665TIP3   OH235553   6.610   0.600   1.738  0.1324  0.3345  0.0033
 4665TIP3    H135554   6.532   0.609   1.683 -0.3112 -2.0538  0.1200
 4665TIP3    H235555   6.586   0.642   1.821 -1.1400 -0.5379  0.1034
 4666TIP3   OH235556   6.776   6.073   1.550 -0.4360  0.2667 -0.2927
 4666TIP3    H135557   6.711   6.005   1.564  1.8044 -1.9285  0.1608
 4666TIP3    H235558   6.800   6.103   1.637  0.9805 -0.8426 -0.2628
 4667TIP3   OH235559   1.160   1.989   1.290 -0.7846 -0.1798  0.2292
 4667TIP3    H135560   1.189   1.898   1.290 -1.9353 -0.5718  0.8473
 4667TIP3    H235561   1.113   1.999   1.208 -0.4979 -0.0869  0.0759
 4668TIP3   OH235562   0.417   6.213   7.402  0.2814 -0.0116 -0.0836
 4668TIP3    H135563   0.461   6.201   7.486  2.7241 -0.1287 -1.2892
 4668TIP3    H235564   0.358   6.287   7.415 -1.0687 -1.3938  2.2912
 4669TIP3   OH235565   2.376   1.099   6.690  0.0526  0.2394  0.3015
 4669TIP3    H135566   2.291   1.064   6.661 -0.5968  1.9464  0.0462
 4669TIP3    H235567   2.360   1.131   6.778 -0.0534  2.0918 -0.3548
 4670TIP3   OH235568   1.812   3.809   6.180 -0.2105  0.1797 -0.2134
 4670TIP3    H135569   1.770   3.887   6.143  0.6097 -0.8901 -3.7901
 4670TIP3    H235570   1.902   3.837   6.196 -0.3420  0.3990  0.1721
 4671TIP3   OH235571   3.464   1.601   1.963 -0.2521  0.5845 -0.8192
 4671TIP3    H135572   3.403   1.542   2.006  1.1420 -0.7585 -0.5894
 4671TIP3    H235573   3.497   1.551   1.888 -0.5170  1.8281 -1.7914
 4672TIP3   OH235574   1.736   6.026   1.579 -0.0105  0.2081 -0.1301
 4672TIP3    H135575   1.817   6.075   1.592  0.9202 -1.4358  0.6048
 4672TIP3    H235576   1.716   5.989   1.665 -1.7480  0.8206 -0.2156
 4673TIP3   OH235577   2.578   5.547   8.532  0.5425 -0.1932  0.0902
 4673TIP3    H135578   2.672   5.560   8.550  0.5890  0.1181 -0.3549
 4673TIP3    H235579   2.553   5.625   8.483 -0.1653  0.1576  0.9746
 4674TIP3   OH235580   2.504   2.008   6.612 -0.0148  0.3279  0.4694
 4674TIP3    H135581   2.443   1.983   6.543  1.1267 -0.1953 -0.3970
 4674TIP3    H235582   2.571   2.059   6.567  0.5042  0.3723  1.2760
 4675TIP3   OH235583   6.752   0.004   6.367  0.5657 -0.1809 -0.9447
 4675TIP3    H135584   6.737  -0.015   6.274  0.7681  0.8878 -1.2109
 4675TIP3    H235585   6.810   0.080   6.367  1.2585 -0.6832  0.0650
 4676TIP3   OH235586   1.980   1.043   6.332 -0.1680 -0.2656  0.1709
 4676TIP3    H135587   1.886   1.037   6.316  0.1113 -2.8707 -0.9400
 4676TIP3    H235588   2.015   1.088   6.256 -0.1871 -2.3413 -1.1372
 4677TIP3   OH235589   2.775   2.175   1.286  0.1065  0.4351  0.6025
 4677TIP3    H135590   2.809   2.156   1.373  0.0214  0.3978  0.6278
 4677TIP3    H235591   2.844   2.147   1.226  0.9022  2.0343  0.7048
 4678TIP3   OH235592   6.079   4.902   6.409  0.2184 -0.3469  0.2037
 4678TIP3    H135593   6.099   4.967   6.476  0.0498  0.3613 -0.4250
 4678TIP3    H235594   5.989   4.921   6.382  0.1592 -0.8531  0.0319
 4679TIP3   OH235595   3.040   3.408   0.681  0.6395 -0.1830 -0.4071
 4679TIP3    H135596   3.116   3.406   0.621 -0.6505 -1.8258 -2.0837
 4679TIP3    H235597   3.015   3.316   0.692 -0.3912  0.2433  1.1060
 4680TIP3   OH235598   0.169   2.447   2.417 -0.0102 -0.9698 -0.3509
 4680TIP3    H135599   0.153   2.466   2.325  0.5724  0.5828 -0.1520
 4680TIP3    H235600   0.252   2.491   2.437 -1.3715  0.9322  1.5403
 4681TIP3   OH235601   1.998   6.557   6.804  0.1708  0.0345 -0.0122
 4681TIP3    H135602   1.910   6.520   6.800  0.0121  0.5299 -1.5263
 4681TIP3    H235603   2.010   6.579   6.897 -2.6990  3.1791 -0.1823
 4682TIP3   OH235604   5.908   6.164   1.736 -0.1581 -0.8820 -0.1096
 4682TIP3    H135605   5.854   6.201   1.805  1.8581  2.9681 -0.3356
 4682TIP3    H235606   5.954   6.091   1.778 -0.2197  0.3065  2.1659
 4683TIP3   OH235607   1.151   2.916   1.839  0.2261 -0.0579  0.1312
 4683TIP3    H135608   1.090   2.927   1.767 -0.1098  1.8823  0.6480
 4683TIP3    H235609   1.101   2.938   1.917  0.7759 -1.4394  0.9175
 4684TIP3   OH235610   0.078   3.740   1.418  0.4560  0.1494 -0.0751
 4684TIP3    H135611   0.138   3.758   1.490 -1.0712  1.7792  0.8614
 4684TIP3    H235612   0.006   3.692   1.457  0.9473 -1.5586 -1.1408
 4685TIP3   OH235613   6.164   4.903   7.048 -0.6240 -0.5193 -0.0734
 4685TIP3    H135614   6.120   4.959   7.112 -1.4534  0.0145 -1.0884
 4685TIP3    H235615   6.101   4.834   7.028 -0.9022  0.0522 -1.2761
 4686TIP3   OH235616   3.126   6.784   8.293  0.0784  0.8127 -0.2104
 4686TIP3    H135617   3.180   6.805   8.369 -0.1187  1.3606 -0.2209
 4686TIP3    H235618   3.169   6.827   8.220 -0.7339  1.8170 -0.1126
 4687TIP3   OH235619   4.750   2.058   1.498 -0.5554 -0.2075  0.1911
 4687TIP3    H135620   4.745   2.058   1.594  2.3698 -1.5609  0.4437
 4687TIP3    H235621   4.727   1.968   1.473  1.0610 -0.5594 -0.1277
 4688TIP3   OH235622   0.876   5.847   7.446  0.4048 -0.4291 -0.2294
 4688TIP3    H135623   0.810   5.848   7.516  1.2183 -1.6298  0.5876
 4688TIP3    H235624   0.842   5.908   7.380 -0.4600  0.6064  1.1285
 4689TIP3   OH235625   4.008   0.832   7.805  0.4075 -0.4389 -0.1114
 4689TIP3    H135626   3.988   0.920   7.836 -3.2693 -1.3179  0.5263
 4689TIP3    H235627   4.054   0.845   7.722 -2.2991  2.2069 -1.3871
 4690TIP3   OH235628   0.822   1.410   6.895  0.8817  0.7649 -0.5214
 4690TIP3    H135629   0.913   1.424   6.923  0.6800  2.1047 -0.4799
 4690TIP3    H235630   0.828   1.402   6.799  1.0368  0.8759 -0.5215
 4691TIP3   OH235631   6.048   4.732   8.039 -0.4798 -0.2946  0.1646
 4691TIP3    H135632   6.103   4.777   8.104 -1.6984  0.9403  0.4088
 4691TIP3    H235633   5.981   4.797   8.017 -2.2350 -1.9498  0.3834
 4692TIP3   OH235634   1.053   5.974   7.881  0.1811  0.3814 -0.3463
 4692TIP3    H135635   1.061   5.912   7.954 -0.6272  0.6806  0.0138
 4692TIP3    H235636   0.962   6.003   7.885  0.9959  3.1876  0.8348
 4693TIP3   OH235637   6.527   3.695   1.028  0.6960 -0.4785 -0.3566
 4693TIP3    H135638   6.568   3.618   1.069 -0.6828 -0.9803  0.1278
 4693TIP3    H235639   6.449   3.711   1.081  0.3633  0.5678 -1.1528
 4694TIP3   OH235640   3.724   4.317   8.135  0.3100  0.0475 -0.1252
 4694TIP3    H135641   3.643   4.351   8.174 -0.6049 -0.4207 -1.5621
 4694TIP3    H235642   3.721   4.223   8.151  1.0660  0.1426  0.6595
 4695TIP3   OH235643   2.837   4.236   7.650 -0.2357  0.0624 -0.0170
 4695TIP3    H135644   2.843   4.237   7.554  2.4713 -0.8854  0.0842
 4695TIP3    H235645   2.809   4.147   7.671  0.3111 -0.0736  0.1251
 4696TIP3   OH235646   2.614   2.407   6.768  0.0516  0.0017  0.1680
 4696TIP3    H135647   2.587   2.447   6.685 -1.2757 -0.6899  0.2478
 4696TIP3    H235648   2.665   2.476   6.811  1.6183  0.0625 -1.5997
 4697TIP3   OH235649   2.707   1.293   0.008  0.2248  0.1071 -0.1244
 4697TIP3    H135650   2.690   1.366  -0.051 -1.3158  0.1005  0.2800
 4697TIP3    H235651   2.627   1.284   0.060  1.3637 -0.1563  1.6854
 4698TIP3   OH235652   5.759   1.413   7.237  0.0960 -0.4176  0.4232
 4698TIP3    H135653   5.834   1.462   7.205  0.2686 -2.2084 -2.2672
 4698TIP3    H235654   5.700   1.479   7.273  1.9189  1.2618  0.4482
 4699TIP3   OH235655   1.146   4.482   1.327 -0.5061 -0.1140 -0.3780
 4699TIP3    H135656   1.086   4.421   1.283  1.1322 -0.9282 -1.5554
 4699TIP3    H235657   1.171   4.437   1.407 -0.9773 -0.0361 -0.1829
 4700TIP3   OH235658   1.620   5.347   6.024  0.0153 -0.0345 -0.2584
 4700TIP3    H135659   1.647   5.420   6.080 -1.5243  1.6134 -1.5223
 4700TIP3    H235660   1.654   5.269   6.067  0.6326  1.3202  1.8539
 4701TIP3   OH235661   5.447   3.383   7.224  0.1009 -0.0847 -0.0234
 4701TIP3    H135662   5.423   3.462   7.176  0.1277 -1.5186 -2.6042
 4701TIP3    H235663   5.488   3.415   7.304 -1.1014  2.4757 -0.3374
 4702TIP3   OH235664   4.652   2.491   6.764 -0.2038  0.2984  0.0998
 4702TIP3    H135665   4.708   2.415   6.750  0.5336  1.2323 -2.5102
 4702TIP3    H235666   4.712   2.563   6.782 -0.8310  0.5624  1.2724
 4703TIP3   OH235667   4.336   6.761   8.625 -0.4108 -0.0685  0.2353
 4703TIP3    H135668   4.287   6.693   8.671 -1.4062 -1.1871 -2.3168
 4703TIP3    H235669   4.426   6.728   8.622  0.1552  0.9403  2.9407
 4704TIP3   OH235670   4.082   0.392   6.975 -0.5073 -0.1094  0.0351
 4704TIP3    H135671   4.101   0.302   6.949 -0.1271  0.3717 -1.4444
 4704TIP3    H235672   4.148   0.412   7.042  0.2245 -0.5179 -0.5469
 4705TIP3   OH235673   6.225   6.123   6.067 -0.1344 -0.2555  0.4218
 4705TIP3    H135674   6.236   6.214   6.039  0.5487 -0.3606  0.3237
 4705TIP3    H235675   6.312   6.084   6.055 -0.4401 -0.9404  0.3875
 4706TIP3   OH235676   4.976   0.171   1.324 -0.4494  0.7719 -0.5305
 4706TIP3    H135677   5.049   0.232   1.335 -0.3442  0.7198 -0.9376
 4706TIP3    H235678   5.013   0.085   1.342 -0.9692  0.9553  1.7049
 4707TIP3   OH235679   3.767   0.628   7.824  0.0342  0.1090 -0.1783
 4707TIP3    H135680   3.756   0.536   7.799 -1.4865  0.1757  0.1189
 4707TIP3    H235681   3.797   0.624   7.915  1.1340 -0.0919 -0.5400
 4708TIP3   OH235682   0.363   3.189   7.701 -0.0601 -0.0445 -0.8612
 4708TIP3    H135683   0.455   3.160   7.706 -1.3637 -4.7622  2.0231
 4708TIP3    H235684   0.348   3.235   7.783 -0.2302  1.0878 -1.5155
 4709TIP3   OH235685   5.872   6.794   6.578  0.7284  0.2369 -0.2778
 4709TIP3    H135686   5.784   6.780   6.542 -0.5707  0.8202  2.3978
 4709TIP3    H235687   5.928   6.806   6.501 -1.3993 -0.7251 -2.0983
 4710TIP3   OH235688   6.127   5.661   6.873 -0.1867 -0.3823 -0.6667
 4710TIP3    H135689   6.058   5.726   6.888  1.3174  0.8778  1.2544
 4710TIP3    H235690   6.192   5.707   6.820  1.4944  0.2416  1.7673
 4711TIP3   OH235691   4.307   5.423   8.095 -0.4261  0.2811  0.6338
 4711TIP3    H135692   4.372   5.353   8.093  0.6489  1.2385 -1.0152
 4711TIP3    H235693   4.238   5.393   8.034 -1.1693 -0.3727  1.7631
 4712TIP3   OH235694   0.140   0.529   1.263  0.3332  0.0774 -0.3628
 4712TIP3    H135695   0.201   0.510   1.335  0.3391 -0.9208 -0.6083
 4712TIP3    H235696   0.194   0.525   1.184  0.4830  1.9331 -0.3995
 4713TIP3   OH235697   4.923   1.789   7.945 -0.0150  0.1535  0.3938
 4713TIP3    H135698   4.900   1.766   7.855  0.8513 -1.2396  0.5004
 4713TIP3    H235699   4.942   1.883   7.942 -2.0727  0.5952 -0.4170
 4714TIP3   OH235700   4.216   3.266   1.258 -0.3516  0.0497 -0.2610
 4714TIP3    H135701   4.237   3.248   1.166  0.2357  1.7186 -0.4871
 4714TIP3    H235702   4.295   3.243   1.306 -0.8362 -1.3221 -0.0806
 4715TIP3   OH235703   1.998   2.504   1.016  0.5845  0.2825 -0.2056
 4715TIP3    H135704   2.009   2.599   1.011 -1.3067  0.9371  4.1182
 4715TIP3    H235705   1.914   2.488   0.973 -0.8477  1.2002  2.0884
 4716TIP3   OH235706   6.611   1.982   0.413 -0.3030 -0.2410  0.0646
 4716TIP3    H135707   6.640   2.019   0.330  1.0684 -0.1005  0.5822
 4716TIP3    H235708   6.644   1.892   0.412 -1.9206 -0.8691 -0.3332
 4717TIP3   OH235709   5.684   3.618   7.671 -0.4075  0.1480  0.2853
 4717TIP3    H135710   5.722   3.665   7.745  2.3072  3.4235 -2.8633
 4717TIP3    H235711   5.602   3.664   7.652  0.3614  1.2827 -0.4384
 4718TIP3   OH235712   4.424   1.543   8.315 -0.1670 -0.6474  0.0457
 4718TIP3    H135713   4.467   1.473   8.267  1.8164  0.2486  0.4008
 4718TIP3    H235714   4.429   1.619   8.256 -0.6345 -0.3363  0.3949
 4719TIP3   OH235715   6.258   0.313   0.927  0.6369 -0.6481 -0.1524
 4719TIP3    H135716   6.223   0.241   0.875 -1.0341 -0.3884  0.5718
 4719TIP3    H235717   6.330   0.274   0.977  1.2378 -1.2565 -1.4575
 4720TIP3   OH235718   1.101   5.088   7.468 -0.0809 -0.4159  0.1335
 4720TIP3    H135719   1.085   5.177   7.502 -0.8331 -0.1538 -0.8705
 4720TIP3    H235720   1.196   5.085   7.454 -0.0112  0.1365  0.4269
 4721TIP3   OH235721   0.277   4.405   0.099  0.1596  0.1993  0.0818
 4721TIP3    H135722   0.333   4.401   0.022  0.8840 -0.8605  0.6447
 4721TIP3    H235723   0.334   4.437   0.169  0.1733 -1.1987  0.7333
 4722TIP3   OH235724   4.213   5.442   1.193  0.0832  0.3088  0.3953
 4722TIP3    H135725   4.227   5.433   1.287 -1.9317  0.1478  0.7420
 4722TIP3    H235726   4.216   5.537   1.177  1.3902  0.2893  0.4123
 4723TIP3   OH235727   4.558   4.969   2.663  0.2734  0.7571  0.1104
 4723TIP3    H135728   4.497   4.914   2.712  2.0477 -0.0430  1.5496
 4723TIP3    H235729   4.502   5.025   2.610 -1.6551 -1.1294  0.0179
 4724TIP3   OH235730   4.899   1.808   0.750  0.6045 -0.4575 -0.2524
 4724TIP3    H135731   4.895   1.801   0.655 -2.5818 -1.0366 -0.1790
 4724TIP3    H235732   4.951   1.733   0.777 -1.6148 -2.5335 -1.4236
 4725TIP3   OH235733   0.368   6.864   0.839 -0.1836  0.1730 -0.6419
 4725TIP3    H135734   0.355   6.769   0.837 -2.2282  0.3889  0.3782
 4725TIP3    H235735   0.332   6.892   0.923  0.5396  1.8535 -0.8460
 4726TIP3   OH235736   4.812   3.904   6.861  0.4058  0.0576  0.0091
 4726TIP3    H135737   4.807   3.869   6.773  0.8760  2.1319 -0.9077
 4726TIP3    H235738   4.774   3.836   6.917  1.3633 -1.8800 -1.5906
 4727TIP3   OH235739   4.477   2.549   1.454 -0.7290 -0.2607  0.6307
 4727TIP3    H135740   4.422   2.472   1.468 -2.2620  0.4143 -1.2870
 4727TIP3    H235741   4.492   2.552   1.360  1.4146  0.4323  0.9391
 4728TIP3   OH235742   6.745   1.099   2.415  0.3520 -0.6951  0.4255
 4728TIP3    H135743   6.786   1.042   2.480  0.4176  0.2197  1.2112
 4728TIP3    H235744   6.674   1.142   2.463  0.9495  0.6501  0.1476
 4729TIP3   OH235745   6.111   0.918   1.315 -0.3291  0.1631 -0.3879
 4729TIP3    H135746   6.066   0.996   1.282  0.0984  0.8961  0.6943
 4729TIP3    H235747   6.200   0.925   1.281  0.4149  1.4599  1.6137
 4730TIP3   OH235748   1.330   0.340   0.927 -0.5635 -0.4585  0.1475
 4730TIP3    H135749   1.402   0.316   0.984  0.1792  1.7125  0.2233
 4730TIP3    H235750   1.262   0.373   0.986 -0.3891  0.3601 -0.0881
 4731TIP3   OH235751   1.510   0.746   7.239  0.2348 -0.3839 -0.0107
 4731TIP3    H135752   1.537   0.770   7.151  1.0555  0.4370  0.4492
 4731TIP3    H235753   1.453   0.818   7.267  0.2170 -0.4920  0.2387
 4732TIP3   OH235754   6.265   0.135   2.251  0.4217 -0.5574 -0.0885
 4732TIP3    H135755   6.344   0.147   2.304  0.0244 -1.0447  0.6361
 4732TIP3    H235756   6.219   0.062   2.292 -1.2502  0.7686  0.5489
 4733TIP3   OH235757   5.444   4.529   1.245 -0.0729 -0.0534 -0.3237
 4733TIP3    H135758   5.499   4.472   1.299 -0.2659 -0.6074 -0.6958
 4733TIP3    H235759   5.356   4.490   1.252 -0.2878  0.4321 -0.2659
 4734TIP3   OH235760   1.920   1.140   0.183 -0.3608 -0.1158 -0.0468
 4734TIP3    H135761   1.960   1.225   0.202 -0.2650 -0.1018 -0.3069
 4734TIP3    H235762   1.992   1.087   0.148 -0.5542 -0.1089 -0.4662
 4735TIP3   OH235763   4.057   4.636   2.739  0.1023 -0.3166  0.1104
 4735TIP3    H135764   4.024   4.606   2.654 -2.0545  1.5205  0.1916
 4735TIP3    H235765   3.979   4.642   2.794  1.3561 -0.7415  2.0252
 4736TIP3   OH235766   4.354   6.719   7.216  0.3595 -0.1196 -0.6513
 4736TIP3    H135767   4.418   6.659   7.177 -1.2529 -3.0145  0.8473
 4736TIP3    H235768   4.328   6.677   7.298  0.2226  3.4684  1.3370
 4737TIP3   OH235769   0.584   2.821   7.073 -0.0461 -0.6737 -0.3146
 4737TIP3    H135770   0.504   2.794   7.118 -0.4752  1.1166  0.0852
 4737TIP3    H235771   0.554   2.857   6.990  0.3584 -0.2124 -0.2659
 4738TIP3   OH235772   6.740   1.779   1.308 -0.2348  0.9345 -0.4945
 4738TIP3    H135773   6.716   1.715   1.374 -0.1469  0.0329 -1.3206
 4738TIP3    H235774   6.688   1.857   1.330 -1.7316 -0.0131 -0.5397
 4739TIP3   OH235775   5.851   5.625   8.122  0.0296 -0.4550 -0.7672
 4739TIP3    H135776   5.818   5.639   8.211 -0.8468 -1.1165 -0.9713
 4739TIP3    H235777   5.946   5.629   8.130  0.0027  3.4553 -0.4404
 4740TIP3   OH235778   5.414   5.056   1.041 -0.1299  0.1242 -0.1931
 4740TIP3    H135779   5.449   5.009   1.116 -0.6521 -0.1308 -0.1067
 4740TIP3    H235780   5.320   5.038   1.042  0.1959 -2.3286 -2.6137
 4741TIP3   OH235781   5.146   3.856   8.245  0.1357  0.2437  0.4501
 4741TIP3    H135782   5.090   3.911   8.299 -1.1793  0.0891 -0.6848
 4741TIP3    H235783   5.175   3.913   8.174 -0.2138 -0.1857 -0.0489
 4742TIP3   OH235784   2.966   2.999   7.412 -0.2069  0.0797 -0.0011
 4742TIP3    H135785   2.888   3.036   7.371  1.2131  1.3586 -1.7113
 4742TIP3    H235786   2.979   3.052   7.490  0.8203  2.2211 -1.5176
 4743TIP3   OH235787   1.877   5.415   0.934  0.2632 -0.6283 -0.1777
 4743TIP3    H135788   1.903   5.502   0.903 -1.4201 -0.6952 -2.0083
 4743TIP3    H235789   1.898   5.356   0.861 -0.4051 -1.4229  0.2456
 4744TIP3   OH235790   0.371   1.636   6.990 -0.4267 -0.5869 -0.0143
 4744TIP3    H135791   0.332   1.690   6.921 -0.6945 -0.9917 -0.1807
 4744TIP3    H235792   0.465   1.655   6.985 -0.6002  0.4440  0.4360
 4745TIP3   OH235793   4.767   4.731   7.251  0.2005  0.4605 -0.1980
 4745TIP3    H135794   4.793   4.730   7.343 -0.4430  0.3380 -0.0111
 4745TIP3    H235795   4.801   4.814   7.217  3.4781 -0.9691 -0.7715
 4746TIP3   OH235796   0.168   1.644   6.325 -0.5036 -0.1405  0.0393
 4746TIP3    H135797   0.253   1.684   6.345 -0.4542  0.4790 -1.2900
 4746TIP3    H235798   0.188   1.574   6.264 -0.6781 -1.8205  1.8167
 4747TIP3   OH235799   5.476   2.698   6.776 -0.0969  0.0894 -0.4182
 4747TIP3    H135800   5.393   2.668   6.737 -0.3345  0.9523 -0.6053
 4747TIP3    H235801   5.462   2.691   6.870  0.4809 -2.0159 -0.4500
 4748TIP3   OH235802   2.710   5.970   0.835 -0.1038  0.0539  0.8946
 4748TIP3    H135803   2.750   6.003   0.916 -0.0414 -1.0898  1.3406
 4748TIP3    H235804   2.763   6.008   0.765 -1.2647  2.6091  1.2558
 4749TIP3   OH235805   5.533   4.316   1.417  0.6907  0.4598 -0.1700
 4749TIP3    H135806   5.609   4.270   1.451  0.1742 -0.4539 -0.2084
 4749TIP3    H235807   5.470   4.246   1.396  0.1297  1.1445 -0.8330
 4750TIP3   OH235808   5.095   5.837   7.841 -0.1701 -0.3158 -0.4949
 4750TIP3    H135809   5.153   5.865   7.913  0.1815  1.8250 -1.5226
 4750TIP3    H235810   5.144   5.857   7.762 -1.1329 -1.2861 -1.3580
 4751TIP3   OH235811   1.917   1.741   6.955  0.2778  0.2301 -0.2630
 4751TIP3    H135812   1.995   1.786   6.924 -0.0970 -0.0962 -1.7943
 4751TIP3    H235813   1.929   1.732   7.049  2.4250 -0.5010 -0.5686
 4752TIP3   OH235814   1.043   5.809   6.742 -0.0928 -0.6116  0.1858
 4752TIP3    H135815   0.960   5.856   6.735 -1.1188 -2.2815  0.4436
 4752TIP3    H235816   1.034   5.735   6.681  0.9540 -1.1548  0.6658
 4753TIP3   OH235817   1.010   2.020   1.042 -0.0067  0.0396 -0.4615
 4753TIP3    H135818   0.944   2.080   1.076  1.2510  0.5939  1.1163
 4753TIP3    H235819   0.962   1.939   1.025 -1.1511  0.5295  0.3232
 4754TIP3   OH235820   6.511   3.261   0.825  0.1013 -0.0304 -0.0069
 4754TIP3    H135821   6.433   3.242   0.877  0.3233 -1.1921 -0.0660
 4754TIP3    H235822   6.487   3.337   0.773 -0.4285  0.6144  1.1425
 4755TIP3   OH235823   5.940   1.693   7.485  0.7324  0.0211 -0.1363
 4755TIP3    H135824   5.861   1.649   7.518  0.4211  1.8196  1.7194
 4755TIP3    H235825   5.997   1.701   7.562  1.9659  0.3323 -1.0572
 4756TIP3   OH235826   2.959   1.424   5.931 -0.2736 -0.0588  0.6030
 4756TIP3    H135827   2.941   1.451   6.021 -0.2380  0.1106  0.5606
 4756TIP3    H235828   2.916   1.490   5.877 -0.1348 -0.0538  0.4975
 4757TIP3   OH235829   2.781   4.689   6.894 -0.1760  0.2751 -0.0936
 4757TIP3    H135830   2.736   4.615   6.853 -0.0348  0.2446 -0.1981
 4757TIP3    H235831   2.720   4.762   6.886  0.8114  0.9275 -2.6619
 4758TIP3   OH235832   1.292   2.477   1.418 -0.7439  0.3348 -0.2529
 4758TIP3    H135833   1.211   2.437   1.385 -0.8277 -0.8789  1.2744
 4758TIP3    H235834   1.281   2.477   1.514  1.8435 -1.7160  0.1629
 4759TIP3   OH235835   0.711   6.382   0.529 -0.4107 -0.0621  0.5844
 4759TIP3    H135836   0.781   6.441   0.557 -2.7684  2.6445  1.2369
 4759TIP3    H235837   0.751   6.328   0.461  2.1493  1.7564  0.5134
 4760TIP3   OH235838   0.530   5.843   0.383 -0.1833  0.3751 -0.1387
 4760TIP3    H135839   0.584   5.920   0.403  1.7242 -0.8307 -0.3825
 4760TIP3    H235840   0.523   5.842   0.288 -1.8472  1.2609 -0.0675
 4761TIP3   OH235841   0.460   3.430   1.299  0.2526  0.3024 -0.2608
 4761TIP3    H135842   0.409   3.409   1.377 -0.3544  0.0038 -0.7256
 4761TIP3    H235843   0.445   3.523   1.284  0.6462  0.4360  0.1726
 4762TIP3   OH235844   5.618   6.794   8.051  0.1095  0.5141 -0.4481
 4762TIP3    H135845   5.658   6.848   7.983 -0.8022  1.5187 -0.2001
 4762TIP3    H235846   5.644   6.836   8.133  0.1764  0.0171 -0.2111
 4763TIP3   OH235847   3.850   2.232   6.866  0.2615  0.1354  0.4122
 4763TIP3    H135848   3.941   2.254   6.848  0.7716 -1.7817  0.4582
 4763TIP3    H235849   3.829   2.162   6.804 -0.8299 -0.2218  1.1521
 4764TIP3   OH235850   1.148   6.393   1.990  0.1159  0.4744  0.2891
 4764TIP3    H135851   1.069   6.395   1.935  0.9849 -1.5366 -1.1745
 4764TIP3    H235852   1.115   6.393   2.080 -1.3963  2.7538 -0.1616
 4765TIP3   OH235853   6.422   3.662   1.531  0.5887  0.2578 -0.9762
 4765TIP3    H135854   6.425   3.711   1.613 -0.1715  0.4215 -1.0352
 4765TIP3    H235855   6.341   3.611   1.538 -0.1406  1.2045 -2.1337
 4766TIP3   OH235856   2.957   0.263   1.899 -0.0014  0.6840 -0.1117
 4766TIP3    H135857   2.867   0.263   1.933 -0.1945  1.1814 -0.6146
 4766TIP3    H235858   3.006   0.210   1.962 -0.3082  1.7346  1.0613
 4767TIP3   OH235859   1.476   3.523   7.471  0.1948  0.1696  0.1572
 4767TIP3    H135860   1.492   3.432   7.449  0.6838  0.3037 -0.0494
 4767TIP3    H235861   1.554   3.551   7.519  0.0954  0.5120  0.1238
 4768TIP3   OH235862   6.867   5.248   6.369 -0.0428 -0.4232  0.1930
 4768TIP3    H135863   6.800   5.252   6.436 -0.4681  2.0846 -0.2866
 4768TIP3    H235864   6.947   5.223   6.415 -0.7588 -0.8375  1.2261
 4769TIP3   OH235865   6.460   1.387   1.063 -0.1151 -0.1067  0.5401
 4769TIP3    H135866   6.533   1.441   1.093  0.7732  0.5946 -2.5893
 4769TIP3    H235867   6.383   1.443   1.075  0.1930  0.1630  1.3614
 4770TIP3   OH235868   0.611   2.486   0.571  1.1338 -0.1042  0.1346
 4770TIP3    H135869   0.647   2.411   0.524 -2.9246 -1.1580 -1.7589
 4770TIP3    H235870   0.673   2.557   0.554  3.4815 -2.1834 -0.6887
 4771TIP3   OH235871   2.186   2.098   6.703  0.2637  0.4411  0.4594
 4771TIP3    H135872   2.167   2.152   6.626 -3.8849  0.1380  1.0064
 4771TIP3    H235873   2.265   2.136   6.740  0.5746  2.6683 -2.1552
 4772TIP3   OH235874   3.948   2.747   7.541  0.0804  0.4444  0.4522
 4772TIP3    H135875   3.875   2.752   7.604  0.0435  0.8963  0.3739
 4772TIP3    H235876   3.933   2.664   7.495 -0.4619  0.5925  0.3485
 4773TIP3   OH235877   1.312   3.341   1.246  0.0240 -0.0672 -0.2414
 4773TIP3    H135878   1.311   3.368   1.155 -0.9292 -2.9638 -1.1978
 4773TIP3    H235879   1.402   3.311   1.261 -0.5312 -2.5943 -1.3378
 4774TIP3   OH235880   4.614   5.702   2.059 -0.0869  0.3916 -0.6558
 4774TIP3    H135881   4.520   5.707   2.041 -0.2383 -0.8157 -0.2982
 4774TIP3    H235882   4.624   5.744   2.144 -0.2178  0.9806 -0.9249
 4775TIP3   OH235883   0.599   2.789   0.350 -0.4147  0.1841 -0.3710
 4775TIP3    H135884   0.518   2.831   0.322 -0.2250  0.5727 -0.3359
 4775TIP3    H235885   0.599   2.797   0.446 -1.6483 -2.1918 -0.1056
 4776TIP3   OH235886   2.831   2.510   1.096 -1.0612  0.2194  0.3326
 4776TIP3    H135887   2.756   2.455   1.117 -0.8943 -0.4304 -0.6918
 4776TIP3    H235888   2.793   2.597   1.080 -1.4113  0.2436  1.2330
 4777TIP3   OH235889   3.126   1.489   0.640 -0.6873 -0.1025  0.4600
 4777TIP3    H135890   3.139   1.492   0.545  1.0205  2.0536  0.6882
 4777TIP3    H235891   3.033   1.510   0.652 -1.0823 -1.0506 -0.7244
 4778TIP3   OH235892   1.566   2.880   1.415  0.1602  0.3063  0.2418
 4778TIP3    H135893   1.585   2.867   1.322  0.2743  1.0126  0.1645
 4778TIP3    H235894   1.629   2.824   1.461  0.7634  0.7262 -0.0772
 4779TIP3   OH235895   3.073   6.352   8.009 -0.4457  0.1936 -0.2639
 4779TIP3    H135896   3.010   6.413   8.046 -1.0335 -0.0844 -0.7915
 4779TIP3    H235897   3.057   6.269   8.055 -0.8610 -0.0280 -0.7993
 4780TIP3   OH235898   5.763   4.173   0.992 -0.1473 -0.0309  0.3671
 4780TIP3    H135899   5.680   4.221   0.984 -0.6467 -0.9218  0.1385
 4780TIP3    H235900   5.744   4.086   0.959  1.3751  0.2542 -1.4448
 4781TIP3   OH235901   2.168   5.482   0.249  0.9895  0.2671  0.2967
 4781TIP3    H135902   2.258   5.506   0.271  1.5597  0.4122 -1.9569
 4781TIP3    H235903   2.177   5.406   0.192 -0.0348  2.0789 -2.5229
 4782TIP3   OH235904   2.943   2.826   0.460  0.2534  0.0370  0.6202
 4782TIP3    H135905   3.025   2.805   0.505  1.1385  0.9923 -0.4899
 4782TIP3    H235906   2.912   2.741   0.426  0.9833 -0.2827  0.7344
 4783TIP3   OH235907   3.423   1.171   8.031 -0.1726  0.2112 -0.3252
 4783TIP3    H135908   3.419   1.137   7.941  0.9335  0.4022 -0.4609
 4783TIP3    H235909   3.350   1.233   8.036  0.4593  1.1052 -1.4889
 4784TIP3   OH235910   1.265   0.105   6.478 -0.1943  0.0873 -0.3478
 4784TIP3    H135911   1.276   0.073   6.388 -0.0701  1.2521 -0.7586
 4784TIP3    H235912   1.330   0.174   6.487 -0.3211  0.0886  0.5926
 4785TIP3   OH235913   4.772   2.492   0.377 -0.2581 -0.5778  0.1056
 4785TIP3    H135914   4.747   2.490   0.284  0.7521  1.3638 -0.2496
 4785TIP3    H235915   4.803   2.403   0.395  0.3288 -0.7663 -1.6610
 4786TIP3   OH235916   2.350   3.834   1.121 -0.3972  0.1765  0.0269
 4786TIP3    H135917   2.332   3.755   1.071  1.6119 -0.4017  0.1342
 4786TIP3    H235918   2.272   3.847   1.175 -0.6285 -1.9571  0.2906
 4787TIP3   OH235919   2.782   3.969   7.756  0.2695 -0.3634 -0.6078
 4787TIP3    H135920   2.750   3.887   7.793 -0.6415  1.2974  2.7094
 4787TIP3    H235921   2.876   3.968   7.772 -0.0718  0.2289  1.8680
 4788TIP3   OH235922   6.666   0.868   0.682  0.0678 -0.0070 -0.9364
 4788TIP3    H135923   6.658   0.963   0.679 -0.9167  0.0947  1.7696
 4788TIP3    H235924   6.598   0.840   0.743  1.9739 -2.1636  0.3710
 4789TIP3   OH235925   5.617   3.380   6.655 -0.0826  0.2266 -0.7155
 4789TIP3    H135926   5.657   3.295   6.675 -0.1955  0.5487  1.0623
 4789TIP3    H235927   5.569   3.365   6.573 -0.2217 -1.4717 -0.3733
 4790TIP3   OH235928   5.887   4.637   8.269  0.6564  0.1182  0.1092
 4790TIP3    H135929   5.952   4.645   8.200  1.4179 -0.9045  0.6712
 4790TIP3    H235930   5.850   4.549   8.257  2.1316 -0.8683  2.0574
 4791TIP3   OH235931   2.334   4.705   8.136 -0.3508 -0.6351 -0.0534
 4791TIP3    H135932   2.355   4.787   8.093 -0.1928 -0.8782 -0.4421
 4791TIP3    H235933   2.296   4.650   8.067 -0.5736 -0.8466  0.2294
 4792TIP3   OH235934   5.237   5.325   1.566  0.1667  0.7844  0.4044
 4792TIP3    H135935   5.239   5.342   1.660  0.5732  0.0342  0.5410
 4792TIP3    H235936   5.321   5.282   1.548 -1.9768 -4.3367  0.7793
 4793TIP3   OH235937   4.197   6.779   0.485 -0.7475  0.6528  0.0209
 4793TIP3    H135938   4.222   6.812   0.399 -0.8040 -0.0813 -0.2908
 4793TIP3    H235939   4.101   6.774   0.483 -0.7873  1.2846  0.3756
 4794TIP3   OH235940   1.639   0.008   7.879  0.6364  0.4713  0.1171
 4794TIP3    H135941   1.693  -0.071   7.872  0.6351  0.5562 -1.0798
 4794TIP3    H235942   1.630   0.023   7.973  1.0991 -0.6356  0.3510
 4795TIP3   OH235943   2.708   4.080   1.358 -0.0846 -0.7363  0.1236
 4795TIP3    H135944   2.697   4.009   1.421 -1.4274 -1.8973 -1.3207
 4795TIP3    H235945   2.652   4.055   1.284 -2.5656  2.9586  0.4671
 4796TIP3   OH235946   2.544   0.474   0.994 -0.4977  0.2530 -0.1759
 4796TIP3    H135947   2.574   0.397   1.043 -1.7238  0.3927  0.8711
 4796TIP3    H235948   2.624   0.519   0.968  0.2183 -0.7443  0.2403
 4797TIP3   OH235949   3.644   1.173   8.211  0.2018 -0.1390  0.4543
 4797TIP3    H135950   3.566   1.151   8.159  0.7552  1.7945 -1.3248
 4797TIP3    H235951   3.617   1.248   8.263  0.8444  0.5681 -0.2024
 4798TIP3   OH235952   6.690   0.493   0.980  0.4158  0.7149 -0.5848
 4798TIP3    H135953   6.606   0.519   1.019  0.7833  1.3766 -0.2129
 4798TIP3    H235954   6.717   0.416   1.031  1.7557  2.5889  1.7710
 4799TIP3   OH235955   0.404   2.965   0.271 -0.5173 -0.0621 -0.1671
 4799TIP3    H135956   0.356   2.952   0.190 -0.5636  0.4619 -0.2300
 4799TIP3    H235957   0.341   2.947   0.340 -1.0415  1.3282 -0.2399
 4800TIP3   OH235958   3.775   0.161   6.844 -0.1058  0.2336  0.0409
 4800TIP3    H135959   3.766   0.246   6.801  1.5295 -0.6295 -2.1795
 4800TIP3    H235960   3.719   0.103   6.793  1.5829 -0.7338 -0.7989
 4801TIP3   OH235961   1.639   5.004   5.905 -0.0200  0.1890  0.1777
 4801TIP3    H135962   1.703   5.050   5.959 -1.5519  0.4289  1.8930
 4801TIP3    H235963   1.582   4.960   5.968 -1.2348 -0.4303 -1.2994
 4802TIP3   OH235964   0.192   1.042   5.880 -0.3283 -0.4578 -0.4800
 4802TIP3    H135965   0.218   1.093   5.804  1.8524  0.8238  1.0134
 4802TIP3    H235966   0.208   1.100   5.955 -0.6908 -2.2584  1.0742
 4803TIP3   OH235967   4.840   4.735   8.642  0.0022 -0.3142 -0.2760
 4803TIP3    H135968   4.879   4.647   8.647 -1.4794 -1.1090 -1.8281
 4803TIP3    H235969   4.800   4.739   8.555  1.6143  2.6177 -1.0085
 4804TIP3   OH235970   3.571   6.642   1.722 -0.0165  0.5580 -0.8063
 4804TIP3    H135971   3.589   6.736   1.719 -1.6901  0.8974 -0.8418
 4804TIP3    H235972   3.626   6.606   1.653 -0.0884  1.6467 -1.4660
 4805TIP3   OH235973   5.352   1.643   1.368  0.5629  0.1042 -0.7948
 4805TIP3    H135974   5.280   1.689   1.411  1.9138  0.6296  1.0620
 4805TIP3    H235975   5.379   1.577   1.432  1.5271 -0.2731 -1.5738
 4806TIP3   OH235976   5.258   5.579   7.553 -0.0506 -0.1004 -0.1508
 4806TIP3    H135977   5.273   5.576   7.458  1.1082  0.7790 -0.0219
 4806TIP3    H235978   5.166   5.601   7.562 -0.1326 -0.0081 -1.0879
 4807TIP3   OH235979   6.311   1.260   7.094 -0.0410 -0.0447 -0.3380
 4807TIP3    H135980   6.225   1.270   7.136  0.2353  0.7395  0.0596
 4807TIP3    H235981   6.348   1.348   7.094  0.8756 -0.4210 -0.2672
 4808TIP3   OH235982   1.288   2.529   2.659  0.3694  0.3302 -0.5313
 4808TIP3    H135983   1.282   2.496   2.749 -0.6381  1.6867 -0.0757
 4808TIP3    H235984   1.273   2.452   2.604 -3.0306  0.1019  0.4932
 4809TIP3   OH235985   1.179   1.231   7.216 -0.0173  0.0111  0.1996
 4809TIP3    H135986   1.227   1.169   7.161 -1.3359 -0.9036  0.0469
 4809TIP3    H235987   1.227   1.231   7.299 -0.1326 -1.4309  0.2971
 4810TIP3   OH235988   1.470   6.544   6.753 -0.5562 -0.3437 -0.0911
 4810TIP3    H135989   1.421   6.463   6.737 -0.3275 -0.2556 -1.3737
 4810TIP3    H235990   1.405   6.614   6.741 -0.5677 -0.2997  0.2118
 4811TIP3   OH235991   0.385   4.535   8.330  0.2045  0.4899  0.0163
 4811TIP3    H135992   0.383   4.593   8.255 -0.6238  0.3726 -0.0692
 4811TIP3    H235993   0.334   4.458   8.302 -0.2878  0.5350  0.7544
 4812TIP3   OH235994   1.520   1.011   7.939  0.1848 -0.1498 -0.3672
 4812TIP3    H135995   1.544   0.918   7.938 -2.7042 -1.0222 -2.1003
 4812TIP3    H235996   1.424   1.011   7.939  0.0872  2.8500 -0.4343
 4813TIP3   OH235997   6.399   1.108   0.989  0.4679 -0.0971 -1.0060
 4813TIP3    H135998   6.417   1.197   1.021  0.2956 -0.7339  1.0254
 4813TIP3    H235999   6.404   1.115   0.894 -1.4384  2.4865 -1.0159
 4814TIP3   OH236000   4.357   0.735   8.299  0.3611 -0.2397  0.1550
 4814TIP3    H136001   4.356   0.640   8.291  1.0891 -0.3752  1.3818
 4814TIP3    H236002   4.265   0.761   8.299  0.1707 -0.8829 -0.6597
 4815TIP3   OH236003   5.990   1.537   1.108 -0.3473 -0.0077  0.4522
 4815TIP3    H136004   5.965   1.457   1.061 -2.7248  0.9451 -0.0699
 4815TIP3    H236005   5.933   1.605   1.071  0.6340  1.6449  1.8435
 4816TIP3   OH236006   4.719   3.810   7.350 -0.4942 -0.3382 -0.2253
 4816TIP3    H136007   4.707   3.762   7.432 -0.3426 -0.4643 -0.2761
 4816TIP3    H236008   4.806   3.847   7.357 -0.6402 -0.0073 -0.1551
 4817TIP3   OH236009   4.696   3.115   7.095  0.0780 -0.2937  0.2104
 4817TIP3    H136010   4.690   3.186   7.031  0.3037 -1.6567 -1.4042
 4817TIP3    H236011   4.610   3.072   7.091  0.5698 -1.2683 -0.2942
 4818TIP3   OH236012   2.130   2.474   0.383  0.2690 -0.2578 -0.4632
 4818TIP3    H136013   2.065   2.412   0.417 -0.2491  0.9067  0.7577
 4818TIP3    H236014   2.170   2.429   0.309 -0.7583 -1.6657 -0.1950
 4819TIP3   OH236015   6.402   1.789   0.131  0.0816 -0.3350 -0.6826
 4819TIP3    H136016   6.406   1.841   0.211  0.0629 -1.1970 -0.1112
 4819TIP3    H236017   6.319   1.815   0.090  0.9546  1.4853 -1.4108
 4820TIP3   OH236018   6.504   5.589   7.183  0.2609 -0.1058 -0.2238
 4820TIP3    H136019   6.579   5.539   7.215  1.3712  0.4500 -1.8286
 4820TIP3    H236020   6.531   5.680   7.190 -0.8982  0.2053  0.6159
 4821TIP3   OH236021   5.617   0.395   1.586 -0.3319 -0.0104  0.5389
 4821TIP3    H136022   5.611   0.474   1.640  1.4562 -0.0482  0.8611
 4821TIP3    H236023   5.577   0.326   1.639 -0.2385  0.3231  1.0473
 4822TIP3   OH236024   3.928   3.818   8.548  0.3300 -0.5252  0.7310
 4822TIP3    H136025   3.998   3.883   8.554 -0.1277  0.0019  0.4721
 4822TIP3    H236026   3.848   3.870   8.536 -0.2641 -1.0522  2.1492
 4823TIP3   OH236027   5.582   0.250   8.567 -0.3508  0.4534  0.1315
 4823TIP3    H136028   5.541   0.334   8.550 -2.0137 -0.5292 -0.9767
 4823TIP3    H236029   5.511   0.194   8.600  0.6608 -0.5836  0.6469
 4824TIP3   OH236030   2.725   4.369   6.537 -0.1976  0.0069  0.0797
 4824TIP3    H136031   2.742   4.297   6.598 -0.1027 -0.0046  0.0393
 4824TIP3    H236032   2.699   4.327   6.456  2.0647 -0.0744 -0.6697
 4825TIP3   OH236033   5.561   4.631   7.600  0.9117  0.0688 -0.5126
 4825TIP3    H136034   5.558   4.709   7.654  0.4161 -0.1057 -0.2748
 4825TIP3    H236035   5.625   4.574   7.643  1.4751  0.4494 -0.8402
 4826TIP3   OH236036   0.380   4.778   0.567  0.6986 -0.2275  0.2493
 4826TIP3    H136037   0.427   4.744   0.490  0.5492  2.8364 -1.3639
 4826TIP3    H236038   0.292   4.741   0.559  0.6099  0.2490 -1.2366
 4827TIP3   OH236039   3.162   0.281   0.758 -0.1443  0.1880 -0.1939
 4827TIP3    H136040   3.173   0.361   0.810  0.5714 -0.9568  1.4960
 4827TIP3    H236041   3.112   0.223   0.815 -1.4181 -0.3067 -1.7393
 4828TIP3   OH236042   1.841   3.712   1.605  0.1547 -0.2900  0.2577
 4828TIP3    H136043   1.804   3.629   1.634  0.6006 -0.5356  0.1407
 4828TIP3    H236044   1.804   3.725   1.517  1.1365 -1.0669 -0.3063
 4829TIP3   OH236045   0.905   2.118   1.838  0.4231 -0.2034  0.4183
 4829TIP3    H136046   0.930   2.029   1.860 -0.7267 -0.7245 -0.2850
 4829TIP3    H236047   0.971   2.173   1.880  0.8513 -1.3527  1.2921
 4830TIP3   OH236048   5.890   2.437   1.452 -0.3261 -0.5519  0.3826
 4830TIP3    H136049   5.891   2.354   1.403  0.1382 -0.8645  0.8995
 4830TIP3    H236050   5.798   2.463   1.455 -0.3055 -0.2677 -1.0737
 4831TIP3   OH236051   4.212   2.871   1.921 -0.0489 -0.0195 -0.1352
 4831TIP3    H136052   4.254   2.787   1.941 -2.1061 -0.8563  0.9828
 4831TIP3    H236053   4.202   2.914   2.006  0.2768  1.0187 -0.6078
 4832TIP3   OH236054   2.974   0.434   1.268  0.1045 -0.2588 -0.3992
 4832TIP3    H136055   2.904   0.375   1.240 -1.4893  1.8185 -1.0237
 4832TIP3    H236056   2.973   0.429   1.364 -1.1512  0.0108 -0.3881
 4833TIP3   OH236057   1.299   0.173   6.818  0.4859  0.1014 -0.1248
 4833TIP3    H136058   1.298   0.265   6.792 -0.0449  0.1131 -0.0736
 4833TIP3    H236059   1.305   0.175   6.913 -0.3492  0.1001 -0.0644
 4834TIP3   OH236060   6.620   1.873   0.954  0.0498 -0.1252  0.2855
 4834TIP3    H136061   6.713   1.868   0.934  0.0885  1.9946 -0.1940
 4834TIP3    H236062   6.596   1.782   0.975  1.8043 -1.0317 -1.3125
 4835TIP3   OH236063   0.743   4.097   6.894 -0.2996 -0.3590  0.0090
 4835TIP3    H136064   0.719   4.190   6.894  1.9185  0.3108  1.9477
 4835TIP3    H236065   0.805   4.089   6.821 -1.1010 -0.5554 -0.6756
 4836TIP3   OH236066   3.610   4.442   7.594 -0.5828 -0.4277 -0.4502
 4836TIP3    H136067   3.600   4.366   7.536  0.3990 -0.9509  0.0529
 4836TIP3    H236068   3.568   4.415   7.676  1.5211 -1.2456  0.4298
 4837TIP3   OH236069   0.906   0.287   0.098 -0.6742 -0.1811 -0.0593
 4837TIP3    H136070   0.934   0.227   0.029 -0.4111 -2.8698  2.1777
 4837TIP3    H236071   0.985   0.334   0.123  0.1061 -1.8448  0.7691
 4838TIP3   OH236072   2.363   4.735   2.498 -0.0422  0.2241 -0.1648
 4838TIP3    H136073   2.400   4.660   2.452 -1.7336 -1.5558  1.1979
 4838TIP3    H236074   2.405   4.734   2.584  0.8965  1.7077 -0.5574
 4839TIP3   OH236075   1.859   3.368   8.256 -0.6874  0.0425 -0.1123
 4839TIP3    H136076   1.877   3.390   8.165  0.7075 -0.7817 -0.0622
 4839TIP3    H236077   1.917   3.425   8.307 -0.2962 -0.6033  0.1828
 4840TIP3   OH236078   1.843   0.485   0.684 -0.3257 -0.0269  0.3300
 4840TIP3    H136079   1.832   0.563   0.630 -0.6054  0.8183  1.5574
 4840TIP3    H236080   1.754   0.456   0.704 -0.2246 -0.4277  0.2046
 4841TIP3   OH236081   4.161   5.710   0.407 -0.4997 -0.0679  0.2409
 4841TIP3    H136082   4.143   5.616   0.407  0.3163 -0.2883 -1.6220
 4841TIP3    H236083   4.163   5.733   0.314  2.2502  1.1675  0.5198
 4842TIP3   OH236084   3.208   0.807   6.801 -0.0402 -0.8096 -0.3114
 4842TIP3    H136085   3.284   0.797   6.858 -0.1326  1.6316  0.3333
 4842TIP3    H236086   3.246   0.828   6.715  0.1439  3.1853  0.5810
 4843TIP3   OH236087   1.051   5.318   1.585  0.4343 -0.1392 -0.4014
 4843TIP3    H136088   1.105   5.324   1.664  0.9834  1.0799 -0.8567
 4843TIP3    H236089   0.966   5.287   1.617  1.3628 -2.0840  0.3212
 4844TIP3   OH236090   1.157   2.827   0.972  0.6613 -0.1809  0.7127
 4844TIP3    H136091   1.201   2.745   0.994 -0.1730 -0.7701  0.2308
 4844TIP3    H236092   1.180   2.843   0.880  1.1186  0.3251  0.9097
 4845TIP3   OH236093   4.455   0.409   7.316 -0.2016  0.0692 -0.0110
 4845TIP3    H136094   4.421   0.321   7.329 -0.2865 -0.1254 -1.4623
 4845TIP3    H236095   4.449   0.425   7.222 -0.5717  1.7766  0.2525
 4846TIP3   OH236096   3.677   0.130   7.736 -0.0565  0.3410 -0.3962
 4846TIP3    H136097   3.759   0.127   7.687  0.2381 -0.4310  0.1362
 4846TIP3    H236098   3.610   0.104   7.673  0.2930 -0.4464 -0.4479
 4847TIP3   OH236099   6.008   6.865   7.378 -0.0350  0.4650  0.3290
 4847TIP3    H136100   5.965   6.894   7.298 -0.9855 -2.3997 -0.3113
 4847TIP3    H236101   5.946   6.804   7.418  0.0204  2.4338  3.7781
 4848TIP3   OH236102   6.495   1.503   7.335 -0.5346  0.4529  0.1233
 4848TIP3    H136103   6.410   1.491   7.378 -1.4878  1.2438 -1.4537
 4848TIP3    H236104   6.535   1.576   7.382 -1.7264  1.5684 -0.5323
 4849TIP3   OH236105   2.217   1.134   0.256 -0.1134  0.1173 -0.2296
 4849TIP3    H136106   2.204   1.217   0.303  1.7465  0.0421  0.4817
 4849TIP3    H236107   2.207   1.067   0.323 -1.0908 -0.2284 -0.7031
 4850TIP3   OH236108   0.356   1.053   7.383 -0.0560  0.5812 -0.3181
 4850TIP3    H136109   0.398   1.093   7.459  0.7855  2.5882 -1.7462
 4850TIP3    H236110   0.284   1.113   7.361 -0.2808  0.0423 -1.0901
 4851TIP3   OH236111   3.594   5.042   7.514 -0.1917  0.5784  0.2792
 4851TIP3    H136112   3.596   5.135   7.493 -1.9340  0.4762 -0.5327
 4851TIP3    H236113   3.571   4.999   7.431  0.4895 -0.5758  0.6615
 4852TIP3   OH236114   3.301   0.389   2.178 -0.1829 -0.3457 -0.0674
 4852TIP3    H136115   3.230   0.447   2.204  0.0448 -1.0219  2.2434
 4852TIP3    H236116   3.263   0.332   2.111 -1.4984 -0.0118  0.3781
 4853TIP3   OH236117   4.218   4.791   0.140 -0.2787  0.3602  0.2999
 4853TIP3    H136118   4.184   4.873   0.104  0.3366  0.8050  0.7131
 4853TIP3    H236119   4.177   4.784   0.226 -1.3532 -0.4442 -0.2601
 4854TIP3   OH236120   2.598   1.140   1.269 -0.0928 -0.0004  0.4712
 4854TIP3    H136121   2.524   1.081   1.282 -0.1944  0.1992  0.8267
 4854TIP3    H236122   2.615   1.176   1.356  0.5401 -0.1826  0.4278
 4855TIP3   OH236123   5.511   2.296   8.475  0.0138  0.1170 -0.5936
 4855TIP3    H136124   5.495   2.390   8.480 -0.8018  0.0266 -1.3580
 4855TIP3    H236125   5.579   2.280   8.541  0.8196  1.3777 -1.0755
 4856TIP3   OH236126   5.828   1.223   0.543  0.2267 -0.6323  0.4410
 4856TIP3    H136127   5.893   1.241   0.475 -0.1492  1.0195  0.4730
 4856TIP3    H236128   5.869   1.156   0.598  1.2496 -0.7381 -0.4116
 4857TIP3   OH236129   3.032   0.783   1.875 -0.0828  0.5232  0.5071
 4857TIP3    H136130   3.013   0.836   1.953 -1.2804 -0.5864  1.0112
 4857TIP3    H236131   2.963   0.807   1.813  0.3215  0.7145  0.1233
 4858TIP3   OH236132   4.717   5.201   1.276 -0.1428  0.7733 -0.4185
 4858TIP3    H136133   4.671   5.165   1.201 -1.5311  1.1775  0.2068
 4858TIP3    H236134   4.809   5.180   1.260 -0.2730  1.6740 -2.6832
 4859TIP3   OH236135   5.837   4.194   8.374 -0.2045 -0.2724 -0.6299
 4859TIP3    H136136   5.917   4.245   8.388 -0.4513 -0.6596  3.3876
 4859TIP3    H236137   5.766   4.258   8.381 -0.3481 -0.3780 -1.1131
 4860TIP3   OH236138   4.382   4.084   1.168 -0.6175 -0.2408 -0.4448
 4860TIP3    H136139   4.371   4.146   1.240  0.5735  0.7957 -1.1124
 4860TIP3    H236140   4.444   4.019   1.202 -1.1200 -0.5353 -0.0772
 4861TIP3   OH236141   6.855   6.757   0.912  0.0501  0.2721 -0.0076
 4861TIP3    H136142   6.912   6.780   0.839  1.2410 -0.5608  0.6240
 4861TIP3    H236143   6.914   6.752   0.987 -1.0538  0.5553  0.9080
 4862TIP3   OH236144   2.583   4.727   2.702 -0.6530 -0.0866  0.0171
 4862TIP3    H136145   2.655   4.665   2.689  1.0836  1.8716 -0.3319
 4862TIP3    H236146   2.571   4.730   2.796  0.6998  0.5204  0.2035
 4863TIP3   OH236147   6.569   5.031   8.361  0.0921  0.1597 -0.3397
 4863TIP3    H136148   6.594   4.998   8.447 -1.7240  0.0968  0.2042
 4863TIP3    H236149   6.589   5.125   8.365 -0.8592  0.3393  0.5105
 4864TIP3   OH236150   5.388   1.057   0.901  0.1129  0.2905  0.2356
 4864TIP3    H136151   5.303   1.015   0.914 -0.7878  2.1224  0.5313
 4864TIP3    H236152   5.380   1.103   0.818  1.4292 -0.8561 -0.5758
 4865TIP3   OH236153   5.453   3.748   0.587  0.0320 -0.2336  0.0396
 4865TIP3    H136154   5.427   3.817   0.648 -0.0214  0.2409 -0.5094
 4865TIP3    H236155   5.394   3.675   0.607 -1.8410  0.8380 -1.2136
 4866TIP3   OH236156   1.472   6.866   0.900 -0.0886  0.4377 -0.2221
 4866TIP3    H136157   1.491   6.848   0.992 -0.6836  3.2954  0.5628
 4866TIP3    H236158   1.538   6.930   0.874 -0.9726  0.9828 -1.2164
 4867TIP3   OH236159   1.755   2.445   0.923 -0.3882 -0.3549  0.2668
 4867TIP3    H136160   1.786   2.454   0.833 -1.5416 -0.7661 -0.1798
 4867TIP3    H236161   1.682   2.384   0.918 -2.6977  2.1563  0.9240
 4868TIP3   OH236162   4.754   0.583   2.247  0.1359 -0.2891  0.0301
 4868TIP3    H136163   4.694   0.657   2.235  0.1325 -0.4768 -1.1739
 4868TIP3    H236164   4.837   0.624   2.272 -0.5874 -0.0553  2.2786
 4869TIP3   OH236165   5.430   4.693   6.614 -0.1458  0.0880  0.2601
 4869TIP3    H136166   5.500   4.669   6.675 -0.7708  0.1423  1.0078
 4869TIP3    H236167   5.385   4.610   6.595 -1.2092  0.3677  1.4664
 4870TIP3   OH236168   2.580   2.853   0.242  0.2507  0.4988 -0.0123
 4870TIP3    H136169   2.492   2.816   0.245  0.2537  0.4629 -0.3133
 4870TIP3    H236170   2.620   2.813   0.165  1.7704 -2.2974  2.0149
 4871TIP3   OH236171   1.748   5.155   6.135 -0.5182 -0.3992  0.3934
 4871TIP3    H136172   1.725   5.094   6.205  0.5726 -1.1830  0.0902
 4871TIP3    H236173   1.839   5.134   6.113  0.0349  1.5870  0.5344
 4872TIP3   OH236174   0.980   5.693   1.208 -0.2616  0.4343  0.0207
 4872TIP3    H136175   1.005   5.669   1.119  0.8068  1.2157  0.0960
 4872TIP3    H236176   0.892   5.657   1.219  0.3389 -1.3366 -0.6769
 4873TIP3   OH236177   5.612   0.570   7.725  0.2771 -0.0974 -0.2637
 4873TIP3    H136178   5.628   0.476   7.725 -1.9777 -0.5583 -1.4733
 4873TIP3    H236179   5.686   0.607   7.677 -0.3289 -1.6574 -2.5907
 4874TIP3   OH236180   0.735   0.548   0.784  0.2840  0.0674 -0.1933
 4874TIP3    H136181   0.655   0.534   0.733  1.3961 -0.5125 -1.8655
 4874TIP3    H236182   0.781   0.618   0.739  1.6117 -0.9144 -0.4480
 4875TIP3   OH236183   1.577   3.462   7.172  0.3516 -0.2508 -0.2996
 4875TIP3    H136184   1.516   3.433   7.104 -0.1179  2.2816 -1.0534
 4875TIP3    H236185   1.659   3.479   7.126 -0.0230  1.6592 -0.3357
 4876TIP3   OH236186   4.260   1.715   6.663  0.2722  0.0649 -0.1241
 4876TIP3    H136187   4.356   1.708   6.666  0.4130  1.6719  0.7158
 4876TIP3    H236188   4.229   1.637   6.709  1.2393  0.1639  0.7485
 4877TIP3   OH236189   1.213   5.354   1.841 -0.2701 -0.4839  0.3820
 4877TIP3    H136190   1.197   5.412   1.915  1.5991  0.4377  0.1073
 4877TIP3    H236191   1.292   5.305   1.865 -0.6231 -1.4220 -0.2938
 4878TIP3   OH236192   0.964   1.898   2.009 -0.0564 -0.6952  0.0637
 4878TIP3    H136193   0.999   1.815   2.041  0.9221 -0.4813 -0.4313
 4878TIP3    H236194   0.951   1.951   2.087  1.3529 -0.5381  0.2082
 4879TIP3   OH236195   5.215   2.870   2.226  0.2388 -0.2233 -0.2486
 4879TIP3    H136196   5.162   2.790   2.220  0.6186 -0.6783  1.7334
 4879TIP3    H236197   5.306   2.838   2.224  0.3888  0.0475  1.4512
 4880TIP3   OH236198   5.352   4.772   1.329 -0.3026 -0.2371 -0.5543
 4880TIP3    H136199   5.384   4.751   1.417 -3.0879  0.1438  0.6441
 4880TIP3    H236200   5.350   4.687   1.284  0.2193 -0.5824  0.0496
 4881TIP3   OH236201   2.290   3.965   7.781  0.3371 -0.2078  0.2399
 4881TIP3    H136202   2.197   3.955   7.803  0.2257  1.5242  0.7258
 4881TIP3    H236203   2.331   3.885   7.814 -0.8906 -0.7338  0.5531
 4882TIP3   OH236204   5.357   1.183   0.664  0.4138  0.1531  0.5088
 4882TIP3    H136205   5.334   1.125   0.591 -0.7324  0.0274  0.9400
 4882TIP3    H236206   5.435   1.230   0.635 -0.7298  1.0074 -1.3033
 4883TIP3   OH236207   5.158   3.915   0.146 -0.6275 -0.2676 -0.0069
 4883TIP3    H136208   5.245   3.949   0.126 -1.1825  0.9006 -0.5557
 4883TIP3    H236209   5.174   3.842   0.206  0.7342 -0.2305 -0.2848
 4884TIP3   OH236210   3.807   3.378   0.602 -0.3289 -0.2622  0.0494
 4884TIP3    H136211   3.830   3.415   0.688  0.5002 -1.7509  0.5085
 4884TIP3    H236212   3.890   3.343   0.569 -1.2108 -2.5825  0.1090
 4885TIP3   OH236213   1.823   5.007   5.659 -0.0434  0.0760 -0.6289
 4885TIP3    H136214   1.743   5.037   5.702 -0.6216 -0.9431 -0.9521
 4885TIP3    H236215   1.872   5.087   5.639 -0.4187  0.6441  0.6407
 4886TIP3   OH236216   1.857   4.249   6.660 -0.3425 -0.2917 -0.6571
 4886TIP3    H136217   1.862   4.277   6.569 -1.5924 -0.2570 -0.7377
 4886TIP3    H236218   1.805   4.168   6.658 -1.3703  0.3173  0.1174
 4887TIP3   OH236219   6.192   4.418   6.533  0.1085  0.2345 -0.4517
 4887TIP3    H136220   6.132   4.482   6.496  0.2979  0.0731 -1.0428
 4887TIP3    H236221   6.135   4.348   6.567 -0.0676  0.4161 -0.3718
 4888TIP3   OH236222   5.798   1.791   7.862 -0.3916  0.4235 -0.2160
 4888TIP3    H136223   5.775   1.882   7.882 -1.6877  0.2475 -0.8095
 4888TIP3    H236224   5.831   1.756   7.945  2.7515  2.1482 -0.5958
 4889TIP3   OH236225   5.629   6.589   6.905 -0.7940  1.0602  0.0684
 4889TIP3    H136226   5.583   6.556   6.827 -1.2314  0.3447  0.6046
 4889TIP3    H236227   5.721   6.567   6.890 -1.1172 -0.9147  0.5981
 4890TIP3   OH236228   6.638   3.684   7.411  0.1997 -0.4081  0.2869
 4890TIP3    H136229   6.702   3.711   7.345  1.2294 -2.7038  0.2524
 4890TIP3    H236230   6.561   3.657   7.361  0.7108 -1.4521  0.0419
 4891TIP3   OH236231   1.172   1.980   1.588 -0.2217  0.7839  0.0659
 4891TIP3    H136232   1.266   1.964   1.586 -0.2580  0.5588  0.1278
 4891TIP3    H236233   1.149   1.997   1.496 -0.2031  0.3367 -0.0276
 4892TIP3   OH236234   5.486   4.393   7.458  0.4757 -0.3879 -0.1959
 4892TIP3    H136235   5.510   4.477   7.497  1.1341  0.2918 -1.9797
 4892TIP3    H236236   5.392   4.387   7.472  0.5292  0.3243  0.5574
 4893TIP3   OH236237   2.358   4.025   0.936 -0.2207  0.4206 -0.0286
 4893TIP3    H136238   2.342   3.966   0.862 -0.7002 -0.6414  0.8829
 4893TIP3    H236239   2.361   3.967   1.012 -1.1488  1.6172  0.9682
 4894TIP3   OH236240   3.399   3.289   7.547 -0.4318 -0.3436  0.3834
 4894TIP3    H136241   3.432   3.300   7.636  0.5201 -0.6661  0.0830
 4894TIP3    H236242   3.354   3.205   7.548 -0.4054 -0.3560  0.5514
 4895TIP3   OH236243   4.352   2.674   1.220 -0.2020 -0.0181  0.3429
 4895TIP3    H136244   4.261   2.644   1.215 -0.4905  0.9034 -0.2406
 4895TIP3    H236245   4.400   2.613   1.164 -0.7324  0.3882 -0.5896
 4896TIP3   OH236246   4.184   3.762   6.774 -0.0686  0.1455  0.4262
 4896TIP3    H136247   4.236   3.687   6.745  0.2351  0.5638 -0.1361
 4896TIP3    H236248   4.094   3.731   6.771  0.0241 -0.0708 -0.2245
 4897TIP3   OH236249   3.502   6.871   1.918  0.1946  0.1671  0.1081
 4897TIP3    H136250   3.519   6.965   1.918  0.3267  0.1462  0.9255
 4897TIP3    H236251   3.427   6.860   1.975  0.3358 -0.2508  0.2157
 4898TIP3   OH236252   1.147   5.025   0.159  0.0734  0.2412 -0.6260
 4898TIP3    H136253   1.072   4.975   0.126 -0.4577  1.7713 -1.8840
 4898TIP3    H236254   1.134   5.028   0.253  0.5849 -2.6310 -0.3602
 4899TIP3   OH236255   6.675   1.225   6.824  0.2387  0.0153 -0.3100
 4899TIP3    H136256   6.592   1.228   6.776 -0.0556 -0.7981  0.1239
 4899TIP3    H236257   6.667   1.294   6.891 -0.7241 -1.0305  0.6990
 4900TIP3   OH236258   4.565   0.162   7.225 -0.9578 -0.2325 -0.0264
 4900TIP3    H136259   4.508   0.169   7.302  0.1577  1.1160  0.7380
 4900TIP3    H236260   4.654   0.168   7.261 -0.4155  1.1028 -1.4671
 4901TIP3   OH236261   1.897   2.777   7.967 -0.1103  0.0307  0.2108
 4901TIP3    H136262   1.969   2.770   7.906 -1.1647 -0.0678 -1.0676
 4901TIP3    H236263   1.938   2.783   8.053  1.4033  0.2857 -0.5106
 4902TIP3   OH236264   0.924   0.536   7.480  0.2254  0.5870 -0.2272
 4902TIP3    H136265   0.881   0.545   7.566 -0.0713  0.9260 -0.4114
 4902TIP3    H236266   1.017   0.534   7.501  0.1085 -1.8699  0.3460
 4903TIP3   OH236267   1.529   2.371   1.349  0.1463 -0.5129 -0.1563
 4903TIP3    H136268   1.440   2.400   1.367  0.0007 -1.5481  0.9244
 4903TIP3    H236269   1.558   2.425   1.275 -1.7967 -1.0060 -1.3303
 4904TIP3   OH236270   5.737   3.888   7.068 -0.0855 -0.5753 -0.0032
 4904TIP3    H136271   5.657   3.905   7.019  0.7265 -0.3550 -1.2996
 4904TIP3    H236272   5.804   3.874   7.001  1.9521  3.5085  0.8335
 4905TIP3   OH236273   4.847   5.616   0.942 -0.2397  0.6133 -0.1021
 4905TIP3    H136274   4.785   5.580   1.005 -0.5743 -1.0079 -1.2822
 4905TIP3    H236275   4.797   5.679   0.890 -0.1904  1.2811  0.6470
 4906TIP3   OH236276   5.223   4.125   7.805 -0.1693 -0.3855 -0.3421
 4906TIP3    H136277   5.198   4.199   7.751 -0.2421 -0.3769 -0.2976
 4906TIP3    H236278   5.243   4.055   7.743  0.5157 -0.1416 -0.4059
 4907TIP3   OH236279   2.477   0.050   7.638 -0.7154  0.1629 -0.4945
 4907TIP3    H136280   2.474  -0.014   7.567 -1.0901  0.2314 -0.5410
 4907TIP3    H236281   2.566   0.044   7.672 -1.1238 -1.3397  0.3764
 4908TIP3   OH236282   0.429   5.635   0.798  0.3866  0.4665 -0.0042
 4908TIP3    H136283   0.395   5.683   0.723  0.8999 -0.1738 -0.6610
 4908TIP3    H236284   0.416   5.694   0.872 -1.8901  0.3805 -0.2483
 4909TIP3   OH236285   2.388   0.297   0.806  0.1355 -0.0244  0.2816
 4909TIP3    H136286   2.296   0.321   0.796 -0.0988 -0.5433  1.1539
 4909TIP3    H236287   2.427   0.371   0.853 -0.2631 -0.6544  1.6355
 4910TIP3   OH236288   1.723   3.685   1.844 -0.3792  0.3300  0.0929
 4910TIP3    H136289   1.727   3.589   1.845 -0.5188  0.3026 -1.1100
 4910TIP3    H236290   1.702   3.708   1.935  0.8679 -0.7153  0.6853
 4911TIP3   OH236291   0.294   2.761   1.298 -0.6536 -0.0154  0.2714
 4911TIP3    H136292   0.319   2.853   1.302 -1.4717  0.1754  2.4666
 4911TIP3    H236293   0.338   2.727   1.220 -1.2574  2.4824 -1.2683
 4912TIP3   OH236294   5.198   1.176   1.689 -0.0430 -0.1324  0.4470
 4912TIP3    H136295   5.264   1.120   1.648 -0.8927 -0.6521 -0.2509
 4912TIP3    H236296   5.248   1.235   1.746  1.0375 -0.3602 -0.2361
 4913TIP3   OH236297   4.719   1.506   6.729  0.0205  0.3910  0.6177
 4913TIP3    H136298   4.735   1.497   6.635  0.5672 -0.4012  0.7820
 4913TIP3    H236299   4.759   1.590   6.752 -0.4693  0.7802  0.0691
 4914TIP3   OH236300   0.232   2.427   8.078 -0.1245  0.1148 -0.6449
 4914TIP3    H136301   0.297   2.461   8.016 -0.4782 -0.7278 -1.5114
 4914TIP3    H236302   0.246   2.477   8.158  0.2405  1.3461 -1.4573
 4915TIP3   OH236303   5.087   6.662   7.550 -0.2367 -0.3508  0.1678
 4915TIP3    H136304   5.040   6.586   7.516 -0.4008 -0.4873  0.6853
 4915TIP3    H236305   5.036   6.690   7.626  0.1252 -0.0640  0.3121
 4916TIP3   OH236306   3.741   2.275   8.027 -0.0540  0.0451  0.1271
 4916TIP3    H136307   3.740   2.335   7.952  1.3672  1.3724  1.1014
 4916TIP3    H236308   3.650   2.271   8.055 -0.3926  0.6175 -0.8238
 4917TIP3   OH236309   2.651   4.237   1.920  0.6482 -0.3370  0.1542
 4917TIP3    H136310   2.696   4.171   1.869  1.1990  0.4441 -0.3926
 4917TIP3    H236311   2.703   4.317   1.908 -0.7226  0.5266 -0.2922
 4918TIP3   OH236312   1.773   3.482   2.095 -0.5945  0.2756 -0.2707
 4918TIP3    H136313   1.750   3.570   2.124  0.5955  1.1755 -1.8667
 4918TIP3    H236314   1.853   3.460   2.144  0.3179  1.0066 -1.3569
 4919TIP3   OH236315   5.027   5.989   0.409 -0.0604  0.4148  0.0855
 4919TIP3    H136316   4.943   5.984   0.364 -0.8330 -1.5932  1.5609
 4919TIP3    H236317   5.069   5.904   0.392  1.3454  1.0967 -0.0074
 4920TIP3   OH236318   6.528   6.038   8.537 -0.2198 -0.6766  0.5456
 4920TIP3    H136319   6.478   5.960   8.563  0.8268 -1.4838  0.2127
 4920TIP3    H236320   6.583   6.008   8.465 -0.1596  0.5118  0.0828
 4921TIP3   OH236321   2.142   0.272   7.966  0.9184 -0.0166  0.1375
 4921TIP3    H136322   2.173   0.248   8.054  0.3679 -0.9458  0.0972
 4921TIP3    H236323   2.211   0.243   7.907  0.3141 -1.4916  0.0995
 4922TIP3   OH236324   2.514   1.614   2.408 -0.2573  0.4494  0.3091
 4922TIP3    H136325   2.435   1.647   2.451 -0.6842 -2.3458  1.9391
 4922TIP3    H236326   2.488   1.529   2.372  2.3219 -1.3584  2.3234
 4923TIP3   OH236327   3.468   4.357   2.082 -0.2684  0.1292  0.0479
 4923TIP3    H136328   3.528   4.285   2.100  0.5575  0.9719  0.7785
 4923TIP3    H236329   3.511   4.434   2.120 -1.6556  0.8101  0.3063
 4924TIP3   OH236330   6.209   5.640   8.553 -0.4418 -0.7592  0.0460
 4924TIP3    H136331   6.124   5.596   8.559 -0.9288 -0.0199 -1.1676
 4924TIP3    H236332   6.272   5.569   8.541 -1.1589 -1.1881 -1.4023
 4925TIP3   OH236333   5.424   1.275   8.560  0.0303  0.1968  0.6383
 4925TIP3    H136334   5.367   1.247   8.631 -1.8068  0.0893 -0.7943
 4925TIP3    H236335   5.408   1.212   8.490 -0.2550  1.8080 -0.8070
 4926TIP3   OH236336   2.028   4.244   1.430  0.3326  0.0886  0.0804
 4926TIP3    H136337   2.033   4.339   1.418  0.7850  0.0688  0.0775
 4926TIP3    H236338   1.972   4.233   1.507  0.2435  0.3578  0.0562
 4927TIP3   OH236339   0.692   0.656   8.469  0.0544  0.3449  0.3246
 4927TIP3    H136340   0.620   0.656   8.406 -0.1658  0.8136  0.5711
 4927TIP3    H236341   0.651   0.634   8.552  0.4788 -1.1444  0.1760
 4928TIP3   OH236342   5.276   6.687   0.599  0.0278 -0.2322  0.3628
 4928TIP3    H136343   5.302   6.601   0.565  1.1869 -0.8902  2.6738
 4928TIP3    H236344   5.181   6.681   0.608 -0.0711 -0.7396 -0.8118
 4929TIP3   OH236345   3.510   3.736   8.464 -0.3835 -0.1670  0.3465
 4929TIP3    H136346   3.485   3.657   8.512  1.9620 -1.0303  0.2909
 4929TIP3    H236347   3.571   3.781   8.523 -0.2631  0.6482 -0.3807
 4930TIP3   OH236348   5.931   3.025   7.761  0.3402  0.1213 -0.2342
 4930TIP3    H136349   5.859   2.975   7.723 -0.6166  0.0987  1.4924
 4930TIP3    H236350   5.911   3.116   7.739 -1.1329  0.2902  1.5196
 4931TIP3   OH236351   3.745   4.945   1.536 -0.4538 -0.0538  0.1361
 4931TIP3    H136352   3.675   5.007   1.518  0.9478  1.8219  0.8224
 4931TIP3    H236353   3.785   4.930   1.450 -0.7662  0.0440 -0.0288
 4932TIP3   OH236354   1.727   1.605   1.024 -0.7261  0.5658 -0.6028
 4932TIP3    H136355   1.658   1.548   1.059  0.2943  0.7366  1.9551
 4932TIP3    H236356   1.694   1.694   1.039 -0.8649  0.6508 -1.4036
 4933TIP3   OH236357   4.796   2.055   6.951  0.2657 -0.0471  0.0608
 4933TIP3    H136358   4.878   2.094   6.922 -0.6445  1.7573 -0.2728
 4933TIP3    H236359   4.729   2.098   6.898 -0.9004 -1.5722  0.2161
 4934TIP3   OH236360   1.970   4.724   1.979 -0.2306  0.2126 -0.4228
 4934TIP3    H136361   1.890   4.726   2.030 -0.4667  0.5357 -0.8068
 4934TIP3    H236362   2.010   4.640   2.001  0.5390  1.0309  1.6107
 4935TIP3   OH236363   4.533   6.547   6.065  0.5469  0.5662 -0.1227
 4935TIP3    H136364   4.615   6.568   6.110  0.4458  1.5122 -0.3684
 4935TIP3    H236365   4.493   6.632   6.045  1.1114  0.2696 -2.9784
 4936TIP3   OH236366   4.104   6.246   1.347 -0.1328  0.1358 -0.3324
 4936TIP3    H136367   4.019   6.205   1.357  0.0095  0.1621  1.2613
 4936TIP3    H236368   4.160   6.177   1.311 -0.4554 -0.3385  0.0694
 4937TIP3   OH236369   5.919   6.836   7.823 -0.4813  0.2032  0.5067
 4937TIP3    H136370   5.865   6.895   7.772  0.7052  2.1656  1.3854
 4937TIP3    H236371   5.997   6.887   7.844 -0.3361 -0.9317  3.1508
 4938TIP3   OH236372   5.134   2.576   1.566  0.5052  0.3008 -0.1035
 4938TIP3    H136373   5.057   2.561   1.511  0.3766 -0.3235  0.2303
 4938TIP3    H236374   5.154   2.668   1.555  0.1925  0.2884 -0.8230
 4939TIP3   OH236375   0.571   1.700   0.307  0.7961 -0.1868 -0.3271
 4939TIP3    H136376   0.568   1.793   0.329  1.4131 -0.2843  0.1897
 4939TIP3    H236377   0.530   1.656   0.382  2.1319 -0.4535  0.2827
 4940TIP3   OH236378   1.129   5.509   8.303  0.0312  0.5196 -0.2942
 4940TIP3    H136379   1.125   5.417   8.276  0.3881  0.2220  0.6382
 4940TIP3    H236380   1.142   5.557   8.221 -2.4590 -0.0467 -1.1268
 4941TIP3   OH236381   5.099   3.559   8.134 -0.4603 -0.1289 -0.6438
 4941TIP3    H136382   5.062   3.492   8.191  0.5480  1.5508  2.1618
 4941TIP3    H236383   5.049   3.638   8.155  1.0831  0.9198 -0.7964
 4942TIP3   OH236384   2.109   5.664   7.200  0.1899  0.0616 -0.0761
 4942TIP3    H136385   2.200   5.671   7.229  0.7419 -1.6375 -1.2388
 4942TIP3    H236386   2.113   5.611   7.120 -1.9021 -0.7113  0.2731
 4943TIP3   OH236387   5.109   5.719   0.445  0.8517  0.2219 -0.4082
 4943TIP3    H136388   5.169   5.759   0.509  0.2312  1.0219 -0.3062
 4943TIP3    H236389   5.088   5.634   0.482  0.8905  0.4751  0.2148
 4944TIP3   OH236390   5.629   3.949   6.818  0.4969  0.6775  0.4522
 4944TIP3    H136391   5.700   4.003   6.782  0.6598  1.7792  2.3016
 4944TIP3    H236392   5.560   4.011   6.839 -1.0346 -0.3730 -1.2304
 4945TIP3   OH236393   2.882   2.133   1.541  0.0485  0.3734 -0.1640
 4945TIP3    H136394   2.915   2.092   1.620 -1.1242 -0.8618 -0.2775
 4945TIP3    H236395   2.819   2.198   1.572  0.4922  0.7512 -0.0484
 4946TIP3   OH236396   3.329   5.376   6.839  0.2923  0.2810 -0.2886
 4946TIP3    H136397   3.260   5.313   6.859  1.1878 -0.0323  2.1210
 4946TIP3    H236398   3.363   5.349   6.754  0.6097 -2.5112  0.6437
 4947TIP3   OH236399   6.429   4.090   0.545  0.5783 -0.2147  0.4266
 4947TIP3    H136400   6.485   4.032   0.495 -2.9128 -2.2374 -1.5385
 4947TIP3    H236401   6.382   4.033   0.606 -2.0305  0.6503 -0.6455
 4948TIP3   OH236402   3.540   3.711   1.038  0.0325 -0.0528  0.2302
 4948TIP3    H136403   3.464   3.687   0.984  0.4761 -0.9891 -0.0037
 4948TIP3    H236404   3.614   3.709   0.977  0.1937  1.3168  0.3509
 4949TIP3   OH236405   3.249   4.137   2.330  0.1433  0.0929 -0.3528
 4949TIP3    H136406   3.295   4.202   2.383  0.3460  0.2343 -0.6990
 4949TIP3    H236407   3.249   4.058   2.384 -0.2946  0.4364  0.1623
 4950TIP3   OH236408   3.353   6.658   0.755 -0.1195  0.4606 -0.4317
 4950TIP3    H136409   3.277   6.642   0.699 -1.0744 -1.2835  1.2290
 4950TIP3    H236410   3.370   6.574   0.797  0.4903  1.6806  1.9365
 4951TIP3   OH236411   1.334   4.024   0.336  0.1036 -0.6816  0.5475
 4951TIP3    H136412   1.245   4.009   0.305 -0.3093  0.6373  1.0279
 4951TIP3    H236413   1.385   4.037   0.257 -0.3935 -0.1629  0.2991
 4952TIP3   OH236414   1.033   5.997   7.060  0.3764 -0.2219 -0.3259
 4952TIP3    H136415   1.108   5.990   7.120  0.0863 -0.9766 -0.0540
 4952TIP3    H236416   0.980   6.068   7.097  0.9003  0.2490 -0.4615
 4953TIP3   OH236417   2.984   1.243   0.105  0.2964  0.1663  0.8713
 4953TIP3    H136418   2.892   1.247   0.080  0.7354 -0.8435 -1.1137
 4953TIP3    H236419   3.031   1.281   0.031  1.5388 -0.1743  1.4506
 4954TIP3   OH236420   3.049   4.591   7.682  0.1704 -0.3300 -0.0610
 4954TIP3    H136421   2.993   4.649   7.733 -0.2974 -0.6701 -0.1829
 4954TIP3    H236422   3.132   4.638   7.675 -0.1239  0.2124  0.0521
 4955TIP3   OH236423   0.079   1.007   6.334  0.2397  0.1793 -0.2162
 4955TIP3    H136424   0.062   1.047   6.420  0.1561 -0.6644  0.1704
 4955TIP3    H236425   0.055   1.075   6.271 -1.5239  0.1714  0.3867
 4956TIP3   OH236426   0.306   5.105   7.725  0.2400  0.4599  0.0972
 4956TIP3    H136427   0.257   5.125   7.645  0.1737 -0.9815 -0.2444
 4956TIP3    H236428   0.250   5.043   7.772  1.4536 -0.7932 -0.0435
 4957TIP3   OH236429   0.014   1.009   7.807  0.1134 -0.0379 -0.0322
 4957TIP3    H136430  -0.061   0.952   7.824 -0.5595  0.4618 -1.2043
 4957TIP3    H236431   0.073   0.956   7.753  0.8364 -0.5812  1.2473
 4958TIP3   OH236432   4.267   0.266   1.820 -0.2617  0.5601  0.0193
 4958TIP3    H136433   4.199   0.287   1.884 -0.4594  0.1503 -0.0527
 4958TIP3    H236434   4.265   0.170   1.813  1.7781  0.3189  1.6447
 4959TIP3   OH236435   0.781   2.476   1.459  0.1700 -0.2765  0.3481
 4959TIP3    H136436   0.775   2.571   1.470  2.5069  0.1621 -1.4380
 4959TIP3    H236437   0.849   2.449   1.521  0.8914 -0.4542 -0.5008
 4960TIP3   OH236438   5.256   3.989   0.507 -0.5980  0.3437  0.0254
 4960TIP3    H136439   5.231   4.072   0.468 -0.9607  0.3091  0.1844
 4960TIP3    H236440   5.212   3.923   0.453  1.3288  0.1345 -1.3955
 4961TIP3   OH236441   1.359   3.354   8.403  0.1203 -0.0395 -0.2861
 4961TIP3    H136442   1.442   3.328   8.362  0.1291  0.0388 -0.3181
 4961TIP3    H236443   1.352   3.298   8.480  1.6082  1.8591  1.3442
 4962TIP3   OH236444   2.631   1.120   7.651  0.6477 -0.3972  0.9016
 4962TIP3    H136445   2.679   1.125   7.569 -0.2821  1.1348  0.4051
 4962TIP3    H236446   2.643   1.029   7.681  3.9555 -0.0596  0.9338
 4963TIP3   OH236447   5.980   2.094   8.625  0.2980  0.1510  0.1868
 4963TIP3    H136448   6.018   2.125   8.707  0.1198  1.5420 -0.2190
 4963TIP3    H236449   5.981   1.999   8.632  0.3574  0.2443  1.7554
 4964TIP3   OH236450   1.359   0.103   7.091 -0.2602 -0.1278  0.8359
 4964TIP3    H136451   1.296   0.057   7.035 -1.8353  0.6018  1.9417
 4964TIP3    H236452   1.374   0.044   7.164  1.0556 -0.6676  0.1639
 4965TIP3   OH236453   4.880   2.327   6.706 -0.1956  0.1075 -0.5568
 4965TIP3    H136454   4.923   2.407   6.676 -1.1791  0.5641 -0.7802
 4965TIP3    H236455   4.941   2.290   6.770  0.1837  1.1258 -0.3156
 4966TIP3   OH236456   6.038   6.456   6.077 -0.0387 -0.2376 -0.2920
 4966TIP3    H136457   6.019   6.544   6.107  0.9821  0.8861 -2.7000
 4966TIP3    H236458   6.117   6.465   6.023 -0.4359 -2.4430 -1.3605
 4967TIP3   OH236459   6.399   4.223   0.165 -0.1671  0.0391 -0.4436
 4967TIP3    H136460   6.369   4.244   0.077  0.9923  2.1482 -0.4158
 4967TIP3    H236461   6.479   4.172   0.152  1.4346  2.4759 -0.7484
 4968TIP3   OH236462   0.631   4.048   7.622 -0.4464  0.2466 -0.1848
 4968TIP3    H136463   0.719   4.043   7.660 -1.0986  0.3709  1.4089
 4968TIP3    H236464   0.634   4.126   7.567  0.2874  0.5587  0.2787
 4969TIP3   OH236465   1.618   3.793   6.770 -0.5549 -0.4842  0.1957
 4969TIP3    H136466   1.678   3.794   6.845  0.7601 -0.0819 -0.8342
 4969TIP3    H236467   1.534   3.768   6.808  0.2340 -1.0000  1.6939
 4970TIP3   OH236468   1.128   2.007   0.386  0.5246 -0.3937  0.1322
 4970TIP3    H136469   1.202   1.984   0.442 -0.5849  0.2377  1.9555
 4970TIP3    H236470   1.099   1.924   0.349  0.5722 -1.0332  1.4698
 4971TIP3   OH236471   2.476   2.337   7.145 -0.3150  0.7892 -0.2758
 4971TIP3    H136472   2.563   2.369   7.119 -0.6243  1.3757 -0.6245
 4971TIP3    H236473   2.475   2.347   7.240 -0.1303  1.1362 -0.3060
 4972TIP3   OH236474   4.591   1.647   1.220 -0.0913  0.0618 -0.3515
 4972TIP3    H136475   4.524   1.582   1.241  0.8361 -0.8415 -0.0799
 4972TIP3    H236476   4.587   1.657   1.125 -2.1943  1.8183 -0.1609
 4973TIP3   OH236477   0.143   2.757   7.681 -0.3864  0.7480 -0.2888
 4973TIP3    H136478   0.225   2.789   7.643 -0.3617  1.4129  0.2935
 4973TIP3    H236479   0.100   2.836   7.715 -1.0866  0.3573 -0.2388
 4974TIP3   OH236480   3.518   0.272   0.134  0.0710 -0.8468 -0.2201
 4974TIP3    H136481   3.586   0.269   0.200  1.4384 -1.9035 -1.5980
 4974TIP3    H236482   3.480   0.360   0.141  3.6093  0.9346 -1.3411
 4975TIP3   OH236483   4.970   0.741   8.405  0.5904  0.1671 -0.4478
 4975TIP3    H136484   5.002   0.814   8.351  0.3709  1.1252  0.6666
 4975TIP3    H236485   4.897   0.778   8.454  1.2658 -0.4294  1.0769
 4976TIP3   OH236486   4.017   3.660   7.110  0.4727  0.0026 -0.2942
 4976TIP3    H136487   3.958   3.597   7.150  2.1264 -1.2502  0.2591
 4976TIP3    H236488   3.969   3.691   7.033 -0.0941 -2.5253 -1.0530
 4977TIP3   OH236489   0.168   4.897   7.213  0.3942 -0.0171 -0.0754
 4977TIP3    H136490   0.236   4.935   7.268  0.8854  0.2072 -0.8237
 4977TIP3    H236491   0.210   4.821   7.172  0.3925  0.4601 -0.9932
 4978TIP3   OH236492   3.621   4.305   7.137 -0.0425 -0.0837  0.1128
 4978TIP3    H136493   3.631   4.400   7.140  0.6881 -0.1090 -1.0408
 4978TIP3    H236494   3.605   4.285   7.045 -3.3897 -0.8230  0.7069
 4979TIP3   OH236495   3.167   6.315   0.485  0.2570 -0.4191  0.4473
 4979TIP3    H136496   3.116   6.270   0.553 -4.2308  0.8912 -1.6493
 4979TIP3    H236497   3.188   6.246   0.422 -0.4328 -0.7816  0.5967
 4980TIP3   OH236498   0.781   1.653   7.796 -0.0265  0.1388  0.0175
 4980TIP3    H136499   0.795   1.595   7.871 -1.2852 -1.0214 -0.5979
 4980TIP3    H236500   0.691   1.684   7.806  0.6820  2.1919  0.4326
 4981TIP3   OH236501   2.666   2.521   8.493 -0.2900 -0.1166 -0.0698
 4981TIP3    H136502   2.588   2.551   8.448 -0.9202  2.5455  2.4855
 4981TIP3    H236503   2.710   2.463   8.430 -2.9300  0.3731 -2.5486
 4982TIP3   OH236504   4.080   5.888   0.610  0.6204  0.5811 -0.1786
 4982TIP3    H136505   4.118   5.823   0.552 -0.9979 -0.3196 -0.2985
 4982TIP3    H236506   4.047   5.957   0.552 -0.7621 -0.1941 -0.3595
 4983TIP3   OH236507   0.124   5.569   6.427 -0.3452 -0.4384  0.0223
 4983TIP3    H136508   0.208   5.600   6.461 -0.7874  0.8140  0.0032
 4983TIP3    H236509   0.146   5.489   6.378  1.1492  0.8678 -1.5765
 4984TIP3   OH236510   2.786   0.598   2.043  0.0845  0.2150  0.5115
 4984TIP3    H136511   2.725   0.542   1.993  1.1181 -0.8427  0.4041
 4984TIP3    H236512   2.806   0.670   1.983  3.3769 -2.3503 -1.8448
 4985TIP3   OH236513   4.223   6.550   1.116  0.2930 -0.1485  0.1809
 4985TIP3    H136514   4.274   6.469   1.113 -0.0422 -0.3397 -0.6520
 4985TIP3    H236515   4.268   6.608   1.054  0.6549  0.3844  0.9267
 4986TIP3   OH236516   3.757   2.579   8.172  0.0971  0.1388  0.2977
 4986TIP3    H136517   3.690   2.513   8.156  0.5485 -0.2594  0.0292
 4986TIP3    H236518   3.818   2.537   8.233  0.7577  0.0521 -0.4127
 4987TIP3   OH236519   6.282   5.205   8.387  0.4073 -0.2712 -0.5331
 4987TIP3    H136520   6.327   5.199   8.472  1.4313 -3.0638 -1.1704
 4987TIP3    H236521   6.292   5.118   8.349 -1.7981  0.3229 -2.6678
 4988TIP3   OH236522   6.680   5.781   0.320  0.1330  0.8314 -0.0848
 4988TIP3    H136523   6.657   5.760   0.229 -3.7847 -1.1421  1.1372
 4988TIP3    H236524   6.659   5.701   0.369  1.4568  2.0684  2.7140
 4989TIP3   OH236525   4.700   6.845   7.036  0.5956 -0.9931  0.1775
 4989TIP3    H136526   4.623   6.863   7.090  0.8547  1.0298 -0.0322
 4989TIP3    H236527   4.774   6.875   7.088  0.7347  2.6913 -1.7829
 4990TIP3   OH236528   6.351   0.998   7.100  0.7512  0.1523  0.2516
 4990TIP3    H136529   6.426   0.977   7.044  2.6157 -1.2031  3.0532
 4990TIP3    H236530   6.349   1.093   7.103  0.9211  0.2482 -1.6278
 4991TIP3   OH236531   0.470   5.502   6.091 -0.3473 -0.0860  0.1941
 4991TIP3    H136532   0.385   5.517   6.049 -0.4421  0.4426  0.5554
 4991TIP3    H236533   0.451   5.441   6.162 -1.0300  2.2343  2.1475
 4992TIP3   OH236534   2.037   1.720   8.251  0.2514 -0.2102  0.1920
 4992TIP3    H136535   1.985   1.703   8.173  1.8055 -1.6765 -0.5900
 4992TIP3    H236536   2.016   1.647   8.310 -0.6961  0.7332  1.0703
 4993TIP3   OH236537   2.189   1.844   1.689  0.3425 -0.1128 -0.0255
 4993TIP3    H136538   2.142   1.762   1.706  0.5297 -0.1749  0.1975
 4993TIP3    H236539   2.167   1.900   1.763  0.0809  0.0989 -0.2629
 4994TIP3   OH236540   0.465   0.547   0.054 -0.4264 -0.7901  0.7593
 4994TIP3    H136541   0.436   0.532   0.144 -0.3060 -0.1013  0.9187
 4994TIP3    H236542   0.546   0.496   0.046  0.1996  0.0547  1.4186
 4995TIP3   OH236543   1.197   1.938   5.900  0.5026  0.0331  0.3580
 4995TIP3    H136544   1.133   1.867   5.894  0.7250 -0.2549  1.1716
 4995TIP3    H236545   1.281   1.893   5.911  1.0285  0.3749 -1.8666
 4996TIP3   OH236546   3.191   2.349   7.491  0.0288  0.0050 -0.2928
 4996TIP3    H136547   3.183   2.357   7.396  2.1269  2.7778 -0.3472
 4996TIP3    H236548   3.110   2.386   7.525  0.3505  1.4622 -1.0200
 4997TIP3   OH236549   6.169   1.593   1.778 -0.5384 -0.1479  0.1357
 4997TIP3    H136550   6.115   1.615   1.853 -1.3950  1.3029 -0.8496
 4997TIP3    H236551   6.131   1.512   1.744 -1.3953  0.2405  0.1370
 4998TIP3   OH236552   2.309   6.339   1.255  0.1039  0.0167 -0.3360
 4998TIP3    H136553   2.402   6.359   1.247  0.2985 -0.6237  0.1734
 4998TIP3    H236554   2.268   6.384   1.182  0.9379 -0.4083 -1.0907
 4999TIP3   OH236555   3.241   3.584   0.002  0.4306 -0.4759 -0.4148
 4999TIP3    H136556   3.186   3.622   0.070  0.5909  0.3073 -0.7039
 4999TIP3    H236557   3.328   3.579   0.041 -0.0398 -2.8911  0.4848
 5000TIP3   OH236558   5.716   3.973   2.376  0.0702  0.0668  0.7038
 5000TIP3    H136559   5.622   3.973   2.390  0.0845 -0.0672  0.8122
 5000TIP3    H236560   5.746   3.891   2.416  0.0667 -0.5256 -0.4713
 5001TIP3   OH236561   0.984   0.873   1.015 -0.0026 -0.1754 -0.5880
 5001TIP3    H136562   0.988   0.851   1.108  0.5455 -2.5954 -1.1156
 5001TIP3    H236563   1.004   0.791   0.970  0.4787  1.1029 -2.8533
 5002TIP3   OH236564   3.893   3.354   8.326 -0.0436  0.1181 -0.2236
 5002TIP3    H136565   3.966   3.307   8.285 -1.2133  0.4840 -2.9799
 5002TIP3    H236566   3.916   3.447   8.318  0.3076  0.1780  1.2482
 5003TIP3   OH236567   1.485   4.994   0.427 -0.2377  0.6818  0.0782
 5003TIP3    H136568   1.493   5.075   0.477  1.7454 -0.6956  2.1804
 5003TIP3    H236569   1.575   4.971   0.405 -0.6535 -1.4596  0.4506
 5004TIP3   OH236570   4.117   1.373   0.400 -0.2353  0.3754 -0.3600
 5004TIP3    H136571   4.074   1.355   0.484 -0.3744 -0.7131 -0.6505
 5004TIP3    H236572   4.204   1.404   0.424  0.2100 -1.2104  0.1863
 5005TIP3   OH236573   1.882   5.450   0.562  0.8466 -0.6625 -0.4191
 5005TIP3    H136574   1.880   5.506   0.484 -0.0249 -0.1646 -0.0533
 5005TIP3    H236575   1.812   5.484   0.618  0.2227 -2.1745 -0.2302
 5006TIP3   OH236576   2.522   3.831   7.102  0.0384 -0.0254  0.4886
 5006TIP3    H136577   2.562   3.860   7.183 -0.1848 -0.5183  0.7782
 5006TIP3    H236578   2.546   3.739   7.094 -2.1399 -0.7338  1.3849
 5007TIP3   OH236579   5.209   1.218   2.019 -0.0293  0.2515  0.0334
 5007TIP3    H136580   5.129   1.205   2.070 -1.2013  1.7936 -1.2957
 5007TIP3    H236581   5.228   1.311   2.028  1.2126  0.0363 -0.2584
 5008TIP3   OH236582   0.762   5.134   1.513 -0.2224 -0.0564 -0.1090
 5008TIP3    H136583   0.823   5.062   1.527 -0.5324 -0.4224 -0.6017
 5008TIP3    H236584   0.761   5.181   1.597 -0.1786 -0.7464  0.2866
 5009TIP3   OH236585   0.064   1.381   1.106 -0.0413  0.2760  0.1198
 5009TIP3    H136586  -0.006   1.322   1.078  1.4531 -0.4869 -2.3740
 5009TIP3    H236587   0.038   1.410   1.193 -1.6795 -2.7675  0.7880
 5010TIP3   OH236588   3.600   3.874   0.096  0.0921  0.3308  0.3884
 5010TIP3    H136589   3.584   3.795   0.147  0.0853 -0.1266 -0.3083
 5010TIP3    H236590   3.521   3.926   0.108 -0.5697 -0.4642 -0.3941
 5011TIP3   OH236591   2.856   0.698   1.265 -0.4163  0.4536  0.2043
 5011TIP3    H136592   2.858   0.604   1.251 -0.0822  0.4908 -0.0046
 5011TIP3    H236593   2.767   0.716   1.295 -0.5927  0.1202 -0.1118
 5012TIP3   OH236594   6.262   0.330   7.608  0.1253  0.4242 -0.1076
 5012TIP3    H136595   6.275   0.241   7.641 -0.9386 -0.4017 -1.7624
 5012TIP3    H236596   6.275   0.387   7.684 -0.4188 -1.2291  1.2751
 5013TIP3   OH236597   1.034   0.275   6.289 -0.1289  0.1830 -0.3835
 5013TIP3    H136598   1.078   0.328   6.222 -0.7890 -0.2474 -1.1693
 5013TIP3    H236599   1.057   0.318   6.372  1.0753  0.4524 -0.8351
 5014TIP3   OH236600   1.418   5.393   0.787 -0.2379 -0.4836 -0.5697
 5014TIP3    H136601   1.483   5.430   0.846  0.6368 -1.7953 -0.6799
 5014TIP3    H236602   1.341   5.449   0.799  0.2553 -0.0863  1.0224
 5015TIP3   OH236603   4.218   2.652   6.714 -0.2884 -0.4735  0.3973
 5015TIP3    H136604   4.249   2.565   6.688  0.3941 -0.2231  0.3655
 5015TIP3    H236605   4.296   2.696   6.747 -0.9524 -0.4448  1.9724
 5016TIP3   OH236606   3.461   5.651   5.916  0.1554 -0.1119  0.9100
 5016TIP3    H136607   3.436   5.699   5.995  1.2144 -0.3953  1.4363
 5016TIP3    H236608   3.455   5.558   5.941 -2.1588 -0.3384 -0.1834
 5017TIP3   OH236609   4.901   0.402   1.043  0.2912  0.1382  0.0090
 5017TIP3    H136610   4.877   0.361   1.126 -0.5051  3.0618  1.3266
 5017TIP3    H236611   4.818   0.417   0.998  0.6036 -0.0840 -0.6621
 5018TIP3   OH236612   4.449   3.186   0.119  0.5403 -0.2619 -0.6580
 5018TIP3    H136613   4.361   3.179   0.082  0.1998  0.0445  0.0759
 5018TIP3    H236614   4.438   3.162   0.211  0.8747  1.5137 -0.1232
 5019TIP3   OH236615   1.793   5.369   7.930 -0.4847  0.2302  0.1335
 5019TIP3    H136616   1.791   5.274   7.931  1.2548  0.0960 -2.1074
 5019TIP3    H236617   1.878   5.392   7.968  0.7360  0.6634 -2.6643
 5020TIP3   OH236618   2.546   2.490   8.041 -0.2900  0.0124 -0.3867
 5020TIP3    H136619   2.572   2.416   8.096  1.1168  0.3423 -0.5490
 5020TIP3    H236620   2.621   2.502   7.982 -0.4825  1.5629 -0.3502
 5021TIP3   OH236621   6.732   5.549   8.024  0.2444 -0.1207 -0.3481
 5021TIP3    H136622   6.791   5.507   7.962  1.8082  0.6221  0.5808
 5021TIP3    H236623   6.727   5.640   7.994  0.0626 -0.0404 -0.0763
 5022TIP3   OH236624   4.211   3.998   8.127  0.7217  0.2223  0.1419
 5022TIP3    H136625   4.285   3.974   8.072  0.2648  0.4241 -0.5683
 5022TIP3    H236626   4.155   3.920   8.128  2.6654 -1.3721  3.7259
 5023TIP3   OH236627   5.633   2.027   6.674  0.6497  0.5491 -0.3374
 5023TIP3    H136628   5.722   2.003   6.645  0.6244 -0.2909  0.2529
 5023TIP3    H236629   5.597   1.946   6.710 -0.8444  0.5267 -1.7315
 5024TIP3   OH236630   0.482   4.800   1.277 -0.4305 -0.3203  0.1834
 5024TIP3    H136631   0.407   4.768   1.327 -1.0799 -1.7293 -1.5883
 5024TIP3    H236632   0.543   4.726   1.275  0.5074  0.4153  0.6025
 5025TIP3   OH236633   2.052   2.764   0.962  0.1280  0.2538 -0.0127
 5025TIP3    H136634   2.102   2.785   0.883  0.2910  1.2448  0.3493
 5025TIP3    H236635   1.998   2.841   0.977 -0.8727 -0.4642  0.1008
 5026TIP3   OH236636   3.172   4.719   1.476 -0.9857  0.3072  0.1775
 5026TIP3    H136637   3.190   4.809   1.450 -0.5476  0.1411 -0.0927
 5026TIP3    H236638   3.089   4.697   1.433 -0.0226 -0.1406 -1.5190
 5027TIP3   OH236639   0.667   1.593   7.026 -0.5915 -0.0995 -0.6162
 5027TIP3    H136640   0.719   1.561   7.099 -0.5033  1.3570 -0.0070
 5027TIP3    H236641   0.701   1.546   6.950 -0.0138 -0.9077  0.1303
 5028TIP3   OH236642   5.253   2.503   0.956  0.1865  0.6457 -0.1373
 5028TIP3    H136643   5.340   2.538   0.934  0.5610 -0.0499  0.2003
 5028TIP3    H236644   5.248   2.512   1.051  0.2147 -0.0382 -0.0649
 5029TIP3   OH236645   3.906   4.955   8.446 -0.3846 -0.1097 -0.3697
 5029TIP3    H136646   3.931   5.032   8.396  0.3112 -0.2306 -0.2123
 5029TIP3    H236647   3.832   4.918   8.397 -0.4283  0.3938 -0.6927
 5030TIP3   OH236648   2.896   5.554   1.030 -0.5002 -0.8405 -0.5216
 5030TIP3    H136649   2.959   5.572   1.100 -1.3750 -0.8084  0.2790
 5030TIP3    H236650   2.867   5.465   1.046  2.4334 -2.5188 -3.3852
 5031TIP3   OH236651   3.406   2.692   7.647  0.1547  0.2582  0.5067
 5031TIP3    H136652   3.440   2.603   7.641  1.5248  0.8343 -1.2578
 5031TIP3    H236653   3.440   2.726   7.730  1.5892 -0.1402  0.1166
 5032TIP3   OH236654   4.158   2.133   1.670  0.1408  0.1863  0.5267
 5032TIP3    H136655   4.210   2.102   1.744  0.2744  1.1533  0.8504
 5032TIP3    H236656   4.072   2.153   1.708  0.5913  1.9497  0.7262
 5033TIP3   OH236657   1.167   1.612   6.681  0.2981 -0.3486  0.2321
 5033TIP3    H136658   1.243   1.627   6.737  1.7391  0.8945 -1.8956
 5033TIP3    H236659   1.204   1.602   6.593 -1.8048 -2.6892 -0.5203
 5034TIP3   OH236660   1.346   6.658   8.596 -0.5752 -0.8770 -0.1644
 5034TIP3    H136661   1.370   6.673   8.687 -0.0419  1.7991 -0.6568
 5034TIP3    H236662   1.425   6.623   8.555  0.0735  0.4843 -0.1279
 5035TIP3   OH236663   2.505   0.857   7.840  0.2591 -0.0770 -0.2325
 5035TIP3    H136664   2.553   0.815   7.769  1.7122  0.5251  0.3486
 5035TIP3    H236665   2.571   0.911   7.885 -0.7319 -0.0209  1.2267
 5036TIP3   OH236666   6.809   4.637   2.114  0.3894 -0.4797 -0.2807
 5036TIP3    H136667   6.795   4.604   2.025  2.5417  0.8758 -1.2202
 5036TIP3    H236668   6.732   4.609   2.163 -0.6297 -1.7021 -2.4404
 5037TIP3   OH236669   2.135   2.717   7.856  0.2168  0.7695 -0.1320
 5037TIP3    H136670   2.167   2.698   7.768 -0.1694  0.2088 -0.1605
 5037TIP3    H236671   2.205   2.687   7.914  0.2340  0.6142 -0.2312
 5038TIP3   OH236672   2.100   5.403   8.547 -0.0336 -0.0543 -0.1149
 5038TIP3    H136673   2.092   5.498   8.562 -0.4230 -0.2382  0.8942
 5038TIP3    H236674   2.032   5.384   8.482 -1.7927 -0.0523  1.6250
 5039TIP3   OH236675   6.216   3.497   7.459 -0.2081 -0.6253  0.0606
 5039TIP3    H136676   6.202   3.434   7.529  1.4001 -1.2222 -0.1056
 5039TIP3    H236677   6.197   3.447   7.379  0.5463 -0.7427 -0.0462
 5040TIP3   OH236678   0.526   6.543   0.047  0.1304  0.8498 -0.3368
 5040TIP3    H136679   0.452   6.582   0.001 -0.0912  1.7095  0.7006
 5040TIP3    H236680   0.593   6.612   0.049  0.1527  0.8202  0.5460
 5041TIP3   OH236681   0.648   0.826   0.173  0.0996  0.3899  0.2878
 5041TIP3    H136682   0.693   0.911   0.181  0.8784 -0.0564  0.7749
 5041TIP3    H236683   0.568   0.846   0.125  0.1764  1.4407  0.5694
 5042TIP3   OH236684   1.329   1.076   1.710 -0.4763  1.1218  0.0284
 5042TIP3    H136685   1.254   1.075   1.770 -0.5356  2.5394  0.0116
 5042TIP3    H236686   1.378   1.154   1.734 -1.2225  2.5452 -2.6016
 5043TIP3   OH236687   0.158   1.392   7.549 -0.1023 -0.6548 -0.7907
 5043TIP3    H136688   0.084   1.408   7.490  0.1953  0.4978 -0.8619
 5043TIP3    H236689   0.233   1.381   7.491  0.1288  0.1373 -0.6489
 5044TIP3   OH236690   0.783   4.874   1.850 -0.8247  0.3580 -0.0312
 5044TIP3    H136691   0.782   4.955   1.901 -0.3474 -0.5451  1.4910
 5044TIP3    H236692   0.818   4.899   1.765  0.5389  1.5309  0.8381
 5045TIP3   OH236693   1.042   0.637   1.911 -0.5533  1.0792  0.0208
 5045TIP3    H136694   0.959   0.649   1.957  0.0753  0.6349  1.3311
 5045TIP3    H236695   1.063   0.723   1.877 -1.6036  1.1721 -0.4283
 5046TIP3   OH236696   2.261   3.844   0.709 -0.1596  0.3937 -0.3903
 5046TIP3    H136697   2.267   3.761   0.756 -1.8177 -0.1691 -1.0753
 5046TIP3    H236698   2.285   3.822   0.618 -1.3656  0.4568 -0.7438
 5047TIP3   OH236699   2.038   4.594   2.347  0.3856  1.3510 -0.3075
 5047TIP3    H136700   2.102   4.523   2.342  1.9393  2.7214 -1.0205
 5047TIP3    H236701   1.953   4.550   2.352  1.2846 -0.5292 -0.6343
 5048TIP3   OH236702   2.394   6.493   0.865  0.2480  0.6923 -0.1958
 5048TIP3    H136703   2.395   6.473   0.771 -0.0471  1.2639 -0.3255
 5048TIP3    H236704   2.449   6.425   0.905  1.3864  1.1601 -0.9289
 5049TIP3   OH236705   1.508   4.191   8.468 -0.2799  0.2478 -0.1291
 5049TIP3    H136706   1.483   4.200   8.376 -0.7551  0.3401  0.0077
 5049TIP3    H236707   1.586   4.135   8.466  0.4793  1.2750 -0.6982
 5050TIP3   OH236708   6.665   0.300   2.281  0.2929  0.3746 -0.6527
 5050TIP3    H136709   6.696   0.370   2.339 -0.7092  0.5708 -0.3393
 5050TIP3    H236710   6.605   0.249   2.335 -0.6338  0.5370 -1.4991
 5051TIP3   OH236711   2.360   6.625   0.155 -0.2019 -0.3436 -0.2705
 5051TIP3    H136712   2.414   6.567   0.101 -2.1838 -4.1378  1.4266
 5051TIP3    H236713   2.392   6.610   0.244 -0.0802  2.1448  0.1744
 5052TIP3   OH236714   0.348   3.375   6.944  0.4686 -0.0078  0.3558
 5052TIP3    H136715   0.283   3.333   7.000  0.4060  0.2925  0.5108
 5052TIP3    H236716   0.315   3.361   6.855 -0.8515  1.8008  0.4971
 5053TIP3   OH236717   0.502   1.699   7.822  0.2929  0.7227 -0.0542
 5053TIP3    H136718   0.488   1.644   7.899  0.8074  2.0011  0.9834
 5053TIP3    H236719   0.427   1.680   7.766 -0.4009  0.1758  1.0186
 5054TIP3   OH236720   2.291   6.440   7.396  0.0468  0.0942 -0.0931
 5054TIP3    H136721   2.259   6.472   7.311 -0.4261  0.2968  0.1601
 5054TIP3    H236722   2.364   6.383   7.373 -0.9287 -0.9524 -0.7340
 5055TIP3   OH236723   3.945   5.441   1.734  0.2021 -0.3320  0.0158
 5055TIP3    H136724   3.852   5.464   1.731  0.0249 -1.0398 -0.2892
 5055TIP3    H236725   3.971   5.458   1.825 -0.0721  0.4189 -0.0385
 5056TIP3   OH236726   2.168   6.399   8.183 -0.4761  0.0998  0.4893
 5056TIP3    H136727   2.155   6.493   8.197  0.1890  0.1179  1.0497
 5056TIP3    H236728   2.141   6.358   8.264  0.0159 -0.1145  0.5515
 5057TIP3   OH236729   5.907   0.143   0.557 -0.0497  0.0060 -0.3402
 5057TIP3    H136730   5.842   0.151   0.487  0.3138  1.6484 -0.5291
 5057TIP3    H236731   5.879   0.207   0.623 -0.2438 -1.3352  0.9330
 5058TIP3   OH236732   0.765   5.461   0.358  0.1597 -0.2225 -0.1821
 5058TIP3    H136733   0.828   5.410   0.409 -1.5151 -0.8032  1.3978
 5058TIP3    H236734   0.730   5.526   0.419 -0.7777  0.0769 -1.0019
 5059TIP3   OH236735   6.533   6.178   1.320 -0.0869 -0.3670 -0.4915
 5059TIP3    H136736   6.480   6.208   1.394  0.9841  1.3225 -0.3462
 5059TIP3    H236737   6.482   6.107   1.281 -1.8669  0.3735  0.3634
 5060TIP3   OH236738   0.960   2.365   6.818 -0.7095  0.2644  0.1048
 5060TIP3    H136739   1.052   2.389   6.821 -0.5828 -0.0032 -1.0521
 5060TIP3    H236740   0.945   2.338   6.727 -2.1225  1.0640  0.0667
 5061TIP3   OH236741   2.107   6.214   8.373  0.4724 -0.0530 -0.3982
 5061TIP3    H136742   2.086   6.130   8.332 -0.2360 -0.7557  1.3296
 5061TIP3    H236743   2.189   6.197   8.421 -0.3072 -0.1408  0.9498
 5062TIP3   OH236744   4.122   2.413   8.108  0.1935  0.0920 -0.0363
 5062TIP3    H136745   4.143   2.432   8.017 -2.1008  2.1340 -0.2367
 5062TIP3    H236746   4.041   2.363   8.103 -1.4288  2.4720  0.8515
 5063TIP3   OH236747   5.316   5.646   1.149 -0.1230 -0.6663 -0.3553
 5063TIP3    H136748   5.353   5.613   1.231  0.4217 -1.9269 -1.0892
 5063TIP3    H236749   5.256   5.577   1.121 -1.6924  0.5450 -0.1267
 5064TIP3   OH236750   3.246   1.232   0.424 -1.0013  0.2012  0.5628
 5064TIP3    H136751   3.213   1.166   0.363 -1.1756  0.0178  0.8555
 5064TIP3    H236752   3.263   1.184   0.505  2.1216 -0.2106 -0.2133
 5065TIP3   OH236753   1.701   0.207   0.900 -0.3620 -0.3366 -0.1695
 5065TIP3    H136754   1.794   0.205   0.878  0.0653 -2.1579  1.4641
 5065TIP3    H236755   1.663   0.272   0.841  1.6107 -0.8506 -2.1360
 5066TIP3   OH236756   3.237   6.112   1.132  0.0184 -0.8184  0.2108
 5066TIP3    H136757   3.152   6.147   1.105  1.1745  1.4892 -0.7014
 5066TIP3    H236758   3.233   6.113   1.228 -1.4007 -1.9535  0.2014
 5067TIP3   OH236759   3.479   4.789   6.446  0.1873  0.5015  0.1967
 5067TIP3    H136760   3.522   4.798   6.532  1.3814 -1.6374 -0.0966
 5067TIP3    H236761   3.462   4.695   6.438  0.4446  0.5975 -2.0725
 5068TIP3   OH236762   4.856   3.310   7.451  0.6888 -0.5951 -0.1454
 5068TIP3    H136763   4.944   3.300   7.488  0.6726  1.8465  0.7952
 5068TIP3    H236764   4.861   3.391   7.401 -1.6106  1.1319  2.1144
 5069TIP3   OH236765   3.964   3.007   7.016 -0.4627 -0.2888 -0.2203
 5069TIP3    H136766   3.993   2.922   6.981  0.3084 -0.2070  0.2033
 5069TIP3    H236767   3.891   3.031   6.960  0.3192 -0.4859 -1.3678
 5070TIP3   OH236768   4.892   6.291   7.706 -0.3228 -0.0070  0.3406
 5070TIP3    H136769   4.814   6.243   7.732  0.0389 -0.0422  1.4029
 5070TIP3    H236770   4.919   6.338   7.785  0.1044  0.8729 -0.3135
 5071TIP3   OH236771   2.488   5.458   1.237  0.4911 -0.8174 -0.7162
 5071TIP3    H136772   2.570   5.508   1.237  0.5173 -0.8207  0.4522
 5071TIP3    H236773   2.497   5.400   1.313 -1.1730  0.1644  0.2833
 5072TIP3   OH236774   1.117   2.166   0.784 -0.7049 -0.1926 -0.0454
 5072TIP3    H136775   1.048   2.154   0.719 -0.2533  1.8406 -0.9969
 5072TIP3    H236776   1.085   2.121   0.862 -3.1724  0.7213 -0.4315
 5073TIP3   OH236777   0.050   2.973   1.223 -0.3898 -0.5809  0.1628
 5073TIP3    H136778   0.111   2.994   1.293 -2.6683  0.0263  2.0911
 5073TIP3    H236779   0.106   2.958   1.146  2.1166  0.1134  1.7315
 5074TIP3   OH236780   6.407   0.944   1.195  0.4345 -0.5156  0.1373
 5074TIP3    H136781   6.390   0.998   1.118 -1.3716  3.3264  2.9116
 5074TIP3    H236782   6.499   0.961   1.216  0.6206 -0.6876 -0.5172
 5075TIP3   OH236783   0.120   0.462   8.326  0.6001 -0.2854  0.1311
 5075TIP3    H136784   0.030   0.431   8.337  1.4703 -2.8679  0.7421
 5075TIP3    H236785   0.120   0.506   8.241 -1.2039 -0.3225  0.0615
 5076TIP3   OH236786   5.581   4.597   8.353  0.4380  0.0164 -0.0209
 5076TIP3    H136787   5.667   4.608   8.314 -0.5419 -0.0508 -2.3413
 5076TIP3    H236788   5.544   4.686   8.355 -0.1374 -0.1996 -0.7892
 5077TIP3   OH236789   3.965   0.820   0.331  0.3278  0.0733 -0.3869
 5077TIP3    H136790   4.036   0.882   0.317  0.1556  0.4666  0.4326
 5077TIP3    H236791   3.921   0.814   0.246  0.3846  1.0231 -0.4917
 5078TIP3   OH236792   1.230   0.725   1.277  0.7619  0.0723 -0.1715
 5078TIP3    H136793   1.247   0.819   1.270  0.5519  0.1785  0.6908
 5078TIP3    H236794   1.281   0.697   1.353  2.4602 -0.9164 -1.5852
 5079TIP3   OH236795   0.715   1.586   6.675  0.2460  0.1082 -0.5568
 5079TIP3    H136796   0.726   1.642   6.599 -0.6375  0.7749 -0.2190
 5079TIP3    H236797   0.777   1.514   6.662  0.3885  0.4214 -1.6925
 5080TIP3   OH236798   3.049   4.855   7.112  0.0076  0.2182  0.1440
 5080TIP3    H136799   3.013   4.923   7.169 -0.7942  0.4974 -0.6741
 5080TIP3    H236800   2.973   4.815   7.070  0.4814 -1.0586  0.4435
 5081TIP3   OH236801   2.228   2.496   8.180 -0.1602 -0.1710  0.7897
 5081TIP3    H136802   2.150   2.510   8.233 -1.0401  1.1268 -0.7516
 5081TIP3    H236803   2.265   2.414   8.213 -1.2449  0.0370  2.6473
 5082TIP3   OH236804   4.334   1.921   0.995  0.1424 -0.6002  0.2218
 5082TIP3    H136805   4.392   1.995   1.010  1.4040 -1.3036 -0.9989
 5082TIP3    H236806   4.381   1.846   1.031 -1.3400 -0.7698  1.8999
 5083TIP3   OH236807   4.944   3.313   6.535  0.4834  0.2520  0.0336
 5083TIP3    H136808   5.020   3.367   6.516  0.0963  0.2990 -1.5294
 5083TIP3    H236809   4.969   3.225   6.505  0.0905  0.1737 -0.0728
 5084TIP3   OH236810   4.346   2.659   8.055 -0.6731  0.6680 -0.8990
 5084TIP3    H136811   4.383   2.745   8.077  0.2139  0.4670 -1.5593
 5084TIP3    H236812   4.259   2.679   8.021  0.2053  1.4964 -2.8045
 5085TIP3   OH236813   3.734   1.886   1.631  0.0871  0.5571 -0.1938
 5085TIP3    H136814   3.737   1.970   1.585 -1.7208  0.9263  0.2594
 5085TIP3    H236815   3.732   1.909   1.724  0.9077 -0.0584 -0.0164
 5086TIP3   OH236816   2.559   0.524   6.460  0.1704 -0.2942 -0.2392
 5086TIP3    H136817   2.614   0.446   6.468  0.6677  0.2026  1.8117
 5086TIP3    H236818   2.616   0.597   6.484 -1.0098  0.3606  0.7354
 5087TIP3   OH236819   2.368   3.064   7.990  0.6127  0.1255  0.6833
 5087TIP3    H136820   2.392   2.978   7.956  2.1295 -0.2363  2.5470
 5087TIP3    H236821   2.448   3.099   8.029 -0.1066  2.1603  0.4870
 5088TIP3   OH236822   2.719   5.959   8.638 -0.4880 -0.3877  0.6479
 5088TIP3    H136823   2.776   5.883   8.623 -1.5786 -1.1475  0.2331
 5088TIP3    H236824   2.631   5.922   8.646 -1.0834  0.8512  0.1644
 5089TIP3   OH236825   0.543   6.136   6.359 -0.1972  0.2246  0.2218
 5089TIP3    H136826   0.580   6.224   6.369 -1.1326  0.3660  3.4009
 5089TIP3    H236827   0.465   6.150   6.305  0.8496  0.9338 -1.1732
 5090TIP3   OH236828   6.506   4.858   0.436  0.1502 -0.0092 -0.8004
 5090TIP3    H136829   6.544   4.935   0.479  1.0547 -1.2880  0.7776
 5090TIP3    H236830   6.575   4.826   0.377  0.7547 -1.0673  0.4475
 5091TIP3   OH236831   1.028   0.950   0.673  0.3874  0.5370 -0.2326
 5091TIP3    H136832   1.081   0.922   0.599  1.6557  1.1979  0.3939
 5091TIP3    H236833   1.060   1.038   0.694 -1.7357  1.4406 -0.5327
 5092TIP3   OH236834   3.333   1.092   0.147  0.0887 -0.1865  0.2565
 5092TIP3    H136835   3.342   1.131   0.059 -0.6874 -1.1775 -0.2832
 5092TIP3    H236836   3.420   1.100   0.186  0.2614  0.9391 -0.3173
 5093TIP3   OH236837   3.177   6.269   8.351 -0.6526  0.6186 -0.2871
 5093TIP3    H136838   3.240   6.274   8.279 -0.1009  0.8540  0.2009
 5093TIP3    H236839   3.179   6.178   8.379  2.1185  1.2359  1.9989
 5094TIP3   OH236840   2.826   4.761   2.193 -0.0589  0.7683 -0.2912
 5094TIP3    H136841   2.789   4.804   2.270  0.4351  0.8270 -0.0811
 5094TIP3    H236842   2.920   4.774   2.202  0.1229 -0.6297 -0.0676
 5095TIP3   OH236843   6.779   1.805   2.121 -0.1220  0.0148 -0.6649
 5095TIP3    H136844   6.753   1.880   2.068  0.0958  0.8132  0.3208
 5095TIP3    H236845   6.834   1.842   2.190 -0.9916 -0.8548  0.5557
 5096TIP3   OH236846   5.381   1.553   7.773  0.0219 -0.1140  1.3214
 5096TIP3    H136847   5.311   1.619   7.773 -0.3823 -0.4930 -0.9440
 5096TIP3    H236848   5.457   1.599   7.737 -0.9999 -1.4442 -3.1442
 5097TIP3   OH236849   2.095   3.679   8.040 -0.1772 -0.7041 -0.2752
 5097TIP3    H136850   2.125   3.600   8.084 -0.0137 -0.9586 -0.8355
 5097TIP3    H236851   2.113   3.663   7.947  0.3494  0.2141 -0.3368
 5098TIP3   OH236852   1.579   2.985   6.471 -0.0161  0.6962  0.3648
 5098TIP3    H136853   1.488   2.995   6.443  0.2433  1.7209 -0.1687
 5098TIP3    H236854   1.575   2.985   6.567 -0.7871 -1.6253  0.3888
 5099TIP3   OH236855   6.250   0.488   7.861 -0.0347  0.1567  0.0384
 5099TIP3    H136856   6.340   0.509   7.886  1.2558 -3.1283 -1.2448
 5099TIP3    H236857   6.228   0.552   7.793  1.8126  0.3041 -0.4636
 5100TIP3   OH236858   6.358   5.229   2.418 -0.3739  0.4786  0.0752
 5100TIP3    H136859   6.421   5.164   2.447  1.6754  2.9839  1.7167
 5100TIP3    H236860   6.315   5.189   2.343  2.5037 -1.7563 -0.5596
 5101TIP3   OH236861   0.855   1.004   6.367 -0.3290 -0.4580 -0.2373
 5101TIP3    H136862   0.878   1.039   6.453  0.7130 -1.2652 -0.1727
 5101TIP3    H236863   0.796   1.069   6.330  0.5954  0.7525  0.3743
 5102TIP3   OH236864   2.157   0.257   1.426 -0.9015  0.2609 -0.0043
 5102TIP3    H136865   2.194   0.248   1.514 -1.3466 -0.4499  0.1284
 5102TIP3    H236866   2.232   0.271   1.369 -0.4297 -0.9545  0.2831
 5103TIP3   OH236867   6.652   6.237   1.841  0.9424  0.0768 -0.0061
 5103TIP3    H136868   6.648   6.171   1.910  2.2557 -0.1718 -0.1244
 5103TIP3    H236869   6.684   6.316   1.885  1.5521 -0.0160 -0.2653
 5104TIP3   OH236870   1.400   0.276   0.541 -0.4981  0.8933  0.3236
 5104TIP3    H136871   1.393   0.198   0.487  0.3441  0.3236  1.0104
 5104TIP3    H236872   1.310   0.309   0.547 -0.5892  1.1145 -1.5859
 5105TIP3   OH236873   6.181   2.385   7.522  0.7112 -0.1070  0.4620
 5105TIP3    H136874   6.227   2.453   7.473 -1.2341  1.8873  1.2097
 5105TIP3    H236875   6.169   2.313   7.460  1.4021  0.8814 -0.8609
 5106TIP3   OH236876   0.693   5.775   1.549  0.2219 -0.0981 -0.2147
 5106TIP3    H136877   0.749   5.697   1.554 -0.9635 -0.9292  0.7823
 5106TIP3    H236878   0.604   5.741   1.558 -0.2907  1.4171  0.8274
 5107TIP3   OH236879   2.715   3.594   7.591 -0.7745  0.1885  0.3052
 5107TIP3    H136880   2.649   3.631   7.532 -1.8068  0.0989  1.3685
 5107TIP3    H236881   2.699   3.636   7.675 -0.1586 -0.6294  0.8552
 5108TIP3   OH236882   3.380   5.717   7.196  0.2108  0.4933 -0.3902
 5108TIP3    H136883   3.289   5.700   7.172  0.6796 -0.6419 -1.4496
 5108TIP3    H236884   3.422   5.741   7.113  1.2447 -0.7141 -0.2373
 5109TIP3   OH236885   3.083   6.736   7.925 -0.5325 -0.5214  0.3193
 5109TIP3    H136886   3.055   6.668   7.864  0.4938  1.0536 -2.0561
 5109TIP3    H236887   3.049   6.817   7.887  2.3061  0.7967  0.3894
 5110TIP3   OH236888   6.671   4.809   7.917 -0.3743  0.4385 -0.3166
 5110TIP3    H136889   6.687   4.879   7.855 -0.5729  1.5791  0.8689
 5110TIP3    H236890   6.611   4.847   7.981 -1.0974 -1.0648 -0.0587
 5111TIP3   OH236891   5.731   2.070   2.298  0.4359  0.0248  0.3345
 5111TIP3    H136892   5.814   2.081   2.343  0.8053 -0.0355 -0.3271
 5111TIP3    H236893   5.665   2.089   2.365  0.9756  0.0653  0.8626
 5112TIP3   OH236894   3.834   1.941   7.531  0.4553  0.1206 -0.4332
 5112TIP3    H136895   3.749   1.896   7.532  0.5900 -0.1345  0.4166
 5112TIP3    H236896   3.852   1.955   7.438  0.7769 -2.2908 -0.8036
 5113TIP3   OH236897   3.505   2.930   1.553  0.4068  0.4180  0.1608
 5113TIP3    H136898   3.530   2.884   1.473  3.3541  0.0615  1.1724
 5113TIP3    H236899   3.446   2.999   1.524 -1.8813 -2.1138 -1.7589
 5114TIP3   OH236900   0.797   1.760   7.330  0.5474 -0.5263 -0.2101
 5114TIP3    H136901   0.828   1.679   7.291  1.2356  0.0904 -1.0030
 5114TIP3    H236902   0.788   1.741   7.424 -0.1587 -1.7511 -0.5184
 5115TIP3   OH236903   3.154   1.247   5.937 -0.0937  0.2143 -0.2086
 5115TIP3    H136904   3.076   1.302   5.927 -0.2972  0.1032  0.7437
 5115TIP3    H236905   3.206   1.292   6.003 -0.4068 -0.8848  0.8120
 5116TIP3   OH236906   5.755   5.479   0.356  0.1155  0.3404 -0.0755
 5116TIP3    H136907   5.689   5.508   0.419  0.7192 -1.1722  1.3473
 5116TIP3    H236908   5.725   5.512   0.272 -1.6178  1.0035  0.7587
 5117TIP3   OH236909   0.510   0.421   0.714  0.0634 -0.0644 -0.5056
 5117TIP3    H136910   0.427   0.401   0.671 -1.6285  2.5611  1.2685
 5117TIP3    H236911   0.542   0.336   0.745 -3.3276 -0.9126  1.0896
 5118TIP3   OH236912   5.820   3.494   6.501  0.0348 -0.3090 -0.3342
 5118TIP3    H136913   5.853   3.428   6.441  1.7799 -0.1065  0.3629
 5118TIP3    H236914   5.744   3.453   6.542  0.5729 -1.5499 -0.5506
 5119TIP3   OH236915   0.363   3.423   0.855 -0.1909  0.6016  0.7529
 5119TIP3    H136916   0.370   3.514   0.887  1.0589  0.7699  0.0795
 5119TIP3    H236917   0.324   3.431   0.768 -0.0261  0.5103  0.6688
 5120TIP3   OH236918   1.325   4.786   0.357 -0.3836  0.8390  0.0209
 5120TIP3    H136919   1.236   4.820   0.365 -0.6945  0.0112  0.1563
 5120TIP3    H236920   1.381   4.863   0.365 -1.1238  1.5624 -1.3924
 5121TIP3   OH236921   1.928   5.070   2.575 -0.5499 -0.1470  0.1609
 5121TIP3    H136922   1.876   5.025   2.641 -2.0768 -0.5884 -1.2919
 5121TIP3    H236923   1.997   5.008   2.551 -0.5515 -0.3375  0.6498
 5122TIP3   OH236924   0.937   1.188   2.057  0.0453  0.0991 -0.0502
 5122TIP3    H136925   0.983   1.248   2.115  1.3784 -0.5950 -0.3463
 5122TIP3    H236926   0.854   1.170   2.102 -0.3008  1.9699  0.1337
 5123TIP3   OH236927   0.391   0.703   0.451  0.1647 -0.2281  0.5023
 5123TIP3    H136928   0.351   0.712   0.538  1.4111 -0.2122  1.0888
 5123TIP3    H236929   0.479   0.739   0.462 -0.0792  0.9639 -1.0977
 5124TIP3   OH236930   0.074   1.283   6.502  0.3763  0.2544 -1.1698
 5124TIP3    H136931   0.002   1.220   6.503  1.0934 -0.5761 -0.7395
 5124TIP3    H236932   0.091   1.299   6.409  1.0279 -1.1772 -1.3126
 5125TIP3   OH236933   5.487   4.715   1.872  0.4278 -0.2550 -0.5063
 5125TIP3    H136934   5.431   4.744   1.801 -0.7559  0.4927  0.6797
 5125TIP3    H236935   5.455   4.627   1.894 -0.0152 -0.0008 -0.1148
 5126TIP3   OH236936   3.315   6.183   8.118 -0.0006 -0.0885  0.7255
 5126TIP3    H136937   3.409   6.173   8.136  0.1725 -1.7755 -0.8676
 5126TIP3    H236938   3.273   6.118   8.175 -0.4713  2.0924  3.0314
 5127TIP3   OH236939   4.682   6.020   8.622  0.3141  0.0646  0.3322
 5127TIP3    H136940   4.593   6.002   8.652 -0.6328 -0.1727 -2.4077
 5127TIP3    H236941   4.722   5.934   8.614  1.6766  0.2212  3.6728
 5128TIP3   OH236942   6.026   4.451   0.026 -0.2362  0.2911  0.5802
 5128TIP3    H136943   6.103   4.502   0.050 -0.0799  1.7523 -2.5194
 5128TIP3    H236944   6.057   4.361   0.019  0.9707  0.7246  0.2312
 5129TIP3   OH236945   6.090   3.973   1.119 -0.1847 -0.3840  0.7886
 5129TIP3    H136946   6.003   3.985   1.157  0.7203  0.5581  2.6955
 5129TIP3    H236947   6.144   3.943   1.192  0.8123 -2.4988 -0.7054
 5130TIP3   OH236948   5.125   5.409   1.330 -0.5935  0.1105 -0.0140
 5130TIP3    H136949   5.192   5.432   1.266 -0.4540 -1.3574 -0.4461
 5130TIP3    H236950   5.174   5.392   1.410 -0.7269  1.5410  0.3900
 5131TIP3   OH236951   1.104   5.037   0.983  0.1765  0.2980  0.3331
 5131TIP3    H136952   1.155   5.024   1.063  0.2486  1.2364  0.4516
 5131TIP3    H236953   1.159   5.002   0.913  0.7389  0.7890  0.5238
 5132TIP3   OH236954   1.327   5.030   2.231  0.3263 -0.3386 -0.5691
 5132TIP3    H136955   1.258   4.964   2.237 -0.6237  0.6928  0.4915
 5132TIP3    H236956   1.399   4.995   2.283  0.4830 -1.2824 -1.4070
 5133TIP3   OH236957   4.841   0.369   0.122 -0.4419  0.1168 -0.1360
 5133TIP3    H136958   4.895   0.309   0.071  0.6938 -0.0312  1.1990
 5133TIP3    H236959   4.756   0.369   0.077 -0.4263 -2.3374 -0.2751
 5134TIP3   OH236960   1.787   3.418   6.484 -0.0555  0.0708  0.6532
 5134TIP3    H136961   1.693   3.402   6.492 -0.1275 -1.4978 -2.0923
 5134TIP3    H236962   1.828   3.334   6.505  0.5516  0.0824 -0.4165
 5135TIP3   OH236963   5.298   1.882   8.181  0.2267 -0.2491  0.4611
 5135TIP3    H136964   5.204   1.864   8.179  0.4062 -1.3004  0.7052
 5135TIP3    H236965   5.307   1.970   8.146 -0.6008 -1.2075 -2.5165
 5136TIP3   OH236966   6.786   5.445   7.474  0.2199  0.6880  0.6300
 5136TIP3    H136967   6.828   5.385   7.536 -2.1627 -1.7592  0.0575
 5136TIP3    H236968   6.844   5.445   7.398  0.6699 -0.2657  0.9607
 5137TIP3   OH236969   0.641   2.085   6.702 -0.4978  0.0367  0.3385
 5137TIP3    H136970   0.696   2.109   6.776  0.7115 -1.5237  0.0086
 5137TIP3    H236971   0.655   2.156   6.638  1.6131 -0.5512  0.0542
 5138TIP3   OH236972   6.326   4.934   8.431  0.1299 -0.1645 -0.1035
 5138TIP3    H136973   6.326   4.881   8.510 -0.5657 -0.8208 -0.5266
 5138TIP3    H236974   6.418   4.942   8.406  0.2659 -0.8357  0.1880
 5139TIP3   OH236975   0.288   5.479   1.124  0.0588 -0.4470 -0.1159
 5139TIP3    H136976   0.274   5.436   1.208  1.5444 -0.1336  0.3258
 5139TIP3    H236977   0.286   5.408   1.059 -0.3678 -0.7867  0.2671
 5140TIP3   OH236978   3.120   4.428   0.850  0.5170 -0.0032  0.0206
 5140TIP3    H136979   3.094   4.516   0.823  2.2401 -0.0598 -2.0953
 5140TIP3    H236980   3.088   4.371   0.780 -0.7126 -1.1403  1.4358
 5141TIP3   OH236981   3.925   6.116   7.596  0.4620  0.1140  0.1194
 5141TIP3    H136982   3.995   6.061   7.561  0.5644  0.2183  0.1578
 5141TIP3    H236983   3.960   6.205   7.589 -0.1879  0.2979 -1.0964
 5142TIP3   OH236984   6.871   1.906   1.719 -0.1926 -0.3655  0.4563
 5142TIP3    H136985   6.792   1.923   1.770 -0.1798  1.8960 -0.1735
 5142TIP3    H236986   6.943   1.933   1.777 -0.1548  1.7572 -0.4762
 5143TIP3   OH236987   3.772   2.020   6.367  0.1515  0.1088 -0.4899
 5143TIP3    H136988   3.701   1.966   6.332  0.3077 -1.1278  0.9817
 5143TIP3    H236989   3.808   2.065   6.291 -0.7695 -0.9735 -1.6011
 5144TIP3   OH236990   6.788   1.669   1.564 -0.0886  0.0114 -0.7302
 5144TIP3    H136991   6.839   1.703   1.637  0.4051  0.2194 -1.1696
 5144TIP3    H236992   6.697   1.686   1.589 -0.0711 -1.7867  0.7860
 5145TIP3   OH236993   0.877   2.248   7.187  0.2770  0.9112  0.0205
 5145TIP3    H136994   0.831   2.171   7.153  0.4165  0.8637 -0.0619
 5145TIP3    H236995   0.826   2.275   7.263  1.4005 -0.5186  1.3438
 5146TIP3   OH236996   6.166   3.572   0.453 -0.0380 -0.0406 -0.4265
 5146TIP3    H136997   6.127   3.639   0.398 -1.1356  1.4714  2.0189
 5146TIP3    H236998   6.256   3.602   0.466 -0.2891  0.5604 -0.0025
 5147TIP3   OH236999   5.110   1.736   6.936  0.2457 -0.6234  0.4131
 5147TIP3    H137000   5.075   1.683   7.007  3.6916 -1.5555  1.6192
 5147TIP3    H237001   5.129   1.673   6.867 -3.2124  0.2906 -1.6119
 5148TIP3   OH237002   2.999   5.525   0.286  0.0063  0.5491 -0.0244
 5148TIP3    H137003   2.978   5.568   0.369  0.1300 -0.0307  0.3124
 5148TIP3    H237004   3.052   5.450   0.312 -1.6104 -0.7976 -0.4477
 5149TIP3   OH237005   1.011   4.879   7.608 -0.2543  0.4786 -0.2609
 5149TIP3    H137006   1.090   4.867   7.661  0.2459  3.1672 -0.2539
 5149TIP3    H237007   1.026   4.961   7.562 -2.5550  0.4222 -1.2107
 5150TIP3   OH237008   0.941   6.340   1.554 -0.2657  0.0550 -0.3087
 5150TIP3    H137009   0.930   6.393   1.475  0.4328  2.1128  0.8990
 5150TIP3    H237010   0.955   6.404   1.624 -0.7879 -1.7031  1.4850
 5151TIP3   OH237011   4.190   0.547   0.122  0.6088 -0.0168  0.4153
 5151TIP3    H137012   4.196   0.467   0.071 -0.9297  0.0242  0.1256
 5151TIP3    H237013   4.127   0.602   0.074 -0.9003  0.0206  2.2987
 5152TIP3   OH237014   5.024   1.350   6.837  0.2123 -0.3976 -0.3946
 5152TIP3    H137015   5.085   1.422   6.819  0.6677 -0.6563  0.1087
 5152TIP3    H237016   5.070   1.272   6.806 -1.4840 -0.2318 -3.9129
 5153TIP3   OH237017   3.740   6.716   1.264 -0.4853 -0.2643  0.1123
 5153TIP3    H137018   3.807   6.734   1.198 -0.3010  1.1116  0.6505
 5153TIP3    H237019   3.686   6.795   1.267 -0.1230 -0.0300  2.0229
 5154TIP3   OH237020   2.171   1.241   8.182 -1.0565  0.0688 -0.5745
 5154TIP3    H137021   2.192   1.295   8.258 -0.6448 -2.4611  1.2507
 5154TIP3    H237022   2.240   1.260   8.118  0.6434 -0.2667  1.0876
 5155TIP3   OH237023   5.197   3.636   0.021 -0.0462 -0.3101  0.2177
 5155TIP3    H137024   5.111   3.679   0.016 -0.9777 -2.1970 -2.4770
 5155TIP3    H237025   5.254   3.691  -0.033 -0.1992 -0.3545  0.0098
 5156TIP3   OH237026   4.199   4.375   1.571 -0.1041 -0.1164 -0.1481
 5156TIP3    H137027   4.279   4.347   1.525 -0.8861  0.2504 -1.8229
 5156TIP3    H237028   4.133   4.311   1.544 -1.2926  1.7522 -1.9475
 5157TIP3   OH237029   0.493   2.724   7.597  0.1942 -0.0357 -0.5808
 5157TIP3    H137030   0.476   2.802   7.650 -0.0278 -0.2474 -0.3344
 5157TIP3    H237031   0.583   2.735   7.567  0.4667 -0.1049  0.1902
 5158TIP3   OH237032   4.893   6.216   7.039 -0.2486 -0.6585  0.1283
 5158TIP3    H137033   4.887   6.296   7.091  1.8702 -1.4303  1.7217
 5158TIP3    H237034   4.804   6.182   7.036 -0.7479  0.4294  1.6549
 5159TIP3   OH237035   6.095   6.393   7.952  0.4693 -0.5370 -0.1134
 5159TIP3    H137036   6.056   6.479   7.965 -0.1567 -1.1283  2.4602
 5159TIP3    H237037   6.076   6.372   7.861 -0.8179  1.3253 -0.3375
 5160TIP3   OH237038   2.021   6.071   6.911 -0.1529 -0.0987 -0.4357
 5160TIP3    H137039   1.927   6.074   6.930 -0.6133  0.8373 -2.4833
 5160TIP3    H237040   2.037   6.151   6.861  2.0292  0.3961  0.9138
 5161TIP3   OH237041   2.980   4.615   2.449  0.0625  0.1093  0.2184
 5161TIP3    H137042   3.023   4.673   2.386  0.2062 -0.6091 -0.3575
 5161TIP3    H237043   2.887   4.632   2.438  0.0346 -0.6308 -0.8173
 5162TIP3   OH237044   4.521   5.687   6.891 -0.0507  0.0901  0.2770
 5162TIP3    H137045   4.575   5.637   6.952 -1.1091 -2.2192 -0.5811
 5162TIP3    H237046   4.582   5.747   6.849  1.1602 -0.0131  1.7769
 5163TIP3   OH237047   1.415   4.572   8.102 -0.3160  0.2185  0.8866
 5163TIP3    H137048   1.426   4.663   8.129 -0.5419  0.8661 -1.0569
 5163TIP3    H237049   1.326   4.549   8.130 -0.0462  0.3950  1.9042
 5164TIP3   OH237050   5.286   5.545   7.194  0.1405  0.2530  0.0324
 5164TIP3    H137051   5.321   5.463   7.230  2.4726  1.3407  0.4449
 5164TIP3    H237052   5.351   5.573   7.130 -1.5218  0.9041 -1.4791
 5165TIP3   OH237053   1.658   1.884   1.035 -0.5918 -0.1245  0.4155
 5165TIP3    H137054   1.718   1.927   1.097  1.3472  1.0550 -2.0781
 5165TIP3    H237055   1.573   1.886   1.079  0.3793  1.9189  2.4335
 5166TIP3   OH237056   6.822   6.540   7.849  0.2089  0.2610  0.1372
 5166TIP3    H137057   6.831   6.502   7.936 -1.1248  1.8183  1.0025
 5166TIP3    H237058   6.819   6.464   7.790 -2.0574 -1.0064  1.7513
 5167TIP3   OH237059   5.967   1.213   6.430 -0.1269 -0.5853  0.2403
 5167TIP3    H137060   5.999   1.125   6.411 -0.5919 -0.4305 -1.3888
 5167TIP3    H237061   6.002   1.233   6.517  1.9530 -1.4507 -0.3527
 5168TIP3   OH237062   2.842   0.143   0.573  0.0591 -0.3177  0.2738
 5168TIP3    H137063   2.922   0.127   0.523 -1.2992 -1.9581 -1.5410
 5168TIP3    H237064   2.798   0.214   0.526  0.4938  0.7111  1.3748
 5169TIP3   OH237065   1.476   6.481   0.201  0.6142 -0.3542 -0.4824
 5169TIP3    H137066   1.534   6.555   0.218 -0.0227 -0.0204  0.2665
 5169TIP3    H237067   1.402   6.494   0.260  1.2395 -2.4561  0.8630
 5170TIP3   OH237068   2.272   2.090   0.293 -0.1254  0.3252  0.8713
 5170TIP3    H137069   2.210   2.032   0.335  0.1642  0.4458  1.4837
 5170TIP3    H237070   2.330   2.119   0.364 -0.1207  1.1696  0.5400
 5171TIP3   OH237071   4.189   2.089   7.070  0.2410 -0.0606 -0.0104
 5171TIP3    H137072   4.169   2.174   7.030 -0.1148  0.0495  0.3939
 5171TIP3    H237073   4.179   2.104   7.164  0.4263 -0.4878  0.0803
 5172TIP3   OH237074   6.222   2.362   2.265 -0.2210 -0.2878  0.2680
 5172TIP3    H137075   6.268   2.416   2.329  0.8890 -1.4916  0.5260
 5172TIP3    H237076   6.291   2.309   2.224 -0.9537  0.1740 -1.6609
 5173TIP3   OH237077   5.500   2.289   6.748 -0.3192  0.0467  0.2094
 5173TIP3    H137078   5.407   2.315   6.747 -0.4578 -0.3792  1.2872
 5173TIP3    H237079   5.501   2.203   6.706 -0.6004 -0.5272  1.3638
 5174TIP3   OH237080   2.195   1.188   1.700 -0.3853 -0.4290  0.1077
 5174TIP3    H137081   2.239   1.233   1.772  0.3675 -1.8202  0.5588
 5174TIP3    H237082   2.264   1.140   1.655 -0.5584  1.6102 -2.5590
 5175TIP3   OH237083   3.054   4.558   1.969  0.5214  0.8182  0.3976
 5175TIP3    H137084   2.960   4.552   1.952  0.3178  3.6344  0.0303
 5175TIP3    H237085   3.089   4.601   1.892  1.5676  2.7295  1.8679
 5176TIP3   OH237086   3.709   6.389   7.579 -0.2102  0.3958 -0.0703
 5176TIP3    H137087   3.709   6.358   7.670  1.7731  0.8005  0.1094
 5176TIP3    H237088   3.699   6.309   7.527  1.3993 -0.2082  0.4705
 5177TIP3   OH237089   0.380   0.320   7.476  0.0865 -0.3182 -0.3076
 5177TIP3    H137090   0.430   0.385   7.425 -1.2345  0.0924 -1.1186
 5177TIP3    H237091   0.421   0.322   7.562  0.0057  1.7548 -0.2465
 5178TIP3   OH237092   2.476   0.518   5.741  0.2880 -0.5111 -0.1340
 5178TIP3    H137093   2.448   0.567   5.818 -0.1939  0.6339 -1.0047
 5178TIP3    H237094   2.570   0.536   5.734 -0.0586  1.1122 -0.9850
 5179TIP3   OH237095   0.773   1.218   0.710 -0.4556  0.1816  0.0370
 5179TIP3    H137096   0.762   1.273   0.787 -0.5584  1.0774 -0.5992
 5179TIP3    H237097   0.751   1.130   0.740 -2.4708  0.8118  0.5550
 5180TIP3   OH237098   1.487   1.843   8.503  0.0976  0.6402 -0.3335
 5180TIP3    H137099   1.436   1.876   8.577 -1.4981  1.0683 -1.5637
 5180TIP3    H237100   1.551   1.784   8.542 -1.4464 -0.0458  1.2886
 5181TIP3   OH237101   2.018   0.960   7.960  0.3599 -0.0510  0.5452
 5181TIP3    H137102   1.937   0.947   7.912  0.2429 -2.6729  1.2722
 5181TIP3    H237103   2.084   0.973   7.892  0.0505 -2.7550 -0.3806
 5182TIP3   OH237104   5.623   2.968   7.342 -0.2448  0.3337  0.2453
 5182TIP3    H137105   5.578   2.907   7.283  0.9645  0.0949 -0.4772
 5182TIP3    H237106   5.639   3.045   7.287  1.2568 -0.0475  0.0941
 5183TIP3   OH237107   4.908   1.651   0.201 -0.3067 -0.4519 -0.3175
 5183TIP3    H137108   4.899   1.699   0.118 -0.9262 -0.1597 -0.0890
 5183TIP3    H237109   4.818   1.632   0.228 -0.3415  2.1761  1.8589
 5184TIP3   OH237110   1.536   0.059   1.502 -0.2025  0.5393  0.2601
 5184TIP3    H137111   1.501  -0.015   1.452  1.0783  0.8258 -1.1610
 5184TIP3    H237112   1.595   0.020   1.566  0.8422  0.3066 -0.8055
 5185TIP3   OH237113   5.020   4.318   0.969  0.3134 -0.4582 -0.3548
 5185TIP3    H137114   4.931   4.324   0.934  0.0374  1.2624  0.5301
 5185TIP3    H237115   5.077   4.332   0.893 -0.2062 -0.0385 -0.6743
 5186TIP3   OH237116   4.750   1.329   7.509 -0.4894  0.6942  0.2659
 5186TIP3    H137117   4.740   1.259   7.573 -1.7360  0.6341  0.0260
 5186TIP3    H237118   4.836   1.367   7.528 -1.2476  1.3884  2.6835
 5187TIP3   OH237119   2.821   3.860   6.607  0.4313  0.4041 -0.4611
 5187TIP3    H137120   2.866   3.782   6.577  0.5314 -0.6811  2.2923
 5187TIP3    H237121   2.736   3.857   6.563  1.2440 -0.0058 -2.0810
 5188TIP3   OH237122   0.104   0.264   1.483  0.3387  0.3771 -0.1481
 5188TIP3    H137123   0.019   0.232   1.453  1.1122 -0.2533 -1.8053
 5188TIP3    H237124   0.108   0.354   1.452 -0.1677  0.7859  0.9314
 5189TIP3   OH237125   1.868   1.391   0.775 -0.4779  0.4876  0.0431
 5189TIP3    H137126   1.884   1.484   0.787 -0.6317  0.6340 -0.8103
 5189TIP3    H237127   1.949   1.348   0.804 -0.3946  0.8834  0.4016
 5190TIP3   OH237128   3.818   5.120   0.029 -0.3272  0.0605  0.7901
 5190TIP3    H137129   3.834   5.062  -0.046 -1.6392 -0.5493  0.9537
 5190TIP3    H237130   3.782   5.063   0.097 -0.0754  0.7808  1.5529
 5191TIP3   OH237131   3.848   2.835   0.169  0.3297  0.0064  0.4724
 5191TIP3    H137132   3.893   2.853   0.252  0.3023  0.4815  0.3899
 5191TIP3    H237133   3.755   2.840   0.191  0.3030 -1.1864  0.6882
 5192TIP3   OH237134   2.677   6.386   6.424  1.0488  0.2981 -0.3738
 5192TIP3    H137135   2.655   6.435   6.504 -0.0021  0.1047 -0.5319
 5192TIP3    H237136   2.715   6.304   6.456 -0.9188 -0.5143 -0.0064
 5193TIP3   OH237137   3.991   5.674   1.565  0.1421  0.1920  0.4545
 5193TIP3    H137138   3.984   5.613   1.637 -0.7358  1.3400  1.3724
 5193TIP3    H237139   4.045   5.746   1.599  0.6441  0.2474 -0.4019
 5194TIP3   OH237140   5.523   5.388   7.197  0.5187 -0.0627  0.0208
 5194TIP3    H137141   5.610   5.357   7.222 -0.1067 -1.3881  0.6968
 5194TIP3    H237142   5.464   5.317   7.225 -1.0302  1.7723  1.7130
 5195TIP3   OH237143   4.132   5.051   7.799  0.1306  0.4191  0.3276
 5195TIP3    H137144   4.197   4.981   7.812  1.0727  0.6490 -2.5664
 5195TIP3    H237145   4.048   5.008   7.816  0.8368 -0.7576  0.9831
 5196TIP3   OH237146   4.221   3.228   0.984 -0.1019 -0.5014 -0.4207
 5196TIP3    H137147   4.270   3.267   0.912  0.8588 -1.2416 -0.2056
 5196TIP3    H237148   4.138   3.201   0.946 -0.1808  0.3922 -0.9056
 5197TIP3   OH237149   6.400   4.037   1.217  0.0077  0.1085 -0.3036
 5197TIP3    H137150   6.334   3.997   1.274  0.5338 -1.0309 -0.4484
 5197TIP3    H237151   6.382   4.131   1.220  0.7320  0.2581  2.6981
 5198TIP3   OH237152   3.923   5.490   7.982 -0.5983 -0.2026 -0.9661
 5198TIP3    H137153   3.943   5.556   8.048  0.6332 -1.5820  0.1200
 5198TIP3    H237154   3.876   5.538   7.913 -4.0700  0.8994  1.8650
 5199TIP3   OH237155   4.993   1.328   7.255 -0.0337  0.5764 -0.3843
 5199TIP3    H137156   5.073   1.365   7.290  0.0113  1.0331 -0.9484
 5199TIP3    H237157   4.936   1.316   7.331  0.7867 -0.3273  0.0986
 5200TIP3   OH237158   0.314   0.425   2.119  0.5864  0.6366 -0.2483
 5200TIP3    H137159   0.374   0.460   2.054  1.4475 -1.5223 -0.7221
 5200TIP3    H237160   0.249   0.494   2.133  1.8360  2.1178 -1.4797
 5201TIP3   OH237161   4.976   1.499   7.043 -0.0697 -0.6373  0.5290
 5201TIP3    H137162   4.975   1.446   7.123 -1.6607 -0.9963  0.3002
 5201TIP3    H237163   4.977   1.435   6.972  2.1939 -0.3240  0.2109
 5202TIP3   OH237164   0.362   1.154   6.512 -0.8605  0.3083 -0.4539
 5202TIP3    H137165   0.277   1.128   6.549 -1.0503  0.4782 -0.7669
 5202TIP3    H237166   0.340   1.211   6.439 -0.4145  3.4394  1.6913
 5203TIP3   OH237167   3.924   1.097   7.906 -0.1139 -0.9506 -0.1511
 5203TIP3    H137168   3.852   1.131   7.854  0.3665  0.5967  0.1635
 5203TIP3    H237169   3.889   1.090   7.995  0.3967  0.8488  0.2306
 5204TIP3   OH237170   0.600   0.460   7.403  0.4827 -0.4960  0.9072
 5204TIP3    H137171   0.660   0.421   7.467  1.1121 -0.1065  0.5723
 5204TIP3    H237172   0.637   0.436   7.318  0.8667  0.7586  0.6914
 5205TIP3   OH237173   2.864   3.238   7.278  0.4088 -0.2070  0.1623
 5205TIP3    H137174   2.905   3.298   7.216  0.2146  0.0669  0.2991
 5205TIP3    H237175   2.771   3.260   7.275  0.5522  0.7809  1.5901
 5206TIP3   OH237176   5.015   6.665   0.699 -0.2654  0.2425 -0.2649
 5206TIP3    H137177   4.974   6.598   0.754 -0.3714  1.3409  1.0706
 5206TIP3    H237178   4.945   6.694   0.640 -0.6274  0.1631  0.1193
 5207TIP3   OH237179   2.047   6.475   7.522  0.0951 -0.9514  0.2511
 5207TIP3    H137180   2.065   6.456   7.614 -0.7935 -1.5226  0.3227
 5207TIP3    H237181   2.131   6.466   7.478  1.0521  1.6359  1.3368
 5208TIP3   OH237182   3.444   1.315   0.924 -0.0788 -0.3489  0.2807
 5208TIP3    H137183   3.528   1.356   0.905 -0.5735  1.2051  1.2291
 5208TIP3    H237184   3.458   1.222   0.908  1.3059  0.0805 -1.3007
 5209TIP3   OH237185   4.507   2.346   6.582 -0.0700 -0.7060  0.1037
 5209TIP3    H137186   4.412   2.360   6.589 -0.1040 -0.2809 -1.0156
 5209TIP3    H237187   4.545   2.423   6.625 -0.2708  1.0581 -2.6219
 5210TIP3   OH237188   1.161   5.440   7.431 -0.0740 -0.0397 -0.2296
 5210TIP3    H137189   1.206   5.497   7.493  0.0870 -1.2777  0.8365
 5210TIP3    H237190   1.069   5.468   7.434  0.0717  0.4098 -0.0178
 5211TIP3   OH237191   2.179   5.999   8.629 -0.6225 -0.5371  0.0648
 5211TIP3    H137192   2.129   6.076   8.656 -1.3072 -1.5120  1.7470
 5211TIP3    H237193   2.255   6.035   8.583 -0.4642  1.2125  1.5650
 5212TIP3   OH237194   5.830   5.537   1.113  0.0610  0.2090 -0.2354
 5212TIP3    H137195   5.806   5.537   1.206  0.6970 -2.3495 -0.0022
 5212TIP3    H237196   5.765   5.480   1.072  0.5564  0.2895 -1.1467
 5213TIP3   OH237197   0.407   3.501   6.572 -0.7341  0.0993  0.1776
 5213TIP3    H137198   0.312   3.502   6.558 -0.6216 -1.1261 -0.9127
 5213TIP3    H237199   0.443   3.547   6.496 -0.3781 -1.2301 -0.4834
 5214TIP3   OH237200   1.254   4.344   7.509  0.0638 -0.3733 -0.0631
 5214TIP3    H137201   1.283   4.344   7.417  0.0793 -0.0195 -0.0604
 5214TIP3    H237202   1.164   4.313   7.506 -0.1542  0.2619 -0.2731
 5215TIP3   OH237203   0.867   6.234   0.353 -0.0750 -0.1052 -0.1119
 5215TIP3    H137204   0.942   6.283   0.318 -0.4907  1.6484  1.2867
 5215TIP3    H237205   0.794   6.258   0.296 -0.6046  2.2152  1.3861
 5216TIP3   OH237206   1.223   5.315   6.347  0.1051  0.2699 -0.3106
 5216TIP3    H137207   1.179   5.386   6.301  1.2006  1.4258  0.3716
 5216TIP3    H237208   1.309   5.350   6.369 -0.3659 -0.1849  2.6892
 5217TIP3   OH237209   6.191   6.015   8.347 -0.7249  0.4586  0.0935
 5217TIP3    H137210   6.188   6.083   8.280  1.7704 -1.8200 -2.6207
 5217TIP3    H237211   6.238   6.055   8.420 -0.9365  2.1819 -0.6701
 5218TIP3   OH237212   4.953   4.142   2.193  0.4009 -0.1081 -0.1677
 5218TIP3    H137213   4.859   4.129   2.206  0.5452 -1.6592 -0.5452
 5218TIP3    H237214   4.967   4.234   2.217 -1.0152 -0.1402  0.9628
 5219TIP3   OH237215   4.417   4.714   1.693  0.1354 -0.0248  0.2089
 5219TIP3    H137216   4.387   4.664   1.769  3.0468 -0.6645  1.0703
 5219TIP3    H237217   4.467   4.787   1.731  0.5161  0.4155 -1.0807
 5220TIP3   OH237218   2.807   3.892   2.035 -0.6999  0.0342 -0.3498
 5220TIP3    H137219   2.752   3.852   1.967 -0.2012 -0.6229 -0.3794
 5220TIP3    H237220   2.800   3.834   2.110 -1.2358  0.7521  0.1708
 5221TIP3   OH237221   3.513   5.109   8.560  0.7167 -0.0943 -0.4240
 5221TIP3    H137222   3.531   5.191   8.605  1.9358 -0.3140 -0.4825
 5221TIP3    H237223   3.491   5.047   8.629 -1.1548  0.4836 -0.4440
 5222TIP3   OH237224   3.562   5.442   0.490  0.6341 -0.0018  0.0644
 5222TIP3    H137225   3.551   5.475   0.401  1.3681  1.6094  0.5426
 5222TIP3    H237226   3.509   5.500   0.544 -1.6481 -2.3117  0.4916
 5223TIP3   OH237227   2.608   2.123   7.670 -0.1054 -0.1103  0.4217
 5223TIP3    H137228   2.574   2.061   7.605  1.9186 -1.7315  0.8050
 5223TIP3    H237229   2.681   2.166   7.626 -1.4676  2.0978  0.1677
 5224TIP3   OH237230   0.729   0.132   8.245  0.2352  0.1705  0.1683
 5224TIP3    H137231   0.673   0.089   8.310 -1.7296  0.4327 -1.2520
 5224TIP3    H237232   0.716   0.226   8.260 -0.3156  0.2328 -0.6280
 5225TIP3   OH237233   2.009   0.848   7.056  0.0386 -0.0965  0.3095
 5225TIP3    H137234   2.059   0.910   7.108 -0.9026  2.1324 -1.2603
 5225TIP3    H237235   2.019   0.764   7.101 -0.6879  1.6227  4.0052
 5226TIP3   OH237236   3.501   0.968   7.489 -0.1259  0.7879  0.1738
 5226TIP3    H137237   3.412   0.934   7.485 -0.0534  0.2402  2.2709
 5226TIP3    H237238   3.546   0.925   7.416 -0.9626 -0.8291  0.5656
 5227TIP3   OH237239   5.163   4.388   7.748 -0.5941  0.2808 -0.0149
 5227TIP3    H137240   5.072   4.374   7.721 -1.0221 -0.2675  1.5962
 5227TIP3    H237241   5.156   4.420   7.838  0.8104  0.6006 -0.0003
 5228TIP3   OH237242   4.458   2.080   1.665 -0.2731 -0.0063 -0.2217
 5228TIP3    H137243   4.496   2.160   1.628 -1.2045  0.0589 -1.0969
 5228TIP3    H237244   4.511   2.061   1.742 -0.3253  1.7217  0.2799
 5229TIP3   OH237245   3.369   6.095   7.689 -0.1237  0.2444 -0.2566
 5229TIP3    H137246   3.445   6.101   7.630 -0.2116 -0.7182 -0.4884
 5229TIP3    H237247   3.298   6.138   7.641  0.9495  4.0730  1.2546
 5230TIP3   OH237248   1.812   4.548   8.338 -0.3038 -0.1427  0.3746
 5230TIP3    H137249   1.869   4.607   8.289 -1.9427  2.2844  1.2167
 5230TIP3    H237250   1.760   4.505   8.270  0.5484 -0.2546 -0.2319
 5231TIP3   OH237251   2.480   6.027   0.454 -0.6351 -0.1100  0.1718
 5231TIP3    H137252   2.437   6.112   0.444  0.9576  0.6297 -0.7346
 5231TIP3    H237253   2.420   5.965   0.412 -2.1943  0.3996  1.5289
 5232TIP3   OH237254   4.515   6.568   6.566  0.7562  0.4615  0.0765
 5232TIP3    H137255   4.428   6.603   6.584  0.3531 -0.3000 -0.2940
 5232TIP3    H237256   4.508   6.534   6.476  1.6350  0.9790 -0.2015
 5233TIP3   OH237257   6.728   2.082   0.177  0.1383  0.1268 -0.5503
 5233TIP3    H137258   6.752   2.173   0.195  1.3541  0.6600 -4.0590
 5233TIP3    H237259   6.766   2.064   0.091 -3.5672 -2.3785 -1.9116
 5234TIP3   OH237260   1.671   0.584   8.230  0.0350 -0.5101 -0.2438
 5234TIP3    H137261   1.679   0.626   8.144 -0.9270  2.3144  0.9071
 5234TIP3    H237262   1.579   0.561   8.237 -0.0304 -0.1125  0.2640
 5235TIP3   OH237263   3.803   4.875   7.561  0.3537 -0.0684 -0.1117
 5235TIP3    H137264   3.823   4.835   7.476  2.4358 -0.3459  0.4531
 5235TIP3    H237265   3.765   4.960   7.539 -1.8805 -1.2817 -1.3079
 5236TIP3   OH237266   3.084   6.560   0.634 -0.5279 -0.0384  0.4256
 5236TIP3    H137267   3.099   6.492   0.569  0.1855  1.2385 -0.7937
 5236TIP3    H237268   3.072   6.640   0.583  1.9226  1.3646  1.8592
 5237TIP3   OH237269   1.027   4.164   8.427  0.9585 -0.2537 -0.1941
 5237TIP3    H137270   1.082   4.095   8.389  0.2342 -0.5226 -0.7890
 5237TIP3    H237271   1.088   4.236   8.444  1.5951 -0.7543 -0.2884
 5238TIP3   OH237272   1.711   5.794   1.018  0.4133 -0.0140 -0.4813
 5238TIP3    H137273   1.715   5.883   0.982  2.4204 -0.1021 -0.6285
 5238TIP3    H237274   1.664   5.804   1.101 -1.2322  0.7956 -1.4743
 5239TIP3   OH237275   2.767   3.169   1.678  0.0821 -0.0488  0.0052
 5239TIP3    H137276   2.726   3.193   1.595 -0.5478 -1.8011 -0.2239
 5239TIP3    H237277   2.842   3.228   1.686 -1.2212  1.7781 -0.6165
 5240TIP3   OH237278   3.794   2.101   8.512 -0.1471 -0.1165  0.1779
 5240TIP3    H137279   3.847   2.168   8.555 -0.3879  2.2911 -2.8955
 5240TIP3    H237280   3.787   2.131   8.422 -1.3009 -3.7603 -1.1250
 5241TIP3   OH237281   5.043   6.228   8.436  0.4818  0.5644 -0.3207
 5241TIP3    H137282   5.113   6.279   8.478  0.7742 -0.3683  0.3483
 5241TIP3    H237283   4.969   6.237   8.496  0.3128  0.7650 -0.5547
 5242TIP3   OH237284   5.416   5.637   6.956 -0.2444 -0.2549 -0.0124
 5242TIP3    H137285   5.507   5.661   6.974 -0.4953  0.8695 -0.1441
 5242TIP3    H237286   5.407   5.650   6.861  0.0943 -2.6895 -0.4387
 5243TIP3   OH237287   2.651   3.066   6.869  0.4487 -0.5764  0.2056
 5243TIP3    H137288   2.722   3.113   6.826 -1.0323  0.7698 -0.9107
 5243TIP3    H237289   2.632   2.993   6.811 -0.4847  0.3203 -0.6594
 5244TIP3   OH237290   0.939   3.800   6.715  0.5383 -0.3976 -0.1348
 5244TIP3    H137291   0.959   3.797   6.809  0.6165 -1.3711 -0.1683
 5244TIP3    H237292   0.910   3.889   6.699 -0.0110 -0.3718  0.9360
 5245TIP3   OH237293   0.905   4.673   7.432 -0.0921 -0.3860 -0.0611
 5245TIP3    H137294   0.967   4.711   7.494 -1.0343  2.3766 -0.7132
 5245TIP3    H237295   0.959   4.613   7.379  1.3539 -0.3696  1.3083
 5246TIP3   OH237296   5.797   4.895   0.724 -0.0408  0.3401  0.0858
 5246TIP3    H137297   5.858   4.962   0.694 -0.5800  1.3882  1.2705
 5246TIP3    H237298   5.853   4.821   0.747  0.7528  1.1055  0.6776
 5247TIP3   OH237299   0.699   2.852   7.899  0.8922 -0.3200  0.0077
 5247TIP3    H137300   0.747   2.860   7.981 -0.0196  1.1102  0.4331
 5247TIP3    H237301   0.630   2.789   7.918 -0.1802  1.0509  0.7946
 5248TIP3   OH237302   3.660   5.846   2.297  0.1442  0.0058 -0.2232
 5248TIP3    H137303   3.576   5.823   2.336  0.0811 -0.1774 -0.4618
 5248TIP3    H237304   3.639   5.918   2.236  0.4912  1.4006  1.2294
 5249TIP3   OH237305   3.718   4.426   0.211  0.7149 -0.0053 -0.0766
 5249TIP3    H137306   3.673   4.385   0.285 -0.1348 -1.2122 -1.2162
 5249TIP3    H237307   3.722   4.519   0.234 -0.9138 -0.1150  0.8063
 5250TIP3   OH237308   1.512   5.816   1.630  0.3023  0.4123 -0.2404
 5250TIP3    H137309   1.541   5.748   1.691 -3.1646 -2.0831 -1.1017
 5250TIP3    H237310   1.550   5.791   1.546 -1.0331 -0.5672 -0.5723
 5251TIP3   OH237311   0.678   1.146   2.143  0.1430  0.4073  0.0989
 5251TIP3    H137312   0.681   1.051   2.134  0.6497  0.4274  0.0077
 5251TIP3    H237313   0.603   1.163   2.200  1.1262 -0.1597  1.6058
 5252TIP3   OH237314   1.294   4.836   7.620  0.5050  0.1693 -0.4664
 5252TIP3    H137315   1.283   4.743   7.600 -0.1024  0.2932 -0.7065
 5252TIP3    H237316   1.280   4.881   7.537  1.3294  0.4463 -0.4692
 5253TIP3   OH237317   0.690   2.514   6.665  0.1190  0.2278 -0.3704
 5253TIP3    H137318   0.719   2.595   6.708  2.0923 -1.0333  0.8268
 5253TIP3    H237319   0.771   2.472   6.636 -0.8224 -1.5359 -0.5768
 5254TIP3   OH237320   0.177   2.367   1.210 -0.4249 -0.4127  0.1461
 5254TIP3    H137321   0.159   2.409   1.126  0.7426 -1.8618 -0.8838
 5254TIP3    H237322   0.138   2.280   1.202  1.0603 -1.1356  0.4583
 5255TIP3   OH237323   1.499   6.342   7.073  0.1462 -0.4850 -0.5457
 5255TIP3    H137324   1.568   6.326   7.009  2.6585 -0.7405  2.0274
 5255TIP3    H237325   1.473   6.433   7.059  1.9080  0.0043 -0.8072
 5256TIP3   OH237326   1.613   3.428   1.876 -0.3594  0.0290 -0.8941
 5256TIP3    H137327   1.518   3.440   1.881 -0.4495 -0.9207 -0.0256
 5256TIP3    H237328   1.637   3.393   1.962  0.9934  1.6442 -0.5575
 5257TIP3   OH237329   1.263   5.386   0.497 -0.3300  0.0614  0.9618
 5257TIP3    H137330   1.285   5.438   0.420 -2.2374  0.3593  0.5630
 5257TIP3    H237331   1.347   5.366   0.538  0.6600  0.6700 -0.6884
 5258TIP3   OH237332   4.871   4.548   7.883  0.1721 -0.1891 -0.2902
 5258TIP3    H137333   4.814   4.588   7.817  0.0127 -0.1670 -0.1406
 5258TIP3    H237334   4.840   4.457   7.888 -0.0662 -0.0928  0.0256
 5259TIP3   OH237335   0.996   3.731   6.963 -0.0734 -0.4871 -0.1245
 5259TIP3    H137336   0.981   3.638   6.976  2.2827 -0.8509  0.4843
 5259TIP3    H237337   1.084   3.746   6.998 -1.1587  2.3751  1.7322
 5260TIP3   OH237338   4.017   4.513   8.405 -0.1941  0.1537 -0.6670
 5260TIP3    H137339   3.924   4.510   8.427 -0.0331 -0.1712 -0.0056
 5260TIP3    H237340   4.062   4.528   8.489  0.4417 -1.2550 -0.7207
 5261TIP3   OH237341   2.367   1.858   1.424  0.2053  0.2655 -0.1838
 5261TIP3    H137342   2.404   1.927   1.479  0.3936  0.2783 -0.3280
 5261TIP3    H237343   2.275   1.853   1.451  0.2270  0.4704 -0.0702
 5262TIP3   OH237344   2.567   3.546   0.970  0.2716 -0.3902  0.4427
 5262TIP3    H137345   2.637   3.517   0.912  0.2010  0.9180 -0.3314
 5262TIP3    H237346   2.486   3.522   0.924  0.2167  0.0198  0.3215
 5263TIP3   OH237347   6.797   2.802   7.508  0.1790 -0.1430 -0.0202
 5263TIP3    H137348   6.866   2.841   7.455 -0.6550  1.0878 -0.2368
 5263TIP3    H237349   6.837   2.723   7.545  2.0749  1.1035  0.7519
 5264TIP3   OH237350   5.950   1.305   1.412 -0.1769  0.2020 -0.0497
 5264TIP3    H137351   5.916   1.235   1.469 -1.7533  0.6789 -0.3475
 5264TIP3    H237352   5.967   1.262   1.329  1.5946 -0.3834  0.5830
 5265TIP3   OH237353   1.368   6.099   8.068 -0.2201  0.1282  0.0641
 5265TIP3    H137354   1.311   6.141   8.004 -3.0552 -1.7806  1.1631
 5265TIP3    H237355   1.422   6.040   8.016 -2.3262 -1.2351 -0.7074
 5266TIP3   OH237356   0.045   4.377   7.912  0.4057 -0.6592 -0.1584
 5266TIP3    H137357   0.103   4.402   7.840  0.4721 -0.1824  0.0585
 5266TIP3    H237358  -0.015   4.451   7.921 -1.1686 -1.7461 -1.3269
 5267TIP3   OH237359   3.160   6.108   1.828 -0.0344  0.0503  0.1751
 5267TIP3    H137360   3.211   6.049   1.883  0.7817  0.0512 -0.5534
 5267TIP3    H237361   3.224   6.170   1.792 -0.8408  1.2357  0.7225
 5268TIP3   OH237362   5.539   3.018   2.556 -0.0091  0.8298 -0.1702
 5268TIP3    H137363   5.580   3.066   2.628  2.3382 -0.5470 -0.4829
 5268TIP3    H237364   5.612   2.979   2.508 -1.6682 -2.6408 -0.2202
 5269TIP3   OH237365   3.265   4.520   2.227  0.0966 -0.3310 -0.1859
 5269TIP3    H137366   3.338   4.572   2.261  0.2957 -0.0592 -1.0108
 5269TIP3    H237367   3.191   4.581   2.224 -0.2000 -0.6246  0.7181
 5270TIP3   OH237368   0.062   6.175   1.355 -0.4486 -0.0542 -0.3316
 5270TIP3    H137369   0.021   6.236   1.294 -2.2568 -1.0707 -0.2046
 5270TIP3    H237370  -0.009   6.147   1.412  0.4605 -1.7772  0.0253
 5271TIP3   OH237371   1.926   0.663   7.977  0.6390  0.3892 -0.0693
 5271TIP3    H137372   1.951   0.744   8.023  1.1577  0.5750 -0.6654
 5271TIP3    H237373   1.840   0.682   7.940  0.0748  0.1366  1.0515
 5272TIP3   OH237374   0.846   3.239   2.172 -0.1119  0.4563 -0.3437
 5272TIP3    H137375   0.848   3.191   2.090  1.1274  0.0200 -0.0808
 5272TIP3    H237376   0.846   3.171   2.240  1.4355  0.8006  0.0302
 5273TIP3   OH237377   1.337   6.260   0.851  0.1050  0.1005  0.4630
 5273TIP3    H137378   1.355   6.244   0.758 -0.0356  0.0411  0.4451
 5273TIP3    H237379   1.250   6.221   0.865 -1.0949  2.4149 -0.0167
 5274TIP3   OH237380   1.860   2.152   7.372  0.0675 -0.0266  0.6755
 5274TIP3    H137381   1.817   2.078   7.329  1.7841 -0.3690 -0.5415
 5274TIP3    H237382   1.894   2.116   7.453 -2.1214  0.3291  1.8362
 5275TIP3   OH237383   2.607   0.891   7.446  0.4838  0.6515  0.1369
 5275TIP3    H137384   2.569   0.815   7.490  1.7175 -0.9874 -1.4873
 5275TIP3    H237385   2.701   0.884   7.462  0.8910  0.3979 -2.0377
 5276TIP3   OH237386   0.760   6.814   8.614  0.0330 -0.1123 -0.5119
 5276TIP3    H137387   0.687   6.765   8.576 -0.0422 -0.0053 -0.5061
 5276TIP3    H237388   0.821   6.827   8.541  0.0296 -0.1717 -0.5253
 5277TIP3   OH237389   0.725   3.848   7.892 -1.0589 -0.2060  0.3435
 5277TIP3    H137390   0.789   3.881   7.829 -0.1942 -0.6793  0.9621
 5277TIP3    H237391   0.649   3.906   7.882 -0.2316  0.8595  0.1681
 5278TIP3   OH237392   0.130   3.682   7.462  0.0192 -0.5893  0.4786
 5278TIP3    H137393   0.157   3.592   7.482  2.4106 -0.0262  0.1024
 5278TIP3    H237394   0.202   3.718   7.410 -1.7643  0.9575 -1.0768
 5279TIP3   OH237395   5.293   2.528   7.447  0.4061  0.3316 -0.1205
 5279TIP3    H137396   5.356   2.464   7.481  1.0008  1.0692  0.2055
 5279TIP3    H237397   5.342   2.610   7.444 -0.6288  0.9893  0.4132
 5280TIP3   OH237398   3.383   1.571   7.044 -0.1997  0.4198  0.1787
 5280TIP3    H137399   3.354   1.535   6.960  1.5948 -1.9036  0.4646
 5280TIP3    H237400   3.437   1.646   7.021  0.1582 -0.1125 -0.7507
 5281TIP3   OH237401   3.959   4.696   2.458 -0.2130  0.1393 -0.0008
 5281TIP3    H137402   4.048   4.686   2.490 -0.4576 -0.2010  0.5865
 5281TIP3    H237403   3.947   4.622   2.398  0.9056  1.8468 -2.4837
 5282TIP3   OH237404   1.675   4.390   7.486 -1.3950  0.2812  0.1872
 5282TIP3    H137405   1.673   4.475   7.530  0.0964 -0.4159  1.7135
 5282TIP3    H237406   1.711   4.410   7.399  0.2476  1.0895  0.9860
 5283TIP3   OH237407   1.340   1.515   0.787  0.0923 -0.3198  0.4806
 5283TIP3    H137408   1.304   1.461   0.857  1.4377 -0.5246  1.0463
 5283TIP3    H237409   1.433   1.522   0.807  0.2066  1.0182 -0.3783
 5284TIP3   OH237410   4.969   4.092   0.541  0.5862  0.0587  0.2091
 5284TIP3    H137411   4.876   4.070   0.538  1.0436 -1.9026 -0.9740
 5284TIP3    H237412   5.005   4.036   0.610  0.9663  0.5489  0.4143
 5285TIP3   OH237413   3.149   3.152   0.182  0.0448  0.1770  0.0971
 5285TIP3    H137414   3.152   3.182   0.091 -0.8717  0.2692  0.0934
 5285TIP3    H237415   3.097   3.072   0.181 -0.6741  0.6192  0.6496
 5286TIP3   OH237416   6.805   1.009   1.131  0.8138  0.3500  0.1916
 5286TIP3    H137417   6.769   0.921   1.137 -0.6007  0.8414 -0.5796
 5286TIP3    H237418   6.872   1.013   1.199 -0.7783 -0.5336  1.8824
 5287TIP3   OH237419   2.065   0.858   6.080  0.1548  0.3654 -0.3155
 5287TIP3    H137420   2.037   0.942   6.044 -3.5114  0.1635  1.5945
 5287TIP3    H237421   2.045   0.795   6.010 -2.5322  0.5185  0.2010
 5288TIP3   OH237422   6.604   6.317   1.581  0.0589 -0.0700  0.1556
 5288TIP3    H137423   6.584   6.316   1.675  0.8656  1.2182  0.3663
 5288TIP3    H237424   6.681   6.260   1.573  1.7331  1.9765  0.7640
 5289TIP3   OH237425   4.307   4.392   8.544  0.3482 -0.3859 -0.3186
 5289TIP3    H137426   4.267   4.479   8.540  0.7225 -0.2160 -0.4086
 5289TIP3    H237427   4.281   4.358   8.630  0.4820 -0.0452 -0.1397
 5290TIP3   OH237428   6.200   3.902   1.355  0.3217  0.4290 -0.7232
 5290TIP3    H137429   6.119   3.887   1.404  0.2399  1.1182 -0.6315
 5290TIP3    H237430   6.262   3.936   1.420  2.2267 -4.2273  0.2998
 5291TIP3   OH237431   5.396   5.849   7.408  0.4238  0.4945  0.8668
 5291TIP3    H137432   5.477   5.897   7.428  2.3513 -1.9112 -0.5602
 5291TIP3    H237433   5.371   5.880   7.321  1.6131 -0.9173 -0.0131
 5292TIP3   OH237434   6.753   2.705   7.950 -0.9279  0.2460 -0.9275
 5292TIP3    H137435   6.845   2.729   7.962 -0.5299 -0.6276 -2.0426
 5292TIP3    H237436   6.756   2.615   7.917 -2.2560 -0.3653  0.5152
 5293TIP3   OH237437   2.253   0.819   6.907  0.3322  0.3913 -0.0385
 5293TIP3    H137438   2.160   0.836   6.923  0.1510 -0.2139 -0.4391
 5293TIP3    H237439   2.286   0.787   6.992  0.1969  0.6855  0.1261
 5294TIP3   OH237440   6.032   5.534   1.652  0.3206 -0.2960  0.0895
 5294TIP3    H137441   6.069   5.612   1.693 -0.3588  1.2455 -2.0329
 5294TIP3    H237442   5.939   5.554   1.642  0.0518 -1.5647 -0.1416
 5295TIP3   OH237443   4.372   6.413   1.429  0.3149 -0.1117  0.2617
 5295TIP3    H137444   4.379   6.384   1.338  1.7357  0.1005  0.2724
 5295TIP3    H237445   4.442   6.478   1.438 -0.4709  0.6300  1.2334
 5296TIP3   OH237446   2.750   6.837   7.688  0.7265 -1.0031  0.1778
 5296TIP3    H137447   2.804   6.879   7.754  0.7497 -1.8876  0.7330
 5296TIP3    H237448   2.811   6.810   7.619  1.0725 -2.3596  0.9877
 5297TIP3   OH237449   2.882   6.315   1.934  0.1476  0.3728 -0.0754
 5297TIP3    H137450   2.919   6.364   1.861  0.7709  1.1425  0.7435
 5297TIP3    H237451   2.787   6.328   1.926  0.2203  0.6038 -0.6254
 5298TIP3   OH237452   2.992   0.342   6.596  0.6886 -0.2462  0.1859
 5298TIP3    H137453   3.046   0.414   6.626  0.0935 -0.0614  0.8468
 5298TIP3    H237454   3.038   0.306   6.521 -0.8644  3.2499 -2.6965
 5299TIP3   OH237455   4.005   1.402   1.976  0.1217  0.2033 -0.1294
 5299TIP3    H137456   3.943   1.339   2.010  0.5369 -0.2675 -0.2354
 5299TIP3    H237457   4.052   1.434   2.053 -0.5641  0.9105  0.0068
 5300TIP3   OH237458   5.416   0.031   8.639  0.3819  0.1748  0.0108
 5300TIP3    H137459   5.345  -0.024   8.607 -1.3660  2.3863 -0.1605
 5300TIP3    H237460   5.459  -0.021   8.706 -2.3351 -0.7428  1.1655
 5301TIP3   OH237461   2.909   6.811   1.806 -0.0124  0.0818 -0.1280
 5301TIP3    H137462   2.963   6.824   1.884  1.7112 -1.8180 -0.9024
 5301TIP3    H237463   2.820   6.803   1.839  0.3804  1.4948  1.3953
 5302TIP3   OH237464   3.912   6.703   0.559  0.2464  0.5864  0.3908
 5302TIP3    H137465   3.967   6.654   0.620 -1.2058  0.5887  1.7676
 5302TIP3    H237466   3.868   6.636   0.506  0.7489  0.5479  0.0137
 5303TIP3   OH237467   4.312   4.772   7.589 -0.1341  0.3053  0.4820
 5303TIP3    H137468   4.296   4.782   7.683 -0.4741 -0.0577  0.4670
 5303TIP3    H237469   4.239   4.718   7.558  1.1762 -1.5229  0.4394
 5304TIP3   OH237470   4.529   0.903   1.400 -0.2031 -0.0606  0.5115
 5304TIP3    H137471   4.506   0.993   1.423  0.8564  0.1024  0.9603
 5304TIP3    H237472   4.554   0.907   1.308 -0.4690  0.0409  0.4434
 5305TIP3   OH237473   1.231   3.282   2.341  0.0338  0.4595  0.1580
 5305TIP3    H137474   1.323   3.309   2.349 -0.0513  0.7607  0.1162
 5305TIP3    H237475   1.199   3.282   2.431  0.6462 -1.6908  0.4330
 5306TIP3   OH237476   0.119   6.488   8.070  0.0883  0.2361  0.0882
 5306TIP3    H137477   0.149   6.578   8.070  2.9059 -0.5873 -1.1901
 5306TIP3    H237478   0.198   6.436   8.054 -1.2198 -2.5602  1.8821
 5307TIP3   OH237479   6.535   4.114   7.553 -0.4672  0.4595  0.0583
 5307TIP3    H137480   6.630   4.104   7.540 -0.5501  1.1831 -1.2881
 5307TIP3    H237481   6.498   4.034   7.515 -0.4492  0.7080 -0.5041
 5308TIP3   OH237482   2.587   6.597   2.044  0.5557  0.0528 -0.0161
 5308TIP3    H137483   2.673   6.632   2.067  1.4742 -3.0495  2.0786
 5308TIP3    H237484   2.606   6.521   1.989 -0.8366 -0.4785  0.1882
 5309TIP3   OH237485   0.481   5.144   0.354  0.7517 -0.1116 -0.9607
 5309TIP3    H137486   0.491   5.127   0.448  0.1411 -0.0347 -0.8746
 5309TIP3    H237487   0.469   5.239   0.349  2.3934  0.0941 -1.2709
 5310TIP3   OH237488   0.324   6.294   1.333 -0.2048  0.4119  0.0129
 5310TIP3    H137489   0.233   6.271   1.348  0.5556 -2.1438  1.1075
 5310TIP3    H237490   0.374   6.223   1.372  2.2372  0.2249 -3.0873
 5311TIP3   OH237491   0.790   3.561   2.222  0.0185 -0.3834 -0.1124
 5311TIP3    H137492   0.698   3.541   2.205 -0.4540  0.8806  0.8007
 5311TIP3    H237493   0.832   3.475   2.229 -0.9974 -0.9763 -0.9230
 5312TIP3   OH237494   3.948   2.991   8.606 -0.0938 -0.6797 -0.5836
 5312TIP3    H137495   3.909   2.943   8.679  0.8984  0.1338  0.5186
 5312TIP3    H237496   3.916   3.080   8.617 -0.5012 -0.6857 -1.5848
 5313TIP3   OH237497   6.164   2.576   1.061 -0.0546  0.4587 -0.2596
 5313TIP3    H137498   6.124   2.571   1.147 -3.0025 -2.4550 -1.5568
 5313TIP3    H237499   6.238   2.515   1.065  0.2560  0.8665  0.3565
 5314TIP3   OH237500   1.985   5.115   7.889 -0.4996  0.0207 -0.5344
 5314TIP3    H137501   2.035   5.033   7.894 -1.5318 -0.5938  0.1725
 5314TIP3    H237502   1.944   5.123   7.975  0.7444  2.0679 -0.0564
 5315TIP3   OH237503   0.206   4.430   6.769 -0.1754  0.6365 -0.0514
 5315TIP3    H137504   0.220   4.414   6.676 -1.1358 -0.5900 -0.0042
 5315TIP3    H237505   0.138   4.497   6.772  0.9295  1.8149 -0.2118
 5316TIP3   OH237506   2.652   2.924   7.442 -0.7647  0.1741  0.0364
 5316TIP3    H137507   2.717   2.875   7.493 -1.6599 -1.1034 -0.0099
 5316TIP3    H237508   2.681   2.914   7.351 -1.0567 -0.4819  0.0059
 5317TIP3   OH237509   4.800   3.382   0.878  0.2048  0.2541 -0.3317
 5317TIP3    H137510   4.761   3.442   0.943 -2.0798  0.7726 -2.0271
 5317TIP3    H237511   4.741   3.307   0.876  0.9816 -0.3602 -0.8808
 5318TIP3   OH237512   5.633   3.740   0.005 -0.5949  1.0004 -0.4838
 5318TIP3    H137513   5.574   3.810  -0.024 -1.5724  1.0486  1.4370
 5318TIP3    H237514   5.621   3.737   0.100  0.8356 -0.5310 -0.3111
 5319TIP3   OH237515   3.333   4.523   7.891  0.3842  0.6279 -0.0630
 5319TIP3    H137516   3.282   4.548   7.814  1.1621  2.7097  0.0279
 5319TIP3    H237517   3.303   4.434   7.912 -2.7240  1.4790 -0.3973
 5320TIP3   OH237518   3.672   1.358   7.899 -0.0661 -0.0855  0.8885
 5320TIP3    H137519   3.638   1.334   7.985  0.4495  1.1432  1.4524
 5320TIP3    H237520   3.681   1.453   7.902  0.9403 -0.1250 -0.1585
 5321TIP3   OH237521   5.692   1.250   6.818  0.4539 -0.2640 -0.2436
 5321TIP3    H137522   5.762   1.224   6.878 -1.0613 -1.5080  1.0803
 5321TIP3    H237523   5.626   1.290   6.873 -1.0457 -1.5538 -1.0022
 5322TIP3   OH237524   5.071   6.809   8.012 -0.1997  0.3707 -0.0995
 5322TIP3    H137525   5.112   6.871   7.952 -0.2965  1.1360  0.6162
 5322TIP3    H237526   5.142   6.751   8.038 -0.2397 -0.2209 -1.2530
 5323TIP3   OH237527   0.896   2.356   7.604  0.6949 -0.6744 -0.3776
 5323TIP3    H137528   0.844   2.410   7.663  2.1787  1.4711 -0.8973
 5323TIP3    H237529   0.842   2.279   7.588 -1.4419  0.5186  0.6348
 5324TIP3   OH237530   4.549   3.921   1.301  0.1479  0.2391 -0.2540
 5324TIP3    H137531   4.591   3.896   1.383 -0.7880 -0.3784  0.0546
 5324TIP3    H237532   4.519   3.838   1.263 -0.5693  0.6388 -0.5804
 5325TIP3   OH237533   1.701   6.056   0.626 -1.0773  0.2380 -0.2188
 5325TIP3    H137534   1.780   6.004   0.642 -1.7936 -0.8289 -0.0318
 5325TIP3    H237535   1.635   5.992   0.600 -1.2975  1.3407 -2.6356
 5326TIP3   OH237536   3.122   6.098   0.664 -0.0875  0.5677 -0.0848
 5326TIP3    H137537   3.130   6.006   0.639 -0.6606  0.5127 -0.0710
 5326TIP3    H237538   3.211   6.124   0.686  0.0336 -0.0767  0.2237
 5327TIP3   OH237539   4.875   0.180   0.545 -0.3051  0.6972 -0.4057
 5327TIP3    H137540   4.823   0.209   0.620 -0.7088 -0.8525 -0.0450
 5327TIP3    H237541   4.843   0.092   0.526 -0.0553  0.9732 -2.2788
 5328TIP3   OH237542   6.415   5.879   7.424  0.0949  0.2824  0.7682
 5328TIP3    H137543   6.393   5.786   7.417 -0.1969  0.3805  0.3447
 5328TIP3    H237544   6.473   5.884   7.500 -3.4321  0.3444  3.7237
 5329TIP3   OH237545   0.129   3.662   7.982  0.4404 -0.0769  0.4348
 5329TIP3    H137546   0.181   3.741   7.969 -2.9518  2.2816 -0.1470
 5329TIP3    H237547   0.126   3.621   7.895 -0.5437  1.0982 -0.1155
 5330TIP3   OH237548   1.968   1.000   1.803 -0.0172  0.3357 -0.3765
 5330TIP3    H137549   1.999   1.014   1.893  1.7476 -3.4358 -0.1869
 5330TIP3    H237550   2.032   1.046   1.749 -0.0932  1.2030  0.2516
 5331TIP3   OH237551   5.688   4.453   6.451  0.2340 -0.0395  0.1232
 5331TIP3    H137552   5.747   4.490   6.386  1.1200 -0.3690  0.7288
 5331TIP3    H237553   5.745   4.424   6.523 -0.6756 -0.1301  0.8357
 5332TIP3   OH237554   6.843   0.167   7.284  0.5129  0.1139 -0.4508
 5332TIP3    H137555   6.913   0.104   7.301  1.4333  0.5614 -2.3725
 5332TIP3    H237556   6.884   0.253   7.297 -0.7635  0.4333  2.2660
 5333TIP3   OH237557   5.376   0.642   7.836 -0.1536 -0.1099 -0.2662
 5333TIP3    H137558   5.462   0.629   7.796  0.0930 -0.5064  0.3701
 5333TIP3    H237559   5.324   0.568   7.805 -1.3444  1.8611 -3.3746
 5334TIP3   OH237560   1.133   6.137   1.626 -0.4801  0.1423  0.0955
 5334TIP3    H137561   1.228   6.130   1.623 -0.2920  1.9860  0.5611
 5334TIP3    H237562   1.116   6.231   1.623 -2.2366 -0.0991  1.1598
 5335TIP3   OH237563   4.781   0.136   0.281  0.1874  0.2557  0.3854
 5335TIP3    H137564   4.733   0.155   0.200  2.3907 -0.7122 -1.2309
 5335TIP3    H237565   4.823   0.219   0.304  0.1838  0.3349  0.1141
 5336TIP3   OH237566   6.683   1.420   0.557  0.4102  0.2046  0.0252
 5336TIP3    H137567   6.617   1.484   0.584 -0.0672 -0.6777  1.0142
 5336TIP3    H237568   6.708   1.375   0.638  0.8521 -0.7464 -0.6208
 5337TIP3   OH237569   3.160   4.976   1.729 -0.2504 -0.4318 -0.0161
 5337TIP3    H137570   3.187   4.924   1.654 -0.0988  1.6182 -1.4591
 5337TIP3    H237571   3.101   5.042   1.693 -0.8516  0.1053  1.8206
 5338TIP3   OH237572   1.038   5.823   8.102 -0.4281  0.2532  0.0547
 5338TIP3    H137573   1.120   5.788   8.137 -0.3415  1.2470  0.9162
 5338TIP3    H237574   0.974   5.808   8.172 -0.8712 -0.0515 -0.4064
 5339TIP3   OH237575   5.556   6.070   8.397 -0.3879  0.2362  0.2432
 5339TIP3    H137576   5.484   6.122   8.360 -1.2624 -0.8976  0.2740
 5339TIP3    H237577   5.583   6.118   8.475 -0.9237  0.8338  0.0719
 5340TIP3   OH237578   1.540   4.424   6.602 -0.3480  0.5094  0.5831
 5340TIP3    H137579   1.622   4.441   6.649  0.1918  0.5687 -0.3509
 5340TIP3    H237580   1.541   4.486   6.529 -0.9934  0.1727  0.2789
 5341TIP3   OH237581   5.577   3.551   6.989 -1.1251 -0.3034  0.3220
 5341TIP3    H137582   5.626   3.498   7.051 -0.5451  0.1512  0.2566
 5341TIP3    H237583   5.511   3.595   7.042 -1.1738 -0.5661  0.4807
 5342TIP3   OH237584   2.337   1.966   6.383 -0.6360 -0.6014  0.2500
 5342TIP3    H137585   2.266   1.910   6.350 -1.0051  0.8018 -1.5146
 5342TIP3    H237586   2.304   2.055   6.371  1.2221  0.0699 -0.1719
 5343TIP3   OH237587   0.571   4.360   7.292  0.3703  0.0815 -0.3952
 5343TIP3    H137588   0.586   4.454   7.302  0.7186  0.0289 -0.3866
 5343TIP3    H237589   0.658   4.324   7.274  0.1022 -0.1195 -1.3695
 5344TIP3   OH237590   1.876   2.252   2.001 -0.4225 -0.1624  0.1507
 5344TIP3    H137591   1.853   2.307   2.076  1.1215  2.4076 -1.0940
 5344TIP3    H237592   1.971   2.244   2.005 -0.1935  0.8276 -1.9535
 5345TIP3   OH237593   0.089   1.538   7.917 -0.3507  0.0772  0.4839
 5345TIP3    H137594   0.111   1.628   7.941  1.6290 -0.0444 -0.6870
 5345TIP3    H237595   0.113   1.531   7.825 -0.6772 -1.5941  0.4896
 5346TIP3   OH237596   5.056   6.814   6.547  0.1221 -0.5281  0.3106
 5346TIP3    H137597   5.122   6.882   6.551  0.9915 -1.3693  0.6349
 5346TIP3    H237598   4.975   6.860   6.523  1.1881  0.2751 -2.0620
 5347TIP3   OH237599   4.673   1.381   7.091 -0.0694  0.2209  0.2084
 5347TIP3    H137600   4.735   1.366   7.019 -1.0359  0.7795 -0.7788
 5347TIP3    H237601   4.695   1.469   7.123  0.6587 -0.2083  0.9238
 5348TIP3   OH237602   1.540   1.613   8.077 -0.2641 -0.4341  0.3042
 5348TIP3    H137603   1.575   1.694   8.112 -0.0310 -0.6662  0.6195
 5348TIP3    H237604   1.502   1.568   8.153 -0.8417 -0.3927  0.0462
 5349TIP3   OH237605   4.513   1.115   8.038 -0.4326 -0.8172 -0.0313
 5349TIP3    H137606   4.514   1.196   7.987  0.1817 -0.9385 -0.2186
 5349TIP3    H237607   4.448   1.131   8.107 -0.3184 -0.1682 -0.0668
 5350TIP3   OH237608   6.257   5.028   2.615 -0.0738  0.1025 -0.0955
 5350TIP3    H137609   6.307   5.095   2.661 -1.0579  2.9698 -2.7900
 5350TIP3    H237610   6.166   5.043   2.642 -0.6524  1.7619 -2.6036
 5351TIP3   OH237611   1.619   5.533   0.936  0.0014 -0.4931 -0.0102
 5351TIP3    H137612   1.624   5.628   0.944  0.8660 -0.5967  0.7570
 5351TIP3    H237613   1.708   5.502   0.952  0.1545 -1.3199 -2.1036
 5352TIP3   OH237614   3.738   0.679   0.582 -0.3853 -0.1556  0.2090
 5352TIP3    H137615   3.654   0.685   0.537 -0.9965 -0.7390  1.2418
 5352TIP3    H237616   3.770   0.770   0.584 -1.9528  0.4100  1.5693
 5353TIP3   OH237617   0.351   2.406   0.029 -0.5894  0.1472 -0.2034
 5353TIP3    H137618   0.306   2.486   0.001  1.7579  0.9772 -1.9353
 5353TIP3    H237619   0.395   2.430   0.110 -0.5333  0.3775 -0.3018
 5354TIP3   OH237620   1.713   6.267   6.925 -0.3737 -0.3017 -0.1677
 5354TIP3    H137621   1.774   6.318   6.979 -2.6514  2.2731  0.2499
 5354TIP3    H237622   1.734   6.176   6.944  2.3014  0.4668  1.0492
 5355TIP3   OH237623   0.153   1.825   7.987  0.3616 -0.1850 -1.0598
 5355TIP3    H137624   0.147   1.846   7.893  2.0658 -1.2835 -1.4529
 5355TIP3    H237625   0.246   1.812   8.003  0.2289  1.1520  1.0955
 5356TIP3   OH237626   5.990   4.741   0.809  0.1065  0.7546  0.2476
 5356TIP3    H137627   6.021   4.738   0.899  0.1566 -1.8847  0.2385
 5356TIP3    H237628   6.067   4.718   0.756  0.0892  2.3205 -0.4900
 5357TIP3   OH237629   2.849   2.924   1.789  0.4427  0.1690  0.2965
 5357TIP3    H137630   2.883   2.868   1.719 -0.4498 -1.1889  0.8887
 5357TIP3    H237631   2.819   3.003   1.745 -0.5127 -0.8370 -0.9253
 5358TIP3   OH237632   0.765   2.381   0.153 -0.1986 -0.5895 -0.1030
 5358TIP3    H137633   0.821   2.428   0.214  1.5351 -1.1367 -1.2037
 5358TIP3    H237634   0.816   2.303   0.128 -1.2086 -0.8347 -1.5541
 5359TIP3   OH237635   4.977   0.826   7.946 -0.3815  0.1944  0.3679
 5359TIP3    H137636   4.906   0.881   7.978 -0.6024  0.3647 -0.3981
 5359TIP3    H237637   5.049   0.886   7.929 -0.3096  0.1241  0.4241
 5360TIP3   OH237638   5.450   4.803   1.600  0.5755 -0.2412  0.7156
 5360TIP3    H137639   5.535   4.795   1.555 -0.5050  1.1893 -1.7854
 5360TIP3    H237640   5.451   4.891   1.638  0.1517 -0.1636  0.5505
 5361TIP3   OH237641   5.006   2.941   0.465  0.0849  0.0616  0.0328
 5361TIP3    H137642   4.982   2.993   0.389  0.5750  1.4173  0.7843
 5361TIP3    H237643   5.073   2.881   0.433 -0.5019 -0.1500 -0.8425
 5362TIP3   OH237644   5.833   0.014   0.988  0.1374  0.4373 -0.0949
 5362TIP3    H137645   5.917  -0.030   0.977  1.9383  3.5310  0.0364
 5362TIP3    H237646   5.823   0.067   0.909 -1.4034  0.6080  0.1781
 5363TIP3   OH237647   5.779   5.336   7.181  0.0596  0.0127  0.5241
 5363TIP3    H137648   5.793   5.353   7.088 -1.5111 -1.9331 -0.1330
 5363TIP3    H237649   5.867   5.336   7.219  0.7696  0.3207 -1.0562
 5364TIP3   OH237650   2.716   1.893   1.751 -0.0065 -0.7479  0.0579
 5364TIP3    H137651   2.707   1.806   1.712  1.5647 -1.2244  0.6663
 5364TIP3    H237652   2.810   1.907   1.758 -0.2278  0.4547  1.1798
 5365TIP3   OH237653   5.069   3.499   1.458 -0.2978  0.3102 -0.7177
 5365TIP3    H137654   5.126   3.538   1.524 -1.5363  1.5180 -0.3176
 5365TIP3    H237655   4.981   3.527   1.483 -1.0167 -1.0347 -1.6451
 5366TIP3   OH237656   3.809   2.799   8.392  0.1856 -0.1274  0.8249
 5366TIP3    H137657   3.769   2.776   8.477 -1.0154  0.2472  0.3861
 5366TIP3    H237658   3.851   2.883   8.407 -0.3635  0.1286  0.9587
 5367TIP3   OH237659   0.526   5.109   7.397  0.1457  0.4557  0.0817
 5367TIP3    H137660   0.595   5.176   7.396 -1.0878  1.7808 -0.7586
 5367TIP3    H237661   0.493   5.108   7.307  0.7604 -2.0422 -0.2099
 5368TIP3   OH237662   0.708   0.955   1.363 -0.1631 -0.1073  0.3705
 5368TIP3    H137663   0.672   0.982   1.447 -2.4657  2.3026 -1.2224
 5368TIP3    H237664   0.669   0.870   1.345  0.5918 -0.7852  1.8018
 5369TIP3   OH237665   1.824   2.036   8.039  0.2634  0.0019 -0.6621
 5369TIP3    H137666   1.763   2.110   8.035  1.1062  0.9743  2.2651
 5369TIP3    H237667   1.879   2.047   7.961 -1.2836  0.8922 -1.6985
 5370TIP3   OH237668   4.184   3.398   7.651  0.3410  0.0064 -0.1111
 5370TIP3    H137669   4.095   3.427   7.632  0.0197 -0.8470  0.0479
 5370TIP3    H237670   4.236   3.478   7.649 -0.5779  0.6442  0.7285
 5371TIP3   OH237671   3.656   2.442   0.678 -0.2645  0.0120  0.5927
 5371TIP3    H137672   3.624   2.523   0.718 -0.0758  0.1975  0.3696
 5371TIP3    H237673   3.649   2.457   0.584  0.9646  0.2477  0.5298
 5372TIP3   OH237674   2.044   1.196   6.982  0.0189 -0.3370  0.2848
 5372TIP3    H137675   2.019   1.166   7.070 -0.2406 -1.0448 -0.0271
 5372TIP3    H237676   1.965   1.182   6.929  0.2310 -0.0689 -0.1007
 5373TIP3   OH237677   3.403   3.436   0.475 -0.3502 -0.4778 -0.4642
 5373TIP3    H137678   3.377   3.478   0.557 -1.4842 -0.7174 -0.6814
 5373TIP3    H237679   3.459   3.363   0.503 -0.0759 -0.0804  0.0424
 5374TIP3   OH237680   4.964   1.403   2.002  0.3698 -0.0535  0.1604
 5374TIP3    H137681   4.911   1.343   2.053 -0.4130  0.0784 -0.4794
 5374TIP3    H237682   5.029   1.437   2.064  0.4696 -1.1217  0.6569
 5375TIP3   OH237683   4.180   1.147   8.582  0.2320  0.6473 -0.0599
 5375TIP3    H137684   4.179   1.175   8.491 -1.8395 -0.4046 -0.4164
 5375TIP3    H237685   4.128   1.213   8.628 -1.6612 -0.5656 -0.3057
 5376TIP3   OH237686   5.184   6.770   8.618 -0.3506  0.6332  0.0819
 5376TIP3    H137687   5.096   6.765   8.579 -0.2953 -2.1442  0.0759
 5376TIP3    H237688   5.169   6.762   8.712 -0.2036  3.0464  0.3834
 5377TIP3   OH237689   4.958   1.760   7.298  0.1533  0.1031 -0.6244
 5377TIP3    H137690   4.963   1.756   7.394  1.6599  0.9018 -0.6360
 5377TIP3    H237691   5.006   1.683   7.268 -0.4859 -0.2518 -0.7440
 5378TIP3   OH237692   0.745   3.659   6.888  0.3226  0.1669  0.0189
 5378TIP3    H137693   0.823   3.713   6.878  0.8491 -0.6195 -0.2269
 5378TIP3    H237694   0.739   3.611   6.805 -0.3128  0.0795  0.1133
 5379TIP3   OH237695   1.383   0.282   8.357 -0.0569 -0.2520  1.1762
 5379TIP3    H137696   1.305   0.281   8.412 -2.0326 -0.4030 -1.3982
 5379TIP3    H237697   1.389   0.373   8.326 -0.7954 -0.7790 -0.6247
 5380TIP3   OH237698   3.667   5.219   1.797 -0.1989  0.1134 -0.2683
 5380TIP3    H137699   3.668   5.302   1.844 -0.6005 -0.2470  0.3898
 5380TIP3    H237700   3.701   5.155   1.860  0.1861 -0.2130 -0.7941
 5381TIP3   OH237701   5.425   2.963   8.339  0.1978  0.4799 -0.1377
 5381TIP3    H137702   5.500   2.926   8.291 -0.7550 -1.3339 -0.2987
 5381TIP3    H237703   5.463   3.034   8.390  1.5835  1.2519 -2.1267
 5382TIP3   OH237704   4.114   3.805   7.666 -0.2292  0.5477 -0.1308
 5382TIP3    H137705   4.053   3.732   7.649  1.4128 -0.5430 -1.6831
 5382TIP3    H237706   4.069   3.882   7.633 -0.1383 -0.4906 -2.9081
 5383TIP3   OH237707   6.057   1.725   7.715 -0.0438  0.3364  0.0855
 5383TIP3    H137708   6.125   1.792   7.704 -0.3983  0.4711 -1.6426
 5383TIP3    H237709   6.025   1.738   7.804  0.1660  2.2303 -0.0732
 5384TIP3   OH237710   1.265   4.264   0.678 -0.2888 -0.2901 -0.6126
 5384TIP3    H137711   1.345   4.279   0.728  0.4791 -2.1762 -1.1960
 5384TIP3    H237712   1.267   4.331   0.610  0.6910 -0.1819 -0.4970
 5385TIP3   OH237713   3.326   0.653   8.111  0.1906 -0.0431  0.1920
 5385TIP3    H137714   3.339   0.672   8.204  0.9707 -0.6231  0.2039
 5385TIP3    H237715   3.257   0.586   8.111 -0.3320  0.4891  0.3105
 5386TIP3   OH237716   4.245   2.205   0.146  0.4774  0.0551  0.0155
 5386TIP3    H137717   4.288   2.264   0.209 -0.8473  1.1348 -0.0319
 5386TIP3    H237718   4.198   2.142   0.200 -0.8582  1.1290  0.1519
 5387TIP3   OH237719   4.957   2.641   1.088  0.3017 -0.4489  0.4378
 5387TIP3    H137720   4.891   2.575   1.066  1.0196 -1.3527  0.9544
 5387TIP3    H237721   4.906   2.721   1.103 -0.4748 -0.5587 -1.3980
 5388TIP3   OH237722   1.086   1.364   0.219 -0.1337 -0.0679  0.3484
 5388TIP3    H137723   1.065   1.439   0.163 -0.5444 -0.3034  0.1764
 5388TIP3    H237724   1.026   1.372   0.293  0.6228  0.4131  0.9113
 5389TIP3   OH237725   3.255   2.103   1.776  0.1637 -0.0833 -0.6661
 5389TIP3    H137726   3.293   2.017   1.791  1.3080  0.4633 -0.3482
 5389TIP3    H237727   3.293   2.133   1.693 -0.7526 -0.1563 -1.1275
 5390TIP3   OH237728   1.770   6.609   8.227  0.1819  0.0436  0.0797
 5390TIP3    H137729   1.828   6.564   8.289 -0.1269 -0.0590  0.2935
 5390TIP3    H237730   1.750   6.543   8.161 -0.0520 -0.0546  0.2475
 5391TIP3   OH237731   2.743   4.077   0.436  0.0471  0.0540  0.1984
 5391TIP3    H137732   2.712   4.000   0.388 -1.3292  0.8367 -0.2118
 5391TIP3    H237733   2.664   4.127   0.454  0.9995  1.8152 -0.3311
 5392TIP3   OH237734   4.762   6.093   6.214 -0.0768  0.7230 -0.0088
 5392TIP3    H137735   4.829   6.161   6.219 -0.7272  1.5325 -1.5715
 5392TIP3    H237736   4.743   6.085   6.121  0.6121 -2.2812  0.0069
 5393TIP3   OH237737   6.117   1.710   8.045  0.3526  0.5270 -0.1735
 5393TIP3    H137738   6.036   1.705   8.097 -1.4129  1.0178 -2.6836
 5393TIP3    H237739   6.145   1.801   8.054  0.7496  0.3244  0.8122
 5394TIP3   OH237740   5.379   5.123   8.185 -0.6824  0.4724 -0.1309
 5394TIP3    H137741   5.348   5.146   8.097 -0.0726 -0.0029 -0.4760
 5394TIP3    H237742   5.310   5.154   8.243 -1.0058  0.9687 -0.7630
 5395TIP3   OH237743   0.151   0.065   8.544  0.3232 -0.2524  0.0987
 5395TIP3    H137744   0.065   0.027   8.531 -1.2688  2.5256  1.5106
 5395TIP3    H237745   0.149   0.097   8.635  2.8023  0.0136  0.1289
 5396TIP3   OH237746   5.043   4.489   6.790  0.0682  0.0371  0.1687
 5396TIP3    H137747   5.076   4.401   6.811 -4.2400 -2.5861 -2.4989
 5396TIP3    H237748   5.080   4.508   6.704  0.6499  0.6861  0.5544
 5397TIP3   OH237749   2.208   6.702   1.167  0.3158 -0.6549 -0.0347
 5397TIP3    H137750   2.237   6.762   1.098 -0.3586  0.2933  0.4845
 5397TIP3    H237751   2.191   6.620   1.121  0.3707 -0.1864 -0.9200
 5398TIP3   OH237752   0.262   4.351   7.244  0.0371 -0.0930 -0.1091
 5398TIP3    H137753   0.294   4.416   7.307  1.7199  0.6615 -1.6478
 5398TIP3    H237754   0.306   4.374   7.162  0.9366 -3.3644 -0.6785
 5399TIP3   OH237755   5.335   5.332   8.486 -0.0595  0.5623 -0.1279
 5399TIP3    H137756   5.341   5.387   8.408 -0.4298 -2.0567 -2.1406
 5399TIP3    H237757   5.260   5.275   8.471  1.7517 -2.2483  0.5355
 5400TIP3   OH237758   1.294   1.847   7.009 -0.1425 -0.3096 -0.4485
 5400TIP3    H137759   1.239   1.913   6.967  0.1044 -0.5200 -1.1088
 5400TIP3    H237760   1.321   1.789   6.938  1.1483 -0.0570 -0.1974
 5401TIP3   OH237761   3.964   3.776   0.591  1.0011 -0.5452  0.0496
 5401TIP3    H137762   3.984   3.746   0.502  0.7167  1.0435 -0.5755
 5401TIP3    H237763   4.049   3.776   0.635  1.4145  0.2133 -0.7214
 5402TIP3   OH237764   4.721   2.660   7.469 -0.3503  0.5915  0.0379
 5402TIP3    H137765   4.734   2.755   7.462 -0.7213  0.5616 -1.2152
 5402TIP3    H237766   4.635   2.645   7.432  0.2198 -0.3820 -0.9570
 5403TIP3   OH237767   1.382   5.939   2.474 -0.7744 -0.0141 -0.9113
 5403TIP3    H137768   1.377   5.918   2.381 -0.4310  0.0111 -0.9350
 5403TIP3    H237769   1.460   5.994   2.483 -1.2584  0.6599 -0.7318
 5404TIP3   OH237770   2.520   1.434   7.268  0.0645  0.0380  0.3895
 5404TIP3    H137771   2.471   1.463   7.191  0.5284 -1.3415 -0.4570
 5404TIP3    H237772   2.611   1.459   7.249  0.4913 -1.9773 -0.4079
 5405TIP3   OH237773   3.894   2.736   2.518 -0.4845 -0.0216 -0.0823
 5405TIP3    H137774   3.848   2.654   2.536  2.0377 -1.2510  1.2763
 5405TIP3    H237775   3.984   2.709   2.498  0.6681  2.4204  1.3715
 5406TIP3   OH237776   1.703   4.317   8.192 -0.3265  0.4435  0.7572
 5406TIP3    H137777   1.743   4.234   8.169 -0.3618  0.6110  0.0722
 5406TIP3    H237778   1.609   4.299   8.190 -0.3917  0.8438 -0.8094
 5407TIP3   OH237779   1.200   2.815   8.383 -0.5763  0.3138  0.4325
 5407TIP3    H137780   1.168   2.842   8.297  0.3918  1.1075  0.2984
 5407TIP3    H237781   1.128   2.765   8.421 -1.2579  0.4948 -0.5817
 5408TIP3   OH237782   0.511   1.351   6.744  0.2104 -0.3245 -0.1185
 5408TIP3    H137783   0.576   1.390   6.803 -1.3446 -0.7532  2.0021
 5408TIP3    H237784   0.539   1.260   6.735  1.4209  0.1410 -1.5512
 5409TIP3   OH237785   2.916   6.640   8.379 -0.2884  0.6496  0.2885
 5409TIP3    H137786   2.989   6.686   8.337 -0.3622 -0.2293 -0.8495
 5409TIP3    H237787   2.889   6.574   8.315 -2.0532  0.9053  0.7024
 5410TIP3   OH237788   6.322   1.426   0.575  0.4118 -0.3719  0.0908
 5410TIP3    H137789   6.397   1.484   0.559 -1.0805  1.9303  0.9265
 5410TIP3    H237790   6.246   1.476   0.544 -1.2407 -0.7245  3.2111
 5411TIP3   OH237791   2.346   0.275   1.207 -0.1142 -0.6066  0.0521
 5411TIP3    H137792   2.351   0.202   1.146 -0.3361 -1.5000  1.0781
 5411TIP3    H237793   2.437   0.296   1.229 -0.0686 -1.1295  0.3844
 5412TIP3   OH237794   1.293   0.985   1.244  0.2707  0.1278  0.7103
 5412TIP3    H137795   1.388   0.998   1.242  0.8979 -3.4340 -1.0791
 5412TIP3    H237796   1.266   0.995   1.152 -0.6872 -0.9962  0.8440
 5413TIP3   OH237797   3.713   2.050   0.308 -0.3871  0.5809 -0.5626
 5413TIP3    H137798   3.675   2.007   0.231 -1.3923  2.1090 -0.9596
 5413TIP3    H237799   3.666   2.012   0.382  0.7916 -1.1164 -0.6439
 5414TIP3   OH237800   3.896   3.476   0.843  0.4386  0.0835  0.2531
 5414TIP3    H137801   3.976   3.446   0.799  0.7035  2.3277 -0.9118
 5414TIP3    H237802   3.904   3.441   0.932  1.9846 -0.9734 -0.2488
 5415TIP3   OH237803   4.218   0.479   0.937  0.1677 -0.3046 -0.5630
 5415TIP3    H137804   4.196   0.407   0.995  0.3570 -0.7874 -1.0832
 5415TIP3    H237805   4.290   0.446   0.883  0.9290  0.6074 -0.1430
 5416TIP3   OH237806   4.369   5.318   0.057 -0.3621 -0.4106  0.7838
 5416TIP3    H137807   4.281   5.293   0.085  0.3293 -1.5521  2.0813
 5416TIP3    H237808   4.427   5.283   0.125  0.9905  1.7442  0.8475
 5417TIP3   OH237809   0.654   3.118   0.638  0.4646  0.3147  0.6215
 5417TIP3    H137810   0.613   3.132   0.724  0.7710  1.3033  0.6243
 5417TIP3    H237811   0.748   3.124   0.656  0.5756 -0.6002  0.3919
 5418TIP3   OH237812   6.627   5.705   0.045 -0.0920  0.0130 -0.0827
 5418TIP3    H137813   6.584   5.621   0.058  0.0674 -0.3887 -1.9347
 5418TIP3    H237814   6.557   5.764   0.017  0.0921  0.0534 -0.4624
 5419TIP3   OH237815   2.649   1.364   0.299 -0.0124 -0.4357  0.2645
 5419TIP3    H137816   2.632   1.444   0.249 -0.6707 -0.1279  0.9663
 5419TIP3    H237817   2.678   1.395   0.384  0.3355 -0.9588  0.3417
 5420TIP3   OH237818   3.227   4.963   6.888 -0.0457 -0.0786  0.1900
 5420TIP3    H137819   3.178   4.913   6.954  0.2788  1.7552  1.9033
 5420TIP3    H237820   3.190   5.051   6.892  3.8380  1.6871  2.2303
 5421TIP3   OH237821   4.924   5.394   7.624  0.5723  0.1963  0.1005
 5421TIP3    H137822   4.929   5.489   7.629  1.1556  0.2471 -1.2050
 5421TIP3    H237823   4.925   5.366   7.716 -0.4157  1.4630  0.5420
 5422TIP3   OH237824   4.876   2.975   0.945  0.2338  0.3665 -0.0890
 5422TIP3    H137825   4.783   2.961   0.931  0.3429 -0.7912  0.2571
 5422TIP3    H237826   4.919   2.927   0.874  0.6138 -1.1440  1.1059
 5423TIP3   OH237827   1.955   4.254   1.124 -0.4095  0.0984 -0.3968
 5423TIP3    H137828   2.003   4.190   1.072  0.5736  1.0221 -0.6540
 5423TIP3    H237829   1.968   4.227   1.215  2.4743  1.5205 -0.2906
 5424TIP3   OH237830   0.838   6.672   6.916 -0.9665  0.0861  0.0684
 5424TIP3    H137831   0.830   6.711   7.003 -0.4506 -0.5378  0.4131
 5424TIP3    H237832   0.754   6.627   6.902 -1.0416  0.1660  0.2578
 5425TIP3   OH237833   5.856   6.295   0.776 -0.2992  0.0895  0.1233
 5425TIP3    H137834   5.764   6.300   0.748  0.1864 -0.0882 -1.6087
 5425TIP3    H237835   5.858   6.220   0.836 -1.1648 -0.3469 -0.3581
 5426TIP3   OH237836   2.386   4.242   6.187  0.5787 -0.4239  0.3758
 5426TIP3    H137837   2.333   4.318   6.162  0.5368 -0.3094  0.8150
 5426TIP3    H237838   2.322   4.177   6.216  0.6817 -0.2472  1.0111
 5427TIP3   OH237839   5.346   5.657   0.843  0.3866 -0.4427 -0.1212
 5427TIP3    H137840   5.334   5.562   0.852  0.0858 -0.3314  0.8348
 5427TIP3    H237841   5.344   5.690   0.933 -1.3209  0.6784 -0.5007
 5428TIP3   OH237842   2.255   3.910   8.544  0.0908 -0.3362  0.2574
 5428TIP3    H137843   2.202   3.963   8.484 -0.8313 -1.8055 -0.2850
 5428TIP3    H237844   2.345   3.923   8.514 -0.1578  0.5502 -0.1432
 5429TIP3   OH237845   6.860   1.368   2.102 -0.1610 -0.0358 -0.6582
 5429TIP3    H137846   6.890   1.447   2.056  1.2531 -0.9437 -1.3470
 5429TIP3    H237847   6.890   1.381   2.192 -2.0733  1.2915 -0.1500
 5430TIP3   OH237848   4.762   4.990   1.553 -0.0526  0.7720  0.0694
 5430TIP3    H137849   4.792   4.993   1.644 -0.3993 -0.5982  0.2478
 5430TIP3    H237850   4.712   5.071   1.542  0.0865  1.0088  1.0614
 5431TIP3   OH237851   5.684   2.506   6.744 -0.0212  0.0171 -0.4993
 5431TIP3    H137852   5.636   2.587   6.724 -0.8405  0.0391  1.2981
 5431TIP3    H237853   5.625   2.436   6.717 -1.0039  0.0478  1.3631
 5432TIP3   OH237854   1.070   3.900   8.630  0.1901 -0.5071  0.0185
 5432TIP3    H137855   1.150   3.947   8.652  1.5369 -2.3637 -0.6236
 5432TIP3    H237856   1.024   3.959   8.570  1.5264  0.2597 -0.3121
 5433TIP3   OH237857   1.689   0.127   6.885 -0.5909  0.5614  0.7122
 5433TIP3    H137858   1.631   0.163   6.953  0.1995  2.1834  0.5844
 5433TIP3    H237859   1.671   0.181   6.808  0.1942  0.2727  0.3195
 5434TIP3   OH237860   0.471   5.626   1.277  0.0406  0.6535  0.1796
 5434TIP3    H137861   0.447   5.717   1.257  0.6608  0.5356 -1.2817
 5434TIP3    H237862   0.433   5.576   1.205  0.7038 -0.1005  0.3482
 5435TIP3   OH237863   1.490   5.117   6.444  0.7653  0.2832  0.1431
 5435TIP3    H137864   1.568   5.090   6.396  0.4934 -0.8650  0.3276
 5435TIP3    H237865   1.417   5.098   6.384  0.2515 -2.8025  1.5575
 5436TIP3   OH237866   3.330   5.608   1.072  0.1883  0.3073 -0.3642
 5436TIP3    H137867   3.420   5.616   1.101 -0.2939  0.8396  1.0710
 5436TIP3    H237868   3.286   5.561   1.142 -0.4693 -0.7877 -1.4691
 5437TIP3   OH237869   0.805   1.305   1.682 -0.0694 -0.4260  0.1051
 5437TIP3    H137870   0.894   1.335   1.664 -0.4264 -0.0835 -1.1997
 5437TIP3    H237871   0.750   1.379   1.659 -0.6703 -0.3479  1.6790
 5438TIP3   OH237872   3.366   1.801   6.696 -0.2799  0.0042 -0.0899
 5438TIP3    H137873   3.368   1.727   6.757  0.6217  0.1358  0.0519
 5438TIP3    H237874   3.283   1.790   6.648 -0.6392 -0.5216  0.6265
 5439TIP3   OH237875   0.142   2.097   0.301 -0.0835  0.2702  0.6416
 5439TIP3    H137876   0.175   2.009   0.318  0.3681  0.0206 -1.2733
 5439TIP3    H237877   0.083   2.087   0.227 -2.5734  1.1381  2.3613
 5440TIP3   OH237878   4.254   5.535   1.915 -0.0803  0.1862 -0.0778
 5440TIP3    H137879   4.325   5.477   1.889 -0.4154 -1.2654  2.0360
 5440TIP3    H237880   4.298   5.616   1.943  0.8012 -0.7261  1.2815
 5441TIP3   OH237881   4.367   4.082   7.221 -0.4502 -0.1143 -0.7069
 5441TIP3    H137882   4.367   4.175   7.202 -1.4579  0.3694  1.3425
 5441TIP3    H237883   4.330   4.041   7.144 -3.5216  1.5629 -0.2639
 5442TIP3   OH237884   4.418   5.155   7.287 -0.2111 -0.2355  0.1647
 5442TIP3    H137885   4.356   5.226   7.305 -0.0950 -0.3199  0.9295
 5442TIP3    H237886   4.414   5.100   7.366  1.9570  0.5708  0.8981
 5443TIP3   OH237887   1.416   4.533   6.941 -0.2963 -0.4872  0.0538
 5443TIP3    H137888   1.358   4.550   7.015 -1.3850 -1.7760 -0.4551
 5443TIP3    H237889   1.502   4.518   6.980 -0.2207  1.5572  0.8223
 5444TIP3   OH237890   0.775   0.828   8.033 -0.3567  0.1621 -0.5475
 5444TIP3    H137891   0.776   0.846   7.939 -0.4076  1.2705 -0.3486
 5444TIP3    H237892   0.857   0.866   8.065 -0.4462 -0.0130 -0.1165
 5445TIP3   OH237893   5.320   0.707   8.243  0.0896  0.1695 -0.0441
 5445TIP3    H137894   5.303   0.748   8.327 -0.5979  1.3122 -0.7034
 5445TIP3    H237895   5.233   0.683   8.210  0.5038 -2.8984  0.7753
 5446TIP3   OH237896   4.427   0.831   8.037  0.0119  0.0537  0.0241
 5446TIP3    H137897   4.443   0.924   8.053 -0.4390  0.0121  0.7503
 5446TIP3    H237898   4.456   0.787   8.117  0.9639 -0.5230 -0.6163
 5447TIP3   OH237899   4.672   4.035   1.818  0.5829  0.0773 -0.0137
 5447TIP3    H137900   4.590   4.055   1.774  0.1091 -2.8645 -0.6237
 5447TIP3    H237901   4.725   3.990   1.753  1.2754 -1.2160  1.3826
 5448TIP3   OH237902   3.327   5.976   7.322  0.2939 -0.2681  0.1185
 5448TIP3    H137903   3.307   6.065   7.293  0.3614 -0.5729 -0.9026
 5448TIP3    H237904   3.312   5.922   7.245  1.3415 -0.9984  0.4124
 5449TIP3   OH237905   2.248   4.579   1.628 -0.6113  0.4077 -0.3162
 5449TIP3    H137906   2.338   4.611   1.619 -0.1814 -0.6578  0.0571
 5449TIP3    H237907   2.257   4.493   1.668 -1.7888  0.1454 -0.5817
 5450TIP3   OH237908   5.440   1.816   1.099 -0.0672 -0.1528  0.1931
 5450TIP3    H137909   5.426   1.906   1.069 -0.6472 -0.1549  0.4273
 5450TIP3    H237910   5.352   1.784   1.120  0.2412 -0.3783  1.2304
 5451TIP3   OH237911   6.509   6.070   6.603 -0.6264  0.0334  0.3401
 5451TIP3    H137912   6.526   6.163   6.586 -0.5885 -0.1751 -0.9022
 5451TIP3    H237913   6.590   6.026   6.577 -1.4983 -0.5592 -1.5645
 5452TIP3   OH237914   5.239   5.409   6.595 -0.2907  0.5178 -0.5892
 5452TIP3    H137915   5.332   5.430   6.603 -0.8783  3.4795 -0.3472
 5452TIP3    H237916   5.201   5.435   6.679 -1.4214 -0.1578 -0.8717
 5453TIP3   OH237917   5.193   1.764   7.703  0.4704 -0.3136 -0.3230
 5453TIP3    H137918   5.210   1.822   7.629  1.1640  1.2502  1.0058
 5453TIP3    H237919   5.098   1.767   7.714  0.4509  0.1607 -0.5874
 5454TIP3   OH237920   5.193   1.530   7.346 -0.1878  0.5295 -0.2026
 5454TIP3    H137921   5.227   1.560   7.262 -0.1108  0.8728 -0.0490
 5454TIP3    H237922   5.263   1.476   7.383 -0.8470 -1.0109 -1.0983
 5455TIP3   OH237923   3.434   1.510   0.167 -0.1220 -0.5798 -0.0774
 5455TIP3    H137924   3.373   1.482   0.099 -0.4193  0.3571 -0.2049
 5455TIP3    H237925   3.463   1.596   0.140 -0.4885 -0.0526  1.1276
 5456TIP3   OH237926   5.070   2.960   1.314 -0.3550  0.1877  0.0380
 5456TIP3    H137927   5.102   2.948   1.225  0.6175 -0.5810  0.4752
 5456TIP3    H237928   4.975   2.960   1.306 -0.2814 -0.3553 -0.9432
 5457TIP3   OH237929   5.779   0.630   2.309 -0.0757 -0.0785 -0.5024
 5457TIP3    H137930   5.838   0.588   2.371 -0.4588 -0.6926 -0.5424
 5457TIP3    H237931   5.729   0.693   2.361  0.4331  0.2663 -0.4222
 5458TIP3   OH237932   6.099   0.192   1.305 -0.5134  0.2488  0.1448
 5458TIP3    H137933   6.094   0.103   1.338 -2.1001  0.4426  0.5273
 5458TIP3    H237934   6.016   0.232   1.331 -0.1369  1.6222 -0.6370
 5459TIP3   OH237935   5.825   1.441   7.961  0.3443  0.2948 -0.3851
 5459TIP3    H137936   5.754   1.377   7.955  0.6538 -0.0351 -0.6038
 5459TIP3    H237937   5.782   1.524   7.981  0.0059 -0.1472  0.7830
 5460TIP3   OH237938   3.813   4.520   6.689 -0.0612  0.2922  0.0169
 5460TIP3    H137939   3.869   4.446   6.711  0.2573  0.6834  0.5539
 5460TIP3    H237940   3.851   4.556   6.608 -0.6439 -0.5536 -0.6445
 5461TIP3   OH237941   1.935   6.215   1.585  0.4108 -0.2346 -0.5598
 5461TIP3    H137942   1.964   6.216   1.493  0.7916  0.2626 -0.4361
 5461TIP3    H237943   2.015   6.211   1.636  0.4351  2.8015 -0.1720
 5462TIP3   OH237944   6.856   3.315   0.503 -0.3812  0.1813 -0.3367
 5462TIP3    H137945   6.786   3.375   0.475 -0.9518  0.6294  1.8453
 5462TIP3    H237946   6.819   3.269   0.578  0.1646 -2.7366 -1.7200
 5463TIP3   OH237947   6.220   4.601   1.243 -0.2668  0.4113 -0.2381
 5463TIP3    H137948   6.163   4.534   1.281  0.9262  0.3221  1.5079
 5463TIP3    H237949   6.279   4.626   1.314  0.3499  2.1993 -1.2986
 5464TIP3   OH237950   0.080   5.809   1.095 -0.2697 -0.1845  0.0525
 5464TIP3    H137951  -0.015   5.808   1.091 -0.2747  1.3335 -1.5225
 5464TIP3    H237952   0.101   5.787   1.186 -2.2144  1.9204  1.0993
 5465TIP3   OH237953   0.684   2.242   0.407 -0.0371 -0.0435  0.2675
 5465TIP3    H137954   0.630   2.173   0.370 -1.2944  0.5795  0.8728
 5465TIP3    H237955   0.699   2.303   0.335  0.1137 -0.3550  0.0298
 5466TIP3   OH237956   4.433   4.396   7.746 -0.2061 -0.1011  0.1593
 5466TIP3    H137957   4.425   4.388   7.651  1.1983 -1.2355  0.0939
 5466TIP3    H237958   4.369   4.333   7.780 -0.9439  0.5451 -0.0206
 5467TIP3   OH237959   2.012   1.312   7.396 -0.0120 -0.2116  0.1058
 5467TIP3    H137960   2.093   1.335   7.351  0.9587  0.1416  1.9122
 5467TIP3    H237961   1.945   1.368   7.356  0.9630  0.6843 -0.3287
 5468TIP3   OH237962   3.023   5.820   7.984 -0.1326 -0.5900  0.4295
 5468TIP3    H137963   3.035   5.725   7.985 -0.5641 -0.6760 -0.7225
 5468TIP3    H237964   3.093   5.853   7.928 -0.6141 -0.3407 -0.0383
 5469TIP3   OH237965   4.713   0.351   2.103  0.4905 -0.1426  0.0169
 5469TIP3    H137966   4.637   0.315   2.148  0.7877 -0.7382  0.0579
 5469TIP3    H237967   4.728   0.436   2.145 -0.9270  0.5841 -0.8611
 5470TIP3   OH237968   2.972   0.839   8.266 -0.1943 -0.5209 -0.4452
 5470TIP3    H137969   2.981   0.753   8.307  0.2243  0.4911  1.7028
 5470TIP3    H237970   2.886   0.870   8.293 -0.2660 -0.1612 -1.0535
 5471TIP3   OH237971   6.696   1.255   1.048  0.5749 -0.7790 -0.2610
 5471TIP3    H137972   6.601   1.257   1.058  0.3174  2.3825 -1.9084
 5471TIP3    H237973   6.723   1.174   1.091 -2.5058 -0.2349  3.2575
 5472TIP3   OH237974   0.102   1.031   1.624 -0.3590  0.3089  0.1385
 5472TIP3    H137975   0.057   1.100   1.671 -0.4948 -0.9574  1.9468
 5472TIP3    H237976   0.175   1.006   1.680 -0.4825 -1.2145 -0.3252
 5473TIP3   OH237977   2.232   4.383   7.560  0.2535  0.5991 -0.4889
 5473TIP3    H137978   2.243   4.310   7.498  0.7631  0.8601 -0.7139
 5473TIP3    H237979   2.236   4.342   7.646 -1.5826  0.0636 -0.6055
 5474TIP3   OH237980   1.090   5.558   7.945  0.4972 -0.4418 -0.7279
 5474TIP3    H137981   1.152   5.627   7.923 -0.0977  0.2203 -0.3814
 5474TIP3    H237982   1.012   5.605   7.974 -0.4289 -1.2293 -1.8388
 5475TIP3   OH237983   0.847   3.607   1.748 -0.1196  0.1799 -0.0792
 5475TIP3    H137984   0.766   3.585   1.701  0.2134 -0.2349 -0.4607
 5475TIP3    H237985   0.851   3.543   1.819  0.2865 -0.3156 -0.5415
 5476TIP3   OH237986   1.647   3.987   0.451 -0.4678 -0.3211 -0.5149
 5476TIP3    H137987   1.587   3.960   0.381  1.0667 -0.0517 -1.9959
 5476TIP3    H237988   1.734   3.984   0.411  0.8179 -2.6789  2.1361
 5477TIP3   OH237989   5.611   2.731   0.127  0.2225 -0.6140 -0.3007
 5477TIP3    H137990   5.561   2.721   0.209 -0.6021  0.5555 -0.6348
 5477TIP3    H237991   5.703   2.729   0.155 -0.0498  0.4761  0.7770
 5478TIP3   OH237992   4.676   5.143   8.522  0.2626 -0.1352  0.1031
 5478TIP3    H137993   4.589   5.124   8.486  0.6821 -2.0909  0.0377
 5478TIP3    H237994   4.682   5.089   8.601  1.1049  0.6384  0.5901
 5479TIP3   OH237995   3.744   2.219   1.134  0.7827 -0.3875  0.2372
 5479TIP3    H137996   3.811   2.274   1.174  1.8955 -1.6037  0.1144
 5479TIP3    H237997   3.740   2.249   1.043  0.2956  0.4714  0.5308
 5480TIP3   OH237998   3.004   3.134   8.472 -0.4016  0.3005  0.6179
 5480TIP3    H137999   2.976   3.059   8.525  0.4807 -2.3322 -2.3047
 5480TIP3    H238000   3.084   3.165   8.514 -0.4184 -0.8453  1.5413
 5481TIP3   OH238001   6.793   6.547   8.486 -0.3004 -0.2380 -0.1725
 5481TIP3    H138002   6.809   6.477   8.423  1.3225 -1.2374  1.2567
 5481TIP3    H238003   6.746   6.505   8.558  1.2513 -0.1076  0.9966
 5482TIP3   OH238004   2.220   0.898   7.370 -0.3185  0.1781 -0.0113
 5482TIP3    H138005   2.170   0.974   7.341 -0.3913  0.6622  1.3311
 5482TIP3    H238006   2.256   0.923   7.455 -0.8163 -1.4956  0.7454
 5483TIP3   OH238007   5.297   1.353   7.592 -0.0921 -1.0325  0.7836
 5483TIP3    H138008   5.305   1.433   7.645 -0.6618 -0.8988  0.6784
 5483TIP3    H238009   5.385   1.317   7.589  0.1550 -0.4495  0.9072
 5484TIP3   OH238010   3.952   0.889   0.842  0.5028 -0.6108  0.0019
 5484TIP3    H138011   3.867   0.923   0.871 -0.4468 -1.2043 -1.9657
 5484TIP3    H238012   3.974   0.823   0.908 -0.3750 -0.2030  0.7362
 5485TIP3   OH238013   5.087   2.267   8.252  0.2079 -0.1283  0.4676
 5485TIP3    H138014   5.105   2.335   8.187 -1.8531 -1.5497 -1.7663
 5485TIP3    H238015   5.167   2.262   8.304  1.2846  2.3581 -0.7737
 5486TIP3   OH238016   0.009   0.870   6.947  0.1326  0.1031  0.4043
 5486TIP3    H138017   0.075   0.911   7.003  0.2695 -1.0208  1.1069
 5486TIP3    H238018  -0.012   0.936   6.882  0.1484  1.3637  1.6455
 5487TIP3   OH238019   1.842   4.633   1.665  0.0343 -0.1348 -1.0950
 5487TIP3    H138020   1.899   4.573   1.714  0.1963 -0.2294 -1.3974
 5487TIP3    H238021   1.886   4.644   1.581 -0.7138 -0.7014 -1.5694
 5488TIP3   OH238022   0.368   0.580   7.277 -0.3908  0.1663 -0.2491
 5488TIP3    H138023   0.388   0.544   7.190  0.6689  0.4609 -0.1390
 5488TIP3    H238024   0.445   0.560   7.329 -0.9892  0.0708  0.6125
 5489TIP3   OH238025   3.956   6.437   1.666  0.1542 -0.0748 -0.7552
 5489TIP3    H138026   3.877   6.454   1.615 -0.3399  0.2489  0.0920
 5489TIP3    H238027   3.936   6.360   1.719  0.2305  0.2807 -0.1966
 5490TIP3   OH238028   6.041   2.114   0.511  0.7410  0.0505  0.4620
 5490TIP3    H138029   5.971   2.138   0.572 -1.6535  0.1485 -2.1285
 5490TIP3    H238030   6.076   2.198   0.480 -0.3380  0.0902 -0.7110
 5491TIP3   OH238031   3.019   0.752   2.364  0.2892  0.2365  0.5622
 5491TIP3    H138032   2.975   0.733   2.447 -0.4217  0.2165  0.1851
 5491TIP3    H238033   2.976   0.831   2.332  0.2174 -0.0505 -0.0411
 5492TIP3   OH238034   0.924   0.062   1.725  0.8394  0.3567 -0.0451
 5492TIP3    H138035   0.847   0.113   1.750 -0.4998 -1.0598 -1.0583
 5492TIP3    H238036   0.942   0.007   1.801 -0.8703 -1.2235 -0.7053
 5493TIP3   OH238037   0.217   6.606   7.739 -0.1601  0.3939  0.6464
 5493TIP3    H138038   0.161   6.560   7.802 -0.2120 -0.2181  0.1561
 5493TIP3    H238039   0.197   6.699   7.753 -1.0202  0.1987  0.7336
 5494TIP3   OH238040   5.675   1.494   0.795  0.3328  1.0370  0.5679
 5494TIP3    H138041   5.672   1.463   0.704 -1.8379  1.8852  0.2844
 5494TIP3    H238042   5.630   1.425   0.845 -0.7330  1.7056  0.5713
 5495TIP3   OH238043   1.499   0.686   1.329  0.5358 -0.5195  0.1878
 5495TIP3    H138044   1.528   0.740   1.255  0.3018 -1.7210 -0.8083
 5495TIP3    H238045   1.553   0.608   1.325 -0.4640 -1.2482  0.3903
 5496TIP3   OH238046   0.863   2.258   1.102 -0.3326  0.1662 -0.7464
 5496TIP3    H138047   0.897   2.347   1.109 -0.5380  0.1877  0.1172
 5496TIP3    H238048   0.825   2.240   1.188 -0.0336 -0.8623 -0.8148
 5497TIP3   OH238049   6.489   1.498   7.079  0.3632 -0.6517  0.0405
 5497TIP3    H138050   6.468   1.590   7.062 -0.7363 -0.8239  0.4175
 5497TIP3    H238051   6.496   1.492   7.174 -1.1817 -1.2715  0.1384
 5498TIP3   OH238052   3.383   6.363   7.889  0.5436 -0.1554  0.4154
 5498TIP3    H138053   3.311   6.343   7.949 -0.0043  0.6031  0.0258
 5498TIP3    H238054   3.438   6.284   7.891 -1.0019 -1.3131 -0.3161
 5499TIP3   OH238055   4.066   6.756   6.967  0.3739  0.4362 -0.2753
 5499TIP3    H138056   4.114   6.780   7.047 -0.8647 -0.3492  0.7382
 5499TIP3    H238057   4.100   6.815   6.901 -0.0294  2.5778  1.3040
 5500TIP3   OH238058   3.967   6.398   8.472  0.2574  0.1743 -0.1118
 5500TIP3    H138059   3.937   6.489   8.464  1.3424  0.6080  0.4410
 5500TIP3    H238060   3.992   6.373   8.383  0.4710  0.6124 -0.1786
 5501TIP3   OH238061   0.616   4.271   1.487 -0.2569 -0.3250 -0.1086
 5501TIP3    H138062   0.553   4.251   1.418 -0.4550 -0.2669  0.0557
 5501TIP3    H238063   0.652   4.185   1.512 -1.0200 -0.4783  0.5112
 5502TIP3   OH238064   1.164   4.997   7.934 -0.2571 -0.2911 -0.0616
 5502TIP3    H138065   1.146   5.090   7.949 -3.9931 -0.6219 -1.4256
 5502TIP3    H238066   1.216   4.996   7.853 -0.8283  0.6073 -0.4548
 5503TIP3   OH238067   2.403   2.086   7.082  0.5140 -0.6104  0.3404
 5503TIP3    H138068   2.410   2.091   6.987  1.8834  1.5047  0.4915
 5503TIP3    H238069   2.464   2.152   7.114 -0.9344 -0.2773  2.6619
 5504TIP3   OH238070   1.331   0.958   6.819  0.0444  0.2896  0.4821
 5504TIP3    H138071   1.319   0.863   6.817 -0.4562  0.3570  0.2102
 5504TIP3    H238072   1.320   0.986   6.728  0.7356  0.5495  0.4651
 5505TIP3   OH238073   5.593   5.656   7.338  0.0428  0.4446  0.2386
 5505TIP3    H138074   5.519   5.716   7.336  0.4951  1.0261  0.3326
 5505TIP3    H238075   5.566   5.581   7.286 -0.5909  0.6689  0.2414
 5506TIP3   OH238076   2.238   4.510   7.968  0.3419  0.5065  0.0840
 5506TIP3    H138077   2.251   4.415   7.958  1.9404  0.6548  0.5127
 5506TIP3    H238078   2.145   4.519   7.990  0.3530 -1.0267  0.8889
 5507TIP3   OH238079   2.579   1.420   2.192 -0.3393  0.3164  0.1918
 5507TIP3    H138080   2.501   1.369   2.215 -1.0693  1.0042 -0.6439
 5507TIP3    H238081   2.651   1.358   2.200 -0.7147  0.1147  2.7052
 5508TIP3   OH238082   3.770   6.779   2.246 -0.1483  0.1698  0.3506
 5508TIP3    H138083   3.692   6.754   2.294 -1.1534 -0.3054 -1.4276
 5508TIP3    H238084   3.787   6.869   2.274  0.2250 -0.5598  2.6621
 5509TIP3   OH238085   2.758   3.633   0.569 -0.5493 -0.3024 -0.2297
 5509TIP3    H138086   2.817   3.577   0.520  1.2732  1.1686  0.1799
 5509TIP3    H238087   2.779   3.616   0.661 -2.4636 -1.4997  0.0313
 5510TIP3   OH238088   4.820   6.024   0.225  0.3537 -0.4102  0.3787
 5510TIP3    H138089   4.772   5.951   0.264 -0.5348 -0.4643 -0.7573
 5510TIP3    H238090   4.782   6.034   0.138  0.6035  1.2804  0.4331
 5511TIP3   OH238091   1.695   1.511   6.616  0.1064 -0.2225 -0.3516
 5511TIP3    H138092   1.625   1.575   6.604 -0.2507 -0.0331  2.2288
 5511TIP3    H238093   1.683   1.449   6.544 -1.4805  0.8992 -1.1093
 5512TIP3   OH238094   3.574   2.758   7.036  0.4134  0.4693  0.5327
 5512TIP3    H138095   3.642   2.739   6.971  0.0408 -0.3035  0.3707
 5512TIP3    H238096   3.606   2.838   7.080  0.2782  1.4730 -1.1209
 5513TIP3   OH238097   4.959   0.570   6.836  0.6620  0.0071 -0.0423
 5513TIP3    H138098   5.026   0.520   6.789  1.3432  0.6410  0.2316
 5513TIP3    H238099   4.973   0.660   6.809  0.8072  0.3304  1.0435
 5514TIP3   OH238100   3.174   4.932   1.094 -0.3069  0.0404  0.4687
 5514TIP3    H138101   3.176   4.858   1.034 -0.1468  1.8172 -1.8734
 5514TIP3    H238102   3.098   4.916   1.150 -1.1821 -1.1446 -0.9874
 5515TIP3   OH238103   0.037   6.391   1.619  0.5591  0.0813 -0.4014
 5515TIP3    H138104   0.039   6.387   1.523 -3.4081  0.4954 -0.6815
 5515TIP3    H238105   0.036   6.485   1.638  0.8259 -0.0003  0.0077
 5516TIP3   OH238106   1.615   2.528   7.430 -0.2469 -0.5133  0.2299
 5516TIP3    H138107   1.674   2.453   7.441 -1.8310 -2.3195 -2.3304
 5516TIP3    H238108   1.527   2.492   7.445 -0.9831  1.1281  0.0858
 5517TIP3   OH238109   3.560   3.007   6.770 -0.1162 -0.6269  0.2082
 5517TIP3    H138110   3.604   2.927   6.741 -0.3652 -0.3876 -0.8636
 5517TIP3    H238111   3.626   3.053   6.823  0.7107 -0.6053 -0.8082
 5518TIP3   OH238112   0.355   4.597   1.053 -0.1484  0.1804  0.3848
 5518TIP3    H138113   0.394   4.624   0.970  0.7643 -0.2260  0.6677
 5518TIP3    H238114   0.420   4.539   1.092 -0.6868  0.1542  1.2674
 5519TIP3   OH238115   6.741   5.269   8.174  0.2426  0.4171  0.0911
 5519TIP3    H138116   6.658   5.298   8.135  0.9818  1.8377 -0.4591
 5519TIP3    H238117   6.784   5.220   8.105 -0.0481 -0.1713  0.3204
 5520TIP3   OH238118   4.058   5.168   7.257  0.1680 -0.6298 -0.1772
 5520TIP3    H138119   3.978   5.207   7.291 -0.6759 -1.9875 -0.5036
 5520TIP3    H238120   4.122   5.239   7.256 -1.3551  0.7680 -1.0021
 5521TIP3   OH238121   2.529   0.033   1.467 -0.1305 -0.2208  0.4028
 5521TIP3    H138122   2.534  -0.043   1.408 -0.0320 -0.1233  0.2869
 5521TIP3    H238123   2.571   0.003   1.547 -0.1329 -0.3045  0.3735
 5522TIP3   OH238124   0.912   4.898   0.103  0.2150  0.0389 -0.3137
 5522TIP3    H138125   0.844   4.831   0.094  0.3923 -0.0150 -1.3618
 5522TIP3    H238126   0.867   4.973   0.141 -0.0249 -0.6055  0.7153
 5523TIP3   OH238127   3.465   6.129   0.863 -0.3217 -0.4858 -0.3224
 5523TIP3    H138128   3.429   6.046   0.893  0.4758 -1.0396 -0.8377
 5523TIP3    H238129   3.557   6.126   0.890  0.4497 -1.0073 -2.6837
 5524TIP3   OH238130   3.740   0.912   7.734 -0.3555 -0.0341 -0.4400
 5524TIP3    H138131   3.789   0.851   7.788  0.3308  0.5929 -0.3276
 5524TIP3    H238132   3.787   0.913   7.650  0.6888  1.5923  0.1100
 5525TIP3   OH238133   6.618   4.551   0.010 -0.2470  0.1534  0.1548
 5525TIP3    H138134   6.674   4.474   0.018 -0.6390 -0.3335 -1.3475
 5525TIP3    H238135   6.577   4.561   0.096 -1.0630 -2.0054  0.0617
 5526TIP3   OH238136   4.880   5.959   0.668  0.2358  0.1907 -0.5714
 5526TIP3    H138137   4.791   5.967   0.634  0.6898 -1.1028 -2.2003
 5526TIP3    H238138   4.934   6.008   0.607  0.7524  0.2740 -0.0563
 5527TIP3   OH238139   3.311   3.758   7.006  0.3359 -0.0371 -0.2395
 5527TIP3    H138140   3.326   3.852   7.001 -2.1626  0.4333 -0.3809
 5527TIP3    H238141   3.251   3.747   7.080 -2.7541 -0.9129 -2.6341
 5528TIP3   OH238142   6.861   5.299   0.854 -0.0282 -0.1971  0.0801
 5528TIP3    H138143   6.772   5.320   0.826  0.9818  3.7971 -0.8400
 5528TIP3    H238144   6.909   5.283   0.772  0.3625 -1.0303  0.4640
 5529TIP3   OH238145   4.807   3.424   1.236  0.1659  0.2510  0.6906
 5529TIP3    H138146   4.832   3.346   1.188 -1.9149 -0.3780  0.5218
 5529TIP3    H238147   4.768   3.482   1.170  0.7322  0.9969  0.9940
 5530TIP3   OH238148   4.876   2.755   7.905 -0.1878 -0.2237 -0.0209
 5530TIP3    H138149   4.949   2.697   7.885 -0.3520 -0.5091  0.2088
 5530TIP3    H238150   4.798   2.702   7.889 -0.3305 -0.5071  1.5065
 5531TIP3   OH238151   3.316   4.961   7.584  0.1632  0.1324 -0.0119
 5531TIP3    H138152   3.402   4.992   7.612  0.2207  0.9926 -1.1151
 5531TIP3    H238153   3.289   5.022   7.516  0.0193 -1.8872 -1.8415
 5532TIP3   OH238154   4.289   3.560   6.635 -0.0124 -0.7653 -0.2040
 5532TIP3    H138155   4.352   3.505   6.588 -0.4196 -2.1964  0.8715
 5532TIP3    H238156   4.208   3.551   6.584  0.2691 -0.0246 -0.8069
 5533TIP3   OH238157   4.821   3.828   1.220  0.2351  0.4921  0.1747
 5533TIP3    H138158   4.735   3.870   1.211 -0.2719  0.1613  2.7775
 5533TIP3    H238159   4.809   3.763   1.289  2.5995  0.5097  0.6852
 5534TIP3   OH238160   4.152   0.331   1.569  0.1125  0.3876  0.0661
 5534TIP3    H138161   4.072   0.365   1.527 -0.0753 -0.0126  0.0969
 5534TIP3    H238162   4.120   0.273   1.637  0.3685 -2.9884 -2.4276
 5535TIP3   OH238163   2.194   6.130   7.363 -0.1406 -0.2326 -0.3628
 5535TIP3    H138164   2.129   6.062   7.347 -0.8421  0.6715 -1.4201
 5535TIP3    H238165   2.225   6.156   7.276 -0.3121  1.1983 -0.0240
 5536TIP3   OH238166   2.037   4.055   0.928  0.1288 -0.2627 -0.1647
 5536TIP3    H138167   2.035   3.988   0.996  0.3223  0.6370  0.7434
 5536TIP3    H238168   2.129   4.061   0.903  0.2783  0.4038  0.5157
 5537TIP3   OH238169   1.256   1.452   1.055 -0.2729  0.0542  0.7260
 5537TIP3    H138170   1.176   1.438   1.106 -1.0335  1.1182 -0.1523
 5537TIP3    H238171   1.258   1.546   1.038  0.3776 -0.1720 -0.5386
 5538TIP3   OH238172   3.394   4.576   0.732 -0.5291 -0.0880  0.1450
 5538TIP3    H138173   3.306   4.560   0.766 -0.8965 -0.1288 -0.7947
 5538TIP3    H238174   3.447   4.592   0.810 -1.3983  0.0908  0.7152
 5539TIP3   OH238175   1.645   1.404   8.573  0.5424 -0.0700  0.0648
 5539TIP3    H138176   1.600   1.379   8.492  0.3608 -0.9296  0.4185
 5539TIP3    H238177   1.737   1.382   8.557  0.5091 -0.2249  0.0830
 5540TIP3   OH238178   5.186   2.454   0.680 -0.5116  0.3830 -0.0041
 5540TIP3    H138179   5.153   2.370   0.648 -0.4222  0.3661 -0.0513
 5540TIP3    H238180   5.224   2.435   0.766 -0.5612  0.3895  0.0195
 5541TIP3   OH238181   0.653   3.229   1.557 -0.0593  0.3682 -0.3309
 5541TIP3    H138182   0.567   3.256   1.524 -0.4901  0.6623  0.9544
 5541TIP3    H238183   0.637   3.144   1.598  0.0985  0.7402  0.5264
 5542TIP3   OH238184   6.156   1.982   1.566 -0.3093  0.0943  0.0875
 5542TIP3    H138185   6.139   1.897   1.525 -0.6362 -0.5935  1.5793
 5542TIP3    H238186   6.218   1.963   1.635 -1.0071  0.9300  0.9689
 5543TIP3   OH238187   3.008   6.557   7.714 -0.1725 -0.4047  0.1205
 5543TIP3    H138188   2.985   6.583   7.625 -1.5580 -2.8243 -0.3463
 5543TIP3    H238189   3.100   6.531   7.708 -0.2247 -0.4572 -0.6048
 5544TIP3   OH238190   0.937   3.157   0.671 -0.4516 -0.0774  0.1489
 5544TIP3    H138191   0.982   3.099   0.610 -0.6808  0.9138 -0.9939
 5544TIP3    H238192   0.988   3.238   0.669 -0.6145  0.0632  1.0966
 5545TIP3   OH238193   1.849   2.248   0.195 -0.0470 -0.2848 -0.1591
 5545TIP3    H138194   1.890   2.249   0.282 -0.5927 -1.0759  0.1152
 5545TIP3    H238195   1.759   2.276   0.211 -1.1876 -3.6761  0.1187
 5546TIP3   OH238196   4.121   5.893   1.648  0.9657  0.3846  0.0924
 5546TIP3    H138197   4.065   5.966   1.672  1.2197  0.5374  0.2244
 5546TIP3    H238198   4.184   5.885   1.720 -0.6218 -1.6034  1.3753
 5547TIP3   OH238199   3.172   0.955   8.025  0.1741  0.5462 -0.4738
 5547TIP3    H138200   3.208   0.961   8.114 -2.1186  1.3965  0.4631
 5547TIP3    H238201   3.203   1.035   7.982  1.3693  0.0888 -0.5065
 5548TIP3   OH238202   5.845   6.183   8.258  0.1132 -0.2151 -0.3663
 5548TIP3    H138203   5.875   6.270   8.284 -2.6412  0.5989  0.4645
 5548TIP3    H238204   5.811   6.144   8.339 -0.7991 -1.1143 -1.1480
 5549TIP3   OH238205   5.219   5.103   7.761 -0.5410  0.5217  0.3068
 5549TIP3    H138206   5.294   5.142   7.808 -0.3099 -1.7828  2.0395
 5549TIP3    H238207   5.202   5.022   7.808 -3.4076  0.3867 -0.7994
 5550TIP3   OH238208   3.523   4.931   0.801  0.2907 -0.3369 -0.4466
 5550TIP3    H138209   3.504   5.019   0.834 -0.1164  0.3395 -2.3348
 5550TIP3    H238210   3.617   4.929   0.789  0.1204  0.6471 -2.3549
 5551TIP3   OH238211   1.111   5.856   2.439 -0.0530 -0.0151 -0.4089
 5551TIP3    H138212   1.194   5.869   2.484  0.3690  0.3970 -1.2829
 5551TIP3    H238213   1.081   5.769   2.468  0.2211  0.2142  0.6034
 5552TIP3   OH238214   2.690   2.736   1.184  0.3557  0.0258  0.0357
 5552TIP3    H138215   2.647   2.735   1.098  1.2202 -0.2967 -0.4086
 5552TIP3    H238216   2.622   2.764   1.245 -0.3675 -0.0864 -0.7054
 5553TIP3   OH238217   5.549   0.510   6.533  0.4638 -0.0295  0.1452
 5553TIP3    H138218   5.499   0.433   6.506  0.1263  0.4147 -0.5412
 5553TIP3    H238219   5.483   0.576   6.552  0.7682  0.3588 -0.1177
 5554TIP3   OH238220   6.250   6.792   7.487 -0.4758 -0.1005  0.2773
 5554TIP3    H138221   6.158   6.817   7.474 -0.7037 -0.6391  0.8492
 5554TIP3    H238222   6.298   6.850   7.428 -1.0700  1.0741  0.9036
 5555TIP3   OH238223   6.693   5.157   7.255  0.3144  0.1936  0.3161
 5555TIP3    H138224   6.784   5.181   7.271  0.3779  1.4501 -1.6596
 5555TIP3    H238225   6.645   5.240   7.262 -1.0574 -0.7182  3.3238
 5556TIP3   OH238226   5.755   4.909   7.226 -0.6966  0.7613 -0.9267
 5556TIP3    H138227   5.663   4.891   7.245  0.0407 -1.2988  1.2773
 5556TIP3    H238228   5.799   4.897   7.310  1.7052  0.7837 -2.1138
 5557TIP3   OH238229   1.297   3.452   0.389 -0.0322  0.2916 -0.1783
 5557TIP3    H138230   1.221   3.396   0.402  0.9607 -0.5241  2.8279
 5557TIP3    H238231   1.371   3.392   0.387  0.8238  1.3072  0.2146
 5558TIP3   OH238232   3.546   4.731   1.757 -0.1464 -0.5250  0.3827
 5558TIP3    H138233   3.532   4.646   1.715 -1.4238 -0.3254  0.3707
 5558TIP3    H238234   3.615   4.772   1.705 -2.2334  0.0777 -2.1535
 5559TIP3   OH238235   3.248   1.617   0.901 -0.1131  0.5002 -0.2245
 5559TIP3    H138236   3.264   1.693   0.846  0.1378 -0.2495 -1.2213
 5559TIP3    H238237   3.226   1.653   0.987 -0.5472  1.7002 -0.8174
 5560TIP3   OH238238   3.429   5.231   6.351 -0.0480  0.0613  0.4095
 5560TIP3    H138239   3.501   5.293   6.359 -0.5457  1.2234 -2.7634
 5560TIP3    H238240   3.471   5.146   6.339  0.6736  0.1439  2.0808
 5561TIP3   OH238241   0.453   3.862   7.573 -0.0911 -0.1329 -0.1305
 5561TIP3    H138242   0.414   3.883   7.488 -1.4061 -0.5585  0.3476
 5561TIP3    H238243   0.506   3.939   7.594 -2.5730  1.5735  0.2815
 5562TIP3   OH238244   3.185   1.816   1.610 -0.5784 -0.3166  0.1338
 5562TIP3    H138245   3.208   1.738   1.561 -1.8035 -0.6938  0.1191
 5562TIP3    H238246   3.258   1.829   1.671  0.4188 -0.4924 -0.9973
 5563TIP3   OH238247   1.924   2.954   1.375  0.6060  0.5860  0.6526
 5563TIP3    H138248   1.956   2.889   1.438 -1.6528 -0.3580  0.9032
 5563TIP3    H238249   1.882   2.902   1.307  0.3616  1.7409 -0.1069
 5564TIP3   OH238250   5.494   6.812   1.007  0.0932 -0.1296  0.1041
 5564TIP3    H138251   5.514   6.823   0.914  2.3510 -0.6589  0.4673
 5564TIP3    H238252   5.512   6.719   1.024 -1.3764 -0.3056  0.8591
 5565TIP3   OH238253   2.264   6.752   0.807 -0.6240  0.1480 -0.2028
 5565TIP3    H138254   2.290   6.676   0.858  0.1259 -0.3329 -1.2813
 5565TIP3    H238255   2.333   6.762   0.742 -2.3008 -0.1717 -2.1011
 5566TIP3   OH238256   2.303   0.591   8.582  0.2939  0.2480  0.5759
 5566TIP3    H138257   2.271   0.601   8.672 -1.5727  0.8915 -0.0952
 5566TIP3    H238258   2.232   0.545   8.537  0.9631  0.4145 -0.6896
 5567TIP3   OH238259   1.820   4.204   0.217  0.0746  0.1140 -0.8342
 5567TIP3    H138260   1.813   4.114   0.185 -0.3320 -0.3147  0.3919
 5567TIP3    H238261   1.907   4.233   0.188 -0.8158  0.3153 -3.5921
 5568TIP3   OH238262   3.008   6.252   6.852 -0.3370  0.5565 -0.2287
 5568TIP3    H138263   3.040   6.188   6.789 -1.4757  1.5300 -1.8743
 5568TIP3    H238264   2.914   6.238   6.856 -0.2356  0.1593  1.7260
 5569TIP3   OH238265   5.242   2.755   7.723 -0.1555 -0.5630  0.0764
 5569TIP3    H138266   5.161   2.801   7.747 -1.5114 -1.1455 -2.8937
 5569TIP3    H238267   5.291   2.818   7.671 -0.5247 -1.3968 -1.3256
 5570TIP3   OH238268   2.984   5.031   7.322  0.1952  0.0688 -0.0386
 5570TIP3    H138269   2.919   5.094   7.353  0.1674  0.9915 -1.8603
 5570TIP3    H238270   3.064   5.083   7.310  0.6341 -0.5841  0.0051
 5571TIP3   OH238271   1.558   6.525   8.477  0.2535 -0.6296  0.4951
 5571TIP3    H138272   1.651   6.536   8.497  0.7939 -1.9598 -1.0910
 5571TIP3    H238273   1.545   6.430   8.473 -0.9337 -0.4544 -0.3553
 5572TIP3   OH238274   5.340   1.777   0.160  0.2379  0.3181  0.1134
 5572TIP3    H138275   5.294   1.733   0.088  1.4869  2.2157 -1.9540
 5572TIP3    H238276   5.271   1.799   0.222 -0.8133 -1.8805 -0.1537
 5573TIP3   OH238277   1.302   5.993   8.338 -0.3407 -0.3963 -0.6371
 5573TIP3    H138278   1.332   6.026   8.253  1.0688  2.1258  0.7158
 5573TIP3    H238279   1.219   6.037   8.353  0.5724  1.1259  0.2761
 5574TIP3   OH238280   5.836   1.771   2.292 -0.5066  0.7675 -0.1803
 5574TIP3    H138281   5.916   1.799   2.247 -0.0309  0.6427  0.5783
 5574TIP3    H238282   5.804   1.849   2.336 -0.4269  0.6522  0.0809
 5575TIP3   OH238283   3.100   2.081   7.443 -0.3311  0.1687 -0.4193
 5575TIP3    H138284   3.170   2.016   7.449  0.4643  0.6161 -3.3467
 5575TIP3    H238285   3.145   2.165   7.439 -1.1130  0.5763 -0.8207
 5576TIP3   OH238286   1.444   4.560   0.245 -0.0884  0.9925  0.1309
 5576TIP3    H138287   1.411   4.639   0.289  0.4697  0.3435  1.8177
 5576TIP3    H238288   1.522   4.537   0.295 -0.3276 -0.7033 -0.2388
 5577TIP3   OH238289   3.948   4.473   8.156  0.0540  0.0905 -0.0800
 5577TIP3    H138290   3.862   4.435   8.139 -0.1749  0.6329 -0.1569
 5577TIP3    H238291   3.978   4.433   8.237 -0.3107 -0.0318 -0.0086
 5578TIP3   OH238292   1.816   5.232   6.893 -0.3584  0.1815 -0.2446
 5578TIP3    H138293   1.760   5.204   6.821  1.8730 -2.9994 -0.9469
 5578TIP3    H238294   1.764   5.216   6.971 -0.7280 -2.1216 -0.8969
 5579TIP3   OH238295   4.624   1.970   6.539  0.1883  0.0511  0.2467
 5579TIP3    H138296   4.599   2.026   6.465 -1.6369 -1.7120 -0.5698
 5579TIP3    H238297   4.704   1.927   6.511  1.7839  2.3420  0.9990
 5580TIP3   OH238298   4.761   0.821   8.577  0.1519 -0.0836 -0.2561
 5580TIP3    H138299   4.673   0.829   8.541  0.7012  0.4638 -1.5398
 5580TIP3    H238300   4.755   0.859   8.665 -0.9306 -0.2894 -0.2297
 5581TIP3   OH238301   6.802   0.651   0.588  0.3998 -0.6596  0.0659
 5581TIP3    H138302   6.826   0.638   0.680 -0.9141 -0.2576  0.4833
 5581TIP3    H238303   6.751   0.732   0.588  1.4250  0.0183 -1.2186
 5582TIP3   OH238304   4.503   1.100   0.816  0.3591  0.1536  0.1477
 5582TIP3    H138305   4.433   1.039   0.793  0.8544 -0.0453 -0.8978
 5582TIP3    H238306   4.484   1.125   0.907 -1.2107  0.3071 -0.1838
 5583TIP3   OH238307   5.681   2.692   1.694 -0.1205  0.0256  0.5680
 5583TIP3    H138308   5.637   2.743   1.762 -1.6659 -0.1921 -0.2392
 5583TIP3    H238309   5.639   2.719   1.612  0.2342 -1.2744 -0.0735
 5584TIP3   OH238310   2.293   5.751   6.617 -0.1290 -0.1092 -0.6312
 5584TIP3    H138311   2.376   5.735   6.661  0.4743 -0.1854 -1.7702
 5584TIP3    H238312   2.271   5.842   6.640  0.9533  0.3703 -1.4040
 5585TIP3   OH238313   0.218   5.112   7.447 -0.7301  0.2355 -0.3685
 5585TIP3    H138314   0.309   5.142   7.442 -0.4436 -0.5204  0.1512
 5585TIP3    H238315   0.189   5.107   7.356 -0.8548  2.2313 -0.4825
 5586TIP3   OH238316   4.788   3.815   7.902  0.3833  0.1609  0.2516
 5586TIP3    H138317   4.798   3.785   7.993  0.9025  1.0413  0.5005
 5586TIP3    H238318   4.731   3.750   7.862  0.3929 -0.4134  1.1279
 5587TIP3   OH238319   3.496   2.640   6.786  0.7526  0.1665 -0.3002
 5587TIP3    H138320   3.487   2.730   6.756 -0.2494  0.5665  1.1135
 5587TIP3    H238321   3.426   2.592   6.742  0.3977  0.3871  0.0142
 5588TIP3   OH238322   4.000   4.166   8.639 -0.4829  0.4600 -0.1502
 5588TIP3    H138323   4.058   4.133   8.570 -0.2844  2.6279 -1.1152
 5588TIP3    H238324   4.059   4.202   8.705 -0.6850  1.8517 -0.7027
 5589TIP3   OH238325   5.678   5.306   1.936  0.1403  0.5043 -0.3612
 5589TIP3    H138326   5.663   5.304   2.031 -0.3407 -4.4867 -0.2519
 5589TIP3    H238327   5.773   5.298   1.926  0.1709  0.7664 -0.2661
 5590TIP3   OH238328   5.415   3.302   6.835 -0.2666  0.1365 -0.1764
 5590TIP3    H138329   5.495   3.285   6.885 -0.7541 -2.0885 -0.0732
 5590TIP3    H238330   5.447   3.326   6.748  0.5287 -0.7734 -0.1469
 5591TIP3   OH238331   0.808   2.897   8.130 -0.6370 -0.2151  0.2872
 5591TIP3    H138332   0.902   2.906   8.144  0.3909 -1.6537 -3.9846
 5591TIP3    H238333   0.775   2.987   8.128  0.5775  0.3122  1.8345
 5592TIP3   OH238334   1.334   1.280   2.092  0.0903 -0.1380 -0.0029
 5592TIP3    H138335   1.281   1.211   2.053 -2.6546  1.8122  0.0282
 5592TIP3    H238336   1.384   1.316   2.018  0.2356 -1.0232 -0.3440
 5593TIP3   OH238337   6.556   6.750   1.619  0.4419  0.0349 -0.2079
 5593TIP3    H138338   6.542   6.673   1.563 -0.0823 -0.8587  1.0841
 5593TIP3    H238339   6.638   6.731   1.665  0.4364  0.3565 -0.0623
 5594TIP3   OH238340   4.047   4.797   0.845  0.2140 -0.5847 -0.1802
 5594TIP3    H138341   4.133   4.755   0.846  0.3752 -0.2623  1.1668
 5594TIP3    H238342   4.048   4.850   0.765  1.8365  0.5306  0.5221
 5595TIP3   OH238343   3.613   1.465   1.600  0.3105 -0.0995 -0.1794
 5595TIP3    H138344   3.554   1.429   1.667  2.0841  0.5918  1.9039
 5595TIP3    H238345   3.694   1.416   1.612  0.2596 -1.0506 -2.9804
 5596TIP3   OH238346   4.152   2.015   0.782 -0.2527  0.1052  0.2746
 5596TIP3    H138347   4.213   2.003   0.855 -0.5108 -0.4085  0.4053
 5596TIP3    H238348   4.165   2.107   0.756 -1.0369  0.6678  1.7555
 5597TIP3   OH238349   4.100   6.341   0.264 -0.2424 -0.0315 -0.7409
 5597TIP3    H138350   4.018   6.292   0.268 -0.8812  1.0342 -0.2894
 5597TIP3    H238351   4.136   6.335   0.353 -0.9457  1.2908 -0.3282
 5598TIP3   OH238352   0.310   3.489   0.217  0.1375  0.2842 -0.9349
 5598TIP3    H138353   0.285   3.435   0.293  0.5138  0.4077 -0.7203
 5598TIP3    H238354   0.234   3.486   0.160  0.2212 -0.6422 -1.0120
 5599TIP3   OH238355   0.137   3.377   8.125  0.6503 -0.6228 -0.5173
 5599TIP3    H138356   0.113   3.470   8.118  0.8630 -0.4524  0.8218
 5599TIP3    H238357   0.057   3.330   8.104  0.6460 -0.1690 -1.6380
 5600TIP3   OH238358   0.196   4.173   7.987  0.0658 -0.1452  0.1788
 5600TIP3    H138359   0.249   4.177   7.907  0.2375  1.2684  0.3483
 5600TIP3    H238360   0.131   4.243   7.976  0.7789  0.7990  1.7501
 5601TIP3   OH238361   5.847   3.775   1.021  0.4561 -0.4560 -0.2597
 5601TIP3    H138362   5.905   3.724   0.964 -0.4531 -0.7650 -0.9391
 5601TIP3    H238363   5.770   3.719   1.033  0.4630 -0.2324  0.9664
 5602TIP3   OH238364   1.921   3.938   1.719 -0.3707  0.5518 -0.6723
 5602TIP3    H138365   1.957   3.908   1.802 -1.5856 -0.3543 -0.4398
 5602TIP3    H238366   1.884   3.859   1.679 -1.1837  1.2426 -1.3341
 5603TIP3   OH238367   5.205   0.501   7.096 -0.2846 -0.0309 -0.3892
 5603TIP3    H138368   5.231   0.409   7.100  1.2458  0.4207  0.6901
 5603TIP3    H238369   5.240   0.532   7.013 -0.2187 -0.2492 -0.4442
 5604TIP3   OH238370   5.783   6.672   6.026  0.2019 -0.0143  0.0555
 5604TIP3    H138371   5.861   6.666   6.081 -0.2780  0.5138  0.8175
 5604TIP3    H238372   5.815   6.656   5.937  1.0173 -0.7402  0.4582
 5605TIP3   OH238373   4.850   5.523   0.384 -0.1203  0.0121  0.0135
 5605TIP3    H138374   4.860   5.578   0.461 -1.5394  0.1375  0.1442
 5605TIP3    H238375   4.911   5.560   0.319 -0.3513  1.1368  0.4186
 5606TIP3   OH238376   2.107   5.811   7.850  0.1119  0.0222  0.0365
 5606TIP3    H138377   2.039   5.837   7.788  1.8760 -0.5827 -2.3011
 5606TIP3    H238378   2.059   5.773   7.923 -2.1089  1.3865 -0.6091
 5607TIP3   OH238379   2.596   0.656   1.688 -0.2157  0.3252  0.5078
 5607TIP3    H138380   2.627   0.585   1.745 -1.0205 -0.7309 -0.3142
 5607TIP3    H238381   2.503   0.639   1.678  0.1448 -0.5645 -2.4357
 5608TIP3   OH238382   5.191   6.547   8.150 -0.0609  0.2840 -0.4646
 5608TIP3    H138383   5.180   6.463   8.107 -0.6991  0.9066 -1.5717
 5608TIP3    H238384   5.276   6.579   8.119 -0.2021  0.4194 -0.7153
 5609TIP3   OH238385   1.215   1.007   7.912 -0.1386 -0.1889 -0.3870
 5609TIP3    H138386   1.257   1.026   7.827 -0.9837  1.4835 -0.4829
 5609TIP3    H238387   1.157   0.934   7.894 -1.2011  0.8915 -1.6038
 5610TIP3   OH238388   1.437   3.595   7.744 -0.0881  1.0812  0.3322
 5610TIP3    H138389   1.426   3.512   7.790 -0.1341  1.3209  0.7516
 5610TIP3    H238390   1.407   3.577   7.655  0.2654  0.5411  0.3192
 5611TIP3   OH238391   0.190   2.852   0.976 -0.5011 -0.6801 -0.4036
 5611TIP3    H138392   0.147   2.821   0.897 -0.0573 -0.9753 -0.5294
 5611TIP3    H238393   0.283   2.839   0.960 -0.3932 -0.5097  0.0663
 5612TIP3   OH238394   0.291   3.386   7.892  0.7082 -0.0889  0.2126
 5612TIP3    H138395   0.221   3.364   7.955  0.1526  1.7071  0.2706
 5612TIP3    H238396   0.340   3.457   7.934  1.6756 -0.3293 -0.4709
 5613TIP3   OH238397   2.562   4.003   1.142 -0.0048 -0.0583  0.3398
 5613TIP3    H138398   2.566   4.036   1.052  2.7016  0.5691  0.6005
 5613TIP3    H238399   2.502   3.929   1.138 -2.6943  2.0054 -1.2251
 5614TIP3   OH238400   2.881   3.440   8.066  0.6551 -0.9191 -0.0867
 5614TIP3    H138401   2.833   3.505   8.013  0.8110  0.3219  1.2225
 5614TIP3    H238402   2.821   3.418   8.137  1.2760 -0.8080  0.4902
 5615TIP3   OH238403   4.545   0.394   7.720 -0.5054  0.0244  0.0160
 5615TIP3    H138404   4.520   0.453   7.648 -0.0798 -1.6864 -1.6033
 5615TIP3    H238405   4.506   0.434   7.797 -0.8712  2.0242 -1.1115
 5616TIP3   OH238406   2.567   0.487   0.028 -0.5737 -0.3032 -0.1366
 5616TIP3    H138407   2.621   0.470  -0.049  0.8996  0.2074  0.7506
 5616TIP3    H238408   2.478   0.496  -0.007  0.1003  0.2721 -1.8244
 5617TIP3   OH238409   2.323   2.093   8.589 -0.3331  0.9067  0.3711
 5617TIP3    H138410   2.395   2.040   8.554 -0.7433  0.3382  0.3735
 5617TIP3    H238411   2.362   2.179   8.605  0.4892  0.4516  0.8943
 5618TIP3   OH238412   4.055   3.744   2.721  0.6324  0.0833  0.1598
 5618TIP3    H138413   4.099   3.811   2.775  0.2001  0.5598 -0.0707
 5618TIP3    H238414   4.105   3.664   2.737 -0.3861 -0.1755  2.4817
 5619TIP3   OH238415   0.218   2.792   2.435  0.7038 -0.3664 -0.1713
 5619TIP3    H138416   0.158   2.834   2.497  0.8513 -0.0380 -0.2476
 5619TIP3    H238417   0.278   2.742   2.491  0.1219 -1.0108 -0.1183
 5620TIP3   OH238418   5.985   3.746   0.603 -0.0987  0.4345 -0.5079
 5620TIP3    H138419   5.967   3.816   0.540 -0.3054  0.9147  0.0807
 5620TIP3    H238420   6.029   3.678   0.551  0.8785  1.3494 -0.9050
 5621TIP3   OH238421   1.200   3.585   1.602  0.1413 -0.4784 -0.1979
 5621TIP3    H138422   1.148   3.521   1.651 -1.4974  0.0810 -1.1024
 5621TIP3    H238423   1.134   3.637   1.555  1.4497  1.3942 -0.0497
 5622TIP3   OH238424   4.551   6.282   0.284  0.1467 -0.2569  0.0295
 5622TIP3    H138425   4.647   6.275   0.278  0.0819 -1.5537  0.1041
 5622TIP3    H238426   4.521   6.191   0.287 -0.9807  0.1169  1.8249
 5623TIP3   OH238427   1.453   4.238   0.856 -0.3752  0.6849 -0.0147
 5623TIP3    H138428   1.535   4.243   0.904 -0.7694 -0.8645  0.8498
 5623TIP3    H238429   1.385   4.240   0.923 -0.9434 -1.1253 -0.4798
 5624TIP3   OH238430   3.539   0.493   0.659  0.1323  0.3505  0.0212
 5624TIP3    H138431   3.560   0.404   0.688 -1.1395  0.1627  0.4186
 5624TIP3    H238432   3.614   0.545   0.686  0.5932 -0.4768  0.3892
 5625TIP3   OH238433   1.681   5.863   1.362  0.2448 -0.2279 -0.0109
 5625TIP3    H138434   1.693   5.904   1.448 -1.3852  0.8353 -0.2551
 5625TIP3    H238435   1.768   5.829   1.340  0.4132 -1.8450  2.6707
 5626TIP3   OH238436   0.961   3.447   7.566 -0.2449  0.3118 -0.3766
 5626TIP3    H138437   0.866   3.447   7.578 -0.4846 -0.8501 -1.9453
 5626TIP3    H238438   0.981   3.534   7.529 -0.5754  0.8099  0.5819
 5627TIP3   OH238439   4.105   2.763   6.959 -0.5708 -0.6145  0.8019
 5627TIP3    H138440   4.098   2.715   6.876  0.6062  0.5422  0.0047
 5627TIP3    H238441   4.141   2.699   7.020  0.0146 -1.0663  0.0143
 5628TIP3   OH238442   5.133   0.951   0.133 -0.1160  0.5149 -0.3144
 5628TIP3    H138443   5.151   0.859   0.114 -0.7049 -0.1700  2.0360
 5628TIP3    H238444   5.055   0.971   0.081 -1.2543 -1.0007  0.7190
 5629TIP3   OH238445   4.992   0.970   8.291  0.1398  0.0705  1.0513
 5629TIP3    H138446   5.084   0.989   8.275 -0.2600  1.1349 -0.2109
 5629TIP3    H238447   4.956   1.053   8.323 -1.2114  1.0325 -2.4758
 5630TIP3   OH238448   0.477   1.655   8.570 -0.2771 -0.7165  0.1311
 5630TIP3    H138449   0.526   1.596   8.626  1.1810  1.8559  1.7735
 5630TIP3    H238450   0.490   1.621   8.481  2.1490 -1.7268  0.7961
 5631TIP3   OH238451   4.283   4.169   7.857  0.4203 -0.4742  0.4006
 5631TIP3    H138452   4.288   4.216   7.940 -0.2796  2.1423 -0.9323
 5631TIP3    H238453   4.189   4.167   7.836  0.6851  0.1953 -0.9841
 5632TIP3   OH238454   0.110   5.673   0.312  0.3194 -0.2740  0.1217
 5632TIP3    H138455   0.016   5.676   0.328  0.0906  1.3197 -1.3148
 5632TIP3    H238456   0.119   5.679   0.217  1.8929 -0.1323  0.2530
 5633TIP3   OH238457   0.423   4.850   2.086  0.7245 -0.1892  0.0244
 5633TIP3    H138458   0.376   4.886   2.161  0.9557  0.6380 -0.2148
 5633TIP3    H238459   0.361   4.854   2.014  1.7666  3.0760 -0.8768
 5634TIP3   OH238460   5.177   0.233   1.511 -0.1816  0.1617  0.0756
 5634TIP3    H138461   5.222   0.212   1.593  0.5204  0.7759 -0.1424
 5634TIP3    H238462   5.224   0.184   1.444 -1.3189 -1.0603  0.1411
 5635TIP3   OH238463   0.072   4.084   2.253  0.1382 -0.1794  0.1117
 5635TIP3    H138464   0.138   4.140   2.294 -0.1839 -0.7588  1.5024
 5635TIP3    H238465   0.122   4.027   2.195  0.8146 -0.3113  0.8114
 5636TIP3   OH238466   3.612   5.296   0.123 -0.3103 -0.8456  0.3117
 5636TIP3    H138467   3.627   5.388   0.103  1.9258 -1.1704  0.2824
 5636TIP3    H238468   3.687   5.250   0.085  0.3365 -2.3018  3.0675
 5637TIP3   OH238469   0.624   4.632   7.309 -0.5109  0.3771  0.0915
 5637TIP3    H138470   0.706   4.635   7.358  0.3849  1.3726 -1.3922
 5637TIP3    H238471   0.561   4.678   7.364  0.5062  1.5872  0.2717
 5638TIP3   OH238472   1.360   1.506   8.263 -0.4469  0.0391 -0.1329
 5638TIP3    H138473   1.297   1.516   8.334  0.0559 -3.0584  0.9292
 5638TIP3    H238474   1.308   1.513   8.183 -1.9842 -1.3772  0.6920
 5639TIP3   OH238475   3.390   1.838   1.800  0.1327 -0.0688  0.0872
 5639TIP3    H138476   3.480   1.870   1.804  0.0835  0.0392  0.3299
 5639TIP3    H238477   3.381   1.782   1.877 -0.1091  0.1809  0.2392
 5640TIP3   OH238478   6.181   6.291   1.838  0.0321  0.1238 -0.1755
 5640TIP3    H138479   6.100   6.288   1.787 -0.1703  0.4763  0.1249
 5640TIP3    H238480   6.217   6.378   1.822 -0.3554  0.4707  0.7835
 5641TIP3   OH238481   0.724   3.983   7.144 -0.8211  1.0792 -0.0959
 5641TIP3    H138482   0.684   3.896   7.149 -0.6297  1.0294  0.6916
 5641TIP3    H238483   0.728   4.002   7.051  0.7616 -0.5151 -0.3997
 5642TIP3   OH238484   3.896   1.299   7.125  0.1859  0.2661 -0.0441
 5642TIP3    H138485   3.943   1.287   7.042 -0.0944 -0.3498 -0.1154
 5642TIP3    H238486   3.922   1.387   7.154  1.2794 -0.0153 -0.1451
 5643TIP3   OH238487   0.488   4.905   1.022  0.0776  0.5416  0.3510
 5643TIP3    H138488   0.400   4.883   0.992  0.7968 -3.7398  0.7079
 5643TIP3    H238489   0.492   4.870   1.111  2.5181 -0.8906 -0.2254
 5644TIP3   OH238490   4.279   0.958   0.536 -0.6777 -0.1483 -0.1397
 5644TIP3    H138491   4.232   0.972   0.618 -0.5733 -0.1782 -0.0749
 5644TIP3    H238492   4.330   0.878   0.550  0.3269  0.5388  0.2175
 5645TIP3   OH238493   0.951   4.344   0.667 -0.1404 -0.5534  0.0682
 5645TIP3    H138494   1.001   4.305   0.739 -0.5198 -0.1268  0.5691
 5645TIP3    H238495   0.980   4.295   0.590  1.0098 -0.3488  0.3446
 5646TIP3   OH238496   0.001   3.034   2.445 -0.0578 -0.6528 -0.5142
 5646TIP3    H138497  -0.078   2.980   2.442 -0.2183 -0.5004  0.5885
 5646TIP3    H238498  -0.031   3.124   2.457  0.2920 -0.7368  1.2896
 5647TIP3   OH238499   5.231   6.115   1.707 -0.1134  0.0756  0.3132
 5647TIP3    H138500   5.299   6.168   1.665  1.3000 -1.1538  0.9413
 5647TIP3    H238501   5.217   6.156   1.792  2.1814 -1.3715  1.4953
 5648TIP3   OH238502   5.601   0.837   2.386 -0.0049  0.1602  0.2629
 5648TIP3    H138503   5.552   0.844   2.304 -0.5241  1.9437  0.6903
 5648TIP3    H238504   5.643   0.922   2.397  1.9331 -0.7981  0.7299
 5649TIP3   OH238505   1.808   1.861   7.678  0.1129  0.7656 -0.1649
 5649TIP3    H138506   1.868   1.787   7.690 -0.3797 -0.1962 -2.7965
 5649TIP3    H238507   1.728   1.834   7.722  0.4662  0.4650  0.2988
 5650TIP3   OH238508   2.765   6.329   0.814  0.6025 -0.1968 -0.0675
 5650TIP3    H138509   2.736   6.398   0.755  0.9789  0.0501  0.0339
 5650TIP3    H238510   2.779   6.253   0.757  0.1177 -0.2159 -0.1675
 5651TIP3   OH238511   1.072   6.593   1.571  0.5104 -0.1561  0.3394
 5651TIP3    H138512   1.093   6.635   1.655 -0.6984  1.4953 -0.1363
 5651TIP3    H238513   1.006   6.650   1.531 -0.7179 -2.1761 -0.6817
 5652TIP3   OH238514   4.649   2.907   1.534  0.4960 -0.1196  0.7383
 5652TIP3    H138515   4.557   2.884   1.545  0.2830  1.1369  1.7915
 5652TIP3    H238516   4.648   3.001   1.515  1.5193 -0.2832 -0.2426
 5653TIP3   OH238517   0.128   6.809   0.258  0.7393 -0.3330  0.1019
 5653TIP3    H138518   0.070   6.878   0.224  0.1489 -0.3783  0.9874
 5653TIP3    H238519   0.074   6.730   0.258  0.2809 -0.0818  2.3209
 5654TIP3   OH238520   1.986   1.664   8.590  0.3978  0.0200 -0.4061
 5654TIP3    H138521   1.904   1.701   8.558  0.6921  1.1587  0.0922
 5654TIP3    H238522   2.046   1.738   8.593  0.7345 -0.2748  1.5256
 5655TIP3   OH238523   1.258   4.181   7.945 -0.0962  1.0300 -0.0734
 5655TIP3    H138524   1.317   4.139   7.883  1.3189  2.9636 -0.1190
 5655TIP3    H238525   1.194   4.114   7.966  1.5162 -0.8375 -0.8160
 5656TIP3   OH238526   4.721   1.547   8.142  0.0076 -0.2966 -0.0476
 5656TIP3    H138527   4.809   1.545   8.103 -0.0426  0.3333 -0.1933
 5656TIP3    H238528   4.733   1.508   8.229  0.5531  0.3507  0.1719
 5657TIP3   OH238529   1.962   3.391   1.473 -0.1902 -0.3714  0.0227
 5657TIP3    H138530   2.006   3.463   1.517 -0.0371 -0.1969 -0.4071
 5657TIP3    H238531   1.895   3.362   1.535 -2.0024  1.8316 -0.7707
 5658TIP3   OH238532   3.956   1.742   1.571 -0.0638 -0.1350  0.3009
 5658TIP3    H138533   3.884   1.804   1.560  1.2997  1.3555 -0.6165
 5658TIP3    H238534   3.963   1.729   1.665 -0.5551  0.8961  0.4882
 5659TIP3   OH238535   4.423   0.541   7.947 -0.0742  0.3130  0.0439
 5659TIP3    H138536   4.413   0.636   7.954 -1.4039  0.3601 -1.7217
 5659TIP3    H238537   4.367   0.506   8.016  0.4297  0.7981  0.7096
 5660TIP3   OH238538   4.000   4.393   0.271 -0.1654 -0.4957  0.4630
 5660TIP3    H138539   4.010   4.468   0.329 -0.9697  1.7200 -2.0594
 5660TIP3    H238540   3.907   4.394   0.247  0.5664  0.2851 -2.7614
 5661TIP3   OH238541   5.835   2.728   8.141  0.6164  0.3411  0.1520
 5661TIP3    H138542   5.928   2.744   8.132  0.6858 -0.7092 -1.2078
 5661TIP3    H238543   5.803   2.801   8.196  2.1197  0.9818  0.2090
 5662TIP3   OH238544   3.454   0.647   7.230  0.0722  0.2567  0.2405
 5662TIP3    H138545   3.549   0.652   7.220  0.0515  3.7224  0.6521
 5662TIP3    H238546   3.422   0.634   7.140  0.8888  2.0497 -0.3613
 5663TIP3   OH238547   4.519   4.184   8.025 -0.0873 -0.2277  0.0072
 5663TIP3    H138548   4.474   4.244   8.085 -1.3350 -2.7582  1.7584
 5663TIP3    H238549   4.552   4.114   8.081 -0.3597 -2.1750 -2.1238
 5664TIP3   OH238550   5.234   6.176   0.177  0.3875  0.0384 -0.0562
 5664TIP3    H138551   5.232   6.122   0.098  0.6240  0.4966 -0.3800
 5664TIP3    H238552   5.173   6.133   0.237  0.0656 -0.2100 -0.5523
 5665TIP3   OH238553   6.772   2.198   7.517 -0.2243 -0.6228  0.6363
 5665TIP3    H138554   6.774   2.248   7.598 -0.7931  0.6042 -0.0930
 5665TIP3    H238555   6.860   2.159   7.511  1.5865  3.1892 -0.5358
 5666TIP3   OH238556   3.824   0.129   6.270  0.2681 -0.1028 -0.1768
 5666TIP3    H138557   3.737   0.159   6.297 -0.6693 -1.8848 -1.0421
 5666TIP3    H238558   3.818   0.034   6.270  2.3746 -0.2801  0.1405
 5667TIP3   OH238559   1.599   3.780   8.293  0.1662 -0.0231 -0.0404
 5667TIP3    H138560   1.679   3.755   8.247 -0.6450  3.3795 -3.8729
 5667TIP3    H238561   1.537   3.710   8.272  0.9719 -0.5468 -0.7617
 5668TIP3   OH238562   2.027   1.099   0.695 -0.2833  0.2726  0.2680
 5668TIP3    H138563   2.021   1.178   0.642 -2.7725  0.1828  0.3064
 5668TIP3    H238564   2.072   1.126   0.774  1.5193  0.9118 -0.9035
 5669TIP3   OH238565   3.732   0.082   8.202 -0.5867  0.4619 -0.1405
 5669TIP3    H138566   3.659   0.142   8.191 -0.1420  1.1785  0.6982
 5669TIP3    H238567   3.810   0.135   8.183 -0.1244  0.4405  1.5195
 5670TIP3   OH238568   3.786   1.590   0.369 -0.1661 -0.1215  0.0331
 5670TIP3    H138569   3.772   1.650   0.443  2.7358  0.1384  0.4714
 5670TIP3    H238570   3.791   1.647   0.293 -0.6437 -0.1497 -0.0238
 5671TIP3   OH238571   5.845   4.928   1.043 -0.4256  0.2118  0.5241
 5671TIP3    H138572   5.805   4.931   0.956 -1.2448 -0.7275  0.8464
 5671TIP3    H238573   5.913   4.862   1.036 -1.9961 -1.5551  1.1570
 5672TIP3   OH238574   1.146   1.444   1.373 -0.0567  0.7979  0.2804
 5672TIP3    H138575   1.211   1.411   1.436  0.3304 -1.1389 -1.0354
 5672TIP3    H238576   1.110   1.365   1.333  0.0417  1.9311 -2.2417
 5673TIP3   OH238577   1.205   5.415   6.623  0.1326 -0.0112 -0.1755
 5673TIP3    H138578   1.234   5.500   6.591  2.0772 -0.5248  0.0725
 5673TIP3    H238579   1.185   5.366   6.544 -1.3642  0.7625 -0.3071
 5674TIP3   OH238580   1.756   6.047   0.934  0.2556 -0.0766  0.5517
 5674TIP3    H138581   1.827   6.037   0.998  0.1415 -2.8403  0.4079
 5674TIP3    H238582   1.798   6.028   0.850 -0.5405 -1.4807  0.4381
 5675TIP3   OH238583   0.239   0.990   8.526 -0.4492 -0.0605  0.1137
 5675TIP3    H138584   0.175   1.029   8.584 -0.9288  0.4637 -0.7470
 5675TIP3    H238585   0.268   0.911   8.571 -2.6539 -1.0231 -0.0440
 5676TIP3   OH238586   0.892   6.201   7.221 -0.1304  0.4823  0.4512
 5676TIP3    H138587   0.934   6.274   7.176  2.9702 -0.4739  1.5098
 5676TIP3    H238588   0.924   6.207   7.311 -1.6583 -0.8809  1.1314
 5677TIP3   OH238589   1.800   6.664   8.537 -0.2664  0.0221  0.3934
 5677TIP3    H138590   1.760   6.731   8.480 -0.4374 -0.1292  0.3353
 5677TIP3    H238591   1.765   6.683   8.624 -2.4948 -1.6513 -0.0566
 5678TIP3   OH238592   5.232   5.074   0.477  0.2530 -0.0180  0.1975
 5678TIP3    H138593   5.302   5.019   0.512 -0.2907 -1.8591 -1.4673
 5678TIP3    H238594   5.167   5.078   0.547  0.8407 -0.5300  0.7794
 5679TIP3   OH238595   0.808   2.314   0.840  0.0402 -0.7415  0.2766
 5679TIP3    H138596   0.877   2.376   0.821 -1.0991  0.5882  0.2990
 5679TIP3    H238597   0.826   2.283   0.929  1.6500 -1.9077 -0.4043
 5680TIP3   OH238598   5.265   1.196   0.120 -0.0388 -0.2729  0.3281
 5680TIP3    H138599   5.197   1.246   0.074 -0.6072 -0.9765  0.3967
 5680TIP3    H238600   5.234   1.106   0.118  0.4498 -0.4648  1.1741
 5681TIP3   OH238601   0.531   1.709   7.260 -0.1756  0.4967  0.3065
 5681TIP3    H138602   0.555   1.647   7.192  1.2103  1.1310  0.1809
 5681TIP3    H238603   0.611   1.722   7.310 -0.9770  0.6100  1.6093
 5682TIP3   OH238604   6.091   6.063   7.629  0.4137  0.0534  0.1633
 5682TIP3    H138605   6.157   6.071   7.561 -0.0759 -0.3329 -0.3738
 5682TIP3    H238606   6.133   6.010   7.697  1.5371  1.9442  1.0116
 5683TIP3   OH238607   5.155   3.518   1.779 -0.9394 -0.5387  0.1540
 5683TIP3    H138608   5.096   3.452   1.816 -1.6785  1.5344  2.9931
 5683TIP3    H238609   5.242   3.482   1.795 -1.3289 -2.1233 -1.0500
 5684TIP3   OH238610   2.386   3.725   7.856  0.2714  0.1190 -0.4198
 5684TIP3    H138611   2.473   3.687   7.875 -0.1977 -1.1279 -0.6638
 5684TIP3    H238612   2.344   3.661   7.799 -0.2951  1.3880 -1.4613
 5685TIP3   OH238613   5.413   2.926   0.954  0.4153 -0.3536  0.1405
 5685TIP3    H138614   5.497   2.970   0.968  0.6046 -0.8123  0.4786
 5685TIP3    H238615   5.348   2.984   0.992  0.7418 -0.7400  1.3121
 5686TIP3   OH238616   4.661   2.405   8.050 -0.5159 -0.1070  0.5050
 5686TIP3    H138617   4.614   2.322   8.049  1.4885 -1.3264  1.1958
 5686TIP3    H238618   4.721   2.400   7.976  0.6401  0.0499  1.3945
 5687TIP3   OH238619   4.064   3.408   1.520  0.5185 -0.3045  0.2141
 5687TIP3    H138620   4.041   3.483   1.574  1.9603 -0.9264  1.7671
 5687TIP3    H238621   3.987   3.351   1.525  0.4709 -0.1710  1.3279
 5688TIP3   OH238622   2.951   2.486   8.074  0.0196  0.4006 -0.6090
 5688TIP3    H138623   2.975   2.404   8.118 -1.0019  0.6137  0.3765
 5688TIP3    H238624   2.977   2.472   7.983 -2.0643 -1.8648 -0.9475
 5689TIP3   OH238625   4.371   4.822   0.653  0.2012  0.0810 -0.3049
 5689TIP3    H138626   4.280   4.850   0.641  0.6462  2.5096  1.2329
 5689TIP3    H238627   4.374   4.789   0.743  1.0432  1.0584  0.0432
 5690TIP3   OH238628   6.027   2.439   8.029  0.1179 -0.0175  0.3316
 5690TIP3    H138629   6.090   2.491   8.078  1.9087  0.1379 -1.9760
 5690TIP3    H238630   6.041   2.465   7.938 -1.9338 -1.4544 -0.4608
 5691TIP3   OH238631   5.190   5.743   8.305 -0.8247  0.2546  0.4984
 5691TIP3    H138632   5.222   5.716   8.391 -0.8666 -0.4445  0.2966
 5691TIP3    H238633   5.174   5.837   8.314  3.5219  1.2583 -0.0504
 5692TIP3   OH238634   3.730   6.605   7.422  0.4003 -0.5790 -0.6410
 5692TIP3    H138635   3.746   6.541   7.492 -0.0597 -1.3811 -1.2508
 5692TIP3    H238636   3.698   6.552   7.349 -0.0368  0.3638 -1.1399
 5693TIP3   OH238637   4.479   2.211   7.941 -0.6081  0.2086 -0.1689
 5693TIP3    H138638   4.467   2.277   7.873 -2.2006  1.2956  1.1040
 5693TIP3    H238639   4.393   2.203   7.982  0.4595  0.1472  2.2005
 5694TIP3   OH238640   1.231   4.422   8.254  0.0407  0.6035 -0.3522
 5694TIP3    H138641   1.219   4.372   8.334  0.6046  2.7518  1.1826
 5694TIP3    H238642   1.142   4.442   8.225 -0.1822 -1.0290 -0.8670
 5695TIP3   OH238643   1.449   5.869   5.964  0.0117  0.1476 -0.2190
 5695TIP3    H138644   1.370   5.922   5.950 -1.0109 -1.2451  0.0188
 5695TIP3    H238645   1.512   5.903   5.901 -1.0999  0.6891 -1.0770
 5696TIP3   OH238646   6.158   0.768   1.814 -0.2810  0.2730 -0.1334
 5696TIP3    H138647   6.211   0.787   1.891 -2.1347  0.1358  1.2591
 5696TIP3    H238648   6.178   0.839   1.753 -0.3023  1.5821  1.3238
 5697TIP3   OH238649   1.047   4.780   6.961 -0.0238 -0.0611  0.9820
 5697TIP3    H138650   1.121   4.836   6.934  0.3882 -0.2636  1.6612
 5697TIP3    H238651   1.088   4.711   7.014 -0.6196 -0.5859  0.7622
 5698TIP3   OH238652   5.473   3.710   6.792 -0.2795 -0.3621  0.3663
 5698TIP3    H138653   5.532   3.644   6.830  0.4039  0.7782  1.3467
 5698TIP3    H238654   5.524   3.791   6.793 -0.6151 -0.0663 -2.0871
 5699TIP3   OH238655   1.830   1.243   6.032 -0.2411 -0.0846  0.4057
 5699TIP3    H138656   1.830   1.188   5.953  0.8231 -0.1466  0.4408
 5699TIP3    H238657   1.908   1.217   6.080 -0.7053  0.1857  1.3363
 5700TIP3   OH238658   2.733   2.389   0.773  0.4229  0.2552 -0.3156
 5700TIP3    H138659   2.642   2.416   0.784 -0.2864 -1.9184 -0.3214
 5700TIP3    H238660   2.766   2.445   0.703 -1.5913 -0.3661 -1.8683
 5701TIP3   OH238661   6.440   1.193   6.686  0.1748 -0.0051 -0.0922
 5701TIP3    H138662   6.445   1.113   6.633 -1.6879  0.5448 -1.1913
 5701TIP3    H238663   6.363   1.180   6.742  1.7500 -0.3191  2.1558
 5702TIP3   OH238664   6.581   5.116   2.096  0.3205 -0.1903 -0.0128
 5702TIP3    H138665   6.578   5.211   2.110 -0.8477 -0.0743 -0.8524
 5702TIP3    H238666   6.590   5.079   2.183  1.5239  0.7070  0.2711
 5703TIP3   OH238667   1.553   6.152   2.410 -0.2629  0.9176 -0.0568
 5703TIP3    H138668   1.526   6.214   2.478  0.2976  1.4337 -0.2920
 5703TIP3    H238669   1.625   6.197   2.364 -0.3632  0.4108 -0.7256
 5704TIP3   OH238670   5.553   3.981   1.899  0.4257  0.2284 -0.0220
 5704TIP3    H138671   5.629   4.018   1.944  0.2793  0.7337 -0.1794
 5704TIP3    H238672   5.480   3.995   1.960  0.3555  0.2706 -0.1149
 5705TIP3   OH238673   5.011   3.865   7.388  0.0084 -0.6662  0.8560
 5705TIP3    H138674   4.994   3.956   7.410  0.2742 -0.4985  0.3776
 5705TIP3    H238675   5.030   3.823   7.472 -0.2105 -0.3042  1.0872
 5706TIP3   OH238676   5.106   3.107   1.766  0.7299  0.8651  0.4249
 5706TIP3    H138677   5.188   3.114   1.717  0.0131  0.9109 -0.8017
 5706TIP3    H238678   5.061   3.032   1.728 -0.4819  1.7738  0.0230
 5707TIP3   OH238679   1.172   1.525   7.862  0.1780  0.2447 -0.3334
 5707TIP3    H138680   1.093   1.484   7.898  1.6996 -1.1650  1.6237
 5707TIP3    H238681   1.212   1.569   7.937  1.2941  0.8779 -1.2811
 5708TIP3   OH238682   3.568   1.959   7.195  0.1408 -0.2343  0.3467
 5708TIP3    H138683   3.486   1.911   7.204 -1.5275  2.4289  0.2391
 5708TIP3    H238684   3.603   1.931   7.111 -2.7334  1.4105 -1.5621
 5709TIP3   OH238685   1.767   4.932   0.386  0.3435  0.2170  0.0621
 5709TIP3    H138686   1.847   4.977   0.410  0.3764  0.7488 -0.9611
 5709TIP3    H238687   1.790   4.839   0.385  1.2463  0.4200 -1.1880
 5710TIP3   OH238688   1.814   5.316   7.506 -0.3009  0.2012  0.5238
 5710TIP3    H138689   1.845   5.274   7.425 -0.2202  0.3081  0.4985
 5710TIP3    H238690   1.834   5.252   7.574 -1.4451 -0.4014  0.3241
 5711TIP3   OH238691   5.687   5.394   2.233  0.3579 -0.0671  0.2788
 5711TIP3    H138692   5.750   5.335   2.273 -0.1721 -1.6182 -1.0819
 5711TIP3    H238693   5.613   5.395   2.292  1.9518  2.6965  2.5255
 5712TIP3   OH238694   5.411   3.227   0.512 -0.4580  0.1665  0.2026
 5712TIP3    H138695   5.334   3.216   0.568 -0.3903  0.1018  0.2822
 5712TIP3    H238696   5.484   3.196   0.565 -0.4105 -0.0054  0.0355
 5713TIP3   OH238697   1.540   0.248   6.698  0.1255  0.0079 -0.4468
 5713TIP3    H138698   1.505   0.269   6.611  1.6102 -0.2544 -1.1375
 5713TIP3    H238699   1.468   0.202   6.742 -0.1883 -1.1336 -2.0526
 5714TIP3   OH238700   2.755   6.608   7.837  0.1864  0.8191  0.0630
 5714TIP3    H138701   2.839   6.588   7.796  0.0887  1.1046 -0.2865
 5714TIP3    H238702   2.741   6.701   7.817 -0.9261  0.4167 -1.1986
 5715TIP3   OH238703   0.314   5.258   8.424 -0.2550 -0.0714 -0.1466
 5715TIP3    H138704   0.297   5.337   8.374 -1.3494  0.4012  0.9166
 5715TIP3    H238705   0.249   5.194   8.393  0.6445 -0.5945 -1.0247
 5716TIP3   OH238706   0.100   1.907   0.573  0.2058 -0.2478 -0.3328
 5716TIP3    H138707   0.178   1.962   0.580 -0.0210  0.4654 -2.6327
 5716TIP3    H238708   0.092   1.889   0.479 -0.8585 -2.5958  0.1531
 5717TIP3   OH238709   5.366   5.707   6.703  0.4824  0.0561  0.2519
 5717TIP3    H138710   5.389   5.645   6.634  0.1612  0.9112 -0.6563
 5717TIP3    H238711   5.326   5.781   6.656 -1.2490 -0.0346  1.4915
 5718TIP3   OH238712   5.623   0.138   0.644  0.1789  0.5042  0.2470
 5718TIP3    H138713   5.606   0.044   0.636 -2.4715  0.7419  1.8225
 5718TIP3    H238714   5.551   0.179   0.596  1.6760  1.8109 -1.0289
 5719TIP3   OH238715   6.635   1.350   8.394 -0.3495 -0.1134  0.0395
 5719TIP3    H138716   6.667   1.262   8.373 -0.4471 -0.1311 -0.0370
 5719TIP3    H238717   6.713   1.406   8.390  0.4956 -0.7521  3.6307
 5720TIP3   OH238718   5.880   4.989   6.993 -0.1268  0.5908  0.2452
 5720TIP3    H138719   5.928   5.070   7.008  4.2548 -1.7099  0.2793
 5720TIP3    H238720   5.853   4.960   7.081 -2.3984  2.2185  0.1666
 5721TIP3   OH238721   3.374   5.300   0.262 -0.3171 -0.0752 -0.1909
 5721TIP3    H138722   3.458   5.276   0.224 -0.1916 -1.6020  0.9608
 5721TIP3    H238723   3.383   5.392   0.285  1.7356 -0.6535  1.5816
 5722TIP3   OH238724   5.249   2.241   1.942 -0.1858  0.2703 -0.2340
 5722TIP3    H138725   5.246   2.261   2.035 -1.1855  0.8412 -0.3698
 5722TIP3    H238726   5.266   2.147   1.938 -2.3320 -0.2087  0.5929
 5723TIP3   OH238727   5.511   2.132   0.496  0.0124  0.1612 -0.1926
 5723TIP3    H138728   5.423   2.126   0.459 -0.6936 -0.5289  1.5087
 5723TIP3    H238729   5.564   2.073   0.442 -1.1417 -1.3449  0.2514
 5724TIP3   OH238730   1.882   5.773   0.034  0.0767 -0.0786  0.5923
 5724TIP3    H138731   1.881   5.859  -0.007 -0.6506  0.2852  1.3458
 5724TIP3    H238732   1.966   5.735   0.008  0.0839  0.5542 -0.3535
 5725TIP3   OH238733   4.228   6.064   0.838 -0.1091 -0.0381  0.0050
 5725TIP3    H138734   4.175   6.021   0.771  0.0525 -2.2050  1.1885
 5725TIP3    H238735   4.165   6.095   0.903 -0.1622  0.7713 -0.4217
 5726TIP3   OH238736   3.452   1.822   8.527  0.4587  0.3123  0.4436
 5726TIP3    H138737   3.390   1.781   8.587 -0.3819 -1.1898 -1.3635
 5726TIP3    H238738   3.537   1.811   8.570 -0.2209  0.3743  1.8856
 5727TIP3   OH238739   5.938   1.202   0.095 -1.0641 -0.3025  0.3464
 5727TIP3    H138740   5.922   1.292   0.121 -1.1052  0.1234 -1.0346
 5727TIP3    H238741   5.988   1.164   0.167  0.3972  1.3086  0.2337
 5728TIP3   OH238742   3.521   0.588   6.684  0.3777  0.2492 -0.3945
 5728TIP3    H138743   3.455   0.651   6.657 -0.0920  0.5027  1.2362
 5728TIP3    H238744   3.472   0.519   6.727  1.0713 -0.2058 -0.3189
 5729TIP3   OH238745   5.359   3.001   1.643  0.7269  0.0325 -0.2051
 5729TIP3    H138746   5.386   2.921   1.687  1.4254  0.5812  0.3639
 5729TIP3    H238747   5.439   3.036   1.604  0.4093  0.4136 -0.5273
 5730TIP3   OH238748   0.852   4.374   6.875 -0.5531  0.1697  0.3629
 5730TIP3    H138749   0.788   4.440   6.902  0.1391  1.4914 -1.1077
 5730TIP3    H238750   0.839   4.365   6.781  1.6648  0.7820 -0.0481
 5731TIP3   OH238751   3.223   1.166   2.528 -0.4758  0.4304  0.1189
 5731TIP3    H138752   3.184   1.135   2.447 -2.7332  0.3927  1.1393
 5731TIP3    H238753   3.149   1.194   2.581  0.5854 -1.8620  3.1648
 5732TIP3   OH238754   1.691   2.200   0.569 -0.5552 -0.7103 -0.1154
 5732TIP3    H138755   1.628   2.218   0.639 -0.9649  2.5986 -1.1771
 5732TIP3    H238756   1.662   2.116   0.532 -3.8196  0.2405  0.0262
 5733TIP3   OH238757   4.997   5.068   2.116 -0.0468 -1.2594  0.5567
 5733TIP3    H138758   4.905   5.050   2.134 -0.9733  1.2763 -1.1787
 5733TIP3    H238759   5.040   5.062   2.201 -2.0887 -1.0258  1.6509
 5734TIP3   OH238760   3.286   1.728   1.163  0.0733 -0.2231 -0.2206
 5734TIP3    H138761   3.206   1.702   1.209  0.0435 -0.3970 -0.3682
 5734TIP3    H238762   3.354   1.671   1.200  0.1759  0.0816  0.0695
 5735TIP3   OH238763   6.515   5.775   6.858  0.1302  0.1704 -1.1383
 5735TIP3    H138764   6.519   5.711   6.786 -2.1803 -0.4130 -0.8037
 5735TIP3    H238765   6.456   5.843   6.826 -0.3938  0.2400 -0.0609
 5736TIP3   OH238766   0.263   3.460   1.715 -0.1887  0.2978  0.1059
 5736TIP3    H138767   0.186   3.412   1.684 -1.8748  2.4188  0.7759
 5736TIP3    H238768   0.276   3.529   1.650  1.2363 -0.1052 -0.0562
 5737TIP3   OH238769   5.254   0.998   0.416  0.2158 -0.5138  0.1144
 5737TIP3    H138770   5.228   0.950   0.337 -0.1470 -1.8408  1.0028
 5737TIP3    H238771   5.179   1.054   0.435  0.0167 -0.7074 -0.0878
 5738TIP3   OH238772   1.882   0.069   1.185  0.6414 -0.0685  0.0973
 5738TIP3    H138773   1.829   0.019   1.247  1.9143  0.1131  1.4124
 5738TIP3    H238774   1.856   0.037   1.099  0.5029 -2.0993  0.8270
 5739TIP3   OH238775   6.523   5.375   8.047 -0.6008 -0.2456 -0.4225
 5739TIP3    H138776   6.570   5.459   8.039  0.9376 -1.1901 -2.2120
 5739TIP3    H238777   6.520   5.341   7.957  0.1238 -2.7631  0.4206
 5740TIP3   OH238778   3.878   1.584   8.216 -0.5522  0.3107 -0.2915
 5740TIP3    H138779   3.867   1.619   8.127 -0.1893 -0.1754 -0.5308
 5740TIP3    H238780   3.792   1.550   8.239 -0.9603  1.4907  0.0117
 5741TIP3   OH238781   5.962   0.303   1.942  0.6169  0.3345  0.2551
 5741TIP3    H138782   5.868   0.318   1.934  0.5396 -0.6095 -0.8487
 5741TIP3    H238783   6.001   0.352   1.869  0.8894 -0.0398  0.1458
 5742TIP3   OH238784   0.713   1.621   8.155 -0.0472  0.3542 -0.2837
 5742TIP3    H138785   0.640   1.592   8.100 -0.1308 -0.9028  0.4474
 5742TIP3    H238786   0.690   1.590   8.243  0.1011  2.2678  0.4757
 5743TIP3   OH238787   2.782   5.473   1.925  0.5059  0.5122 -0.3886
 5743TIP3    H138788   2.784   5.534   1.999  1.2909  0.1063 -0.0589
 5743TIP3    H238789   2.698   5.428   1.934 -0.5512  2.2025 -1.2115
 5744TIP3   OH238790   2.132   5.146   7.298  0.2202  0.0674  0.2089
 5744TIP3    H138791   2.092   5.059   7.305 -0.5011  0.3226 -0.5474
 5744TIP3    H238792   2.218   5.136   7.340 -0.8797 -0.3067  2.5359
 5745TIP3   OH238793   5.576   0.913   7.183  0.7140 -0.2497  0.1485
 5745TIP3    H138794   5.550   0.871   7.265  1.3986 -0.0961  0.4463
 5745TIP3    H238795   5.601   1.002   7.208 -1.2554  0.5555 -0.5501
 5746TIP3   OH238796   2.615   2.784   6.721 -0.0406  0.5443 -0.7209
 5746TIP3    H138797   2.667   2.715   6.763  0.5595  1.4220 -0.0006
 5746TIP3    H238798   2.537   2.738   6.689  0.8730 -0.6879 -1.2981
 5747TIP3   OH238799   3.670   5.864   8.042 -0.1130  0.1982  0.1563
 5747TIP3    H138800   3.637   5.805   8.110  0.0207  1.6827  1.5738
 5747TIP3    H238801   3.740   5.815   7.999 -0.4185 -0.8955  0.8760
 5748TIP3   OH238802   2.709   4.715   6.454  0.1081  0.4591 -0.3629
 5748TIP3    H138803   2.765   4.640   6.436 -0.5277 -0.0563 -0.2395
 5748TIP3    H238804   2.762   4.771   6.511  1.1151  0.8062 -1.6027
 5749TIP3   OH238805   2.694   6.119   7.123  0.0201  1.0726 -0.2758
 5749TIP3    H138806   2.608   6.080   7.139  1.0997 -1.4406 -0.0582
 5749TIP3    H238807   2.735   6.060   7.060  1.7257  1.9729 -0.0445
 5750TIP3   OH238808   0.297   4.815   1.502 -0.3206 -0.2272  0.1139
 5750TIP3    H138809   0.332   4.878   1.565  3.1275 -0.7116 -1.1193
 5750TIP3    H238810   0.312   4.730   1.543 -0.6496 -0.4435 -0.2088
 5751TIP3   OH238811   0.800   3.453   0.632 -0.4743  0.2393 -0.5845
 5751TIP3    H138812   0.749   3.398   0.573 -1.8388  1.0458 -0.1927
 5751TIP3    H238813   0.763   3.541   0.622 -1.0694  0.3282  1.7714
 5752TIP3   OH238814   2.893   3.844   6.911 -0.1309 -0.3237  0.0770
 5752TIP3    H138815   2.841   3.895   6.849  0.2927  0.0129 -0.0058
 5752TIP3    H238816   2.941   3.781   6.857  0.5604  0.2489  0.0153
 5753TIP3   OH238817   5.441   2.020   0.163 -0.2895  0.1157 -0.5178
 5753TIP3    H138818   5.532   2.016   0.192 -0.2332  0.9934 -0.5390
 5753TIP3    H238819   5.413   1.929   0.160  0.9916 -0.2770 -1.8245
 5754TIP3   OH238820   6.831   3.749   7.234 -0.1016  0.2766  0.3053
 5754TIP3    H138821   6.864   3.787   7.153  1.6317 -0.3026  0.6905
 5754TIP3    H238822   6.910   3.723   7.282 -1.0824  0.6183  2.1922
 5755TIP3   OH238823   5.698   5.490   7.793  0.2689 -0.3270  0.2632
 5755TIP3    H138824   5.680   5.468   7.885 -0.7243 -1.3571 -0.1450
 5755TIP3    H238825   5.616   5.530   7.762  1.0687  1.3208  0.1786
 5756TIP3   OH238826   3.436   3.344   8.287  0.2800  0.7385  0.3825
 5756TIP3    H138827   3.507   3.311   8.342 -0.8506 -0.5620  1.1583
 5756TIP3    H238828   3.378   3.390   8.348 -0.2180  0.5936  0.0290
 5757TIP3   OH238829   1.012   4.349   0.109 -0.7413 -0.0296 -0.6336
 5757TIP3    H138830   1.052   4.411   0.170  0.9930  0.5711 -2.2846
 5757TIP3    H238831   0.951   4.299   0.162  0.9441  0.2198  1.6521
 5758TIP3   OH238832   2.775   2.649   8.215  0.2637 -0.1821 -0.3116
 5758TIP3    H138833   2.827   2.672   8.292 -0.8683  1.3648  0.0528
 5758TIP3    H238834   2.834   2.597   8.160  1.5520 -0.0956  0.9359
 5759TIP3   OH238835   1.938   0.840   0.324 -0.0959  0.1008 -0.0352
 5759TIP3    H138836   1.958   0.825   0.232 -1.8646 -0.5861 -0.3626
 5759TIP3    H238837   1.979   0.924   0.345  0.1401  0.3756 -1.5132
 5760TIP3   OH238838   6.168   1.427   0.222  0.0911 -0.0560  0.1180
 5760TIP3    H138839   6.228   1.354   0.233  0.9897  0.5493 -0.6232
 5760TIP3    H238840   6.211   1.500   0.267 -0.5979  0.1309  0.4864
 5761TIP3   OH238841   5.640   3.124   7.974 -0.2931  0.4981 -0.0279
 5761TIP3    H138842   5.616   3.200   8.027 -0.3132 -0.3987  1.3021
 5761TIP3    H238843   5.564   3.066   7.979  0.1401 -0.0854 -0.1059
 5762TIP3   OH238844   1.926   6.650   7.108  0.0161  0.5118  0.4957
 5762TIP3    H138845   1.908   6.556   7.109  2.4844 -0.0472  0.7898
 5762TIP3    H238846   1.844   6.691   7.132 -0.6084 -1.7055  2.5098
 5763TIP3   OH238847   2.007   4.826   7.993  0.5690  0.5181  0.2233
 5763TIP3    H138848   2.081   4.778   7.956  0.2926 -0.5937  1.0702
 5763TIP3    H238849   1.934   4.765   7.990  0.6306  0.1487  3.0021
 5764TIP3   OH238850   4.708   2.784   1.093 -0.0956 -0.4527  0.0843
 5764TIP3    H138851   4.654   2.863   1.092  1.1204  0.4386 -1.8942
 5764TIP3    H238852   4.679   2.735   1.016  1.1237 -0.5014 -0.3600
 5765TIP3   OH238853   1.555   0.096   1.808 -0.7120  0.1358  0.3106
 5765TIP3    H138854   1.540   0.152   1.731  0.5627  0.3520  0.1792
 5765TIP3    H238855   1.571   0.009   1.772  3.1075  0.8010 -0.0604
 5766TIP3   OH238856   2.508   6.380   6.967 -0.1475 -0.7602 -0.1630
 5766TIP3    H138857   2.448   6.454   6.954 -0.2838 -0.5075  1.6590
 5766TIP3    H238858   2.457   6.303   6.943  0.5209 -0.2673 -3.8069
 5767TIP3   OH238859   5.253   3.592   0.972  0.2403 -0.1403 -0.0749
 5767TIP3    H138860   5.161   3.596   0.999 -0.0077  0.3349 -0.9584
 5767TIP3    H238861   5.301   3.578   1.054 -0.5195  0.9540  0.5874
 5768TIP3   OH238862   5.417   6.109   0.590 -0.3669 -0.0285  0.0009
 5768TIP3    H138863   5.375   6.066   0.664  1.7989 -0.7733  0.8683
 5768TIP3    H238864   5.429   6.039   0.526 -1.9401  0.5469 -0.9813
 5769TIP3   OH238865   5.641   0.575   2.067 -0.1137 -0.5928 -0.2587
 5769TIP3    H138866   5.574   0.507   2.076  0.3355 -0.8720  1.3048
 5769TIP3    H238867   5.680   0.582   2.154 -1.8621  3.4834  0.4217
 5770TIP3   OH238868   4.326   5.698   1.445  0.1259 -0.5804  0.4611
 5770TIP3    H138869   4.232   5.691   1.460  0.3065 -2.3454  0.9285
 5770TIP3    H238870   4.353   5.610   1.419  1.8497 -0.4185  1.5341
 5771TIP3   OH238871   0.719   3.783   1.528 -0.4821 -0.1648  0.0096
 5771TIP3    H138872   0.644   3.803   1.585 -0.3647 -0.7790  0.3913
 5771TIP3    H238873   0.683   3.788   1.439 -1.5296 -2.4714  0.2347
 5772TIP3   OH238874   2.281   3.634   0.866 -0.4573  0.2214  0.5372
 5772TIP3    H138875   2.227   3.621   0.945 -3.7773  0.9379 -1.4019
 5772TIP3    H238876   2.301   3.545   0.836  1.0475 -0.0587  2.2447
 5773TIP3   OH238877   6.114   0.832   7.457 -0.4152 -0.4159  1.1081
 5773TIP3    H138878   6.192   0.852   7.405  0.3443  1.5494  2.8468
 5773TIP3    H238879   6.046   0.815   7.392  0.9198  0.0646 -0.4896
 5774TIP3   OH238880   1.627   4.769   0.874 -0.2568 -0.8623  0.1325
 5774TIP3    H138881   1.668   4.856   0.870 -2.5875  0.3245  0.2482
 5774TIP3    H238882   1.536   4.784   0.848 -0.4898 -3.4892 -0.9008
 5775TIP3   OH238883   1.022   6.773   5.876 -0.3090  0.3683 -0.4518
 5775TIP3    H138884   0.990   6.864   5.878 -0.2668  0.3794  0.7071
 5775TIP3    H238885   0.987   6.734   5.956  1.8995  0.1552  0.4784
 5776TIP3   OH238886   2.643   3.740   8.460 -0.5893  0.6855  0.0254
 5776TIP3    H138887   2.671   3.691   8.538  0.1936  0.7894 -0.1840
 5776TIP3    H238888   2.723   3.754   8.410 -1.0999  0.4834 -0.8831
 5777TIP3   OH238889   1.307   5.708   0.115 -0.3653 -0.2795  0.2014
 5777TIP3    H138890   1.305   5.735   0.023 -0.0960  0.2466  0.3477
 5777TIP3    H238891   1.324   5.789   0.164 -0.7422 -0.5156  0.7307
 5778TIP3   OH238892   2.788   3.005   1.425 -0.5908 -0.0233 -0.7099
 5778TIP3    H138893   2.838   2.938   1.470 -1.7921 -0.4804 -0.0114
 5778TIP3    H238894   2.831   3.014   1.340  0.9503 -0.0392  0.0417
 5779TIP3   OH238895   0.034   4.812   1.389  0.2230 -0.0457 -0.0062
 5779TIP3    H138896  -0.001   4.842   1.474  1.3996 -0.0791  0.5007
 5779TIP3    H238897   0.123   4.783   1.408  0.6840  0.4183 -1.3542
 5780TIP3   OH238898   1.803   2.502   8.102  0.5064  0.8823 -0.6445
 5780TIP3    H138899   1.774   2.437   8.166 -0.2165  1.7233 -0.1057
 5780TIP3    H238900   1.723   2.526   8.055  0.6991  1.6669 -0.5729
 5781TIP3   OH238901   2.325   2.313   0.654 -0.0337 -0.2921 -0.4949
 5781TIP3    H138902   2.381   2.343   0.583  1.0125  1.0225  0.8153
 5781TIP3    H238903   2.265   2.387   0.669  0.2488 -0.2476  0.4613
 5782TIP3   OH238904   4.874   3.038   8.394  0.0128 -0.4481 -0.0912
 5782TIP3    H138905   4.845   3.011   8.481 -0.1339  0.9007  0.2947
 5782TIP3    H238906   4.837   2.971   8.335 -2.4846  0.2458  0.5515
 5783TIP3   OH238907   3.316   2.462   1.646 -0.0257  0.1794 -0.0510
 5783TIP3    H138908   3.323   2.420   1.731  0.1743 -0.2985 -0.2980
 5783TIP3    H238909   3.372   2.410   1.589 -0.1449  0.5043 -0.4710
 5784TIP3   OH238910   5.057   5.314   0.800  0.5744 -0.2648 -0.4376
 5784TIP3    H138911   5.066   5.225   0.765 -1.4755 -0.4532 -0.6041
 5784TIP3    H238912   5.037   5.368   0.724 -2.7402 -0.4857  0.1336
 5785TIP3   OH238913   2.539   4.879   6.259 -0.1867  0.4638  0.3019
 5785TIP3    H138914   2.583   4.843   6.335  1.3395 -0.8263 -1.1133
 5785TIP3    H238915   2.594   4.952   6.231 -1.0057  1.2547  0.6828
 5786TIP3   OH238916   6.415   2.513   1.759 -0.3554 -0.1503 -0.1430
 5786TIP3    H138917   6.343   2.567   1.729 -0.9657 -0.9301 -0.1202
 5786TIP3    H238918   6.490   2.540   1.705 -0.5254  1.0153  0.1881
 5787TIP3   OH238919   5.259   0.048   0.794  0.1596 -0.1431  0.2637
 5787TIP3    H138920   5.283   0.140   0.806 -0.4515  0.1668 -0.7390
 5787TIP3    H238921   5.264   0.035   0.699 -0.6265 -0.8899  0.3125
 5788TIP3   OH238922   5.571   0.795   8.481 -0.8376  0.0762 -0.4722
 5788TIP3    H138923   5.604   0.784   8.570  1.2293 -0.2291 -1.2390
 5788TIP3    H238924   5.624   0.865   8.443  1.6334 -2.7938 -2.8973
 5789TIP3   OH238925   3.448   0.883   7.939 -0.4052  0.4975  0.0239
 5789TIP3    H138926   3.384   0.815   7.964  0.0886 -0.1393 -0.4036
 5789TIP3    H238927   3.513   0.881   8.008  0.7134 -0.9406 -0.9982
 5790TIP3   OH238928   1.112   3.505   7.882 -0.1825  0.0269  0.3136
 5790TIP3    H138929   1.079   3.556   7.808 -1.1702 -1.0778 -0.0548
 5790TIP3    H238930   1.033   3.480   7.931  0.2865 -0.8862  0.6373
 5791TIP3   OH238931   4.223   3.862   0.111  0.2461 -0.1993 -0.1198
 5791TIP3    H138932   4.193   3.905   0.031 -0.5101 -0.6913 -0.1116
 5791TIP3    H238933   4.308   3.902   0.129  0.5184 -0.2187 -1.2764
 5792TIP3   OH238934   1.992   1.095   1.281 -0.3564 -0.4056 -0.4819
 5792TIP3    H138935   2.064   1.157   1.289 -1.5345  0.8073  1.4377
 5792TIP3    H238936   2.035   1.011   1.263  1.5049  0.3482  0.2037
 5793TIP3   OH238937   1.788   1.293   7.126 -0.0313 -0.1487 -0.3180
 5793TIP3    H138938   1.781   1.307   7.031  4.7057 -0.3620 -0.9190
 5793TIP3    H238939   1.872   1.330   7.150 -1.3562  0.5894  4.0869
 5794TIP3   OH238940   6.084   4.829   1.590  0.0916 -0.1626  0.1545
 5794TIP3    H138941   6.098   4.897   1.656  1.4791 -0.1730 -0.1179
 5794TIP3    H238942   6.065   4.877   1.509  0.2802 -0.1096  0.1413
 5795TIP3   OH238943   2.795   0.423   7.263 -0.1395  0.0268 -0.5728
 5795TIP3    H138944   2.773   0.461   7.348  0.1206 -0.2609 -0.3761
 5795TIP3    H238945   2.717   0.439   7.209 -0.5492 -0.3354 -0.1010
 5796TIP3   OH238946   0.607   5.722   7.262  0.6165 -0.2056  0.7267
 5796TIP3    H138947   0.554   5.706   7.185  2.0051 -1.8452  0.0514
 5796TIP3    H238948   0.664   5.795   7.237 -0.2909  0.6141  0.9620
 5797TIP3   OH238949   4.125   3.743   8.217 -0.2011 -0.1771  0.4282
 5797TIP3    H138950   4.110   3.712   8.128  0.5672  0.5460  0.0436
 5797TIP3    H238951   4.213   3.711   8.239  0.1543  0.7853  0.4291
 5798TIP3   OH238952   4.168   1.040   0.772 -0.0055 -0.0174 -0.0459
 5798TIP3    H138953   4.080   1.021   0.804 -0.1089  0.8768  0.2403
 5798TIP3    H238954   4.223   0.972   0.809 -0.1963  0.7312  1.7019
 5799TIP3   OH238955   3.783   4.843   0.871 -0.4052 -0.3353  0.1719
 5799TIP3    H138956   3.869   4.803   0.873 -0.4138 -0.5701 -1.8950
 5799TIP3    H238957   3.790   4.919   0.929  1.0033 -0.6748  0.4753
 5800TIP3   OH238958   2.490   0.948   0.257  0.3952  0.0356  0.1890
 5800TIP3    H138959   2.531   0.909   0.180  0.9530 -0.9405  0.9427
 5800TIP3    H238960   2.406   0.902   0.265  1.6606 -2.2430  1.9133
 5801TIP3   OH238961   4.395   5.523   0.781 -0.5099 -0.4750  0.0731
 5801TIP3    H138962   4.362   5.563   0.701 -0.1427 -2.4412 -1.1379
 5801TIP3    H238963   4.317   5.495   0.829 -0.7241  0.5685  0.3428
 5802TIP3   OH238964   3.876   3.369   1.106 -0.3578 -0.2382  0.0075
 5802TIP3    H138965   3.807   3.338   1.165 -1.3380 -1.3418 -1.6555
 5802TIP3    H238966   3.956   3.328   1.140 -0.5389  0.7129  1.7059
 5803TIP3   OH238967   4.978   2.212   8.502  1.0210  0.0074 -0.8565
 5803TIP3    H138968   5.019   2.127   8.489 -0.7063 -1.0600  0.2731
 5803TIP3    H238969   4.978   2.253   8.415  1.7466 -1.1840 -1.4414
 5804TIP3   OH238970   0.712   5.982   7.206  0.1555 -0.3940  0.3903
 5804TIP3    H138971   0.628   6.027   7.220  0.1819 -0.4967  0.9106
 5804TIP3    H238972   0.777   6.052   7.211  0.0864 -0.2914 -0.1734
 5805TIP3   OH238973   1.131   2.040   7.808  0.1508  0.1674  0.5060
 5805TIP3    H138974   1.186   2.025   7.884 -0.7246 -0.7643  0.9787
 5805TIP3    H238975   1.109   1.952   7.776  0.7666  0.5341 -1.0312
 5806TIP3   OH238976   0.476   1.498   2.384  0.0429  0.3646  0.4121
 5806TIP3    H138977   0.561   1.531   2.413  0.2570 -0.2780  0.5380
 5806TIP3    H238978   0.495   1.410   2.350  0.1161  1.5677 -3.1333
 5807TIP3   OH238979   4.018   2.975   7.890 -0.2180  0.2829 -0.4638
 5807TIP3    H138980   3.962   2.954   7.965 -2.1968 -0.6729 -2.1147
 5807TIP3    H238981   4.085   2.907   7.889 -1.6484 -1.1641 -0.9510
 5808TIP3   OH238982   2.813   4.996   7.801 -0.1823  0.2730  0.4744
 5808TIP3    H138983   2.837   5.025   7.889 -1.2091  1.3188  0.4327
 5808TIP3    H238984   2.894   5.002   7.750 -0.1145  2.0351  0.7433
 5809TIP3   OH238985   3.498   0.978   6.664 -0.0509  0.0568 -0.3672
 5809TIP3    H138986   3.441   0.911   6.626 -0.3925  0.7340 -1.0791
 5809TIP3    H238987   3.501   1.047   6.598  1.2383  0.2361 -0.1543
 5810TIP3   OH238988   5.613   5.390   1.102  0.1712 -0.6491 -0.4838
 5810TIP3    H138989   5.565   5.321   1.147  0.4078  0.7384  2.0805
 5810TIP3    H238990   5.634   5.352   1.017 -0.7935 -3.2469  0.3200
 5811TIP3   OH238991   0.728   2.103   8.072 -0.2376  0.0738  0.3213
 5811TIP3    H138992   0.738   2.165   8.145 -0.0268 -0.6763  0.9491
 5811TIP3    H238993   0.771   2.023   8.103  0.9512  0.1186 -1.1153
 5812TIP3   OH238994   5.030   5.587   8.150  0.3146  0.8511 -0.4647
 5812TIP3    H138995   5.079   5.554   8.074 -0.7620 -2.2764  0.0786
 5812TIP3    H238996   5.096   5.633   8.202  2.1248 -0.9024 -1.0749
 5813TIP3   OH238997   6.540   1.621   2.209 -0.2024  0.3232 -0.2573
 5813TIP3    H138998   6.627   1.654   2.187 -0.0203  0.3541  0.4858
 5813TIP3    H238999   6.514   1.672   2.286 -0.3229 -0.6032  0.3294
 5814TIP3   OH239000   3.255   1.538   8.247 -0.2445 -0.1772  0.2634
 5814TIP3    H139001   3.193   1.590   8.298 -0.2932 -1.7031  1.8493
 5814TIP3    H239002   3.258   1.581   8.161 -0.4258  2.2813  1.3995
 5815TIP3   OH239003   0.193   5.618   6.838  0.3140 -0.4527 -0.0340
 5815TIP3    H139004   0.257   5.658   6.896 -0.5420 -1.5099  1.7088
 5815TIP3    H239005   0.108   5.644   6.874 -0.2869  0.2204 -1.8043
 5816TIP3   OH239006   4.405   2.121   1.315  0.7407  0.6636  0.0147
 5816TIP3    H139007   4.461   2.062   1.366  0.3172  1.7850  1.8742
 5816TIP3    H239008   4.318   2.108   1.351  0.2888  0.9760 -0.9354
 5817TIP3   OH239009   3.106   1.463   0.374 -0.2709 -0.6188  0.2271
 5817TIP3    H139010   3.025   1.443   0.327  0.5485 -0.4964 -1.3130
 5817TIP3    H239011   3.161   1.386   0.361  0.3934 -0.1201  0.0128
 5818TIP3   OH239012   4.245   6.866   1.729 -0.2059  0.0358  0.4912
 5818TIP3    H139013   4.212   6.779   1.710 -1.5508  0.4439  0.8435
 5818TIP3    H239014   4.311   6.882   1.662 -2.1046 -0.0681 -1.5301
 5819TIP3   OH239015   2.228   4.707   1.085  0.1413 -0.5105  0.0960
 5819TIP3    H139016   2.164   4.646   1.049 -0.8213  0.1423  0.6699
 5819TIP3    H239017   2.188   4.793   1.073 -0.0769 -0.2379  2.3865
 5820TIP3   OH239018   5.223   6.214   6.940 -0.6006 -0.3320 -0.1463
 5820TIP3    H139019   5.251   6.168   6.861 -0.4228 -2.3654  1.0233
 5820TIP3    H239020   5.130   6.194   6.948 -0.7443  0.3178 -0.1078
 5821TIP3   OH239021   5.449   4.940   7.658  0.1464 -0.2207  0.0338
 5821TIP3    H139022   5.515   4.946   7.727  0.2378  0.6104 -0.1151
 5821TIP3    H239023   5.382   4.881   7.693  1.5406 -2.0849 -0.2979
 5822TIP3   OH239024   4.142   1.513   1.592  0.1198  0.1150 -0.2724
 5822TIP3    H139025   4.227   1.551   1.612 -0.2903  1.5800 -1.1541
 5822TIP3    H239026   4.083   1.588   1.583 -1.0863 -0.8194 -0.5140
 5823TIP3   OH239027   3.782   3.777   7.400 -0.2822 -0.3358  0.0541
 5823TIP3    H139028   3.690   3.800   7.384 -0.6735  0.0064  2.4025
 5823TIP3    H239029   3.800   3.705   7.339 -3.0928 -2.5709  1.6201
 5824TIP3   OH239030   3.178   6.176   6.519 -0.3346  0.0785  0.3525
 5824TIP3    H139031   3.099   6.144   6.563 -0.2096  0.5826  0.9671
 5824TIP3    H239032   3.249   6.125   6.558 -0.4478 -1.2174 -1.0444
 5825TIP3   OH239033   4.270   0.877   8.621  0.0088 -0.2207 -0.2944
 5825TIP3    H139034   4.189   0.827   8.618 -0.3365  0.2150  0.9438
 5825TIP3    H239035   4.242   0.968   8.614  0.6800 -0.1537 -3.1525
 5826TIP3   OH239036   5.609   1.192   8.184 -0.8049 -0.1775 -0.2001
 5826TIP3    H139037   5.525   1.217   8.223  0.0523 -0.8044  2.2460
 5826TIP3    H239038   5.595   1.103   8.152 -1.0254 -0.3628  0.4002
 5827TIP3   OH239039   1.615   5.246   8.487  0.4873 -0.2437  0.1855
 5827TIP3    H139040   1.635   5.252   8.581  0.9011  1.0038  0.0449
 5827TIP3    H239041   1.521   5.228   8.484  0.2297  0.8739  0.8551
 5828TIP3   OH239042   6.277   5.059   2.214  0.0372 -0.2330 -0.1494
 5828TIP3    H139043   6.196   5.065   2.163  1.4267  1.3552 -2.3206
 5828TIP3    H239044   6.347   5.072   2.151  2.0011 -0.5861  1.8169
 5829TIP3   OH239045   6.327   5.626   0.908 -0.4349  0.1630 -0.1395
 5829TIP3    H139046   6.261   5.601   0.973 -1.0199  0.2573 -0.6993
 5829TIP3    H239047   6.322   5.558   0.841 -0.4069  0.5183 -0.5036
 5830TIP3   OH239048   2.865   3.898   7.476  0.0379  0.1218 -0.3222
 5830TIP3    H139049   2.838   3.875   7.565 -0.4354 -0.7154 -0.6670
 5830TIP3    H239050   2.959   3.884   7.475  0.0109 -0.0811 -0.0159
 5831TIP3   OH239051   5.682   4.237   7.272  0.1624 -0.4917 -0.3858
 5831TIP3    H139052   5.682   4.308   7.209  2.6671  1.5842  1.7240
 5831TIP3    H239053   5.599   4.246   7.319  0.8565  1.8118  0.5381
 5832TIP3   OH239054   0.683   6.241   0.975 -0.3230  0.4460  0.2731
 5832TIP3    H139055   0.721   6.289   1.048 -0.5953  0.6773  0.2669
 5832TIP3    H239056   0.654   6.309   0.914 -0.7115  0.2751  0.2644
 5833TIP3   OH239057   6.230   3.619   7.727  0.4569  0.9302 -0.1019
 5833TIP3    H139058   6.199   3.571   7.650 -0.1947  0.9562  0.1385
 5833TIP3    H239059   6.324   3.600   7.731  0.1235 -0.8097  0.3393
 5834TIP3   OH239060   5.512   4.221   0.204 -0.5488  0.5187  0.5973
 5834TIP3    H139061   5.526   4.301   0.254 -1.3838  0.5722  0.7689
 5834TIP3    H239062   5.599   4.183   0.192 -0.1482  1.4666  0.4837
 5835TIP3   OH239063   2.013   2.801   8.224  0.0603  0.5150 -0.2287
 5835TIP3    H139064   2.015   2.709   8.249  0.6141  0.6981  0.4384
 5835TIP3    H239065   2.098   2.835   8.253 -1.1429  1.8500  1.9940
 5836TIP3   OH239066   2.511   5.973   6.924 -0.0064  0.1611  0.6551
 5836TIP3    H139067   2.604   5.953   6.925  0.2156  0.7522 -1.8245
 5836TIP3    H239068   2.468   5.894   6.957  1.3664  0.4493  3.4066
 5837TIP3   OH239069   4.900   5.211   8.269  0.6354  0.3416  0.1152
 5837TIP3    H139070   4.928   5.205   8.178 -1.0047 -2.7351 -0.3490
 5837TIP3    H239071   4.973   5.176   8.319  1.2545  1.3524 -0.0535
 5838TIP3   OH239072   5.765   4.035   2.083  0.0742  0.2789 -0.0158
 5838TIP3    H139073   5.751   4.034   2.178  0.1857 -2.8092  0.0744
 5838TIP3    H239074   5.857   4.061   2.073  0.3208 -0.2208  0.8206
 5839TIP3   OH239075   4.060   2.307   2.140  0.6062  0.3570  0.2924
 5839TIP3    H139076   3.991   2.249   2.173  1.3623 -0.2026  0.9428
 5839TIP3    H239077   4.017   2.359   2.072  0.1630 -1.7500 -1.1303
 5840TIP3   OH239078   1.735   2.018   0.808 -0.2773  0.0544 -0.2146
 5840TIP3    H139079   1.733   1.958   0.883 -0.5138  1.2915  0.7995
 5840TIP3    H239080   1.653   2.002   0.762 -0.6039  0.0159  0.3781
 5841TIP3   OH239081   3.661   0.297   1.261 -0.4797  0.1821  0.0146
 5841TIP3    H139082   3.673   0.205   1.283 -2.0736  0.1621  0.9205
 5841TIP3    H239083   3.718   0.344   1.322 -0.1172 -0.1551 -0.0574
 5842TIP3   OH239084   2.580   4.871   7.486 -0.4425  0.1192  0.1546
 5842TIP3    H139085   2.570   4.780   7.458 -1.2560 -0.1747  1.3420
 5842TIP3    H239086   2.672   4.877   7.513 -0.1465 -0.0925 -0.7576
 5843TIP3   OH239087   1.557   3.331   0.359  0.2182 -0.3140 -0.2493
 5843TIP3    H139088   1.613   3.287   0.294 -0.1705 -0.6235 -0.3737
 5843TIP3    H239089   1.617   3.351   0.431  0.6158 -0.1394 -0.6165
 5844TIP3   OH239090   6.035   3.097   7.466 -0.1521  0.2180 -0.2810
 5844TIP3    H139091   6.091   3.172   7.486 -1.6549  1.5221 -0.7532
 5844TIP3    H239092   5.946   3.131   7.472 -0.9992 -2.0431  1.5205
 5845TIP3   OH239093   4.297   0.595   1.213  0.7088 -0.4515  0.3739
 5845TIP3    H139094   4.328   0.670   1.163  1.9000 -1.5528 -0.6055
 5845TIP3    H239095   4.351   0.593   1.291  1.0139 -0.5723  0.1604
 5846TIP3   OH239096   1.483   5.208   0.582  0.2061  0.0046  0.2566
 5846TIP3    H139097   1.456   5.215   0.674  0.3032 -0.7298  0.3455
 5846TIP3    H239098   1.569   5.250   0.580 -0.0103  0.4716  0.3920
 5847TIP3   OH239099   2.757   0.522   8.089  0.0040  0.2927  0.0004
 5847TIP3    H139100   2.675   0.498   8.047  0.0449  1.2413 -0.6519
 5847TIP3    H239101   2.824   0.496   8.026  0.1134  0.9618 -0.1662
 5848TIP3   OH239102   0.910   5.812   8.528  0.0757 -0.1336  0.5627
 5848TIP3    H139103   0.817   5.798   8.543 -0.4339  0.1813 -1.9609
 5848TIP3    H239104   0.952   5.784   8.610 -2.2059 -0.2092  1.7750
 5849TIP3   OH239105   2.132   5.324   0.493  0.0622 -0.3198  0.4212
 5849TIP3    H139106   2.045   5.348   0.526  0.5125  2.1091  0.0241
 5849TIP3    H239107   2.156   5.396   0.435  1.7090 -1.7057 -0.7264
 5850TIP3   OH239108   1.121   6.137   1.135 -0.1850 -0.2546  0.1538
 5850TIP3    H139109   1.086   6.133   1.046 -0.9279 -1.5939  0.4626
 5850TIP3    H239110   1.047   6.110   1.190  0.4085  0.0769  1.1304
 5851TIP3   OH239111   1.329   1.921   8.008 -0.1810  0.1133  0.0195
 5851TIP3    H139112   1.370   1.931   8.093 -0.7840 -1.2077  0.4895
 5851TIP3    H239113   1.287   1.835   8.011  0.5674 -0.3837 -1.9326
 5852TIP3   OH239114   1.024   6.385   7.064  0.3044 -0.3292  0.1978
 5852TIP3    H139115   0.973   6.394   6.983 -0.8260  0.4284  0.9712
 5852TIP3    H239116   1.111   6.357   7.034  0.2522  0.9936 -1.3887
 5853TIP3   OH239117   4.537   5.497   6.558  0.3370  0.4028  0.1127
 5853TIP3    H139118   4.561   5.407   6.579  1.5928  1.1772  2.2447
 5853TIP3    H239119   4.456   5.513   6.607  0.0963  0.4429 -0.2908
 5854TIP3   OH239120   4.165   0.232   1.039  0.1293  0.7327 -0.2516
 5854TIP3    H139121   4.094   0.175   1.069  0.0701 -0.1983 -2.0302
 5854TIP3    H239122   4.232   0.172   1.007  1.3976  1.6225  0.6330
 5855TIP3   OH239123   4.759   1.132   1.559 -0.1174 -0.0679  0.0194
 5855TIP3    H139124   4.815   1.203   1.590  1.1701 -0.8196 -0.4825
 5855TIP3    H239125   4.814   1.054   1.566 -0.9362 -0.7551 -0.9747
 5856TIP3   OH239126   2.027   3.209   0.760  0.6910  0.4987 -0.0225
 5856TIP3    H139127   2.022   3.259   0.678  0.7181  2.6392  1.2249
 5856TIP3    H239128   2.121   3.191   0.770  1.2208  3.3369  1.2154
 5857TIP3   OH239129   4.583   4.110   2.269 -0.2231 -0.1673  0.0939
 5857TIP3    H139130   4.659   4.056   2.290 -0.7097 -0.3489  1.4748
 5857TIP3    H239131   4.608   4.155   2.188  0.4451 -1.9345 -0.7299
 5858TIP3   OH239132   3.385   3.079   1.000  0.3612 -0.1327  0.0177
 5858TIP3    H139133   3.291   3.079   1.014  0.3815 -0.1839  0.1603
 5858TIP3    H239134   3.419   3.133   1.071  0.4461 -0.1816  0.0145
 5859TIP3   OH239135   4.087   1.910   8.101 -1.2434  0.4453  0.6271
 5859TIP3    H139136   4.056   1.932   8.189 -1.7721  0.3578  0.4601
 5859TIP3    H239137   4.027   1.955   8.042 -0.1346  1.5839  0.2997
 5860TIP3   OH239138   2.767   1.926   1.043 -0.1128 -0.1801  0.2949
 5860TIP3    H139139   2.743   1.858   1.106 -0.4081 -0.4215 -0.0733
 5860TIP3    H239140   2.861   1.937   1.055 -0.0225 -0.8199  0.1972
 5861TIP3   OH239141   0.488   4.567   6.709  0.5589  0.4619  0.2862
 5861TIP3    H139142   0.494   4.636   6.642  2.2013  0.9272  0.8643
 5861TIP3    H239143   0.452   4.611   6.786 -1.7312 -0.1682 -0.3540
 5862TIP3   OH239144   3.335   6.794   8.079 -1.0208 -0.1426 -0.3941
 5862TIP3    H139145   3.396   6.720   8.074 -1.7700 -0.9286  1.3888
 5862TIP3    H239146   3.264   6.769   8.019 -1.3326 -0.9531  0.2928
 5863TIP3   OH239147   3.078   1.724   7.517 -0.3265  0.8743  0.0225
 5863TIP3    H139148   3.065   1.720   7.422 -0.2344  0.6255  0.0196
 5863TIP3    H239149   2.992   1.747   7.553 -0.8194 -0.7925  0.0139
 5864TIP3   OH239150   6.483   0.779   0.876  0.3577 -0.2368  0.6863
 5864TIP3    H139151   6.475   0.689   0.909  0.1836 -0.6316 -0.3974
 5864TIP3    H239152   6.406   0.792   0.821  0.5057  0.4925  0.6428
 5865TIP3   OH239153   5.410   0.447   0.223  0.3040  0.0620  0.3445
 5865TIP3    H139154   5.414   0.366   0.273  0.2780 -1.2402 -1.6854
 5865TIP3    H239155   5.497   0.458   0.187 -0.1305  0.0252 -0.7488
 5866TIP3   OH239156   2.357   2.697   8.017 -0.1037 -0.1213  0.0539
 5866TIP3    H139157   2.295   2.631   8.047 -0.8860  0.1545 -0.9137
 5866TIP3    H239158   2.441   2.670   8.055 -0.6195 -1.0370  0.5806
 5867TIP3   OH239159   6.148   6.359   1.240 -0.0807 -0.2276 -0.3018
 5867TIP3    H139160   6.119   6.319   1.157 -1.1959  0.3819 -0.2228
 5867TIP3    H239161   6.075   6.343   1.300 -0.2155  1.2172 -0.0474
 5868TIP3   OH239162   0.781   2.822   8.473  0.5896  0.9718 -0.1809
 5868TIP3    H139163   0.778   2.817   8.569 -0.1617 -0.6592 -0.2536
 5868TIP3    H239164   0.790   2.915   8.454  1.9708  1.2432  1.4966
 5869TIP3   OH239165   6.082   1.256   7.239 -0.0593  0.0389 -0.1542
 5869TIP3    H139166   6.076   1.351   7.251  1.4266 -0.0890  2.2564
 5869TIP3    H239167   6.024   1.220   7.306 -0.2797 -0.7561 -0.7695
 5870TIP3   OH239168   3.821   0.011   0.326  0.5302  0.3139 -0.3389
 5870TIP3    H139169   3.901   0.063   0.336  0.3784  1.0103 -2.3066
 5870TIP3    H239170   3.757   0.055   0.381  0.7761  1.4165 -0.9074
 5871TIP3   OH239171   3.927   6.484   6.319  0.0031  0.3501 -0.0033
 5871TIP3    H139172   4.012   6.439   6.315 -0.3845 -0.3650 -0.2464
 5871TIP3    H239173   3.863   6.414   6.319 -0.6118  0.9076 -0.2860
 5872TIP3   OH239174   4.460   0.692   2.468 -0.3209 -0.1051  0.2253
 5872TIP3    H139175   4.398   0.744   2.416 -0.2694  0.7910  1.0442
 5872TIP3    H239176   4.546   0.716   2.434 -0.1899  1.5160  1.5824
 5873TIP3   OH239177   4.832   1.722   6.558  0.5995 -0.3144  0.3748
 5873TIP3    H139178   4.865   1.778   6.628  2.0514  0.3021 -0.7470
 5873TIP3    H239179   4.880   1.750   6.480  0.1950 -2.0436 -0.5546
 5874TIP3   OH239180   0.287   5.977   6.390 -0.5032  0.0362  0.0261
 5874TIP3    H139181   0.221   6.007   6.452 -0.1083  0.1641  0.3817
 5874TIP3    H239182   0.297   6.049   6.328 -0.5060  0.1178  0.1216
 5875TIP3   OH239183   3.179   4.336   1.123  0.4015  0.5793  0.2497
 5875TIP3    H139184   3.136   4.419   1.140  2.3339  1.8079 -0.4258
 5875TIP3    H239185   3.202   4.340   1.030  0.9785 -0.4853  0.3251
 5876TIP3   OH239186   6.846   1.186   7.140 -0.5997  0.0490 -0.0836
 5876TIP3    H139187   6.762   1.207   7.181 -0.0797  1.1928  0.4226
 5876TIP3    H239188   6.845   1.236   7.058 -0.0876  0.7047  0.3020
 5877TIP3   OH239189   4.959   0.461   0.444 -0.2290  0.8751  0.4055
 5877TIP3    H139190   5.037   0.517   0.447 -0.5811  1.5001 -1.1492
 5877TIP3    H239191   4.993   0.373   0.459  0.5347  1.3128  1.4171
 5878TIP3   OH239192   2.464   2.391   0.433  0.0366  0.0184  0.0923
 5878TIP3    H139193   2.530   2.394   0.364 -1.0208 -0.2206 -0.9581
 5878TIP3    H239194   2.444   2.483   0.450 -0.2875  0.0576 -0.4998
 5879TIP3   OH239195   1.495   2.305   6.203  0.8839  0.1712  0.1455
 5879TIP3    H139196   1.502   2.229   6.146 -3.5403  0.8054 -1.6590
 5879TIP3    H239197   1.503   2.381   6.145  1.9096  1.0409  1.3513
 5880TIP3   OH239198   0.227   5.453   0.431 -0.2300 -0.7584  0.2966
 5880TIP3    H139199   0.206   5.540   0.397  0.2635 -0.3627  0.9783
 5880TIP3    H239200   0.322   5.449   0.429 -0.1041 -0.3674  2.3955
 5881TIP3   OH239201   4.095   2.096   7.335  0.7581 -0.1892  0.0558
 5881TIP3    H139202   4.015   2.055   7.302 -0.9118  0.8488  2.5476
 5881TIP3    H239203   4.135   2.029   7.390 -0.7596  0.6405  2.2809
 5882TIP3   OH239204   1.023   3.414   0.786 -0.5680 -0.1784  0.1827
 5882TIP3    H139205   1.048   3.505   0.804  0.5983 -0.7018  1.4203
 5882TIP3    H239206   0.935   3.420   0.750 -0.2728  1.4858 -0.3933
 5883TIP3   OH239207   6.747   1.222   7.769 -0.2918  0.0848 -0.7069
 5883TIP3    H139208   6.667   1.195   7.724  0.0904  1.1004 -2.0702
 5883TIP3    H239209   6.802   1.143   7.770 -0.8681 -0.3240 -0.7419
 5884TIP3   OH239210   0.972   3.337   6.554 -0.0631 -0.1529 -0.5274
 5884TIP3    H139211   0.930   3.316   6.470 -0.0731  0.6487 -0.7295
 5884TIP3    H239212   1.059   3.299   6.547  0.6400  1.5301 -1.6991
 5885TIP3   OH239213   6.099   2.790   0.385 -0.0392  0.4913 -0.4266
 5885TIP3    H139214   6.153   2.869   0.380  0.6545  0.0040 -0.7168
 5885TIP3    H239215   6.161   2.718   0.374 -0.3495 -0.1850  1.7239
 5886TIP3   OH239216   6.501   1.142   7.672  0.3977  0.0025 -0.6585
 5886TIP3    H139217   6.410   1.155   7.645  0.1633 -0.1765  0.0479
 5886TIP3    H239218   6.517   1.049   7.657  0.6967  0.1714 -1.4647
 5887TIP3   OH239219   6.758   0.972   2.170  0.0013  0.0997  0.6058
 5887TIP3    H139220   6.754   1.007   2.258  1.4848  0.2874  0.6276
 5887TIP3    H239221   6.684   0.912   2.164 -0.2295  0.2361  1.9011
 5888TIP3   OH239222   4.854   4.729   7.507 -0.6822 -0.0313  0.0034
 5888TIP3    H139223   4.906   4.807   7.524  2.5556 -2.0387  0.2440
 5888TIP3    H239224   4.813   4.709   7.591  0.4759  0.0768  0.6122
 5889TIP3   OH239225   0.921   0.374   0.831 -0.2851 -0.3996 -0.2064
 5889TIP3    H139226   0.852   0.438   0.812  0.1317 -0.1465 -0.8954
 5889TIP3    H239227   0.879   0.289   0.821  0.1590 -0.3429 -3.5000
 5890TIP3   OH239228   2.474   1.679   0.523  0.1456 -0.2102  0.4378
 5890TIP3    H139229   2.387   1.717   0.534  0.6147  0.3187  2.8703
 5890TIP3    H239230   2.528   1.722   0.588  1.8007 -1.8740  0.2666
 5891TIP3   OH239231   6.682   6.783   6.129  0.3931  0.2130  0.0282
 5891TIP3    H139232   6.677   6.782   6.033 -3.3397  1.0023  0.0590
 5891TIP3    H239233   6.702   6.693   6.153  0.8890 -0.1073 -1.4679
 5892TIP3   OH239234   2.743   1.503   7.669  0.3962  0.1255  0.2037
 5892TIP3    H139235   2.773   1.435   7.729  0.9363  0.5468  0.4192
 5892TIP3    H239236   2.650   1.514   7.688  0.3920 -0.2927  0.4194
 5893TIP3   OH239237   2.410   0.190   7.868  0.1219  0.1453  0.2125
 5893TIP3    H139238   2.430   0.125   7.802  0.1254 -0.7154  1.0417
 5893TIP3    H239239   2.400   0.140   7.949 -1.3296  0.9946  0.6044
 5894TIP3   OH239240   4.551   1.872   1.376 -0.2173  0.2556 -1.0650
 5894TIP3    H139241   4.487   1.844   1.441  1.4601 -0.0016  0.5740
 5894TIP3    H239242   4.572   1.793   1.326  2.5674 -1.0526  1.8264
 5895TIP3   OH239243   5.185   3.141   0.694  0.4201  0.2547  0.9435
 5895TIP3    H139244   5.109   3.131   0.637  2.7267 -0.9837 -2.2088
 5895TIP3    H239245   5.177   3.071   0.759 -1.9857  1.3384  1.9354
 5896TIP3   OH239246   2.455   2.038   1.634 -0.2755 -0.0844  0.3792
 5896TIP3    H139247   2.424   2.047   1.724  0.4465  3.1927  0.4235
 5896TIP3    H239248   2.543   2.001   1.643  0.3346  1.4489  1.2077
 5897TIP3   OH239249   2.322   5.889   1.254  0.4245 -0.2654 -0.3277
 5897TIP3    H139250   2.290   5.961   1.308  3.5926  0.5374  0.6642
 5897TIP3    H239251   2.395   5.926   1.205 -0.0659 -1.9525 -2.4950
 5898TIP3   OH239252   1.554   1.634   1.692  0.4643  0.0500  0.2277
 5898TIP3    H139253   1.564   1.565   1.757 -1.1517 -2.4846 -1.9915
 5898TIP3    H239254   1.464   1.664   1.703  0.3260 -0.0740 -0.5462
 5899TIP3   OH239255   1.246   2.135   8.274  0.2399 -0.1994  0.0776
 5899TIP3    H139256   1.333   2.156   8.310  0.4426  0.1791 -0.6238
 5899TIP3    H239257   1.206   2.221   8.259 -1.6635 -0.2658  3.6632
 5900TIP3   OH239258   1.651   1.218   0.791 -0.4992  0.0390 -0.1684
 5900TIP3    H139259   1.610   1.205   0.876  0.7619 -0.3450  0.3985
 5900TIP3    H239260   1.731   1.268   0.810  0.4511 -1.1118 -0.9346
 5901TIP3   OH239261   3.614   6.366   8.375 -0.2203 -0.2867  0.1427
 5901TIP3    H139262   3.692   6.409   8.410 -0.8221  0.4606  0.6024
 5901TIP3    H239263   3.542   6.400   8.428 -0.9165 -0.6556 -0.5400
 5902TIP3   OH239264   2.974   2.379   1.344  0.3721 -0.3278  0.4903
 5902TIP3    H139265   2.912   2.337   1.284 -1.8114  0.8834  1.7769
 5902TIP3    H239266   2.987   2.314   1.413 -2.4458  0.6648  2.1106
 5903TIP3   OH239267   2.759   1.795   6.585  0.7887 -0.3089 -1.0901
 5903TIP3    H139268   2.792   1.723   6.637 -2.1027 -1.7932 -1.0814
 5903TIP3    H239269   2.725   1.858   6.649 -1.2432 -1.3587 -1.0557
 5904TIP3   OH239270   4.862   5.445   1.367 -0.3183 -0.0934 -0.2296
 5904TIP3    H139271   4.952   5.440   1.337 -0.1444 -0.3517  0.3366
 5904TIP3    H239272   4.832   5.354   1.370 -0.2997 -0.0763  0.4824
 5905TIP3   OH239273   1.395   6.613   8.239 -0.2724 -0.0163 -0.2923
 5905TIP3    H139274   1.369   6.530   8.199 -0.8170  0.3562 -0.7176
 5905TIP3    H239275   1.465   6.589   8.300 -0.5851 -0.8174 -0.2389
 5906TIP3   OH239276   3.540   2.769   6.414 -0.1755  0.3284 -0.1057
 5906TIP3    H139277   3.527   2.717   6.335  1.1318  0.0418 -0.1519
 5906TIP3    H239278   3.452   2.793   6.442 -0.6512  1.1897 -2.1492
 5907TIP3   OH239279   3.941   0.388   7.666 -0.6163  0.2270  0.1473
 5907TIP3    H139280   4.011   0.437   7.708 -1.4669  3.2458 -1.6429
 5907TIP3    H239281   3.983   0.309   7.633  1.5053  1.0513  0.7386
 5908TIP3   OH239282   3.901   4.302   7.581 -0.0815 -0.0320  0.0338
 5908TIP3    H139283   3.958   4.332   7.510  0.7966  0.9327  1.0917
 5908TIP3    H239284   3.815   4.340   7.561 -0.4966 -1.7313 -1.7250
 5909TIP3   OH239285   3.585   0.181   8.505  0.2010 -0.0046  0.1179
 5909TIP3    H139286   3.584   0.217   8.594 -2.2497  0.6331 -0.1016
 5909TIP3    H239287   3.655   0.115   8.507 -1.7112 -2.2103  3.4715
 5910TIP3   OH239288   5.389   5.833   1.972  0.2524  0.1053 -0.2146
 5910TIP3    H139289   5.429   5.761   2.021  0.9022 -0.1334 -1.0752
 5910TIP3    H239290   5.415   5.817   1.881  0.8308  1.7018 -0.3508
 5911TIP3   OH239291   1.256   4.722   0.927 -0.6150 -0.1090  0.0781
 5911TIP3    H139292   1.173   4.702   0.884 -1.1356  0.3928  0.8296
 5911TIP3    H239293   1.236   4.719   1.021  0.1547  0.2721  0.2641
 5912TIP3   OH239294   1.852   0.434   2.002  0.5050  0.1808  0.3054
 5912TIP3    H139295   1.916   0.504   1.990  0.8679  0.0119  1.1898
 5912TIP3    H239296   1.836   0.432   2.096 -0.0161 -0.4823  0.2105
 5913TIP3   OH239297   6.277   0.793   0.711  1.2644  0.0465 -0.7176
 5913TIP3    H139298   6.291   0.729   0.640 -0.9852 -2.4610  0.8755
 5913TIP3    H239299   6.184   0.785   0.732  1.6172  1.4686  1.8108
 5914TIP3   OH239300   1.280   2.209   6.344  0.0656 -0.1617  0.3082
 5914TIP3    H139301   1.361   2.236   6.301 -0.5262 -2.7946 -2.8947
 5914TIP3    H239302   1.212   2.258   6.298 -0.4909 -2.0686 -1.0113
 5915TIP3   OH239303   0.979   1.807   1.726  0.2341  0.0412 -0.7537
 5915TIP3    H139304   1.049   1.867   1.700  1.4344 -0.5015  1.0436
 5915TIP3    H239305   0.973   1.817   1.821  0.0483 -2.2213 -0.4797
 5916TIP3   OH239306   6.386   5.432   8.272  0.5007 -0.0421  0.2320
 5916TIP3    H139307   6.368   5.352   8.322 -0.1540 -0.3155 -0.4249
 5916TIP3    H239308   6.414   5.400   8.186  0.6696  0.4353  0.1112
 5917TIP3   OH239309   5.171   5.807   2.148 -0.9548  0.0631  0.9007
 5917TIP3    H139310   5.221   5.765   2.218  0.5621  1.9444  1.0327
 5917TIP3    H239311   5.235   5.819   2.077 -1.2406  2.2929  0.9628
 5918TIP3   OH239312   4.312   4.820   7.882 -0.0947  0.0948 -0.4326
 5918TIP3    H139313   4.381   4.816   7.948 -1.6149  1.3817  1.3640
 5918TIP3    H239314   4.275   4.732   7.880 -0.1952  0.0923  0.6913
 5919TIP3   OH239315   2.633   6.399   1.866  0.2332  0.1278 -0.3743
 5919TIP3    H139316   2.556   6.347   1.842  0.6683 -0.7225  0.0247
 5919TIP3    H239317   2.639   6.466   1.799 -1.6526  1.0620  0.3156
 5920TIP3   OH239318   5.679   2.484   1.107 -0.0816  0.0091 -0.1572
 5920TIP3    H139319   5.723   2.431   1.041 -2.1600 -2.3668  0.2033
 5920TIP3    H239320   5.617   2.538   1.058 -0.5865 -0.6767 -0.2919
 5921TIP3   OH239321   5.388   4.715   0.424  0.2167  0.3915 -0.3543
 5921TIP3    H139322   5.453   4.646   0.438  0.0535  0.3643  0.3019
 5921TIP3    H239323   5.431   4.777   0.365  1.8936  1.7092  2.0645
 5922TIP3   OH239324   0.938   2.665   0.163  0.2583  0.1927  0.4858
 5922TIP3    H139325   0.996   2.724   0.213  0.1265  0.7840 -0.0408
 5922TIP3    H239326   0.888   2.724   0.107  0.4877 -0.4612 -0.4271
 5923TIP3   OH239327   4.720   5.369   1.669 -0.1071 -0.5741  0.2521
 5923TIP3    H139328   4.747   5.441   1.726  2.1506 -0.8560 -0.3828
 5923TIP3    H239329   4.797   5.312   1.664 -1.1224 -1.8958 -1.0026
 5924TIP3   OH239330   1.681   0.507   6.677  0.3424 -0.7696 -0.4176
 5924TIP3    H139331   1.629   0.427   6.688 -1.8480  0.4970 -1.0973
 5924TIP3    H239332   1.727   0.517   6.760 -0.9904 -1.6092  0.4600
 5925TIP3   OH239333   3.447   4.083   7.833 -0.0346  0.3369  0.2356
 5925TIP3    H139334   3.451   4.042   7.746  0.6662 -0.9870  0.8789
 5925TIP3    H239335   3.470   4.014   7.894  3.2181  2.1229  1.2578
 5926TIP3   OH239336   6.524   5.600   6.636 -0.1767  0.1344  0.5255
 5926TIP3    H139337   6.582   5.593   6.559 -0.1960 -0.3987  0.5611
 5926TIP3    H239338   6.496   5.511   6.653 -1.3207  0.4373  0.2821
 5927TIP3   OH239339   0.941   2.922   1.635 -0.1674  0.6401  0.1528
 5927TIP3    H139340   0.879   2.868   1.584  0.3261 -0.2580  0.4807
 5927TIP3    H239341   0.905   3.011   1.630  0.6680  0.9341 -3.1118
 5928TIP3   OH239342   2.269   2.713   0.272 -0.6973 -0.3470  0.4729
 5928TIP3    H139343   2.279   2.645   0.206  0.2755  0.7421 -0.5567
 5928TIP3    H239344   2.225   2.670   0.345 -0.9147 -1.8321 -0.4989
 5929TIP3   OH239345   3.739   0.606   8.461  0.6252 -0.0005  0.2223
 5929TIP3    H139346   3.651   0.571   8.448  0.8387  0.1348 -1.8690
 5929TIP3    H239347   3.725   0.698   8.482  0.2495 -0.1151  0.4848
 5930TIP3   OH239348   6.737   6.188   0.614 -0.3358  0.2113 -0.0103
 5930TIP3    H139349   6.718   6.235   0.533  0.3404  0.5571  0.0225
 5930TIP3    H239350   6.717   6.096   0.595 -0.7274  0.3728 -0.3833
 5931TIP3   OH239351   3.217   3.878   8.512  0.1565  0.3393  0.1112
 5931TIP3    H139352   3.295   3.825   8.530  1.1698  0.9320 -2.1466
 5931TIP3    H239353   3.220   3.947   8.578  0.4859 -0.6998  1.2224
 5932TIP3   OH239354   1.266   1.626   8.510 -0.1375  0.7223  0.8106
 5932TIP3    H139355   1.330   1.686   8.472  0.4334 -0.2130  0.2480
 5932TIP3    H239356   1.198   1.683   8.547 -0.4293  1.6924 -1.0950
 5933TIP3   OH239357   5.780   0.959   7.433 -0.7122  0.1913 -0.0026
 5933TIP3    H139358   5.808   0.878   7.390  0.6451  0.8724 -0.4589
 5933TIP3    H239359   5.730   0.930   7.510  1.4662 -1.1110  0.9917
 5934TIP3   OH239360   5.561   5.662   2.096  0.3245 -0.1277 -0.2361
 5934TIP3    H139361   5.503   5.611   2.153 -2.1526  1.4047 -1.2253
 5934TIP3    H239362   5.585   5.600   2.026 -1.5498 -0.3966 -0.7114
 5935TIP3   OH239363   2.545   5.653   7.754 -0.1704 -0.0016  0.2822
 5935TIP3    H139364   2.470   5.694   7.797 -0.5450  0.9432 -1.2075
 5935TIP3    H239365   2.618   5.669   7.814 -0.7901  0.7313  0.8695
 5936TIP3   OH239366   0.044   3.883   0.380  0.3227  0.4175  0.6931
 5936TIP3    H139367   0.019   3.912   0.467 -0.0924 -0.5688  0.9123
 5936TIP3    H239368   0.140   3.875   0.384  0.4858  2.0261  0.5236
 5937TIP3   OH239369   4.827   5.217   7.433 -0.0530 -0.7685  0.0005
 5937TIP3    H139370   4.788   5.150   7.489 -1.2317 -0.1705 -0.0822
 5937TIP3    H239371   4.845   5.290   7.492  0.0708 -0.6924 -0.1306
 5938TIP3   OH239372   6.759   5.615   8.441  0.2440 -0.4986  0.4095
 5938TIP3    H139373   6.670   5.626   8.407  0.8222  1.3770 -0.6417
 5938TIP3    H239374   6.752   5.640   8.533 -0.4037 -0.7972  0.4461
 5939TIP3   OH239375   6.869   0.054   1.210 -0.9026  0.0034  0.5431
 5939TIP3    H139376   6.893   0.080   1.299  1.4576 -2.5430  0.7812
 5939TIP3    H239377   6.816  -0.025   1.221  0.9798 -1.4385 -0.2724
 5940TIP3   OH239378   0.780   4.057   1.617  0.2655  0.2185  0.5625
 5940TIP3    H139379   0.767   3.975   1.570  0.7269  0.8759 -0.7427
 5940TIP3    H239380   0.743   4.040   1.704  0.0444 -1.2504  0.2131
 5941TIP3   OH239381   0.416   1.130   7.636 -0.1926  0.4004  0.0707
 5941TIP3    H139382   0.329   1.144   7.674 -1.5266 -1.7171 -1.9640
 5941TIP3    H239383   0.458   1.070   7.697 -0.3670  0.9438  0.7465
 5942TIP3   OH239384   3.314   1.656   8.005 -0.0073 -0.3593  0.2303
 5942TIP3    H139385   3.282   1.645   7.915 -0.2024 -0.4455  0.3115
 5942TIP3    H239386   3.336   1.749   8.010  2.6100 -0.8303 -0.7782
 5943TIP3   OH239387   1.896   3.093   0.982  0.5739 -0.2734  0.1003
 5943TIP3    H139388   1.912   3.140   1.063  0.7212 -0.7675  0.3629
 5943TIP3    H239389   1.918   3.155   0.913 -2.7889  1.4050  0.3249
 5944TIP3   OH239390   6.057   5.902   6.457  0.6237  0.0855  0.1982
 5944TIP3    H139391   6.100   5.976   6.501 -0.8878  0.2955  1.3989
 5944TIP3    H239392   6.043   5.932   6.368  0.2388  1.1843  0.6128
 5945TIP3   OH239393   2.547   2.038   0.433 -0.5062 -0.8380  0.1883
 5945TIP3    H139394   2.588   2.087   0.504  0.3239 -1.7716  0.3784
 5945TIP3    H239395   2.591   1.953   0.434 -0.4052 -0.8381 -1.5222
 5946TIP3   OH239396   0.604   0.856   0.512  0.1005 -0.2903  0.0703
 5946TIP3    H139397   0.654   0.888   0.437  0.0503  0.3506  0.3066
 5946TIP3    H239398   0.670   0.836   0.578  0.0625  0.3733  0.3137
 5947TIP3   OH239399   3.116   1.295   0.963 -0.6730  0.3161  0.0743
 5947TIP3    H139400   3.101   1.206   0.932  1.4762  0.3106 -1.1177
 5947TIP3    H239401   3.162   1.283   1.046  0.4523  0.2871 -0.5405
 5948TIP3   OH239402   4.726   1.687   7.178  0.2230  0.0284  0.2172
 5948TIP3    H139403   4.798   1.718   7.232  0.9334 -0.3284 -0.5149
 5948TIP3    H239404   4.688   1.766   7.139 -1.3095  0.4744  2.4248
 5949TIP3   OH239405   0.369   4.651   1.749 -0.4198 -0.3843  0.2467
 5949TIP3    H139406   0.460   4.639   1.722 -0.0315  1.8508  0.3632
 5949TIP3    H239407   0.354   4.581   1.813  0.6918 -1.7478 -0.9139
 5950TIP3   OH239408   6.654   3.274   2.177 -0.3597 -0.1772 -0.6601
 5950TIP3    H139409   6.679   3.202   2.120  0.5228 -1.2796  1.0368
 5950TIP3    H239410   6.735   3.325   2.187 -0.1198 -0.7558  0.6174
 5951TIP3   OH239411   5.565   1.270   7.642 -0.0822 -0.0268 -0.0883
 5951TIP3    H139412   5.637   1.326   7.671  0.6684 -0.3899 -1.1777
 5951TIP3    H239413   5.608   1.190   7.612 -1.0898 -0.9742  0.9026
 5952TIP3   OH239414   3.354   0.926   1.405 -0.8664 -0.5554  0.7423
 5952TIP3    H139415   3.324   0.973   1.327 -0.8060 -2.3689 -0.4239
 5952TIP3    H239416   3.381   0.841   1.373 -1.2268 -1.5174  2.8188
 5953TIP3   OH239417   1.678   3.999   0.724 -0.3766  0.3882 -0.1872
 5953TIP3    H139418   1.648   4.033   0.640  2.6080  2.0844 -0.7217
 5953TIP3    H239419   1.598   3.972   0.770 -2.4679  2.9712 -2.0239
 5954TIP3   OH239420   0.370   4.452   1.432  0.4777  0.0225 -0.0233
 5954TIP3    H139421   0.293   4.395   1.430 -0.5807  1.3020  1.4808
 5954TIP3    H239422   0.405   4.441   1.520  0.9155  0.8370 -0.0875
 5955TIP3   OH239423   5.335   5.330   1.169  0.1097  0.2470  0.3426
 5955TIP3    H139424   5.356   5.366   1.082 -2.5238  1.9947  0.3179
 5955TIP3    H239425   5.308   5.240   1.151 -0.1824  0.5148 -0.6276
 5956TIP3   OH239426   4.593   3.392   1.405  0.6676  0.0960  0.3602
 5956TIP3    H139427   4.668   3.410   1.349  1.1318  1.7599  1.4463
 5956TIP3    H239428   4.575   3.475   1.448 -1.3047 -0.4682  0.7406
 5957TIP3   OH239429   1.118   2.864   0.214 -0.0119  0.3706 -0.0875
 5957TIP3    H139430   1.174   2.806   0.163  0.5073 -0.5545  1.4444
 5957TIP3    H239431   1.143   2.952   0.186  1.5811 -0.0525 -0.1178
 5958TIP3   OH239432   1.425   0.043   0.407  0.0751  0.1338  0.1165
 5958TIP3    H139433   1.478   0.043   0.328  1.7460 -0.4064  1.1922
 5958TIP3    H239434   1.343   0.001   0.381  1.2865 -1.7311 -0.8825
 5959TIP3   OH239435   1.463   5.816   1.179  0.3594  0.2210 -0.1448
 5959TIP3    H139436   1.372   5.833   1.205  0.1649  1.2116 -1.3739
 5959TIP3    H239437   1.515   5.873   1.236  0.3508 -1.2990  1.4652
 5960TIP3   OH239438   6.222   5.846   0.758 -0.5074 -0.2209 -0.1673
 5960TIP3    H139439   6.251   5.807   0.676  2.5590 -0.4428  0.8918
 5960TIP3    H239440   6.258   5.789   0.826 -1.0390  1.1566  1.3387
 5961TIP3   OH239441   2.222   2.790   0.736 -0.1107  0.2703 -0.2490
 5961TIP3    H139442   2.288   2.859   0.731 -2.6691  2.8725 -0.9405
 5961TIP3    H239443   2.182   2.789   0.649 -2.5807  0.6164  0.7910
 5962TIP3   OH239444   1.677   4.596   0.428  0.2623 -0.7262 -0.1533
 5962TIP3    H139445   1.757   4.616   0.477 -0.4556  0.6438  0.4958
 5962TIP3    H239446   1.606   4.615   0.489 -0.7591  2.8015 -2.2018
 5963TIP3   OH239447   3.302   0.649   7.478 -0.3504 -0.1411  0.2112
 5963TIP3    H139448   3.347   0.662   7.395 -0.3803  1.4955  0.4243
 5963TIP3    H239449   3.351   0.578   7.521  1.5829  1.0320  0.0918
 5964TIP3   OH239450   5.586   3.462   8.610  0.4965 -0.2449  0.5388
 5964TIP3    H139451   5.584   3.527   8.540  2.1140  0.2644  0.9317
 5964TIP3    H239452   5.559   3.509   8.688  0.8621 -0.2454  0.6679
 5965TIP3   OH239453   6.198   2.498   7.249 -0.3480  0.1573 -0.0328
 5965TIP3    H139454   6.108   2.465   7.244 -0.2367 -0.1236 -0.2504
 5965TIP3    H239455   6.235   2.478   7.163  0.0664 -0.1584  0.2146
 5966TIP3   OH239456   6.382   6.411   8.564 -0.6703  0.7413  0.0076
 5966TIP3    H139457   6.332   6.490   8.541 -1.4182  0.2990  0.0709
 5966TIP3    H239458   6.432   6.390   8.485 -0.9906  0.8914 -0.2355
 5967TIP3   OH239459   3.972   0.460   1.215 -0.8836 -0.5239 -0.4340
 5967TIP3    H139460   4.007   0.509   1.289 -1.6120  1.1274 -1.1305
 5967TIP3    H239461   3.991   0.369   1.236  0.1068 -0.0044  1.1415
 5968TIP3   OH239462   6.553   5.070   0.216 -0.0896  0.1207 -0.0021
 5968TIP3    H139463   6.471   5.037   0.182 -0.0266 -0.2227  0.1791
 5968TIP3    H239464   6.596   4.994   0.256 -0.3102  0.5670  1.1423
 5969TIP3   OH239465   4.418   3.115   1.469 -0.1557 -0.0738  0.2299
 5969TIP3    H139466   4.413   3.020   1.459 -0.0163 -0.0420 -0.1610
 5969TIP3    H239467   4.364   3.134   1.545 -0.9703 -0.3644 -0.2626
 5970TIP3   OH239468   0.160   1.239   7.307  0.0400 -0.1091 -0.4043
 5970TIP3    H139469   0.203   1.283   7.234 -0.3549  2.1730  0.6447
 5970TIP3    H239470   0.078   1.206   7.271  1.1305 -1.6181 -1.6420
 5971TIP3   OH239471   6.215   2.977   8.321 -0.9437 -0.6313  0.5331
 5971TIP3    H139472   6.125   3.010   8.322 -2.0433 -3.2004 -1.8061
 5971TIP3    H239473   6.218   2.914   8.393 -1.1916 -0.9079  0.3048
 5972TIP3   OH239474   2.112   1.064   6.576  0.1270 -0.0236  0.3159
 5972TIP3    H139475   2.087   1.074   6.485  0.6842 -1.2064  0.0082
 5972TIP3    H239476   2.066   0.984   6.605  0.1890  0.1707  0.9822
 5973TIP3   OH239477   6.089   6.725   7.003  0.3005  0.6580  0.6583
 5973TIP3    H139478   6.178   6.724   7.038  0.8257 -2.4479 -0.4712
 5973TIP3    H239479   6.102   6.728   6.908 -0.9316  2.6545  0.4989
 5974TIP3   OH239480   6.275   5.811   6.675 -0.1033  0.3686 -0.4061
 5974TIP3    H139481   6.262   5.899   6.638 -0.9905  0.3127 -0.2345
 5974TIP3    H239482   6.353   5.778   6.630  0.4629  1.3789 -0.2233
 5975TIP3   OH239483   4.842   0.289   8.390  0.3182 -0.0404 -0.1145
 5975TIP3    H139484   4.927   0.290   8.434 -0.4818 -0.3245  1.5063
 5975TIP3    H239485   4.860   0.249   8.304  1.8688  0.2374  0.0513
 5976TIP3   OH239486   3.212   0.446   7.848  0.4839  0.2417 -0.2936
 5976TIP3    H139487   3.306   0.467   7.847  0.5843 -0.1280  0.6070
 5976TIP3    H239488   3.170   0.520   7.805  1.2946 -0.1660 -1.8917
 5977TIP3   OH239489   5.151   4.941   8.317 -0.1220 -0.1838 -0.1766
 5977TIP3    H139490   5.196   4.857   8.321 -0.3028 -0.3208 -0.8573
 5977TIP3    H239491   5.059   4.921   8.332 -0.3792 -0.3185 -1.7788
 5978TIP3   OH239492   2.383   4.811   0.273 -0.0008 -0.0184  0.5808
 5978TIP3    H139493   2.380   4.719   0.300  0.6901  0.3222  1.9291
 5978TIP3    H239494   2.295   4.845   0.293  0.1119 -0.0965  1.2404
 5979TIP3   OH239495   1.662   1.578   6.884 -0.0723  0.4743  0.4036
 5979TIP3    H139496   1.700   1.528   6.812 -0.4669 -1.3187  1.3836
 5979TIP3    H239497   1.732   1.637   6.912  1.1179 -0.9035  0.4528
 5980TIP3   OH239498   0.506   5.741   6.226 -0.1111  0.2159  0.2980
 5980TIP3    H139499   0.591   5.746   6.269  0.1116 -0.7472 -0.0086
 5980TIP3    H239500   0.513   5.666   6.167 -1.0254  0.3994 -0.0629
 5981TIP3   OH239501   3.462   1.517   1.134 -0.6719  0.4462 -0.6195
 5981TIP3    H139502   3.451   1.439   1.079 -0.7685 -0.5252  0.7098
 5981TIP3    H239503   3.521   1.574   1.084 -0.3843 -0.5918 -1.5140
 5982TIP3   OH239504   2.616   4.944   7.214 -0.2734  0.1874  0.1054
 5982TIP3    H139505   2.642   5.036   7.210  0.6595 -0.0610  0.3097
 5982TIP3    H239506   2.645   4.915   7.301  0.1636 -0.5117 -0.2663
 5983TIP3   OH239507   2.411   5.048   1.287  0.1792  0.3932 -0.3059
 5983TIP3    H139508   2.355   5.110   1.241 -0.9399 -0.9421 -0.8377
 5983TIP3    H239509   2.434   4.983   1.220 -0.4255 -0.8914  0.6893
 5984TIP3   OH239510   6.483   1.328   1.551 -0.6019  0.0533  0.2269
 5984TIP3    H139511   6.438   1.412   1.562 -0.8642 -0.0510 -0.0355
 5984TIP3    H239512   6.416   1.271   1.514  0.1711  0.3206 -1.6663
 5985TIP3   OH239513   6.477   6.728   0.161  0.0435 -0.1975 -0.2604
 5985TIP3    H139514   6.413   6.662   0.189 -1.0636  1.5002  1.5308
 5985TIP3    H239515   6.476   6.793   0.231  0.0825  2.4151 -2.5086
 5986TIP3   OH239516   1.151   0.461   0.700  0.3116  0.5953  0.3965
 5986TIP3    H139517   1.227   0.443   0.755  0.3805  0.1018  0.1376
 5986TIP3    H239518   1.080   0.411   0.741  0.2179  0.7219  0.3916
 5987TIP3   OH239519   5.793   5.656   0.146 -0.2516  0.0324  0.6534
 5987TIP3    H139520   5.725   5.714   0.113  0.4394  0.2748 -0.4091
 5987TIP3    H239521   5.829   5.615   0.068  1.6659  0.8548  1.0587
 5988TIP3   OH239522   1.457   3.940   0.854  0.2685  0.5206  0.1120
 5988TIP3    H139523   1.432   3.922   0.944 -0.4912  0.5911 -0.0756
 5988TIP3    H239524   1.394   4.007   0.825  0.2966  0.2581 -0.5691
 5989TIP3   OH239525   2.479   6.781   0.647  0.0549 -0.0958 -0.2182
 5989TIP3    H139526   2.492   6.856   0.705  0.4012 -1.3014  1.3182
 5989TIP3    H239527   2.525   6.806   0.567  2.3605  0.3638  1.1342
 5990TIP3   OH239528   4.798   1.032   8.032  0.5891 -0.3864  0.3341
 5990TIP3    H139529   4.850   1.098   8.077  0.5752  1.8347 -2.6255
 5990TIP3    H239530   4.707   1.055   8.053  0.6165 -0.3157  0.3739
 5991TIP3   OH239531   0.374   6.282   0.352  0.1893  0.3844 -0.3743
 5991TIP3    H139532   0.306   6.217   0.336  0.3189  0.1225  0.1245
 5991TIP3    H239533   0.334   6.365   0.327 -0.4461  0.2824  0.2813
 5992TIP3   OH239534   1.608   1.423   6.094 -0.0638 -0.0582 -0.1128
 5992TIP3    H139535   1.694   1.388   6.116 -0.1032 -0.0004  0.1438
 5992TIP3    H239536   1.555   1.405   6.172 -0.5139 -0.8591 -0.5840
 5993TIP3   OH239537   2.560   4.278   1.487  0.4261  0.0241 -0.8361
 5993TIP3    H139538   2.610   4.200   1.462  1.5848  0.3995  0.1897
 5993TIP3    H239539   2.618   4.325   1.546  0.1551  2.1750 -2.1726
 5994TIP3   OH239540   1.660   1.850   0.526  0.4019  0.0793  0.1864
 5994TIP3    H139541   1.679   1.798   0.448  2.9035  2.4888 -0.9957
 5994TIP3    H239542   1.746   1.875   0.560 -0.5822  3.4910  0.5374
 5995TIP3   OH239543   2.533   4.337   7.675  0.1535  0.1428 -0.1278
 5995TIP3    H139544   2.537   4.287   7.757 -2.5547  1.1744  0.7660
 5995TIP3    H239545   2.485   4.281   7.615 -0.8048  0.6776  0.1153
 5996TIP3   OH239546   3.703   1.259   1.130 -0.3001  0.3505 -0.2931
 5996TIP3    H139547   3.637   1.308   1.179  0.6519  0.3402  1.0862
 5996TIP3    H239548   3.768   1.236   1.196  0.5485 -0.5542 -1.4119
 5997TIP3   OH239549   6.333   1.883   7.907 -0.0150  0.0339 -0.5287
 5997TIP3    H139550   6.414   1.898   7.956  0.3723  1.5226 -1.5301
 5997TIP3    H239551   6.274   1.952   7.936 -1.0131 -1.1410  0.3116
 5998TIP3   OH239552   1.140   2.703   1.582  0.2121 -0.1718 -0.1943
 5998TIP3    H139553   1.206   2.760   1.542 -2.0679  0.9258 -2.6545
 5998TIP3    H239554   1.071   2.763   1.610 -1.3245 -1.5422 -0.9567
 5999TIP3   OH239555   6.035   0.891   7.096 -0.5327 -0.6996  0.0954
 5999TIP3    H139556   6.089   0.967   7.116 -0.1551 -0.6335 -1.0963
 5999TIP3    H239557   6.080   0.848   7.023 -1.0861 -1.7075  0.3264
 6000TIP3   OH239558   0.350   0.513   1.448 -0.3434 -0.0220 -0.5648
 6000TIP3    H139559   0.336   0.537   1.540 -1.2253  1.3561 -1.0370
 6000TIP3    H239560   0.445   0.519   1.436 -0.1909 -0.4959  0.3146
 6001TIP3   OH239561   0.920   0.873   2.296 -0.3918 -0.2544 -0.3057
 6001TIP3    H139562   0.991   0.898   2.236 -0.3784 -0.5746 -0.4261
 6001TIP3    H239563   0.941   0.918   2.378 -1.3545  1.6093 -1.0431
 6002TIP3   OH239564   0.092   6.387   7.229 -0.3919 -0.1082 -0.0088
 6002TIP3    H139565   0.143   6.387   7.149 -0.2031  0.7593  0.0976
 6002TIP3    H239566   0.023   6.452   7.214 -0.9915 -0.6999  0.1399
 6003TIP3   OH239567   0.987   0.120   6.780  0.0483 -0.3978  0.6719
 6003TIP3    H139568   1.061   0.165   6.821 -1.6004  1.4143  1.8338
 6003TIP3    H239569   0.936   0.189   6.738 -1.1670 -1.5348  0.1782
 6004TIP3   OH239570   0.150   1.464   0.857 -0.3055  0.2693  0.8348
 6004TIP3    H139571   0.240   1.434   0.874  0.0277  1.4985  1.3403
 6004TIP3    H239572   0.106   1.455   0.942 -2.4880 -5.8410 -0.3963
 6005TIP3   OH239573   6.758   3.217   0.746 -0.0562 -0.6053  0.2380
 6005TIP3    H139574   6.786   3.146   0.802  1.1408 -2.2980 -2.3173
 6005TIP3    H239575   6.674   3.245   0.783  0.8922 -1.1928  3.0979
 6006TIP3   OH239576   3.139   5.210   0.973 -0.3999 -0.0262 -0.1654
 6006TIP3    H139577   3.130   5.246   1.061 -2.0466  0.2021 -0.4047
 6006TIP3    H239578   3.144   5.115   0.986 -1.7110 -0.0751  0.1434
 6007TIP3   OH239579   6.546   3.744   8.171 -0.5773  0.0707 -0.2045
 6007TIP3    H139580   6.467   3.777   8.215 -0.6879  0.0113 -0.3572
 6007TIP3    H239581   6.593   3.696   8.240 -0.0698  1.1155  0.1973
 6008TIP3   OH239582   2.942   3.739   1.455  0.4175 -0.2191  0.3275
 6008TIP3    H139583   3.033   3.714   1.468  0.3650 -0.2383  0.6610
 6008TIP3    H239584   2.892   3.666   1.492  0.2562 -1.0122 -1.3272
 6009TIP3   OH239585   2.391   2.834   7.435  0.5294 -0.2606 -0.1404
 6009TIP3    H139586   2.409   2.809   7.526 -0.0013 -1.0191 -0.2437
 6009TIP3    H239587   2.469   2.883   7.409  0.8662 -0.3879  0.5872
 6010TIP3   OH239588   3.294   2.460   6.334 -0.2002 -0.5081 -0.1520
 6010TIP3    H139589   3.267   2.390   6.393  2.5732 -0.0507  1.8602
 6010TIP3    H239590   3.232   2.531   6.352 -0.3693 -0.9335  1.0572
 6011TIP3   OH239591   1.262   3.147   1.601 -0.2409  0.2158 -0.3422
 6011TIP3    H139592   1.333   3.137   1.537  0.8790  0.0168  0.8627
 6011TIP3    H239593   1.234   3.057   1.619 -1.4771  0.3493 -1.5111
 6012TIP3   OH239594   4.394   5.569   0.151  0.1024 -0.0387 -0.5816
 6012TIP3    H139595   4.391   5.489   0.098 -1.2423 -0.9193  0.7478
 6012TIP3    H239596   4.440   5.543   0.231 -1.0254  0.2654  0.1927
 6013TIP3   OH239597   5.104   6.231   1.933  0.4325  0.1645 -0.3473
 6013TIP3    H139598   5.105   6.324   1.910  0.1112  0.1831 -0.2892
 6013TIP3    H239599   5.026   6.220   1.986  0.2464 -0.2228 -0.6969
 6014TIP3   OH239600   2.164   2.472   1.245 -0.3302 -0.4603 -0.3897
 6014TIP3    H139601   2.153   2.457   1.152  0.5789  2.2167 -1.0278
 6014TIP3    H239602   2.075   2.480   1.280 -0.6648 -0.4158 -1.2419
 6015TIP3   OH239603   2.370   0.680   1.382 -0.0400 -0.5309  0.1097
 6015TIP3    H139604   2.377   0.587   1.406 -1.7856 -0.5942  0.5518
 6015TIP3    H239605   2.329   0.679   1.296 -0.2807 -0.1723  0.2203
 6016TIP3   OH239606   4.421   4.868   8.611 -0.4315 -0.0079 -1.0339
 6016TIP3    H139607   4.380   4.841   8.693 -0.4765 -0.1654 -1.1066
 6016TIP3    H239608   4.404   4.795   8.551  1.5255 -0.9093 -0.5617
 6017TIP3   OH239609   6.781   5.526   1.445  0.4889  0.1129  0.8720
 6017TIP3    H139610   6.796   5.620   1.442 -0.0632  0.1798 -0.3477
 6017TIP3    H239611   6.799   5.495   1.356 -2.2156 -0.4453  0.4135
 6018TIP3   OH239612   2.428   2.549   1.278 -0.0566 -0.2229 -0.3411
 6018TIP3    H139613   2.416   2.636   1.240  0.1824 -1.0730 -2.4964
 6018TIP3    H239614   2.339   2.515   1.289 -0.1386 -1.0955 -3.0542
 6019TIP3   OH239615   3.016   5.332   7.053  0.5082 -0.1048  0.4652
 6019TIP3    H139616   3.064   5.292   6.980 -0.7517 -2.6511  0.9104
 6019TIP3    H239617   3.056   5.294   7.131 -1.4048 -1.3889  0.8780
 6020TIP3   OH239618   1.419   4.460   8.634 -0.0441 -0.2063 -0.6387
 6020TIP3    H139619   1.421   4.488   8.726 -0.9620  1.0204 -0.9746
 6020TIP3    H239620   1.477   4.383   8.632 -0.1047 -0.3353  0.9796
 6021TIP3   OH239621   5.473   3.534   7.868  0.3006  0.2137  0.3684
 6021TIP3    H139622   5.525   3.614   7.867 -0.1135  0.5096 -1.3475
 6021TIP3    H239623   5.383   3.563   7.854  0.1907 -0.5403 -0.6652
 6022TIP3   OH239624   3.246   6.648   1.286  0.0462  0.0001  0.2284
 6022TIP3    H139625   3.254   6.598   1.205 -0.1443  1.1029 -0.4951
 6022TIP3    H239626   3.330   6.636   1.330 -0.8727 -3.1049  1.4104
 6023TIP3   OH239627   6.812   3.629   0.388  0.5882  0.7366 -0.1968
 6023TIP3    H139628   6.846   3.717   0.374 -0.3980  1.0926 -0.4895
 6023TIP3    H239629   6.825   3.612   0.481  1.4884  0.8723 -0.2896
 6024TIP3   OH239630   5.849   4.115   1.489  0.5125 -0.1396  0.2732
 6024TIP3    H139631   5.846   4.093   1.396  1.6316 -1.2207  0.4652
 6024TIP3    H239632   5.872   4.033   1.532 -1.3207 -0.0010  1.6629
 6025TIP3   OH239633   1.608   1.678   1.440 -0.4257  0.3822  0.2586
 6025TIP3    H139634   1.703   1.693   1.445 -0.0696 -0.7500 -1.7407
 6025TIP3    H239635   1.583   1.653   1.528  1.1153  0.9104  0.8823
 6026TIP3   OH239636   6.721   1.737   0.392  0.1964 -0.1973  0.5366
 6026TIP3    H139637   6.713   1.685   0.312  0.1654 -1.1028  1.1107
 6026TIP3    H239638   6.812   1.764   0.394  0.3396 -0.6683  0.4891
 6027TIP3   OH239639   5.018   4.973   1.440  0.1960  0.2818  0.2498
 6027TIP3    H139640   5.063   4.952   1.522  1.0399  0.0593 -0.2616
 6027TIP3    H239641   4.925   4.961   1.460  0.4652 -0.9998  0.8239
 6028TIP3   OH239642   0.655   3.601   8.120 -0.2680  0.3573  0.8550
 6028TIP3    H139643   0.693   3.659   8.185 -0.2738  1.5269 -0.1538
 6028TIP3    H239644   0.676   3.641   8.036 -2.0548  0.0249  0.1931
 6029TIP3   OH239645   6.699   3.282   8.305  0.3276 -0.3226 -0.3625
 6029TIP3    H139646   6.784   3.246   8.328  0.3460  0.0122  0.1119
 6029TIP3    H239647   6.645   3.205   8.284 -0.1916 -0.8431  2.4645
 6030TIP3   OH239648   0.549   5.426   7.133 -0.3913 -0.5416 -0.0808
 6030TIP3    H139649   0.619   5.431   7.198  0.3616  1.1833 -0.9514
 6030TIP3    H239650   0.588   5.459   7.052 -2.6771  2.5444 -0.1251
 6031TIP3   OH239651   3.146   3.051   0.516 -0.6231 -0.2524 -0.0661
 6031TIP3    H139652   3.236   3.054   0.483 -0.7426 -0.4560 -0.4167
 6031TIP3    H239653   3.094   3.092   0.447 -0.6742  0.8346  0.5969
 6032TIP3   OH239654   1.924   4.841   5.860 -0.6233 -0.4868 -0.1844
 6032TIP3    H139655   1.872   4.881   5.790 -0.1977  0.9713  0.2934
 6032TIP3    H239656   1.949   4.756   5.826 -0.8111  0.0085 -1.6211
 6033TIP3   OH239657   1.736   0.551   7.686 -0.2892  0.1991 -0.1176
 6033TIP3    H139658   1.695   0.602   7.756  0.9110  0.5210  0.3835
 6033TIP3    H239659   1.826   0.584   7.683  0.1112 -0.9211 -0.7500
 6034TIP3   OH239660   5.586   3.138   1.583 -0.7708 -0.2669  0.4558
 6034TIP3    H139661   5.609   3.161   1.673 -0.3197 -1.9334  0.8046
 6034TIP3    H239662   5.534   3.212   1.552 -1.5035  0.0524  2.3100
 6035TIP3   OH239663   1.687   1.117   7.495 -0.3650 -0.1516  0.4333
 6035TIP3    H139664   1.697   1.165   7.577  1.6921  1.6450 -0.7586
 6035TIP3    H239665   1.773   1.078   7.479 -0.7192 -0.4551 -0.8769
 6036TIP3   OH239666   3.267   1.645   8.620  0.2682 -0.0856 -0.2788
 6036TIP3    H139667   3.247   1.629   8.528 -0.3857  0.8450 -0.3181
 6036TIP3    H239668   3.197   1.703   8.650 -0.4128 -1.6414  1.2508
 6037TIP3   OH239669   0.550   6.534   1.501  0.4976 -0.4176 -0.0573
 6037TIP3    H139670   0.478   6.540   1.564 -0.1418 -1.0652 -0.7064
 6037TIP3    H239671   0.571   6.440   1.498  2.6335 -0.0791  1.4898
 6038TIP3   OH239672   4.618   5.478   7.864 -0.2460  0.4812 -0.1419
 6038TIP3    H139673   4.576   5.433   7.937  0.1668 -0.3742 -0.4172
 6038TIP3    H239674   4.709   5.489   7.892 -0.4878  1.7518  0.1920
 6039TIP3   OH239675   1.204   0.776   2.513  0.1502 -0.5452 -0.1048
 6039TIP3    H139676   1.149   0.697   2.515 -0.9237  0.1896  1.6430
 6039TIP3    H239677   1.265   0.764   2.586 -0.5541  0.5786  0.6966
 6040TIP3   OH239678   5.708   3.954   7.320 -0.2330  0.5044  0.3100
 6040TIP3    H139679   5.714   3.926   7.229  2.6483  1.1955  0.1923
 6040TIP3    H239680   5.698   4.050   7.315  1.8281  0.7817  0.6403
 6041TIP3   OH239681   4.639   0.173   1.013 -0.2532  0.2131  0.0695
 6041TIP3    H139682   4.670   0.169   0.923 -1.0867 -0.9615 -0.1934
 6041TIP3    H239683   4.579   0.248   1.015 -0.8463 -0.2351 -0.5691
 6042TIP3   OH239684   2.815   1.715   8.120 -0.0308 -0.7371 -0.2105
 6042TIP3    H139685   2.800   1.767   8.041  0.2251  1.5774  1.1660
 6042TIP3    H239686   2.908   1.727   8.140 -0.5034  0.4717  1.5428
 6043TIP3   OH239687   0.246   2.196   6.794  0.0551 -0.4240  1.0268
 6043TIP3    H139688   0.245   2.292   6.801  1.5585 -0.3485  0.5088
 6043TIP3    H239689   0.162   2.174   6.753  0.2836  0.8001 -0.1697
 6044TIP3   OH239690   1.923   6.166   1.912  0.3360  0.0043 -0.1250
 6044TIP3    H139691   1.997   6.204   1.865  1.8249 -1.0823  1.2316
 6044TIP3    H239692   1.871   6.242   1.938  1.4547  0.8796 -0.3164
 6045TIP3   OH239693   0.835   4.220   7.263 -0.3020 -0.3588 -0.1239
 6045TIP3    H139694   0.781   4.147   7.232 -0.7556  0.1997 -0.6895
 6045TIP3    H239695   0.906   4.226   7.199  0.3788 -1.0097  0.5484
 6046TIP3   OH239696   2.534   0.461   7.911  0.3653  0.0927 -0.4546
 6046TIP3    H139697   2.586   0.436   7.834  0.2939  2.0264 -1.1896
 6046TIP3    H239698   2.485   0.382   7.934  0.5775 -0.6032 -2.2438
 6047TIP3   OH239699   0.747   1.715   1.571  0.4000 -0.0919  0.5233
 6047TIP3    H139700   0.819   1.749   1.624 -0.1048 -0.0632  1.2127
 6047TIP3    H239701   0.754   1.760   1.487 -0.1442  1.6145  1.3428
 6048TIP3   OH239702   3.741   4.517   8.470 -0.2450 -0.0697  0.2830
 6048TIP3    H139703   3.752   4.428   8.502 -1.0530 -0.0957  0.5236
 6048TIP3    H239704   3.668   4.552   8.522 -2.2627 -0.4192 -2.1238
 6049TIP3   OH239705   0.901   3.216   7.782 -0.0697 -0.2052  0.4952
 6049TIP3    H139706   0.950   3.275   7.724 -0.8550  0.2736  0.3047
 6049TIP3    H239707   0.869   3.272   7.852 -1.6105 -0.2152 -0.1793
 6050TIP3   OH239708   5.672   3.558   1.050  0.2195 -0.2137  0.1124
 6050TIP3    H139709   5.590   3.583   1.091  0.2608  2.2406 -1.1162
 6050TIP3    H239710   5.649   3.484   0.993 -1.0233  0.1474  0.1276
 6051TIP3   OH239711   3.627   1.998   1.870  0.1010 -0.5567  0.3673
 6051TIP3    H139712   3.610   2.060   1.941  1.4286 -0.1426  0.3537
 6051TIP3    H239713   3.622   2.051   1.790 -1.0826 -0.9610  0.1456
 6052TIP3   OH239714   1.657   2.443   0.216 -0.0031 -0.4630 -0.6718
 6052TIP3    H139715   1.734   2.501   0.219  0.3916 -1.0040  0.0071
 6052TIP3    H239716   1.601   2.474   0.286 -0.1330 -0.4474 -0.7819
 6053TIP3   OH239717   0.848   5.506   7.109 -0.1956 -0.0586 -0.2385
 6053TIP3    H139718   0.808   5.587   7.077  2.0882  1.4783  0.5734
 6053TIP3    H239719   0.934   5.504   7.067  0.4098 -1.2247  0.9894
 6054TIP3   OH239720   2.786   1.541   6.655  0.7148  0.5427  0.4677
 6054TIP3    H139721   2.864   1.533   6.600  0.8944 -0.0480  0.7993
 6054TIP3    H239722   2.813   1.508   6.740  0.0145  0.0210  0.4953
 6055TIP3   OH239723   3.464   3.840   7.993  0.1253  0.3097 -0.0030
 6055TIP3    H139724   3.383   3.792   7.981  0.2430  0.0674  0.1569
 6055TIP3    H239725   3.509   3.794   8.065  0.1233  0.8096  0.3232
 6056TIP3   OH239726   3.971   1.773   8.378 -0.2633 -0.1486  0.1764
 6056TIP3    H139727   3.960   1.699   8.319  0.5650  0.3202 -0.5885
 6056TIP3    H239728   4.065   1.775   8.397 -0.2677  0.7320  0.1523
 6057TIP3   OH239729   3.645   6.162   7.014 -0.2102 -0.4802  0.1715
 6057TIP3    H139730   3.579   6.108   6.972  1.8486 -1.8702 -1.4512
 6057TIP3    H239731   3.695   6.201   6.942 -0.6092  2.4142  1.2925
 6058TIP3   OH239732   3.711   0.874   8.558  0.4889 -0.2541  0.2445
 6058TIP3    H139733   3.643   0.849   8.621  0.1961  1.1395  0.5264
 6058TIP3    H239734   3.671   0.946   8.508  1.6226  0.3133  0.1369
 6059TIP3   OH239735   0.459   0.649   7.988  0.2348 -0.3529  0.0786
 6059TIP3    H139736   0.554   0.641   7.986  0.2134 -0.6616  0.2143
 6059TIP3    H239737   0.442   0.743   7.980  0.5476 -0.3035 -0.0105
 6060TIP3   OH239738   3.166   5.690   1.551  0.2022  0.4675  0.1239
 6060TIP3    H139739   3.208   5.683   1.637  0.0158 -2.6503  0.0699
 6060TIP3    H239740   3.085   5.738   1.568  1.4077  2.2983  1.1145
 6061TIP3   OH239741   3.538   1.066   1.724  0.0872  0.2140 -0.4147
 6061TIP3    H139742   3.505   1.142   1.676  0.2818  0.4726 -0.1410
 6061TIP3    H239743   3.582   1.103   1.800 -1.3634 -0.2218  0.6942
 6062TIP3   OH239744   2.513   3.033   2.490  0.0941  0.1447 -0.0638
 6062TIP3    H139745   2.582   2.996   2.546  0.0430  0.8350  0.4782
 6062TIP3    H239746   2.514   2.979   2.411  0.3422 -0.6893  0.4994
 6063TIP3   OH239747   3.504   0.993   7.119  0.0087 -0.0112  0.4176
 6063TIP3    H139748   3.557   0.940   7.179 -0.1722 -0.7510 -0.0582
 6063TIP3    H239749   3.496   0.939   7.040  1.0116  1.3301 -0.6339
 6064TIP3   OH239750   5.479   4.375   0.592  0.1091 -0.3028 -0.2192
 6064TIP3    H139751   5.393   4.337   0.607 -0.7598  1.5933 -0.0844
 6064TIP3    H239752   5.512   4.396   0.679  0.5183 -0.6067 -0.2964
 6065TIP3   OH239753   4.415   2.507   0.994  0.2649  0.5384 -0.5464
 6065TIP3    H139754   4.447   2.448   1.062 -0.7914  1.0626  0.4475
 6065TIP3    H239755   4.493   2.537   0.948  0.9918  0.1204  0.3937
 6066TIP3   OH239756   5.365   3.370   2.216  0.0641  0.2598 -0.1503
 6066TIP3    H139757   5.386   3.282   2.247  0.8201  1.4794  3.1757
 6066TIP3    H239758   5.270   3.374   2.215  0.0172 -0.7448 -0.9208
 6067TIP3   OH239759   0.794   5.128   0.623  0.1566  0.4695 -0.5168
 6067TIP3    H139760   0.699   5.140   0.616  0.2067  1.1165 -0.2142
 6067TIP3    H239761   0.827   5.216   0.644  0.5147 -0.2093  2.2339
 6068TIP3   OH239762   1.102   3.210   1.377 -0.0666  0.0090  0.6440
 6068TIP3    H139763   1.158   3.187   1.451  0.3008  2.8369  1.3560
 6068TIP3    H239764   1.159   3.258   1.317 -1.0004  0.1544 -0.1633
 6069TIP3   OH239765   0.746   4.441   0.515  0.4013  0.4675  0.1833
 6069TIP3    H139766   0.694   4.362   0.527 -1.6712  1.9839  2.2743
 6069TIP3    H239767   0.812   4.437   0.584 -0.2952  0.9519  0.8948
 6070TIP3   OH239768   5.140   2.846   1.559 -0.1269 -0.1782  0.0760
 6070TIP3    H139769   5.120   2.886   1.474 -0.4669  1.5154  0.9149
 6070TIP3    H239770   5.225   2.883   1.584  0.5928 -1.6339 -0.0583
 6071TIP3   OH239771   0.651   6.434   2.092 -0.3655 -0.1823 -0.3533
 6071TIP3    H139772   0.631   6.370   2.024 -2.2793 -1.4776  1.3054
 6071TIP3    H239773   0.584   6.502   2.081 -0.4588 -0.2141  0.0037
 6072TIP3   OH239774   2.097   6.495   1.696  0.4271  0.4894 -0.3555
 6072TIP3    H139775   2.116   6.401   1.697 -0.4786  0.3016  0.1070
 6072TIP3    H239776   2.113   6.524   1.785 -0.8515  0.4384 -0.0919
 6073TIP3   OH239777   5.814   0.839   0.556 -0.7956 -0.8126 -0.2645
 6073TIP3    H139778   5.744   0.900   0.531  0.6092  0.7939 -0.4462
 6073TIP3    H239779   5.873   0.839   0.481  0.1042 -1.0820  0.4325
 6074TIP3   OH239780   6.239   1.213   1.922 -0.3009 -0.2951  0.5757
 6074TIP3    H139781   6.305   1.278   1.945 -0.7114  1.0179 -1.6721
 6074TIP3    H239782   6.289   1.139   1.889  0.1418 -0.9043  2.4995
 6075TIP3   OH239783   4.082   5.353   6.437  0.5735 -0.1030 -0.6005
 6075TIP3    H139784   4.031   5.298   6.378 -1.7934 -0.6200  1.6971
 6075TIP3    H239785   4.122   5.291   6.498  0.8073  0.5196 -0.1140
 6076TIP3   OH239786   4.054   6.347   7.516 -0.1006  0.2861 -0.6355
 6076TIP3    H139787   4.130   6.345   7.458  0.3694 -2.9718 -0.0937
 6076TIP3    H239788   4.067   6.425   7.570  0.7042  2.0431 -3.2053
 6077TIP3   OH239789   4.825   3.076   2.104  0.7317  0.6734  0.0726
 6077TIP3    H139790   4.916   3.056   2.081  1.0521 -1.3332  2.7143
 6077TIP3    H239791   4.830   3.113   2.192 -1.1491 -3.0647  1.9874
 6078TIP3   OH239792   3.005   0.675   8.512 -0.2449 -0.4906 -0.5929
 6078TIP3    H139793   3.043   0.757   8.546  0.1648 -0.5470 -0.9095
 6078TIP3    H239794   2.940   0.650   8.578 -0.0143 -0.1766 -0.2403
 6079TIP3   OH239795   3.085   1.488   6.580 -0.3341  0.5088 -0.3877
 6079TIP3    H139796   3.019   1.513   6.515  0.2408  1.4478 -0.6347
 6079TIP3    H239797   3.144   1.429   6.533  0.9358  2.3387 -1.2167
 6080TIP3   OH239798   2.292   0.797   0.141 -0.4804 -0.3663  0.4410
 6080TIP3    H139799   2.204   0.836   0.135 -0.6488 -0.4053  2.1219
 6080TIP3    H239800   2.339   0.832   0.065 -1.9681 -0.4149 -0.5417
 6081TIP3   OH239801   5.459   4.918   2.056 -0.0555 -0.3166  0.3245
 6081TIP3    H139802   5.548   4.942   2.083  0.0067 -0.8867  0.6357
 6081TIP3    H239803   5.469   4.839   2.004 -0.2597  0.3439 -0.7388
 6082TIP3   OH239804   3.444   3.747   7.508  0.0075  0.1338  0.4626
 6082TIP3    H139805   3.455   3.683   7.437  1.6694 -0.0242  0.8234
 6082TIP3    H239806   3.369   3.715   7.557  1.1001 -1.8800  0.9360
 6083TIP3   OH239807   0.979   1.218   0.463 -0.4989 -0.4366  0.2170
 6083TIP3    H139808   1.073   1.230   0.452 -0.3640 -0.1381  1.5278
 6083TIP3    H239809   0.968   1.200   0.556 -1.7785 -0.0232  0.1607
 6084TIP3   OH239810   6.444   6.758   0.744 -0.0997  0.2970 -0.3462
 6084TIP3    H139811   6.442   6.695   0.815  0.0350 -0.0909 -0.6838
 6084TIP3    H239812   6.518   6.732   0.690 -1.9720 -1.3527 -2.3407
 6085TIP3   OH239813   0.262   2.307   0.528 -0.0932  0.1309  0.0734
 6085TIP3    H139814   0.168   2.309   0.545 -0.6000  0.2506 -2.3225
 6085TIP3    H239815   0.284   2.397   0.506  0.1672 -0.1909 -1.0945
 6086TIP3   OH239816   0.864   3.882   0.204 -0.2701  0.4748  0.0184
 6086TIP3    H139817   0.945   3.875   0.154 -1.3973  0.8537 -1.9537
 6086TIP3    H239818   0.862   3.803   0.258  1.5350  0.6079  0.3614
 6087TIP3   OH239819   3.702   0.426   7.526  0.3047 -0.3372  0.0909
 6087TIP3    H139820   3.715   0.372   7.448  0.3078 -0.3961  0.1321
 6087TIP3    H239821   3.781   0.413   7.577  1.3841  1.5380 -0.9836
 6088TIP3   OH239822   2.863   3.524   7.106 -0.0879 -0.4561  0.3869
 6088TIP3    H139823   2.861   3.606   7.155  0.3043 -0.2831  0.1085
 6088TIP3    H239824   2.837   3.548   7.017  0.7998 -0.4965  0.1077
 6089TIP3   OH239825   5.715   3.724   2.493 -0.2163 -0.7761 -0.5154
 6089TIP3    H139826   5.624   3.707   2.517 -0.4214  1.2338  0.3784
 6089TIP3    H239827   5.765   3.655   2.537 -1.1489 -0.6673  0.7764
 6090TIP3   OH239828   0.718   1.251   8.424  0.7782  0.3287 -0.2106
 6090TIP3    H139829   0.643   1.220   8.473  2.3463 -0.8242  1.5742
 6090TIP3    H239830   0.767   1.305   8.486 -0.0490  3.6775 -2.2127
 6091TIP3   OH239831   6.172   5.057   8.093 -0.2486 -0.3668  0.3125
 6091TIP3    H139832   6.158   5.042   7.999 -3.2279 -0.9050  0.7179
 6091TIP3    H239833   6.135   5.144   8.109 -0.6132 -0.6503  1.0996
 6092TIP3   OH239834   1.401   6.550   1.745  0.0876  0.3187  0.5848
 6092TIP3    H139835   1.352   6.601   1.809 -0.2426 -0.2989  0.8343
 6092TIP3    H239836   1.487   6.590   1.742 -0.4201  1.4423  0.1301
 6093TIP3   OH239837   0.789   1.690   8.449 -0.5756 -0.1469 -0.3179
 6093TIP3    H139838   0.756   1.669   8.537 -0.2717 -2.6372 -0.7058
 6093TIP3    H239839   0.710   1.707   8.397 -0.7657  1.1850  0.3649
 6094TIP3   OH239840   5.702   0.653   6.336  0.1012 -0.3589 -0.2930
 6094TIP3    H139841   5.659   0.600   6.403 -0.4881 -0.2036 -0.5344
 6094TIP3    H239842   5.794   0.631   6.342  0.0299 -0.4596  0.4662
 6095TIP3   OH239843   6.553   2.016   1.308  0.0530  0.5218  0.3682
 6095TIP3    H139844   6.530   2.082   1.374 -3.9740  1.5409 -1.7690
 6095TIP3    H239845   6.484   1.950   1.315  0.4829 -0.2109 -1.6820
 6096TIP3   OH239846   5.012   1.547   8.435  0.1957  0.0914  0.1831
 6096TIP3    H139847   5.076   1.544   8.363  0.3343  0.5146  0.2894
 6096TIP3    H239848   4.935   1.502   8.400  0.4627 -0.2022 -0.0336
 6097TIP3   OH239849   1.486   6.178   7.321  0.3914 -0.1194 -0.3191
 6097TIP3    H139850   1.424   6.227   7.375 -0.3973  0.1252 -1.4029
 6097TIP3    H239851   1.512   6.240   7.253  0.5647 -0.7317 -0.8182
 6098TIP3   OH239852   2.942   6.497   1.738  0.1937  0.0144 -0.2458
 6098TIP3    H139853   2.905   6.584   1.748  1.2413  0.4038  0.3999
 6098TIP3    H239854   3.018   6.510   1.681  0.4644 -0.4424  0.0073
 6099TIP3   OH239855   0.201   4.114   7.370 -0.5460 -0.1731  0.5489
 6099TIP3    H139856   0.256   4.180   7.327 -1.8503  0.4419 -0.2627
 6099TIP3    H239857   0.174   4.155   7.452  0.3488 -0.5600  1.0487
 6100TIP3   OH239858   4.610   1.600   8.494 -0.3011 -0.3905 -0.3178
 6100TIP3    H139859   4.519   1.593   8.465 -0.1575 -1.8179 -0.4924
 6100TIP3    H239860   4.605   1.620   8.587 -0.7652  1.2295 -0.6487
 6101TIP3   OH239861   6.683   4.825   0.195 -0.6947  1.1162 -0.2713
 6101TIP3    H139862   6.693   4.730   0.204 -1.7546  0.8967 -1.1544
 6101TIP3    H239863   6.737   4.848   0.120 -1.4041  1.0089 -0.8207
 6102TIP3   OH239864   2.145   5.271   6.655  0.1367 -0.0291 -0.6630
 6102TIP3    H139865   2.240   5.277   6.666  0.2739 -1.7185 -0.6924
 6102TIP3    H239866   2.133   5.257   6.561 -0.2295  1.2300 -0.8205
 6103TIP3   OH239867   0.607   3.307   6.913  0.0300 -0.3192  0.4652
 6103TIP3    H139868   0.623   3.329   6.821  3.5384 -2.3832  0.4254
 6103TIP3    H239869   0.526   3.354   6.935  0.2683  2.0591 -2.9768
 6104TIP3   OH239870   0.565   3.650   0.891 -0.0791 -0.0398  0.1563
 6104TIP3    H139871   0.612   3.732   0.878 -1.9606  0.9613 -0.5564
 6104TIP3    H239872   0.604   3.613   0.970  2.4242  0.3348 -0.8120
 6105TIP3   OH239873   0.379   1.454   7.346 -0.1454 -0.2777 -0.0280
 6105TIP3    H139874   0.347   1.531   7.299  1.1662  0.2133 -0.1449
 6105TIP3    H239875   0.419   1.399   7.279 -0.3103 -0.6650  0.1864
 6106TIP3   OH239876   3.880   4.616   1.299 -0.1446 -0.6246 -0.5516
 6106TIP3    H139877   3.805   4.589   1.247 -0.2414 -1.3400 -0.0608
 6106TIP3    H239878   3.939   4.540   1.298  0.3509 -0.2471 -0.5287
 6107TIP3   OH239879   2.383   4.964   7.656 -0.3574 -0.1940 -0.0203
 6107TIP3    H139880   2.472   4.937   7.631 -0.6909 -2.8694  1.3512
 6107TIP3    H239881   2.332   4.957   7.575  0.0689 -1.6810 -0.1836
 6108TIP3   OH239882   5.638   3.394   8.055  0.0648  0.0772 -0.1234
 6108TIP3    H139883   5.565   3.434   8.008  0.4429  0.1689 -0.6384
 6108TIP3    H239884   5.628   3.424   8.145 -1.1853 -0.8263  0.0642
 6109TIP3   OH239885   0.356   2.894   7.753 -1.1134 -0.4775  0.6269
 6109TIP3    H139886   0.304   2.890   7.833 -0.5233 -1.4247  0.9785
 6109TIP3    H239887   0.362   2.987   7.733  0.4043 -0.0297  2.8125
 6110TIP3   OH239888   1.195   2.370   0.081 -0.2183  0.1262 -0.0193
 6110TIP3    H139889   1.260   2.336   0.021  0.2627  3.9097 -1.9454
 6110TIP3    H239890   1.121   2.310   0.074  1.2199 -1.5717 -1.5061
 6111TIP3   OH239891   6.782   6.528   7.498  1.2699  0.0792 -0.8047
 6111TIP3    H139892   6.734   6.473   7.436  1.8619  1.1636 -2.2929
 6111TIP3    H239893   6.803   6.470   7.571  0.0458 -1.0937 -1.3454
 6112TIP3   OH239894   5.383   4.238   8.602 -0.0129  0.1836 -0.2855
 6112TIP3    H139895   5.453   4.208   8.544 -0.4791 -0.6849 -0.4077
 6112TIP3    H239896   5.427   4.262   8.683  0.4759  0.0827 -0.5206
 6113TIP3   OH239897   4.276   3.025   2.418 -0.2630 -0.0237 -0.1758
 6113TIP3    H139898   4.273   3.084   2.493  1.0786  1.6682 -1.3668
 6113TIP3    H239899   4.280   2.937   2.456 -0.3161  0.7352  1.6965
 6114TIP3   OH239900   5.288   1.308   6.607 -0.1493 -0.0303  0.1031
 6114TIP3    H139901   5.371   1.330   6.563  0.8196 -1.4007  1.1750
 6114TIP3    H239902   5.223   1.361   6.561  1.3151  1.1482 -0.7348
 6115TIP3   OH239903   6.468   1.289   8.612 -0.1728 -0.4889  0.1199
 6115TIP3    H139904   6.381   1.269   8.578 -0.3897  0.8187 -0.1440
 6115TIP3    H239905   6.514   1.328   8.538  0.1407  0.1922  0.6629
 6116TIP3   OH239906   4.895   4.026   7.072 -0.0918  0.4459  0.1244
 6116TIP3    H139907   4.815   4.061   7.112 -1.2587 -2.4877  0.6004
 6116TIP3    H239908   4.873   4.015   6.979  0.7004  1.9700 -0.2884
 6117TIP3   OH239909   4.212   6.204   1.631 -0.2511  0.2597  0.4482
 6117TIP3    H139910   4.200   6.146   1.557 -0.4475  1.5625 -0.5804
 6117TIP3    H239911   4.151   6.173   1.697 -0.1025 -0.8932  0.0614
 6118TIP3   OH239912   2.674   4.980   1.152 -0.1851 -0.2353  0.1472
 6118TIP3    H139913   2.613   4.906   1.156 -0.0863 -0.2424  2.4035
 6118TIP3    H239914   2.619   5.055   1.132 -0.4934 -0.6722 -0.7154
 6119TIP3   OH239915   4.938   6.819   8.516  0.2827  0.2956 -0.3590
 6119TIP3    H139916   4.846   6.803   8.535 -0.4313  2.2956 -1.8362
 6119TIP3    H239917   4.961   6.753   8.450 -0.2503  0.1452 -0.3965
 6120TIP3   OH239918   1.184   4.518   0.231  0.1526  0.3013  0.8130
 6120TIP3    H139919   1.244   4.470   0.287 -0.2908  0.9855  1.9008
 6120TIP3    H239920   1.234   4.535   0.151  1.2887  0.5506  1.5592
 6121TIP3   OH239921   3.958   1.996   0.175 -0.0778  0.1848 -0.1882
 6121TIP3    H139922   3.925   2.058   0.239  0.6315  0.3773  0.0001
 6121TIP3    H239923   3.961   2.045   0.093 -2.8462 -0.5984 -0.8680
 6122TIP3   OH239924   2.149   1.643   1.326  0.5677  0.1462 -0.1431
 6122TIP3    H139925   2.176   1.571   1.383  0.4443  0.5124  0.3875
 6122TIP3    H239926   2.093   1.603   1.260  0.4922 -0.2433  0.1555
 6123TIP3   OH239927   5.499   2.371   1.562  0.4195  0.0703 -0.4717
 6123TIP3    H139928   5.515   2.444   1.503 -0.9103  0.3866 -0.4724
 6123TIP3    H239929   5.461   2.302   1.507  3.9496 -1.6709 -1.0067
 6124TIP3   OH239930   0.373   5.732   2.213  0.1681 -0.1692  0.3107
 6124TIP3    H139931   0.387   5.814   2.166 -0.3692 -0.8241 -1.0577
 6124TIP3    H239932   0.278   5.727   2.224  0.1122 -1.0332 -0.4487
 6125TIP3   OH239933   1.402   3.242   2.616  0.3357 -0.2351  0.0879
 6125TIP3    H139934   1.437   3.330   2.602  0.0823 -0.2434 -0.6730
 6125TIP3    H239935   1.310   3.256   2.640  0.2180 -0.2907 -0.3100
 6126TIP3   OH239936   4.886   6.175   1.667 -0.9299  0.6559  0.1366
 6126TIP3    H139937   4.894   6.270   1.679  0.5672  0.3833  1.5133
 6126TIP3    H239938   4.957   6.152   1.607 -1.1721  0.3765 -0.0461
 6127TIP3   OH239939   5.531   5.612   7.618 -0.4595 -0.0973  0.3954
 6127TIP3    H139940   5.603   5.669   7.590 -0.6842 -0.2758 -0.5682
 6127TIP3    H239941   5.466   5.620   7.549 -0.0676 -2.3287 -0.3258
 6128TIP3   OH239942   4.048   0.096   7.602 -0.4289  0.1400  0.4834
 6128TIP3    H139943   3.977   0.064   7.548  0.5968  0.6236 -1.2167
 6128TIP3    H239944   4.050   0.036   7.677 -1.6814 -0.7387 -0.1544
 6129TIP3   OH239945   5.043   3.023   2.402  0.6793 -0.2021 -0.5807
 6129TIP3    H139946   5.098   2.962   2.353  2.3131  0.5711  0.2112
 6129TIP3    H239947   4.997   3.072   2.334  0.9887 -0.8350 -1.2755
 6130TIP3   OH239948   6.071   5.097   7.204  0.1121 -0.7319  0.3336
 6130TIP3    H139949   6.066   5.192   7.200 -1.3319 -0.8081 -0.0634
 6130TIP3    H239950   6.119   5.079   7.285  0.9456  0.3267  0.0979
 6131TIP3   OH239951   4.099   6.534   0.678 -0.0551 -0.2334 -0.5727
 6131TIP3    H139952   4.068   6.463   0.734  1.1249 -0.6089 -0.3619
 6131TIP3    H239953   4.135   6.490   0.601  1.4561  0.0523 -0.0695
 6132TIP3   OH239954   6.841   4.231   0.876 -0.4316  0.4125 -0.7913
 6132TIP3    H139955   6.819   4.243   0.969  1.6067  0.0044 -0.2109
 6132TIP3    H239956   6.762   4.194   0.838 -0.7997 -0.9411  1.1382
 6133TIP3   OH239957   4.842   2.880   1.746 -0.0515  0.2820 -0.1156
 6133TIP3    H139958   4.784   2.888   1.671 -0.3915  1.4606  0.2539
 6133TIP3    H239959   4.878   2.791   1.739 -1.2063 -0.1564 -0.8448
 6134TIP3   OH239960   2.305   4.651   6.256  0.6195  0.4769  0.1381
 6134TIP3    H139961   2.372   4.704   6.213 -0.9215  1.1217 -1.5936
 6134TIP3    H239962   2.281   4.586   6.190 -0.9001  0.6672  0.4899
 6135TIP3   OH239963   0.879   2.556   7.407  0.2674  0.3800 -0.0304
 6135TIP3    H139964   0.920   2.481   7.450 -0.3557 -0.8584 -1.5022
 6135TIP3    H239965   0.893   2.541   7.314 -1.7463  0.9482 -0.4831
 6136TIP3   OH239966   1.407   0.370   1.826  0.0894 -0.1927  1.0478
 6136TIP3    H139967   1.432   0.415   1.906 -0.1044  0.1993  0.8869
 6136TIP3    H239968   1.318   0.400   1.807 -0.8030 -2.0551  1.9685
 6137TIP3   OH239969   4.618   3.079   1.798  0.3914 -0.3271 -0.3246
 6137TIP3    H139970   4.667   3.118   1.726 -0.9721 -0.6364 -1.4753
 6137TIP3    H239971   4.526   3.095   1.775 -0.1217 -1.8724  0.5179
 6138TIP3   OH239972   3.923   1.653   2.263 -0.7071  0.5539 -0.1483
 6138TIP3    H139973   3.859   1.583   2.276  0.4385 -0.7304 -1.2193
 6138TIP3    H239974   4.005   1.618   2.297  0.5942  0.0937 -3.3840
 6139TIP3   OH239975   6.847   0.414   0.416  0.1928  0.2337  0.2693
 6139TIP3    H139976   6.851   0.489   0.475  0.0542  0.6803 -0.2806
 6139TIP3    H239977   6.871   0.449   0.330  2.2345 -0.7723  0.3698
 6140TIP3   OH239978   3.426   2.663   0.528  0.1035  0.2177 -0.3425
 6140TIP3    H139979   3.451   2.667   0.621 -0.5911 -0.5498 -0.1117
 6140TIP3    H239980   3.331   2.667   0.528  0.1419  3.6033 -1.2508
 6141TIP3   OH239981   6.044   6.218   0.600  0.5324 -0.6068  0.4116
 6141TIP3    H139982   5.972   6.266   0.641  1.3492 -0.4218  1.7067
 6141TIP3    H239983   6.117   6.228   0.661  1.0564 -2.5810  0.1774
 6142TIP3   OH239984   1.568   1.775   7.454  0.0673  0.0801  0.1659
 6142TIP3    H139985   1.514   1.783   7.532 -0.1509 -0.7417  0.1073
 6142TIP3    H239986   1.505   1.764   7.383  0.3055 -1.6542  0.1907
 6143TIP3   OH239987   2.176   1.335   1.187  0.3569  0.1493 -0.5661
 6143TIP3    H139988   2.199   1.349   1.279 -0.1684  2.3056 -0.7164
 6143TIP3    H239989   2.219   1.252   1.164  0.4870 -0.4379  1.6040
 6144TIP3   OH239990   6.046   2.413   0.394  0.3572  0.7482 -0.5923
 6144TIP3    H139991   6.079   2.470   0.325 -0.7739  0.5171 -1.3495
 6144TIP3    H239992   5.958   2.447   0.412  0.3701  0.3642  0.2398
 6145TIP3   OH239993   2.145   1.635   0.345  0.6207  0.0948 -0.0273
 6145TIP3    H139994   2.180   1.598   0.264  1.6196  2.6914 -0.8789
 6145TIP3    H239995   2.141   1.561   0.406 -0.9992 -2.1438 -2.6354
 6146TIP3   OH239996   4.913   0.613   6.121  0.0979  0.2368 -0.4240
 6146TIP3    H139997   4.886   0.685   6.179 -0.2030  0.0153 -0.2826
 6146TIP3    H239998   4.986   0.649   6.070  2.4739 -0.4803  2.2138
 6147TIP3   OH239999   5.859   0.593   0.384  0.2957 -0.2902  0.2602
 6147TIP3    H140000   5.910   0.668   0.355 -0.1249  0.3194  1.0692
 6147TIP3    H240001   5.889   0.576   0.473  1.2842 -1.8862 -0.3247
 6148TIP3   OH240002   0.606   0.571   2.202  0.5595  0.6886  0.0050
 6148TIP3    H140003   0.686   0.588   2.252  1.2464  0.3943 -0.9717
 6148TIP3    H240004   0.614   0.480   2.174  0.8176  1.2210 -1.7321
 6149TIP3   OH240005   3.465   0.136   7.979 -0.2446 -0.4634  0.0666
 6149TIP3    H140006   3.515   0.128   7.898 -0.0797 -0.1725  0.1375
 6149TIP3    H240007   3.427   0.049   7.992 -0.6934 -0.3730 -0.5904
 6150TIP3   OH240008   6.095   3.950   7.444 -0.5731  0.1992 -0.2369
 6150TIP3    H140009   6.046   3.874   7.416  0.2492 -0.7431  0.7730
 6150TIP3    H240010   6.185   3.919   7.454  0.1139  1.6879 -1.3008
 6151TIP3   OH240011   5.324   6.234   7.605  0.5431  1.2127 -0.2142
 6151TIP3    H140012   5.278   6.282   7.536  0.3832 -0.2240 -1.1551
 6151TIP3    H240013   5.261   6.229   7.677  0.5064  2.2401 -0.1549
 6152TIP3   OH240014   4.480   0.056   1.571 -0.0915  0.0741  0.0202
 6152TIP3    H140015   4.499   0.141   1.609  1.3947 -0.8123  1.3710
 6152TIP3    H240016   4.494   0.068   1.477  0.0581  1.3152  0.1843
 6153TIP3   OH240017   4.628   3.974   0.042  0.4196  0.5493  0.5535
 6153TIP3    H140018   4.715   3.934   0.035 -0.4509 -1.5436  0.8379
 6153TIP3    H240019   4.635   4.033   0.117  1.8812  1.3042 -0.1217
 6154TIP3   OH240020   4.883   5.687   0.619 -0.2016 -0.8487 -0.2377
 6154TIP3    H140021   4.796   5.692   0.658 -0.6771 -1.0196 -1.2420
 6154TIP3    H240022   4.916   5.777   0.623 -1.9082  0.0355 -3.0506
 6155TIP3   OH240023   4.911   6.277   0.833 -0.3807  0.1022  0.0546
 6155TIP3    H140024   4.905   6.308   0.743 -0.3177 -0.5748 -0.1909
 6155TIP3    H240025   4.956   6.192   0.827  0.3584  0.4160  0.8060
 6156TIP3   OH240026   2.406   4.513   1.958 -0.1651 -0.7886 -0.2542
 6156TIP3    H140027   2.464   4.563   2.015 -2.3589  0.5974  0.9364
 6156TIP3    H240028   2.419   4.550   1.871  1.1039 -0.9053 -0.1273
 6157TIP3   OH240029   4.187   0.062   8.487 -0.4206 -0.4800  0.1234
 6157TIP3    H140030   4.244  -0.009   8.515  0.2245  0.0085  0.0808
 6157TIP3    H240031   4.217   0.083   8.398 -1.1614 -0.7178 -0.1844
 6158TIP3   OH240032   0.210   5.589   1.693 -0.7228 -0.6123 -0.1025
 6158TIP3    H140033   0.191   5.544   1.775 -2.0483 -0.0083 -0.0516
 6158TIP3    H240034   0.125   5.600   1.651 -0.2297  0.3122 -0.9180
 6159TIP3   OH240035   6.300   0.767   8.120 -0.0141 -0.0486  0.7685
 6159TIP3    H140036   6.255   0.700   8.172  0.0299 -0.4819  0.2633
 6159TIP3    H240037   6.233   0.799   8.059  0.1889 -0.2493  0.4358
 6160TIP3   OH240038   0.923   5.251   1.211  0.1266  0.5832  0.2001
 6160TIP3    H140039   0.962   5.231   1.125  1.2184  0.2431  0.7547
 6160TIP3    H240040   0.997   5.274   1.266 -0.5107  0.3506  1.1805
 6161TIP3   OH240041   0.051   5.888   0.573 -0.0527  0.1222 -0.4140
 6161TIP3    H140042   0.085   5.810   0.530 -0.3620 -0.0923 -0.2699
 6161TIP3    H240043   0.067   5.959   0.511 -1.2091 -0.2983 -1.2214
 6162TIP3   OH240044   0.157   4.858   1.954 -0.3496  0.7878  0.4047
 6162TIP3    H140045   0.073   4.813   1.958 -0.4021  0.8732  0.2918
 6162TIP3    H240046   0.138   4.948   1.982 -0.2089  0.6891  0.8076
 6163TIP3   OH240047   3.576   3.045   7.086 -0.1637 -0.3834 -0.3365
 6163TIP3    H140048   3.628   3.099   7.026 -1.8664  1.2716 -0.4617
 6163TIP3    H240049   3.626   3.043   7.167 -0.3536  2.1293 -0.0765
 6164TIP3   OH240050   4.700   5.008   7.605  0.3012 -0.0481 -0.0790
 6164TIP3    H140051   4.712   5.055   7.688  1.1589 -1.1948  0.4783
 6164TIP3    H240052   4.733   4.919   7.623 -1.0149 -0.7960 -1.1607
 6165TIP3   OH240053   1.976   4.236   8.596 -0.5410 -0.2546 -0.2626
 6165TIP3    H140054   1.940   4.169   8.538 -0.5657 -0.0770 -0.4539
 6165TIP3    H240055   2.030   4.291   8.539 -0.9100  0.1760 -0.1991
 6166TIP3   OH240056   4.367   5.369   2.156  1.1542 -0.4195  0.3057
 6166TIP3    H140057   4.418   5.318   2.220  1.5937  0.0353  0.3290
 6166TIP3    H240058   4.318   5.432   2.210 -0.5983 -1.8017  0.4122
 6167TIP3   OH240059   2.773   1.224   7.107 -0.4200  0.2708  0.0503
 6167TIP3    H140060   2.774   1.252   7.015 -1.0831 -0.3787 -0.1632
 6167TIP3    H240061   2.751   1.131   7.103 -0.4111  0.2291  0.8697
 6168TIP3   OH240062   2.033   0.546   1.518  0.0146 -0.5042  0.0688
 6168TIP3    H140063   1.990   0.491   1.453  0.8798 -0.8725 -0.2009
 6168TIP3    H240064   1.989   0.631   1.510 -1.6303 -1.2281  0.7789
 6169TIP3   OH240065   2.152   4.406   8.467 -0.1079 -0.1062  0.1559
 6169TIP3    H140066   2.220   4.391   8.402 -1.1011  1.5225 -1.3466
 6169TIP3    H240067   2.186   4.475   8.523  0.4669 -1.0412  1.0009
 6170TIP3   OH240068   1.015   0.558   1.438 -0.3609 -0.8885 -0.3726
 6170TIP3    H140069   1.019   0.463   1.439 -2.6760 -1.0573 -1.4340
 6170TIP3    H240070   1.075   0.584   1.368  0.1729 -1.5532 -0.1667
 6171TIP3   OH240071   3.849   1.831   0.990 -0.6668  0.4302  0.3640
 6171TIP3    H140072   3.852   1.873   0.904  2.5878 -0.6317 -0.1593
 6171TIP3    H240073   3.929   1.860   1.033 -1.0041 -1.0437  2.0630
 6172TIP3   OH240074   6.691   1.245   8.069  0.5306 -0.1115 -0.2936
 6172TIP3    H140075   6.694   1.223   7.976  2.8681  0.8771 -0.5218
 6172TIP3    H240076   6.646   1.329   8.073 -0.6907 -0.7346 -0.3487
 6173TIP3   OH240077   1.005   4.090   8.031  0.0972  0.2671 -0.2070
 6173TIP3    H140078   0.934   4.149   8.053 -0.8108 -1.1032  0.6842
 6173TIP3    H240079   1.006   4.025   8.101  1.5584 -0.3390 -0.7395
 6174TIP3   OH240080   1.979   2.421   7.462 -0.0981 -0.0414  0.8926
 6174TIP3    H140081   1.975   2.329   7.437 -0.2332 -0.1260  1.2141
 6174TIP3    H240082   2.018   2.421   7.549 -0.7841  0.1373  1.2150
 6175TIP3   OH240083   3.357   1.744   7.317  0.4798  0.2116 -0.2786
 6175TIP3    H140084   3.272   1.734   7.274  0.2148  1.0330  0.0373
 6175TIP3    H240085   3.380   1.655   7.345 -2.0064  0.3569  2.8617
 6176TIP3   OH240086   4.744   2.840   8.576 -0.5551 -0.2205 -0.3116
 6176TIP3    H140087   4.834   2.820   8.604 -0.7053  0.6572  0.8678
 6176TIP3    H240088   4.702   2.754   8.570  0.4728 -0.6860 -1.3362
 6177TIP3   OH240089   5.993   5.355   8.338 -0.1409  0.1990  0.1423
 6177TIP3    H140090   6.071   5.303   8.358  0.0352  0.5524  0.3832
 6177TIP3    H240091   5.924   5.290   8.324 -0.5180 -0.0753  2.8564
 6178TIP3   OH240092   6.426   4.639   0.954 -0.1366  0.2469  0.0450
 6178TIP3    H140093   6.332   4.624   0.956 -0.2700  1.0275  2.0560
 6178TIP3    H240094   6.462   4.575   1.016  0.7001 -0.1901 -0.8616
 6179TIP3   OH240095   0.760   5.560   1.097  0.1607 -0.3306 -0.6663
 6179TIP3    H140096   0.717   5.645   1.089 -0.1953 -0.5880 -1.6656
 6179TIP3    H240097   0.778   5.534   1.007  2.1235 -0.3982 -0.3016
 6180TIP3   OH240098   6.549   1.973   8.605  0.3581  0.2072 -0.5893
 6180TIP3    H140099   6.579   2.030   8.676 -0.4823  0.1229 -0.1505
 6180TIP3    H240100   6.518   1.894   8.650 -0.2471  0.1829 -1.0461
 6181TIP3   OH240101   4.590   3.511   7.306 -0.1890 -0.2346  0.1684
 6181TIP3    H140102   4.574   3.570   7.232 -0.5341  0.0968  0.4985
 6181TIP3    H240103   4.652   3.558   7.361 -1.4678  0.4382  1.1068
 6182TIP3   OH240104   6.833   4.361   1.884 -0.7623 -0.0712 -0.2919
 6182TIP3    H140105   6.792   4.285   1.844  0.1272 -0.8186  0.1655
 6182TIP3    H240106   6.911   4.326   1.927 -1.0647  0.8696  1.1056
 6183TIP3   OH240107   2.274   5.476   7.810 -0.0100 -0.0454  0.0691
 6183TIP3    H140108   2.296   5.463   7.718 -0.8082 -0.3264 -0.0927
 6183TIP3    H240109   2.204   5.541   7.809 -0.8954 -0.9703  0.3716
 6184TIP3   OH240110   6.392   2.949   7.247  0.6968  0.1246  0.0913
 6184TIP3    H140111   6.427   2.979   7.162 -0.6505  0.8944 -0.2235
 6184TIP3    H240112   6.303   2.922   7.227  0.8873 -1.2207  0.9880
 6185TIP3   OH240113   1.811   6.001   6.246  0.4946  0.2031  0.0479
 6185TIP3    H140114   1.826   5.906   6.251  0.7078  0.2239 -0.1711
 6185TIP3    H240115   1.870   6.031   6.177 -1.0462  0.1772 -1.3495
 6186TIP3   OH240116   3.916   2.795   8.112  0.4041  0.1401 -0.0165
 6186TIP3    H140117   3.934   2.818   8.203  0.0511 -1.7430  0.5598
 6186TIP3    H240118   3.852   2.724   8.117  1.4525 -0.9782 -1.6740
 6187TIP3   OH240119   4.399   2.425   8.195 -0.2532  0.5202  0.6106
 6187TIP3    H140120   4.409   2.495   8.131  1.1104 -1.6076 -1.6882
 6187TIP3    H240121   4.317   2.382   8.172 -0.3898  0.4992  1.1195
 6188TIP3   OH240122   2.635   3.189   7.530  0.6273  0.0278 -0.3120
 6188TIP3    H140123   2.634   3.108   7.479  1.6325  0.3881 -0.9418
 6188TIP3    H240124   2.593   3.253   7.473 -0.1629 -0.0379  0.1840
 6189TIP3   OH240125   3.320   6.172   6.851 -0.4915  0.2576 -0.4196
 6189TIP3    H140126   3.346   6.262   6.832  1.2697 -0.0179  0.5174
 6189TIP3    H240127   3.359   6.121   6.780  1.5486 -0.1358  0.8989
 6190TIP3   OH240128   1.490   3.132   7.882  0.8658  0.0438  0.2645
 6190TIP3    H140129   1.465   3.115   7.973 -0.6963  0.3049 -0.0944
 6190TIP3    H240130   1.424   3.193   7.850  1.9674  0.7279 -0.7657
 6191TIP3   OH240131   2.385   5.808   2.406 -0.2582 -0.0700 -0.3797
 6191TIP3    H140132   2.330   5.740   2.368 -0.2485  0.5649 -1.5808
 6191TIP3    H240133   2.461   5.812   2.349  1.7634 -1.8397  1.9681
 6192TIP3   OH240134   6.307   6.463   1.652  0.2958 -0.4892  0.4609
 6192TIP3    H140135   6.329   6.399   1.584 -0.6487 -0.8479  0.4806
 6192TIP3    H240136   6.389   6.477   1.699  0.6026 -1.4107  0.2167
 6193TIP3   OH240137   1.423   4.536   1.097  0.1170  0.1395 -0.2974
 6193TIP3    H140138   1.432   4.613   1.041 -2.3693  0.8164  0.0906
 6193TIP3    H240139   1.505   4.489   1.088  1.0226  1.9213 -1.9392
 6194TIP3   OH240140   2.830   5.865   1.842 -0.2194  0.2421  0.5680
 6194TIP3    H140141   2.860   5.924   1.910  1.4001 -1.4751  1.4160
 6194TIP3    H240142   2.748   5.829   1.875 -0.0112  0.2620  1.1055
 6195TIP3   OH240143   5.578   6.569   7.189  0.2588 -0.5619  0.0979
 6195TIP3    H140144   5.619   6.576   7.104 -2.3001  0.8235 -1.1481
 6195TIP3    H240145   5.592   6.654   7.230  0.4527 -0.8091  0.5524
 6196TIP3   OH240146   0.024   4.015   8.341 -0.1680 -0.6249  0.1191
 6196TIP3    H140147  -0.000   3.942   8.284 -0.0491 -1.4825  1.1324
 6196TIP3    H240148   0.085   3.977   8.405  1.2906  0.7485 -0.3723
 6197TIP3   OH240149   5.724   2.422   0.214 -0.4812  0.2110 -0.0601
 6197TIP3    H140150   5.630   2.413   0.201 -0.2651 -1.1414 -0.9335
 6197TIP3    H240151   5.763   2.355   0.157  1.0425  1.2113 -0.2634
 6198TIP3   OH240152   3.537   2.008   0.665 -0.7091 -0.5799 -0.4693
 6198TIP3    H140153   3.565   2.062   0.739 -1.0596 -2.3570  1.0256
 6198TIP3    H240154   3.502   2.070   0.602  1.1275  1.1583  0.1119
 6199TIP3   OH240155   2.830   4.903   1.557  0.4393 -0.4095  0.5262
 6199TIP3    H140156   2.771   4.830   1.539  1.1885 -1.0576  0.6554
 6199TIP3    H240157   2.784   4.980   1.522 -0.4414 -0.9064  0.5567
 6200TIP3   OH240158   1.126   4.414   1.012  0.1609  0.3120 -0.1107
 6200TIP3    H140159   1.203   4.469   1.033 -0.7115  1.7494 -0.5118
 6200TIP3    H240160   1.075   4.468   0.952 -0.3077 -1.3519 -1.2576
 6201TIP3   OH240161   3.763   3.534   7.272 -0.1504 -0.3854 -0.2505
 6201TIP3    H140162   3.714   3.479   7.333  0.9154 -0.2879  0.7232
 6201TIP3    H240163   3.806   3.471   7.213  2.0600 -0.7466  1.6145
 6202TIP3   OH240164   3.244   4.246   8.050 -0.4675 -0.5987 -0.0208
 6202TIP3    H140165   3.314   4.203   8.000  0.4839  0.6377  0.1967
 6202TIP3    H240166   3.178   4.269   7.985  0.3750  0.2363 -0.6054
 6203TIP3   OH240167   4.747   4.344   0.907  0.1850 -0.7215  0.0931
 6203TIP3    H140168   4.686   4.276   0.880  0.8358 -1.0827 -0.4893
 6203TIP3    H240169   4.694   4.424   0.909 -0.3660 -1.0725 -0.1551
 6204TIP3   OH240170   4.937   6.289   2.415  0.1831 -0.1252  0.0479
 6204TIP3    H140171   4.846   6.319   2.409 -0.1409 -0.8327  1.0605
 6204TIP3    H240172   4.930   6.198   2.445  1.2111 -0.3855 -0.4771
 6205TIP3   OH240173   3.117   2.778   7.593 -0.1985 -0.3131  0.0490
 6205TIP3    H140174   3.205   2.739   7.587  0.1215  0.4404 -0.3617
 6205TIP3    H240175   3.134   2.871   7.611 -0.9240 -0.2263  0.3025
 6206TIP3   OH240176   5.524   4.040   0.567  0.4329 -0.3584 -0.1193
 6206TIP3    H140177   5.432   4.014   0.559 -0.2384  2.3232 -2.4462
 6206TIP3    H240178   5.524   4.135   0.559  3.4994 -0.3183 -1.2029
 6207TIP3   OH240179   5.440   3.378   1.564  0.9181  0.3895 -0.6004
 6207TIP3    H140180   5.438   3.460   1.516 -0.5002  0.8212  0.1473
 6207TIP3    H240181   5.502   3.393   1.636  1.3006  0.5105 -0.9521
 6208TIP3   OH240182   6.564   3.099   2.430  0.1552 -0.5142 -0.1428
 6208TIP3    H140183   6.602   3.021   2.390 -0.5166 -1.0408  0.2200
 6208TIP3    H240184   6.561   3.163   2.359 -0.4157 -1.2227 -0.7773
 6209TIP3   OH240185   2.444   3.261   7.771  0.2107  0.0429 -0.5677
 6209TIP3    H140186   2.421   3.192   7.833  1.2397  0.3709  0.2137
 6209TIP3    H240187   2.506   3.221   7.711 -2.4960 -0.9562 -2.9198
 6210TIP3   OH240188   2.470   4.575   0.615 -0.0902  0.0664 -0.0076
 6210TIP3    H140189   2.565   4.574   0.609  0.1028 -0.7986  2.1510
 6210TIP3    H240190   2.441   4.611   0.532  2.2447  4.0004  0.6404
 6211TIP3   OH240191   1.725   5.708   2.023 -0.4277 -0.0821 -0.4534
 6211TIP3    H140192   1.689   5.653   2.093 -0.8316  1.3684  0.5087
 6211TIP3    H240193   1.796   5.655   1.986  0.3342 -0.5614  1.5915
 6212TIP3   OH240194   2.914   2.548   1.778  0.7734 -0.2512  0.4346
 6212TIP3    H140195   2.864   2.594   1.846  0.7914  1.4743 -0.6685
 6212TIP3    H240196   3.004   2.577   1.791  0.8177 -0.1164 -0.1666
 6213TIP3   OH240197   5.028   0.062   6.951 -0.0390 -0.1006 -0.2307
 6213TIP3    H140198   4.955   0.113   6.915  0.3779  0.0497 -0.8738
 6213TIP3    H240199   5.030  -0.018   6.897 -0.4055 -0.6004  0.4820
 6214TIP3   OH240200   1.925   5.864   7.660 -0.5542 -0.0577 -0.3256
 6214TIP3    H140201   1.968   5.804   7.599 -1.5808 -0.2521 -0.8672
 6214TIP3    H240202   1.833   5.839   7.660 -0.4845 -0.5385  1.8797
 6215TIP3   OH240203   5.508   0.524   7.421 -0.1622  0.0847 -0.2426
 6215TIP3    H140204   5.542   0.525   7.332  0.6101  0.3228  0.0492
 6215TIP3    H240205   5.490   0.432   7.439 -1.5431  0.1590 -1.0865
 6216TIP3   OH240206   4.595   2.266   1.943  0.1010 -0.0547 -0.1746
 6216TIP3    H140207   4.575   2.206   2.014  1.2554 -0.3181 -0.0671
 6216TIP3    H240208   4.514   2.268   1.891 -1.1264  0.8899  1.6395
 6217TIP3   OH240209   3.734   4.081   7.724 -0.3465 -0.2197 -0.2595
 6217TIP3    H140210   3.740   4.011   7.789 -1.3053 -2.2366 -2.2288
 6217TIP3    H240211   3.658   4.133   7.751  0.2187 -0.0331  1.0742
 6218TIP3   OH240212   2.365   4.857   7.214  0.0305  0.0701  0.6225
 6218TIP3    H140213   2.389   4.768   7.189 -0.0942 -0.2509  1.5961
 6218TIP3    H240214   2.447   4.906   7.210 -0.1574  0.2939 -1.3915
 6219TIP3   OH240215   5.519   0.875   6.396  0.0492 -0.3131 -0.2292
 6219TIP3    H140216   5.565   0.801   6.356  0.1586  0.8519 -2.4485
 6219TIP3    H240217   5.431   0.841   6.414  0.7879 -1.6433  1.0678
 6220TIP3   OH240218   2.726   1.184   7.410  0.0171  0.0014 -0.2578
 6220TIP3    H140219   2.636   1.199   7.382 -0.2721 -0.8655  0.1535
 6220TIP3    H240220   2.780   1.229   7.345 -0.6849 -0.3839 -1.1200
 6221TIP3   OH240221   0.613   4.875   7.166  0.1262  0.6094  0.3610
 6221TIP3    H140222   0.617   4.785   7.199 -0.3092  0.3150 -0.3471
 6221TIP3    H240223   0.682   4.921   7.212  0.5270 -0.1625  0.5432
 6222TIP3   OH240224   3.775   2.573   8.622 -0.0237 -0.1839 -0.5825
 6222TIP3    H140225   3.830   2.621   8.683 -0.6187 -0.4683  0.1884
 6222TIP3    H240226   3.737   2.502   8.673  0.3069 -1.0763 -1.5456
 6223TIP3   OH240227   1.170   6.048   0.552  0.1210  0.1999 -0.4066
 6223TIP3    H140228   1.115   5.986   0.504  1.3816 -0.9816 -0.3891
 6223TIP3    H240229   1.190   6.117   0.489  1.4320 -1.1325 -1.5130
 6224TIP3   OH240230   0.208   2.281   7.617  0.0904  0.3169 -0.0756
 6224TIP3    H140231   0.160   2.254   7.696 -1.1979  0.3772 -0.8004
 6224TIP3    H240232   0.267   2.208   7.600 -0.0250  0.0461  0.6239
 6225TIP3   OH240233   4.015   5.473   2.018  0.4136 -0.4714  0.1847
 6225TIP3    H140234   4.039   5.509   2.103  1.2820 -0.5081 -0.0348
 6225TIP3    H240235   4.091   5.490   1.962  0.0666 -0.9166 -0.4390
 6226TIP3   OH240236   2.703   0.288   6.227  0.0112 -0.1156 -0.1130
 6226TIP3    H140237   2.660   0.209   6.260  0.2389 -0.6501 -1.0626
 6226TIP3    H240238   2.632   0.342   6.194 -0.1762  0.2271  0.8360
 6227TIP3   OH240239   5.700   0.152   7.437 -0.6213  0.1034 -0.4122
 6227TIP3    H140240   5.779   0.204   7.425 -0.5367  0.3766  1.0579
 6227TIP3    H240241   5.698   0.134   7.531 -2.2561  0.0359 -0.4354
 6228TIP3   OH240242   0.251   1.610   7.681 -0.1960 -0.3351 -0.5826
 6228TIP3    H140243   0.245   1.679   7.614 -3.6162 -0.6671 -0.8046
 6228TIP3    H240244   0.232   1.530   7.633  1.4691 -1.1812  0.1070
 6229TIP3   OH240245   1.070   0.559   6.158 -0.8940  0.3348 -0.6740
 6229TIP3    H140246   1.037   0.629   6.215 -0.2161  0.0191  0.1246
 6229TIP3    H240247   1.162   0.551   6.181 -1.0041 -0.9554 -0.6050
 6230TIP3   OH240248   5.064   0.634   8.119  0.2022 -0.5133  0.5670
 6230TIP3    H140249   5.037   0.689   8.045  0.7508 -0.8469  0.1057
 6230TIP3    H240250   4.994   0.645   8.184  0.6056  1.2026  0.7521
 6231TIP3   OH240251   5.760   1.101   1.034  0.0656 -0.0189 -0.4118
 6231TIP3    H140252   5.690   1.164   1.024 -0.2912 -0.3867 -0.2668
 6231TIP3    H240253   5.738   1.030   0.973  0.3293 -0.1168 -0.3964
 6232TIP3   OH240254   6.343   0.635   6.925 -0.1795 -0.1724  0.5687
 6232TIP3    H140255   6.387   0.698   6.867  0.4618 -1.8560 -0.8974
 6232TIP3    H240256   6.371   0.659   7.013  0.8891  0.9245 -0.0409
 6233TIP3   OH240257   4.092   0.488   0.660  0.1698  0.8110  0.5790
 6233TIP3    H140258   4.132   0.520   0.741  0.3767 -1.0905  1.2800
 6233TIP3    H240259   4.154   0.512   0.591  1.5014 -0.2227  1.3853
 6234TIP3   OH240260   2.332   3.140   0.795  0.1462 -0.1516 -0.1454
 6234TIP3    H140261   2.337   3.231   0.765  3.7829  0.3395  1.3202
 6234TIP3    H240262   2.367   3.088   0.722 -1.0919 -0.3047 -0.6477
 6235TIP3   OH240263   3.273   6.487   7.695 -0.0042 -0.1188 -0.2532
 6235TIP3    H140264   3.307   6.452   7.778 -0.4482 -0.5378 -0.2422
 6235TIP3    H240265   3.334   6.556   7.671  0.4378 -0.3686  0.1431
 6236TIP3   OH240266   3.562   2.460   8.458 -0.3166  0.4021  0.0954
 6236TIP3    H140267   3.646   2.494   8.487  0.0103 -0.5628  0.3351
 6236TIP3    H240268   3.548   2.382   8.512 -0.2677 -0.7526 -1.4849
 6237TIP3   OH240269   0.429   1.329   0.640 -0.4528  0.3016  0.3384
 6237TIP3    H140270   0.493   1.320   0.570  1.1493 -0.5293  1.8277
 6237TIP3    H240271   0.367   1.258   0.625  0.0440 -0.0556 -0.0497
 6238TIP3   OH240272   2.517   1.646   1.989  0.0509 -0.0793  0.3676
 6238TIP3    H140273   2.500   1.741   1.993 -0.5828 -0.0376 -1.8702
 6238TIP3    H240274   2.565   1.627   2.069 -1.8369  1.6975  2.0590
 6239TIP3   OH240275   6.395   3.622   7.311  0.5718  0.1777  0.6369
 6239TIP3    H140276   6.363   3.616   7.221  2.5942 -0.7338 -0.0892
 6239TIP3    H240277   6.326   3.583   7.364 -1.0040  1.4424 -0.3950
 6240TIP3   OH240278   4.160   3.325   8.157 -0.2527  0.8370 -0.0866
 6240TIP3    H140279   4.232   3.379   8.122 -0.0812  0.1815 -0.7861
 6240TIP3    H240280   4.120   3.287   8.079  0.2613 -0.8404  0.4183
 6241TIP3   OH240281   0.064   1.159   6.846 -0.0805  0.2703 -0.4669
 6241TIP3    H140282   0.114   1.235   6.817  0.4152 -0.2458 -0.9896
 6241TIP3    H240283  -0.025   1.175   6.816  0.2210  0.2033 -1.4338
 6242TIP3   OH240284   0.814   2.666   1.886 -0.1472  0.1070  0.0448
 6242TIP3    H140285   0.741   2.671   1.824  0.4310  0.4288 -0.6188
 6242TIP3    H240286   0.781   2.712   1.964 -0.1378  1.6194 -0.7926
 6243TIP3   OH240287   6.373   1.204   0.216  0.3096 -0.1610 -0.0278
 6243TIP3    H140288   6.431   1.235   0.286 -0.5602  3.4070 -0.6472
 6243TIP3    H240289   6.404   1.251   0.138 -2.2384  0.4970 -0.7373
 6244TIP3   OH240290   2.291   1.776   7.534 -0.6158  0.8926  0.1452
 6244TIP3    H140291   2.335   1.691   7.532 -0.1952  1.1181 -1.0518
 6244TIP3    H240292   2.205   1.759   7.496 -0.9392  0.7896  0.9170
 6245TIP3   OH240293   2.063   5.433   1.436 -0.4079 -0.1325  0.0328
 6245TIP3    H140294   2.097   5.514   1.397  1.4231 -0.9211 -0.0979
 6245TIP3    H240295   2.057   5.372   1.362 -0.2312 -0.5914  0.3928
 6246TIP3   OH240296   1.343   2.011   7.531 -0.1651 -0.0860  0.3064
 6246TIP3    H140297   1.266   2.067   7.541 -0.8760 -0.7697 -1.0202
 6246TIP3    H240298   1.390   2.048   7.456 -0.1828 -0.7239 -0.0336
 6247TIP3   OH240299   3.810   6.121   8.334  0.3781 -0.2007 -0.2315
 6247TIP3    H140300   3.873   6.118   8.406  2.1318 -0.8672 -1.7132
 6247TIP3    H240301   3.802   6.214   8.313 -1.0395  0.1201  1.5006
 6248TIP3   OH240302   3.830   0.020   8.601 -0.4399  0.4676 -0.1187
 6248TIP3    H140303   3.831   0.105   8.646  2.1665  0.9979 -1.0306
 6248TIP3    H240304   3.893   0.030   8.529 -1.2823 -1.7377 -1.2537
 6249TIP3   OH240305   6.170   6.194   2.074  0.0543 -0.6098 -0.0726
 6249TIP3    H140306   6.260   6.201   2.108 -0.3506 -0.5907  1.0239
 6249TIP3    H240307   6.174   6.235   1.988  1.3562 -1.6256 -0.5277
 6250TIP3   OH240308   6.861   0.914   2.562  0.0396 -0.8795  0.0083
 6250TIP3    H140309   6.887   0.858   2.634  2.3416  1.1062  0.8325
 6250TIP3    H240310   6.879   0.862   2.483  3.8032 -0.8072  0.6628
 6251TIP3   OH240311   3.995   5.778   1.052  0.2244 -0.4204  0.0540
 6251TIP3    H140312   4.077   5.757   1.096 -0.8047 -2.5020  1.0971
 6251TIP3    H240313   3.929   5.780   1.122 -1.2424 -2.6188 -1.1418
 6252TIP3   OH240314   5.996   5.950   8.538 -0.2497  0.2434 -0.4787
 6252TIP3    H140315   6.047   5.989   8.467  2.6011  0.5030  1.5270
 6252TIP3    H240316   6.010   6.009   8.613 -0.3140 -1.7498  1.2013
 6253TIP3   OH240317   6.714   1.650   8.108  0.6460 -0.1868  0.5245
 6253TIP3    H140318   6.648   1.704   8.063  0.4975  0.0983  1.0708
 6253TIP3    H240319   6.730   1.577   8.049  0.7903  0.4234 -0.1964
 6254TIP3   OH240320   0.231   0.061   0.480  0.7375 -0.0883 -0.0859
 6254TIP3    H140321   0.305   0.088   0.425  0.9752 -1.3287 -0.3952
 6254TIP3    H240322   0.168   0.024   0.418  0.0962  0.4201  0.2496
 6255TIP3   OH240323   2.483   5.691   1.554  0.8869  0.0579 -0.8546
 6255TIP3    H140324   2.417   5.669   1.489  2.7324  0.1077 -2.8350
 6255TIP3    H240325   2.507   5.607   1.593 -0.4802  0.0667  0.1046
 6256TIP3   OH240326   6.109   0.462   1.471  0.2735  0.4367 -0.0603
 6256TIP3    H140327   6.025   0.422   1.451 -0.2022  1.9194 -1.2001
 6256TIP3    H240328   6.104   0.551   1.434  1.6618  1.2030  1.4295
 6257TIP3   OH240329   0.902   4.963   7.132  0.3764 -0.1492 -0.1637
 6257TIP3    H140330   0.913   5.048   7.089 -0.0513  1.0075  1.8760
 6257TIP3    H240331   0.964   4.906   7.087 -0.2940  0.8339 -2.5246
 6258TIP3   OH240332   0.332   3.233   0.066 -0.1851 -0.2053 -0.3220
 6258TIP3    H140333   0.400   3.280   0.114  0.1254 -0.5982 -0.3694
 6258TIP3    H240334   0.254   3.240   0.120  0.0560 -0.2856  0.0385
 6259TIP3   OH240335   2.871   1.580   0.647  0.1649  0.0220 -0.4646
 6259TIP3    H140336   2.807   1.524   0.602  0.4273 -1.4887  0.9581
 6259TIP3    H240337   2.835   1.590   0.735  1.4902 -0.2100  0.1181
 6260TIP3   OH240338   3.327   0.562   7.000  0.3690 -0.0659  0.2653
 6260TIP3    H140339   3.284   0.482   6.971  2.8539 -0.8405 -1.6522
 6260TIP3    H240340   3.419   0.550   6.976  1.1150  2.7357  1.3131
 6261TIP3   OH240341   2.122   2.925   6.246  0.3543 -0.2108 -0.0160
 6261TIP3    H140342   2.032   2.954   6.262  0.4574  1.0134 -1.3556
 6261TIP3    H240343   2.124   2.834   6.274 -1.0272  0.0299  0.9632
 6262TIP3   OH240344   0.611   4.468   1.676  0.4861  0.5573 -0.1212
 6262TIP3    H140345   0.616   4.384   1.630  0.0702 -1.1562  2.7470
 6262TIP3    H240346   0.682   4.520   1.638  2.2763 -1.9425 -0.4404
 6263TIP3   OH240347   5.353   1.162   1.294  0.2103  0.5115 -0.1009
 6263TIP3    H140348   5.355   1.128   1.383  1.9172 -1.0426 -0.6778
 6263TIP3    H240349   5.268   1.204   1.286 -0.4079 -0.2628  1.9139
 6264TIP3   OH240350   4.797   0.509   0.773 -0.7992  0.4166  0.5074
 6264TIP3    H140351   4.875   0.453   0.775 -0.8377  0.3493  2.9254
 6264TIP3    H240352   4.822   0.584   0.720  0.5900 -0.0388  0.4853
 6265TIP3   OH240353   6.229   3.334   8.457  0.1755 -0.5757 -0.1595
 6265TIP3    H140354   6.143   3.323   8.415 -0.0088  1.6355 -0.5071
 6265TIP3    H240355   6.283   3.375   8.389  1.2322 -1.1053  0.3527
 6266TIP3   OH240356   4.229   5.696   8.099  0.0983  0.5616  0.1810
 6266TIP3    H140357   4.279   5.619   8.072  1.0459  1.1248  0.2513
 6266TIP3    H240358   4.284   5.738   8.165 -0.2293  1.4763 -0.1056
 6267TIP3   OH240359   0.894   0.296   7.377 -0.2072 -0.1546  0.2910
 6267TIP3    H140360   0.841   0.311   7.298  1.3630  0.6530 -0.6637
 6267TIP3    H240361   0.899   0.382   7.418  0.5910 -0.1607  0.2131
 6268TIP3   OH240362   5.327   6.460   8.459 -0.1096  0.2983  0.2767
 6268TIP3    H140363   5.321   6.436   8.552 -1.0337  1.4731  0.5428
 6268TIP3    H240364   5.280   6.543   8.453  0.4298  0.5199 -1.1485
 6269TIP3   OH240365   2.776   2.527   0.532  0.2378 -0.2769  0.5797
 6269TIP3    H140366   2.755   2.516   0.440  0.7370  1.0887  0.2723
 6269TIP3    H240367   2.863   2.489   0.542  0.2655 -0.2484  0.4440
 6270TIP3   OH240368   3.027   5.920   1.648  0.4290 -0.0655  0.4110
 6270TIP3    H140369   3.084   5.978   1.699  1.6242 -1.4829  0.7397
 6270TIP3    H240370   2.954   5.900   1.707  0.8016 -0.1343  0.8536
 6271TIP3   OH240371   5.777   3.715   1.930  0.2454  0.0120 -0.2265
 6271TIP3    H140372   5.688   3.738   1.956  0.4342  0.3135  0.1665
 6271TIP3    H240373   5.829   3.722   2.010  0.7114  0.2983 -0.5411
 6272TIP3   OH240374   0.728   2.143   1.310  0.1770 -0.0228 -0.0064
 6272TIP3    H140375   0.706   2.063   1.261  1.0349  0.7196 -1.6701
 6272TIP3    H240376   0.775   2.111   1.388  0.8843 -1.1244 -0.8598
 6273TIP3   OH240377   5.175   5.780   1.384  0.2029  0.2461 -0.7075
 6273TIP3    H140378   5.163   5.763   1.477  2.4717  0.7444 -0.2565
 6273TIP3    H240379   5.096   5.745   1.342  0.0160 -1.7968  1.1839
 6274TIP3   OH240380   1.475   6.389   7.839  0.4225 -0.7083 -0.5665
 6274TIP3    H140381   1.414   6.461   7.821  1.7047  0.8845  1.0150
 6274TIP3    H240382   1.496   6.399   7.932  3.7579 -0.5680 -1.2048
 6275TIP3   OH240383   5.994   0.568   0.606  0.1274 -0.2424 -0.1844
 6275TIP3    H140384   6.074   0.542   0.652  0.4629  0.2446 -0.4896
 6275TIP3    H240385   5.928   0.574   0.675  0.2966 -0.8721  0.0348
 6276TIP3   OH240386   4.721   3.678   0.141  0.5550  0.0907  0.5383
 6276TIP3    H140387   4.792   3.670   0.079  0.0168 -0.3920 -0.0323
 6276TIP3    H240388   4.678   3.592   0.140  0.0690  0.3184  0.9877
 6277TIP3   OH240389   2.130   6.649   8.223 -0.1593 -0.6674  0.6445
 6277TIP3    H140390   2.069   6.722   8.232 -1.0751 -1.2471 -0.5778
 6277TIP3    H240391   2.188   6.657   8.299  0.2427  1.7465  0.1575
 6278TIP3   OH240392   4.343   2.587   1.939 -0.6143  0.3634 -0.3626
 6278TIP3    H140393   4.354   2.513   1.878  0.6214 -0.1925  0.4991
 6278TIP3    H240394   4.310   2.547   2.019 -0.9040  0.8935 -0.2179
 6279TIP3   OH240395   5.618   0.618   1.014 -0.0268 -0.1657 -0.6945
 6279TIP3    H140396   5.579   0.699   1.048  0.8853  0.6276 -1.4608
 6279TIP3    H240397   5.605   0.554   1.083  1.0473  1.1830  0.8280
 6280TIP3   OH240398   0.113   0.808   8.250  0.6888  0.2991  0.0367
 6280TIP3    H140399   0.039   0.866   8.233  1.0916  0.7172 -0.3189
 6280TIP3    H240400   0.181   0.838   8.190  1.2493  0.1115  0.5703
 6281TIP3   OH240401   3.570   6.329   1.483  0.1882 -0.5344  0.6306
 6281TIP3    H140402   3.650   6.381   1.486 -0.3152  0.2428  0.7009
 6281TIP3    H240403   3.561   6.303   1.391 -0.0923  0.3439  0.4078
 6282TIP3   OH240404   4.015   2.388   0.883  0.4692 -0.0983  0.0029
 6282TIP3    H140405   4.074   2.339   0.940  1.3024  0.2020 -0.5794
 6282TIP3    H240406   3.937   2.403   0.936  1.3807  0.5308  1.1913
 6283TIP3   OH240407   0.462   1.068   0.925  0.7467 -0.1797  0.3393
 6283TIP3    H140408   0.409   0.993   0.952 -0.4860  0.8739  0.9524
 6283TIP3    H240409   0.551   1.033   0.915  0.1271 -1.7816  0.2347
 6284TIP3   OH240410   0.050   4.905   0.757 -0.3757  0.0778  0.2687
 6284TIP3    H140411  -0.017   4.973   0.764 -1.0696 -0.6600  1.0304
 6284TIP3    H240412   0.029   4.844   0.828  2.1801  0.7452  1.7310
 6285TIP3   OH240413   3.212   3.348   7.897 -0.4815  0.3462 -0.2863
 6285TIP3    H140414   3.173   3.435   7.894 -0.6674  0.3193  0.8560
 6285TIP3    H240415   3.163   3.297   7.833 -1.0537  0.8118 -0.2237
 6286TIP3   OH240416   6.725   5.539   6.417 -0.3833 -0.3833  0.2458
 6286TIP3    H140417   6.818   5.541   6.442 -0.1087  0.8314 -0.7845
 6286TIP3    H240418   6.721   5.474   6.346 -0.3254 -0.4833  0.3341
 6287TIP3   OH240419   1.906   6.169   8.068 -0.3365 -0.4134  0.3070
 6287TIP3    H140420   1.857   6.089   8.048 -0.6700 -0.1802  0.1776
 6287TIP3    H240421   1.855   6.239   8.026  1.0267 -0.3405 -1.3494
 6288TIP3   OH240422   1.569   6.485   0.807 -0.0469 -0.0122 -0.0249
 6288TIP3    H140423   1.570   6.555   0.741  1.8682 -0.3129 -0.3604
 6288TIP3    H240424   1.483   6.444   0.796  0.0119  0.2671 -2.0075
 6289TIP3   OH240425   3.698   5.313   7.997 -0.0943 -0.8355  0.4064
 6289TIP3    H140426   3.692   5.381   8.064  0.3556 -1.1084  0.7282
 6289TIP3    H240427   3.770   5.341   7.940  0.5394 -1.3735  0.9277
 6290TIP3   OH240428   5.158   4.111   7.351  0.0880 -0.1181  0.1961
 6290TIP3    H140429   5.149   4.203   7.376  0.8265 -0.2415  0.9687
 6290TIP3    H240430   5.099   4.101   7.276  0.6596  1.1998 -0.4659
 6291TIP3   OH240431   3.195   0.561   8.358 -0.8098 -0.4498 -0.7982
 6291TIP3    H140432   3.176   0.477   8.401 -1.5105 -1.2650 -2.6146
 6291TIP3    H240433   3.116   0.613   8.371 -0.0043  0.3607  1.2008
 6292TIP3   OH240434   5.047   6.803   0.255 -0.1452 -0.1842  0.2071
 6292TIP3    H140435   5.127   6.792   0.305 -0.4591 -1.8389  0.4188
 6292TIP3    H240436   5.058   6.885   0.208  1.5276 -0.2186  0.4955
 6293TIP3   OH240437   3.974   4.102   1.468 -0.2244  0.0470 -0.2683
 6293TIP3    H140438   3.941   4.028   1.417 -0.5001 -0.7711  1.0477
 6293TIP3    H240439   4.068   4.084   1.478  0.2303  1.1873 -2.0471
 6294TIP3   OH240440   3.659   6.597   7.145 -0.2741  0.0139  0.1373
 6294TIP3    H140441   3.636   6.674   7.093  1.8440  0.5303 -0.1336
 6294TIP3    H240442   3.729   6.555   7.096  0.4143 -0.6034  1.5907
 6295TIP3   OH240443   2.615   6.515   7.611 -0.2050 -0.0376  0.3793
 6295TIP3    H140444   2.582   6.432   7.648 -1.2380  0.9728  1.8693
 6295TIP3    H240445   2.638   6.567   7.688  1.4245  0.7074 -0.5650
 6296TIP3   OH240446   2.928   4.915   1.258 -0.1304  0.1024 -0.4742
 6296TIP3    H140447   2.937   5.007   1.283  0.4945 -0.2184  0.5611
 6296TIP3    H240448   2.854   4.913   1.198  1.2848  1.6094 -2.3691
 6297TIP3   OH240449   4.216   6.370   6.264 -0.9460 -0.2159  0.4188
 6297TIP3    H140450   4.207   6.278   6.241 -1.7383  0.2778 -1.4006
 6297TIP3    H240451   4.173   6.417   6.193 -0.1226  1.5858  1.0541
 6298TIP3   OH240452   4.139   4.083   0.639 -0.2760  0.2423  0.8121
 6298TIP3    H140453   4.048   4.069   0.667 -0.7992  2.3777  0.3239
 6298TIP3    H240454   4.131   4.118   0.550  1.0670 -0.0380  0.5704
 6299TIP3   OH240455   1.661   3.564   6.216  0.2056  0.9503  0.1916
 6299TIP3    H140456   1.648   3.601   6.304  0.4863  2.2538 -0.2902
 6299TIP3    H240457   1.714   3.630   6.170  2.4306 -0.9305 -0.1236
 6300TIP3   OH240458   0.694   1.282   0.087  0.6671 -0.6147  0.1918
 6300TIP3    H140459   0.687   1.192   0.056  1.4673 -0.4697 -0.4255
 6300TIP3    H240460   0.608   1.321   0.068  1.1753 -0.4905 -2.0244
 6301TIP3   OH240461   5.505   3.483   7.461  0.0470  0.3460 -0.7728
 6301TIP3    H140462   5.566   3.515   7.528  2.6759  0.0708 -2.8459
 6301TIP3    H240463   5.489   3.559   7.405 -0.6378  0.1267 -0.8834
 6302TIP3   OH240464   2.227   4.927   7.441  0.8147 -0.4805  0.1382
 6302TIP3    H140465   2.138   4.938   7.407  0.8803  1.9597  0.5535
 6302TIP3    H240466   2.281   4.913   7.363  0.2297 -0.7270 -0.2276
 6303TIP3   OH240467   1.591   5.592   1.768  0.3384  0.2400  0.4553
 6303TIP3    H140468   1.592   5.506   1.811  1.5130  0.5090  0.9991
 6303TIP3    H240469   1.670   5.593   1.714 -0.4727  0.3946 -0.7728
 6304TIP3   OH240470   6.157   2.944   7.943 -0.4597  0.1623 -0.2201
 6304TIP3    H140471   6.166   3.012   7.876 -0.7865 -0.1962 -0.6305
 6304TIP3    H240472   6.072   2.905   7.926  0.3732 -1.4145 -0.9865
 6305TIP3   OH240473   4.124   2.567   0.038  0.2831 -0.3221  0.2293
 6305TIP3    H140474   4.125   2.662   0.043  0.8937 -0.2112 -1.3233
 6305TIP3    H240475   4.175   2.547  -0.040 -2.4941 -1.7569 -1.3968
 6306TIP3   OH240476   6.843   1.973   8.597  0.3510  0.3228 -0.2785
 6306TIP3    H140477   6.903   1.898   8.595 -0.3577 -0.3424  1.4515
 6306TIP3    H240478   6.762   1.939   8.557  0.4182  0.5455 -0.6054
 6307TIP3   OH240479   5.171   6.304   1.444 -0.6329  0.3316 -0.1662
 6307TIP3    H140480   5.234   6.252   1.494 -2.2298 -0.8329  0.7119
 6307TIP3    H240481   5.202   6.394   1.454  1.1918 -0.2412 -0.2289
 6308TIP3   OH240482   2.090   0.027   7.333  0.9025  0.3414 -0.1376
 6308TIP3    H140483   2.059   0.050   7.246  1.4713 -0.2975 -0.5202
 6308TIP3    H240484   2.016  -0.018   7.374 -0.1313  2.5085  0.5259
 6309TIP3   OH240485   6.825   4.470   2.417 -0.0814  0.1100 -0.3907
 6309TIP3    H140486   6.760   4.540   2.424 -0.6978 -0.5586  0.8865
 6309TIP3    H240487   6.909   4.513   2.433 -0.3640  0.7140 -0.5165
 6310TIP3   OH240488   5.470   6.745   8.362  0.3971  0.2612  0.5571
 6310TIP3    H140489   5.539   6.810   8.377  1.2809 -1.1570  3.2585
 6310TIP3    H240490   5.517   6.662   8.353 -0.8091 -0.2965 -1.1869
 6311TIP3   OH240491   1.594   2.572   7.950 -0.1644 -0.3181  0.4209
 6311TIP3    H140492   1.605   2.558   7.856 -0.9234 -0.9632  0.4162
 6311TIP3    H240493   1.511   2.529   7.971 -0.3850  0.4913  1.2485
 6312TIP3   OH240494   2.188   1.325   1.462 -0.1805 -1.0996  0.4075
 6312TIP3    H140495   2.266   1.377   1.484 -0.1605  0.3443 -2.5777
 6312TIP3    H240496   2.161   1.286   1.545  1.0738  1.9920  2.4547
 6313TIP3   OH240497   0.350   3.593   7.108 -0.8433  0.5757  0.1395
 6313TIP3    H140498   0.307   3.531   7.167  1.1646  0.2853  1.3983
 6313TIP3    H240499   0.363   3.544   7.027 -1.2846  0.0949  0.3523
 6314TIP3   OH240500   2.049   0.380   1.731 -0.1557  0.1258  0.5087
 6314TIP3    H140501   1.997   0.306   1.701 -1.8000  1.7478 -0.9008
 6314TIP3    H240502   2.054   0.438   1.654  1.3239  1.3269  1.4656
 6315TIP3   OH240503   4.726   0.807   1.960  0.1469  0.2063 -0.0409
 6315TIP3    H140504   4.662   0.818   2.030  0.6261  1.2217  0.2488
 6315TIP3    H240505   4.803   0.855   1.990  1.2939 -1.4956 -0.0939
 6316TIP3   OH240506   5.348   5.809   2.405 -0.3695  0.0469 -0.7648
 6316TIP3    H140507   5.295   5.889   2.409  0.7866  0.8654 -1.2048
 6316TIP3    H240508   5.427   5.830   2.453  1.7648  0.6609 -4.2249
 6317TIP3   OH240509   0.233   4.484   7.698  0.4928  0.3833 -0.0159
 6317TIP3    H140510   0.249   4.396   7.664  0.0578  0.5318 -0.6148
 6317TIP3    H240511   0.229   4.540   7.621  0.6325  0.9086  0.3524
 6318TIP3   OH240512   2.219   4.105   0.111 -0.4074  0.2674 -0.1156
 6318TIP3    H140513   2.248   4.027   0.063  1.4381  0.9562 -0.1614
 6318TIP3    H240514   2.160   4.150   0.050  0.5575  0.2399 -1.0860
 6319TIP3   OH240515   6.194   5.242   7.701 -0.2937  0.6798 -0.0526
 6319TIP3    H140516   6.153   5.290   7.773 -2.1617 -0.2022 -0.4912
 6319TIP3    H240517   6.162   5.153   7.709  3.3061 -0.7195  0.8928
 6320TIP3   OH240518   3.923   0.418   0.969  0.2842  0.5551  0.8505
 6320TIP3    H140519   4.016   0.426   0.945  0.5263 -1.2266  1.0383
 6320TIP3    H240520   3.923   0.425   1.065  0.2240  0.5611  0.8500
 6321TIP3   OH240521   4.519   5.816   0.108  0.5106 -0.1348  0.3344
 6321TIP3    H140522   4.478   5.730   0.113 -0.1243  0.1545  0.0980
 6321TIP3    H240523   4.603   5.805   0.153  0.2064 -0.7434  0.7661
 6322TIP3   OH240524   3.508   2.215   8.643 -0.4173 -0.3161  0.2136
 6322TIP3    H140525   3.436   2.255   8.692 -0.2301  1.4279 -0.8523
 6322TIP3    H240526   3.465   2.146   8.591 -1.1736  0.0963  0.2739
 6323TIP3   OH240527   2.530   5.746   0.497  0.3015 -0.2324  0.2424
 6323TIP3    H140528   2.525   5.841   0.504  0.3211 -0.2237  0.1456
 6323TIP3    H240529   2.594   5.720   0.563  1.3885 -0.0446 -0.7049
 6324TIP3   OH240530   0.665   0.273   1.152  0.2823 -0.5115 -0.0526
 6324TIP3    H140531   0.710   0.229   1.079  0.4575  0.1489 -0.3499
 6324TIP3    H240532   0.645   0.360   1.119  1.7907  0.3613  1.2263
 6325TIP3   OH240533   0.539   5.518   7.650  0.0207 -0.4975  0.2347
 6325TIP3    H140534   0.537   5.423   7.644 -1.0239 -0.6333  1.8121
 6325TIP3    H240535   0.467   5.547   7.595 -1.2744 -0.8330  1.6616
 6326TIP3   OH240536   1.939   5.654   8.001 -0.0835  0.1449  0.2355
 6326TIP3    H140537   1.991   5.596   8.057 -1.2663  0.5252  1.7873
 6326TIP3    H240538   1.849   5.625   8.013 -0.2687 -1.6977 -3.7950
 6327TIP3   OH240539   2.587   0.942   2.644 -0.0235 -0.6480 -0.2337
 6327TIP3    H140540   2.603   0.990   2.563  1.3670 -1.2962 -0.3620
 6327TIP3    H240541   2.491   0.943   2.654 -0.1042  0.8681 -0.9840
 6328TIP3   OH240542   5.472   4.831   8.295  0.0904 -0.1874 -0.4186
 6328TIP3    H140543   5.403   4.858   8.235 -1.2881 -0.9603  0.7648
 6328TIP3    H240544   5.469   4.896   8.365  0.2558 -0.4915 -0.1309
 6329TIP3   OH240545   2.048   0.848   1.159  0.0207  0.8576  0.1788
 6329TIP3    H140546   1.983   0.829   1.091  0.0179  1.1204  0.1080
 6329TIP3    H240547   2.116   0.781   1.147  0.8141  1.8345 -1.1106
 6330TIP3   OH240548   4.681   2.336   0.161 -0.0443 -0.1065  0.4249
 6330TIP3    H140549   4.633   2.287   0.093  0.0336 -0.5229  0.6652
 6330TIP3    H240550   4.657   2.293   0.243  0.3262  0.0198  0.6018
 6331TIP3   OH240551   3.879   4.705   2.037  0.4294  0.4682 -0.7507
 6331TIP3    H140552   3.926   4.746   1.964  1.4773 -1.7781 -1.4294
 6331TIP3    H240553   3.946   4.695   2.105  0.3039 -0.3840 -0.7392
 6332TIP3   OH240554   1.186   2.245   7.636  0.2327  0.2596  0.1823
 6332TIP3    H140555   1.175   2.193   7.716  0.9103  1.0985  0.8304
 6332TIP3    H240556   1.096   2.257   7.603  0.0575 -1.4516 -0.1023
 6333TIP3   OH240557   0.798   1.839   1.036  0.0264  0.1537 -0.4488
 6333TIP3    H140558   0.787   1.754   1.079  1.6350  0.3335  0.4037
 6333TIP3    H240559   0.709   1.872   1.024 -0.7380 -2.1907 -1.9963
 6334TIP3   OH240560   2.637   0.011   1.732 -0.4050  0.3810 -0.5340
 6334TIP3    H140561   2.569  -0.056   1.726 -1.4349  1.0631  2.0219
 6334TIP3    H240562   2.593   0.085   1.775  2.0933  0.5514  1.9649
 6335TIP3   OH240563   4.946   3.752   8.636  0.3777 -0.6791  0.5124
 6335TIP3    H140564   4.950   3.810   8.559  0.9216 -1.8568 -0.3729
 6335TIP3    H240565   4.941   3.812   8.710  1.7303  0.5494 -0.3277
 6336TIP3   OH240566   2.390   1.510   1.491  0.0007 -0.5757 -0.3574
 6336TIP3    H140567   2.406   1.589   1.542  1.8861 -1.1971  0.0696
 6336TIP3    H240568   2.460   1.508   1.426 -0.3946 -1.5623 -0.7725
 6337TIP3   OH240569   6.707   5.010   6.268 -0.6517 -0.2395  0.5768
 6337TIP3    H140570   6.769   4.947   6.304  0.8329  0.2719 -0.9401
 6337TIP3    H240571   6.750   5.095   6.280 -1.0404  0.1296 -0.4969
 6338TIP3   OH240572   1.485   6.288   1.746  0.2396  0.5518 -0.1277
 6338TIP3    H140573   1.434   6.246   1.677  1.1479 -1.3600  0.2936
 6338TIP3    H240574   1.479   6.382   1.727 -1.2749  0.2084 -1.5444
 6339TIP3   OH240575   0.932   6.501   1.837 -0.2483  0.4038  0.3148
 6339TIP3    H140576   0.857   6.552   1.804  1.3228  0.6374 -3.3861
 6339TIP3    H240577   0.996   6.567   1.864  0.2295  0.3327 -0.6144
 6340TIP3   OH240578   5.771   2.196   0.611  0.1761 -0.2361 -0.1872
 6340TIP3    H140579   5.782   2.118   0.666 -1.3079  1.1244  2.2032
 6340TIP3    H240580   5.677   2.198   0.591 -0.0287  1.5225  0.7999
 6341TIP3   OH240581   2.950   6.238   7.159 -0.8353 -0.4516  0.7475
 6341TIP3    H140582   2.969   6.254   7.251 -0.0751 -0.8125  0.6683
 6341TIP3    H240583   2.857   6.218   7.156 -0.6337 -1.6633  1.6188
 6342TIP3   OH240584   2.085   4.026   1.286 -0.5965  0.4196 -0.7589
 6342TIP3    H140585   2.058   4.096   1.346  1.0559 -0.1118  0.6956
 6342TIP3    H240586   2.040   3.948   1.319  0.1995  0.1566 -0.2501
 6343TIP3   OH240587   0.457   1.249   7.192 -0.2747  0.4641 -0.2391
 6343TIP3    H140588   0.422   1.171   7.234  0.0413 -0.8904 -2.3215
 6343TIP3    H240589   0.544   1.223   7.162 -1.4271  0.3679 -3.9812
 6344TIP3   OH240590   3.509   0.804   1.606  0.3843 -0.0739 -0.5235
 6344TIP3    H140591   3.496   0.840   1.519 -1.1303  1.0022  0.0994
 6344TIP3    H240592   3.528   0.880   1.661 -1.4735 -0.3299  0.5695
 6345TIP3   OH240593   5.512   2.813   7.156 -0.0562  0.0006  0.2173
 6345TIP3    H140594   5.465   2.846   7.080 -1.8122 -2.8909 -0.1323
 6345TIP3    H240595   5.593   2.777   7.120  0.9007  1.9293  0.3277
 6346TIP3   OH240596   1.172   4.777   8.367 -0.8925 -0.9081 -0.2004
 6346TIP3    H140597   1.253   4.739   8.401  0.5289  2.2897  0.2683
 6346TIP3    H240598   1.194   4.803   8.278 -0.8915  1.2560  0.3911
 6347TIP3   OH240599   2.338   6.140   0.860 -0.9750 -0.2112  0.4530
 6347TIP3    H140600   2.337   6.051   0.897 -1.1993 -0.4712 -0.1609
 6347TIP3    H240601   2.400   6.188   0.915 -1.8964 -0.3624  1.6681
 6348TIP3   OH240602   2.216   4.781   8.410  0.5370 -0.0736 -0.3348
 6348TIP3    H140603   2.258   4.759   8.327  1.1215  0.0278 -0.0735
 6348TIP3    H240604   2.235   4.706   8.467  0.8734  0.2385 -0.0337
 6349TIP3   OH240605   3.889   5.885   0.095 -0.1240 -0.0695  0.1154
 6349TIP3    H140606   3.833   5.819   0.134 -0.4823 -0.1437 -0.5195
 6349TIP3    H240607   3.978   5.855   0.114 -0.2605 -1.3291 -1.1390
 6350TIP3   OH240608   3.288   6.598   0.195  0.3223 -0.0268 -0.4959
 6350TIP3    H140609   3.254   6.669   0.250  1.7221  0.5942 -0.3890
 6350TIP3    H240610   3.309   6.641   0.112  2.7052  0.0766  0.1011
 6351TIP3   OH240611   4.645   4.516   8.574 -0.5447 -0.5305 -0.3580
 6351TIP3    H140612   4.739   4.507   8.588 -0.4558  0.1926 -0.4446
 6351TIP3    H240613   4.611   4.427   8.579  0.1129 -0.7701 -0.1016
 6352TIP3   OH240614   3.325   4.298   0.717  0.0449 -0.4353 -0.6519
 6352TIP3    H140615   3.234   4.298   0.687 -0.9002 -0.7759  1.9447
 6352TIP3    H240616   3.347   4.391   0.727 -0.2818 -0.3636 -0.5862
 6353TIP3   OH240617   0.367   1.178   8.348 -0.1754 -0.7964  0.5538
 6353TIP3    H140618   0.337   1.110   8.407 -0.6305 -2.1919 -1.2083
 6353TIP3    H240619   0.289   1.206   8.300  0.3204 -0.3187 -0.0065
 6354TIP3   OH240620   5.881   2.218   1.286 -0.5315 -0.1460 -0.8578
 6354TIP3    H140621   5.891   2.247   1.196 -2.1514 -0.0397 -1.0430
 6354TIP3    H240622   5.790   2.188   1.291 -0.9336  1.2148  1.0978
 6355TIP3   OH240623   6.624   4.009   1.062 -0.4961  0.2251 -0.0319
 6355TIP3    H140624   6.621   4.076   0.993 -0.7299 -0.5037 -0.7437
 6355TIP3    H240625   6.539   4.015   1.105 -0.3212  0.7369  0.2476
 6356TIP3   OH240626   3.472   6.337   1.211  0.0999 -0.2702  0.3250
 6356TIP3    H140627   3.502   6.423   1.182  1.4195 -0.6788  0.3869
 6356TIP3    H240628   3.532   6.276   1.167  0.4757 -1.0420  1.8527
 6357TIP3   OH240629   3.712   6.745   0.756  0.9950 -0.3634 -0.1688
 6357TIP3    H140630   3.773   6.749   0.682  0.0560  0.2437 -0.9291
 6357TIP3    H240631   3.722   6.657   0.791  1.4506 -0.6511 -1.0104
 6358TIP3   OH240632   5.809   5.902   7.118  0.0827  0.3104 -0.5653
 6358TIP3    H140633   5.716   5.901   7.144  0.8877  1.0937  2.8589
 6358TIP3    H240634   5.837   5.811   7.127 -0.2051  0.1582 -1.1355
 6359TIP3   OH240635   3.903   5.092   1.705 -0.2849  0.0914  0.4368
 6359TIP3    H140636   3.851   5.170   1.727 -0.6340 -0.5674  2.1690
 6359TIP3    H240637   3.844   5.038   1.653 -0.4039  0.5178  0.1222
 6360TIP3   OH240638   5.746   0.030   8.290  0.8644  0.5778 -0.8977
 6360TIP3    H140639   5.746   0.126   8.293  1.8836  0.5670  0.3884
 6360TIP3    H240640   5.826   0.004   8.335  0.5265 -0.8893 -1.0795
 6361TIP3   OH240641   5.061   2.542   7.908 -0.3930 -0.8176  0.2846
 6361TIP3    H140642   5.137   2.583   7.866  0.2951 -0.3930  1.8495
 6361TIP3    H240643   5.080   2.449   7.907 -0.9175 -0.9297 -1.3114
 6362TIP3   OH240644   3.956   6.334   1.095  0.5548 -0.1404  0.3766
 6362TIP3    H140645   4.051   6.340   1.104  0.7471 -1.9159 -0.2291
 6362TIP3    H240646   3.939   6.245   1.064 -1.4961 -0.9042  3.2386
 6363TIP3   OH240647   3.682   6.236   7.317  0.0798  0.2616  0.1202
 6363TIP3    H140648   3.627   6.314   7.321  1.1837  1.1298 -0.9792
 6363TIP3    H240649   3.664   6.198   7.231  0.3773 -0.0756  0.2048
 6364TIP3   OH240650   2.012   6.523   2.051  0.4912  0.3605 -0.1071
 6364TIP3    H140651   2.102   6.509   2.023  1.6489  1.5191  2.6697
 6364TIP3    H240652   2.000   6.464   2.125 -0.6418  1.0352  0.2811
 6365TIP3   OH240653   2.406   0.458   8.152 -0.0779  0.3572 -0.3085
 6365TIP3    H140654   2.482   0.512   8.175  3.1699 -3.2274 -1.6318
 6365TIP3    H240655   2.359   0.510   8.086  1.5469  2.4336  0.0399
 6366TIP3   OH240656   0.278   3.433   7.560 -0.3918  0.3754 -0.2729
 6366TIP3    H140657   0.347   3.490   7.593  1.2867 -0.0060 -2.8950
 6366TIP3    H240658   0.295   3.349   7.601 -0.6964  0.8355  0.8279
 6367TIP3   OH240659   0.057   6.180   6.389 -0.0441 -0.6081 -0.2907
 6367TIP3    H140660   0.071   6.216   6.477 -0.2204 -0.4862 -0.3115
 6367TIP3    H240661   0.055   6.257   6.332 -1.8028 -0.5203 -0.1611
 6368TIP3   OH240662   3.165   2.706   0.609  0.9623  0.4880  0.2910
 6368TIP3    H140663   3.178   2.627   0.661  1.2925  1.0095  1.0276
 6368TIP3    H240664   3.229   2.768   0.645  1.9086  0.5550 -1.4065
 6369TIP3   OH240665   4.988   0.753   2.300 -0.7830 -0.2979 -0.0693
 6369TIP3    H140666   5.071   0.797   2.286 -0.3240 -1.2588 -0.4620
 6369TIP3    H240667   4.928   0.823   2.326  0.0011  0.4933 -0.3289
 6370TIP3   OH240668   4.211   3.493   1.905  0.0290 -0.2144  0.0209
 6370TIP3    H140669   4.225   3.484   2.000  0.6127 -1.4318 -0.1677
 6370TIP3    H240670   4.175   3.409   1.878  1.8070 -0.6331 -1.1705
 6371TIP3   OH240671   5.822   6.827   1.257 -0.6358  0.1906  0.2936
 6371TIP3    H140672   5.808   6.872   1.173 -2.4986 -0.5151  0.1881
 6371TIP3    H240673   5.773   6.879   1.321 -0.8174 -0.3558  0.6035
 6372TIP3   OH240674   6.406   0.569   0.580 -0.0203  0.4181  0.6033
 6372TIP3    H140675   6.458   0.490   0.597 -0.3006  0.1170  0.0885
 6372TIP3    H240676   6.453   0.613   0.509  0.0275  0.6167  0.7569
 6373TIP3   OH240677   1.690   6.280   8.494 -0.2719  0.1301  0.3135
 6373TIP3    H140678   1.668   6.219   8.423  0.0813 -1.9739  1.9190
 6373TIP3    H240679   1.776   6.314   8.470  0.8879 -2.3009  0.7468
 6374TIP3   OH240680   1.727   4.959   0.056  0.4309 -0.0270  0.1120
 6374TIP3    H140681   1.650   4.934   0.107  1.0983 -2.0118  0.2407
 6374TIP3    H240682   1.771   5.026   0.110  0.0374 -0.5985  1.1584
 6375TIP3   OH240683   5.523   0.199   1.743  0.2028  0.4724 -0.0225
 6375TIP3    H140684   5.465   0.123   1.738  0.5274  0.2924 -2.1973
 6375TIP3    H240685   5.548   0.204   1.835 -3.3795  0.7174  1.0819
 6376TIP3   OH240686   2.054   6.634   6.551  0.6738 -0.4111 -0.5615
 6376TIP3    H140687   2.023   6.621   6.641 -2.1273  0.7714 -1.2199
 6376TIP3    H240688   1.997   6.578   6.498  0.1599  1.1992 -1.8113
 6377TIP3   OH240689   6.435   4.628   2.027 -0.2412  0.1165 -0.6784
 6377TIP3    H140690   6.487   4.610   2.105 -0.8327  0.1806 -0.2633
 6377TIP3    H240691   6.346   4.602   2.051 -0.5486  0.7569 -1.1060
 6378TIP3   OH240692   0.019   1.669   6.903  0.1680  0.0521  0.7400
 6378TIP3    H140693   0.100   1.683   6.856  0.5259  1.0072  1.6011
 6378TIP3    H240694  -0.049   1.700   6.844  0.4800 -0.0761  0.3071
 6379TIP3   OH240695   5.007   4.326   7.060  0.0205  0.5355  0.2358
 6379TIP3    H140696   4.923   4.285   7.038  0.4566  0.3311 -1.1837
 6379TIP3    H240697   5.070   4.279   7.005  0.9842  1.0487  0.8932
 6380TIP3   OH240698   5.624   3.966   0.841 -0.1193 -0.6138  0.3173
 6380TIP3    H140699   5.585   4.006   0.763  0.6375  0.7040  0.5926
 6380TIP3    H240700   5.704   3.924   0.808 -0.8388 -1.8353  0.0548
 6381TIP3   OH240701   5.476   6.128   7.912 -0.0667 -0.0785 -0.1578
 6381TIP3    H140702   5.418   6.192   7.871 -1.4896 -1.0090  0.3002
 6381TIP3    H240703   5.465   6.048   7.860 -1.4518 -1.1057  1.5844
 6382TIP3   OH240704   6.020   3.080   7.138  0.3722  0.2576  0.4477
 6382TIP3    H140705   5.938   3.085   7.187  0.5257  0.1632  0.7157
 6382TIP3    H240706   6.069   3.010   7.181  0.4301  0.0427  0.0402
 6383TIP3   OH240707   3.501   3.880   0.725  0.4442 -0.3709  0.1729
 6383TIP3    H140708   3.501   3.964   0.771 -2.7196  0.6134 -1.3089
 6383TIP3    H240709   3.591   3.866   0.699  1.5354  1.2278  2.6905
 6384TIP3   OH240710   2.967   6.543   0.908 -0.0377  0.3185 -0.8242
 6384TIP3    H140711   2.921   6.460   0.917 -0.5873  0.5879 -1.1436
 6384TIP3    H240712   2.986   6.551   0.815  1.0142  0.0276 -0.6539
 6385TIP3   OH240713   0.236   0.792   7.379 -0.3323 -0.1261 -0.4853
 6385TIP3    H140714   0.276   0.722   7.328  1.9612 -1.5158  2.8475
 6385TIP3    H240715   0.299   0.865   7.374  0.2279 -0.4981  0.7389
 6386TIP3   OH240716   5.612   2.566   0.774  0.1187 -1.0727 -0.0433
 6386TIP3    H140717   5.551   2.509   0.729  0.3417 -0.5901 -0.9906
 6386TIP3    H240718   5.569   2.652   0.774 -0.1895 -1.2009  1.3100
 6387TIP3   OH240719   5.256   6.613   1.437  0.0809 -0.4400  0.3350
 6387TIP3    H140720   5.321   6.621   1.506 -0.5231  0.9456  0.7921
 6387TIP3    H240721   5.190   6.680   1.458 -0.1799 -0.0412 -1.5120
 6388TIP3   OH240722   0.764   0.582   7.713 -0.1538 -0.9289  0.3713
 6388TIP3    H140723   0.740   0.553   7.801 -0.0881  3.3214  2.0374
 6388TIP3    H240724   0.688   0.563   7.659 -0.5753 -2.7442  1.5387
 6389TIP3   OH240725   5.087   2.694   6.626  0.2200  0.2938 -0.1753
 6389TIP3    H140726   5.151   2.622   6.628  0.0685  0.1698  0.2603
 6389TIP3    H240727   5.129   2.764   6.677 -1.1653 -0.7904  2.7196
 6390TIP3   OH240728   0.238   1.379   8.121 -0.8491 -0.9358  0.0505
 6390TIP3    H140729   0.171   1.417   8.065  1.5156  0.4734 -2.0148
 6390TIP3    H240730   0.236   1.433   8.200 -0.2888  1.0059 -1.1840
 6391TIP3   OH240731   6.189   2.546   0.209  0.3656  0.3933  0.2825
 6391TIP3    H140732   6.276   2.576   0.236  0.4512  0.3174  0.0972
 6391TIP3    H240733   6.182   2.573   0.117  0.9044 -1.1478 -0.2467
 6392TIP3   OH240734   1.108   3.029   0.461 -0.0879 -0.1898 -0.1627
 6392TIP3    H140735   1.072   3.007   0.375 -0.8665 -0.7003  0.2829
 6392TIP3    H240736   1.187   3.079   0.441 -0.5259  0.1397 -1.1770
 6393TIP3   OH240737   5.769   3.451   0.374 -0.1523  0.7809  0.0439
 6393TIP3    H140738   5.787   3.498   0.456  1.0975  2.0469 -0.9030
 6393TIP3    H240739   5.707   3.508   0.328 -1.0372 -0.0442  0.1952
 6394TIP3   OH240740   2.779   6.173   6.609  0.4305 -0.8168  0.1919
 6394TIP3    H140741   2.856   6.120   6.592  0.5771 -0.3303 -0.7119
 6394TIP3    H240742   2.776   6.182   6.704  0.8913 -1.7085  0.2937
 6395TIP3   OH240743   3.477   3.287   7.831  0.8365 -0.6336  0.2938
 6395TIP3    H140744   3.392   3.298   7.873  1.0556  0.6091  0.4512
 6395TIP3    H240745   3.539   3.327   7.893  1.4583 -0.9978 -0.0897
 6396TIP3   OH240746   1.412   5.723   0.916  0.1539 -0.1651 -0.5100
 6396TIP3    H140747   1.458   5.786   0.971 -0.7965  1.2420 -1.2562
 6396TIP3    H240748   1.337   5.694   0.968 -1.4544  2.1061 -1.4265
 6397TIP3   OH240749   4.453   2.132   7.585  0.6263 -0.1440  0.7136
 6397TIP3    H140750   4.479   2.177   7.504  2.3146 -0.3562  1.1012
 6397TIP3    H240751   4.531   2.085   7.612 -0.1235 -0.6268  2.1229
 6398TIP3   OH240752   5.382   4.780   8.588 -0.4798  0.1707  0.7606
 6398TIP3    H140753   5.307   4.749   8.537  0.8787 -1.3573 -0.4235
 6398TIP3    H240754   5.387   4.719   8.661 -0.0722 -0.0852  0.5242
 6399TIP3   OH240755   3.950   5.530   8.627 -0.5147  0.5872  0.3225
 6399TIP3    H140756   3.906   5.537   8.712  1.0948 -2.4706  1.6003
 6399TIP3    H240757   3.885   5.490   8.569 -0.7666  0.1138  0.9253
 6400TIP3   OH240758   5.426   2.907   7.955 -0.0089  0.0074  0.1038
 6400TIP3    H140759   5.435   2.874   7.866  1.2655 -0.4530  0.3783
 6400TIP3    H240760   5.346   2.866   7.988 -0.5193  0.2280 -0.8403
 6401TIP3   OH240761   1.582   1.252   1.153  0.2204 -0.5810  0.2073
 6401TIP3    H140762   1.560   1.338   1.188 -0.0154 -1.2795  1.9067
 6401TIP3    H240763   1.675   1.258   1.131 -0.3194  0.7922 -2.0090
 6402TIP3   OH240764   4.495   1.725   8.098 -0.8727  0.5721 -0.0754
 6402TIP3    H140765   4.564   1.664   8.074 -1.9712 -0.2403 -1.3365
 6402TIP3    H240766   4.526   1.810   8.067  0.7157  0.7452  1.7884
 6403TIP3   OH240767   2.410   0.812   0.520 -0.3269 -0.3489  0.1713
 6403TIP3    H140768   2.473   0.791   0.451  0.1618 -0.7431  0.7249
 6403TIP3    H240769   2.366   0.730   0.539  0.3189 -0.5023  1.0829
 6404TIP3   OH240770   6.134   1.631   7.028  0.0273 -0.2974  0.1602
 6404TIP3    H140771   6.061   1.603   6.972 -0.5095  0.9132  0.2221
 6404TIP3    H240772   6.196   1.672   6.967 -0.3287  0.5715  0.3645
 6405TIP3   OH240773   1.980   0.113   8.599  0.1177  0.2200  0.2180
 6405TIP3    H140774   2.025   0.171   8.660 -0.0216  0.6468 -0.0744
 6405TIP3    H240775   1.959   0.170   8.524  0.7054 -0.4051 -0.4267
 6406TIP3   OH240776   4.788   1.036   0.240 -0.1060 -0.9291 -0.3006
 6406TIP3    H140777   4.749   0.951   0.260  0.6814 -0.8819  1.5788
 6406TIP3    H240778   4.725   1.100   0.274  1.9333 -0.8467  3.9750
 6407TIP3   OH240779   4.221   0.155   1.349  0.7441  0.6203  0.0937
 6407TIP3    H140780   4.133   0.158   1.311  0.4101  1.4059  0.8839
 6407TIP3    H240781   4.221   0.224   1.416  1.9803  0.6708  0.0756
 6408TIP3   OH240782   0.164   3.399   1.127  0.3782 -0.4564 -1.0476
 6408TIP3    H140783   0.214   3.480   1.136  1.3469 -1.0449 -0.8925
 6408TIP3    H240784   0.128   3.403   1.039  0.9797 -0.1524 -1.2895
 6409TIP3   OH240785   5.430   0.925   8.124 -0.4836  0.2745  0.2355
 6409TIP3    H140786   5.401   0.848   8.173 -0.1032 -0.4517 -0.6662
 6409TIP3    H240787   5.524   0.912   8.110 -0.6327  0.3410 -0.9093
 6410TIP3   OH240788   4.579   5.511   0.349 -0.3827  0.3048  0.2628
 6410TIP3    H140789   4.534   5.555   0.421 -0.7023  0.4174 -0.0022
 6410TIP3    H240790   4.666   5.490   0.383 -0.7700 -0.2682  0.9127
 6411TIP3   OH240791   6.789   3.209   7.194  0.6695  0.5067 -0.2286
 6411TIP3    H140792   6.879   3.192   7.224  0.7415 -0.7647 -1.0892
 6411TIP3    H240793   6.787   3.303   7.178  1.7279  0.6241  0.2046
 6412TIP3   OH240794   1.681   4.041   6.641  0.1456  0.1248 -0.0184
 6412TIP3    H140795   1.652   4.030   6.551  0.6783  1.5457 -0.3855
 6412TIP3    H240796   1.667   3.955   6.681 -0.1480 -0.5135 -1.4263
 6413TIP3   OH240797   1.499   3.226   0.899 -0.1124  0.3639  0.6710
 6413TIP3    H140798   1.521   3.149   0.952 -1.0724 -0.0799  0.4606
 6413TIP3    H240799   1.571   3.236   0.838 -0.4593 -1.0084  0.0102
 6414TIP3   OH240800   0.087   5.162   8.333  0.5388 -0.5035  0.1562
 6414TIP3    H140801   0.090   5.083   8.279 -0.9104 -1.4138  1.3309
 6414TIP3    H240802   0.026   5.219   8.287 -0.8173 -1.3391  0.8694
 6415TIP3   OH240803   3.079   4.205   8.409 -0.2312 -0.3096  0.3562
 6415TIP3    H140804   3.038   4.157   8.481  0.4735 -0.8434  0.4069
 6415TIP3    H240805   3.005   4.239   8.358 -0.7766 -2.1896 -0.1758
 6416TIP3   OH240806   4.934   4.196   7.707 -0.4335  0.5895 -0.6236
 6416TIP3    H140807   4.843   4.222   7.723 -0.4063  0.3038  0.0478
 6416TIP3    H240808   4.972   4.189   7.795  0.2436  0.7325 -0.9036
 6417TIP3   OH240809   2.497   5.635   6.766 -0.1822  0.4170 -0.0739
 6417TIP3    H140810   2.475   5.603   6.854 -0.6900 -0.5085 -0.5141
 6417TIP3    H240811   2.592   5.651   6.769 -0.2235  0.5471  0.6824
 6418TIP3   OH240812   6.751   5.997   6.492 -0.7894  0.3148  0.0285
 6418TIP3    H140813   6.801   6.067   6.451  1.0295 -0.7473  0.2793
 6418TIP3    H240814   6.773   5.919   6.442 -1.9668 -0.2669  0.3695
 6419TIP3   OH240815   5.361   6.656   6.911  0.2693  0.6502  0.7589
 6419TIP3    H140816   5.447   6.669   6.951  0.9168 -0.7055 -0.1007
 6419TIP3    H240817   5.312   6.605   6.976  0.9680 -0.6693  0.2780
 6420TIP3   OH240818   0.216   3.255   6.724  0.7297  0.1633  0.1863
 6420TIP3    H140819   0.149   3.306   6.770  1.4276  0.3082  1.0741
 6420TIP3    H240820   0.215   3.289   6.635  0.6658  1.2282  0.5765
 6421TIP3   OH240821   1.514   3.423   6.552 -0.2202  0.2849 -0.0527
 6421TIP3    H140822   1.432   3.451   6.510  1.0221  2.8332 -0.9503
 6421TIP3    H240823   1.490   3.342   6.598 -3.4057  1.2535  0.2691
 6422TIP3   OH240824   3.575   6.764   6.946  0.7924 -0.4415  0.1874
 6422TIP3    H140825   3.590   6.784   6.854  0.3234  2.6894  0.6734
 6422TIP3    H240826   3.487   6.727   6.949  1.5376 -2.3960 -0.7733
 6423TIP3   OH240827   3.622   1.128   0.143  0.0314  0.4289  0.4725
 6423TIP3    H140828   3.645   1.221   0.154 -0.8051  0.6988 -0.0479
 6423TIP3    H240829   3.690   1.082   0.192  0.3170  1.3262  0.9543
 6424TIP3   OH240830   4.252   0.710   7.130  0.3896  0.1238  0.1950
 6424TIP3    H140831   4.208   0.733   7.049  2.6554 -2.8058 -2.0987
 6424TIP3    H240832   4.311   0.783   7.147  1.1026  0.0662 -1.8249
 6425TIP3   OH240833   2.809   5.394   7.228 -0.1503  0.6933  0.0333
 6425TIP3    H140834   2.876   5.361   7.168 -1.5216 -1.0171 -0.6331
 6425TIP3    H240835   2.830   5.487   7.238  2.1144  0.2844 -0.3941
 6426TIP3   OH240836   5.899   4.619   6.345 -0.3699 -0.4757  0.6734
 6426TIP3    H140837   5.870   4.694   6.292 -0.5468 -0.9976  0.0207
 6426TIP3    H240838   5.990   4.605   6.320  0.1828  0.5330  1.9952
 6427TIP3   OH240839   4.253   5.756   1.199  0.0343  0.1970  0.1986
 6427TIP3    H140840   4.285   5.745   1.289 -0.0274 -0.2047  0.1735
 6427TIP3    H240841   4.305   5.829   1.164  0.9233 -0.4436  0.1593
 6428TIP3   OH240842   1.228   3.852   1.346 -0.1490  0.4601 -0.3707
 6428TIP3    H140843   1.259   3.764   1.325 -2.0648 -0.1767 -0.7390
 6428TIP3    H240844   1.133   3.847   1.337 -0.5023  2.0032  1.7796
 6429TIP3   OH240845   0.368   2.721   7.173  0.1386 -0.0255 -0.7460
 6429TIP3    H140846   0.342   2.756   7.258  0.4018 -0.5088 -0.4667
 6429TIP3    H240847   0.285   2.711   7.126 -0.0235  0.0917 -0.4902
 6430TIP3   OH240848   1.575   1.431   0.212 -0.2072 -0.2051 -0.0471
 6430TIP3    H140849   1.583   1.428   0.117 -1.5613 -0.5341 -0.1739
 6430TIP3    H240850   1.601   1.344   0.241  1.1706  0.1984 -0.0095
 6431TIP3   OH240851   3.316   3.568   6.373  0.2843  0.2247 -0.0449
 6431TIP3    H140852   3.340   3.502   6.438  0.7059  0.5415  0.1271
 6431TIP3    H240853   3.229   3.542   6.343  0.5331 -0.5186 -0.1261
 6432TIP3   OH240854   1.068   2.438   0.835 -0.4286  0.0196  0.1301
 6432TIP3    H140855   1.092   2.346   0.834 -1.0138 -0.1382  0.1392
 6432TIP3    H240856   1.068   2.464   0.742  1.4380  0.4805  0.2229
 6433TIP3   OH240857   1.495   4.492   0.621 -0.1520 -0.1345  0.4558
 6433TIP3    H140858   1.507   4.417   0.562  0.5362  1.5277 -1.6375
 6433TIP3    H240859   1.404   4.518   0.607  0.2239  0.7319 -0.5387
 6434TIP3   OH240860   4.569   4.046   7.768  0.0528 -0.7606 -0.3740
 6434TIP3    H140861   4.553   4.085   7.854 -1.3087  1.9174 -1.7152
 6434TIP3    H240862   4.488   4.000   7.747  0.0376 -0.6281 -0.6094
 6435TIP3   OH240863   2.665   0.963   8.065 -0.3167  0.4223  0.1295
 6435TIP3    H140864   2.741   1.018   8.049 -1.1588  1.5307 -0.2046
 6435TIP3    H240865   2.603   1.020   8.111 -0.4188 -0.8635  1.6643
 6436TIP3   OH240866   6.123   4.111   0.864  0.0260 -0.4972 -0.9831
 6436TIP3    H140867   6.063   4.184   0.847  0.9219  0.3526 -0.6118
 6436TIP3    H240868   6.100   4.081   0.952  1.3189  1.0671 -0.0360
 6437TIP3   OH240869   0.587   5.341   8.452  0.6619 -0.6168 -1.2334
 6437TIP3    H140870   0.498   5.311   8.473  0.5613  0.8453  0.7051
 6437TIP3    H240871   0.638   5.261   8.445 -0.5907 -1.4387 -1.2898
 6438TIP3   OH240872   6.846   6.438   1.037 -0.2239 -0.2331  0.2190
 6438TIP3    H140873   6.894   6.394   0.967  0.5296  0.1571  0.4794
 6438TIP3    H240874   6.827   6.525   1.001  0.7478  0.2087  0.7183
 6439TIP3   OH240875   5.589   3.294   7.716 -0.2484  0.5372 -0.3960
 6439TIP3    H140876   5.579   3.385   7.744  0.9795  0.5915 -0.1141
 6439TIP3    H240877   5.625   3.248   7.792 -1.5787 -0.3652 -0.2799
 6440TIP3   OH240878   3.349   4.345   0.123 -1.0557 -0.3617  0.0553
 6440TIP3    H140879   3.313   4.431   0.141 -2.6208 -0.0868 -3.4962
 6440TIP3    H240880   3.399   4.357   0.042  0.6400 -2.3640  0.7238
 6441TIP3   OH240881   6.610   3.688   6.966  0.3698  0.4271 -0.2624
 6441TIP3    H140882   6.574   3.752   7.028 -1.1957 -0.9456  0.3379
 6441TIP3    H240883   6.705   3.698   6.974  0.2282  0.5411  2.1562
 6442TIP3   OH240884   1.997   6.853   7.932  0.1176  0.5778 -0.0913
 6442TIP3    H140885   2.069   6.848   7.869  0.2799  0.7576  0.0775
 6442TIP3    H240886   1.925   6.893   7.883  0.0658  0.2057 -0.3200
 6443TIP3   OH240887   5.326   0.976   7.569 -0.2054  0.1054  0.3459
 6443TIP3    H140888   5.371   0.993   7.652  1.1061  1.2226 -0.5604
 6443TIP3    H240889   5.395   0.951   7.508 -1.0885 -0.2005 -0.5562
 6444TIP3   OH240890   1.433   2.705   7.111 -0.4005 -0.0120  0.2747
 6444TIP3    H140891   1.514   2.674   7.069 -1.4585 -1.1035 -1.0668
 6444TIP3    H240892   1.428   2.798   7.089  1.2281  0.4784  1.6873
 6445TIP3   OH240893   3.204   0.870   0.004  0.5077 -0.1391 -0.2347
 6445TIP3    H140894   3.288   0.916   0.006 -1.2209  3.3281  0.1905
 6445TIP3    H240895   3.156   0.906   0.078 -0.9299 -3.0747  0.3796
 6446TIP3   OH240896   2.884   6.371   7.452  0.4972 -0.2736  0.5662
 6446TIP3    H140897   2.792   6.347   7.454  0.9144 -1.9665  0.6725
 6446TIP3    H240898   2.884   6.467   7.450 -1.2470 -0.2482  0.6967
 6447TIP3   OH240899   5.991   0.770   0.035  0.3974  0.4867 -0.0161
 6447TIP3    H140900   5.969   0.790  -0.056  1.6093 -1.6948 -0.8800
 6447TIP3    H240901   6.086   0.775   0.039  0.4376 -0.4365  0.8346
 6448TIP3   OH240902   6.309   0.188   0.586  0.3070  0.3974 -0.1537
 6448TIP3    H140903   6.386   0.222   0.632  2.5289 -3.4298 -0.6552
 6448TIP3    H240904   6.254   0.152   0.656 -0.2691  1.6483  0.0635
 6449TIP3   OH240905   5.495   0.170   7.873 -0.6695  0.5904  0.3500
 6449TIP3    H140906   5.544   0.235   7.924  1.8479 -1.9565  1.3910
 6449TIP3    H240907   5.452   0.115   7.939  0.2322 -0.9657 -0.3117
 6450TIP3   OH240908   0.861   3.118   6.690  0.2016 -0.1282 -0.6160
 6450TIP3    H140909   0.768   3.107   6.674  0.1191 -1.4073  0.6032
 6450TIP3    H240910   0.888   3.188   6.629 -2.1429  2.5465  1.1835
 6451TIP3   OH240911   1.539   2.090   1.391 -0.5306 -0.1734 -0.0514
 6451TIP3    H140912   1.625   2.069   1.355 -0.9950  1.1806 -2.1183
 6451TIP3    H240913   1.541   2.185   1.405 -2.0853  0.0960 -1.3430
 6452TIP3   OH240914   3.928   2.842   0.469 -0.3568  0.3144 -0.0405
 6452TIP3    H140915   3.877   2.917   0.440  0.4213  0.1252 -2.0555
 6452TIP3    H240916   3.866   2.769   0.466 -0.4887  0.4395 -0.5512
 6453TIP3   OH240917   5.633   6.078   2.180 -0.6575  0.2886  0.2594
 6453TIP3    H140918   5.601   6.159   2.138 -1.9234 -0.5656 -0.4899
 6453TIP3    H240919   5.595   6.008   2.128 -2.0128 -0.8327  2.6073
 6454TIP3   OH240920   6.025   3.208   6.870 -0.3287  0.0798  0.0283
 6454TIP3    H140921   6.014   3.202   6.965  0.2251  1.7158  0.2329
 6454TIP3    H240922   6.002   3.121   6.838 -0.3657 -0.5636  1.6727
 6455TIP3   OH240923   2.442   3.774   8.297  0.2070 -0.4322  0.3339
 6455TIP3    H140924   2.506   3.790   8.367  1.0763 -0.5160 -0.4288
 6455TIP3    H240925   2.459   3.685   8.269  0.0146 -0.3218 -0.1367
 6456TIP3   OH240926   2.053   6.213   0.399  0.3495 -0.1030  0.1782
 6456TIP3    H140927   1.975   6.266   0.417  0.1425  0.6710 -2.5959
 6456TIP3    H240928   2.073   6.172   0.483 -2.4797  0.4020  1.2329
 6457TIP3   OH240929   0.530   5.656   8.040  0.3898  0.0026  0.4177
 6457TIP3    H140930   0.595   5.637   7.972  1.7012  0.2484  1.5397
 6457TIP3    H240931   0.546   5.590   8.108 -1.1100 -0.4474  0.3644
 6458TIP3   OH240932   1.748   6.474   6.755  0.3016  0.2383  0.1746
 6458TIP3    H140933   1.670   6.528   6.746 -0.3246 -0.7597 -0.7027
 6458TIP3    H240934   1.718   6.396   6.802  1.0481  0.3849  0.9033
 6459TIP3   OH240935   1.760   1.990   1.567 -0.2157  0.4558  0.1311
 6459TIP3    H140936   1.790   2.015   1.654 -0.0339  0.8128 -0.0309
 6459TIP3    H240937   1.840   1.960   1.522 -0.6063 -1.5677  0.7010
 6460TIP3   OH240938   6.105   3.131   0.380 -0.2747 -0.6281 -0.3908
 6460TIP3    H140939   6.032   3.123   0.319  0.3316  1.0680 -1.4400
 6460TIP3    H240940   6.173   3.074   0.344 -0.5285 -0.9760 -0.3174
 6461TIP3   OH240941   6.840   5.079   0.503  0.2113  0.6324  0.3124
 6461TIP3    H140942   6.914   5.090   0.563  1.0890  0.0653 -0.6370
 6461TIP3    H240943   6.873   5.106   0.418 -1.0402  1.4767  0.0626
 6462TIP3   OH240944   0.272   2.156   8.442  0.1074  0.1237  0.0494
 6462TIP3    H140945   0.320   2.074   8.455 -1.0626 -0.6147 -0.1563
 6462TIP3    H240946   0.273   2.169   8.347  0.6186  0.5509  0.1132
 6463TIP3   OH240947   4.939   0.438   7.380 -0.5576  0.0599 -0.7847
 6463TIP3    H140948   5.002   0.378   7.340 -0.0990 -0.0315  0.0669
 6463TIP3    H240949   4.855   0.393   7.373 -0.3190 -0.3954 -0.7320
 6464TIP3   OH240950   5.107   4.282   1.451 -0.1746 -0.6682 -0.0405
 6464TIP3    H140951   5.091   4.220   1.522 -3.3107  0.0303 -0.0045
 6464TIP3    H240952   5.116   4.366   1.495 -0.1219 -0.5125 -0.3513
 6465TIP3   OH240953   4.524   0.480   0.061  0.0366  0.5143 -0.3013
 6465TIP3    H140954   4.496   0.569   0.085 -0.6266  0.2982 -0.2410
 6465TIP3    H240955   4.563   0.490  -0.026  0.5095  0.9581 -0.0452
 6466TIP3   OH240956   5.455   5.586   6.290 -0.0036  0.3917 -0.3478
 6466TIP3    H140957   5.489   5.501   6.318 -0.8821  0.3916  0.7883
 6466TIP3    H240958   5.387   5.606   6.353 -0.1151  1.7449 -0.8725
 6467TIP3   OH240959   6.472   4.406   0.760  0.6005  0.0368  0.2797
 6467TIP3    H140960   6.542   4.459   0.719  0.6763  0.9160  1.4918
 6467TIP3    H240961   6.415   4.470   0.802 -0.3815 -0.7471  0.1793
 6468TIP3   OH240962   0.782   4.945   7.384 -0.1901 -0.2900 -0.8064
 6468TIP3    H140963   0.812   4.855   7.397  3.5963  1.1175  2.8681
 6468TIP3    H240964   0.831   4.976   7.308 -0.1286 -0.8692 -1.0028
 6469TIP3   OH240965   1.420   1.311   6.676 -0.4889 -0.0209 -0.6444
 6469TIP3    H140966   1.456   1.233   6.635  1.2690  0.7707 -0.6846
 6469TIP3    H240967   1.494   1.353   6.719 -1.8029  0.4902  1.2785
 6470TIP3   OH240968   5.430   6.375   1.177 -0.3136  0.0503 -0.2325
 6470TIP3    H140969   5.520   6.371   1.146 -0.8464 -0.7086 -1.8088
 6470TIP3    H240970   5.427   6.314   1.250  0.7453  1.1136  0.7486
 6471TIP3   OH240971   1.932   5.928   0.707 -0.6865 -0.0898 -0.3215
 6471TIP3    H140972   1.965   5.841   0.726 -0.7196 -0.4335 -1.7056
 6471TIP3    H240973   1.994   5.963   0.642 -0.4985  1.0418  0.4437
 6472TIP3   OH240974   1.343   1.334   7.964  0.2005  0.3103  0.1243
 6472TIP3    H140975   1.428   1.351   7.923  0.4578 -1.5643 -0.1877
 6472TIP3    H240976   1.281   1.384   7.911  0.7757 -0.4917 -1.3712
 6473TIP3   OH240977   0.096   6.764   0.671 -0.6951  0.0024  0.2524
 6473TIP3    H140978   0.156   6.820   0.622  0.2860 -0.9671  0.2943
 6473TIP3    H240979   0.108   6.677   0.633 -1.6050 -0.3293  0.6972
 6474TIP3   OH240980   4.593   2.137   7.312 -0.3293 -0.3758 -0.4343
 6474TIP3    H140981   4.576   2.042   7.315  0.5659 -0.6102 -1.7163
 6474TIP3    H240982   4.523   2.172   7.258  0.7098 -0.6950 -2.0403
 6475TIP3   OH240983   4.693   4.377   7.648  0.2104  0.1179 -0.0321
 6475TIP3    H140984   4.673   4.445   7.584  2.1150  0.2109 -0.6035
 6475TIP3    H240985   4.626   4.387   7.716 -1.2837  0.6391 -1.5224
 6476TIP3   OH240986   6.576   2.826   0.440  0.1180  0.0698  0.0750
 6476TIP3    H140987   6.552   2.796   0.528 -1.2604  2.2305  0.5168
 6476TIP3    H240988   6.495   2.820   0.390  0.5487  0.2014 -0.6541
 6477TIP3   OH240989   0.249   6.397   0.666 -0.5196 -0.4792  0.0367
 6477TIP3    H140990   0.197   6.469   0.630 -1.0413 -1.3281 -0.9673
 6477TIP3    H240991   0.188   6.352   0.725 -0.3278 -0.3530  0.3313
 6478TIP3   OH240992   6.499   0.471   8.554  0.1072 -0.3034 -0.3713
 6478TIP3    H140993   6.425   0.498   8.608 -0.4340 -1.0114 -0.7351
 6478TIP3    H240994   6.475   0.500   8.466  1.5271  1.9442 -0.1151
 6479TIP3   OH240995   5.956   6.459   1.058 -0.0700 -0.5823 -0.0478
 6479TIP3    H140996   5.986   6.382   1.009 -0.6384 -0.8450  0.0120
 6479TIP3    H240997   6.012   6.460   1.136 -0.0114 -0.8960 -0.0833
 6480TIP3   OH240998   2.940   4.860   7.561  0.2217  0.1028  0.2954
 6480TIP3    H140999   2.943   4.784   7.503  0.9834  0.3271  0.0355
 6480TIP3    H241000   2.961   4.934   7.505  0.3420  0.4031  0.7314
 6481TIP3   OH241001   5.281   1.408   2.598 -0.0752 -0.5651 -0.1952
 6481TIP3    H141002   5.237   1.480   2.554 -1.5457 -0.9144  0.6517
 6481TIP3    H241003   5.359   1.391   2.544 -0.3342  0.8493 -1.0591
 6482TIP3   OH241004   2.332   2.819   2.332  0.4388  0.2973 -0.1197
 6482TIP3    H141005   2.298   2.775   2.254  1.0673 -2.7695  1.2280
 6482TIP3    H241006   2.426   2.799   2.332  0.3084 -0.4898  1.8401
 6483TIP3   OH241007   1.476   3.588   0.579 -0.1075  0.0855 -0.5642
 6483TIP3    H141008   1.479   3.615   0.487 -1.7343  1.1720 -0.3518
 6483TIP3    H241009   1.419   3.511   0.580 -0.5188  0.3872 -0.4155
 6484TIP3   OH241010   3.466   2.154   7.386 -0.2639  0.7823 -0.2673
 6484TIP3    H141011   3.469   2.124   7.295 -0.6885  1.4915 -0.5213
 6484TIP3    H241012   3.417   2.085   7.432  1.5747 -0.5222 -0.1708
 6485TIP3   OH241013   0.360   3.839   8.299 -0.0879 -0.4119 -0.3762
 6485TIP3    H141014   0.306   3.847   8.378 -0.0014 -0.1311 -0.3460
 6485TIP3    H241015   0.445   3.875   8.324 -0.4203  0.8059 -0.9523
 6486TIP3   OH241016   2.129   0.762   0.762  0.1751 -0.3272 -0.0976
 6486TIP3    H141017   2.198   0.729   0.703 -0.2607 -0.6628 -0.4312
 6486TIP3    H241018   2.172   0.830   0.814  0.6340 -0.1942 -0.6398
 6487TIP3   OH241019   0.668   1.133   6.746 -0.1704 -0.0425  0.3479
 6487TIP3    H141020   0.751   1.152   6.702 -0.7573  1.4339 -0.2043
 6487TIP3    H241021   0.646   1.044   6.718  1.5203 -0.7155  1.0179
 6488TIP3   OH241022   5.199   3.848   7.727  0.1719  0.2279 -0.3480
 6488TIP3    H141023   5.210   3.761   7.766  0.3920 -1.1853 -3.3337
 6488TIP3    H241024   5.105   3.857   7.715  0.2043  0.0316 -0.7726
 6489TIP3   OH241025   2.603   3.028   0.979  0.6903  0.4940 -0.0678
 6489TIP3    H141026   2.632   2.940   0.956 -0.6594  0.1777 -0.7003
 6489TIP3    H241027   2.510   3.017   1.002  0.7837  1.5825  0.9229
 6490TIP3   OH241028   1.465   0.658   0.775  0.0614 -0.0593 -0.8642
 6490TIP3    H141029   1.428   0.623   0.857 -1.1260  1.4078 -0.7475
 6490TIP3    H241030   1.480   0.751   0.793  2.8376 -0.3267 -1.2931
 6491TIP3   OH241031   1.113   6.176   6.599 -0.4987  0.0110 -0.3209
 6491TIP3    H141032   1.030   6.143   6.563 -0.5912 -0.3534  0.2166
 6491TIP3    H241033   1.126   6.126   6.679  0.8157 -0.7338 -0.9714
 6492TIP3   OH241034   6.479   1.031   0.483 -0.3948  0.0754 -0.0366
 6492TIP3    H141035   6.508   0.964   0.422 -0.6971 -0.1290  0.0418
 6492TIP3    H241036   6.559   1.059   0.528 -0.1163  0.5074 -0.7992
 6493TIP3   OH241037   5.752   0.833   0.163 -0.1133  0.5985 -0.9424
 6493TIP3    H141038   5.833   0.783   0.175 -0.9316 -0.2841  1.5234
 6493TIP3    H241039   5.781   0.924   0.159  1.1245  0.1923 -2.0143
 6494TIP3   OH241040   3.201   4.622   7.183  0.1461  0.1117 -0.0856
 6494TIP3    H141041   3.260   4.654   7.251 -1.4662  0.1525  1.3674
 6494TIP3    H241042   3.144   4.696   7.163 -0.7257 -0.4912  0.0607
 6495TIP3   OH241043   3.580   2.871   0.226  0.2142 -0.6033 -0.2962
 6495TIP3    H141044   3.518   2.800   0.214 -0.2666 -0.2710  0.1864
 6495TIP3    H241045   3.606   2.864   0.318 -0.3690  0.2734 -0.0598
 6496TIP3   OH241046   0.360   5.543   8.568 -0.3237  0.0632 -0.2392
 6496TIP3    H141047   0.351   5.453   8.601  0.2529  0.1199  0.0931
 6496TIP3    H241048   0.454   5.559   8.570 -0.3233  0.2847 -1.3722
 6497TIP3   OH241049   3.731   4.264   8.624 -0.2109 -0.5330 -0.0598
 6497TIP3    H141050   3.808   4.212   8.605 -0.0150 -0.2476 -0.0519
 6497TIP3    H241051   3.742   4.289   8.716  0.3250  0.5756 -0.4145
 6498TIP3   OH241052   2.205   2.685   7.131  0.3371  0.1444 -0.1453
 6498TIP3    H141053   2.182   2.593   7.145  0.7096 -1.0403 -5.2783
 6498TIP3    H241054   2.300   2.688   7.143  0.4106 -0.3224 -0.5767
 6499TIP3   OH241055   3.085   0.667   7.195  0.1303  0.3949  0.5942
 6499TIP3    H141056   3.058   0.586   7.238 -2.7100 -0.0684 -1.7226
 6499TIP3    H241057   3.158   0.643   7.139 -0.7501 -0.6440 -0.1434
 6500TIP3   OH241058   1.852   0.497   2.271 -0.2052  1.1621  0.1842
 6500TIP3    H141059   1.870   0.590   2.285 -1.8456  1.4004  0.8710
 6500TIP3    H241060   1.761   0.485   2.298 -0.3027 -0.4749 -0.7303
 6501TIP3   OH241061   6.835   6.651   1.629  0.6545  0.3793  0.5139
 6501TIP3    H141062   6.873   6.737   1.614  0.5080  0.7186  1.8974
 6501TIP3    H241063   6.797   6.657   1.717  0.2353 -0.9541  0.4475
 6502TIP3   OH241064   0.737   3.576   7.839 -0.1361 -0.1507 -0.0108
 6502TIP3    H141065   0.821   3.569   7.793  0.0315  0.7509  0.1407
 6502TIP3    H241066   0.723   3.670   7.849 -1.8476 -0.2225 -1.2602
 6503TIP3   OH241067   6.423   4.214   8.376 -0.1594  0.2176 -0.5756
 6503TIP3    H141068   6.515   4.203   8.400 -0.1188  0.1368 -0.7693
 6503TIP3    H241069   6.406   4.307   8.390 -0.1738  0.1444 -0.1014
 6504TIP3   OH241070   4.479   2.749   7.099  0.0864 -0.6251 -0.0204
 6504TIP3    H141071   4.558   2.701   7.125  0.5607  0.2784  0.2454
 6504TIP3    H241072   4.480   2.747   7.004  0.3977 -0.6771 -0.0183
 6505TIP3   OH241073   4.512   5.744   7.772  0.2792 -0.6482 -0.0155
 6505TIP3    H141074   4.561   5.666   7.800  0.0542 -0.6050  0.5194
 6505TIP3    H241075   4.528   5.808   7.841  1.3422  0.1620 -0.9869
 6506TIP3   OH241076   2.351   3.487   0.239 -0.3308 -0.0299  0.0964
 6506TIP3    H141077   2.394   3.556   0.189 -0.9067  1.2435  1.3086
 6506TIP3    H241078   2.411   3.467   0.311 -0.1668 -0.8092 -0.2433
 6507TIP3   OH241079   4.705   5.181   7.799 -0.1647 -0.0492 -0.4656
 6507TIP3    H141080   4.692   5.139   7.883  0.5361 -0.5781 -0.6072
 6507TIP3    H241081   4.618   5.210   7.772 -0.3551  0.3985  0.5731
 6508TIP3   OH241082   1.144   3.645   0.061  0.0337 -0.3650  0.2204
 6508TIP3    H141083   1.228   3.636   0.017  1.0413 -0.1052  2.0308
 6508TIP3    H241084   1.104   3.722   0.021  1.3094  0.3936  0.3708
 6509TIP3   OH241085   3.817   0.597   8.098 -0.6710 -0.2276 -0.5720
 6509TIP3    H141086   3.740   0.654   8.103  0.7615  1.7413  0.9864
 6509TIP3    H241087   3.797   0.524   8.157 -1.5384 -0.0137 -0.5906
 6510TIP3   OH241088   6.007   3.757   6.731 -0.1193 -0.4151 -0.4144
 6510TIP3    H141089   5.921   3.718   6.748 -0.1391 -0.5455 -0.8051
 6510TIP3    H241090   6.022   3.742   6.638 -0.1972  0.6529 -0.6073
 6511TIP3   OH241091   1.036   2.589   8.034  0.3923  0.0951  0.5268
 6511TIP3    H141092   0.986   2.575   7.954 -0.2567  3.6573  0.1636
 6511TIP3    H241093   0.970   2.605   8.102  0.9738 -1.4874  1.5317
 6512TIP3   OH241094   1.553   6.148   8.264  0.0189 -0.7979 -0.2628
 6512TIP3    H141095   1.573   6.058   8.292  1.0830 -1.0233 -1.6298
 6512TIP3    H241096   1.469   6.141   8.220 -0.5553 -0.8606  0.8197
 6513TIP3   OH241097   6.345   0.122   8.224 -0.4025  0.3890  0.3950
 6513TIP3    H141098   6.394   0.056   8.175 -0.3569 -0.1348  1.1162
 6513TIP3    H241099   6.255   0.113   8.193 -0.3255  0.2553  0.2046
 6514TIP3   OH241100   2.070   4.307   8.184 -0.4732  0.0521  0.1359
 6514TIP3    H141101   2.033   4.369   8.121 -2.9428  0.2292  1.6107
 6514TIP3    H241102   2.073   4.356   8.267 -0.1211 -1.0480  0.8039
 6515TIP3   OH241103   5.936   3.393   1.901  0.4664 -0.2835  0.2970
 6515TIP3    H141104   5.942   3.349   1.816  0.2496  1.3243 -0.5899
 6515TIP3    H241105   6.020   3.438   1.911 -0.0761  0.7691  0.2158
 6516TIP3   OH241106   3.682   3.565   1.714 -0.3779 -0.1688 -0.0585
 6516TIP3    H141107   3.771   3.563   1.679  0.2230  2.7957  1.0042
 6516TIP3    H241108   3.641   3.639   1.671 -1.3914  0.2134  1.4761
 6517TIP3   OH241109   5.899   2.018   0.997  0.7162  0.4705  0.5426
 6517TIP3    H141110   5.986   2.054   0.981  1.4982 -1.6862 -0.3901
 6517TIP3    H241111   5.865   1.998   0.910  0.0788 -0.4607  0.9879
 6518TIP3   OH241112   2.492   0.648   0.260  0.4499  0.0167 -0.3274
 6518TIP3    H141113   2.409   0.691   0.239  0.7445  0.7935  0.0363
 6518TIP3    H241114   2.509   0.590   0.186 -1.9138 -2.5337  0.9452
 6519TIP3   OH241115   0.417   1.261   2.278  0.4456  0.1750  0.9598
 6519TIP3    H141116   0.356   1.315   2.228  0.8892 -0.1392  0.0638
 6519TIP3    H241117   0.362   1.214   2.341 -0.4372 -1.0965 -0.6875
 6520TIP3   OH241118   4.997   6.516   7.006 -0.2866  0.4197 -0.1810
 6520TIP3    H141119   5.050   6.590   6.977 -0.1804  0.6181  0.5026
 6520TIP3    H241120   4.957   6.483   6.926  0.7056  0.3923 -0.6872
 6521TIP3   OH241121   1.493   4.076   7.380  0.6511 -0.4726 -0.4892
 6521TIP3    H141122   1.562   4.034   7.329  0.8732 -0.0114 -0.5674
 6521TIP3    H241123   1.536   4.149   7.424  0.3115 -0.4515 -0.1850
 6522TIP3   OH241124   2.186   1.547   7.991 -0.6776  0.1416 -0.0658
 6522TIP3    H141125   2.129   1.592   8.054 -0.9269  0.3653 -0.4465
 6522TIP3    H241126   2.234   1.618   7.949 -0.1881 -0.0392  0.1812
 6523TIP3   OH241127   3.280   3.030   7.693  0.0797 -0.0245 -0.0999
 6523TIP3    H141128   3.316   3.015   7.780 -0.6795 -1.0753  0.0487
 6523TIP3    H241129   3.349   3.002   7.633  0.6653  0.8527  0.1471
 6524TIP3   OH241130   0.720   5.842   1.083 -0.1729  0.0353  0.0677
 6524TIP3    H141131   0.727   5.874   1.173 -1.5082  0.4894  0.0297
 6524TIP3    H241132   0.756   5.913   1.030 -1.3008  0.6816  0.1243
 6525TIP3   OH241133   6.337   3.813   1.743 -0.4060 -0.0116  0.6904
 6525TIP3    H141134   6.255   3.766   1.759  1.1187 -2.8799  0.7024
 6525TIP3    H241135   6.364   3.843   1.830 -0.0716 -1.5920  1.1737
 6526TIP3   OH241136   3.181   2.641   1.841 -0.8078 -0.0550 -0.0542
 6526TIP3    H141137   3.240   2.695   1.893  0.1849 -0.7633 -0.4232
 6526TIP3    H241138   3.208   2.657   1.750 -0.5191 -1.1321 -0.1725
 6527TIP3   OH241139   4.259   0.825   1.461  0.4872  0.5822 -0.6729
 6527TIP3    H141140   4.235   0.890   1.527  1.9222 -1.5848  2.1752
 6527TIP3    H241141   4.350   0.846   1.439  0.7415 -0.0374 -0.2336
 6528TIP3   OH241142   2.371   3.442   2.147 -0.3357 -0.1807  0.0190
 6528TIP3    H141143   2.436   3.486   2.093 -1.3372  2.2020  0.6268
 6528TIP3    H241144   2.401   3.455   2.237 -2.1956  2.1643  0.4125
 6529TIP3   OH241145   0.841   0.274   7.840  0.1823  0.1692  0.4094
 6529TIP3    H141146   0.785   0.311   7.908  1.6419  0.6982  1.3703
 6529TIP3    H241147   0.880   0.197   7.881 -0.7345 -0.9104 -0.6647
 6530TIP3   OH241148   0.819   4.040   2.020  0.0837 -0.1772 -0.2755
 6530TIP3    H141149   0.808   4.135   2.016  1.5817  0.0047 -0.7921
 6530TIP3    H241150   0.780   4.008   1.939 -0.5684 -0.0186 -0.0239
 6531TIP3   OH241151   0.983   4.928   1.607  0.7387  0.7846  0.0636
 6531TIP3    H141152   1.012   4.838   1.592 -0.7480  0.2473  0.2551
 6531TIP3    H241153   1.040   4.961   1.676  0.6086 -0.3730  0.7440
 6532TIP3   OH241154   4.127   5.703   0.124  0.3879 -0.2362 -0.2085
 6532TIP3    H141155   4.220   5.683   0.110  0.1202  0.2084 -3.5723
 6532TIP3    H241156   4.081   5.624   0.099 -0.1994 -1.0088  2.9730
 6533TIP3   OH241157   6.096   6.754   0.293 -0.6126 -0.2762 -0.2453
 6533TIP3    H141158   6.003   6.750   0.314 -0.5614  1.0011  0.3303
 6533TIP3    H241159   6.140   6.752   0.379 -0.0223 -2.2768 -0.5585
 6534TIP3   OH241160   4.130   4.553   7.971  0.1073 -0.4809  0.8712
 6534TIP3    H141161   4.078   4.529   8.047 -0.4477 -0.4822  0.5015
 6534TIP3    H241162   4.072   4.536   7.896 -0.7838  3.1232  0.5907
 6535TIP3   OH241163   4.612   4.287   1.262  0.2933  0.3771 -0.4058
 6535TIP3    H141164   4.693   4.338   1.253 -0.0481  0.6200 -2.6453
 6535TIP3    H241165   4.572   4.289   1.175 -1.7037 -0.4726  0.4217
 6536TIP3   OH241166   5.842   4.264   1.857  0.8170  0.1695  0.0638
 6536TIP3    H141167   5.871   4.208   1.930  0.7217  1.3754  1.0612
 6536TIP3    H241168   5.799   4.337   1.900 -1.6135 -0.3750 -1.2976
 6537TIP3   OH241169   4.098   2.852   0.690 -0.7257 -0.2781 -0.2818
 6537TIP3    H141170   4.046   2.892   0.620 -0.3357  0.0550 -0.3867
 6537TIP3    H241171   4.063   2.764   0.699  0.1091 -0.8074 -1.8356
 6538TIP3   OH241172   0.311   4.990   0.748  0.5870 -0.3233  0.0094
 6538TIP3    H141173   0.316   4.899   0.721  0.3161 -1.0429  2.1434
 6538TIP3    H241174   0.220   5.002   0.777  1.3003 -0.3415  2.5679
 6539TIP3   OH241175   4.441   6.790   7.863  0.1155  0.5092  0.0089
 6539TIP3    H141176   4.434   6.695   7.870 -1.0781  0.1925 -3.5375
 6539TIP3    H241177   4.535   6.806   7.856  0.3497 -0.3449  0.9540
 6540TIP3   OH241178   3.281   1.609   1.442 -0.4445 -0.2818  0.0223
 6540TIP3    H141179   3.282   1.543   1.511 -0.3725  0.6413  0.9344
 6540TIP3    H241180   3.363   1.656   1.452 -0.8787  0.5103 -0.0382
 6541TIP3   OH241181   5.065   6.801   1.400 -0.1711 -0.3472 -0.6275
 6541TIP3    H141182   4.975   6.778   1.422  0.2366 -1.4329 -0.0118
 6541TIP3    H241183   5.081   6.759   1.316  0.5645 -2.4223  0.4848
 6542TIP3   OH241184   6.465   4.956   7.257  0.4669  0.0592  0.0214
 6542TIP3    H141185   6.544   4.931   7.305 -0.2511  0.2232  1.3604
 6542TIP3    H241186   6.476   5.049   7.239  1.0309 -0.1465 -0.7273
 6543TIP3   OH241187   1.624   4.993   8.384  0.1154 -0.7648  0.4642
 6543TIP3    H141188   1.530   4.975   8.394 -0.3377 -0.4155 -2.4664
 6543TIP3    H241189   1.630   5.089   8.381  0.2290 -0.7961 -1.5053
 6544TIP3   OH241190   1.219   0.885   2.268  0.5281  0.0170 -0.6632
 6544TIP3    H141191   1.243   0.802   2.228  3.0120 -0.2428  1.1415
 6544TIP3    H241192   1.207   0.865   2.360  1.7552  1.7125 -0.0879
 6545TIP3   OH241193   0.659   0.320   7.642 -0.5056  0.0420  0.4460
 6545TIP3    H141194   0.604   0.243   7.657  0.5173 -0.2692  3.1610
 6545TIP3    H241195   0.735   0.306   7.698  1.2146  1.6169 -1.3472
 6546TIP3   OH241196   5.733   4.922   0.452 -0.8624  0.6100  0.0733
 6546TIP3    H141197   5.789   4.993   0.420  0.7500 -0.5808  0.1227
 6546TIP3    H241198   5.755   4.914   0.545 -1.0877  0.0939  0.0838
 6547TIP3   OH241199   1.795   5.730   7.200 -0.0142  0.6309 -0.3622
 6547TIP3    H141200   1.757   5.675   7.268  0.0820 -0.8548 -1.4535
 6547TIP3    H241201   1.772   5.819   7.224 -1.1051  0.0275  0.8927
 6548TIP3   OH241202   4.367   2.822   1.471  0.5344 -0.7389  0.0794
 6548TIP3    H141203   4.388   2.745   1.419  1.1208 -1.2793  1.1033
 6548TIP3    H241204   4.286   2.799   1.517 -0.2265 -0.0981 -0.9044
 6549TIP3   OH241205   1.582   3.283   7.381 -0.2070 -0.3537 -0.1809
 6549TIP3    H141206   1.667   3.238   7.385 -0.8528 -1.5078  1.4799
 6549TIP3    H241207   1.597   3.355   7.320  2.3063  0.1589  0.9049
 6550TIP3   OH241208   4.623   5.386   8.129  0.4462 -0.2802  0.0347
 6550TIP3    H141209   4.594   5.425   8.212 -0.1624 -0.4183 -0.1109
 6550TIP3    H241210   4.651   5.298   8.153 -0.5286 -0.6179 -0.0359
 6551TIP3   OH241211   5.718   2.026   8.017 -0.3746 -1.2702  0.2480
 6551TIP3    H141212   5.795   2.083   8.017 -0.0640 -1.6676 -0.8050
 6551TIP3    H241213   5.668   2.054   8.093  1.7255 -2.2643  2.0972
 6552TIP3   OH241214   4.462   5.320   1.066 -0.0375 -0.4868  0.2090
 6552TIP3    H141215   4.471   5.225   1.078 -0.2773 -0.3043  2.2950
 6552TIP3    H241216   4.368   5.336   1.069  0.0446 -0.0700  1.4560
 6553TIP3   OH241217   6.807   4.761   0.973  0.1560  0.3967  0.4432
 6553TIP3    H141218   6.733   4.751   1.034  1.8138  1.2269  2.7486
 6553TIP3    H241219   6.808   4.680   0.923 -1.1709 -0.4367  1.6756
 6554TIP3   OH241220   1.896   1.288   8.008  0.8892  0.1508 -0.7163
 6554TIP3    H141221   1.940   1.262   7.928  1.4088 -3.3308  0.5523
 6554TIP3    H241222   1.964   1.287   8.075  0.3226  2.2752 -0.0317
 6555TIP3   OH241223   1.391   5.009   1.649 -0.4212 -0.1202 -0.5943
 6555TIP3    H141224   1.407   4.916   1.666  2.1385  0.4242  0.3592
 6555TIP3    H241225   1.354   5.042   1.730 -1.3080 -0.2466 -0.9258
 6556TIP3   OH241226   1.629   4.856   2.033 -0.3407 -0.5039  0.1734
 6556TIP3    H141227   1.656   4.771   2.067  0.0725  0.6601  3.0312
 6556TIP3    H241228   1.622   4.912   2.111  0.9595  2.5181 -1.6859
 6557TIP3   OH241229   6.603   0.967   7.363  0.4512 -0.9055  0.3842
 6557TIP3    H141230   6.508   0.956   7.365  0.5407 -1.9771 -0.2526
 6557TIP3    H241231   6.617   1.060   7.349 -0.5219 -0.8298 -0.1306
 6558TIP3   OH241232   4.782   3.694   7.069  0.5245  0.4685 -0.2186
 6558TIP3    H141233   4.746   3.608   7.045  1.0115 -0.0745  0.9087
 6558TIP3    H241234   4.755   3.706   7.161 -0.8062  2.2042 -0.7826
 6559TIP3   OH241235   3.109   5.817   0.620 -0.5645 -0.7649 -0.6167
 6559TIP3    H141236   3.025   5.805   0.666  0.1041 -0.4065  0.7431
 6559TIP3    H241237   3.139   5.728   0.602 -0.4352 -0.9393  0.4148
 6560TIP3   OH241238   2.347   0.037   1.007 -0.3575 -0.5637  0.0190
 6560TIP3    H141239   2.433   0.043   0.966 -0.5174 -1.7541 -0.5624
 6560TIP3    H241240   2.287   0.025   0.933 -0.7120 -2.2771  0.5277
 6561TIP3   OH241241   4.090   1.706   1.297 -0.3403  0.1615  0.1315
 6561TIP3    H141242   4.091   1.782   1.239  1.3835  1.5131  1.7845
 6561TIP3    H241243   4.076   1.743   1.384 -0.4691 -1.5399  0.8626
 6562TIP3   OH241244   5.211   1.648   8.578  0.0931  0.5332 -0.6146
 6562TIP3    H141245   5.298   1.652   8.539  0.4638 -0.6669  0.0312
 6562TIP3    H241246   5.151   1.638   8.504  0.5499  0.8006 -1.0255
 6563TIP3   OH241247   2.253   1.847   7.803 -0.4137 -0.5116  0.1005
 6563TIP3    H141248   2.243   1.826   7.711 -0.9389  0.4201 -0.0660
 6563TIP3    H241249   2.274   1.940   7.805 -0.9546 -0.3918  0.9481
 6564TIP3   OH241250   5.646   5.748   7.968  0.0334 -0.3408  0.1725
 6564TIP3    H141251   5.726   5.699   7.988 -0.0603 -0.8532 -0.6659
 6564TIP3    H241252   5.674   5.839   7.966  0.2551 -0.3518  1.5372
 6565TIP3   OH241253   5.979   3.335   8.325  0.7313  0.2983  0.5036
 6565TIP3    H141254   5.912   3.280   8.364 -0.2572 -0.7981 -2.4728
 6565TIP3    H241255   5.942   3.423   8.327 -0.8332 -0.2775 -1.0197
 6566TIP3   OH241256   5.887   1.511   6.954  0.1558 -0.6622 -0.8884
 6566TIP3    H141257   5.856   1.599   6.935  2.8300  0.3477 -1.0025
 6566TIP3    H241258   5.831   1.454   6.902 -1.9076  0.9062 -0.4881
 6567TIP3   OH241259   3.028   2.208   6.872 -0.5806  0.2929  0.3814
 6567TIP3    H141260   3.107   2.259   6.853  0.2360 -0.6413  1.1281
 6567TIP3    H241261   3.010   2.160   6.791 -1.3295  1.6769 -0.3139
 6568TIP3   OH241262   6.063   4.741   1.080 -0.0486  0.4638 -0.3303
 6568TIP3    H141263   5.989   4.697   1.122  0.9760  1.3046  2.5631
 6568TIP3    H241264   6.140   4.693   1.110  0.7900  1.5813 -0.6261
 6569TIP3   OH241265   5.674   2.273   7.338 -0.4115  0.5786  0.4393
 6569TIP3    H141266   5.605   2.256   7.403 -1.4716  1.3270 -0.4483
 6569TIP3    H241267   5.633   2.333   7.276  0.2048 -0.9499 -1.5395
 6570TIP3   OH241268   0.210   4.194   1.425 -0.4967 -0.1616  0.2628
 6570TIP3    H141269   0.150   4.132   1.383 -2.0521  1.7017 -0.4639
 6570TIP3    H241270   0.297   4.161   1.404 -1.2546 -1.2692 -1.4197
 6571TIP3   OH241271   2.556   3.821   0.546  0.2232 -0.4015 -0.3104
 6571TIP3    H141272   2.626   3.758   0.558  0.4568 -0.1112 -0.1277
 6571TIP3    H241273   2.521   3.802   0.458  0.2248 -0.8428 -0.2170
 6572TIP3   OH241274   1.835   4.344   0.525 -0.1471  0.1870 -0.3367
 6572TIP3    H141275   1.809   4.300   0.605  0.2693  2.3512  1.0928
 6572TIP3    H241276   1.755   4.352   0.473 -0.0691 -2.9998 -1.1731
 6573TIP3   OH241277   1.172   0.124   7.984  0.4417  0.2444  0.2037
 6573TIP3    H141278   1.201   0.175   7.908  0.5197  1.6902  1.1655
 6573TIP3    H241279   1.200   0.176   8.059  0.6787 -1.3293  1.2433
 6574TIP3   OH241280   6.179   1.631   0.398 -0.2194  0.1929 -0.5728
 6574TIP3    H141281   6.093   1.672   0.392 -0.2879  0.4285  1.3865
 6574TIP3    H241282   6.233   1.695   0.444  1.0062  0.0019 -1.6597
 6575TIP3   OH241283   1.746   2.422   1.513 -0.3358  0.2768  0.0396
 6575TIP3    H141284   1.748   2.368   1.592  0.5088 -2.1870 -1.5510
 6575TIP3    H241285   1.672   2.387   1.462 -2.0761  3.0518  0.4484
 6576TIP3   OH241286   0.812   2.142   6.904 -0.2466  0.6193 -0.2886
 6576TIP3    H141287   0.863   2.218   6.933 -0.9432  0.4710  1.3958
 6576TIP3    H241288   0.831   2.074   6.969  0.5596 -0.7841 -1.8865
 6577TIP3   OH241289   3.602   3.231   0.501  0.0982  0.9123 -0.1987
 6577TIP3    H141290   3.596   3.201   0.592  0.0048  0.6954 -0.2775
 6577TIP3    H241291   3.685   3.279   0.498  1.1641 -0.8447 -0.5021
 6578TIP3   OH241292   4.502   0.901   8.466  0.3100 -0.2089  0.0990
 6578TIP3    H141293   4.424   0.890   8.521 -0.9788  1.2576 -1.2968
 6578TIP3    H241294   4.499   0.827   8.406 -0.3822  0.1405 -0.3188
 6579TIP3   OH241295   6.201   6.303   8.215 -0.4483 -0.3737  0.0081
 6579TIP3    H141296   6.154   6.332   8.293 -1.4463 -2.4104  0.2586
 6579TIP3    H241297   6.141   6.321   8.142 -0.0319  0.4071 -0.1507
 6580TIP3   OH241298   4.675   2.532   0.909  0.0477  0.2871  0.7114
 6580TIP3    H141299   4.685   2.594   0.837  1.2073 -1.3099 -0.5697
 6580TIP3    H241300   4.748   2.471   0.899 -1.7176 -2.0426  1.1147
 6581TIP3   OH241301   6.464   5.591   1.326 -0.3354 -0.0002  0.2876
 6581TIP3    H141302   6.519   5.564   1.253 -1.0258  1.5173 -0.8448
 6581TIP3    H241303   6.509   5.558   1.404  0.6458 -1.2708 -0.7656
 6582TIP3   OH241304   4.776   5.338   7.019  0.4017  0.2447 -0.3866
 6582TIP3    H141305   4.704   5.324   7.081 -1.4056  2.2323 -1.9137
 6582TIP3    H241306   4.779   5.256   6.969 -0.3708 -0.1089  0.1087
 6583TIP3   OH241307   5.262   3.102   1.126 -0.0999 -0.2618  0.2885
 6583TIP3    H141308   5.213   3.184   1.118 -0.7732 -0.6496  0.3736
 6583TIP3    H241309   5.245   3.072   1.215  0.2739 -0.4202  0.3109
 6584TIP3   OH241310   0.029   2.363   0.350 -0.7924 -0.0788 -0.7518
 6584TIP3    H141311   0.091   2.291   0.336 -0.4478  0.1658 -0.5037
 6584TIP3    H241312   0.046   2.424   0.278 -1.0586 -0.2237 -0.9404
 6585TIP3   OH241313   3.391   3.047   7.974 -0.3192 -0.0874 -0.4553
 6585TIP3    H141314   3.468   3.102   7.960 -1.0852  1.3953  0.7636
 6585TIP3    H241315   3.333   3.102   8.027 -1.7122 -1.6043 -0.3496
 6586TIP3   OH241316   1.775   0.618   0.202  0.9735 -0.2632 -0.0196
 6586TIP3    H141317   1.685   0.653   0.197  1.0961 -0.0843 -1.8339
 6586TIP3    H241318   1.820   0.677   0.262  0.3537  0.8149 -0.5780
 6587TIP3   OH241319   1.923   2.583   1.373  0.3117 -0.3516  0.1180
 6587TIP3    H141320   1.861   2.522   1.413 -0.1753 -1.0758 -1.6251
 6587TIP3    H241321   1.959   2.633   1.446 -1.6423 -0.5533  1.2854
 6588TIP3   OH241322   6.862   4.000   1.925 -0.0076 -0.8837  0.1358
 6588TIP3    H141323   6.931   3.977   1.986  0.8648  0.0185 -0.4807
 6588TIP3    H241324   6.791   4.032   1.981  0.1665 -1.5424  0.7549
 6589TIP3   OH241325   2.069   4.022   7.919  0.4451 -0.2008 -0.1612
 6589TIP3    H141326   2.098   3.967   7.992 -0.0933 -1.0701 -0.5785
 6589TIP3    H241327   1.976   4.003   7.911 -0.0796  1.8779  0.5895
 6590TIP3   OH241328   2.404   6.425   8.041  0.0950 -0.2760 -0.0476
 6590TIP3    H141329   2.395   6.477   7.960 -0.9418  0.2767  0.3929
 6590TIP3    H241330   2.314   6.415   8.072  0.3309 -1.8838  0.1848
 6591TIP3   OH241331   5.090   6.687   1.154 -0.2751 -0.6127 -0.2512
 6591TIP3    H141332   5.018   6.664   1.096  0.8361 -0.9702 -1.5186
 6591TIP3    H241333   5.152   6.615   1.147  1.4661  0.8840 -1.3220
 6592TIP3   OH241334   1.588   5.842   6.402  0.4879 -0.3750  0.0384
 6592TIP3    H141335   1.576   5.937   6.410 -0.3530 -0.4912  0.2006
 6592TIP3    H241336   1.660   5.833   6.339  1.1935  0.3815  0.7065
 6593TIP3   OH241337   3.428   4.667   7.369 -0.1690 -0.2560  0.2507
 6593TIP3    H141338   3.491   4.596   7.357  0.1502 -0.3100  1.9760
 6593TIP3    H241339   3.458   4.736   7.310  0.3848 -1.0017 -0.3592
 6594TIP3   OH241340   2.110   1.653   6.717  0.2639 -0.3320 -0.3124
 6594TIP3    H141341   2.115   1.734   6.767 -0.3238 -0.7743  0.4889
 6594TIP3    H241342   2.034   1.665   6.660  1.7959  0.7694 -2.2446
 6595TIP3   OH241343   6.792   6.827   8.496 -0.1094  0.4784  0.0071
 6595TIP3    H141344   6.800   6.732   8.504 -0.2882  0.5227  0.7950
 6595TIP3    H241345   6.702   6.846   8.523 -1.2918  0.5416 -3.5231
 6596TIP3   OH241346   4.815   6.234   8.608  0.0097  0.2176 -0.1510
 6596TIP3    H141347   4.779   6.146   8.601  1.4476 -0.5281  1.0537
 6596TIP3    H241348   4.739   6.292   8.601 -1.2462 -1.1999  0.9243
 6597TIP3   OH241349   4.195   3.815   1.148 -0.2659 -0.7085  0.2866
 6597TIP3    H141350   4.164   3.736   1.191  1.0437 -1.9894 -1.0152
 6597TIP3    H241351   4.235   3.867   1.218 -2.0340 -0.6706  1.3328
 6598TIP3   OH241352   1.865   4.214   1.654 -0.2820  0.2503 -0.6314
 6598TIP3    H141353   1.790   4.236   1.598 -1.1871 -0.9364  0.0698
 6598TIP3    H241354   1.859   4.119   1.667  0.8575  0.2593  0.1394
 6599TIP3   OH241355   5.697   3.639   0.556  0.5403 -0.2728 -0.4968
 6599TIP3    H141356   5.751   3.715   0.536  0.3273 -0.4444 -1.7542
 6599TIP3    H241357   5.609   3.674   0.570  0.7555 -0.1122  0.5812
 6600TIP3   OH241358   0.352   3.706   1.573 -0.0604 -0.0644  0.1483
 6600TIP3    H141359   0.406   3.759   1.632  0.7325 -0.9869  0.2658
 6600TIP3    H241360   0.386   3.726   1.486  1.0988 -1.2993  0.2825
 6601TIP3   OH241361   0.300   2.992   8.024 -0.1611 -1.1639 -0.5289
 6601TIP3    H141362   0.317   3.058   8.091  1.1136 -3.1269  1.2203
 6601TIP3    H241363   0.228   3.028   7.972  1.0869  1.9556 -0.2692
 6602TIP3   OH241364   4.975   3.516   8.396 -0.4677  0.0258  0.2178
 6602TIP3    H141365   4.918   3.439   8.402  0.1365 -0.4586 -0.1530
 6602TIP3    H241366   4.959   3.564   8.477 -1.0883 -0.3212  0.3094
 6603TIP3   OH241367   4.710   1.844   0.954  0.3271  0.9157  0.1384
 6603TIP3    H141368   4.640   1.781   0.938  0.4557  0.8900 -0.3333
 6603TIP3    H241369   4.766   1.839   0.876  1.3468  0.3026  0.8823
 6604TIP3   OH241370   3.018   1.777   6.278  0.2505  0.0123  0.0548
 6604TIP3    H141371   2.969   1.702   6.310  2.0198 -0.9723  0.5964
 6604TIP3    H241372   2.956   1.850   6.281 -0.9728 -1.0405  1.2888
 6605TIP3   OH241373   5.283   6.855   0.406  0.5487 -0.0879  0.7753
 6605TIP3    H141374   5.290   6.803   0.486  0.0503  0.4039  1.1473
 6605TIP3    H241375   5.235   6.933   0.433 -2.3763 -1.2520 -0.6139
 6606TIP3   OH241376   6.747   2.968   7.808 -0.5319 -0.3017  0.4960
 6606TIP3    H141377   6.664   3.016   7.807 -0.5193 -0.2543  1.1266
 6606TIP3    H241378   6.733   2.896   7.869 -0.0199 -0.1154  0.8462
 6607TIP3   OH241379   3.714   2.219   0.835  0.2118  0.2783 -0.3648
 6607TIP3    H141380   3.683   2.265   0.756  1.4910 -0.4001 -1.3001
 6607TIP3    H241381   3.760   2.143   0.801 -1.1836 -1.3075  1.1327
 6608TIP3   OH241382   5.597   3.488   0.783  0.0749 -0.2216  0.1109
 6608TIP3    H141383   5.651   3.519   0.710  1.7062 -1.4678  0.7243
 6608TIP3    H241384   5.635   3.404   0.807 -0.9414 -0.2293  1.8701
 6609TIP3   OH241385   5.780   0.053   0.328 -0.3122  0.3135  0.3143
 6609TIP3    H141386   5.781   0.051   0.232  0.0544 -0.2161  0.3205
 6609TIP3    H241387   5.805  -0.036   0.354 -0.3141  0.4785  0.9016
 6610TIP3   OH241388   6.815   6.493   6.477  0.1653 -0.8116  0.0182
 6610TIP3    H141389   6.791   6.544   6.400  0.6343 -0.0686  0.3452
 6610TIP3    H241390   6.733   6.455   6.508 -0.4712  0.9360  0.6059
 6611TIP3   OH241391   5.774   4.612   0.339 -0.0201 -0.6538 -0.0850
 6611TIP3    H141392   5.771   4.606   0.435  0.3732 -1.5408 -0.1208
 6611TIP3    H241393   5.834   4.684   0.322 -1.3375  0.5844  0.3448
 6612TIP3   OH241394   2.511   4.601   1.705  0.1920 -0.1121 -0.1503
 6612TIP3    H141395   2.533   4.692   1.685 -0.7639  0.4002  1.0157
 6612TIP3    H241396   2.583   4.570   1.760 -0.8998  0.9322  1.9923
 6613TIP3   OH241397   5.781   3.236   0.753 -0.6269  0.3607 -0.2930
 6613TIP3    H141398   5.785   3.269   0.663  2.6445  2.9960  0.6112
 6613TIP3    H241399   5.830   3.154   0.751  0.5045  1.0246 -0.7495
 6614TIP3   OH241400   1.488   0.436   7.609  0.1320 -0.0235 -1.1265
 6614TIP3    H141401   1.564   0.494   7.623 -1.3370  1.3455  2.7565
 6614TIP3    H241402   1.516   0.352   7.645 -0.1289  0.5122  0.4166
 6615TIP3   OH241403   1.959   5.036   6.035 -0.5326 -0.5343 -0.2190
 6615TIP3    H141404   2.052   5.040   6.059 -0.7651  2.7076  0.6233
 6615TIP3    H241405   1.954   4.963   5.973  2.4426 -1.2017  0.1307
 6616TIP3   OH241406   5.624   0.227   7.119  0.0414 -0.2794 -0.0469
 6616TIP3    H141407   5.624   0.171   7.197  0.7943 -0.6241 -0.2873
 6616TIP3    H241408   5.706   0.276   7.125 -0.4190  0.5128 -0.0509
 6617TIP3   OH241409   2.612   5.939   8.044  0.0799 -0.0731  0.1265
 6617TIP3    H141410   2.523   5.945   8.078 -0.5413  0.6061 -1.5419
 6617TIP3    H241411   2.612   5.859   7.992  0.7927 -0.6681  0.9977
 6618TIP3   OH241412   6.281   3.213   7.860  0.3929 -0.1467 -0.9175
 6618TIP3    H141413   6.212   3.214   7.927  0.3177  0.8605 -1.0002
 6618TIP3    H241414   6.363   3.219   7.909  0.3310  0.7510 -0.9207
 6619TIP3   OH241415   1.879   3.536   0.298  0.1845 -0.1185  0.2243
 6619TIP3    H141416   1.941   3.597   0.258 -0.8207  1.0637  0.4064
 6619TIP3    H241417   1.803   3.590   0.320 -1.1117 -1.5992 -0.4315
 6620TIP3   OH241418   0.646   5.948   1.779 -0.6571 -0.1575  0.6436
 6620TIP3    H141419   0.657   5.929   1.686 -0.5857 -2.4457  1.0477
 6620TIP3    H241420   0.573   5.892   1.807 -0.7726  0.5827  1.9332
 6621TIP3   OH241421   2.996   5.868   0.315 -0.6636  0.7874 -0.2766
 6621TIP3    H141422   2.910   5.826   0.309  0.3020 -1.2866 -0.4826
 6621TIP3    H241423   3.024   5.855   0.405  1.2144 -2.4889 -1.1764
 6622TIP3   OH241424   4.383   1.266   7.453  0.1003  0.2431 -0.0448
 6622TIP3    H141425   4.461   1.220   7.484 -0.1676 -0.1212  0.1076
 6622TIP3    H241426   4.406   1.358   7.456  0.2940  0.1775  0.6694
 6623TIP3   OH241427   5.478   2.694   1.083  0.2381 -0.1325 -0.1555
 6623TIP3    H141428   5.436   2.692   1.169 -0.0144 -0.5119 -0.2875
 6623TIP3    H241429   5.435   2.766   1.037 -0.7460 -0.9396 -0.5303
 6624TIP3   OH241430   1.321   6.638   7.788 -0.1890  0.6379 -0.1975
 6624TIP3    H141431   1.335   6.649   7.882 -0.3756  2.0562 -0.3153
 6624TIP3    H241432   1.284   6.721   7.759 -0.9815 -0.0889 -1.3765
 6625TIP3   OH241433   5.355   4.516   6.861  0.2657  0.0148  0.0836
 6625TIP3    H141434   5.278   4.469   6.829 -0.1375  1.2213 -0.7534
 6625TIP3    H241435   5.425   4.450   6.857 -0.4428 -0.7394 -0.3162
 6626TIP3   OH241436   2.562   4.760   0.070 -0.0603  0.6292 -0.9437
 6626TIP3    H141437   2.516   4.778   0.152  1.1641 -1.3197  0.2637
 6626TIP3    H241438   2.503   4.704   0.021 -0.5475  1.3092 -1.1484
 6627TIP3   OH241439   4.947   5.311   1.981  0.0016  0.3239  0.6059
 6627TIP3    H141440   5.000   5.235   2.005  0.1429  0.2698  0.1283
 6627TIP3    H241441   4.858   5.287   2.006 -0.1838 -0.5690 -0.8076
 6628TIP3   OH241442   0.553   2.206   0.919 -0.2663 -0.7043  0.0935
 6628TIP3    H141443   0.483   2.270   0.932  0.0797 -0.3740  0.3566
 6628TIP3    H241444   0.633   2.255   0.938  0.0517 -1.0112 -0.4459
 6629TIP3   OH241445   1.546   2.632   6.575  0.1668 -0.0298  0.5015
 6629TIP3    H141446   1.552   2.679   6.492  0.0311 -0.1318  0.4341
 6629TIP3    H241447   1.453   2.629   6.594  0.0088 -1.7463 -0.3396
 6630TIP3   OH241448   1.475   5.040   1.388 -0.3195 -0.0705 -0.2467
 6630TIP3    H141449   1.456   5.047   1.482 -1.8384  0.2553 -0.5514
 6630TIP3    H241450   1.527   5.117   1.368 -1.2450  0.6580  0.0650
 6631TIP3   OH241451   6.839   3.795   8.204 -0.5109  0.3059  0.6812
 6631TIP3    H141452   6.783   3.720   8.225 -0.5263  0.9774  3.4049
 6631TIP3    H241453   6.888   3.767   8.127 -1.8483 -1.7606  0.4939
 6632TIP3   OH241454   5.395   3.177   7.568 -0.0925  0.2011 -0.5776
 6632TIP3    H141455   5.474   3.229   7.582 -0.5892  0.8303 -0.0428
 6632TIP3    H241456   5.420   3.088   7.593  0.4029  0.4260 -0.2562
 6633TIP3   OH241457   5.922   3.754   7.310 -0.0692  0.2508  0.2801
 6633TIP3    H141458   5.846   3.804   7.339  0.4729  0.7501  0.8519
 6633TIP3    H241459   5.901   3.728   7.220 -2.1608 -2.0284  1.3029
 6634TIP3   OH241460   0.018   5.096   8.594 -0.0685  0.3537  0.3846
 6634TIP3    H141461   0.035   5.141   8.511 -1.6015 -1.5397 -1.0351
 6634TIP3    H241462  -0.018   5.164   8.651  0.8590  1.6572 -0.5182
 6635TIP3   OH241463   2.125   4.968   0.642 -0.0359 -0.1442 -0.4153
 6635TIP3    H141464   2.130   4.876   0.667  0.0474 -0.0002  0.1167
 6635TIP3    H241465   2.182   5.013   0.704 -1.0165  0.4161  0.1168
 6636TIP3   OH241466   5.664   1.161   7.299 -0.2727 -0.2789  0.2283
 6636TIP3    H141467   5.708   1.246   7.291 -0.8674  0.0330  0.1858
 6636TIP3    H241468   5.710   1.117   7.371  0.9812 -0.5216 -0.6836
 6637TIP3   OH241469   3.664   1.482   0.853  0.0523 -0.1684 -0.4687
 6637TIP3    H141470   3.738   1.427   0.877 -1.2326 -1.1623  1.5241
 6637TIP3    H241471   3.672   1.560   0.908 -0.1300 -0.0676 -0.5830
 6638TIP3   OH241472   4.661   5.787   0.825  0.5612  0.0189  0.1279
 6638TIP3    H141473   4.641   5.817   0.736 -1.7660  0.5452  0.7505
 6638TIP3    H241474   4.578   5.794   0.872  2.0753  1.4253  2.8522
 6639TIP3   OH241475   0.211   0.247   8.034  1.0832 -1.0357  0.3734
 6639TIP3    H141476   0.222   0.224   8.126 -0.9291  1.1770  1.2642
 6639TIP3    H241477   0.212   0.342   8.032 -0.0289 -1.0024 -1.7046
 6640TIP3   OH241478   2.855   6.495   0.456 -0.0690 -0.2934 -0.1568
 6640TIP3    H141479   2.911   6.570   0.432 -0.0732 -0.2022  0.1086
 6640TIP3    H241480   2.806   6.526   0.532 -1.4829  0.1073 -1.1835
 6641TIP3   OH241481   6.841   4.893   2.208  0.5141 -0.4209  0.5274
 6641TIP3    H141482   6.822   4.831   2.138  1.4143 -0.8027  0.6121
 6641TIP3    H241483   6.873   4.839   2.280  1.1240  0.1226  0.6692
 6642TIP3   OH241484   6.316   0.583   0.116 -0.1326  0.2015 -0.2637
 6642TIP3    H141485   6.298   0.647   0.047 -0.0676  0.2064 -0.2767
 6642TIP3    H241486   6.283   0.624   0.195 -0.0767  0.2587 -0.2696
 6643TIP3   OH241487   1.368   1.113   7.044  0.2962  0.6517  0.1696
 6643TIP3    H141488   1.460   1.086   7.040  0.3326  0.5824  1.2556
 6643TIP3    H241489   1.326   1.066   6.972  0.8188 -0.4878  0.5840
 6644TIP3   OH241490   2.503   1.371   7.701 -0.3620 -0.0866  0.1242
 6644TIP3    H141491   2.428   1.344   7.754  0.2262 -1.5561  0.2323
 6644TIP3    H241492   2.550   1.290   7.682  0.8067  0.7257 -0.5563
 6645TIP3   OH241493   3.728   4.487   1.538 -0.1472  0.2987 -0.3098
 6645TIP3    H141494   3.787   4.493   1.463  1.6397 -0.6676  0.9538
 6645TIP3    H241495   3.782   4.508   1.614 -1.4940 -0.3670  0.8891
 6646TIP3   OH241496   5.992   1.146   1.172  0.2881 -0.1421  0.2503
 6646TIP3    H141497   5.923   1.092   1.134  1.5556 -1.9574  0.4038
 6646TIP3    H241498   6.018   1.205   1.101 -1.6064  0.8479  0.2993
 6647TIP3   OH241499   1.371   3.971   1.132 -0.0847 -0.3506  0.6304
 6647TIP3    H141500   1.316   4.046   1.113  0.1405  0.0723  1.6005
 6647TIP3    H241501   1.334   3.933   1.212 -0.3414 -1.4177  0.0211
 6648TIP3   OH241502   4.406   4.386   7.479  0.3607  0.1174 -0.5604
 6648TIP3    H141503   4.339   4.320   7.497  0.0985  0.7216  0.7775
 6648TIP3    H241504   4.424   4.377   7.385  0.4542 -1.9445 -0.3870
 6649TIP3   OH241505   2.131   3.208   6.609 -0.2079  0.1956 -0.1597
 6649TIP3    H141506   2.172   3.125   6.587 -1.4766 -0.7098  0.7748
 6649TIP3    H241507   2.065   3.221   6.542 -0.8776 -0.2100  0.4068
 6650TIP3   OH241508   0.360   6.369   8.038 -0.5082  0.0321  0.6263
 6650TIP3    H141509   0.393   6.288   8.078  0.4849  0.1216  0.0381
 6650TIP3    H241510   0.435   6.428   8.039 -0.9203  0.5800  0.0907
 6651TIP3   OH241511   5.646   4.377   8.480  0.2384  0.5093  0.1653
 6651TIP3    H141512   5.637   4.406   8.571 -0.3808  1.7522 -0.2673
 6651TIP3    H241513   5.612   4.451   8.429  0.6233 -0.1614 -1.0714
 6652TIP3   OH241514   1.451   1.609   2.218 -0.2092  0.2736  0.2571
 6652TIP3    H141515   1.435   1.523   2.258  0.1628 -0.5470 -1.2755
 6652TIP3    H241516   1.530   1.641   2.260 -0.8362  0.2646  1.4657
 6653TIP3   OH241517   1.505   1.424   7.058 -0.6656 -0.0030  0.1259
 6653TIP3    H141518   1.588   1.407   7.013  0.0479  0.8194  1.0979
 6653TIP3    H241519   1.443   1.365   7.016  0.5844 -1.2133 -0.0772
 6654TIP3   OH241520   5.945   3.400   0.160  0.3489  0.3764  0.5408
 6654TIP3    H141521   5.905   3.442   0.083  1.7612 -1.4239 -1.3006
 6654TIP3    H241522   5.883   3.415   0.231 -1.9733  0.5055 -1.3929
 6655TIP3   OH241523   6.818   4.169   0.547  0.6157  0.1768 -0.3998
 6655TIP3    H141524   6.911   4.154   0.560  0.6513 -0.1477 -0.9888
 6655TIP3    H241525   6.776   4.121   0.619  0.9173  0.7340  0.1552
 6656TIP3   OH241526   3.637   0.293   6.374 -0.3236  0.1361  0.4048
 6656TIP3    H141527   3.675   0.327   6.455  0.2960  2.1424 -0.6840
 6656TIP3    H241528   3.545   0.277   6.397 -0.1747  0.7133  1.4746
 6657TIP3   OH241529   3.004   2.408   0.602  0.4083 -0.5476 -0.0375
 6657TIP3    H141530   3.068   2.458   0.652  0.2526  0.1485 -0.5230
 6657TIP3    H241531   3.009   2.319   0.638  2.7885 -0.9305 -1.1344
 6658TIP3   OH241532   2.140   5.434   7.008  0.5192  0.1829  0.2295
 6658TIP3    H141533   2.127   5.339   7.010 -0.8549  0.3388  0.1962
 6658TIP3    H241534   2.052   5.469   6.994  1.0981  1.4445 -0.3467
 6659TIP3   OH241535   3.802   1.560   7.503  0.2557 -0.4817 -0.3053
 6659TIP3    H141536   3.719   1.598   7.472  0.4829  0.5475  0.3032
 6659TIP3    H241537   3.835   1.623   7.567  1.6921 -0.7096 -0.7890
 6660TIP3   OH241538   2.457   3.498   0.494 -0.2023 -0.3190 -0.2778
 6660TIP3    H141539   2.539   3.547   0.488  0.0567 -0.6322  0.5713
 6660TIP3    H241540   2.390   3.565   0.505 -0.1433 -0.0248 -1.6111
 6661TIP3   OH241541   2.142   6.768   1.418  0.1054 -0.0198 -0.1581
 6661TIP3    H141542   2.083   6.844   1.413  0.8313  0.4856 -1.6274
 6661TIP3    H241543   2.162   6.748   1.327  2.3204 -0.0779  0.2939
 6662TIP3   OH241544   5.601   5.832   0.071  0.4168 -0.1456 -0.1198
 6662TIP3    H141545   5.564   5.916   0.099  4.0564  1.4359  0.6026
 6662TIP3    H241546   5.578   5.826  -0.022  0.0265  1.6509 -0.1841
 6663TIP3   OH241547   2.408   3.988   1.739 -0.2428 -0.4887 -0.5353
 6663TIP3    H141548   2.370   3.980   1.827 -0.5647 -1.9209 -0.7839
 6663TIP3    H241549   2.362   4.063   1.701  0.0049  0.2512  0.5571
 6664TIP3   OH241550   1.218   3.743   6.651 -0.5432  0.0080  0.6801
 6664TIP3    H141551   1.135   3.788   6.633 -0.9985 -0.7204  0.9076
 6664TIP3    H241552   1.223   3.675   6.584  0.5195  0.8568 -0.1510
 6665TIP3   OH241553   4.094   0.518   7.446  0.5119 -0.1914  0.7418
 6665TIP3    H141554   4.017   0.530   7.502  1.7833  0.4009  2.4400
 6665TIP3    H241555   4.067   0.452   7.382 -3.1375  3.3769 -2.0062
 6666TIP3   OH241556   3.198   0.693   1.568  0.0390  0.3163  0.5780
 6666TIP3    H141557   3.268   0.758   1.582  0.4220  0.0504 -0.0686
 6666TIP3    H241558   3.199   0.641   1.648 -0.4221  1.2314  1.2056
 6667TIP3   OH241559   2.136   2.660   7.558 -0.6478 -0.1250  0.7430
 6667TIP3    H141560   2.097   2.623   7.479 -0.2798  1.7503 -0.3993
 6667TIP3    H241561   2.227   2.632   7.557 -1.0475 -1.5127  1.4539
 6668TIP3   OH241562   3.519   2.014   0.956 -0.0147 -0.5313 -0.4817
 6668TIP3    H141563   3.612   2.033   0.966 -0.2135 -0.2162  0.9507
 6668TIP3    H241564   3.479   2.048   1.035 -1.2073 -1.6193 -0.5857
 6669TIP3   OH241565   4.800   2.280   7.796 -0.1390  0.6001  0.2720
 6669TIP3    H141566   4.840   2.288   7.710  1.6167 -1.8001  0.7445
 6669TIP3    H241567   4.854   2.214   7.841 -2.0649  0.4617  2.5660
 6670TIP3   OH241568   1.905   4.635   0.582 -0.7250 -0.1189  0.3892
 6670TIP3    H141569   1.990   4.673   0.606 -1.3154  0.3565  1.8082
 6670TIP3    H241570   1.922   4.541   0.575 -0.0977 -0.0321  0.7138
 6671TIP3   OH241571   6.401   6.547   6.749 -0.3573  0.0624  0.0635
 6671TIP3    H141572   6.408   6.545   6.654 -1.1279 -1.3385  0.0176
 6671TIP3    H241573   6.432   6.635   6.773  1.6400 -0.1886 -1.3127
 6672TIP3   OH241574   1.285   3.263   7.777 -0.1675  0.4347  0.2616
 6672TIP3    H141575   1.247   3.224   7.699  0.1137 -1.6806  1.1137
 6672TIP3    H241576   1.231   3.340   7.795 -2.3569 -0.9296 -0.0987
 6673TIP3   OH241577   5.348   1.297   8.214  0.7076  0.0272 -0.3471
 6673TIP3    H141578   5.274   1.237   8.203  0.3944 -0.1193  2.1041
 6673TIP3    H241579   5.358   1.339   8.128 -1.4494 -0.8074 -1.0591
 6674TIP3   OH241580   2.135   5.682   8.639  0.6699 -0.0623  0.0514
 6674TIP3    H141581   2.159   5.658   8.729 -0.4508  2.9370  1.2952
 6674TIP3    H241582   2.208   5.738   8.609 -0.0785  0.9583  0.0778
 6675TIP3   OH241583   4.238   5.706   7.737  0.5516 -0.4271 -0.4761
 6675TIP3    H141584   4.334   5.700   7.742  0.5680 -0.5555 -0.9719
 6675TIP3    H241585   4.219   5.797   7.760  0.8794 -0.0671 -1.5578
 6676TIP3   OH241586   3.466   5.846   7.513  0.3203 -0.2246 -0.2420
 6676TIP3    H141587   3.529   5.917   7.525 -0.6754  0.7441 -0.5776
 6676TIP3    H241588   3.403   5.880   7.450 -1.5943 -0.4173  1.4694
 6677TIP3   OH241589   3.549   6.607   7.763  0.0135 -0.2110  0.5285
 6677TIP3    H141590   3.570   6.530   7.709  0.6877 -0.8439  1.6568
 6677TIP3    H241591   3.575   6.582   7.851 -2.1458  0.3514  1.3861
 6678TIP3   OH241592   2.727   6.829   1.234 -0.5558  0.5426 -0.1880
 6678TIP3    H141593   2.762   6.798   1.151 -0.5698 -0.5807  0.2056
 6678TIP3    H241594   2.795   6.888   1.269 -0.2396  0.4557 -0.6509
 6679TIP3   OH241595   1.339   6.082   2.215 -0.4408 -0.9352 -0.7793
 6679TIP3    H141596   1.366   6.116   2.130 -2.0989 -0.3180 -1.1004
 6679TIP3    H241597   1.402   6.119   2.277 -1.2577  1.5466 -1.3158
 6680TIP3   OH241598   0.073   4.410   8.215  0.2968  0.5342 -0.1484
 6680TIP3    H141599   0.114   4.497   8.206  1.0000  0.2967  0.6214
 6680TIP3    H241600   0.027   4.397   8.132  0.3631  1.5516 -0.3653
 6681TIP3   OH241601   0.752   1.746   6.468  1.1753  0.1850  0.2995
 6681TIP3    H141602   0.842   1.777   6.467  1.0179  0.6506 -1.2998
 6681TIP3    H241603   0.699   1.825   6.465  0.7685 -0.0936 -2.5298
 6682TIP3   OH241604   5.956   0.677   8.294 -0.2790  0.1998 -0.4604
 6682TIP3    H141605   5.946   0.771   8.279 -0.0600 -0.0230 -2.3119
 6682TIP3    H241606   5.866   0.643   8.294 -0.3102  0.2806 -0.7954
 6683TIP3   OH241607   5.654   0.951   0.850 -0.3634 -0.4042 -0.3428
 6683TIP3    H141608   5.579   1.008   0.838 -0.7432 -0.9947 -0.8391
 6683TIP3    H241609   5.641   0.880   0.787  0.9980 -0.1171 -0.9941
 6684TIP3   OH241610   1.856   2.914   6.576  0.7325 -0.0029  0.0632
 6684TIP3    H141611   1.836   2.886   6.486 -0.5767  0.5251  0.1610
 6684TIP3    H241612   1.775   2.897   6.624  1.1989  0.3492  0.9893
 6685TIP3   OH241613   2.280   5.329   8.199  0.0907  0.3154 -0.6769
 6685TIP3    H141614   2.364   5.288   8.175  0.1304  0.5869 -1.0043
 6685TIP3    H241615   2.300   5.380   8.278 -0.1726 -1.0521  0.3135
 6686TIP3   OH241616   6.421   6.444   8.049  0.1249  0.0946 -0.2360
 6686TIP3    H141617   6.401   6.487   7.966 -0.0190 -0.6111 -0.5765
 6686TIP3    H241618   6.336   6.413   8.080  0.1954  0.2567  0.1158
 6687TIP3   OH241619   4.993   0.505   7.665  0.2656  0.1407  0.1108
 6687TIP3    H141620   5.088   0.498   7.672  0.3075 -0.8495 -1.0586
 6687TIP3    H241621   4.975   0.492   7.572 -1.0313  0.1679  0.3392
 6688TIP3   OH241622   3.331   6.759   8.609 -0.2327 -0.3921 -0.5114
 6688TIP3    H141623   3.248   6.803   8.628 -0.8236 -1.2852 -0.9834
 6688TIP3    H241624   3.361   6.800   8.527  0.9228  1.4795  0.7614
 6689TIP3   OH241625   3.093   0.426   0.546 -0.1015  0.5407  0.1165
 6689TIP3    H141626   3.132   0.352   0.593  0.1921  0.7879  0.2707
 6689TIP3    H241627   3.156   0.497   0.559 -0.0847  0.6503 -0.5376
 6690TIP3   OH241628   4.401   0.151   0.621 -0.1373 -0.0352 -0.6267
 6690TIP3    H141629   4.424   0.130   0.531 -2.0898  0.2313 -1.2225
 6690TIP3    H241630   4.333   0.088   0.645 -0.5849  0.7248  0.2013
 6691TIP3   OH241631   1.374   4.893   8.111  0.4486  0.3514 -0.0296
 6691TIP3    H141632   1.344   4.983   8.127 -0.5959  0.0283 -0.0835
 6691TIP3    H241633   1.307   4.855   8.054 -0.7758 -1.3866  2.3912
 6692TIP3   OH241634   0.859   2.524   0.405  0.4453 -0.1747 -0.4045
 6692TIP3    H141635   0.865   2.610   0.363  1.4886 -0.0591 -0.0529
 6692TIP3    H241636   0.927   2.526   0.473  2.0815 -2.1250 -1.8827
 6693TIP3   OH241637   2.476   6.280   7.252  0.1918  0.2131  0.3177
 6693TIP3    H141638   2.490   6.305   7.160 -0.6675  0.9284  0.3692
 6693TIP3    H241639   2.500   6.187   7.255  1.8159  0.5859 -0.2532
 6694TIP3   OH241640   6.787   5.803   7.897  0.0120 -0.1965 -0.3441
 6694TIP3    H141641   6.806   5.825   7.988 -1.3005 -0.7177  0.0785
 6694TIP3    H241642   6.834   5.868   7.845 -0.3576  0.9580  0.7432
 6695TIP3   OH241643   6.585   1.235   7.273 -0.4273  0.0682 -0.6035
 6695TIP3    H141644   6.548   1.286   7.201 -1.9583  0.6620  0.5566
 6695TIP3    H241645   6.582   1.294   7.348 -1.0789 -1.3106  0.4897
 6696TIP3   OH241646   6.633   5.000   2.365  0.2078  0.1528  0.0192
 6696TIP3    H141647   6.606   4.928   2.421 -0.3799 -0.4858 -1.0467
 6696TIP3    H241648   6.719   4.974   2.332  1.0400  1.0212  1.4318
 6697TIP3   OH241649   6.666   2.858   1.245 -0.0963 -0.0920  0.5052
 6697TIP3    H141650   6.749   2.905   1.250  0.0889 -0.1670 -1.2445
 6697TIP3    H241651   6.690   2.769   1.221 -0.7109  0.1230 -1.0238
 6698TIP3   OH241652   0.786   3.412   1.942 -0.0554 -0.1609  0.3411
 6698TIP3    H141653   0.858   3.409   2.005  1.9738  3.1627 -1.5036
 6698TIP3    H241654   0.785   3.325   1.902  4.0034 -0.0021 -0.5111
 6699TIP3   OH241655   0.328   0.301   8.431  0.3858  0.3478 -0.2564
 6699TIP3    H141656   0.272   0.368   8.394  2.9493  0.4372 -4.5622
 6699TIP3    H241657   0.268   0.231   8.456 -1.9384  2.2501 -0.1874
 6700TIP3   OH241658   3.765   3.920   0.707 -0.0045  0.4807  0.2918
 6700TIP3    H141659   3.742   3.881   0.792  1.0749  1.8813  1.2707
 6700TIP3    H241660   3.834   3.864   0.673  0.7629  0.8711  1.1681
 6701TIP3   OH241661   3.210   1.407   1.265  0.1600  0.3012 -0.1884
 6701TIP3    H141662   3.168   1.483   1.305 -1.1292 -0.0791 -0.7924
 6701TIP3    H241663   3.294   1.441   1.233  0.9736  0.7523  2.2284
 6702TIP3   OH241664   0.541   5.384   1.633 -0.5405  0.2058  0.6486
 6702TIP3    H141665   0.473   5.316   1.630 -0.0327 -0.3127  0.9189
 6702TIP3    H241666   0.493   5.465   1.616 -1.3300 -0.0780  1.4722
 6703TIP3   OH241667   1.889   6.364   7.100  0.2854  0.3097 -0.1356
 6703TIP3    H141668   1.984   6.358   7.096  0.3033 -0.3108  0.8490
 6703TIP3    H241669   1.867   6.335   7.189 -0.7887  0.8666 -0.2009
 6704TIP3   OH241670   0.454   1.406   1.444  0.2284 -0.1747 -0.2006
 6704TIP3    H141671   0.407   1.326   1.419  0.1282  0.5424 -2.5011
 6704TIP3    H241672   0.420   1.473   1.386  2.1893  0.9691 -0.1005
 6705TIP3   OH241673   3.930   0.068   1.049 -0.2158 -0.2684  0.0632
 6705TIP3    H141674   3.928  -0.026   1.030  1.4827 -0.4462  0.6293
 6705TIP3    H241675   3.891   0.108   0.971 -0.0952 -1.3873 -0.6047
 6706TIP3   OH241676   4.195   3.864   7.037 -0.1533 -0.1398  0.4915
 6706TIP3    H141677   4.152   3.797   7.090  2.1536 -0.1211  2.5370
 6706TIP3    H241678   4.193   3.828   6.948 -2.4827 -1.0271  0.8236
 6707TIP3   OH241679   4.013   6.602   7.976  0.1716 -0.4659 -0.3553
 6707TIP3    H141680   4.067   6.680   7.963 -2.3146  1.2785 -0.7869
 6707TIP3    H241681   3.934   6.618   7.925 -0.8046 -2.8920  0.2516
 6708TIP3   OH241682   1.482   5.500   8.166  0.5611 -0.3282 -1.0263
 6708TIP3    H141683   1.456   5.491   8.258  1.9783 -0.8261 -0.6442
 6708TIP3    H241684   1.479   5.411   8.131  1.7681 -0.4235 -0.9397
 6709TIP3   OH241685   0.248   6.466   6.406 -0.3810  0.0990 -0.7695
 6709TIP3    H141686   0.161   6.491   6.438  0.2103  1.2044  0.0162
 6709TIP3    H241687   0.267   6.528   6.336 -0.3647 -0.3749 -1.1937
 6710TIP3   OH241688   6.477   4.361   0.503  0.2044  0.3439 -0.7191
 6710TIP3    H141689   6.447   4.270   0.501  1.4043 -0.0782 -0.5039
 6710TIP3    H241690   6.462   4.389   0.593  1.6818 -0.3316 -0.2179
 6711TIP3   OH241691   6.158   3.906   1.985 -0.1165  0.1103 -0.2454
 6711TIP3    H141692   6.213   3.983   1.973  1.1767 -0.9772 -1.5925
 6711TIP3    H241693   6.202   3.855   2.053  0.2078 -0.4584 -0.8762
 6712TIP3   OH241694   1.456   5.455   6.384  0.1257 -0.1490 -0.1178
 6712TIP3    H141695   1.483   5.534   6.431 -1.8737  0.3846  0.2038
 6712TIP3    H241696   1.533   5.398   6.388  1.1214  1.1926  0.9214
 6713TIP3   OH241697   3.091   4.529   0.078 -0.5923 -0.0926  0.4279
 6713TIP3    H141698   3.063   4.438   0.085 -0.3866 -0.0273  2.8307
 6713TIP3    H241699   3.033   4.577   0.138  0.7111  0.9974  0.8780
 6714TIP3   OH241700   2.066   0.072   1.651 -0.1455  0.1328 -0.0532
 6714TIP3    H141701   2.102   0.042   1.735 -2.0795 -0.3443  0.6550
 6714TIP3    H241702   2.011  -0.001   1.622  1.9863 -0.5505 -2.7760
 6715TIP3   OH241703   4.451   5.957   1.226 -0.4171 -0.3393 -0.0851
 6715TIP3    H141704   4.386   6.005   1.277  0.7175  1.2732 -0.0826
 6715TIP3    H241705   4.526   6.017   1.220  0.6718 -1.7294 -0.9668
 6716TIP3   OH241706   5.468   2.914   7.629 -0.0395 -1.0638  0.4076
 6716TIP3    H141707   5.488   2.849   7.562 -0.4240  2.4419 -3.5583
 6716TIP3    H241708   5.547   2.918   7.683  1.8588 -1.6862 -2.1057
 6717TIP3   OH241709   0.815   1.873   8.165 -0.6113 -0.4215 -0.4759
 6717TIP3    H141710   0.803   1.780   8.148 -0.4634 -0.3188 -1.1432
 6717TIP3    H241711   0.897   1.878   8.215 -0.3337 -0.5983 -0.9141
 6718TIP3   OH241712   6.194   1.485   8.468  0.4354  0.5471  0.2233
 6718TIP3    H141713   6.182   1.401   8.512  0.4928  0.0009 -0.7963
 6718TIP3    H241714   6.155   1.549   8.529  1.8689  0.0027  1.7763
 6719TIP3   OH241715   2.363   5.824   7.865  0.6701  0.2954 -0.3667
 6719TIP3    H141716   2.271   5.804   7.847  0.6361 -0.3037  0.4250
 6719TIP3    H241717   2.370   5.919   7.853  0.1791  0.2152 -1.4013
 6720TIP3   OH241718   1.304   0.480   1.506  0.1361  0.0336 -0.3610
 6720TIP3    H141719   1.393   0.465   1.472  0.5404 -0.6025  0.8966
 6720TIP3    H241720   1.284   0.399   1.554 -1.5252 -0.2265 -1.4411
 6721TIP3   OH241721   4.377   5.116   8.466  0.0954 -0.4239  0.2793
 6721TIP3    H141722   4.351   5.031   8.501 -0.0938 -0.4487  0.0827
 6721TIP3    H241723   4.340   5.180   8.527  0.9834 -0.4997  0.9160
 6722TIP3   OH241724   0.563   2.400   1.285 -0.0732 -0.6713 -0.1721
 6722TIP3    H141725   0.572   2.306   1.274 -0.1484 -0.5329 -1.5374
 6722TIP3    H241726   0.636   2.424   1.342  2.1162 -1.0933 -2.5829
 6723TIP3   OH241727   1.122   2.089   7.315 -0.5516  0.6378 -0.1741
 6723TIP3    H141728   1.057   2.133   7.260 -0.8380 -0.7636 -1.0383
 6723TIP3    H241729   1.078   2.009   7.343  0.4735  0.1167 -0.0051
 6724TIP3   OH241730   6.337   1.184   0.726 -0.4370 -0.3706  0.2965
 6724TIP3    H141731   6.367   1.134   0.650 -0.0785 -0.4044  0.4592
 6724TIP3    H241732   6.306   1.267   0.689 -2.0403 -1.1098 -0.0944
 6725TIP3   OH241733   0.460   4.101   1.318  0.0347  0.3690 -0.4257
 6725TIP3    H141734   0.483   4.009   1.335 -1.4453  0.0332 -0.0104
 6725TIP3    H241735   0.448   4.106   1.224  0.3551  0.1943 -0.4771
 6726TIP3   OH241736   3.692   2.742   7.676 -0.2974  0.1601  0.3262
 6726TIP3    H141737   3.634   2.744   7.600  1.1971  1.8839 -0.8623
 6726TIP3    H241738   3.640   2.778   7.747 -0.9088  1.0339 -0.5505
 6727TIP3   OH241739   4.628   0.792   0.869 -0.5026 -0.2131  0.0690
 6727TIP3    H141740   4.628   0.765   0.961 -2.2818  0.1897  0.2205
 6727TIP3    H241741   4.688   0.867   0.866 -1.8851  1.0241  1.3355
 6728TIP3   OH241742   1.066   2.214   2.053  0.1322 -0.4066  0.1403
 6728TIP3    H141743   1.096   2.174   2.135  0.4141 -0.1224  0.1775
 6728TIP3    H241744   0.971   2.217   2.061  0.2002  0.4693  0.8588
 6729TIP3   OH241745   2.744   6.243   8.230  0.1224 -0.1457  0.4939
 6729TIP3    H141746   2.789   6.266   8.312  0.5945  2.0138 -0.3077
 6729TIP3    H241747   2.789   6.163   8.201  0.9107 -0.1445  1.6087
 6730TIP3   OH241748   6.091   2.206   0.203  0.3852  0.1641 -0.4330
 6730TIP3    H141749   6.187   2.212   0.200  0.3991 -0.0023 -0.3081
 6730TIP3    H241750   6.065   2.264   0.274  0.2733  1.5656 -1.5674
 6731TIP3   OH241751   4.173   0.268   7.934 -0.0476  0.1762  0.6627
 6731TIP3    H141752   4.188   0.303   7.846  1.8090  1.1883  1.3492
 6731TIP3    H241753   4.229   0.319   7.991 -1.7730  0.0518  2.5971
 6732TIP3   OH241754   0.769   2.747   1.491 -0.7113  0.2777 -0.2280
 6732TIP3    H141755   0.717   2.814   1.446 -0.0088  0.4654 -0.7825
 6732TIP3    H241756   0.858   2.760   1.458 -0.3219 -0.0940  0.6386
 6733TIP3   OH241757   5.718   0.363   1.128 -0.2505  0.0376  0.3149
 6733TIP3    H141758   5.703   0.444   1.176 -1.3323  1.0254 -1.5601
 6733TIP3    H241759   5.812   0.364   1.108 -0.0596  0.2904  1.1988
 6734TIP3   OH241760   0.075   5.402   7.847 -0.5804 -0.3941 -0.4715
 6734TIP3    H141761   0.066   5.326   7.790 -0.5577 -0.3625 -0.5161
 6734TIP3    H241762   0.110   5.471   7.791 -0.5501 -0.3658 -0.4176
 6735TIP3   OH241763   5.481   6.467   7.515 -0.2276 -0.3003 -0.0492
 6735TIP3    H141764   5.511   6.533   7.577  0.4131 -0.3321 -0.3082
 6735TIP3    H241765   5.514   6.384   7.551 -1.3224 -0.5251  0.4549
 6736TIP3   OH241766   4.219   6.288   5.930 -0.0525 -0.0234 -0.1759
 6736TIP3    H141767   4.161   6.232   5.982 -0.3044  0.1620 -0.2576
 6736TIP3    H241768   4.185   6.376   5.943  0.3683  0.1164 -0.0204
 6737TIP3   OH241769   0.239   4.300   2.346 -0.2751  0.3498 -0.4806
 6737TIP3    H141770   0.311   4.318   2.407 -0.1614  1.9551 -1.0446
 6737TIP3    H241771   0.214   4.386   2.313 -3.7857  0.1048  1.1246
 6738TIP3   OH241772   0.271   0.713   0.691 -0.2078  0.6799  0.4102
 6738TIP3    H141773   0.310   0.743   0.774 -0.5301  2.3776 -0.0315
 6738TIP3    H241774   0.177   0.712   0.708 -0.4569  3.1254 -0.5424
 6739TIP3   OH241775   5.754   2.477   2.018  0.1715  0.2910 -0.2069
 6739TIP3    H141776   5.796   2.405   2.066  0.6983 -2.2025 -3.9518
 6739TIP3    H241777   5.810   2.553   2.035  1.2266 -0.8515  1.7320
 6740TIP3   OH241778   6.457   6.611   7.326  0.0121  0.2820 -0.4427
 6740TIP3    H141779   6.387   6.604   7.391 -0.7840  0.0018 -1.3149
 6740TIP3    H241780   6.493   6.699   7.340 -0.1165  0.2042  0.4074
 6741TIP3   OH241781   3.000   2.085   6.612 -0.4556  0.1757 -0.1610
 6741TIP3    H141782   3.001   2.144   6.537 -0.5067 -0.9587 -1.0848
 6741TIP3    H241783   3.051   2.009   6.583 -0.6568 -0.3742  0.8819
 6742TIP3   OH241784   2.817   1.326   1.749 -0.6481  0.0942  0.1711
 6742TIP3    H141785   2.849   1.345   1.837  1.2754  0.4064 -0.5484
 6742TIP3    H241786   2.877   1.259   1.715 -0.3578  1.1227 -1.4568
 6743TIP3   OH241787   5.854   6.279   6.188 -0.2205  0.0492  0.1963
 6743TIP3    H141788   5.769   6.303   6.151  0.0749  1.9275  0.6262
 6743TIP3    H241789   5.918   6.323   6.132  0.3284  0.9096  1.4420
 6744TIP3   OH241790   2.394   2.278   8.325 -0.2931 -0.4895 -1.0522
 6744TIP3    H141791   2.431   2.294   8.411 -0.8855 -0.3266 -0.8236
 6744TIP3    H241792   2.468   2.292   8.264  0.0105 -0.1394 -0.6113
 6745TIP3   OH241793   5.499   6.313   2.177  0.2594 -0.1596  0.3353
 6745TIP3    H141794   5.430   6.371   2.145 -0.2291 -0.1233  1.4327
 6745TIP3    H241795   5.477   6.296   2.268  1.5207 -0.4148  0.6171
 6746TIP3   OH241796   0.426   1.934   8.490 -0.2171 -0.3210  0.0286
 6746TIP3    H141797   0.518   1.956   8.476 -0.4771  1.6745  1.1374
 6746TIP3    H241798   0.429   1.861   8.552  0.6337  1.1857  1.8516
 6747TIP3   OH241799   1.491   4.956   7.760 -0.0118  0.2912  0.1443
 6747TIP3    H141800   1.557   4.958   7.691  1.8720 -0.2407  1.8324
 6747TIP3    H241801   1.419   4.904   7.724  1.0648 -0.2762 -1.2703
 6748TIP3   OH241802   3.292   5.293   1.851  0.2614 -0.3315 -0.2418
 6748TIP3    H141803   3.263   5.226   1.788 -1.4993 -1.1798  1.3624
 6748TIP3    H241804   3.323   5.243   1.926  0.7838  0.6573  0.2158
 6749TIP3   OH241805   2.605   4.216   6.337 -0.2716  0.3541 -0.3090
 6749TIP3    H141806   2.524   4.225   6.286  0.4251  0.0532 -1.5181
 6749TIP3    H241807   2.622   4.122   6.339  1.6278  0.5072 -2.7774
 6750TIP3   OH241808   3.834   2.839   1.496  0.1652 -0.2718 -0.3102
 6750TIP3    H141809   3.756   2.833   1.441  0.5260  1.6400 -1.1104
 6750TIP3    H241810   3.811   2.791   1.575 -0.1869 -3.6465 -2.2705
 6751TIP3   OH241811   3.597   3.415   8.067 -0.2955 -0.0866 -0.2537
 6751TIP3    H141812   3.558   3.390   8.151 -0.9075  1.3417 -0.0636
 6751TIP3    H241813   3.602   3.511   8.072 -2.0771  0.2195 -2.5480
 6752TIP3   OH241814   3.696   0.220   1.847 -0.1507  0.0651  0.1364
 6752TIP3    H141815   3.640   0.259   1.780 -0.1069 -0.2942 -0.1090
 6752TIP3    H241816   3.647   0.233   1.929 -0.7001 -0.4478 -0.1082
 6753TIP3   OH241817   6.569   4.052   0.030  0.3696  0.2786 -0.2907
 6753TIP3    H141818   6.511   3.979   0.004  0.6181 -0.3768  0.9241
 6753TIP3    H241819   6.635   4.011   0.086 -0.7125  1.7417  2.2306
 6754TIP3   OH241820   5.769   0.299   8.348  0.2128 -0.4048 -0.2744
 6754TIP3    H141821   5.701   0.292   8.415 -1.0389  0.8762 -1.3741
 6754TIP3    H241822   5.837   0.351   8.390  1.6255 -3.4186  1.6027
 6755TIP3   OH241823   0.601   5.485   0.093  0.6695 -0.3457 -0.2363
 6755TIP3    H141824   0.638   5.410   0.048  2.0792  1.4763 -2.3565
 6755TIP3    H241825   0.677   5.537   0.119 -0.2672  1.1326 -0.3266
 6756TIP3   OH241826   0.999   1.519   1.693  0.2234 -0.0571  0.3577
 6756TIP3    H141827   0.981   1.608   1.663 -0.0719 -0.1241  0.3339
 6756TIP3    H241828   1.052   1.530   1.772  1.9113  0.1102 -0.7322
 6757TIP3   OH241829   2.213   4.985   8.624  0.1029 -0.3966 -0.1400
 6757TIP3    H141830   2.206   4.913   8.562 -0.7478 -0.8049  0.4043
 6757TIP3    H241831   2.227   4.943   8.709  0.6696  0.1271  0.0360
 6758TIP3   OH241832   0.311   6.279   0.993 -0.6061  0.3292 -0.0653
 6758TIP3    H141833   0.265   6.211   0.944 -0.3086  1.1018 -1.4685
 6758TIP3    H241834   0.306   6.250   1.085  0.4210 -2.1086 -0.6953
 6759TIP3   OH241835   5.351   6.116   1.959 -0.5146  0.2060  0.3717
 6759TIP3    H141836   5.330   6.023   1.964 -0.2591  0.0655 -0.9152
 6759TIP3    H241837   5.267   6.160   1.973 -0.5532 -0.1898  1.4752
 6760TIP3   OH241838   2.760   1.808   0.476 -0.0710  0.1778  0.6157
 6760TIP3    H141839   2.848   1.788   0.508  1.9216 -0.5280 -4.2866
 6760TIP3    H241840   2.720   1.722   0.460  0.7841  0.2284 -2.4278
 6761TIP3   OH241841   5.828   6.462   2.425 -0.0827 -0.4256 -0.1631
 6761TIP3    H141842   5.819   6.541   2.479 -0.8899 -0.3406 -0.3993
 6761TIP3    H241843   5.776   6.481   2.347  0.0842 -1.0179 -0.4217
 6762TIP3   OH241844   4.665   0.851   0.579  0.3630 -0.4939 -0.8529
 6762TIP3    H141845   4.757   0.875   0.588  0.3996 -0.2376 -1.7304
 6762TIP3    H241846   4.643   0.805   0.659  1.0193  0.2185 -0.2506
 6763TIP3   OH241847   6.756   2.393   1.096 -0.1973 -0.0462  0.2075
 6763TIP3    H141848   6.760   2.304   1.061 -0.1637  0.2522 -0.5679
 6763TIP3    H241849   6.745   2.449   1.019 -1.9516  0.5016  0.8030
 6764TIP3   OH241850   5.900   3.091   0.194 -0.2548  0.3429 -0.3180
 6764TIP3    H141851   5.833   3.052   0.137  2.0188 -2.1977 -1.5281
 6764TIP3    H241852   5.955   3.142   0.135 -0.8577  2.1281  0.5991
 6765TIP3   OH241853   1.841   0.678   1.020  0.1784  0.0435 -0.1493
 6765TIP3    H141854   1.783   0.646   1.089  0.3569 -1.1595 -0.5254
 6765TIP3    H241855   1.809   0.636   0.941  0.8655  0.2677 -0.5526
 6766TIP3   OH241856   3.342   2.876   6.887 -0.5584  0.0646 -0.0121
 6766TIP3    H141857   3.401   2.947   6.861 -1.1058  0.9344  1.0379
 6766TIP3    H241858   3.392   2.828   6.953 -0.7401  0.3770  0.3590
 6767TIP3   OH241859   0.767   4.473   2.620 -0.2465 -0.1026  0.0980
 6767TIP3    H141860   0.695   4.471   2.557  0.3880  0.1814 -0.6447
 6767TIP3    H241861   0.753   4.555   2.668 -0.6811 -0.2757  0.2751
 6768TIP3   OH241862   5.912   3.601   8.295  0.4677  0.0760  0.2056
 6768TIP3    H141863   5.825   3.642   8.295  0.0359 -0.8088 -1.0689
 6768TIP3    H241864   5.955   3.636   8.217  1.6802  1.2871  1.3431
 6769TIP3   OH241865   0.169   2.178   2.479 -0.2060  0.3493  0.0644
 6769TIP3    H141866   0.086   2.158   2.520  0.1250 -0.6550  0.2765
 6769TIP3    H241867   0.159   2.267   2.445 -1.2832  0.3127  0.2675
 6770TIP3   OH241868   2.750   0.358   0.186  0.5460  0.2128  0.1746
 6770TIP3    H141869   2.800   0.356   0.105  0.3411 -0.7229  0.0577
 6770TIP3    H241870   2.688   0.430   0.175  0.4505  0.0275 -0.5354
 6771TIP3   OH241871   4.703   3.119   7.351  0.3368  0.3477 -0.3637
 6771TIP3    H141872   4.722   3.117   7.257  0.6276  1.1869 -0.3358
 6771TIP3    H241873   4.761   3.187   7.385  1.6824 -1.2719  0.7614
 6772TIP3   OH241874   1.792   6.590   0.983  0.2485 -0.1111 -0.3887
 6772TIP3    H141875   1.780   6.560   0.893  0.4859  0.3933 -0.5985
 6772TIP3    H241876   1.877   6.635   0.982  1.4660 -2.2131  0.6623
 6773TIP3   OH241877   3.783   4.984   7.159  0.6277 -0.0260 -0.4577
 6773TIP3    H141878   3.781   4.989   7.063  1.7496 -0.1349 -0.4953
 6773TIP3    H241879   3.828   5.063   7.186  0.1248  0.1082  0.0034
 6774TIP3   OH241880   0.981   6.422   8.377  0.2322 -0.2989 -0.1513
 6774TIP3    H141881   1.023   6.437   8.292 -1.4127  0.2204 -0.9231
 6774TIP3    H241882   0.917   6.353   8.361 -0.4101  0.1101  0.5409
 6775TIP3   OH241883   4.995   5.686   7.580 -0.0667 -0.3840  0.2647
 6775TIP3    H141884   4.954   5.766   7.613 -0.2921  0.1458 -1.2400
 6775TIP3    H241885   4.957   5.673   7.493 -0.7073 -2.6481  0.8229
 6776TIP3   OH241886   2.543   6.289   0.968 -0.0698 -0.0752 -0.1697
 6776TIP3    H141887   2.563   6.304   1.061  0.6564 -1.2615 -0.1132
 6776TIP3    H241888   2.628   6.290   0.925 -0.1420 -1.8961 -0.4460
 6777TIP3   OH241889   6.088   2.220   1.042  0.3649 -0.4881 -0.1148
 6777TIP3    H141890   6.165   2.214   0.986 -0.5457 -4.0499 -1.2695
 6777TIP3    H241891   6.114   2.178   1.124 -0.3595 -2.1115 -0.6674
 6778TIP3   OH241892   0.238   0.775   6.443  0.4668 -0.0054 -0.6031
 6778TIP3    H141893   0.235   0.856   6.493  0.4891  0.2204 -0.9642
 6778TIP3    H241894   0.164   0.723   6.474  0.9223 -0.1859  0.2035
 6779TIP3   OH241895   4.886   2.243   0.353 -0.8669 -0.3591  0.1571
 6779TIP3    H141896   4.852   2.158   0.326 -0.2464 -1.3742  2.3475
 6779TIP3    H241897   4.973   2.248   0.314 -1.7487  0.3266 -1.8476
 6780TIP3   OH241898   3.348   1.201   1.501 -0.3448 -0.3040 -0.4376
 6780TIP3    H141899   3.357   1.109   1.476  1.0418 -0.1151 -0.6905
 6780TIP3    H241900   3.261   1.206   1.542  0.0589 -1.9871  0.7230
 6781TIP3   OH241901   1.116   1.713   1.311  0.0319 -0.1553 -0.3058
 6781TIP3    H141902   1.121   1.721   1.216 -0.4748  0.7256 -0.2628
 6781TIP3    H241903   1.088   1.622   1.326 -2.4276  0.4212 -1.0857
 6782TIP3   OH241904   0.107   6.177   8.045 -0.2457  0.0022  0.2946
 6782TIP3    H141905   0.191   6.167   8.090  0.9382 -2.1785 -2.0931
 6782TIP3    H241906   0.098   6.272   8.031  2.2256  0.2480 -0.0517
 6783TIP3   OH241907   0.225   6.355   6.995  0.1838  0.3126  0.0641
 6783TIP3    H141908   0.215   6.267   7.031  0.2925 -0.1485 -0.9937
 6783TIP3    H241909   0.298   6.347   6.933 -0.1681  1.0104 -0.4516
 6784TIP3   OH241910   2.625   1.504   1.325  0.1731  0.0925 -0.4447
 6784TIP3    H141911   2.642   1.477   1.235  1.0400  0.7692 -0.4962
 6784TIP3    H241912   2.685   1.451   1.377 -0.7691 -0.7522 -0.1935
 6785TIP3   OH241913   2.339   6.114   2.486  0.0409  0.0082  0.1017
 6785TIP3    H141914   2.386   6.172   2.426 -0.0933 -0.4976 -0.5104
 6785TIP3    H241915   2.399   6.040   2.500 -1.2599 -1.6823 -2.3331
 6786TIP3   OH241916   2.812   1.298   2.064  0.1711  0.1089  0.4977
 6786TIP3    H141917   2.784   1.208   2.085  0.7244  0.0990  1.2711
 6786TIP3    H241918   2.902   1.302   2.096  1.0477  0.1585 -1.8475
 6787TIP3   OH241919   1.256   3.621   7.102 -0.0253 -0.3307  0.7179
 6787TIP3    H141920   1.337   3.656   7.142 -1.4810  2.5743  1.4209
 6787TIP3    H241921   1.213   3.575   7.173  0.7564 -1.5045  0.4597
 6788TIP3   OH241922   4.484   1.319   6.687  0.0851 -0.0605 -0.3041
 6788TIP3    H141923   4.531   1.401   6.700 -0.9683  0.7520 -1.4734
 6788TIP3    H241924   4.481   1.307   6.593 -2.1867  0.0264 -0.2937
 6789TIP3   OH241925   2.988   1.950   1.724 -0.2883 -0.2953  0.0027
 6789TIP3    H141926   3.051   2.005   1.770  0.4841  1.2434 -2.6683
 6789TIP3    H241927   3.038   1.873   1.698  0.2833  0.4752 -1.2662
 6790TIP3   OH241928   4.979   3.738   0.577  0.2191  0.2945  0.3258
 6790TIP3    H141929   4.979   3.645   0.597  0.0804  0.1814 -0.2090
 6790TIP3    H241930   5.021   3.778   0.653  1.2103 -0.3003  0.1056
 6791TIP3   OH241931   0.935   4.304   8.203  0.7320 -0.0047 -0.6801
 6791TIP3    H141932   0.840   4.293   8.210  0.6536 -0.7748 -2.3886
 6791TIP3    H241933   0.968   4.278   8.289 -0.6284  0.8409  0.1363
 6792TIP3   OH241934   0.859   2.808   7.054 -0.2120 -0.0190 -0.1491
 6792TIP3    H141935   0.765   2.812   7.071 -0.1565 -1.7120  0.8563
 6792TIP3    H241936   0.876   2.716   7.034  0.9927  0.5510 -2.0435
 6793TIP3   OH241937   0.520   4.022   0.332  0.0556  0.0014 -0.0072
 6793TIP3    H141938   0.564   4.099   0.366 -1.3135  0.4218  0.8756
 6793TIP3    H241939   0.430   4.051   0.316 -0.6013 -1.5059  0.7667
 6794TIP3   OH241940   2.565   3.569   7.181 -0.0696  0.0025 -0.3833
 6794TIP3    H141941   2.659   3.551   7.184 -0.0120  0.3549 -0.0347
 6794TIP3    H241942   2.531   3.505   7.118  0.3443 -0.3748 -0.2369
 6795TIP3   OH241943   6.280   5.521   0.474 -0.3082 -1.0059  0.6062
 6795TIP3    H141944   6.186   5.525   0.493 -0.7106 -1.2466 -1.1425
 6795TIP3    H241945   6.310   5.611   0.479 -0.7566 -0.8554  0.6316
 6796TIP3   OH241946   1.615   5.344   6.641 -0.0283 -0.0072  0.2699
 6796TIP3    H141947   1.580   5.268   6.687 -2.0087  0.1332 -0.8975
 6796TIP3    H241948   1.663   5.308   6.567 -0.3300 -0.1405  0.1393
 6797TIP3   OH241949   5.607   3.553   8.274  0.1400 -0.6121 -0.4361
 6797TIP3    H141950   5.528   3.513   8.311 -0.7258 -0.1100 -1.6663
 6797TIP3    H241951   5.574   3.624   8.219  1.5956  1.1401  0.8689
 6798TIP3   OH241952   5.547   3.269   1.843 -0.1884 -0.5472  0.1950
 6798TIP3    H141953   5.513   3.188   1.881 -0.4762 -0.3526  0.3559
 6798TIP3    H241954   5.479   3.334   1.860 -0.1657 -0.3762 -0.3489
 6799TIP3   OH241955   5.895   2.727   1.992  0.8451  0.1502 -0.3451
 6799TIP3    H141956   5.891   2.769   2.078  2.0571  0.3658 -0.3743
 6799TIP3    H241957   5.833   2.775   1.939 -1.2726 -1.1022  0.8376
 6800TIP3   OH241958   1.005   6.072   8.444 -0.2499 -0.1915  0.6196
 6800TIP3    H141959   1.009   6.130   8.520 -1.3864  0.7414  0.0003
 6800TIP3    H241960   0.975   5.988   8.479  1.2938 -0.4054  1.5078
 6801TIP3   OH241961   3.223   0.909   7.375  0.1242  0.0849 -0.4448
 6801TIP3    H141962   3.194   0.844   7.312 -0.7847  0.0599 -0.0065
 6801TIP3    H241963   3.209   0.869   7.460  0.1986  0.5908 -0.1892
 6802TIP3   OH241964   0.209   1.373   6.772  0.4783 -0.3317  0.3755
 6802TIP3    H141965   0.152   1.384   6.696 -0.9287 -0.3181  1.3902
 6802TIP3    H241966   0.297   1.393   6.740  0.1121 -1.5509 -1.5472
 6803TIP3   OH241967   0.708   0.326   7.175 -0.0566  0.1635 -0.4623
 6803TIP3    H141968   0.747   0.250   7.130 -0.2099  0.2554 -0.7509
 6803TIP3    H241969   0.650   0.365   7.110 -1.4824 -0.6107  0.3002
 6804TIP3   OH241970   2.220   0.546   1.175 -0.2170 -0.0926 -0.1173
 6804TIP3    H141971   2.254   0.458   1.192  0.9562  0.1703 -1.0332
 6804TIP3    H241972   2.237   0.562   1.082  2.1104  2.1388  0.5762
 6805TIP3   OH241973   5.337   0.061   8.051  0.3094  0.4879  0.0185
 6805TIP3    H141974   5.417   0.007   8.056  0.5147  0.8958  1.5254
 6805TIP3    H241975   5.294   0.048   8.135 -0.4425  1.4754 -0.2020
 6806TIP3   OH241976   0.202   0.905   2.019  0.2581 -0.6224  0.5768
 6806TIP3    H141977   0.294   0.880   2.024  0.5006  0.1887  0.2603
 6806TIP3    H241978   0.182   0.939   2.106  0.8684  1.2144  0.0419
 6807TIP3   OH241979   0.262   0.327   2.385 -0.1854 -0.3210 -0.1213
 6807TIP3    H141980   0.258   0.413   2.426  1.4367 -0.3300  0.1183
 6807TIP3    H241981   0.284   0.344   2.294 -0.2283 -0.4752 -0.1613
 6808TIP3   OH241982   4.450   5.120   0.835  0.0595  0.4039 -0.2289
 6808TIP3    H141983   4.358   5.129   0.808  0.8538  2.0013 -2.7887
 6808TIP3    H241984   4.491   5.201   0.807  2.4025 -0.5521  0.2317
 6809TIP3   OH241985   0.995   3.987   1.142  0.2569 -0.5687 -0.3000
 6809TIP3    H141986   0.931   3.922   1.113 -0.4273  0.5871 -1.4846
 6809TIP3    H241987   1.061   3.988   1.073  0.4383 -0.2526 -0.1262
 6810TIP3   OH241988   4.586   4.772   8.102  0.2271  0.0627  0.8117
 6810TIP3    H141989   4.596   4.711   8.029  1.4533 -0.0577  1.0713
 6810TIP3    H241990   4.565   4.718   8.177  0.6632  0.0180  0.9037
 6811TIP3   OH241991   1.944   4.482   7.187 -0.2943  0.1138 -0.1831
 6811TIP3    H141992   1.948   4.567   7.142 -1.0823 -0.0605 -0.5989
 6811TIP3    H241993   2.029   4.442   7.171 -0.6790 -0.0987 -1.8459
 6812TIP3   OH241994   0.725   1.362   0.484  0.3554  0.5156  0.6851
 6812TIP3    H141995   0.793   1.297   0.468  0.1121  0.0632  1.4420
 6812TIP3    H241996   0.697   1.346   0.574  0.0691  1.4681  0.7735
 6813TIP3   OH241997   5.482   3.736   2.014 -0.4440 -0.6656 -0.0524
 6813TIP3    H141998   5.503   3.809   1.956 -0.2052 -1.6835 -1.2883
 6813TIP3    H241999   5.422   3.773   2.078 -1.1482  0.3736 -1.2630
 6814TIP3   OH242000   2.238   5.419   7.504  0.2645 -0.0739  0.3206
 6814TIP3    H142001   2.317   5.413   7.451  0.2481 -1.3204  0.4233
 6814TIP3    H242002   2.220   5.329   7.532 -0.8507  0.2774  0.7934
 6815TIP3   OH242003   6.728   3.606   1.489  0.1706 -0.0195  0.8725
 6815TIP3    H142004   6.701   3.669   1.423  0.3891 -1.7241 -0.9399
 6815TIP3    H242005   6.648   3.586   1.537  0.4194  2.9113  2.7630
 6816TIP3   OH242006   6.683   5.321   8.446 -0.1370 -0.2617 -0.1425
 6816TIP3    H142007   6.718   5.401   8.485  0.6060 -1.7299  2.4423
 6816TIP3    H242008   6.714   5.323   8.356  1.0374  1.6794  0.2526
 6817TIP3   OH242009   2.746   6.780   6.706  0.4759  0.0133  0.4729
 6817TIP3    H142010   2.715   6.717   6.641 -0.3772  1.2474 -0.3796
 6817TIP3    H242011   2.831   6.808   6.674 -0.8379  2.2234 -1.4097
 6818TIP3   OH242012   0.386   1.086   0.465  0.1310  0.4262  0.2714
 6818TIP3    H142013   0.308   1.038   0.435  1.2167 -1.0637 -0.3401
 6818TIP3    H242014   0.434   1.022   0.517  0.6605  1.5165  1.1428
 6819TIP3   OH242015   1.202   2.881   0.721  0.4191 -0.3843 -0.3103
 6819TIP3    H142016   1.165   2.893   0.634 -0.6146  1.3471  0.3123
 6819TIP3    H242017   1.289   2.847   0.706  0.7289  1.0537 -2.1001
 6820TIP3   OH242018   4.974   2.579   8.361 -0.8207 -0.0408  0.5022
 6820TIP3    H142019   4.959   2.652   8.302 -0.5200 -0.8057 -0.5512
 6820TIP3    H242020   5.021   2.616   8.435  0.9287  0.5284 -0.8334
 6821TIP3   OH242021   0.759   0.194   1.399  0.7204  0.0796  0.3644
 6821TIP3    H142022   0.708   0.204   1.319 -0.5901 -0.1058  1.1563
 6821TIP3    H242023   0.733   0.109   1.434 -1.6495  1.6649  2.9378
 6822TIP3   OH242024   2.875   5.459   7.575 -0.0115 -0.1941  0.2489
 6822TIP3    H142025   2.939   5.425   7.638  0.2979 -2.0995 -1.0286
 6822TIP3    H242026   2.795   5.410   7.593 -0.5651  0.7841  0.5384
 6823TIP3   OH242027   6.038   4.019   7.714  0.3609 -0.4490  0.2555
 6823TIP3    H142028   6.052   4.025   7.620 -0.1360 -1.0799  0.1373
 6823TIP3    H242029   6.022   3.926   7.731  1.9148 -0.5817  1.1781
 6824TIP3   OH242030   5.242   5.923   7.611 -0.4355 -0.3894 -0.9538
 6824TIP3    H142031   5.282   5.884   7.533 -0.7500 -0.4406 -1.0873
 6824TIP3    H242032   5.170   5.975   7.577 -2.1768 -2.3832 -0.5273
 6825TIP3   OH242033   2.574   5.752   0.786 -0.1971 -0.0774 -0.0814
 6825TIP3    H142034   2.593   5.713   0.872 -0.7849 -0.5617 -0.1564
 6825TIP3    H242035   2.604   5.842   0.793 -1.3485  0.2554  1.0680
 6826TIP3   OH242036   0.525   1.647   0.908  0.0331 -0.0217  0.0729
 6826TIP3    H142037   0.562   1.720   0.959  1.4218 -0.1792 -0.6632
 6826TIP3    H242038   0.485   1.689   0.832 -0.8443  0.1050  0.5914
 6827TIP3   OH242039   0.728   5.564   7.846 -0.4844  0.1688 -0.3368
 6827TIP3    H142040   0.799   5.532   7.790 -0.0968 -0.0530  0.2809
 6827TIP3    H242041   0.653   5.569   7.787  0.3539  1.7618 -1.3638
 6828TIP3   OH242042   0.933   5.726   0.891 -0.1987  0.2682  0.0523
 6828TIP3    H142043   0.844   5.692   0.876 -0.5457  0.2588  1.8104
 6828TIP3    H242044   0.918   5.814   0.927  0.4666  0.0498  0.8849
 6829TIP3   OH242045   1.695   3.473   1.596 -0.0640 -0.0827 -0.5221
 6829TIP3    H142046   1.604   3.489   1.571 -0.5130 -1.8991 -0.1869
 6829TIP3    H242047   1.690   3.427   1.679  1.1750 -0.0602 -0.4124
 6830TIP3   OH242048   4.047   4.730   8.235 -0.0626 -0.1612  0.0104
 6830TIP3    H142049   4.003   4.686   8.308  0.2100 -0.5394 -0.0505
 6830TIP3    H242050   4.070   4.659   8.174 -3.3540  0.4155 -2.1560
 6831TIP3   OH242051   2.542   1.767   7.681 -0.8185 -0.4846  0.2050
 6831TIP3    H142052   2.511   1.726   7.600 -0.7695 -0.6598  0.2745
 6831TIP3    H242053   2.465   1.811   7.717 -0.5855  0.5409 -0.5149
 6832TIP3   OH242054   2.314   1.031   7.596 -0.0872 -0.1691 -0.5065
 6832TIP3    H142055   2.272   1.082   7.666 -0.3666 -1.8815  0.6505
 6832TIP3    H242056   2.407   1.042   7.611 -0.1466 -0.1747 -0.1128
 6833TIP3   OH242057   6.154   3.571   1.940  0.0114 -0.2119  0.7573
 6833TIP3    H142058   6.165   3.589   2.034  0.4937 -0.1484  0.6924
 6833TIP3    H242059   6.243   3.558   1.908  0.0864  2.1565 -0.1733
 6834TIP3   OH242060   2.950   4.647   8.379 -0.0007  0.1487  0.1935
 6834TIP3    H142061   2.970   4.580   8.313 -0.2657 -0.4766  0.7454
 6834TIP3    H242062   2.869   4.618   8.419  0.5137  0.1625  1.2677
 6835TIP3   OH242063   1.555   3.816   1.630  0.6167 -0.1394  0.8381
 6835TIP3    H142064   1.608   3.786   1.704  1.8435 -0.6049 -0.1906
 6835TIP3    H242065   1.532   3.735   1.583  1.8493  0.2908 -0.5751
 6836TIP3   OH242066   5.915   0.327   6.622 -0.4482  0.0319 -0.0374
 6836TIP3    H142067   5.989   0.267   6.626 -1.9198 -1.8326  0.5454
 6836TIP3    H242068   5.937   0.388   6.551  0.1874 -2.4874 -2.1474
 6837TIP3   OH242069   4.198   4.509   6.760  0.2447 -0.4131 -0.1349
 6837TIP3    H142070   4.121   4.458   6.735 -0.1997  0.8995 -1.5534
 6837TIP3    H242071   4.220   4.476   6.848 -2.4190 -0.2434  0.6878
 6838TIP3   OH242072   2.480   6.311   7.779  0.0791 -0.7599  0.5401
 6838TIP3    H142073   2.563   6.287   7.821  0.6335 -0.7089 -0.4798
 6838TIP3    H242074   2.417   6.247   7.812  0.6570 -1.1685  0.8772
 6839TIP3   OH242075   4.175   3.977   1.783  0.5327  0.2340 -0.6644
 6839TIP3    H142076   4.215   4.054   1.821 -2.1432  0.9379  0.9620
 6839TIP3    H242077   4.123   4.010   1.710 -0.1081 -0.1062 -0.3714
 6840TIP3   OH242078   0.007   1.959   6.931  0.5242 -0.2857  0.5789
 6840TIP3    H142079  -0.028   1.877   6.966 -0.1869  0.0988  0.7889
 6840TIP3    H242080   0.063   1.933   6.859 -0.3789 -0.9143  0.0866
 6841TIP3   OH242081   4.331   4.647   1.960  0.7104  0.2149 -0.8240
 6841TIP3    H142082   4.339   4.557   1.930 -1.6624  0.3015 -1.9111
 6841TIP3    H242083   4.314   4.640   2.054  2.6095 -0.3227 -0.4849
 6842TIP3   OH242084   2.685   5.121   1.440 -0.0397  0.3136  0.1549
 6842TIP3    H142085   2.618   5.082   1.383 -0.0763  2.0231 -1.0559
 6842TIP3    H242086   2.638   5.189   1.489  0.6643  1.1072 -0.2462
 6843TIP3   OH242087   6.282   2.164   7.982  0.5666  0.5397  0.6609
 6843TIP3    H142088   6.283   2.206   8.068  1.4711  1.5420  0.1886
 6843TIP3    H242089   6.361   2.197   7.938  1.5307 -1.9387  0.3704
 6844TIP3   OH242090   1.611   6.418   2.080  0.0189 -0.2052  0.1974
 6844TIP3    H142091   1.538   6.377   2.033 -0.2614  0.9359 -0.3881
 6844TIP3    H242092   1.586   6.509   2.090  0.8603 -0.0444  1.0377
 6845TIP3   OH242093   4.621   4.926   0.692 -0.2019  0.2302 -0.4326
 6845TIP3    H142094   4.555   4.873   0.648 -0.2013 -0.1102 -0.0350
 6845TIP3    H242095   4.571   4.983   0.751 -0.0848 -1.0913  1.0083
 6846TIP3   OH242096   4.253   6.114   6.843 -0.6972  0.0664  0.0644
 6846TIP3    H142097   4.346   6.109   6.868 -0.3142  2.1103 -0.7834
 6846TIP3    H242098   4.221   6.025   6.855  1.2973 -0.6340  0.6755
 6847TIP3   OH242099   6.319   3.109   1.744  0.3109 -0.2806 -0.1552
 6847TIP3    H142100   6.352   3.022   1.766 -0.0305 -1.0200 -2.2727
 6847TIP3    H242101   6.236   3.092   1.700 -0.0631  1.1771 -0.0533
 6848TIP3   OH242102   5.076   1.710   1.411 -0.4693  0.3855 -0.2469
 6848TIP3    H142103   5.013   1.734   1.344 -1.6029  1.0208  1.0008
 6848TIP3    H242104   5.037   1.740   1.493  2.6441  3.3259  0.3726
 6849TIP3   OH242105   4.380   3.756   2.762  0.3526 -0.5837  0.2833
 6849TIP3    H142106   4.330   3.680   2.792 -1.8092  0.8111  0.4509
 6849TIP3    H242107   4.429   3.724   2.687 -2.7623 -1.5403 -1.5297
 6850TIP3   OH242108   5.128   5.514   0.990 -0.2756  0.1536  0.0944
 6850TIP3    H142109   5.095   5.447   0.930  0.8058  0.5218 -0.9565
 6850TIP3    H242110   5.054   5.573   1.004 -0.4139  0.3395 -1.3093
 6851TIP3   OH242111   2.221   5.616   8.072  0.0664 -0.1625  0.7258
 6851TIP3    H142112   2.233   5.687   8.009  1.8469 -0.0989  1.0909
 6851TIP3    H242113   2.272   5.543   8.037 -1.1017 -1.0147  0.7593
 6852TIP3   OH242114   0.577   5.157   1.089 -0.2884  0.1187  0.2397
 6852TIP3    H142115   0.587   5.076   1.039  0.9257 -0.8168  1.8692
 6852TIP3    H242116   0.486   5.183   1.075 -0.4164 -0.9469 -1.1465
 6853TIP3   OH242117   0.926   0.612   6.651 -0.5770  0.0972  0.0674
 6853TIP3    H142118   0.962   0.696   6.622  0.9054 -0.5342 -0.0515
 6853TIP3    H242119   0.833   0.628   6.663 -0.1672  2.0247  1.0400
 6854TIP3   OH242120   0.740   3.645   6.598 -0.0964 -0.3619 -0.4176
 6854TIP3    H142121   0.798   3.708   6.640 -1.7593 -0.1065  1.6160
 6854TIP3    H242122   0.754   3.659   6.504  2.1338  0.5545 -0.0124
 6855TIP3   OH242123   3.451   2.246   8.043  0.0957 -0.4709  0.5106
 6855TIP3    H142124   3.423   2.305   8.113 -0.3936  1.3547 -1.1428
 6855TIP3    H242125   3.382   2.179   8.039 -1.2216  0.8702  0.0908
 6856TIP3   OH242126   5.578   6.046   7.448 -0.0471 -0.4339  0.1700
 6856TIP3    H142127   5.669   6.070   7.460 -0.5732  1.9181  0.0518
 6856TIP3    H242128   5.537   6.061   7.533 -0.3916 -1.1289  0.1335
 6857TIP3   OH242129   5.994   0.840   0.355 -0.4236 -0.2671  0.2650
 6857TIP3    H142130   6.078   0.800   0.377  0.2113  0.0329 -1.4361
 6857TIP3    H242131   6.017   0.912   0.296 -1.9483 -1.1751 -1.5525
 6858TIP3   OH242132   1.037   6.310   7.746 -0.3141 -0.5426  0.0378
 6858TIP3    H142133   0.962   6.277   7.795 -0.6686 -1.2902 -0.9730
 6858TIP3    H242134   1.056   6.395   7.785 -0.4506 -1.1917  1.5873
 6859TIP3   OH242135   6.239   4.479   7.543 -0.2956 -0.8356 -0.1595
 6859TIP3    H142136   6.289   4.407   7.581  1.8460  0.7841  0.2583
 6859TIP3    H242137   6.302   4.527   7.489 -1.3507  1.3025  0.3806
 6860TIP3   OH242138   2.063   6.000   6.420  0.1274  0.0468 -0.4777
 6860TIP3    H142139   1.968   6.007   6.429  0.2396  1.7726 -0.1356
 6860TIP3    H242140   2.097   6.018   6.508  0.7792 -0.4045 -0.6275
 6861TIP3   OH242141   5.576   6.587   0.105 -0.2944 -0.3932 -0.5485
 6861TIP3    H142142   5.534   6.606   0.021  1.0052  1.5737 -0.8263
 6861TIP3    H242143   5.566   6.668   0.155  2.9616  0.1737 -0.5955
 6862TIP3   OH242144   2.839   6.680   2.094  0.0693  0.0935 -0.4673
 6862TIP3    H142145   2.910   6.743   2.083 -0.8629  1.2118 -0.3207
 6862TIP3    H242146   2.864   6.629   2.170  1.0841 -0.0625 -0.8881
 6863TIP3   OH242147   3.616   6.104   1.110 -0.2616 -0.0434  0.7623
 6863TIP3    H142148   3.662   6.040   1.056 -0.4842 -1.9615  2.6858
 6863TIP3    H242149   3.565   6.051   1.172 -0.6594  2.0113  2.3077
 6864TIP3   OH242150   2.530   4.721   7.042 -0.5621 -0.0794 -0.4814
 6864TIP3    H142151   2.546   4.657   7.112 -1.5812  1.0479  0.8288
 6864TIP3    H242152   2.574   4.800   7.072  0.7252 -0.1023 -2.1090
 6865TIP3   OH242153   3.961   0.232   1.772  0.1698 -0.4228  0.2599
 6865TIP3    H142154   3.870   0.224   1.801 -0.0104 -1.1449 -0.4634
 6865TIP3    H242155   3.997   0.303   1.826 -0.2787 -1.3686  1.8571
 6866TIP3   OH242156   2.328   6.536   7.808 -0.1955 -0.0690 -1.0034
 6866TIP3    H142157   2.241   6.498   7.795 -0.0241 -0.2924 -1.5520
 6866TIP3    H242158   2.388   6.466   7.781  0.1357  0.3418 -1.3466
 6867TIP3   OH242159   1.263   6.335   6.954  0.3843 -0.2093  0.0055
 6867TIP3    H142160   1.275   6.291   6.870  0.6707 -0.0218 -0.0539
 6867TIP3    H242161   1.342   6.314   7.003 -0.4763 -1.6685  0.8517
 6868TIP3   OH242162   2.260   2.355   6.971 -0.1496 -0.1717 -0.7124
 6868TIP3    H142163   2.315   2.335   6.895  0.4193 -2.0909  0.1339
 6868TIP3    H242164   2.321   2.352   7.045 -0.6837  1.7209 -0.1581
 6869TIP3   OH242165   5.241   1.434   0.712 -0.3079  0.3293 -0.3901
 6869TIP3    H142166   5.268   1.342   0.718 -2.0222 -0.1860 -0.0416
 6869TIP3    H242167   5.318   1.479   0.678  0.8942 -1.0688  0.3594
 6870TIP3   OH242168   4.265   5.635   7.442 -0.2898  0.2389 -0.0959
 6870TIP3    H142169   4.328   5.707   7.441 -0.4828  0.4130 -1.3449
 6870TIP3    H242170   4.254   5.611   7.349 -1.8902  0.0715  0.1117
 6871TIP3   OH242171   3.478   4.403   8.307  0.0526 -0.0693 -0.1237
 6871TIP3    H142172   3.384   4.419   8.300  0.3114  0.7939 -2.4937
 6871TIP3    H242173   3.507   4.462   8.376 -0.9034  0.9179 -0.5223
 6872TIP3   OH242174   0.797   4.717   7.704 -0.2436  0.0642  0.2508
 6872TIP3    H142175   0.788   4.689   7.613  0.7792 -1.0650  0.4806
 6872TIP3    H242176   0.879   4.765   7.706  0.3917 -1.0080  0.8156
 6873TIP3   OH242177   2.170   1.539   1.736 -0.0553 -0.2075 -0.5067
 6873TIP3    H142178   2.262   1.562   1.722  0.1996 -0.4904  0.6128
 6873TIP3    H242179   2.173   1.471   1.803 -1.2271  1.5868  1.4598
 6874TIP3   OH242180   1.627   2.139   7.055 -0.0053  0.0990 -0.4282
 6874TIP3    H142181   1.705   2.180   7.018 -0.9872  1.4126 -1.1319
 6874TIP3    H242182   1.640   2.045   7.042  1.8549  0.1965  0.3059
 6875TIP3   OH242183   4.897   4.112   7.460 -0.5614  0.1077  0.4795
 6875TIP3    H142184   4.931   4.185   7.409 -1.3205  0.8255  0.9673
 6875TIP3    H242185   4.932   4.125   7.548 -1.0689  0.1524  0.6808
 6876TIP3   OH242186   3.504   4.884   7.218  0.1121  0.2749 -0.0725
 6876TIP3    H142187   3.598   4.904   7.214  0.1611  0.1266  0.3058
 6876TIP3    H242188   3.468   4.921   7.137  1.1453 -3.0021 -2.2536
 6877TIP3   OH242189   2.263   2.614   1.599 -0.3084 -0.0901 -0.3885
 6877TIP3    H142190   2.273   2.631   1.693 -1.5861  1.0589 -0.4411
 6877TIP3    H242191   2.352   2.623   1.564  0.1760 -0.4869  0.6901
 6878TIP3   OH242192   6.332   3.667   0.834  0.3926  0.3083 -0.1576
 6878TIP3    H142193   6.393   3.662   0.908 -0.1930  0.2020  0.3250
 6878TIP3    H242194   6.365   3.602   0.772  0.4517 -0.1588  0.3512
 6879TIP3   OH242195   4.422   3.642   7.552 -0.0663 -0.0302 -0.4018
 6879TIP3    H142196   4.513   3.652   7.579  0.3328  0.6671 -1.9116
 6879TIP3    H242197   4.415   3.693   7.471 -1.4208 -1.2967 -1.1268
 6880TIP3   OH242198   0.083   2.541   0.157  0.2892 -0.1290  0.2940
 6880TIP3    H142199   0.129   2.568   0.078  0.1384 -1.8466 -0.4115
 6880TIP3    H242200   0.108   2.606   0.223  0.8912  0.9802 -0.9909
 6881TIP3   OH242201   6.791   1.355   0.818 -0.4627 -0.1588  1.1664
 6881TIP3    H142202   6.764   1.329   0.906  0.4867 -1.3727  1.1240
 6881TIP3    H242203   6.884   1.372   0.825 -0.0489 -1.7159  0.1234
 6882TIP3   OH242204   2.457   0.462   6.206  0.3111 -0.1686 -0.0969
 6882TIP3    H142205   2.492   0.485   6.292 -1.0904  2.1278 -0.0686
 6882TIP3    H242206   2.367   0.436   6.222  0.8190 -2.5227 -0.6052
 6883TIP3   OH242207   4.932   1.065   8.633 -1.0550  0.4361  0.3265
 6883TIP3    H142208   4.872   1.109   8.693 -1.2418  0.5465  0.0616
 6883TIP3    H242209   4.875   1.024   8.568 -0.7998  2.3322 -1.1696
 6884TIP3   OH242210   5.569   4.363   6.880 -0.2821  0.8207  0.1584
 6884TIP3    H142211   5.518   4.282   6.878  1.1945 -0.1639  0.8204
 6884TIP3    H242212   5.618   4.363   6.798  0.0721  0.7981  0.3664
 6885TIP3   OH242213   4.874   0.937   1.300  0.0654  0.0157  0.0288
 6885TIP3    H142214   4.924   0.971   1.374  1.3922 -0.8261 -0.4339
 6885TIP3    H242215   4.866   1.011   1.240  0.7129  0.1767  0.1368
 6886TIP3   OH242216   5.279   3.766   2.343  0.2112  0.6778 -0.0320
 6886TIP3    H142217   5.312   3.681   2.372 -1.4918  0.2425  0.7719
 6886TIP3    H242218   5.232   3.748   2.261 -1.7009  0.4617  1.0537
 6887TIP3   OH242219   5.647   6.792   1.934  0.2231 -0.1569 -0.2279
 6887TIP3    H142220   5.614   6.727   1.997  0.2169 -1.2312 -1.3124
 6887TIP3    H242221   5.626   6.876   1.975  1.0347 -0.7921  1.6427
 6888TIP3   OH242222   6.205   6.106   6.982 -0.3677  0.2022 -0.1717
 6888TIP3    H142223   6.247   6.163   6.918 -0.6639  1.6235  0.8581
 6888TIP3    H242224   6.278   6.065   7.029 -0.1438  0.2626 -0.4670
 6889TIP3   OH242225   3.298   6.359   1.428  0.6035 -0.1284 -0.7761
 6889TIP3    H142226   3.347   6.362   1.345 -0.5793  2.1026 -1.4960
 6889TIP3    H242227   3.351   6.304   1.485  1.3538 -1.9716 -3.0567
 6890TIP3   OH242228   0.243   4.637   7.375 -0.2194  0.3418 -0.1399
 6890TIP3    H142229   0.321   4.686   7.401 -0.8476  0.8238  0.8968
 6890TIP3    H242230   0.243   4.642   7.279  0.2866  1.5100 -0.0971
 6891TIP3   OH242231   1.107   1.019   8.459 -0.1227 -1.1132 -0.4172
 6891TIP3    H142232   1.161   1.098   8.451 -2.5737  0.8291  0.6078
 6891TIP3    H242233   1.045   1.040   8.529  0.6473 -4.9860  1.7092
 6892TIP3   OH242234   2.084   6.203   1.333  0.2250 -0.1908  0.2692
 6892TIP3    H142235   2.156   6.259   1.305 -0.5229 -0.5042 -2.5489
 6892TIP3    H242236   2.126   6.132   1.382  1.7066  0.1838 -0.4205
 6893TIP3   OH242237   4.780   2.877   8.188  0.1293 -0.2721 -0.1517
 6893TIP3    H142238   4.851   2.834   8.142  0.0542 -0.8899  0.2894
 6893TIP3    H242239   4.726   2.805   8.221  0.2233  0.1376  0.9557
 6894TIP3   OH242240   6.280   3.589   7.034 -0.0922 -0.1510  0.0560
 6894TIP3    H142241   6.330   3.516   6.998  0.4382 -0.1965  0.8497
 6894TIP3    H242242   6.189   3.571   7.011  0.0575 -0.9806  0.1171
 6895TIP3   OH242243   6.595   4.936   1.890  0.1691 -0.3529  0.1739
 6895TIP3    H142244   6.537   4.994   1.841 -0.3531 -1.4112 -0.4887
 6895TIP3    H242245   6.616   4.985   1.970  1.8721  1.8563 -1.5047
 6896TIP3   OH242246   5.798   4.588   1.919  0.4755 -0.6004 -0.2474
 6896TIP3    H142247   5.768   4.567   2.007  0.5300 -0.0233 -0.0854
 6896TIP3    H242248   5.856   4.663   1.931 -0.5289  0.3120 -0.9124
 6897TIP3   OH242249   6.373   3.765   0.532 -0.2019  0.6079 -0.8096
 6897TIP3    H142250   6.355   3.784   0.624  1.0393 -0.9512 -0.2013
 6897TIP3    H242251   6.443   3.825   0.508  1.1761 -0.6028  0.0253
 6898TIP3   OH242252   1.943   3.179   7.069 -0.4743  0.0905 -0.2893
 6898TIP3    H142253   1.847   3.178   7.065 -0.4310  0.3378 -1.6185
 6898TIP3    H242254   1.971   3.138   6.988  0.5624 -1.0693  0.6128
 6899TIP3   OH242255   1.823   2.314   8.341  0.2405  0.0761  0.4576
 6899TIP3    H142256   1.888   2.245   8.328  1.7998  1.7175 -0.7980
 6899TIP3    H242257   1.830   2.337   8.433  2.1908  0.9062  0.1407
 6900TIP3   OH242258   6.473   5.066   1.487  0.2909 -0.6052  0.0818
 6900TIP3    H142259   6.394   5.043   1.438 -0.3835  0.8346  0.4366
 6900TIP3    H242260   6.441   5.089   1.574  1.3362 -1.8754  0.8228
 6901TIP3   OH242261   6.233   6.082   6.558  0.1634 -0.0081 -0.1590
 6901TIP3    H142262   6.326   6.077   6.579 -0.2090  0.4241  1.7101
 6901TIP3    H242263   6.224   6.164   6.510  0.7756 -0.1935 -0.6054
 6902TIP3   OH242264   1.580   0.101   0.168 -0.6970  0.0152 -0.3744
 6902TIP3    H142265   1.541   0.110   0.081 -2.0119 -0.4978  0.1396
 6902TIP3    H242266   1.606   0.190   0.192  1.4644 -0.0598 -2.0422
 6903TIP3   OH242267   2.274   4.676   1.361 -0.6024  0.1305 -0.7064
 6903TIP3    H142268   2.318   4.592   1.366 -1.4493 -0.2806  0.4095
 6903TIP3    H242269   2.235   4.678   1.274 -0.2409 -0.4510 -0.8862
 6904TIP3   OH242270   5.592   6.124   6.553 -0.5639 -0.2073  0.1928
 6904TIP3    H142271   5.569   6.163   6.468  1.2422 -1.3559 -0.8760
 6904TIP3    H242272   5.671   6.170   6.579  0.3237 -1.5898  0.0008
 6905TIP3   OH242273   2.540   3.953   8.583  0.4498  1.0030 -0.5051
 6905TIP3    H142274   2.549   3.868   8.541 -0.7434  0.8039 -0.4107
 6905TIP3    H242275   2.606   4.008   8.542  1.2933  0.0145 -0.5091
 6906TIP3   OH242276   2.617   4.712   7.879  0.1089  0.4912  0.1666
 6906TIP3    H142277   2.608   4.806   7.891  0.1359  0.4749  0.3100
 6906TIP3    H242278   2.535   4.685   7.837 -0.1942  0.4643  0.7741
 6907TIP3   OH242279   5.317   3.181   8.092 -0.0942 -0.1610 -0.0223
 6907TIP3    H142280   5.268   3.155   8.170  1.1635 -0.5245  0.6805
 6907TIP3    H242281   5.342   3.098   8.052  1.0735 -0.0090  0.3677
 6908TIP3   OH242282   2.181   3.496   1.717 -0.7641  0.1973  0.1426
 6908TIP3    H142283   2.250   3.563   1.714  0.9608 -1.4980 -0.2399
 6908TIP3    H242284   2.166   3.483   1.811  0.7222 -0.6008  0.3066
 6909TIP3   OH242285   2.834   3.198   0.991 -0.0882  0.0360  0.2074
 6909TIP3    H142286   2.819   3.261   1.062 -1.3816  2.1106 -1.7666
 6909TIP3    H242287   2.803   3.115   1.025  0.7893  0.6164  2.5966
 6910TIP3   OH242288   3.443   5.916   1.190 -0.7915 -0.1374  0.2226
 6910TIP3    H142289   3.366   5.972   1.192 -0.5534  0.2222 -0.3548
 6910TIP3    H242290   3.464   5.909   1.097  1.0752  1.4200  0.4852
 6911TIP3   OH242291   5.997   5.078   1.683  0.3393  0.4541  0.4323
 6911TIP3    H142292   6.019   5.145   1.747 -1.5307  1.7713 -0.2112
 6911TIP3    H242293   5.903   5.062   1.696  0.7256 -2.0927  0.5873
 6912TIP3   OH242294   3.693   6.268   0.707  0.3944 -0.1947 -0.2292
 6912TIP3    H142295   3.653   6.342   0.753 -0.9625 -1.0574  0.0428
 6912TIP3    H242296   3.621   6.231   0.655  0.4900 -2.5474  1.1984
 6913TIP3   OH242297   1.956   0.523   8.464  0.4639  0.0015  0.1262
 6913TIP3    H142298   2.010   0.462   8.414  0.9671  0.6811 -0.1751
 6913TIP3    H242299   1.946   0.599   8.407 -1.7361 -0.5228 -0.2738
 6914TIP3   OH242300   5.654   6.483   1.053 -0.0448 -0.1666 -0.4995
 6914TIP3    H142301   5.603   6.502   0.974  0.4539  1.3481 -0.4920
 6914TIP3    H242302   5.745   6.479   1.022  0.7533  4.6891  0.4577
 6915TIP3   OH242303   0.053   5.087   1.392  0.5176  0.7821 -0.1546
 6915TIP3    H142304   0.044   4.993   1.408  1.2149  0.6156 -0.6800
 6915TIP3    H242305  -0.030   5.113   1.352  0.6446  0.2075 -0.8137
 6916TIP3   OH242306   5.096   4.638   7.422  0.2713 -0.2946  0.0784
 6916TIP3    H142307   5.007   4.652   7.453  0.6067 -0.8955  1.3981
 6916TIP3    H242308   5.146   4.618   7.501  1.1323 -2.1366 -0.8504
 6917TIP3   OH242309   2.396   5.211   7.086  0.1039  0.2222  0.3420
 6917TIP3    H142310   2.303   5.198   7.101 -0.0576  0.4466 -0.4143
 6917TIP3    H242311   2.400   5.261   7.004  0.8236  1.6076  1.1862
 6918TIP3   OH242312   1.803   1.260   2.433 -0.0302  0.6848 -0.5204
 6918TIP3    H142313   1.846   1.293   2.512 -1.4798 -0.1429  0.6920
 6918TIP3    H242314   1.846   1.304   2.361  1.3323  1.5036  0.7430
 6919TIP3   OH242315   1.942   1.422   0.140  0.1320 -0.8694 -0.1399
 6919TIP3    H142316   1.944   1.490   0.073  0.6047 -1.2700 -0.5407
 6919TIP3    H242317   1.903   1.465   0.217 -1.1214 -0.6159 -0.8954
 6920TIP3   OH242318   2.011   1.025   8.226 -0.4779 -0.1174 -0.1792
 6920TIP3    H142319   2.071   1.100   8.226 -0.6717  0.1144  2.0937
 6920TIP3    H242320   2.010   0.995   8.135  1.7421  0.9284 -0.6209
 6921TIP3   OH242321   4.674   3.546   1.054  0.5819 -0.5286  0.3132
 6921TIP3    H142322   4.583   3.523   1.031  0.5441 -1.1899  1.0914
 6921TIP3    H242323   4.687   3.632   1.015 -0.3498 -0.4729  0.0963
 6922TIP3   OH242324   0.291   4.146   0.305  0.4926 -0.3613  0.4016
 6922TIP3    H142325   0.252   4.158   0.392  0.0751 -0.4804  0.2305
 6922TIP3    H242326   0.251   4.214   0.251 -0.4878 -1.3148 -0.1084
 6923TIP3   OH242327   4.418   0.384   0.761 -0.5697 -0.0452 -0.3086
 6923TIP3    H142328   4.380   0.307   0.720 -1.1692 -0.1464  0.4199
 6923TIP3    H242329   4.477   0.420   0.694 -1.5369 -0.1845 -1.2673
 6924TIP3   OH242330   4.988   5.674   1.215  0.2834 -0.0682 -0.8775
 6924TIP3    H142331   4.954   5.713   1.135 -0.2264  0.1561 -0.5517
 6924TIP3    H242332   4.939   5.592   1.224 -2.3461  1.5749  1.1328
 6925TIP3   OH242333   4.872   2.603   6.510  0.1184 -0.0496  0.1581
 6925TIP3    H142334   4.795   2.655   6.532  0.7539  1.1481 -0.3701
 6925TIP3    H242335   4.943   2.642   6.560  0.8322  0.3445 -1.1286
 6926TIP3   OH242336   5.942   1.279   7.498 -0.2789  0.7633 -0.1425
 6926TIP3    H142337   5.891   1.348   7.540 -0.1933 -0.1659  1.5628
 6926TIP3    H242338   5.934   1.203   7.557  0.8022 -0.2398 -1.2300
 6927TIP3   OH242339   2.373   0.747   6.427 -0.1348 -0.1995  0.0884
 6927TIP3    H142340   2.349   0.746   6.334  3.2484 -3.7733 -1.0380
 6927TIP3    H242341   2.451   0.802   6.431  0.6260 -1.2584  0.4145
 6928TIP3   OH242342   6.287   0.156   8.476  0.1538  0.2334  0.1735
 6928TIP3    H142343   6.330   0.149   8.392 -0.2871 -3.4646  0.0980
 6928TIP3    H242344   6.343   0.108   8.537 -1.0149  0.2431  1.3235
 6929TIP3   OH242345   5.635   4.227   6.302  0.1077  0.4297 -0.0625
 6929TIP3    H142346   5.675   4.302   6.345 -1.3913  1.5555 -0.5231
 6929TIP3    H242347   5.568   4.197   6.363 -0.8194  0.9116 -0.8117
 6930TIP3   OH242348   2.922   5.716   0.793 -0.1977 -0.2599 -0.8384
 6930TIP3    H142349   2.981   5.767   0.848 -1.6325  2.5041 -1.6758
 6930TIP3    H242350   2.872   5.662   0.854  1.2729 -0.6312  0.0994
 6931TIP3   OH242351   2.639   6.767   8.142  0.4680 -0.7067 -0.4528
 6931TIP3    H142352   2.728   6.803   8.143  0.4944 -0.7684 -0.5652
 6931TIP3    H242353   2.648   6.678   8.176  0.6678 -1.2079 -1.7616
 6932TIP3   OH242354   5.520   5.028   8.512 -0.3252  0.1740 -0.2974
 6932TIP3    H142355   5.460   4.961   8.545  0.4124 -0.6503 -0.5832
 6932TIP3    H242356   5.516   5.098   8.577 -0.8563 -0.2936  0.1864
 6933TIP3   OH242357   1.963   2.777   1.606  0.4150  0.1686 -0.4387
 6933TIP3    H142358   2.042   2.733   1.638 -1.6822 -3.7693 -0.0902
 6933TIP3    H242359   1.935   2.832   1.680 -0.1179 -2.8335  1.7955
 6934TIP3   OH242360   6.623   4.429   1.590  0.3572 -0.3788 -0.7282
 6934TIP3    H142361   6.629   4.429   1.494 -0.5367  1.7261 -0.8376
 6934TIP3    H242362   6.713   4.435   1.620  0.6769 -1.5184 -1.4030
 6935TIP3   OH242363   4.041   2.858   1.014  0.2355 -0.1381 -0.1014
 6935TIP3    H142364   4.079   2.772   0.998  0.4813  0.3020 -2.2482
 6935TIP3    H242365   4.072   2.882   1.101  1.6032 -1.4728 -0.1704
 6936TIP3   OH242366   1.943   2.270   0.463  0.5735  0.7417 -0.5190
 6936TIP3    H142367   1.993   2.218   0.526 -0.3171  1.9565  1.2676
 6936TIP3    H242368   1.852   2.261   0.491 -0.1575 -0.3926 -2.9501
 6937TIP3   OH242369   0.367   0.203   0.297  0.1078  0.3478 -0.0541
 6937TIP3    H142370   0.376   0.298   0.294 -0.3437  0.4037  0.3296
 6937TIP3    H242371   0.432   0.171   0.234 -0.1922  0.9331 -0.6756
 6938TIP3   OH242372   2.377   0.969   1.357 -0.5746  0.3578 -0.0385
 6938TIP3    H142373   2.343   0.880   1.350 -1.5228  0.7630 -0.9666
 6938TIP3    H242374   2.403   0.978   1.448 -1.9013 -0.3695  0.4416
 6939TIP3   OH242375   5.568   2.299   7.972 -0.2005  0.2009 -0.4980
 6939TIP3    H142376   5.495   2.360   7.961 -0.5650  0.0640  1.0471
 6939TIP3    H242377   5.633   2.348   8.023 -0.5820 -0.7481  0.9327
 6940TIP3   OH242378   2.883   5.598   7.005  0.0677 -0.4142  0.3929
 6940TIP3    H142379   2.922   5.512   7.019  0.2360 -0.7029 -1.5582
 6940TIP3    H242380   2.956   5.659   7.010  0.4949 -0.7488 -1.3421
 6941TIP3   OH242381   1.536   2.600   0.019  0.0860  0.1418 -0.3114
 6941TIP3    H142382   1.598   2.655  -0.029  1.8108 -1.3719  0.0448
 6941TIP3    H242383   1.589   2.559   0.087 -1.4577 -0.8212  0.3669
 6942TIP3   OH242384   2.208   5.164   1.068 -0.2171 -0.3266  0.0132
 6942TIP3    H142385   2.231   5.185   0.977  0.3692 -1.4096 -0.1006
 6942TIP3    H242386   2.119   5.198   1.078 -0.7566 -1.2209 -1.3461
 6943TIP3   OH242387   1.790   3.853   0.942 -0.2953 -0.0507  0.2103
 6943TIP3    H142388   1.761   3.897   0.862  1.3322 -1.0281 -0.9783
 6943TIP3    H242389   1.747   3.902   1.013 -1.2634  1.2556 -1.1996
 6944TIP3   OH242390   1.166   5.453   0.863 -0.0683 -0.4738  0.1658
 6944TIP3    H142391   1.094   5.394   0.884  0.0973 -0.4241  0.9262
 6944TIP3    H242392   1.206   5.472   0.948  1.5801 -1.4298 -0.3630
 6945TIP3   OH242393   3.081   3.101   1.322  0.9004 -0.1557 -0.0055
 6945TIP3    H142394   3.118   3.160   1.256  0.4144  0.8374  0.5776
 6945TIP3    H242395   3.025   3.042   1.272  1.8450 -0.5045 -0.6725
 6946TIP3   OH242396   3.782   4.468   0.730  0.3780 -0.2058 -0.0922
 6946TIP3    H142397   3.830   4.501   0.654  0.3634  0.7228  0.2863
 6946TIP3    H242398   3.766   4.376   0.710  1.7168 -0.3678 -0.5272
 6947TIP3   OH242399   5.869   5.002   7.678 -0.0927  0.0896 -0.1690
 6947TIP3    H142400   5.853   5.095   7.665  2.0452  0.6239  0.6469
 6947TIP3    H242401   5.896   4.970   7.592  1.9693  0.8889  0.1431
 6948TIP3   OH242402   1.974   4.453   7.719 -0.3047 -0.4121  0.6326
 6948TIP3    H142403   2.014   4.374   7.683 -0.4575 -0.3389  0.2986
 6948TIP3    H242404   1.998   4.522   7.658  0.5521 -0.0290  1.3822
 6949TIP3   OH242405   2.487   4.498   1.332 -0.5975  0.6728  0.3361
 6949TIP3    H142406   2.500   4.458   1.246 -2.2129  2.4265 -0.7867
 6949TIP3    H242407   2.464   4.424   1.389  0.2940 -0.4978 -0.7550
 6950TIP3   OH242408   2.438   0.986   7.028 -0.3113 -0.3594  0.0363
 6950TIP3    H142409   2.395   0.907   6.995 -0.0183  0.3896 -2.4060
 6950TIP3    H242410   2.399   1.058   6.978 -0.0344  0.9758  1.6456
 6951TIP3   OH242411   5.372   0.255   0.546  0.4641 -0.7093 -0.0533
 6951TIP3    H142412   5.277   0.253   0.533  0.4042 -1.7909  0.4708
 6951TIP3    H242413   5.408   0.255   0.457 -0.0172 -0.7711 -0.2531
 6952TIP3   OH242414   2.169   3.588   1.182  0.2152 -0.0861 -0.1081
 6952TIP3    H142415   2.196   3.496   1.173  0.6866 -0.2840  2.5434
 6952TIP3    H242416   2.084   3.591   1.138 -0.7101 -2.3143  1.3079
 6953TIP3   OH242417   5.780   0.659   1.828  0.4654  0.1697  0.7995
 6953TIP3    H142418   5.866   0.620   1.810  0.1936 -0.3665  0.6569
 6953TIP3    H242419   5.756   0.626   1.915 -0.3984 -1.1230  0.0896
 6954TIP3   OH242420   0.015   5.715   7.305 -0.8136 -0.1368  0.2606
 6954TIP3    H142421   0.015   5.663   7.386 -0.7989  0.1561  0.4531
 6954TIP3    H242422  -0.041   5.790   7.325  0.2459  0.6371  0.4635
 6955TIP3   OH242423   6.032   1.323   6.676  0.8300  0.2656  0.1588
 6955TIP3    H142424   6.085   1.402   6.668  2.7640 -0.8878  0.9398
 6955TIP3    H242425   6.065   1.279   6.755 -0.5138 -1.0883  0.0271
 6956TIP3   OH242426   0.080   0.426   6.740 -0.0819 -0.0277  0.0319
 6956TIP3    H142427   0.041   0.383   6.664 -1.1993  0.9674  0.0137
 6956TIP3    H242428   0.032   0.508   6.749  2.2440  1.4550 -0.1823
 6957TIP3   OH242429   4.621   6.137   8.084  0.6952 -0.3555  0.0824
 6957TIP3    H142430   4.544   6.111   8.134  0.2352  0.3218 -0.2577
 6957TIP3    H242431   4.663   6.205   8.136  0.8623 -0.4653  0.0935
 6958TIP3   OH242432   5.887   1.142   1.945  0.0405  0.5032 -0.0272
 6958TIP3    H142433   5.875   1.051   1.917 -0.9131  0.7238 -0.3511
 6958TIP3    H242434   5.966   1.139   1.999 -0.2203 -0.5986  0.3267
 6959TIP3   OH242435   3.703   2.364   7.773  0.4238 -0.4340 -0.4033
 6959TIP3    H142436   3.610   2.364   7.750  0.4693  0.0839 -0.5947
 6959TIP3    H242437   3.745   2.313   7.705  0.4716  0.5584 -1.1358
 6960TIP3   OH242438   1.134   2.229   5.893  0.1843 -0.8202  0.1054
 6960TIP3    H142439   1.060   2.232   5.833  2.2769 -0.8438 -2.6914
 6960TIP3    H242440   1.150   2.136   5.908 -0.6718 -0.8050  1.1951
 6961TIP3   OH242441   6.416   4.948   7.810  0.2578 -0.0637  0.2305
 6961TIP3    H142442   6.392   4.873   7.865 -1.7778  1.1341  1.0872
 6961TIP3    H242443   6.367   4.934   7.728  1.2643 -0.5371 -0.3053
 6962TIP3   OH242444   1.055   1.763   7.725 -0.1372 -0.1380  0.6521
 6962TIP3    H142445   0.964   1.754   7.754 -1.0413 -0.3212 -1.9684
 6962TIP3    H242446   1.087   1.674   7.717 -0.5020 -0.1857 -0.5218
 6963TIP3   OH242447   4.085   4.953   7.125 -0.0865 -0.2366  0.1039
 6963TIP3    H142448   4.117   4.884   7.184  1.7650 -0.3730 -0.9880
 6963TIP3    H242449   4.072   5.029   7.182 -2.6461 -1.5318  1.4309
 6964TIP3   OH242450   2.009   4.475   1.798  0.4404  0.7537 -0.5144
 6964TIP3    H142451   2.053   4.460   1.882  0.5433  2.1858 -0.2809
 6964TIP3    H242452   2.010   4.390   1.755  3.4806  0.6712 -0.5225
 6965TIP3   OH242453   3.731   3.400   0.275 -0.0831  0.1429  0.3984
 6965TIP3    H142454   3.733   3.438   0.363 -1.0986  0.9179  0.1044
 6965TIP3    H242455   3.740   3.476   0.217 -2.7115  0.0560 -0.2204
 6966TIP3   OH242456   5.646   6.271   7.656 -0.1180 -0.4477  0.6486
 6966TIP3    H142457   5.686   6.211   7.718  0.3768  1.6877  2.4947
 6966TIP3    H242458   5.552   6.256   7.666  0.0003 -1.1618  0.7783
 6967TIP3   OH242459   2.148   6.768   6.982  0.0009 -0.3141 -0.3928
 6967TIP3    H142460   2.074   6.732   7.031  1.2123 -1.8893  0.4001
 6967TIP3    H242461   2.108   6.820   6.913 -1.8834 -2.0823 -0.7289
 6968TIP3   OH242462   0.863   5.591   6.787  0.0546  0.1821 -0.3490
 6968TIP3    H142463   0.839   5.683   6.782 -2.1301 -0.3137  0.1218
 6968TIP3    H242464   0.934   5.588   6.851  0.1442  1.5241 -0.3624
 6969TIP3   OH242465   1.140   3.346   1.750  0.5298 -0.2534 -0.3143
 6969TIP3    H142466   1.199   3.287   1.705  0.1337 -0.9211  0.0318
 6969TIP3    H242467   1.057   3.299   1.755  0.5278 -0.1441  0.9969
 6970TIP3   OH242468   5.270   4.718   0.714 -0.3692  0.4317 -0.2606
 6970TIP3    H142469   5.300   4.751   0.630 -0.2568  0.0415 -0.3728
 6970TIP3    H242470   5.337   4.655   0.741 -0.8156 -0.0567 -0.2729
 6971TIP3   OH242471   5.340   5.998   5.983  0.1401 -0.3757 -0.2221
 6971TIP3    H142472   5.429   6.000   5.948  0.6070 -1.3232  0.8678
 6971TIP3    H242473   5.325   5.907   6.006 -1.0728 -0.2016 -0.2723
 6972TIP3   OH242474   2.419   3.161   0.152 -0.7063 -0.0071 -0.6398
 6972TIP3    H142475   2.337   3.208   0.170 -0.2057 -0.1515  2.5700
 6972TIP3    H242476   2.408   3.076   0.194  1.1079  0.0273  0.0170
 6973TIP3   OH242477   4.166   6.836   7.825  0.5399 -0.7703 -0.3263
 6973TIP3    H142478   4.258   6.849   7.847 -0.0619  0.8659  1.4111
 6973TIP3    H242479   4.121   6.914   7.857 -1.4257 -1.3488 -1.4599
 6974TIP3   OH242480   3.929   4.270   7.144  0.7087 -0.6219 -0.2130
 6974TIP3    H142481   3.930   4.175   7.135  2.3176 -0.6507 -0.0672
 6974TIP3    H242482   3.846   4.297   7.104  1.2625 -1.8963 -2.4148
 6975TIP3   OH242483   5.833   6.489   0.152 -0.2472 -0.1853  0.1200
 6975TIP3    H142484   5.806   6.414   0.205  1.0867 -0.5341  0.3356
 6975TIP3    H242485   5.751   6.531   0.127 -0.9563 -0.6450  1.5435
 6976TIP3   OH242486   6.404   5.178   0.825 -0.4997 -0.3301  0.7019
 6976TIP3    H142487   6.439   5.093   0.798 -2.6648 -1.9254  2.5106
 6976TIP3    H242488   6.338   5.157   0.891 -1.3828  2.7727  0.9731
 6977TIP3   OH242489   0.663   3.350   8.296 -0.6677 -0.4238 -0.1616
 6977TIP3    H142490   0.603   3.353   8.370  0.1061  0.2393  0.4706
 6977TIP3    H242491   0.693   3.440   8.286 -1.0657 -0.4290 -1.5581
 6978TIP3   OH242492   6.479   4.585   7.167 -0.6120  0.5029  0.4155
 6978TIP3    H142493   6.459   4.674   7.196  0.8497  0.9536  0.0833
 6978TIP3    H242494   6.559   4.561   7.214 -0.1263 -0.0433 -0.6583
 6979TIP3   OH242495   4.189   6.363   2.371 -0.2480  0.7209 -0.0731
 6979TIP3    H142496   4.174   6.268   2.369  3.1690  0.0626 -0.6713
 6979TIP3    H242497   4.198   6.388   2.279  1.0172  1.1621  0.1486
 6980TIP3   OH242498   1.510   0.997   2.037  0.2684 -0.1764 -0.1062
 6980TIP3    H142499   1.535   0.905   2.041 -0.0378 -0.2854 -0.5415
 6980TIP3    H242500   1.415   0.996   2.049  0.1233 -0.0163 -1.0978
 6981TIP3   OH242501   3.986   5.483   7.402 -0.1268  0.4867 -0.4899
 6981TIP3    H142502   3.915   5.546   7.415  0.6435  1.5345 -1.1629
 6981TIP3    H242503   4.008   5.490   7.309  1.7960  1.2486 -0.0297
 6982TIP3   OH242504   4.283   1.045   6.391 -0.1488 -0.1142 -0.4138
 6982TIP3    H142505   4.217   1.001   6.338 -1.2670  1.5012 -0.4168
 6982TIP3    H242506   4.256   1.029   6.481 -0.5997  0.5912 -0.4156
 6983TIP3   OH242507   4.688   6.328   6.471 -0.3687  0.4953  0.2635
 6983TIP3    H142508   4.752   6.313   6.402 -0.4840  0.9140  0.0649
 6983TIP3    H242509   4.612   6.365   6.427 -1.1692 -0.9928  0.3403
 6984TIP3   OH242510   4.407   2.261   2.399  0.3843 -0.2727 -0.4630
 6984TIP3    H142511   4.384   2.348   2.433 -2.4323 -1.1046 -0.0289
 6984TIP3    H242512   4.410   2.205   2.476  0.8935 -0.8308 -0.8806
 6985TIP3   OH242513   6.338   0.192   1.184 -0.0581  0.4338 -0.2948
 6985TIP3    H142514   6.348   0.097   1.180  0.1052  0.4733 -1.0011
 6985TIP3    H242515   6.258   0.206   1.234  0.2909 -0.0560  0.4166
 6986TIP3   OH242516   0.586   1.142   1.558 -0.3167 -0.2575 -0.0874
 6986TIP3    H142517   0.522   1.173   1.493  0.3397  0.4216 -0.4271
 6986TIP3    H242518   0.656   1.207   1.555 -0.0933 -0.4274  1.0362
 6987TIP3   OH242519   3.825   6.626   8.443 -0.0115 -0.1125  0.6259
 6987TIP3    H142520   3.745   6.656   8.486 -0.4719  1.3391 -1.1041
 6987TIP3    H242521   3.811   6.647   8.351  1.6987 -1.3622  0.0349
 6988TIP3   OH242522   6.046   5.301   0.842 -0.0275  0.2510  0.3122
 6988TIP3    H142523   6.104   5.355   0.788 -0.3946  0.0496 -0.2924
 6988TIP3    H242524   5.959   5.318   0.808 -0.4131  1.0097  1.6074
 6989TIP3   OH242525   4.477   3.348   1.709  0.4792  0.5111  0.6466
 6989TIP3    H142526   4.490   3.442   1.691 -1.7596  0.7515  0.0496
 6989TIP3    H242527   4.515   3.304   1.633 -0.3328  1.0575 -0.0958
 6990TIP3   OH242528   0.793   5.299   1.712 -0.2807 -0.0996 -0.0563
 6990TIP3    H142529   0.703   5.326   1.689 -0.8380 -1.5806  0.2792
 6990TIP3    H242530   0.804   5.326   1.803 -0.4691 -0.1039 -0.0314
 6991TIP3   OH242531   2.259   3.080   8.480 -0.0725 -0.0467 -0.1006
 6991TIP3    H142532   2.258   3.111   8.571  0.7286  1.6654 -0.6344
 6991TIP3    H242533   2.169   3.093   8.450 -0.0319  0.6942  0.0585
 6992TIP3   OH242534   3.773   0.032   7.076 -0.1723  0.1407 -0.1165
 6992TIP3    H142535   3.704  -0.032   7.058  2.7923 -2.8736 -1.6787
 6992TIP3    H242536   3.772   0.090   6.999 -1.5452  0.8130  0.3648
 6993TIP3   OH242537   0.285   6.293   7.744  0.2574  0.5896  0.5715
 6993TIP3    H142538   0.289   6.199   7.726  0.9406  0.8452 -0.7623
 6993TIP3    H242539   0.325   6.303   7.830 -1.0353 -0.4678  1.3427
 6994TIP3   OH242540   3.286   5.374   6.569  0.0700 -0.0337  0.1119
 6994TIP3    H142541   3.346   5.331   6.507  0.4965  0.8072 -0.0815
 6994TIP3    H242542   3.202   5.331   6.554  0.4970 -0.8733  0.0115
 6995TIP3   OH242543   5.876   1.250   2.264  0.2362 -0.1703  0.3153
 6995TIP3    H142544   5.943   1.247   2.196  1.5538 -0.7204  1.6000
 6995TIP3    H242545   5.866   1.343   2.285  0.9531 -0.1204  0.4520
 6996TIP3   OH242546   1.193   4.011   0.618  0.4899 -0.5545  0.4362
 6996TIP3    H142547   1.216   4.098   0.652  0.6237 -0.5302  0.2887
 6996TIP3    H242548   1.218   4.015   0.526 -0.2108 -0.4924  0.2448
 6997TIP3   OH242549   1.829   0.956   7.783 -0.1901  0.1553  0.2770
 6997TIP3    H142550   1.770   1.029   7.803  1.0498  1.0439  0.7826
 6997TIP3    H242551   1.779   0.878   7.806 -1.5334  0.8268 -0.2572
 6998TIP3   OH242552   5.250   0.072   7.495 -0.4619  0.0185 -0.1295
 6998TIP3    H142553   5.281   0.002   7.552 -1.6599  0.3511  0.9712
 6998TIP3    H242554   5.175   0.109   7.541 -1.1347  0.6620 -1.6721
 6999TIP3   OH242555   2.529   1.347   1.096 -0.2375 -0.1144 -0.5440
 6999TIP3    H142556   2.522   1.268   1.149  0.1261  0.1178 -0.1435
 6999TIP3    H242557   2.496   1.321   1.010  1.5466 -1.2261 -0.9630
 7000TIP3   OH242558   3.382   3.249   1.491  0.1523 -0.1025  0.6026
 7000TIP3    H142559   3.434   3.259   1.570 -1.2366 -0.8571  1.6588
 7000TIP3    H242560   3.313   3.187   1.515 -0.3591 -0.2852 -1.1741
 7001TIP3   OH242561   0.505   6.123   0.636  0.2192  0.3868  0.1552
 7001TIP3    H142562   0.483   6.068   0.711  3.4449  1.3766  2.0601
 7001TIP3    H242563   0.596   6.100   0.615 -0.3105  0.7366 -3.0066
 7002TIP3   OH242564   0.440   5.616   1.557  0.0644 -0.3695 -0.0551
 7002TIP3    H142565   0.347   5.625   1.577 -0.1148 -1.9779 -0.0699
 7002TIP3    H242566   0.444   5.607   1.462  0.4913  2.1173 -0.3605
 7003TIP3   OH242567   6.087   5.110   6.599 -0.2605 -0.0250  0.2074
 7003TIP3    H142568   6.052   5.118   6.688 -0.7912  0.2134 -0.0205
 7003TIP3    H242569   6.095   5.201   6.569 -4.3097 -0.0780 -1.6239
 7004TIP3   OH242570   4.137   5.703   8.471 -0.4863 -0.5504 -0.0746
 7004TIP3    H142571   4.060   5.690   8.527 -0.7197 -0.9962 -0.4807
 7004TIP3    H242572   4.176   5.785   8.500 -0.7003 -0.6940  0.6235
 7005TIP3   OH242573   0.049   2.220   7.856  0.3024  0.2393  0.3557
 7005TIP3    H142574   0.077   2.173   7.935 -0.7183  0.2296  0.7277
 7005TIP3    H242575  -0.007   2.291   7.888 -2.1167 -1.1829 -0.4200
 7006TIP3   OH242576   1.509   2.440   8.234  0.1533  0.2195  0.3221
 7006TIP3    H142577   1.434   2.489   8.267  0.7219  0.4508  1.3238
 7006TIP3    H242578   1.473   2.380   8.169 -0.6090  1.6911 -0.6474
 7007TIP3   OH242579   4.525   2.977   2.084 -0.0205 -0.0392  0.3669
 7007TIP3    H142580   4.493   2.923   2.156 -0.2509 -0.0853  0.2305
 7007TIP3    H242581   4.556   3.057   2.126  1.1090 -0.6101  0.6686
 7008TIP3   OH242582   5.241   3.473   0.422  0.0664 -0.2037  0.0362
 7008TIP3    H142583   5.186   3.423   0.482 -0.2029  0.9154  0.7490
 7008TIP3    H242584   5.291   3.533   0.478 -2.1839  2.8371 -0.9275
 7009TIP3   OH242585   4.679   3.824   2.297  0.1779 -0.1545  0.2978
 7009TIP3    H142586   4.730   3.887   2.348  0.1361 -0.1590  0.3444
 7009TIP3    H242587   4.686   3.856   2.207  0.6447 -0.4196  0.2424
 7010TIP3   OH242588   0.635   1.883   7.648 -0.1246 -0.5913  0.4008
 7010TIP3    H142589   0.628   1.874   7.743  1.4511 -3.6089  0.3401
 7010TIP3    H242590   0.601   1.801   7.614  0.7214 -0.1650 -1.5684
 7011TIP3   OH242591   3.380   2.321   7.708 -0.5288  0.0439  0.0505
 7011TIP3    H142592   3.324   2.375   7.762 -1.4437 -1.3724  0.5688
 7011TIP3    H242593   3.342   2.326   7.620  0.5058  1.7201 -0.3462
 7012TIP3   OH242594   5.984   3.386   0.896  0.0822  0.0766 -0.0870
 7012TIP3    H142595   6.007   3.477   0.911 -2.4487  0.9389 -0.8822
 7012TIP3    H242596   5.961   3.382   0.803  0.2291 -1.3972 -0.0857
 7013TIP3   OH242597   2.684   4.137   7.098  0.1366  0.2282 -0.2592
 7013TIP3    H142598   2.737   4.174   7.027 -0.1622 -0.1400 -0.6851
 7013TIP3    H242599   2.659   4.050   7.066 -2.6393  1.2308 -1.1034
 7014TIP3   OH242600   3.569   3.650   7.734 -0.2188 -0.2701  0.6083
 7014TIP3    H142601   3.487   3.624   7.775 -0.3653  2.0488  1.9227
 7014TIP3    H242602   3.543   3.694   7.653 -0.3427  0.8382  1.2295
 7015TIP3   OH242603   2.401   5.658   7.252  0.2950 -0.2844  0.5107
 7015TIP3    H142604   2.415   5.568   7.281  0.9038 -0.2739  0.2747
 7015TIP3    H242605   2.488   5.698   7.257  0.1863  0.0536 -0.1630
 7016TIP3   OH242606   5.367   0.064   1.367 -0.1395  0.0677  0.6322
 7016TIP3    H142607   5.422   0.112   1.305  1.0284 -1.0340  0.7764
 7016TIP3    H242608   5.319   0.002   1.312  1.4362 -1.4132  0.8498
 7017TIP3   OH242609   2.487   3.432   7.987 -0.5025 -0.7824 -0.1795
 7017TIP3    H142610   2.539   3.512   7.978 -0.6080 -0.5992  0.7088
 7017TIP3    H242611   2.485   3.394   7.899  1.5362 -1.0417 -0.1618
 7018TIP3   OH242612   3.142   0.538   6.717  0.2432 -0.4060  0.3244
 7018TIP3    H142613   3.185   0.614   6.755 -0.3028  0.0225  0.0912
 7018TIP3    H242614   3.208   0.468   6.722  0.3641 -0.2360  1.5935
 7019TIP3   OH242615   0.771   6.769   7.817 -0.2296  0.1933  0.0739
 7019TIP3    H142616   0.679   6.793   7.832 -0.3442  0.4151 -0.9388
 7019TIP3    H242617   0.818   6.813   7.888 -1.0317 -0.9793  1.3755
 7020TIP3   OH242618   0.467   0.866   5.860  0.4038 -0.7385 -0.5815
 7020TIP3    H142619   0.485   0.957   5.884  0.2517 -1.1806  1.3685
 7020TIP3    H242620   0.430   0.871   5.771 -1.6643  1.3284  0.2958
 7021TIP3   OH242621   0.511   0.867   7.476 -0.4152  0.0735  0.1097
 7021TIP3    H142622   0.579   0.932   7.498 -1.0174  0.2419  1.5810
 7021TIP3    H242623   0.441   0.919   7.438 -1.1584  0.4400  1.8582
 7022TIP3   OH242624   0.048   1.950   7.725 -0.5017 -0.1198  0.3655
 7022TIP3    H142625   0.138   1.935   7.697 -0.1175 -1.0359  1.9573
 7022TIP3    H242626   0.044   2.044   7.741 -0.4128  0.2439 -1.5221
 7023TIP3   OH242627   1.404   5.106   7.441  0.4019  0.1435 -0.2640
 7023TIP3    H142628   1.412   5.198   7.467 -0.1390  0.3505 -0.8236
 7023TIP3    H242629   1.478   5.063   7.485  0.6371  0.8334  0.0337
 7024TIP3   OH242630   3.521   4.347   1.386  0.0672  0.2058 -0.9623
 7024TIP3    H142631   3.499   4.437   1.360 -0.1415  0.8780  1.3743
 7024TIP3    H242632   3.609   4.353   1.421 -0.5658 -0.1144  0.7806
 7025TIP3   OH242633   5.524   5.370   2.482 -0.0938  0.1329 -0.2359
 7025TIP3    H142634   5.498   5.279   2.465 -0.9152  0.3597 -0.2405
 7025TIP3    H242635   5.524   5.377   2.578 -1.1219  0.4216 -0.2466
 7026TIP3   OH242636   2.114   4.409   2.058  0.4582 -0.5675  0.8265
 7026TIP3    H142637   2.026   4.414   2.095  1.0792 -0.8110  2.4159
 7026TIP3    H242638   2.172   4.429   2.131  1.7302 -0.2156 -0.2358
 7027TIP3   OH242639   1.897   1.665   6.567  0.3360  0.0769 -0.5467
 7027TIP3    H142640   1.871   1.698   6.481  0.3665 -0.2450 -0.6810
 7027TIP3    H242641   1.828   1.603   6.591 -0.4103  1.1897  0.2871
 7028TIP3   OH242642   4.635   0.831   1.157 -0.1992 -0.1254  0.6467
 7028TIP3    H142643   4.689   0.903   1.187  1.6055 -1.3169  0.4120
 7028TIP3    H242644   4.681   0.752   1.186 -0.1653 -1.2660 -2.2084
 7029TIP3   OH242645   0.598   6.313   7.627  0.1920 -0.4972  0.0408
 7029TIP3    H142646   0.558   6.386   7.674 -1.7588 -1.2880 -0.2923
 7029TIP3    H242647   0.615   6.247   7.694  2.2708  0.3495  0.3953
 7030TIP3   OH242648   5.674   0.467   0.195 -0.1931 -0.3339 -0.6107
 7030TIP3    H142649   5.752   0.439   0.148 -0.3578 -1.2123 -0.3910
 7030TIP3    H242650   5.705   0.531   0.259  0.1471  0.2679 -1.3643
 7031TIP3   OH242651   0.922   6.595   0.499 -0.0936 -0.3775 -0.2991
 7031TIP3    H142652   0.988   6.598   0.568  0.4968  0.5490 -0.8866
 7031TIP3    H242653   0.889   6.684   0.494 -0.3504 -0.5093 -1.0066
 7032TIP3   OH242654   2.343   2.166   1.242  0.2753  0.0369  0.6229
 7032TIP3    H142655   2.333   2.235   1.177 -0.0907  0.2370  0.8936
 7032TIP3    H242656   2.401   2.102   1.200 -1.9481 -1.0862 -0.9093
 7033TIP3   OH242657   1.637   1.110   6.607 -0.2807  0.0309  0.1683
 7033TIP3    H142658   1.731   1.128   6.603 -0.5683  1.7500  0.1697
 7033TIP3    H242659   1.617   1.067   6.523  0.8921 -2.7873  1.2007
 7034TIP3   OH242660   2.325   2.062   7.549 -0.2675  0.2331 -0.2590
 7034TIP3    H142661   2.273   2.079   7.470 -1.1011  0.0175  0.2404
 7034TIP3    H242662   2.319   1.968   7.562  0.6502  0.1330 -0.4567
 7035TIP3   OH242663   5.045   6.087   7.515  0.1152  0.0814  0.3205
 7035TIP3    H142664   4.994   6.164   7.540 -0.2685  0.4116 -1.3453
 7035TIP3    H242665   5.046   6.089   7.420  0.6801 -1.6130  0.2548
 7036TIP3   OH242666   4.853   3.187   1.114 -0.0489  0.7594  0.3219
 7036TIP3    H142667   4.770   3.201   1.069 -0.6428 -0.3779  1.0069
 7036TIP3    H242668   4.889   3.108   1.072  0.6531  1.1934  0.0896
 7037TIP3   OH242669   0.019   3.176   7.562 -0.2526 -0.3559 -0.3843
 7037TIP3    H142670   0.053   3.153   7.475 -1.2171 -1.0949 -0.5856
 7037TIP3    H242671  -0.017   3.264   7.550  1.2744  0.3189 -0.2367
 7038TIP3   OH242672   3.591   4.622   0.905  0.7280  0.6222 -0.5608
 7038TIP3    H142673   3.629   4.553   0.850 -1.4553 -1.3721  0.3143
 7038TIP3    H242674   3.632   4.702   0.872  1.4197 -0.7453 -3.3812
 7039TIP3   OH242675   6.343   2.973   0.331  0.2397  0.5281 -0.2345
 7039TIP3    H142676   6.383   3.024   0.400  0.3262 -1.5664  1.3507
 7039TIP3    H242677   6.400   2.986   0.255  2.1995  0.0344  1.1011
 7040TIP3   OH242678   3.709   3.065   1.682  0.1151  0.0987 -0.4065
 7040TIP3    H142679   3.649   3.009   1.632 -1.7181  2.6007 -1.1647
 7040TIP3    H242680   3.654   3.110   1.745  1.9756 -0.8533  2.0545
 7041TIP3   OH242681   0.021   5.787   1.509 -0.3185  0.4587 -0.1638
 7041TIP3    H142682  -0.002   5.863   1.563 -1.3406 -0.9914  1.5564
 7041TIP3    H242683   0.076   5.823   1.440 -1.4814  2.9098  0.0533
 7042TIP3   OH242684   1.040   6.452   0.280  0.5565  0.1523 -0.0678
 7042TIP3    H142685   1.022   6.517   0.212  2.2105 -0.7989 -1.4735
 7042TIP3    H242686   1.029   6.500   0.362 -2.3846  1.1174 -0.8875
 7043TIP3   OH242687   0.851   4.924   8.049  0.1038  0.5821  0.0426
 7043TIP3    H142688   0.921   4.972   8.092  1.3404 -0.5209 -0.6544
 7043TIP3    H242689   0.896   4.867   7.986 -1.2497 -1.3875  0.7339
 7044TIP3   OH242690   1.657   5.001   7.534 -0.1782  0.0513 -0.2823
 7044TIP3    H142691   1.720   5.061   7.575 -0.3995 -0.4611  0.8301
 7044TIP3    H242692   1.688   4.993   7.444  2.0560 -1.0871  0.4998
 7045TIP3   OH242693   1.388   5.002   8.629 -0.1630  0.0065  0.4362
 7045TIP3    H142694   1.333   5.025   8.704  0.3355 -1.0539  1.1696
 7045TIP3    H242695   1.435   4.924   8.658  0.0768 -0.4073 -0.9843
 7046TIP3   OH242696   1.652   6.585   7.216 -0.8229 -0.3044  0.0577
 7046TIP3    H142697   1.648   6.490   7.216 -1.2531 -0.2951  0.5325
 7046TIP3    H242698   1.571   6.613   7.173 -0.0237 -0.1530 -1.4045
 7047TIP3   OH242699   6.490   5.809   8.082  0.5035  0.1469 -0.4707
 7047TIP3    H142700   6.516   5.744   8.016 -1.6642 -1.8119  0.4591
 7047TIP3    H242701   6.394   5.812   8.076  0.3044  0.6087  1.9253
 7048TIP3   OH242702   1.696   3.704   0.422  0.0032  0.6980 -0.3068
 7048TIP3    H142703   1.691   3.747   0.508  2.4102  0.6082 -0.0475
 7048TIP3    H242704   1.632   3.751   0.368 -0.8282  1.4387  1.2463
 7049TIP3   OH242705   0.394   2.193   1.597  0.2670 -0.4306  0.1161
 7049TIP3    H142706   0.392   2.185   1.501  0.0476 -0.1027  0.0898
 7049TIP3    H242707   0.462   2.258   1.614 -0.3591  0.2357  0.1238
 7050TIP3   OH242708   6.197   4.518   7.245 -0.0158  0.4899 -0.4347
 7050TIP3    H142709   6.145   4.553   7.173  1.0256  3.3096  0.0278
 7050TIP3    H242710   6.287   4.521   7.212  0.3870  1.1074  0.6691
 7051TIP3   OH242711   3.790   3.477   7.727  0.1069 -0.0360 -0.2441
 7051TIP3    H142712   3.788   3.436   7.814  1.0217  1.1123  0.3548
 7051TIP3    H242713   3.701   3.510   7.714  0.1956  0.6398  0.7108
 7052TIP3   OH242714   6.232   5.538   1.485  0.1906  0.1477  0.9108
 7052TIP3    H142715   6.177   5.506   1.556  0.7654  0.7366  1.6380
 7052TIP3    H242716   6.312   5.568   1.528  1.2565 -1.0520 -0.1551
 7053TIP3   OH242717   3.205   1.224   6.919  0.4837  0.3952 -0.4751
 7053TIP3    H142718   3.189   1.174   7.000 -1.7632  1.2502 -0.3184
 7053TIP3    H242719   3.151   1.303   6.929  1.3950  1.2694 -2.1406
 7054TIP3   OH242720   3.214   5.492   8.616  0.5831  0.4211  0.3612
 7054TIP3    H142721   3.306   5.494   8.589  0.4209 -0.4239 -0.2910
 7054TIP3    H242722   3.191   5.399   8.614 -0.5614  0.7013 -0.4353
 7055TIP3   OH242723   3.767   6.617   1.521 -0.2120  0.0395  0.2043
 7055TIP3    H142724   3.840   6.671   1.551 -0.7493  1.8038 -1.4999
 7055TIP3    H242725   3.743   6.653   1.436 -1.9409 -1.6341 -0.0913
 7056TIP3   OH242726   3.918   1.748   7.695 -0.1634 -0.1348  0.1499
 7056TIP3    H142727   4.012   1.751   7.711  0.3461 -1.6515 -2.0995
 7056TIP3    H242728   3.900   1.824   7.639  0.1089 -0.8716 -0.9676
 7057TIP3   OH242729   6.563   6.686   8.349 -0.5774  0.1168  0.1510
 7057TIP3    H142730   6.645   6.675   8.396  0.2425 -0.2407 -1.2807
 7057TIP3    H242731   6.582   6.755   8.285 -1.2208 -0.3188 -0.5265
 7058TIP3   OH242732   3.005   0.950   6.943 -0.4648  0.8483 -0.3523
 7058TIP3    H142733   3.092   0.914   6.928 -0.1885  1.1172  0.5536
 7058TIP3    H242734   3.017   1.013   7.014 -1.0630  2.1862 -1.3968
 7059TIP3   OH242735   0.821   5.776   8.267  0.6105  0.3856  0.2741
 7059TIP3    H142736   0.848   5.752   8.356  0.7335  1.0158  0.4134
 7059TIP3    H242737   0.805   5.693   8.223  0.5635  0.0687  0.8850
 7060TIP3   OH242738   4.695   0.451   6.221 -0.3368 -0.5657  0.5999
 7060TIP3    H142739   4.698   0.370   6.170 -0.4028 -0.8401  1.0245
 7060TIP3    H242740   4.747   0.513   6.171 -2.2260 -0.1582 -0.9734
 7061TIP3   OH242741   3.317   1.088   1.185 -0.1483  0.0917  0.1489
 7061TIP3    H142742   3.376   1.156   1.151  1.3828  0.6796  3.4778
 7061TIP3    H242743   3.233   1.132   1.194  0.1469  0.7572 -0.2142
 7062TIP3   OH242744   5.109   1.264   7.780  0.2702  0.3869  0.2178
 7062TIP3    H142745   5.029   1.316   7.774  0.3101  0.7004  1.8472
 7062TIP3    H242746   5.156   1.282   7.698 -1.1630  0.4343 -0.6273
 7063TIP3   OH242747   5.685   0.082   7.710 -0.1282  0.1423 -0.1985
 7063TIP3    H142748   5.595   0.084   7.742  0.0656  2.2024  0.3364
 7063TIP3    H242749   5.724   0.163   7.742  2.3581 -1.3302  0.7613
 7064TIP3   OH242750   2.826   5.374   8.060 -0.0015 -0.1542  0.5395
 7064TIP3    H142751   2.742   5.392   8.100  0.2908  1.1076  0.6149
 7064TIP3    H242752   2.882   5.343   8.132  0.0632  0.5676  0.8025
 7065TIP3   OH242753   0.313   3.871   7.322 -0.6763  0.4185 -0.3724
 7065TIP3    H142754   0.290   3.964   7.324 -1.1469  0.4198 -2.7877
 7065TIP3    H242755   0.330   3.853   7.230  2.6665 -1.1421  0.4107
 7066TIP3   OH242756   0.449   4.277   8.097 -0.1331  0.4430 -0.1539
 7066TIP3    H142757   0.370   4.231   8.127 -0.5007  0.4901 -1.0322
 7066TIP3    H242758   0.480   4.224   8.024  0.4355  0.6416 -0.0561
 7067TIP3   OH242759   3.489   2.187   6.710  0.5190  0.6434  0.0942
 7067TIP3    H142760   3.526   2.245   6.776  1.6035  2.4601 -1.9574
 7067TIP3    H242761   3.565   2.142   6.672 -0.3108 -2.5025  1.8327
 7068TIP3   OH242762   6.799   2.938   0.584 -0.0256 -0.3684 -0.2422
 7068TIP3    H142763   6.763   2.990   0.656 -0.3279 -2.5338  1.2719
 7068TIP3    H242764   6.732   2.944   0.515 -0.0047  1.2665 -0.1575
 7069TIP3   OH242765   3.564   0.557   1.028  0.0485  0.5810 -0.1401
 7069TIP3    H142766   3.549   0.551   0.934 -0.4580 -0.1616 -0.0214
 7069TIP3    H242767   3.587   0.467   1.054 -1.6871  0.3469  0.7419
 7070TIP3   OH242768   0.509   0.099   8.457 -0.3683  0.3566  0.0528
 7070TIP3    H142769   0.450   0.172   8.474 -0.7384 -0.0960  0.7926
 7070TIP3    H242770   0.587   0.119   8.508  0.0095  0.8164 -0.6992
 7071TIP3   OH242771   2.300   2.897   6.891  0.2150  0.1266 -1.0411
 7071TIP3    H142772   2.214   2.858   6.878 -0.5483  0.9696  1.0008
 7071TIP3    H242773   2.362   2.830   6.864 -1.0231 -0.0654 -3.7399
 7072LIG      O42774   0.578   0.526   6.092 -0.1760 -0.1591 -0.3355
 7072LIG     C142775   0.704   0.478   6.134 -0.0171  0.2622  0.3944
 7072LIG     C242776   0.720   0.535   6.271 -0.7310 -0.3328 -0.0357
 7072LIG     C342777   0.692   0.327   6.125 -0.4494  0.7924  0.0684
 7072LIG     H142778   0.778   0.517   6.061 -2.0570  1.2956 -1.2207
 7072LIG     H242779   0.801   0.483   6.326  0.4388  1.9227  0.5227
 7072LIG     H342780   0.623   0.519   6.323 -1.6845  1.1698 -1.2392
 7072LIG     H442781   0.745   0.644   6.267  0.0681 -0.5360 -0.8741
 7072LIG     H542782   0.686   0.294   6.019 -0.0171  0.8426  0.0258
 7072LIG     H642783   0.595   0.292   6.166  0.7916 -1.8689  0.9553
 7072LIG     H742784   0.774   0.269   6.172 -0.7990 -0.6332 -1.0171
 7072LIG     H842785   0.582   0.614   6.130 -1.5080  0.7089 -2.0364
   6.87365   6.87365   8.64322
